<event>
12    1  0.1039378E-001  0.1976634E+03  0.7546771E-02  0.1152169E+00
         21   -1    0    0  503  502  0.00000000000E+00  0.00000000000E+00  0.38868542750E+02  0.38868542750E+02  0.00000000000E+00 0. -1.
         21   -1    0    0  501  503 -0.00000000000E+00 -0.00000000000E+00 -0.17333780533E+04  0.17333780533E+04  0.00000000000E+00 0. -1.
          6    2    1    2  501    0  0.87721494759E+02 -0.22446000844E+02 -0.14231416986E+04  0.14365215476E+04  0.17338678993E+03 0.  0.
         24    2    3    3    0    0  0.27223619036E+02  0.50483730460E+02 -0.82920983697E+03  0.83506009007E+03  0.80291144121E+02 0.  0.
         -6    2    1    2    0  502 -0.87721494759E+02  0.22446000844E+02 -0.27136781203E+03  0.33572504849E+03  0.17570411260E+03 0.  0.
        -24    2    5    5    0    0 -0.11066191861E+03  0.61596088847E+02 -0.23035327840E+03  0.27437951560E+03  0.78621544888E+02 0.  0.
          5    1    3    3  501    0  0.60497875723E+02 -0.72929731303E+02 -0.59393186160E+03  0.60146145753E+03  0.47000000000E+01 0. -1.
        -13    1    4    4    0    0 -0.20195788428E+01  0.20140719102E+02 -0.67186226353E+03  0.67216711346E+03  0.00000000000E+00 0.  1.
         14    1    4    4    0    0  0.29243197879E+02  0.30343011358E+02 -0.15734757344E+03  0.16289297661E+03  0.00000000000E+00 0. -1.
         -5    1    5    5    0  502  0.22940423852E+02 -0.39150088004E+02 -0.41014533631E+02  0.61345532895E+02  0.47000000000E+01 0.  1.
         13    1    6    6    0    0 -0.30233532120E+02  0.15874047416E+02 -0.10296880854E+02  0.35666196898E+02  0.00000000000E+00 0. -1.
        -14    1    6    6    0    0 -0.80428386491E+02  0.45722041431E+02 -0.22005639754E+03  0.23871331870E+03  0.00000000000E+00 0.  1.
<mgrwt>
<rscale>  2 0.19714713E+03</rscale>
<asrwt>0</asrwt>
<pdfrwt beam="1">  1       21 0.59797773E-02 0.19766340E+03</pdfrwt>
<pdfrwt beam="2">  1       21 0.26667348E+00 0.19766340E+03</pdfrwt>
<totfact> 0.10487538E+04</totfact>
</mgrwt>
</event>
<event>
12    1  0.1039378E-001  0.3776094E+03  0.7546771E-02  0.1051890E+00
         21   -1    0    0  501  502  0.00000000000E+00  0.00000000000E+00  0.29218608818E+03  0.29218608818E+03  0.00000000000E+00 0.  1.
         21   -1    0    0  502  503 -0.00000000000E+00 -0.00000000000E+00 -0.64713559500E+03  0.64713559500E+03  0.00000000000E+00 0.  1.
         -6    2    1    2    0  503 -0.28791403958E+03  0.17010323835E+03 -0.41120187762E+03  0.55827934459E+03  0.17538311366E+03 0.  0.
        -24    2    3    3    0    0 -0.25301375336E+03  0.90553419758E+02 -0.25277452578E+03  0.37753776269E+03  0.80149361551E+02 0.  0.
          6    2    1    2  501    0  0.28791403958E+03 -0.17010323835E+03  0.56252370797E+02  0.38104233858E+03  0.17377954048E+03 0.  0.
         24    2    5    5    0    0  0.26354714913E+03 -0.18263676814E+03  0.84768725001E+02  0.34121637750E+03  0.80184728242E+02 0.  0.
          5    1    5    5  501    0  0.24366890454E+02  0.12533529795E+02 -0.28516354204E+02  0.39825961088E+02  0.47000000000E+01 0. -1.
        -13    1    6    6    0    0  0.20450719535E+03 -0.12200975709E+03  0.29067701142E+02  0.23990520008E+03  0.00000000000E+00 0.  1.
         14    1    6    6    0    0  0.59039953780E+02 -0.60627011048E+02  0.55701023859E+02  0.10131117742E+03  0.00000000000E+00 0. -1.
         -5    1    3    3    0  503 -0.34900286221E+02  0.79549818587E+02 -0.15842735185E+03  0.18074158190E+03  0.47000000000E+01 0.  1.
         11    1    4    4    0    0 -0.71214101067E+02 -0.10270992891E+02 -0.75962142531E+02  0.10462881335E+03  0.00000000000E+00 0. -1.
        -12    1    4    4    0    0 -0.18179965229E+03  0.10082441265E+03 -0.17681238325E+03  0.27290894934E+03  0.00000000000E+00 0.  1.
<mgrwt>
<rscale>  2 0.37742371E+03</rscale>
<asrwt>0</asrwt>
<pdfrwt beam="1">  1       21 0.44951706E-01 0.37760938E+03</pdfrwt>
<pdfrwt beam="2">  1       21 0.99559322E-01 0.37760938E+03</pdfrwt>
<totfact> 0.35319727E+03</totfact>
</mgrwt>
</event>
<event>
12    1  0.1039378E-001  0.1872230E+03  0.7546771E-02  0.1161706E+00
         21   -1    0    0  501  502  0.00000000000E+00  0.00000000000E+00  0.38336681162E+03  0.38336681162E+03  0.00000000000E+00 0. -1.
         21   -1    0    0  502  503 -0.00000000000E+00 -0.00000000000E+00 -0.10134369685E+03  0.10134369685E+03  0.00000000000E+00 0. -1.
         -6    2    1    2    0  503  0.22637053703E+02  0.63404505036E+02  0.22129807019E+03  0.28788573325E+03  0.17138492372E+03 0.  0.
        -24    2    3    3    0    0  0.33395153311E+02 -0.65299013425E+01  0.16974918974E+03  0.20021626890E+03  0.10056784297E+03 0.  0.
          6    2    1    2  501    0 -0.22637053703E+02 -0.63404505036E+02  0.60725044581E+02  0.19682477523E+03  0.17469943802E+03 0.  0.
         24    2    5    5    0    0 -0.25090744251E+02  0.20621240030E+02  0.71306379781E+02  0.11196959810E+03  0.79986312035E+02 0.  0.
          5    1    5    5  501    0  0.24536905478E+01 -0.84025745066E+02 -0.10581335200E+02  0.84855177131E+02  0.47000000000E+01 0. -1.
        -11    1    6    6    0    0 -0.44316128366E+02  0.11367114729E+02  0.96928947598E+01  0.46766256419E+02  0.00000000000E+00 0.  1.
         12    1    6    6    0    0  0.19225384115E+02  0.92541253012E+01  0.61613485021E+02  0.65203341677E+02  0.00000000000E+00 0. -1.
         -5    1    3    3    0  503 -0.10758099608E+02  0.69934406378E+02  0.51548880446E+02  0.87669464342E+02  0.47000000000E+01 0.  1.
         11    1    4    4    0    0 -0.18653630269E+02 -0.37232910956E+02  0.97535204099E+02  0.10605358843E+03  0.00000000000E+00 0. -1.
        -12    1    4    4    0    0  0.52048783580E+02  0.30703009614E+02  0.72213985643E+02  0.94162680473E+02  0.00000000000E+00 0.  1.
<mgrwt>
<rscale>  2 0.18644596E+03</rscale>
<asrwt>0</asrwt>
<pdfrwt beam="1">  1       21 0.58979509E-01 0.18722303E+03</pdfrwt>
<pdfrwt beam="2">  1       21 0.15591338E-01 0.18722303E+03</pdfrwt>
<totfact> 0.98481733E+04</totfact>
</mgrwt>
</event>
<event>
12    1  0.1039378E-001  0.1822852E+03  0.7546771E-02  0.1166122E+00
         21   -1    0    0  501  502  0.00000000000E+00  0.00000000000E+00  0.29244649557E+03  0.29244649557E+03  0.00000000000E+00 0.  1.
         21   -1    0    0  502  503 -0.00000000000E+00 -0.00000000000E+00 -0.14562621343E+03  0.14562621343E+03  0.00000000000E+00 0.  1.
         -6    2    1    2    0  503  0.11606856641E+01 -0.51114452750E+02 -0.31718669983E+02  0.18291774663E+03  0.17273909093E+03 0.  0.
        -24    2    3    3    0    0  0.20835853843E+02  0.30880921754E+02  0.10649374508E+02  0.88432325124E+02  0.79492784677E+02 0.  0.
          6    2    1    2  501    0 -0.11606856641E+01  0.51114452750E+02  0.17853895212E+03  0.25515496237E+03  0.17496817690E+03 0.  0.
         24    2    5    5    0    0  0.40730141283E+02  0.73609949073E+02  0.67899181079E+02  0.13463883202E+03  0.80249282155E+02 0.  0.
          5    1    5    5  501    0 -0.41890826947E+02 -0.22495496323E+02  0.11063977104E+03  0.12051613034E+03  0.47000000000E+01 0. -1.
        -11    1    6    6    0    0 -0.20535743955E+02  0.28636957492E+02  0.40895229839E+02  0.53983441329E+02  0.00000000000E+00 0.  1.
         12    1    6    6    0    0  0.61265885237E+02  0.44972991582E+02  0.27003951240E+02  0.80655390696E+02  0.00000000000E+00 0. -1.
         -5    1    3    3    0  503 -0.19675168179E+02 -0.81995374505E+02 -0.42368044491E+02  0.94485421506E+02  0.47000000000E+01 0.  1.
         11    1    4    4    0    0 -0.15113752451E+02 -0.20136626669E+02  0.37042133147E+00  0.25180279163E+02  0.00000000000E+00 0. -1.
        -12    1    4    4    0    0  0.35949606295E+02  0.51017548424E+02  0.10278953176E+02  0.63252045961E+02  0.00000000000E+00 0.  1.
<mgrwt>
<rscale>  2 0.18174821E+03</rscale>
<asrwt>0</asrwt>
<pdfrwt beam="1">  1       21 0.44991768E-01 0.18228521E+03</pdfrwt>
<pdfrwt beam="2">  1       21 0.22404033E-01 0.18228521E+03</pdfrwt>
<totfact> 0.88776876E+04</totfact>
</mgrwt>
</event>
<event>
12    1  0.1039378E-001  0.1801801E+03  0.7546771E-02  0.1168070E+00
         21   -1    0    0  501  502  0.00000000000E+00  0.00000000000E+00  0.25661705693E+03  0.25661705693E+03  0.00000000000E+00 0.  1.
         21   -1    0    0  502  503 -0.00000000000E+00 -0.00000000000E+00 -0.34851810648E+03  0.34851810648E+03  0.00000000000E+00 0.  1.
         -6    2    1    2    0  503  0.37454113409E+02 -0.19948251754E+02 -0.28821075649E+03  0.33989752228E+03  0.17511179895E+03 0.  0.
        -24    2    3    3    0    0  0.92843608909E+02 -0.86659910572E+01 -0.19068259126E+03  0.22707412651E+03  0.80670770454E+02 0.  0.
          6    2    1    2  501    0 -0.37454113409E+02  0.19948251754E+02  0.19630970694E+03  0.26523764113E+03  0.17324191720E+03 0.  0.
         24    2    5    5    0    0 -0.47763041734E+02  0.39106455801E+02  0.21320311707E+03  0.23729505551E+03  0.83921101043E+02 0.  0.
          5    1    5    5  501    0  0.10308928325E+02 -0.19158204047E+02 -0.16893410130E+02  0.27942585624E+02  0.47000000000E+01 0. -1.
        -11    1    6    6    0    0 -0.42405905036E+02 -0.52462510564E+01  0.40378322358E+02  0.58789394014E+02  0.00000000000E+00 0.  1.
         12    1    6    6    0    0 -0.53571366980E+01  0.44352706857E+02  0.17282479471E+03  0.17850566149E+03  0.00000000000E+00 0. -1.
         -5    1    3    3    0  503 -0.55389495500E+02 -0.11282260696E+02 -0.97528165235E+02  0.11282339577E+03  0.47000000000E+01 0.  1.
         11    1    4    4    0    0  0.10692691079E+02  0.30418223559E+02 -0.53605873028E+02  0.62555508071E+02  0.00000000000E+00 0. -1.
        -12    1    4    4    0    0  0.82150917830E+02 -0.39084214616E+02 -0.13707671823E+03  0.16451861844E+03  0.00000000000E+00 0.  1.
<mgrwt>
<rscale>  2 0.17972423E+03</rscale>
<asrwt>0</asrwt>
<pdfrwt beam="1">  1       21 0.39479547E-01 0.18018015E+03</pdfrwt>
<pdfrwt beam="2">  1       21 0.53618170E-01 0.18018015E+03</pdfrwt>
<totfact> 0.20507759E+04</totfact>
</mgrwt>
</event>
<event>
12    1  0.1039378E-001  0.1743861E+03  0.7546771E-02  0.1173518E+00
         21   -1    0    0  501  502  0.00000000000E+00  0.00000000000E+00  0.20877847411E+03  0.20877847411E+03  0.00000000000E+00 0. -1.
         21   -1    0    0  502  503 -0.00000000000E+00 -0.00000000000E+00 -0.25409970955E+03  0.25409970955E+03  0.00000000000E+00 0. -1.
         -6    2    1    2    0  503  0.79359293889E+01  0.18885285531E+02 -0.17421608842E+03  0.24602712481E+03  0.17250642798E+03 0.  0.
        -24    2    3    3    0    0  0.59435168992E+02 -0.26609163784E+02 -0.84836358187E+02  0.13318766906E+03  0.79379850144E+02 0.  0.
          6    2    1    2  501    0 -0.79359293889E+01 -0.18885285531E+02  0.12889485298E+03  0.21685105885E+03  0.17317871005E+03 0.  0.
         24    2    5    5    0    0  0.55494222735E+02 -0.33030870531E+02  0.48339433324E+02  0.11324243272E+03  0.79476415297E+02 0.  0.
          5    1    5    5  501    0 -0.63430152123E+02  0.14145585000E+02  0.80555419659E+02  0.10360862614E+03  0.47000000000E+01 0. -1.
        -11    1    6    6    0    0 -0.92777883220E+01 -0.26276628664E+02 -0.59070457617E+01  0.28485641291E+02  0.00000000000E+00 0.  1.
         12    1    6    6    0    0  0.64772011057E+02 -0.67542418662E+01  0.54246479085E+02  0.84756791425E+02  0.00000000000E+00 0. -1.
         -5    1    3    3    0  503 -0.51499239603E+02  0.45494449315E+02 -0.89379730229E+02  0.11283945575E+03  0.47000000000E+01 0.  1.
         13    1    4    4    0    0  0.37612516543E+02 -0.29236214855E+02 -0.22125638989E+01  0.47690178221E+02  0.00000000000E+00 0. -1.
        -14    1    4    4    0    0  0.21822652449E+02  0.26270510708E+01 -0.82623794288E+02  0.85497490839E+02  0.00000000000E+00 0.  1.
<mgrwt>
<rscale>  2 0.17421892E+03</rscale>
<asrwt>0</asrwt>
<pdfrwt beam="1">  1       21 0.32119765E-01 0.17438606E+03</pdfrwt>
<pdfrwt beam="2">  1       21 0.39092263E-01 0.17438606E+03</pdfrwt>
<totfact> 0.59309826E+04</totfact>
</mgrwt>
</event>
<event>
12    1  0.1039378E-001  0.1753156E+03  0.7546771E-02  0.1173174E+00
         21   -1    0    0  501  502  0.00000000000E+00  0.00000000000E+00  0.25375826278E+03  0.25375826278E+03  0.00000000000E+00 0. -1.
         21   -1    0    0  502  503 -0.00000000000E+00 -0.00000000000E+00 -0.11989756585E+03  0.11989756585E+03  0.00000000000E+00 0. -1.
         -6    2    1    2    0  503  0.13046312743E+02  0.18072977820E+02  0.50701495097E+02  0.17961715418E+03  0.17086498081E+03 0.  0.
        -24    2    3    3    0    0  0.40141510623E+02 -0.27494684957E+02  0.79723596440E+02  0.11899592023E+03  0.73735192583E+02 0.  0.
          6    2    1    2  501    0 -0.13046312743E+02 -0.18072977820E+02  0.83159201830E+02  0.19403867446E+03  0.17389282772E+03 0.  0.
         24    2    5    5    0    0  0.38751714351E+02 -0.40909504695E+02  0.27437662041E+02  0.11446780940E+03  0.95785025709E+02 0.  0.
          5    1    5    5  501    0 -0.51798027094E+02  0.22836526875E+02  0.55721539790E+02  0.79570865064E+02  0.47000000000E+01 0. -1.
        -13    1    6    6    0    0 -0.94003628814E+01  0.25849338740E+02 -0.59700612214E+00  0.27512025588E+02  0.00000000000E+00 0.  1.
         14    1    6    6    0    0  0.48152077232E+02 -0.66758843436E+02  0.28034668163E+02  0.86955783808E+02  0.00000000000E+00 0. -1.
         -5    1    3    3    0  503 -0.27095197880E+02  0.45567662778E+02 -0.29022101344E+02  0.60621233950E+02  0.47000000000E+01 0.  1.
         11    1    4    4    0    0 -0.16418833959E+02 -0.14776413739E+02  0.48168503539E+02  0.52991746949E+02  0.00000000000E+00 0. -1.
        -12    1    4    4    0    0  0.56560344582E+02 -0.12718271218E+02  0.31555092901E+02  0.66004173277E+02  0.00000000000E+00 0.  1.
<mgrwt>
<rscale>  2 0.17456000E+03</rscale>
<asrwt>0</asrwt>
<pdfrwt beam="1">  1       21 0.39039733E-01 0.17531558E+03</pdfrwt>
<pdfrwt beam="2">  1       21 0.18445779E-01 0.17531558E+03</pdfrwt>
<totfact> 0.17065299E+05</totfact>
</mgrwt>
</event>
<event>
12    1  0.1039378E-001  0.1771288E+03  0.7546771E-02  0.1170752E+00
         21   -1    0    0  503  502  0.00000000000E+00  0.00000000000E+00  0.73715783836E+03  0.73715783836E+03  0.00000000000E+00 0.  1.
         21   -1    0    0  501  503 -0.00000000000E+00 -0.00000000000E+00 -0.12655232644E+03  0.12655232644E+03  0.00000000000E+00 0.  1.
          6    2    1    2  501    0 -0.11847794749E+01  0.41137548916E+02 -0.46965609688E+02  0.18270033488E+03  0.17169724004E+03 0.  0.
         24    2    3    3    0    0 -0.68032460583E+02  0.70664479800E+01 -0.16982882152E+02  0.10176513648E+03  0.73412358207E+02 0.  0.
         -6    2    1    2    0  502  0.11847794749E+01 -0.41137548916E+02  0.65757112161E+03  0.68100982993E+03  0.17228147566E+03 0.  0.
        -24    2    5    5    0    0 -0.18423556567E+00  0.21027616208E+02  0.55423647761E+03  0.56031798842E+03  0.79598872134E+02 0.  0.
          5    1    3    3  501    0  0.66847681108E+02  0.34071100936E+02 -0.29982727536E+02  0.80935198394E+02  0.47000000000E+01 0. -1.
        -11    1    4    4    0    0 -0.20810934585E+02 -0.32626200724E+01 -0.42258453044E+02  0.47217756636E+02  0.00000000000E+00 0.  1.
         12    1    4    4    0    0 -0.47221525999E+02  0.10329068052E+02  0.25275570892E+02  0.54547379849E+02  0.00000000000E+00 0. -1.
         -5    1    5    5    0  502  0.13690150406E+01 -0.62165165125E+02  0.10333464399E+03  0.12069184151E+03  0.47000000000E+01 0.  1.
         11    1    6    6    0    0 -0.27231011669E+01  0.48659234175E+02  0.24248133162E+03  0.24733041167E+03  0.00000000000E+00 0. -1.
        -12    1    6    6    0    0  0.25388656013E+01 -0.27631617967E+02  0.31175514599E+03  0.31298757676E+03  0.00000000000E+00 0.  1.
<mgrwt>
<rscale>  2 0.17698657E+03</rscale>
<asrwt>0</asrwt>
<pdfrwt beam="1">  1       21 0.11340890E+00 0.17712879E+03</pdfrwt>
<pdfrwt beam="2">  1       21 0.19469589E-01 0.17712879E+03</pdfrwt>
<totfact> 0.14874577E+04</totfact>
</mgrwt>
</event>
<event>
12    1  0.1039378E-001  0.1787853E+03  0.7546771E-02  0.1169027E+00
         21   -1    0    0  503  502  0.00000000000E+00  0.00000000000E+00  0.97701259730E+03  0.97701259730E+03  0.00000000000E+00 0. -1.
         21   -1    0    0  501  503 -0.00000000000E+00 -0.00000000000E+00 -0.37168935360E+02  0.37168935360E+02  0.00000000000E+00 0. -1.
          6    2    1    2  501    0  0.51853397860E+02 -0.37075262210E+01  0.29397762121E+03  0.34407418138E+03  0.17106045685E+03 0.  0.
         24    2    3    3    0    0  0.85715274390E+02  0.18484490621E+02  0.27375434420E+03  0.29857491516E+03  0.80726416586E+02 0.  0.
         -6    2    1    2    0  502 -0.51853397860E+02  0.37075262210E+01  0.64586604073E+03  0.67010735128E+03  0.17087539043E+03 0.  0.
        -24    2    5    5    0    0 -0.30378011775E+02  0.82659354589E+01  0.64099109672E+03  0.64713287889E+03  0.83187905313E+02 0.  0.
          5    1    3    3  501    0 -0.33861876530E+02 -0.22192016842E+02  0.20223277010E+02  0.45499266222E+02  0.47000000000E+01 0. -1.
        -13    1    4    4    0    0  0.50981099310E+01 -0.95643131379E+01  0.13659605813E+03  0.13702536228E+03  0.00000000000E+00 0.  1.
         14    1    4    4    0    0  0.80617164459E+02  0.28048803759E+02  0.13715828607E+03  0.16154955288E+03  0.00000000000E+00 0. -1.
         -5    1    5    5    0  502 -0.21475386084E+02 -0.45584092379E+01  0.48749440109E+01  0.22974472385E+02  0.47000000000E+01 0.  1.
         11    1    6    6    0    0 -0.21765007980E+02 -0.32763456527E+01  0.37589133117E+02  0.43559074160E+02  0.00000000000E+00 0. -1.
        -12    1    6    6    0    0 -0.86130037949E+01  0.11542281112E+02  0.60340196360E+03  0.60357380473E+03  0.00000000000E+00 0.  1.
<mgrwt>
<rscale>  2 0.17874107E+03</rscale>
<asrwt>0</asrwt>
<pdfrwt beam="1">  1       21 0.15030961E+00 0.17878535E+03</pdfrwt>
<pdfrwt beam="2">  1       21 0.57182985E-02 0.17878535E+03</pdfrwt>
<totfact> 0.64112146E+04</totfact>
</mgrwt>
</event>
<event>
12    1  0.1039378E-001  0.1841166E+03  0.7546771E-02  0.1164699E+00
         21   -1    0    0  501  502  0.00000000000E+00  0.00000000000E+00  0.37029079961E+03  0.37029079961E+03  0.00000000000E+00 0. -1.
         21   -1    0    0  502  503 -0.00000000000E+00 -0.00000000000E+00 -0.92629666873E+02  0.92629666873E+02  0.00000000000E+00 0. -1.
         -6    2    1    2    0  503 -0.35764705175E+02  0.29632407213E+02  0.18031895491E+03  0.25770882544E+03  0.17816205971E+03 0.  0.
        -24    2    3    3    0    0  0.24267046609E+02  0.61555134429E+02  0.13518771365E+03  0.17596660458E+03  0.91162513557E+02 0.  0.
          6    2    1    2  501    0  0.35764705175E+02 -0.29632407213E+02  0.97342177831E+02  0.20521164104E+03  0.17458271490E+03 0.  0.
         24    2    5    5    0    0  0.25947877814E+02  0.41078674303E+02  0.94713350947E+02  0.13361954735E+03  0.80763944557E+02 0.  0.
          5    1    5    5  501    0  0.98168273610E+01 -0.70711081516E+02  0.26288268833E+01  0.71592093693E+02  0.47000000000E+01 0. -1.
        -13    1    6    6    0    0  0.24341069518E+02  0.16527259853E+02  0.10341758273E+03  0.10752132068E+03  0.00000000000E+00 0.  1.
         14    1    6    6    0    0  0.16068082955E+01  0.24551414449E+02 -0.87042317799E+01  0.26098226669E+02  0.00000000000E+00 0. -1.
         -5    1    3    3    0  503 -0.60031751784E+02 -0.31922727216E+02  0.45131241256E+02  0.81742220868E+02  0.47000000000E+01 0.  1.
         11    1    4    4    0    0 -0.58018384589E+01 -0.77661263592E+01  0.84326372795E+02  0.84881748314E+02  0.00000000000E+00 0. -1.
        -12    1    4    4    0    0  0.30068885068E+02  0.69321260788E+02  0.50861340857E+02  0.91084856262E+02  0.00000000000E+00 0.  1.
<mgrwt>
<rscale>  2 0.18324507E+03</rscale>
<asrwt>0</asrwt>
<pdfrwt beam="1">  1       21 0.56967815E-01 0.18411658E+03</pdfrwt>
<pdfrwt beam="2">  1       21 0.14250718E-01 0.18411658E+03</pdfrwt>
<totfact> 0.12502370E+05</totfact>
</mgrwt>
</event>
<event>
12    1  0.1039378E-001  0.1818305E+03  0.7546771E-02  0.1166150E+00
         21   -1    0    0  503  502  0.00000000000E+00  0.00000000000E+00  0.50670569852E+03  0.50670569852E+03  0.00000000000E+00 0. -1.
         21   -1    0    0  501  503 -0.00000000000E+00 -0.00000000000E+00 -0.13900926980E+03  0.13900926980E+03  0.00000000000E+00 0. -1.
          6    2    1    2  501    0 -0.46045982421E+02 -0.36991916767E+02 -0.51480041130E+02  0.18897758146E+03  0.17197004755E+03 0.  0.
         24    2    3    3    0    0  0.13519403852E+02 -0.45945061299E+00 -0.79531095875E+02  0.11353483497E+03  0.79887284125E+02 0.  0.
         -6    2    1    2    0  502  0.46045982421E+02  0.36991916767E+02  0.41917646985E+03  0.45673738687E+03  0.17149779380E+03 0.  0.
        -24    2    5    5    0    0  0.82554204563E+02  0.67541206701E+02  0.28872890560E+03  0.31779579332E+03  0.79074484030E+02 0.  0.
          5    1    3    3  501    0 -0.59565386274E+02 -0.36532466154E+02  0.28051054745E+02  0.75442746487E+02  0.47000000000E+01 0. -1.
        -11    1    4    4    0    0  0.37910714954E+02 -0.37113735513E+00 -0.90854390599E+01  0.38985962270E+02  0.00000000000E+00 0.  1.
         12    1    4    4    0    0 -0.24391311101E+02 -0.88313257860E-01 -0.70445656815E+02  0.74548872699E+02  0.00000000000E+00 0. -1.
         -5    1    5    5    0  502 -0.36508222142E+02 -0.30549289934E+02  0.13044756425E+03  0.13894159355E+03  0.47000000000E+01 0.  1.
         11    1    6    6    0    0  0.78785923379E+02  0.62802686695E+02  0.29335591361E+03  0.31017590368E+03  0.00000000000E+00 0. -1.
        -12    1    6    6    0    0  0.37682811844E+01  0.47385200064E+01 -0.46270080029E+01  0.76198896314E+01  0.00000000000E+00 0.  1.
<mgrwt>
<rscale>  2 0.18171875E+03</rscale>
<asrwt>0</asrwt>
<pdfrwt beam="1">  1       21 0.77954722E-01 0.18183050E+03</pdfrwt>
<pdfrwt beam="2">  1       21 0.21386042E-01 0.18183050E+03</pdfrwt>
<totfact> 0.29862019E+04</totfact>
</mgrwt>
</event>
<event>
12    1  0.1039378E-001  0.1926728E+03  0.7546771E-02  0.1157193E+00
         21   -1    0    0  501  502  0.00000000000E+00  0.00000000000E+00  0.25912560871E+03  0.25912560871E+03  0.00000000000E+00 0.  1.
         21   -1    0    0  502  503 -0.00000000000E+00 -0.00000000000E+00 -0.53609558522E+03  0.53609558522E+03  0.00000000000E+00 0.  1.
         -6    2    1    2    0  503  0.24853572502E+02 -0.80059199892E+02 -0.47995933021E+03  0.51535070872E+03  0.16792325262E+03 0.  0.
        -24    2    3    3    0    0  0.64229469487E+02 -0.18800385698E+02 -0.36003767048E+03  0.37497122998E+03  0.80606574750E+02 0.  0.
          6    2    1    2  501    0 -0.24853572502E+02  0.80059199892E+02  0.20298935370E+03  0.27987048521E+03  0.17348093619E+03 0.  0.
         24    2    5    5    0    0 -0.83498312985E+01  0.10190262208E+03  0.21394294294E+03  0.25001115361E+03  0.79247271389E+02 0.  0.
          5    1    5    5  501    0 -0.16503741204E+02 -0.21843422190E+02 -0.10953589239E+02  0.29859331605E+02  0.47000000000E+01 0. -1.
        -13    1    6    6    0    0  0.27998706730E+02  0.80378087763E+02  0.12120875328E+03  0.14810849551E+03  0.00000000000E+00 0.  1.
         14    1    6    6    0    0 -0.36348538029E+02  0.21524534320E+02  0.92734189657E+02  0.10190265809E+03  0.00000000000E+00 0. -1.
         -5    1    3    3    0  503 -0.39375896985E+02 -0.61258814194E+02 -0.11992165973E+03  0.14037947874E+03  0.47000000000E+01 0.  1.
         13    1    4    4    0    0  0.10868836492E+02 -0.13452270092E+02 -0.83254077057E+01  0.19193946722E+02  0.00000000000E+00 0. -1.
        -14    1    4    4    0    0  0.53360632995E+02 -0.53481156058E+01 -0.35171226278E+03  0.35577728326E+03  0.00000000000E+00 0.  1.
<mgrwt>
<rscale>  2 0.19141338E+03</rscale>
<asrwt>0</asrwt>
<pdfrwt beam="1">  1       21 0.39865479E-01 0.19267281E+03</pdfrwt>
<pdfrwt beam="2">  1       21 0.82476243E-01 0.19267281E+03</pdfrwt>
<totfact> 0.77845162E+03</totfact>
</mgrwt>
</event>
<event>
12    1  0.1039378E-001  0.4296258E+03  0.7546771E-02  0.1033979E+00
         21   -1    0    0  501  502  0.00000000000E+00  0.00000000000E+00  0.28604173670E+03  0.28604173670E+03  0.00000000000E+00 0.  1.
         21   -1    0    0  502  503 -0.00000000000E+00 -0.00000000000E+00 -0.10407857697E+04  0.10407857697E+04  0.00000000000E+00 0. -1.
         -6    2    1    2    0  503  0.26132925153E+03 -0.29388997372E+03 -0.78633385901E+03  0.89604191829E+03  0.17293318694E+03 0.  0.
        -24    2    3    3    0    0  0.27722848769E+03 -0.27845851557E+03 -0.76970658116E+03  0.86794437427E+03  0.80525998737E+02 0.  0.
          6    2    1    2  501    0 -0.26132925153E+03  0.29388997372E+03  0.31589825985E+02  0.43078558814E+03  0.17295667517E+03 0.  0.
         24    2    5    5    0    0 -0.18819445336E+03  0.29201952636E+03  0.26460992877E+02  0.35729686652E+03  0.79172663389E+02 0.  0.
          5    1    5    5  501    0 -0.73134798170E+02  0.18704473594E+01  0.51288331086E+01  0.73488721622E+02  0.47000000000E+01 0. -1.
        -13    1    6    6    0    0 -0.13471162140E+03  0.19027031222E+03  0.53543070496E+02  0.23920048714E+03  0.00000000000E+00 0.  1.
         14    1    6    6    0    0 -0.53482831963E+02  0.10174921415E+03 -0.27082077619E+02  0.11809637938E+03  0.00000000000E+00 0. -1.
         -5    1    3    3    0  503 -0.15899236154E+02 -0.15431458153E+02 -0.16627277848E+02  0.28097544014E+02  0.47000000000E+01 0.  1.
         11    1    4    4    0    0  0.16757019974E+02 -0.48987920401E+02 -0.13363321507E+03  0.14331242177E+03  0.00000000000E+00 0. -1.
        -12    1    4    4    0    0  0.26047146771E+03 -0.22947059517E+03 -0.63607336609E+03  0.72463195251E+03  0.00000000000E+00 0.  1.
<mgrwt>
<rscale>  2 0.42962341E+03</rscale>
<asrwt>0</asrwt>
<pdfrwt beam="1">  1       21 0.44006422E-01 0.42962577E+03</pdfrwt>
<pdfrwt beam="2">  1       21 0.16012088E+00 0.42962577E+03</pdfrwt>
<totfact> 0.10608106E+03</totfact>
</mgrwt>
</event>
<event>
12    1  0.1039378E-001  0.1728786E+03  0.7546771E-02  0.1176834E+00
         21   -1    0    0  503  502  0.00000000000E+00  0.00000000000E+00  0.37388529622E+03  0.37388529622E+03  0.00000000000E+00 0.  1.
         21   -1    0    0  501  503 -0.00000000000E+00 -0.00000000000E+00 -0.10399808962E+03  0.10399808962E+03  0.00000000000E+00 0.  1.
          6    2    1    2  501    0  0.80380068432E+01  0.32505415983E+01  0.99295004403E+01  0.16568952490E+03  0.16516430640E+03 0.  0.
         24    2    3    3    0    0  0.43033547110E+02 -0.94277878465E+01  0.53852036116E+02  0.10792528842E+03  0.82504889103E+02 0.  0.
         -6    2    1    2    0  502 -0.80380068432E+01 -0.32505415983E+01  0.25995770615E+03  0.31219386094E+03  0.17266100383E+03 0.  0.
        -24    2    5    5    0    0 -0.82335399077E-01  0.58699969666E+02  0.86975714363E+02  0.12822098783E+03  0.73689576020E+02 0.  0.
          5    1    3    3  501    0 -0.34995540267E+02  0.12678329445E+02 -0.43922535676E+02  0.57764236482E+02  0.47000000000E+01 0. -1.
        -11    1    4    4    0    0  0.29749013924E+02 -0.15331583046E+02 -0.15631100247E+02  0.36937684863E+02  0.00000000000E+00 0.  1.
         12    1    4    4    0    0  0.13284533187E+02  0.59037951991E+01  0.69483136363E+02  0.70987603556E+02  0.00000000000E+00 0. -1.
         -5    1    5    5    0  502 -0.79556714441E+01 -0.61950511264E+02  0.17298199179E+03  0.18397287310E+03  0.47000000000E+01 0.  1.
         13    1    6    6    0    0  0.35416119838E+02  0.16729496234E+02  0.33703816830E+02  0.51673250890E+02  0.00000000000E+00 0. -1.
        -14    1    6    6    0    0 -0.35498455237E+02  0.41970473431E+02  0.53271897534E+02  0.76547736943E+02  0.00000000000E+00 0.  1.
<mgrwt>
<rscale>  2 0.17097567E+03</rscale>
<asrwt>0</asrwt>
<pdfrwt beam="1">  1       21 0.57520814E-01 0.17287856E+03</pdfrwt>
<pdfrwt beam="2">  1       21 0.15999706E-01 0.17287856E+03</pdfrwt>
<totfact> 0.99652907E+04</totfact>
</mgrwt>
</event>
<event>
12    1  0.1039378E-001  0.2289739E+03  0.7546771E-02  0.1127651E+00
         21   -1    0    0  503  502  0.00000000000E+00  0.00000000000E+00  0.18945708609E+03  0.18945708609E+03  0.00000000000E+00 0. -1.
         21   -1    0    0  501  503 -0.00000000000E+00 -0.00000000000E+00 -0.29537752048E+03  0.29537752048E+03  0.00000000000E+00 0.  1.
          6    2    1    2  501    0 -0.38308797256E+02  0.14311691951E+03 -0.11714306678E+03  0.25719942860E+03  0.17458244866E+03 0.  0.
         24    2    3    3    0    0  0.33907286243E+02  0.73565476651E+02 -0.10750987492E+03  0.15636563315E+03  0.79562897189E+02 0.  0.
         -6    2    1    2    0  502  0.38308797256E+02 -0.14311691951E+03  0.11222632383E+02  0.22763517797E+03  0.17245814036E+03 0.  0.
        -24    2    5    5    0    0  0.43566444330E+02 -0.13574451768E+03  0.65167162289E+02  0.17273438136E+03  0.72565820558E+02 0.  0.
          5    1    3    3  501    0 -0.72216083498E+02  0.69551442859E+02 -0.96331918621E+01  0.10083379545E+03  0.47000000000E+01 0. -1.
        -13    1    4    4    0    0 -0.76530719696E+01  0.70999978701E+02 -0.60776365886E+02  0.93772773962E+02  0.00000000000E+00 0.  1.
         14    1    4    4    0    0  0.41560358212E+02  0.25654979496E+01 -0.46733509033E+02  0.62592859186E+02  0.00000000000E+00 0. -1.
         -5    1    5    5    0  502 -0.52576470744E+01 -0.73724018350E+01 -0.53944529906E+02  0.54900796609E+02  0.47000000000E+01 0.  1.
         13    1    6    6    0    0  0.21698445740E+02 -0.21749129750E+02  0.45658831571E+02  0.55032500333E+02  0.00000000000E+00 0. -1.
        -14    1    6    6    0    0  0.21867998590E+02 -0.11399538792E+03  0.19508330718E+02  0.11770188103E+03  0.00000000000E+00 0.  1.
<mgrwt>
<rscale>  2 0.22856895E+03</rscale>
<asrwt>0</asrwt>
<pdfrwt beam="1">  1       21 0.29147244E-01 0.22897390E+03</pdfrwt>
<pdfrwt beam="2">  1       21 0.45442695E-01 0.22897390E+03</pdfrwt>
<totfact> 0.51476470E+04</totfact>
</mgrwt>
</event>
<event>
12    1  0.1039378E-001  0.2467359E+03  0.7546771E-02  0.1115453E+00
         21   -1    0    0  503  502  0.00000000000E+00  0.00000000000E+00  0.17666279197E+03  0.17666279197E+03  0.00000000000E+00 0. -1.
         21   -1    0    0  501  503 -0.00000000000E+00 -0.00000000000E+00 -0.34539732140E+03  0.34539732140E+03  0.00000000000E+00 0. -1.
          6    2    1    2  501    0 -0.12737384238E+03 -0.12088765844E+03 -0.10092655561E+03  0.26657972596E+03  0.17332241338E+03 0.  0.
         24    2    3    3    0    0 -0.13653620611E+03 -0.40485052501E+02 -0.80120374671E+02  0.18289271911E+03  0.82154106469E+02 0.  0.
         -6    2    1    2    0  502  0.12737384238E+03  0.12088765844E+03 -0.67807973830E+02  0.25548038741E+03  0.17272633079E+03 0.  0.
        -24    2    5    5    0    0  0.13101710593E+03  0.13915380713E+03 -0.24882091270E+02  0.20845223679E+03  0.79397433672E+02 0.  0.
          5    1    3    3  501    0  0.91623637286E+01 -0.80402605943E+02 -0.20806180935E+02  0.83687006856E+02  0.47000000000E+01 0. -1.
        -13    1    4    4    0    0 -0.23251500997E+02  0.22136442805E+02 -0.30454651307E+02  0.44250877787E+02  0.00000000000E+00 0.  1.
         14    1    4    4    0    0 -0.11328470512E+03 -0.62621495307E+02 -0.49665723364E+02  0.13864184132E+03  0.00000000000E+00 0. -1.
         -5    1    5    5    0  502 -0.36432635429E+01 -0.18266148684E+02 -0.42925882560E+02  0.47028150618E+02  0.47000000000E+01 0.  1.
         11    1    6    6    0    0  0.35743527487E+02  0.87664023333E+02  0.86950277761E+01  0.95069365477E+02  0.00000000000E+00 0. -1.
        -12    1    6    6    0    0  0.95273578440E+02  0.51489783794E+02 -0.33577119046E+02  0.11338287131E+03  0.00000000000E+00 0.  1.
<mgrwt>
<rscale>  2 0.24663120E+03</rscale>
<asrwt>0</asrwt>
<pdfrwt beam="1">  1       21 0.27178891E-01 0.24673585E+03</pdfrwt>
<pdfrwt beam="2">  1       21 0.53138049E-01 0.24673585E+03</pdfrwt>
<totfact> 0.42204500E+04</totfact>
</mgrwt>
</event>
<event>
12    1  0.1039378E-001  0.3230750E+03  0.7546771E-02  0.1074301E+00
         21   -1    0    0  503  502  0.00000000000E+00  0.00000000000E+00  0.17484331175E+03  0.17484331175E+03  0.00000000000E+00 0.  1.
         21   -1    0    0  501  503 -0.00000000000E+00 -0.00000000000E+00 -0.74186777877E+03  0.74186777877E+03  0.00000000000E+00 0. -1.
          6    2    1    2  501    0  0.38256951020E+01 -0.27210656365E+03 -0.48691949729E+03  0.58435265580E+03  0.17412872130E+03 0.  0.
         24    2    3    3    0    0  0.36907123764E+01 -0.22527771649E+03 -0.26299149372E+03  0.35553220233E+03  0.80467075371E+02 0.  0.
         -6    2    1    2    0  502 -0.38256951020E+01  0.27210656365E+03 -0.80104969739E+02  0.33235843472E+03  0.17317247191E+03 0.  0.
        -24    2    5    5    0    0  0.60435871213E+01  0.25923284994E+03 -0.23053060019E+02  0.27285931171E+03  0.81746956997E+02 0.  0.
          5    1    3    3  501    0  0.13498272561E+00 -0.46828847158E+02 -0.22392800356E+03  0.22882045347E+03  0.47000000000E+01 0. -1.
        -13    1    4    4    0    0  0.35766692905E+02 -0.65602674172E+02 -0.63940872203E+02  0.98343288119E+02  0.00000000000E+00 0.  1.
         14    1    4    4    0    0 -0.32075980529E+02 -0.15967504232E+03 -0.19905062152E+03  0.25718891421E+03  0.00000000000E+00 0. -1.
         -5    1    5    5    0  502 -0.98692822233E+01  0.12873713710E+02 -0.57051909719E+02  0.59499123010E+02  0.47000000000E+01 0.  1.
         13    1    6    6    0    0  0.15250097844E+02  0.42378945743E+02 -0.32601173005E+02  0.55600152948E+02  0.00000000000E+00 0. -1.
        -14    1    6    6    0    0 -0.92065107222E+01  0.21685390419E+03  0.95481129861E+01  0.21725915876E+03  0.00000000000E+00 0.  1.
<mgrwt>
<rscale>  2 0.32294629E+03</rscale>
<asrwt>0</asrwt>
<pdfrwt beam="1">  1       21 0.26898971E-01 0.32307496E+03</pdfrwt>
<pdfrwt beam="2">  1       21 0.11413350E+00 0.32307496E+03</pdfrwt>
<totfact> 0.72791375E+03</totfact>
</mgrwt>
</event>
<event>
12    1  0.1039378E-001  0.2478435E+03  0.7546771E-02  0.1115174E+00
         21   -1    0    0  501  502  0.00000000000E+00  0.00000000000E+00  0.34559457341E+03  0.34559457341E+03  0.00000000000E+00 0.  1.
         21   -1    0    0  502  503 -0.00000000000E+00 -0.00000000000E+00 -0.17552432060E+03  0.17552432060E+03  0.00000000000E+00 0.  1.
         -6    2    1    2    0  503 -0.17633147436E+03  0.14053056111E+01  0.85202667581E+02  0.25914765605E+03  0.16971520067E+03 0.  0.
        -24    2    3    3    0    0 -0.19953352231E+03 -0.42454788222E+01  0.91925303949E+02  0.23389789895E+03  0.80164300100E+02 0.  0.
          6    2    1    2  501    0  0.17633147436E+03 -0.14053056111E+01  0.84867585229E+02  0.26197123795E+03  0.17415986553E+03 0.  0.
         24    2    5    5    0    0  0.36866176718E+02  0.47196593334E+02  0.25116721997E+02  0.10258187356E+03  0.79407541520E+02 0.  0.
          5    1    5    5  501    0  0.13946529764E+03 -0.48601898945E+02  0.59750863232E+02  0.15938936440E+03  0.47000000000E+01 0. -1.
        -13    1    6    6    0    0  0.36235797478E+02 -0.11035212781E+02  0.22986144139E+02  0.44307694167E+02  0.00000000000E+00 0.  1.
         14    1    6    6    0    0  0.63037923918E+00  0.58231806115E+02  0.21305778583E+01  0.58274179389E+02  0.00000000000E+00 0. -1.
         -5    1    3    3    0  503  0.23202047952E+02  0.56507844333E+01 -0.67226363675E+01  0.25249757100E+02  0.47000000000E+01 0.  1.
         11    1    4    4    0    0 -0.76911470828E+01 -0.20677869893E+02  0.48989880702E+01  0.22599294920E+02  0.00000000000E+00 0. -1.
        -12    1    4    4    0    0 -0.19184237523E+03  0.16432391071E+02  0.87026315878E+02  0.21129860403E+03  0.00000000000E+00 0.  1.
<mgrwt>
<rscale>  2 0.24706417E+03</rscale>
<asrwt>0</asrwt>
<pdfrwt beam="1">  1       21 0.53168396E-01 0.24784354E+03</pdfrwt>
<pdfrwt beam="2">  1       21 0.27003742E-01 0.24784354E+03</pdfrwt>
<totfact> 0.42665111E+04</totfact>
</mgrwt>
</event>
<event>
12    1  0.1039378E-001  0.1754756E+03  0.7546771E-02  0.1172477E+00
         21   -1    0    0  501  502  0.00000000000E+00  0.00000000000E+00  0.35055089975E+02  0.35055089975E+02  0.00000000000E+00 0. -1.
         21   -1    0    0  502  503 -0.00000000000E+00 -0.00000000000E+00 -0.12225180331E+04  0.12225180331E+04  0.00000000000E+00 0.  1.
         -6    2    1    2    0  503  0.88600393312E+01 -0.26928391077E+02 -0.92840689227E+03  0.94468060931E+03  0.17227436679E+03 0.  0.
        -24    2    3    3    0    0  0.44298316999E+02 -0.38395283824E+02 -0.86695201306E+03  0.87266565717E+03  0.80641289338E+02 0.  0.
          6    2    1    2  501    0 -0.88600393312E+01  0.26928391077E+02 -0.25905605081E+03  0.31289251372E+03  0.17317057815E+03 0.  0.
         24    2    5    5    0    0  0.48855186475E+02  0.20550122700E+01 -0.79887996957E+02  0.12296354335E+03  0.79667362294E+02 0.  0.
          5    1    5    5  501    0 -0.57715225806E+02  0.24873378807E+02 -0.17916805386E+03  0.18992897037E+03  0.47000000000E+01 0. -1.
        -13    1    6    6    0    0  0.51104570087E+02 -0.20684320441E+02 -0.83267281675E+02  0.99864700438E+02  0.00000000000E+00 0.  1.
         14    1    6    6    0    0 -0.22493836127E+01  0.22739332711E+02  0.33792847178E+01  0.23098842914E+02  0.00000000000E+00 0. -1.
         -5    1    3    3    0  503 -0.35438277668E+02  0.11466892747E+02 -0.61454879212E+02  0.72014952144E+02  0.47000000000E+01 0.  1.
         13    1    4    4    0    0 -0.44162900726E+01 -0.44147795148E+02 -0.26218961794E+03  0.26591714347E+03  0.00000000000E+00 0. -1.
        -14    1    4    4    0    0  0.48714607072E+02  0.57525113246E+01 -0.60476239512E+03  0.60674851370E+03  0.00000000000E+00 0.  1.
<mgrwt>
<rscale>  2 0.17525409E+03</rscale>
<asrwt>0</asrwt>
<pdfrwt beam="1">  1       21 0.53930920E-02 0.17547560E+03</pdfrwt>
<pdfrwt beam="2">  1       21 0.18807965E+00 0.17547560E+03</pdfrwt>
<totfact> 0.38427816E+04</totfact>
</mgrwt>
</event>
<event>
12    1  0.1039378E-001  0.2155756E+03  0.7546771E-02  0.1137269E+00
         21   -1    0    0  501  502  0.00000000000E+00  0.00000000000E+00  0.71650013100E+03  0.71650013100E+03  0.00000000000E+00 0.  1.
         21   -1    0    0  502  503 -0.00000000000E+00 -0.00000000000E+00 -0.68445733322E+02  0.68445733322E+02  0.00000000000E+00 0. -1.
         -6    2    1    2    0  503 -0.62567534734E+01  0.12765344681E+03  0.23318719619E+03  0.31741230093E+03  0.17331979366E+03 0.  0.
        -24    2    3    3    0    0 -0.17517862521E+00  0.17805253321E+02  0.17347005772E+03  0.19214523506E+03  0.80689978925E+02 0.  0.
          6    2    1    2  501    0  0.62567534734E+01 -0.12765344681E+03  0.41486720150E+03  0.46753356339E+03  0.17360382650E+03 0.  0.
         24    2    5    5    0    0 -0.28538021151E+02 -0.11593831442E+03  0.40426257570E+03  0.42903072250E+03  0.79893800382E+02 0.  0.
          5    1    5    5  501    0  0.34794774624E+02 -0.11715132395E+02  0.10604625796E+02  0.38502840888E+02  0.47000000000E+01 0. -1.
        -13    1    6    6    0    0 -0.22137984431E+02  0.32654419140E+01  0.93191015131E+02  0.95840068691E+02  0.00000000000E+00 0.  1.
         14    1    6    6    0    0 -0.64000367201E+01 -0.11920375633E+03  0.31107156057E+03  0.33319065381E+03  0.00000000000E+00 0. -1.
         -5    1    3    3    0  503 -0.60815748482E+01  0.10984819349E+03  0.59717138467E+02  0.12526706587E+03  0.47000000000E+01 0.  1.
         13    1    4    4    0    0 -0.21683197923E+02  0.19648497219E+02  0.16290748146E+02  0.33490491043E+02  0.00000000000E+00 0. -1.
        -14    1    4    4    0    0  0.21508019298E+02 -0.18432438978E+01  0.15717930957E+03  0.15865474402E+03  0.00000000000E+00 0.  1.
<mgrwt>
<rscale>  2 0.21551841E+03</rscale>
<asrwt>0</asrwt>
<pdfrwt beam="1">  1       21 0.11023078E+00 0.21557560E+03</pdfrwt>
<pdfrwt beam="2">  1       21 0.10530113E-01 0.21557560E+03</pdfrwt>
<totfact> 0.47554646E+04</totfact>
</mgrwt>
</event>
<event>
12    1  0.1039378E-001  0.1776475E+03  0.7546771E-02  0.1172536E+00
         21   -1    0    0  501  502  0.00000000000E+00  0.00000000000E+00  0.78809758292E+02  0.78809758292E+02  0.00000000000E+00 0.  1.
         21   -1    0    0  502  503 -0.00000000000E+00 -0.00000000000E+00 -0.47959144753E+03  0.47959144753E+03  0.00000000000E+00 0.  1.
         -6    2    1    2    0  503  0.35385556512E+02  0.19716135343E+02 -0.33257725474E+03  0.37704943450E+03  0.17296757525E+03 0.  0.
        -24    2    3    3    0    0 -0.21535117969E+02  0.63064413714E+02 -0.21792775374E+03  0.24182504876E+03  0.80907149088E+02 0.  0.
          6    2    1    2  501    0 -0.35385556512E+02 -0.19716135343E+02 -0.68204434502E+02  0.18135177132E+03  0.16308205442E+03 0.  0.
         24    2    5    5    0    0 -0.42967597846E+02  0.18259920644E+02 -0.95270519372E+02  0.13387197426E+03  0.81643091953E+02 0.  0.
          5    1    5    5  501    0  0.75820413333E+01 -0.37976055986E+02  0.27066084869E+02  0.47479797064E+02  0.47000000000E+01 0. -1.
        -13    1    6    6    0    0 -0.49275216179E+02  0.27078625558E+02 -0.22926581638E+02  0.60720071123E+02  0.00000000000E+00 0.  1.
         14    1    6    6    0    0  0.63076183332E+01 -0.88187049138E+01 -0.72343937734E+02  0.73151903135E+02  0.00000000000E+00 0. -1.
         -5    1    3    3    0  503  0.56920674481E+02 -0.43348278372E+02 -0.11464950100E+03  0.13522438575E+03  0.47000000000E+01 0.  1.
         13    1    4    4    0    0  0.42996281946E+01  0.67751830180E+02 -0.99049177811E+02  0.12008137624E+03  0.00000000000E+00 0. -1.
        -14    1    4    4    0    0 -0.25834746164E+02 -0.46874164663E+01 -0.11887857593E+03  0.12174367251E+03  0.00000000000E+00 0.  1.
<mgrwt>
<rscale>  2 0.17519470E+03</rscale>
<asrwt>0</asrwt>
<pdfrwt beam="1">  1       21 0.12124578E-01 0.17764753E+03</pdfrwt>
<pdfrwt beam="2">  1       21 0.73783300E-01 0.17764753E+03</pdfrwt>
<totfact> 0.95560984E+04</totfact>
</mgrwt>
</event>
<event>
12    1  0.1039378E-001  0.1925270E+03  0.7546771E-02  0.1156242E+00
         21   -1    0    0  503  502  0.00000000000E+00  0.00000000000E+00  0.95108402811E+02  0.95108402811E+02  0.00000000000E+00 0.  1.
         21   -1    0    0  501  503 -0.00000000000E+00 -0.00000000000E+00 -0.44190859143E+03  0.44190859143E+03  0.00000000000E+00 0.  1.
          6    2    1    2  501    0 -0.38678202809E+02 -0.76937837942E+02 -0.26591862934E+03  0.32819056977E+03  0.17199098342E+03 0.  0.
         24    2    3    3    0    0 -0.67991830244E+01 -0.11005183169E+03 -0.16430862013E+03  0.21656847314E+03  0.88016739095E+02 0.  0.
         -6    2    1    2    0  502  0.38678202809E+02  0.76937837942E+02 -0.80881559282E+02  0.20882642447E+03  0.17219528056E+03 0.  0.
        -24    2    5    5    0    0  0.73728808044E+01 -0.21366544821E+02 -0.98531702492E+01  0.83483307768E+02  0.79758943717E+02 0.  0.
          5    1    3    3  501    0 -0.31879019785E+02  0.33113993753E+02 -0.10161000921E+03  0.11162209663E+03  0.47000000000E+01 0. -1.
        -11    1    4    4    0    0  0.33698663855E+02 -0.89172437408E+02 -0.10579843210E+03  0.14241008312E+03  0.00000000000E+00 0.  1.
         12    1    4    4    0    0 -0.40497846879E+02 -0.20879394286E+02 -0.58510188023E+02  0.74158390018E+02  0.00000000000E+00 0. -1.
         -5    1    5    5    0  502  0.31305322005E+02  0.98304382763E+02 -0.71028389033E+02  0.12534311670E+03  0.47000000000E+01 0.  1.
         13    1    6    6    0    0  0.65107668665E+01 -0.23244485789E+02 -0.43512952843E+02  0.49760157455E+02  0.00000000000E+00 0. -1.
        -14    1    6    6    0    0  0.86211393789E+00  0.18779409679E+01  0.33659782594E+02  0.33723150313E+02  0.00000000000E+00 0.  1.
<mgrwt>
<rscale>  2 0.19248132E+03</rscale>
<asrwt>0</asrwt>
<pdfrwt beam="1">  1       21 0.14632062E-01 0.19252701E+03</pdfrwt>
<pdfrwt beam="2">  1       21 0.67985937E-01 0.19252701E+03</pdfrwt>
<totfact> 0.81097051E+04</totfact>
</mgrwt>
</event>
<event>
12    1  0.1039378E-001  0.1754712E+03  0.7546771E-02  0.1172848E+00
         21   -1    0    0  501  502  0.00000000000E+00  0.00000000000E+00  0.83614973403E+03  0.83614973403E+03  0.00000000000E+00 0. -1.
         21   -1    0    0  502  503 -0.00000000000E+00 -0.00000000000E+00 -0.42778752578E+02  0.42778752578E+02  0.00000000000E+00 0. -1.
         -6    2    1    2    0  503  0.20807789937E+02 -0.19784376161E+02  0.22387150847E+03  0.28300920123E+03  0.17073772289E+03 0.  0.
        -24    2    3    3    0    0  0.19994209371E+02 -0.68284767332E+02  0.89913275989E+02  0.14046149727E+03  0.81132343478E+02 0.  0.
          6    2    1    2  501    0 -0.20807789937E+02  0.19784376161E+02  0.56949947298E+03  0.59591928537E+03  0.17310620812E+03 0.  0.
         24    2    5    5    0    0 -0.46177519551E+02  0.60709077240E+02  0.49408193934E+03  0.50631823226E+03  0.80145081943E+02 0.  0.
          5    1    5    5  501    0  0.25369729614E+02 -0.40924701078E+02  0.75417533640E+02  0.89601053115E+02  0.47000000000E+01 0. -1.
        -13    1    6    6    0    0 -0.10512884290E+02 -0.17217583236E+02  0.47806725494E+02  0.51888812966E+02  0.00000000000E+00 0.  1.
         14    1    6    6    0    0 -0.35664635261E+02  0.77926660475E+02  0.44627521385E+03  0.45442941929E+03  0.00000000000E+00 0. -1.
         -5    1    3    3    0  503  0.81358056531E+00  0.48500391170E+02  0.13395823248E+03  0.14254770396E+03  0.47000000000E+01 0.  1.
         11    1    4    4    0    0 -0.11495657664E+02 -0.57997372720E+02  0.89578699482E+02  0.10733214238E+03  0.00000000000E+00 0. -1.
        -12    1    4    4    0    0  0.31489867035E+02 -0.10287394612E+02  0.33457650682E+00  0.33129354887E+02  0.00000000000E+00 0.  1.
<mgrwt>
<rscale>  2 0.17488424E+03</rscale>
<asrwt>0</asrwt>
<pdfrwt beam="1">  1       21 0.12863841E+00 0.17547121E+03</pdfrwt>
<pdfrwt beam="2">  1       21 0.65813472E-02 0.17547121E+03</pdfrwt>
<totfact> 0.75299311E+04</totfact>
</mgrwt>
</event>
<event>
12    1  0.1039378E-001  0.2099582E+03  0.7546771E-02  0.1142194E+00
         21   -1    0    0  501  502  0.00000000000E+00  0.00000000000E+00  0.57225555173E+03  0.57225555173E+03  0.00000000000E+00 0.  1.
         21   -1    0    0  502  503 -0.00000000000E+00 -0.00000000000E+00 -0.95108898187E+02  0.95108898187E+02  0.00000000000E+00 0.  1.
         -6    2    1    2    0  503  0.99555649946E+02  0.57283381251E+02  0.87420503896E+02  0.22468068781E+03  0.17218116554E+03 0.  0.
        -24    2    3    3    0    0  0.10908480107E+03  0.21359085137E+02  0.11416000388E+02  0.13994501453E+03  0.84253057422E+02 0.  0.
          6    2    1    2  501    0 -0.99555649946E+02 -0.57283381251E+02  0.38972614964E+03  0.44268376211E+03  0.17575473909E+03 0.  0.
         24    2    5    5    0    0 -0.11341380251E+03 -0.66450574330E+02  0.39529851422E+03  0.42453914670E+03  0.81818105031E+02 0.  0.
          5    1    5    5  501    0  0.13858152560E+02  0.91671930786E+01 -0.55723645730E+01  0.18144615406E+02  0.47000000000E+01 0. -1.
        -13    1    6    6    0    0 -0.18628408724E+02 -0.44450161019E+02  0.20756101937E+03  0.21308310864E+03  0.00000000000E+00 0.  1.
         14    1    6    6    0    0 -0.94785393781E+02 -0.22000413310E+02  0.18773749485E+03  0.21145603806E+03  0.00000000000E+00 0. -1.
         -5    1    3    3    0  503 -0.95291511210E+01  0.35924296114E+02  0.76004503508E+02  0.84735673278E+02  0.47000000000E+01 0.  1.
         13    1    4    4    0    0  0.43023775465E+02 -0.16665609488E+02  0.37422783433E+02  0.59407512275E+02  0.00000000000E+00 0. -1.
        -14    1    4    4    0    0  0.66061025602E+02  0.38024694625E+02 -0.26006783045E+02  0.80537502254E+02  0.00000000000E+00 0.  1.
<mgrwt>
<rscale>  2 0.20920864E+03</rscale>
<asrwt>0</asrwt>
<pdfrwt beam="1">  1       21 0.88039314E-01 0.20995819E+03</pdfrwt>
<pdfrwt beam="2">  1       21 0.14632139E-01 0.20995819E+03</pdfrwt>
<totfact> 0.44966448E+04</totfact>
</mgrwt>
</event>
<event>
12    1  0.1039378E-001  0.1749048E+03  0.7546771E-02  0.1173218E+00
         21   -1    0    0  503  502  0.00000000000E+00  0.00000000000E+00  0.27882702106E+03  0.27882702106E+03  0.00000000000E+00 0.  1.
         21   -1    0    0  501  503 -0.00000000000E+00 -0.00000000000E+00 -0.16816017929E+03  0.16816017929E+03  0.00000000000E+00 0.  1.
          6    2    1    2  501    0  0.98674476210E+01  0.24296428437E+01 -0.77668682633E+02  0.18996201329E+03  0.17306031475E+03 0.  0.
         24    2    3    3    0    0  0.26399205161E+02 -0.58102629074E+02 -0.41106118520E+02  0.11718587678E+03  0.89274762376E+02 0.  0.
         -6    2    1    2    0  502 -0.98674476210E+01 -0.24296428437E+01  0.18833552440E+03  0.25702518707E+03  0.17460929914E+03 0.  0.
        -24    2    5    5    0    0  0.51505578416E+02  0.19651305646E+01  0.55316809793E+02  0.11038947929E+03  0.80431345546E+02 0.  0.
          5    1    3    3  501    0 -0.16531757540E+02  0.60532271918E+02 -0.36562564112E+02  0.72776136510E+02  0.47000000000E+01 0. -1.
        -13    1    4    4    0    0  0.16206807387E+02 -0.34744278001E+00 -0.54642491342E+02  0.56996343587E+02  0.00000000000E+00 0.  1.
         14    1    4    4    0    0  0.10192397774E+02 -0.57755186294E+02  0.13536372822E+02  0.60189533188E+02  0.00000000000E+00 0. -1.
         -5    1    5    5    0  502 -0.61373026037E+02 -0.43947734083E+01  0.13301871461E+03  0.14663570778E+03  0.47000000000E+01 0.  1.
         13    1    6    6    0    0  0.25173042649E+02  0.18294804340E+02  0.69623259186E+02  0.76261262523E+02  0.00000000000E+00 0. -1.
        -14    1    6    6    0    0  0.26332535767E+02 -0.16329673775E+02 -0.14306449392E+02  0.34128216768E+02  0.00000000000E+00 0.  1.
<mgrwt>
<rscale>  2 0.17451689E+03</rscale>
<asrwt>0</asrwt>
<pdfrwt beam="1">  1       21 0.42896465E-01 0.17490477E+03</pdfrwt>
<pdfrwt beam="2">  1       21 0.25870797E-01 0.17490477E+03</pdfrwt>
<totfact> 0.74701413E+04</totfact>
</mgrwt>
</event>
<event>
12    1  0.1039378E-001  0.1840559E+03  0.7546771E-02  0.1164717E+00
         21   -1    0    0  501  502  0.00000000000E+00  0.00000000000E+00  0.14446880086E+03  0.14446880086E+03  0.00000000000E+00 0. -1.
         21   -1    0    0  502  503 -0.00000000000E+00 -0.00000000000E+00 -0.56872349627E+03  0.56872349627E+03  0.00000000000E+00 0. -1.
         -6    2    1    2    0  503 -0.34488714504E+02 -0.35210462640E+02 -0.48797331625E+03  0.52153093700E+03  0.17733390190E+03 0.  0.
        -24    2    3    3    0    0  0.27150926374E+02  0.24551911692E+02 -0.15958227088E+03  0.18206995928E+03  0.79642951488E+02 0.  0.
          6    2    1    2  501    0  0.34488714504E+02  0.35210462640E+02  0.63718620849E+02  0.19166136013E+03  0.17391022459E+03 0.  0.
         24    2    5    5    0    0  0.86814121414E+02  0.12179949391E+02  0.56722034497E+02  0.13387386175E+03  0.83784120321E+02 0.  0.
          5    1    5    5  501    0 -0.52325406910E+02  0.23030513249E+02  0.69965863519E+01  0.57787498384E+02  0.47000000000E+01 0. -1.
        -11    1    6    6    0    0  0.24393011344E+02  0.28529476235E+02 -0.12191628326E+02  0.39466261768E+02  0.00000000000E+00 0.  1.
         12    1    6    6    0    0  0.62421110070E+02 -0.16349526845E+02  0.68913662824E+02  0.94407599981E+02  0.00000000000E+00 0. -1.
         -5    1    3    3    0  503 -0.61639640878E+02 -0.59762374331E+02 -0.32839104538E+03  0.33946097772E+03  0.47000000000E+01 0.  1.
         13    1    4    4    0    0  0.43420633342E+02  0.63300871476E+01 -0.37965641436E+02  0.58024230566E+02  0.00000000000E+00 0. -1.
        -14    1    4    4    0    0 -0.16269706968E+02  0.18221824544E+02 -0.12161662944E+03  0.12404572871E+03  0.00000000000E+00 0.  1.
<mgrwt>
<rscale>  2 0.18322619E+03</rscale>
<asrwt>0</asrwt>
<pdfrwt beam="1">  1       21 0.22225970E-01 0.18405586E+03</pdfrwt>
<pdfrwt beam="2">  1       21 0.87495921E-01 0.18405586E+03</pdfrwt>
<totfact> 0.21340285E+04</totfact>
</mgrwt>
</event>
<event>
12    1  0.1039378E-001  0.1955174E+03  0.7546771E-02  0.1154214E+00
         21   -1    0    0  501  502  0.00000000000E+00  0.00000000000E+00  0.11176696254E+04  0.11176696254E+04  0.00000000000E+00 0. -1.
         21   -1    0    0  502  503 -0.00000000000E+00 -0.00000000000E+00 -0.36823047507E+02  0.36823047507E+02  0.00000000000E+00 0. -1.
         -6    2    1    2    0  503 -0.27712889837E+02 -0.82175815052E+02  0.36848099748E+03  0.41578315105E+03  0.17197823800E+03 0.  0.
        -24    2    3    3    0    0 -0.75749644402E+02 -0.76373992837E+02  0.31972759866E+03  0.34693422349E+03  0.81034700403E+02 0.  0.
          6    2    1    2  501    0  0.27712889837E+02  0.82175815052E+02  0.71236558045E+03  0.73870952190E+03  0.17523175709E+03 0.  0.
         24    2    5    5    0    0  0.81418071291E+02  0.36092829064E+02  0.39369459553E+03  0.41224179801E+03  0.83763183041E+02 0.  0.
          5    1    5    5  501    0 -0.53705181454E+02  0.46082985988E+02  0.31867098492E+03  0.32646772389E+03  0.47000000000E+01 0. -1.
        -13    1    6    6    0    0 -0.94608065747E+00 -0.24733018301E+00 -0.41886038203E+01  0.43012373560E+01  0.00000000000E+00 0.  1.
         14    1    6    6    0    0  0.82364151949E+02  0.36340159247E+02  0.39788319935E+03  0.40794056065E+03  0.00000000000E+00 0. -1.
         -5    1    3    3    0  503  0.48036754564E+02 -0.58018222150E+01  0.48753398821E+02  0.68848927564E+02  0.47000000000E+01 0.  1.
         13    1    4    4    0    0  0.15418084051E+02 -0.98364363461E+01  0.78587086597E+02  0.80687068206E+02  0.00000000000E+00 0. -1.
        -14    1    4    4    0    0 -0.91167728452E+02 -0.66537556491E+02  0.24114051207E+03  0.26624715528E+03  0.00000000000E+00 0.  1.
<mgrwt>
<rscale>  2 0.19478562E+03</rscale>
<asrwt>0</asrwt>
<pdfrwt beam="1">  1       21 0.17194915E+00 0.19551736E+03</pdfrwt>
<pdfrwt beam="2">  1       21 0.56650851E-02 0.19551736E+03</pdfrwt>
<totfact> 0.44898553E+04</totfact>
</mgrwt>
</event>
<event>
12    1  0.1039378E-001  0.1749196E+03  0.7546771E-02  0.1172960E+00
         21   -1    0    0  503  502  0.00000000000E+00  0.00000000000E+00  0.24534945793E+03  0.24534945793E+03  0.00000000000E+00 0. -1.
         21   -1    0    0  501  503 -0.00000000000E+00 -0.00000000000E+00 -0.20284730845E+03  0.20284730845E+03  0.00000000000E+00 0. -1.
          6    2    1    2  501    0 -0.15446926409E+02  0.18017808365E+02 -0.11818674470E+03  0.21110419146E+03  0.17330211792E+03 0.  0.
         24    2    3    3    0    0  0.55207763396E+02 -0.15921143635E+02 -0.62992467905E+02  0.11512275656E+03  0.77355142759E+02 0.  0.
         -6    2    1    2    0  502  0.15446926409E+02 -0.18017808365E+02  0.16068889418E+03  0.23709257492E+03  0.17270992854E+03 0.  0.
        -24    2    5    5    0    0  0.60528858406E+02 -0.31720593919E+02  0.15771988134E+03  0.18964732266E+03  0.80128691771E+02 0.  0.
          5    1    3    3  501    0 -0.70654689805E+02  0.33938952000E+02 -0.55194276799E+02  0.95981434901E+02  0.47000000000E+01 0. -1.
        -13    1    4    4    0    0  0.28975316127E+02 -0.46698486296E+01 -0.77667457424E+02  0.83027768690E+02  0.00000000000E+00 0.  1.
         14    1    4    4    0    0  0.26232447269E+02 -0.11251295005E+02  0.14674989519E+02  0.32094987870E+02  0.00000000000E+00 0. -1.
         -5    1    5    5    0  502 -0.45081931997E+02  0.13702785554E+02  0.29690128396E+01  0.47445252257E+02  0.47000000000E+01 0.  1.
         11    1    6    6    0    0  0.43121224072E+02 -0.17345752246E+02  0.20873257776E+02  0.50951035089E+02  0.00000000000E+00 0. -1.
        -12    1    6    6    0    0  0.17407634335E+02 -0.14374841674E+02  0.13684662356E+03  0.13869628757E+03  0.00000000000E+00 0.  1.
<mgrwt>
<rscale>  2 0.17477276E+03</rscale>
<asrwt>0</asrwt>
<pdfrwt beam="1">  1       21 0.37746071E-01 0.17491962E+03</pdfrwt>
<pdfrwt beam="2">  1       21 0.31207278E-01 0.17491962E+03</pdfrwt>
<totfact> 0.67296839E+04</totfact>
</mgrwt>
</event>
<event>
12    1  0.1039378E-001  0.2189136E+03  0.7546771E-02  0.1134715E+00
         21   -1    0    0  501  502  0.00000000000E+00  0.00000000000E+00  0.89284422654E+03  0.89284422654E+03  0.00000000000E+00 0.  1.
         21   -1    0    0  502  503 -0.00000000000E+00 -0.00000000000E+00 -0.93763662170E+02  0.93763662170E+02  0.00000000000E+00 0.  1.
         -6    2    1    2    0  503  0.99092222514E+02 -0.89858569860E+02  0.76933548686E+02  0.23203864350E+03  0.17328972855E+03 0.  0.
        -24    2    3    3    0    0  0.29362467842E+02  0.14672112377E+02  0.69308289321E+01  0.88124179358E+02  0.81488705956E+02 0.  0.
          6    2    1    2  501    0 -0.99092222514E+02  0.89858569860E+02  0.72214701568E+03  0.75456924521E+03  0.17316062607E+03 0.  0.
         24    2    5    5    0    0 -0.42869426399E+02  0.59567231242E+02  0.64694578028E+03  0.65579736761E+03  0.78391976550E+02 0.  0.
          5    1    5    5  501    0 -0.56222796115E+02  0.30291338619E+02  0.75201235400E+02  0.98771877597E+02  0.47000000000E+01 0. -1.
        -11    1    6    6    0    0 -0.53822334817E+02  0.96323329756E+01  0.27793298307E+03  0.28326024896E+03  0.00000000000E+00 0.  1.
         12    1    6    6    0    0  0.10952908417E+02  0.49934898266E+02  0.36901279721E+03  0.37253711865E+03  0.00000000000E+00 0. -1.
         -5    1    3    3    0  503  0.69729754673E+02 -0.10453068224E+03  0.70002719754E+02  0.14391446414E+03  0.47000000000E+01 0.  1.
         13    1    4    4    0    0  0.30372251489E+01  0.45273911970E+02  0.13238468969E+02  0.47267419036E+02  0.00000000000E+00 0. -1.
        -14    1    4    4    0    0  0.26325242693E+02 -0.30601799593E+02 -0.63076400366E+01  0.40856760322E+02  0.00000000000E+00 0.  1.
<mgrwt>
<rscale>  2 0.21888804E+03</rscale>
<asrwt>0</asrwt>
<pdfrwt beam="1">  1       21 0.13736064E+00 0.21891359E+03</pdfrwt>
<pdfrwt beam="2">  1       21 0.14425179E-01 0.21891359E+03</pdfrwt>
<totfact> 0.15553662E+04</totfact>
</mgrwt>
</event>
<event>
12    1  0.1039378E-001  0.1782280E+03  0.7546771E-02  0.1169688E+00
         21   -1    0    0  503  502  0.00000000000E+00  0.00000000000E+00  0.51660339936E+02  0.51660339936E+02  0.00000000000E+00 0.  1.
         21   -1    0    0  501  503 -0.00000000000E+00 -0.00000000000E+00 -0.64416144307E+03  0.64416144307E+03  0.00000000000E+00 0.  1.
          6    2    1    2  501    0  0.27447393592E+02 -0.35480721150E+02 -0.37371407906E+03  0.41403794567E+03  0.17249048258E+03 0.  0.
         24    2    3    3    0    0 -0.49270868878E+02 -0.13039497822E+02 -0.19081860855E+03  0.21438288454E+03  0.83370455154E+02 0.  0.
         -6    2    1    2    0  502 -0.27447393592E+02  0.35480721150E+02 -0.21878702407E+03  0.28178383733E+03  0.17182004566E+03 0.  0.
        -24    2    5    5    0    0 -0.32913370110E+02  0.35161677210E+02 -0.24088095775E+03  0.25854140644E+03  0.80624993416E+02 0.  0.
          5    1    3    3  501    0  0.76718262470E+02 -0.22441223328E+02 -0.18289547051E+03  0.19965506113E+03  0.47000000000E+01 0. -1.
        -13    1    4    4    0    0 -0.47042028633E+02 -0.44979532101E+02 -0.13876743044E+03  0.15327266722E+03  0.00000000000E+00 0.  1.
         14    1    4    4    0    0 -0.22288402459E+01  0.31940034279E+02 -0.52051178107E+02  0.61110217320E+02  0.00000000000E+00 0. -1.
         -5    1    5    5    0  502  0.54659765186E+01  0.31904394070E+00  0.22093933677E+02  0.23242430889E+02  0.47000000000E+01 0.  1.
         13    1    6    6    0    0  0.13051945122E+02 -0.11122467726E+02 -0.11967403636E+03  0.12089639176E+03  0.00000000000E+00 0. -1.
        -14    1    6    6    0    0 -0.45965315232E+02  0.46284144936E+02 -0.12120692139E+03  0.13764501469E+03  0.00000000000E+00 0.  1.
<mgrwt>
<rscale>  2 0.17806555E+03</rscale>
<asrwt>0</asrwt>
<pdfrwt beam="1">  1       21 0.79477449E-02 0.17822797E+03</pdfrwt>
<pdfrwt beam="2">  1       21 0.99101757E-01 0.17822797E+03</pdfrwt>
<totfact> 0.10239997E+05</totfact>
</mgrwt>
</event>
<event>
12    1  0.1039378E-001  0.1750288E+03  0.7546771E-02  0.1172836E+00
         21   -1    0    0  503  502  0.00000000000E+00  0.00000000000E+00  0.50001913917E+03  0.50001913917E+03  0.00000000000E+00 0.  1.
         21   -1    0    0  501  503 -0.00000000000E+00 -0.00000000000E+00 -0.66313542750E+02  0.66313542750E+02  0.00000000000E+00 0.  1.
          6    2    1    2  501    0  0.10579130610E+02 -0.26192852129E+02  0.13762818120E+03  0.22265803563E+03  0.17273419193E+03 0.  0.
         24    2    3    3    0    0 -0.14925873881E+02 -0.48450117632E+02  0.15555063149E+03  0.18406794175E+03  0.84349348616E+02 0.  0.
         -6    2    1    2    0  502 -0.10579130610E+02  0.26192852129E+02  0.29607741522E+03  0.34367464630E+03  0.17219884783E+03 0.  0.
        -24    2    5    5    0    0  0.66893652732E+01  0.46772651401E+02  0.73288077086E+02  0.11922218301E+03  0.81304109071E+02 0.  0.
          5    1    3    3  501    0  0.25505004490E+02  0.22257265502E+02 -0.17922450286E+02  0.38590093884E+02  0.47000000000E+01 0. -1.
        -13    1    4    4    0    0 -0.26066217706E+01 -0.55177479769E+02  0.41332986786E+02  0.68991046864E+02  0.00000000000E+00 0.  1.
         14    1    4    4    0    0 -0.12319252110E+02  0.67273621372E+01  0.11421764470E+03  0.11507689488E+03  0.00000000000E+00 0. -1.
         -5    1    5    5    0  502 -0.17268495883E+02 -0.20579799272E+02  0.22278933814E+03  0.22445246329E+03  0.47000000000E+01 0.  1.
         13    1    6    6    0    0 -0.34835499903E+02  0.16553214838E+02  0.49149029374E+02  0.62475179578E+02  0.00000000000E+00 0. -1.
        -14    1    6    6    0    0  0.41524865176E+02  0.30219436563E+02  0.24139047712E+02  0.56747003432E+02  0.00000000000E+00 0.  1.
<mgrwt>
<rscale>  2 0.17489658E+03</rscale>
<asrwt>0</asrwt>
<pdfrwt beam="1">  1       21 0.76926019E-01 0.17502881E+03</pdfrwt>
<pdfrwt beam="2">  1       21 0.10202084E-01 0.17502881E+03</pdfrwt>
<totfact> 0.11843918E+05</totfact>
</mgrwt>
</event>
<event>
12    1  0.1039378E-001  0.1776309E+03  0.7546771E-02  0.1170594E+00
         21   -1    0    0  501  502  0.00000000000E+00  0.00000000000E+00  0.86824025393E+02  0.86824025393E+02  0.00000000000E+00 0.  1.
         21   -1    0    0  502  503 -0.00000000000E+00 -0.00000000000E+00 -0.38347535254E+03  0.38347535254E+03  0.00000000000E+00 0.  1.
         -6    2    1    2    0  503  0.32753490734E+02  0.10186899153E+02 -0.20640180779E+03  0.27105655423E+03  0.17231768703E+03 0.  0.
        -24    2    3    3    0    0  0.27511210084E+02 -0.49990925064E+02 -0.70082303578E+02  0.12187897796E+03  0.81774058992E+02 0.  0.
          6    2    1    2  501    0 -0.32753490734E+02 -0.10186899153E+02 -0.90249519353E+02  0.19924282370E+03  0.17428758700E+03 0.  0.
         24    2    5    5    0    0 -0.13070255799E+02 -0.68063283970E+02 -0.88574055324E+02  0.13790765567E+03  0.79810500597E+02 0.  0.
          5    1    5    5  501    0 -0.19683234936E+02  0.57876384817E+02 -0.16754640283E+01  0.61335168025E+02  0.47000000000E+01 0. -1.
        -11    1    6    6    0    0 -0.13286539213E+02 -0.24891118029E+02  0.10286122795E+02  0.30031719950E+02  0.00000000000E+00 0.  1.
         12    1    6    6    0    0  0.21628341442E+00 -0.43172165941E+02 -0.98860178120E+02  0.10787593572E+03  0.00000000000E+00 0. -1.
         -5    1    3    3    0  503  0.52422806500E+01  0.60177824217E+02 -0.13631950422E+03  0.14917757628E+03  0.47000000000E+01 0.  1.
         11    1    4    4    0    0  0.51924995842E+02 -0.28137710856E+02 -0.20632940779E+02  0.62559205642E+02  0.00000000000E+00 0. -1.
        -12    1    4    4    0    0 -0.24413785758E+02 -0.21853214208E+02 -0.49449362799E+02  0.59319772315E+02  0.00000000000E+00 0.  1.
<mgrwt>
<rscale>  2 0.17714579E+03</rscale>
<asrwt>0</asrwt>
<pdfrwt beam="1">  1       21 0.13357543E-01 0.17763087E+03</pdfrwt>
<pdfrwt beam="2">  1       21 0.58996207E-01 0.17763087E+03</pdfrwt>
<totfact> 0.13073048E+05</totfact>
</mgrwt>
</event>
<event>
12    1  0.1039378E-001  0.1783847E+03  0.7546771E-02  0.1169401E+00
         21   -1    0    0  501  502  0.00000000000E+00  0.00000000000E+00  0.12795358028E+03  0.12795358028E+03  0.00000000000E+00 0. -1.
         21   -1    0    0  502  503 -0.00000000000E+00 -0.00000000000E+00 -0.26900355682E+03  0.26900355682E+03  0.00000000000E+00 0. -1.
         -6    2    1    2    0  503  0.44213281399E+02 -0.11737207017E+01 -0.12527575727E+03  0.21797962649E+03  0.17281467048E+03 0.  0.
        -24    2    3    3    0    0  0.31731323911E+02  0.48425767079E+02 -0.13315278713E+03  0.16601765915E+03  0.80500103060E+02 0.  0.
          6    2    1    2  501    0 -0.44213281399E+02  0.11737207017E+01 -0.15774219275E+02  0.17897751061E+03  0.17270764730E+03 0.  0.
         24    2    5    5    0    0 -0.46635447316E+02 -0.64088810601E+02 -0.12578952643E+02  0.11342322312E+03  0.80152086073E+02 0.  0.
          5    1    5    5  501    0  0.24221659174E+01  0.65262531302E+02 -0.31952666326E+01  0.65554287492E+02  0.47000000000E+01 0. -1.
        -11    1    6    6    0    0 -0.27110769698E+02 -0.54652983925E+02 -0.44018687695E+02  0.75230228977E+02  0.00000000000E+00 0.  1.
         12    1    6    6    0    0 -0.19524677619E+02 -0.94358266753E+01  0.31439735052E+02  0.38192994139E+02  0.00000000000E+00 0. -1.
         -5    1    3    3    0  503  0.12481957487E+02 -0.49599487780E+02  0.78770298623E+01  0.51961967344E+02  0.47000000000E+01 0.  1.
         13    1    4    4    0    0  0.36908819231E+02 -0.10990602903E+02 -0.41012056779E+02  0.56258715685E+02  0.00000000000E+00 0. -1.
        -14    1    4    4    0    0 -0.51774953203E+01  0.59416369982E+02 -0.92140730354E+02  0.10975894346E+03  0.00000000000E+00 0.  1.
<mgrwt>
<rscale>  2 0.17835878E+03</rscale>
<asrwt>0</asrwt>
<pdfrwt beam="1">  1       21 0.19685166E-01 0.17838470E+03</pdfrwt>
<pdfrwt beam="2">  1       21 0.41385162E-01 0.17838470E+03</pdfrwt>
<totfact> 0.13432528E+05</totfact>
</mgrwt>
</event>
<event>
12    1  0.1039378E-001  0.2092468E+03  0.7546771E-02  0.1143725E+00
         21   -1    0    0  503  502  0.00000000000E+00  0.00000000000E+00  0.91481486698E+03  0.91481486698E+03  0.00000000000E+00 0. -1.
         21   -1    0    0  501  503 -0.00000000000E+00 -0.00000000000E+00 -0.36776405041E+03  0.36776405041E+03  0.00000000000E+00 0.  1.
          6    2    1    2  501    0  0.17689901543E+02  0.10280847336E+03 -0.32683837896E+03  0.38398748466E+03  0.17245447980E+03 0.  0.
         24    2    3    3    0    0  0.44041565301E+02  0.65111622540E+02 -0.86858175552E+02  0.13959425486E+03  0.75914626161E+02 0.  0.
         -6    2    1    2    0  502 -0.17689901543E+02 -0.10280847336E+03  0.87388919553E+03  0.89859143273E+03  0.18138831855E+03 0.  0.
        -24    2    5    5    0    0 -0.19901293057E+02 -0.12376419770E+03  0.43982081723E+03  0.46398646304E+03  0.78278020702E+02 0.  0.
          5    1    3    3  501    0 -0.26351663758E+02  0.37696850817E+02 -0.23998020340E+03  0.24439322980E+03  0.47000000000E+01 0. -1.
        -13    1    4    4    0    0 -0.21734410728E+01  0.62462169510E+02 -0.56368258041E+02  0.84164285660E+02  0.00000000000E+00 0.  1.
         14    1    4    4    0    0  0.46215006374E+02  0.26494530299E+01 -0.30489917510E+02  0.55429969198E+02  0.00000000000E+00 0. -1.
         -5    1    5    5    0  502  0.22113915131E+01  0.20955724341E+02  0.43406837830E+03  0.43460496969E+03  0.47000000000E+01 0.  1.
         13    1    6    6    0    0 -0.48735787511E+02 -0.80212121937E+02  0.24749188671E+03  0.26469113222E+03  0.00000000000E+00 0. -1.
        -14    1    6    6    0    0  0.28834494455E+02 -0.43552075761E+02  0.19232893052E+03  0.19929533082E+03  0.00000000000E+00 0.  1.
<mgrwt>
<rscale>  2 0.20729592E+03</rscale>
<asrwt>0</asrwt>
<pdfrwt beam="1">  1       21 0.14074075E+00 0.20924683E+03</pdfrwt>
<pdfrwt beam="2">  1       21 0.56579085E-01 0.20924683E+03</pdfrwt>
<totfact> 0.10196242E+03</totfact>
</mgrwt>
</event>
<event>
12    1  0.1039378E-001  0.1944971E+03  0.7546771E-02  0.1154558E+00
         21   -1    0    0  503  502  0.00000000000E+00  0.00000000000E+00  0.65538349244E+02  0.65538349244E+02  0.00000000000E+00 0.  1.
         21   -1    0    0  501  503 -0.00000000000E+00 -0.00000000000E+00 -0.80339873799E+03  0.80339873799E+03  0.00000000000E+00 0.  1.
          6    2    1    2  501    0  0.45747325711E+02 -0.76160401677E+02 -0.60037718810E+03  0.63109578004E+03  0.17301991503E+03 0.  0.
         24    2    3    3    0    0  0.50881783632E+02 -0.46458903652E+02 -0.58881009371E+03  0.59847018708E+03  0.81986905859E+02 0.  0.
         -6    2    1    2    0  502 -0.45747325711E+02  0.76160401677E+02 -0.13748320065E+03  0.23784130720E+03  0.17255037629E+03 0.  0.
        -24    2    5    5    0    0 -0.72413898131E+02  0.70717605138E+02 -0.15692086228E+03  0.20406790334E+03  0.82309172244E+02 0.  0.
          5    1    3    3  501    0 -0.51344579210E+01 -0.29701498025E+02 -0.11567094383E+02  0.32625592953E+02  0.47000000000E+01 0. -1.
        -13    1    4    4    0    0  0.20467650268E+02 -0.37577901549E+02 -0.10176219786E+03  0.11039279101E+03  0.00000000000E+00 0.  1.
         14    1    4    4    0    0  0.30414133364E+02 -0.88810021029E+01 -0.48704789585E+03  0.48807739608E+03  0.00000000000E+00 0. -1.
         -5    1    5    5    0  502  0.26666572420E+02  0.54427965397E+01  0.19437661630E+02  0.33773403862E+02  0.47000000000E+01 0.  1.
         11    1    6    6    0    0 -0.24016936532E+01  0.99857270835E+01 -0.87926846182E+02  0.88524647174E+02  0.00000000000E+00 0. -1.
        -12    1    6    6    0    0 -0.70012204478E+02  0.60731878054E+02 -0.68994016098E+02  0.11554325616E+03  0.00000000000E+00 0.  1.
<mgrwt>
<rscale>  2 0.19439261E+03</rscale>
<asrwt>0</asrwt>
<pdfrwt beam="1">  1       21 0.10082823E-01 0.19449708E+03</pdfrwt>
<pdfrwt beam="2">  1       21 0.12359981E+00 0.19449708E+03</pdfrwt>
<totfact> 0.39198295E+04</totfact>
</mgrwt>
</event>
<event>
12    1  0.1039378E-001  0.1788090E+03  0.7546771E-02  0.1169007E+00
         21   -1    0    0  503  502  0.00000000000E+00  0.00000000000E+00  0.12166095199E+03  0.12166095199E+03  0.00000000000E+00 0. -1.
         21   -1    0    0  501  503 -0.00000000000E+00 -0.00000000000E+00 -0.49042916525E+03  0.49042916525E+03  0.00000000000E+00 0. -1.
          6    2    1    2  501    0 -0.28721064169E+02  0.30582192723E+02 -0.39296132601E+03  0.43165189222E+03  0.17362195218E+03 0.  0.
         24    2    3    3    0    0  0.29898726188E+02  0.24112109298E+02 -0.10872296235E+03  0.14132159897E+03  0.81705471979E+02 0.  0.
         -6    2    1    2    0  502  0.28721064169E+02 -0.30582192723E+02  0.24193112756E+02  0.18043822501E+03  0.17381736479E+03 0.  0.
        -24    2    5    5    0    0  0.22654855742E+02 -0.83972073217E+01  0.82233249643E+02  0.11783055814E+03  0.80857760942E+02 0.  0.
          5    1    3    3  501    0 -0.58619790357E+02  0.64700834242E+01 -0.28423836367E+03  0.29033029325E+03  0.47000000000E+01 0. -1.
        -13    1    4    4    0    0  0.16169121389E+02 -0.19657771972E+02 -0.24501209975E+01  0.25570912739E+02  0.00000000000E+00 0.  1.
         14    1    4    4    0    0  0.13729604799E+02  0.43769881271E+02 -0.10627284135E+03  0.11575068623E+03  0.00000000000E+00 0. -1.
         -5    1    5    5    0  502  0.60662084269E+01 -0.22184985401E+02 -0.58040136887E+02  0.62607666877E+02  0.47000000000E+01 0.  1.
         11    1    6    6    0    0  0.47734931546E+02 -0.23686648511E+02  0.41152945462E+02  0.67329383835E+02  0.00000000000E+00 0. -1.
        -12    1    6    6    0    0 -0.25080075804E+02  0.15289441189E+02  0.41080304181E+02  0.50501174301E+02  0.00000000000E+00 0.  1.
<mgrwt>
<rscale>  2 0.17876146E+03</rscale>
<asrwt>0</asrwt>
<pdfrwt beam="1">  1       21 0.18717070E-01 0.17880897E+03</pdfrwt>
<pdfrwt beam="2">  1       21 0.75450640E-01 0.17880897E+03</pdfrwt>
<totfact> 0.41259765E+04</totfact>
</mgrwt>
</event>
<event>
12    1  0.1039378E-001  0.1862446E+03  0.7546771E-02  0.1162891E+00
         21   -1    0    0  503  502  0.00000000000E+00  0.00000000000E+00  0.31408046117E+03  0.31408046117E+03  0.00000000000E+00 0.  1.
         21   -1    0    0  501  503 -0.00000000000E+00 -0.00000000000E+00 -0.11155362299E+03  0.11155362299E+03  0.00000000000E+00 0.  1.
          6    2    1    2  501    0 -0.57498496235E+02  0.20785591059E+02  0.64033338569E+02  0.19694499063E+03  0.17592311679E+03 0.  0.
         24    2    3    3    0    0 -0.91108529649E+02 -0.27947652969E+02  0.34616905489E+02  0.13067297576E+03  0.82433372901E+02 0.  0.
         -6    2    1    2    0  502  0.57498496235E+02 -0.20785591059E+02  0.13849349961E+03  0.22868909353E+03  0.17140634236E+03 0.  0.
        -24    2    5    5    0    0  0.59550511155E+02 -0.78224008525E+02  0.91485406198E+02  0.15428994426E+03  0.75964126157E+02 0.  0.
          5    1    3    3  501    0  0.33610033414E+02  0.48733244028E+02  0.29416433080E+02  0.66272014869E+02  0.47000000000E+01 0. -1.
        -13    1    4    4    0    0 -0.79575513735E+02  0.10708802104E+02  0.46634454828E+01  0.80428157709E+02  0.00000000000E+00 0.  1.
         14    1    4    4    0    0 -0.11533015914E+02 -0.38656455073E+02  0.29953460006E+02  0.50244818054E+02  0.00000000000E+00 0. -1.
         -5    1    5    5    0  502 -0.20520149200E+01  0.57438417466E+02  0.47008093413E+02  0.74399149273E+02  0.47000000000E+01 0.  1.
         11    1    6    6    0    0 -0.15789174726E+02 -0.55363175968E+01  0.25493593273E+01  0.16924777223E+02  0.00000000000E+00 0. -1.
        -12    1    6    6    0    0  0.75339685881E+02 -0.72687690928E+02  0.88936046871E+02  0.13736516703E+03  0.00000000000E+00 0.  1.
<mgrwt>
<rscale>  2 0.18517026E+03</rscale>
<asrwt>0</asrwt>
<pdfrwt beam="1">  1       21 0.48320071E-01 0.18624463E+03</pdfrwt>
<pdfrwt beam="2">  1       21 0.17162096E-01 0.18624463E+03</pdfrwt>
<totfact> 0.12570068E+05</totfact>
</mgrwt>
</event>
<event>
12    1  0.1039378E-001  0.1911946E+03  0.7546771E-02  0.1158497E+00
         21   -1    0    0  503  502  0.00000000000E+00  0.00000000000E+00  0.10389530734E+03  0.10389530734E+03  0.00000000000E+00 0. -1.
         21   -1    0    0  501  503 -0.00000000000E+00 -0.00000000000E+00 -0.71760123420E+03  0.71760123420E+03  0.00000000000E+00 0.  1.
          6    2    1    2  501    0  0.23271594124E+02  0.66733606728E+02 -0.60174719761E+03  0.62992832760E+03  0.17238058684E+03 0.  0.
         24    2    3    3    0    0 -0.48767015998E+02  0.27853078621E+02 -0.40673287084E+03  0.41837707032E+03  0.80335103796E+02 0.  0.
         -6    2    1    2    0  502 -0.23271594124E+02 -0.66733606728E+02 -0.11958729246E+02  0.19156821393E+03  0.17765254860E+03 0.  0.
        -24    2    5    5    0    0 -0.45957593616E+02 -0.89728459711E+02  0.37249601251E+02  0.13251766248E+03  0.77524842350E+02 0.  0.
          5    1    3    3  501    0  0.72038610122E+02  0.38880528107E+02 -0.19501432677E+03  0.21155125729E+03  0.47000000000E+01 0. -1.
        -13    1    4    4    0    0  0.30754993258E+01 -0.22875396669E+02 -0.14304690679E+03  0.14489706696E+03  0.00000000000E+00 0.  1.
         14    1    4    4    0    0 -0.51842515324E+02  0.50728475290E+02 -0.26368596405E+03  0.27348000336E+03  0.00000000000E+00 0. -1.
         -5    1    5    5    0  502  0.22685999492E+02  0.22994852983E+02 -0.49208330497E+02  0.59050551454E+02  0.47000000000E+01 0.  1.
         11    1    6    6    0    0  0.11862706110E+02 -0.35221454509E+00 -0.10503743657E+02  0.15848548266E+02  0.00000000000E+00 0. -1.
        -12    1    6    6    0    0 -0.57820299726E+02 -0.89376245166E+02  0.47753344909E+02  0.11666911421E+03  0.00000000000E+00 0.  1.
<mgrwt>
<rscale>  2 0.18996060E+03</rscale>
<asrwt>0</asrwt>
<pdfrwt beam="1">  1       21 0.15983893E-01 0.19119459E+03</pdfrwt>
<pdfrwt beam="2">  1       21 0.11040019E+00 0.19119459E+03</pdfrwt>
<totfact> 0.22635663E+04</totfact>
</mgrwt>
</event>
<event>
12    1  0.1039378E-001  0.1816717E+03  0.7546771E-02  0.1166335E+00
         21   -1    0    0  501  502  0.00000000000E+00  0.00000000000E+00  0.19905283422E+04  0.19905283422E+04  0.00000000000E+00 0.  1.
         21   -1    0    0  502  503 -0.00000000000E+00 -0.00000000000E+00 -0.95398036517E+02  0.95398036517E+02  0.00000000000E+00 0.  1.
         -6    2    1    2    0  503 -0.48027527942E+02  0.25266117242E+02 -0.10223945672E+01  0.18109051034E+03  0.17276489088E+03 0.  0.
        -24    2    3    3    0    0 -0.49910195564E+02  0.48757226178E+02  0.54731030512E+02  0.12037880599E+03  0.81408086238E+02 0.  0.
          6    2    1    2  501    0  0.48027527942E+02 -0.25266117242E+02  0.18961527002E+04  0.19048358684E+04  0.17337705351E+03 0.  0.
         24    2    5    5    0    0  0.86794829043E+02  0.14284485478E+01  0.16456749684E+04  0.16499306161E+04  0.80557765466E+02 0.  0.
          5    1    5    5  501    0 -0.38767301101E+02 -0.26694565789E+02  0.25047773183E+03  0.25490525224E+03  0.47000000000E+01 0. -1.
        -13    1    6    6    0    0  0.41652055507E+02 -0.23514884746E+02  0.35283847503E+03  0.35606577060E+03  0.00000000000E+00 0.  1.
         14    1    6    6    0    0  0.45142773536E+02  0.24943333294E+02  0.12928364934E+04  0.12938648455E+04  0.00000000000E+00 0. -1.
         -5    1    3    3    0  503  0.18826676223E+01 -0.23491108937E+02 -0.55753425079E+02  0.60711704345E+02  0.47000000000E+01 0.  1.
         11    1    4    4    0    0 -0.13110246497E+02 -0.13936332383E+02  0.42570343886E+02  0.46672626903E+02  0.00000000000E+00 0. -1.
        -12    1    4    4    0    0 -0.36799949067E+02  0.62693558561E+02  0.12160686626E+02  0.73706179087E+02  0.00000000000E+00 0.  1.
<mgrwt>
<rscale>  2 0.18152554E+03</rscale>
<asrwt>0</asrwt>
<pdfrwt beam="1">  1       21 0.30623510E+00 0.18167174E+03</pdfrwt>
<pdfrwt beam="2">  1       21 0.14676622E-01 0.18167174E+03</pdfrwt>
<totfact> 0.13022943E+03</totfact>
</mgrwt>
</event>
<event>
12    1  0.1039378E-001  0.1867675E+03  0.7546771E-02  0.1161473E+00
         21   -1    0    0  503  502  0.00000000000E+00  0.00000000000E+00  0.61910625738E+03  0.61910625738E+03  0.00000000000E+00 0.  1.
         21   -1    0    0  501  503 -0.00000000000E+00 -0.00000000000E+00 -0.59354931574E+02  0.59354931574E+02  0.00000000000E+00 0.  1.
          6    2    1    2  501    0  0.68764518835E+02  0.10167653714E+02  0.35714891102E+03  0.40290748029E+03  0.17305245679E+03 0.  0.
         24    2    3    3    0    0  0.12109915816E+02  0.18613700169E+02  0.32857415280E+03  0.33872269587E+03  0.79239957812E+02 0.  0.
         -6    2    1    2    0  502 -0.68764518835E+02 -0.10167653714E+02  0.20260241479E+03  0.27555370866E+03  0.17334984179E+03 0.  0.
        -24    2    5    5    0    0 -0.41714335127E+02  0.62878387099E+02  0.13098742125E+03  0.16963754457E+03  0.76976715197E+02 0.  0.
          5    1    3    3  501    0  0.56654603020E+02 -0.84460464548E+01  0.28574758220E+02  0.64184784423E+02  0.47000000000E+01 0. -1.
        -13    1    4    4    0    0 -0.30823743225E+02 -0.71128412564E+00  0.18700437938E+03  0.18952901356E+03  0.00000000000E+00 0.  1.
         14    1    4    4    0    0  0.42933659041E+02  0.19324984295E+02  0.14156977342E+03  0.14919368231E+03  0.00000000000E+00 0. -1.
         -5    1    5    5    0  502 -0.27050183709E+02 -0.73046040813E+02  0.71614993537E+02  0.10591616409E+03  0.47000000000E+01 0.  1.
         11    1    6    6    0    0 -0.38536562750E+02  0.70786228481E+02  0.13717913547E+03  0.15910333755E+03  0.00000000000E+00 0. -1.
        -12    1    6    6    0    0 -0.31777723771E+01 -0.79078413821E+01 -0.61917142180E+01  0.10534207021E+02  0.00000000000E+00 0.  1.
<mgrwt>
<rscale>  2 0.18669849E+03</rscale>
<asrwt>0</asrwt>
<pdfrwt beam="1">  1       21 0.95247112E-01 0.18676752E+03</pdfrwt>
<pdfrwt beam="2">  1       21 0.91315284E-02 0.18676752E+03</pdfrwt>
<totfact> 0.87895238E+04</totfact>
</mgrwt>
</event>
<event>
12    1  0.1039378E-001  0.1929476E+03  0.7546771E-02  0.1156360E+00
         21   -1    0    0  501  502  0.00000000000E+00  0.00000000000E+00  0.54743650499E+03  0.54743650499E+03  0.00000000000E+00 0. -1.
         21   -1    0    0  502  503 -0.00000000000E+00 -0.00000000000E+00 -0.15358794371E+03  0.15358794371E+03  0.00000000000E+00 0. -1.
         -6    2    1    2    0  503  0.80030030469E+02 -0.24321536102E+02 -0.66533730363E+02  0.20184449603E+03  0.17122534977E+03 0.  0.
        -24    2    3    3    0    0  0.21683192526E+02 -0.68045568538E+01 -0.10156128881E+03  0.13141568154E+03  0.80242900849E+02 0.  0.
          6    2    1    2  501    0 -0.80030030469E+02  0.24321536102E+02  0.46038229164E+03  0.49917995268E+03  0.17387474745E+03 0.  0.
         24    2    5    5    0    0  0.69988486463E+01  0.24363761455E+02  0.34146725840E+03  0.35174555129E+03  0.80513772323E+02 0.  0.
          5    1    5    5  501    0 -0.87028879115E+02 -0.42225353014E-01  0.11891503324E+03  0.14743440139E+03  0.47000000000E+01 0. -1.
        -11    1    6    6    0    0  0.12149397613E+02  0.37850551214E+02  0.74968506535E+02  0.84856049057E+02  0.00000000000E+00 0.  1.
         12    1    6    6    0    0 -0.51505489671E+01 -0.13486789758E+02  0.26649875187E+03  0.26688950223E+03  0.00000000000E+00 0. -1.
         -5    1    3    3    0  503  0.58346837942E+02 -0.17516979249E+02  0.35027558446E+02  0.70428814491E+02  0.47000000000E+01 0.  1.
         13    1    4    4    0    0 -0.68198689242E+01 -0.39431594537E+02 -0.51220729315E+02  0.64999418239E+02  0.00000000000E+00 0. -1.
        -14    1    4    4    0    0  0.28503061451E+02  0.32627037683E+02 -0.50340559495E+02  0.66416263296E+02  0.00000000000E+00 0.  1.
<mgrwt>
<rscale>  2 0.19234879E+03</rscale>
<asrwt>0</asrwt>
<pdfrwt beam="1">  1       21 0.84220999E-01 0.19294759E+03</pdfrwt>
<pdfrwt beam="2">  1       21 0.23628915E-01 0.19294759E+03</pdfrwt>
<totfact> 0.20634417E+04</totfact>
</mgrwt>
</event>
<event>
12    1  0.1039378E-001  0.2719940E+03  0.7546771E-02  0.1100170E+00
         21   -1    0    0  501  502  0.00000000000E+00  0.00000000000E+00  0.65358775430E+03  0.65358775430E+03  0.00000000000E+00 0. -1.
         21   -1    0    0  502  503 -0.00000000000E+00 -0.00000000000E+00 -0.11362894968E+03  0.11362894968E+03  0.00000000000E+00 0.  1.
         -6    2    1    2    0  503  0.16458681927E+03 -0.13051320130E+03  0.29566916601E+03  0.40162380529E+03  0.17250770549E+03 0.  0.
        -24    2    3    3    0    0  0.10214090822E+02 -0.64311905342E+02  0.95005929958E+02  0.13989613159E+03  0.79400579890E+02 0.  0.
          6    2    1    2  501    0 -0.16458681927E+03  0.13051320130E+03  0.24428963861E+03  0.36559289869E+03  0.17279532184E+03 0.  0.
         24    2    5    5    0    0 -0.89280848724E+02  0.14627415737E+03  0.20580281624E+03  0.27943767579E+03  0.79771024925E+02 0.  0.
          5    1    5    5  501    0 -0.75305970546E+02 -0.15760956069E+02  0.38486822370E+02  0.86155222896E+02  0.47000000000E+01 0. -1.
        -13    1    6    6    0    0 -0.28242531290E+02  0.24784389388E+02  0.64346641647E+01  0.38122321991E+02  0.00000000000E+00 0.  1.
         14    1    6    6    0    0 -0.61038317433E+02  0.12148976798E+03  0.19936815207E+03  0.24131535380E+03  0.00000000000E+00 0. -1.
         -5    1    3    3    0  503  0.15437272845E+03 -0.66201295962E+02  0.20066323605E+03  0.26172767369E+03  0.47000000000E+01 0.  1.
         13    1    4    4    0    0  0.33244932058E+02 -0.12743830405E+02  0.69158482481E+02  0.77785129813E+02  0.00000000000E+00 0. -1.
        -14    1    4    4    0    0 -0.23030841236E+02 -0.51568074937E+02  0.25847447477E+02  0.62111001778E+02  0.00000000000E+00 0.  1.
<mgrwt>
<rscale>  2 0.27194834E+03</rscale>
<asrwt>0</asrwt>
<pdfrwt beam="1">  1       21 0.10055196E+00 0.27199401E+03</pdfrwt>
<pdfrwt beam="2">  1       21 0.17481377E-01 0.27199401E+03</pdfrwt>
<totfact> 0.23031734E+04</totfact>
</mgrwt>
</event>
<event>
12    1  0.1039378E-001  0.1942645E+03  0.7546771E-02  0.1154885E+00
         21   -1    0    0  503  502  0.00000000000E+00  0.00000000000E+00  0.38064480414E+03  0.38064480414E+03  0.00000000000E+00 0. -1.
         21   -1    0    0  501  503 -0.00000000000E+00 -0.00000000000E+00 -0.16133521566E+03  0.16133521566E+03  0.00000000000E+00 0. -1.
          6    2    1    2  501    0  0.28366992316E+02  0.81243215462E+02 -0.59436859565E+02  0.20221792294E+03  0.17307282216E+03 0.  0.
         24    2    3    3    0    0  0.21400745036E+02  0.12349428142E+02  0.29325422919E+02  0.89542658021E+02  0.80916048547E+02 0.  0.
         -6    2    1    2    0  502 -0.28366992316E+02 -0.81243215462E+02  0.27874644805E+03  0.33976209686E+03  0.17416530610E+03 0.  0.
        -24    2    5    5    0    0  0.20574529696E+02 -0.12624367344E+01  0.20261433318E+03  0.21888866530E+03  0.80217047857E+02 0.  0.
          5    1    3    3  501    0  0.69662472795E+01  0.68893787320E+02 -0.88762282484E+02  0.11267526492E+03  0.47000000000E+01 0. -1.
        -11    1    4    4    0    0  0.14907286494E+02 -0.30670284140E+02  0.30883944649E+02  0.46007733665E+02  0.00000000000E+00 0.  1.
         12    1    4    4    0    0  0.64934585422E+01  0.43019712283E+02 -0.15585217300E+01  0.43534924356E+02  0.00000000000E+00 0. -1.
         -5    1    5    5    0  502 -0.48941522011E+02 -0.79980778728E+02  0.76132114871E+02  0.12087343156E+03  0.47000000000E+01 0.  1.
         13    1    6    6    0    0  0.89839216968E+01 -0.40697188899E+02  0.98467975523E+02  0.10692480646E+03  0.00000000000E+00 0. -1.
        -14    1    6    6    0    0  0.11590607999E+02  0.39434752164E+02  0.10414635766E+03  0.11196385883E+03  0.00000000000E+00 0.  1.
<mgrwt>
<rscale>  2 0.19401934E+03</rscale>
<asrwt>0</asrwt>
<pdfrwt beam="1">  1       21 0.58560739E-01 0.19426451E+03</pdfrwt>
<pdfrwt beam="2">  1       21 0.24820803E-01 0.19426451E+03</pdfrwt>
<totfact> 0.41883765E+04</totfact>
</mgrwt>
</event>
<event>
12    1  0.1039378E-001  0.1896062E+03  0.7546771E-02  0.1158999E+00
         21   -1    0    0  501  502  0.00000000000E+00  0.00000000000E+00  0.40513103029E+02  0.40513103029E+02  0.00000000000E+00 0.  1.
         21   -1    0    0  502  503 -0.00000000000E+00 -0.00000000000E+00 -0.26009643839E+04  0.26009643839E+04  0.00000000000E+00 0.  1.
         -6    2    1    2    0  503 -0.73818620247E+02  0.21646241853E+02 -0.23543458610E+04  0.23619684497E+04  0.17329967083E+03 0.  0.
        -24    2    3    3    0    0 -0.19505475494E+02  0.69296615566E+02 -0.94765289926E+03  0.95341328419E+03  0.75949907774E+02 0.  0.
          6    2    1    2  501    0  0.73818620247E+02 -0.21646241853E+02 -0.20610541987E+03  0.27950903718E+03  0.17241841342E+03 0.  0.
         24    2    5    5    0    0  0.24827608537E+01 -0.46358232943E+01 -0.25341956047E+02  0.84379134224E+02  0.80311696515E+02 0.  0.
          5    1    5    5  501    0  0.71335859393E+02 -0.17010418558E+02 -0.18076346383E+03  0.19512990296E+03  0.47000000000E+01 0. -1.
        -13    1    6    6    0    0  0.16865521101E+02  0.32050316687E+02  0.22307033312E+01  0.36285598232E+02  0.00000000000E+00 0.  1.
         14    1    6    6    0    0 -0.14382760247E+02 -0.36686139981E+02 -0.27572659378E+02  0.48093535992E+02  0.00000000000E+00 0. -1.
         -5    1    3    3    0  503 -0.54313144753E+02 -0.47650373713E+02 -0.14066929617E+04  0.14085551656E+04  0.47000000000E+01 0.  1.
         13    1    4    4    0    0  0.12314472850E+02 -0.11892125327E+02 -0.12958632812E+03  0.13071222331E+03  0.00000000000E+00 0. -1.
        -14    1    4    4    0    0 -0.31819948344E+02  0.81188740893E+02 -0.81806657114E+03  0.82270106088E+03  0.00000000000E+00 0.  1.
<mgrwt>
<rscale>  2 0.18940463E+03</rscale>
<asrwt>0</asrwt>
<pdfrwt beam="1">  1       21 0.62327854E-02 0.18960624E+03</pdfrwt>
<pdfrwt beam="2">  1       21 0.40014835E+00 0.18960624E+03</pdfrwt>
<totfact> 0.16133720E+03</totfact>
</mgrwt>
</event>
<event>
12    1  0.1039378E-001  0.2137124E+03  0.7546771E-02  0.1138717E+00
         21   -1    0    0  503  502  0.00000000000E+00  0.00000000000E+00  0.49460014403E+03  0.49460014403E+03  0.00000000000E+00 0.  1.
         21   -1    0    0  501  503 -0.00000000000E+00 -0.00000000000E+00 -0.10612685294E+03  0.10612685294E+03  0.00000000000E+00 0.  1.
          6    2    1    2  501    0 -0.90234240790E+02 -0.86939847435E+02  0.30286822829E+03  0.37050708075E+03  0.17275872740E+03 0.  0.
         24    2    3    3    0    0 -0.10510002342E+03 -0.11271286652E+03  0.20907316253E+03  0.27199391225E+03  0.80739679278E+02 0.  0.
         -6    2    1    2    0  502  0.90234240790E+02  0.86939847435E+02  0.85605062789E+02  0.23021991622E+03  0.17312489066E+03 0.  0.
        -24    2    5    5    0    0  0.73565353269E+02  0.42225046973E+02 -0.12462807705E+02  0.12105644974E+03  0.85466523585E+02 0.  0.
          5    1    3    3  501    0  0.14865782631E+02  0.25773019085E+02  0.93795065760E+02  0.98513168495E+02  0.47000000000E+01 0. -1.
        -13    1    4    4    0    0 -0.11341696647E+03 -0.86761264174E+02  0.19388617985E+03  0.24079612950E+03  0.00000000000E+00 0.  1.
         14    1    4    4    0    0  0.83169430466E+01 -0.25951602346E+02  0.15186982680E+02  0.31197782756E+02  0.00000000000E+00 0. -1.
         -5    1    5    5    0  502  0.16668887521E+02  0.44714800461E+02  0.98067870494E+02  0.10916346648E+03  0.47000000000E+01 0.  1.
         13    1    6    6    0    0 -0.28304635218E+01  0.38322764199E+01 -0.32821599888E+02  0.33165573800E+02  0.00000000000E+00 0. -1.
        -14    1    6    6    0    0  0.76395816791E+02  0.38392770553E+02  0.20358792183E+02  0.87890875937E+02  0.00000000000E+00 0.  1.
<mgrwt>
<rscale>  2 0.21363822E+03</rscale>
<asrwt>0</asrwt>
<pdfrwt beam="1">  1       21 0.76092329E-01 0.21371238E+03</pdfrwt>
<pdfrwt beam="2">  1       21 0.16327208E-01 0.21371238E+03</pdfrwt>
<totfact> 0.51192584E+04</totfact>
</mgrwt>
</event>
<event>
12    1  0.1039378E-001  0.1943099E+03  0.7546771E-02  0.1157761E+00
         21   -1    0    0  501  502  0.00000000000E+00  0.00000000000E+00  0.25922927867E+03  0.25922927867E+03  0.00000000000E+00 0.  1.
         21   -1    0    0  502  503 -0.00000000000E+00 -0.00000000000E+00 -0.24919184103E+03  0.24919184103E+03  0.00000000000E+00 0.  1.
         -6    2    1    2    0  503 -0.44767667313E+02  0.16516131324E+02 -0.16650518776E+03  0.25589120770E+03  0.18835977808E+03 0.  0.
        -24    2    3    3    0    0 -0.23526491353E+02  0.28061979073E+02  0.31214531579E+01  0.84485894290E+02  0.76073335665E+02 0.  0.
          6    2    1    2  501    0  0.44767667313E+02 -0.16516131324E+02  0.17654262540E+03  0.25252991199E+03  0.17414686685E+03 0.  0.
         24    2    5    5    0    0 -0.95001305354E+01  0.46121574098E+02  0.12091552316E+03  0.15260523772E+03  0.80314025929E+02 0.  0.
          5    1    5    5  501    0  0.54267797848E+02 -0.62637705422E+02  0.55627102239E+02  0.99924674267E+02  0.47000000000E+01 0. -1.
        -13    1    6    6    0    0  0.14171739459E+02 -0.35697496406E+01 -0.47884316304E+01  0.15378894280E+02  0.00000000000E+00 0.  1.
         14    1    6    6    0    0 -0.23671869994E+02  0.49691323738E+02  0.12570395479E+03  0.13722634344E+03  0.00000000000E+00 0. -1.
         -5    1    3    3    0  503 -0.21241175960E+02 -0.11545847749E+02 -0.16962664092E+03  0.17140531341E+03  0.47000000000E+01 0.  1.
         11    1    4    4    0    0 -0.14621454472E+02 -0.25661704948E+02 -0.29968841673E+01  0.29686551609E+02  0.00000000000E+00 0. -1.
        -12    1    4    4    0    0 -0.89050368814E+01  0.53723684021E+02  0.61183373252E+01  0.54799342681E+02  0.00000000000E+00 0.  1.
<mgrwt>
<rscale>  2 0.19077881E+03</rscale>
<asrwt>0</asrwt>
<pdfrwt beam="1">  1       21 0.39881428E-01 0.19430989E+03</pdfrwt>
<pdfrwt beam="2">  1       21 0.38337206E-01 0.19430989E+03</pdfrwt>
<totfact> 0.39727846E+04</totfact>
</mgrwt>
</event>
<event>
12    1  0.1039378E-001  0.1976765E+03  0.7546771E-02  0.1151958E+00
         21   -1    0    0  503  502  0.00000000000E+00  0.00000000000E+00  0.18088603007E+02  0.18088603007E+02  0.00000000000E+00 0.  1.
         21   -1    0    0  501  503 -0.00000000000E+00 -0.00000000000E+00 -0.22081926848E+04  0.22081926848E+04  0.00000000000E+00 0.  1.
          6    2    1    2  501    0  0.31889940215E+02  0.87998063558E+02 -0.91417178186E+03  0.93529997547E+03  0.17411309513E+03 0.  0.
         24    2    3    3    0    0  0.36411371362E+02  0.10517820170E+03 -0.90421204193E+03  0.91439813571E+03  0.78334486290E+02 0.  0.
         -6    2    1    2    0  502 -0.31889940215E+02 -0.87998063558E+02 -0.12759322999E+04  0.12909813123E+04  0.17282617656E+03 0.  0.
        -24    2    5    5    0    0  0.34887630094E+02 -0.72231416570E+02 -0.10060061109E+04  0.10124313732E+04  0.80836044184E+02 0.  0.
          5    1    3    3  501    0 -0.45214311473E+01 -0.17180138140E+02 -0.99597399337E+01  0.20901839768E+02  0.47000000000E+01 0. -1.
        -13    1    4    4    0    0  0.54724396516E+01 -0.93780753256E+01 -0.25571875176E+02  0.27781589094E+02  0.00000000000E+00 0.  1.
         14    1    4    4    0    0  0.30938931711E+02  0.11455627702E+03 -0.87864016675E+03  0.88661654661E+03  0.00000000000E+00 0. -1.
         -5    1    5    5    0  502 -0.66777570309E+02 -0.15766646988E+02 -0.26992618902E+03  0.27854993910E+03  0.47000000000E+01 0.  1.
         13    1    6    6    0    0  0.12431965252E+02 -0.85126820298E+02 -0.68470189933E+03  0.69008537170E+03  0.00000000000E+00 0. -1.
        -14    1    6    6    0    0  0.22455664842E+02  0.12895403727E+02 -0.32130421157E+03  0.32234600152E+03  0.00000000000E+00 0.  1.
<mgrwt>
<rscale>  2 0.19739274E+03</rscale>
<asrwt>0</asrwt>
<pdfrwt beam="1">  1       21 0.27828613E-02 0.19767650E+03</pdfrwt>
<pdfrwt beam="2">  1       21 0.33972203E+00 0.19767650E+03</pdfrwt>
<totfact> 0.14315942E+04</totfact>
</mgrwt>
</event>
<event>
12    1  0.1039378E-001  0.2233592E+03  0.7546771E-02  0.1131529E+00
         21   -1    0    0  503  502  0.00000000000E+00  0.00000000000E+00  0.73161893786E+03  0.73161893786E+03  0.00000000000E+00 0.  1.
         21   -1    0    0  501  503 -0.00000000000E+00 -0.00000000000E+00 -0.81904072852E+02  0.81904072852E+02  0.00000000000E+00 0.  1.
          6    2    1    2  501    0 -0.10885382041E+03 -0.88380073135E+02  0.15756440632E+03  0.27334200702E+03  0.17386523263E+03 0.  0.
         24    2    3    3    0    0 -0.63966960312E+02 -0.11842289480E+02  0.12613509062E+02  0.10332519858E+03  0.79277892376E+02 0.  0.
         -6    2    1    2    0  502  0.10885382041E+03  0.88380073135E+02  0.49215045869E+03  0.54018100369E+03  0.17298338421E+03 0.  0.
        -24    2    5    5    0    0  0.38449413037E+02  0.15053875663E+02  0.99872802540E+02  0.13491891401E+03  0.80768559081E+02 0.  0.
          5    1    3    3  501    0 -0.44886860101E+02 -0.76537783655E+02  0.14495089726E+03  0.17001680844E+03  0.47000000000E+01 0. -1.
        -11    1    4    4    0    0 -0.73397920180E+02  0.40046549426E+01 -0.99577517896E+01  0.74178492629E+02  0.00000000000E+00 0.  1.
         12    1    4    4    0    0  0.94309598679E+01 -0.15846944423E+02  0.22571260851E+02  0.29146705954E+02  0.00000000000E+00 0. -1.
         -5    1    5    5    0  502  0.70404407376E+02  0.73326197472E+02  0.39227765615E+03  0.40526208968E+03  0.47000000000E+01 0.  1.
         13    1    6    6    0    0 -0.13354290041E+02  0.27169349399E+02  0.12777122690E+02  0.32859785049E+02  0.00000000000E+00 0. -1.
        -14    1    6    6    0    0  0.51803703078E+02 -0.12115473736E+02  0.87095679850E+02  0.10205912896E+03  0.00000000000E+00 0.  1.
<mgrwt>
<rscale>  2 0.22318752E+03</rscale>
<asrwt>0</asrwt>
<pdfrwt beam="1">  1       21 0.11255676E+00 0.22335915E+03</pdfrwt>
<pdfrwt beam="2">  1       21 0.12600627E-01 0.22335915E+03</pdfrwt>
<totfact> 0.32651423E+04</totfact>
</mgrwt>
</event>
<event>
12    1  0.1039378E-001  0.2113007E+03  0.7546771E-02  0.1141127E+00
         21   -1    0    0  503  502  0.00000000000E+00  0.00000000000E+00  0.12374838698E+03  0.12374838698E+03  0.00000000000E+00 0.  1.
         21   -1    0    0  501  503 -0.00000000000E+00 -0.00000000000E+00 -0.37638872198E+03  0.37638872198E+03  0.00000000000E+00 0.  1.
          6    2    1    2  501    0  0.40993707931E+01 -0.11907755975E+03 -0.18571821125E+03  0.28131700287E+03  0.17450424647E+03 0.  0.
         24    2    3    3    0    0 -0.36922064917E+01 -0.13321229272E+03 -0.20362916640E+03  0.25675297090E+03  0.81841941162E+02 0.  0.
         -6    2    1    2    0  502 -0.40993707931E+01  0.11907755975E+03 -0.66922123742E+02  0.21882010609E+03  0.17090172060E+03 0.  0.
        -24    2    5    5    0    0  0.17867037734E+02  0.75655864179E+02  0.28745901081E+02  0.11138441498E+03  0.74411828696E+02 0.  0.
          5    1    3    3  501    0  0.77915772847E+01  0.14134732968E+02  0.17910955148E+02  0.24564031977E+02  0.47000000000E+01 0. -1.
        -11    1    4    4    0    0  0.34852644475E+02 -0.91133986727E+02 -0.14640510349E+03  0.17593909370E+03  0.00000000000E+00 0.  1.
         12    1    4    4    0    0 -0.38544850967E+02 -0.42078305996E+02 -0.57224062915E+02  0.80813877200E+02  0.00000000000E+00 0. -1.
         -5    1    5    5    0  502 -0.21966408527E+02  0.43421695575E+02 -0.95668024822E+02  0.10743569111E+03  0.47000000000E+01 0.  1.
         11    1    6    6    0    0  0.54312274873E+01 -0.14847119869E+02  0.70793402494E+00  0.15825181547E+02  0.00000000000E+00 0. -1.
        -12    1    6    6    0    0  0.12435810247E+02  0.90502984048E+02  0.28037967056E+02  0.95559233435E+02  0.00000000000E+00 0.  1.
<mgrwt>
<rscale>  2 0.21055549E+03</rscale>
<asrwt>0</asrwt>
<pdfrwt beam="1">  1       21 0.19038214E-01 0.21130074E+03</pdfrwt>
<pdfrwt beam="2">  1       21 0.57905956E-01 0.21130074E+03</pdfrwt>
<totfact> 0.70163677E+04</totfact>
</mgrwt>
</event>
<event>
12    1  0.1039378E-001  0.2497766E+03  0.7546771E-02  0.1113492E+00
         21   -1    0    0  501  502  0.00000000000E+00  0.00000000000E+00  0.13908315521E+03  0.13908315521E+03  0.00000000000E+00 0.  1.
         21   -1    0    0  502  503 -0.00000000000E+00 -0.00000000000E+00 -0.46401559934E+03  0.46401559934E+03  0.00000000000E+00 0.  1.
         -6    2    1    2    0  503 -0.16825540085E+03  0.64969607439E+02 -0.21850618125E+03  0.33186341069E+03  0.17279306208E+03 0.  0.
        -24    2    3    3    0    0 -0.14723564774E+03  0.10445853739E+03 -0.20366292511E+03  0.28449656720E+03  0.82884182334E+02 0.  0.
          6    2    1    2  501    0  0.16825540085E+03 -0.64969607439E+02 -0.10642626288E+03  0.27123534386E+03  0.17236917510E+03 0.  0.
         24    2    5    5    0    0  0.78049463873E+02  0.24894019410E+02 -0.59487290688E+02  0.13544896897E+03  0.89979188860E+02 0.  0.
          5    1    5    5  501    0  0.90205936975E+02 -0.89863626849E+02 -0.46938972193E+02  0.13578637489E+03  0.47000000000E+01 0. -1.
        -11    1    6    6    0    0  0.51315768049E+01  0.11495375880E+02  0.21959597402E+02  0.25312065605E+02  0.00000000000E+00 0.  1.
         12    1    6    6    0    0  0.72917887068E+02  0.13398643530E+02 -0.81446888090E+02  0.11013690336E+03  0.00000000000E+00 0. -1.
         -5    1    3    3    0  503 -0.21019753104E+02 -0.39488929951E+02 -0.14843256134E+02  0.47366843487E+02  0.47000000000E+01 0.  1.
         11    1    4    4    0    0 -0.50918132720E+02  0.49560239216E+02 -0.13911380767E+03  0.15620987496E+03  0.00000000000E+00 0. -1.
        -12    1    4    4    0    0 -0.96317515024E+02  0.54898298174E+02 -0.64549117449E+02  0.12828669224E+03  0.00000000000E+00 0.  1.
<mgrwt>
<rscale>  2 0.24970335E+03</rscale>
<asrwt>0</asrwt>
<pdfrwt beam="1">  1       21 0.21397408E-01 0.24977664E+03</pdfrwt>
<pdfrwt beam="2">  1       21 0.71387016E-01 0.24977664E+03</pdfrwt>
<totfact> 0.35093609E+04</totfact>
</mgrwt>
</event>
<event>
12    1  0.1039378E-001  0.1773826E+03  0.7546771E-02  0.1170611E+00
         21   -1    0    0  501  502  0.00000000000E+00  0.00000000000E+00  0.28826696907E+03  0.28826696907E+03  0.00000000000E+00 0.  1.
         21   -1    0    0  502  503 -0.00000000000E+00 -0.00000000000E+00 -0.11826478699E+03  0.11826478699E+03  0.00000000000E+00 0.  1.
         -6    2    1    2    0  503 -0.23695162758E+02 -0.32310393659E+02  0.26457091528E+02  0.17834370455E+03  0.17175877557E+03 0.  0.
        -24    2    3    3    0    0 -0.70918680560E+02 -0.50622459892E+02 -0.87625762801E+01  0.11647361967E+03  0.76793415325E+02 0.  0.
          6    2    1    2  501    0  0.23695162758E+02  0.32310393659E+02  0.14354509055E+03  0.22818805151E+03  0.17279806583E+03 0.  0.
         24    2    5    5    0    0  0.49190227126E+02 -0.11216555585E+02  0.14964944408E+03  0.17715916999E+03  0.80280295425E+02 0.  0.
          5    1    5    5  501    0 -0.25495064368E+02  0.43526949244E+02 -0.61043535272E+01  0.51028881524E+02  0.47000000000E+01 0. -1.
        -13    1    6    6    0    0 -0.19967438794E+01 -0.21649518336E+02  0.10850683788E+03  0.11066355541E+03  0.00000000000E+00 0.  1.
         14    1    6    6    0    0  0.51186971005E+02  0.10432962751E+02  0.41142606197E+02  0.66495614571E+02  0.00000000000E+00 0. -1.
         -5    1    3    3    0  503  0.47223517802E+02  0.18312066233E+02  0.35219667808E+02  0.61870084886E+02  0.47000000000E+01 0.  1.
         11    1    4    4    0    0  0.80227788055E+01 -0.12201898948E+02  0.19391584927E+02  0.24275190704E+02  0.00000000000E+00 0. -1.
        -12    1    4    4    0    0 -0.78941459365E+02 -0.38420560944E+02 -0.28154161207E+02  0.92198428963E+02  0.00000000000E+00 0.  1.
<mgrwt>
<rscale>  2 0.17712901E+03</rscale>
<asrwt>0</asrwt>
<pdfrwt beam="1">  1       21 0.44348764E-01 0.17738262E+03</pdfrwt>
<pdfrwt beam="2">  1       21 0.18194583E-01 0.17738262E+03</pdfrwt>
<totfact> 0.13507758E+05</totfact>
</mgrwt>
</event>
<event>
12    1  0.1039378E-001  0.1798478E+03  0.7546771E-02  0.1168241E+00
         21   -1    0    0  503  502  0.00000000000E+00  0.00000000000E+00  0.51650376703E+02  0.51650376703E+02  0.00000000000E+00 0.  1.
         21   -1    0    0  501  503 -0.00000000000E+00 -0.00000000000E+00 -0.64704800342E+03  0.64704800342E+03  0.00000000000E+00 0.  1.
          6    2    1    2  501    0 -0.41756763819E+02 -0.25970083028E+02 -0.23002444195E+03  0.29198709213E+03  0.17299464020E+03 0.  0.
         24    2    3    3    0    0 -0.21268867590E+02  0.39067232656E+02 -0.78504841629E+02  0.12576469411E+03  0.87607846274E+02 0.  0.
         -6    2    1    2    0  502  0.41756763819E+02  0.25970083028E+02 -0.36537318477E+03  0.40671128800E+03  0.17175108470E+03 0.  0.
        -24    2    5    5    0    0  0.13985145936E+02  0.31595092571E+02 -0.36766123194E+03  0.37789759937E+03  0.80237023605E+02 0.  0.
          5    1    3    3  501    0 -0.20487896229E+02 -0.65037315684E+02 -0.15151960032E+03  0.16622239802E+03  0.47000000000E+01 0. -1.
        -11    1    4    4    0    0 -0.62066095028E+01  0.28506544327E+02  0.13351551445E+02  0.32084404264E+02  0.00000000000E+00 0.  1.
         12    1    4    4    0    0 -0.15062258087E+02  0.10560688329E+02 -0.91856393074E+02  0.93680289844E+02  0.00000000000E+00 0. -1.
         -5    1    5    5    0  502  0.27771617883E+02 -0.56250095434E+01  0.22880471709E+01  0.28813688623E+02  0.47000000000E+01 0.  1.
         11    1    6    6    0    0 -0.14396275544E+02  0.45338359672E+02 -0.13555847538E+03  0.14366252070E+03  0.00000000000E+00 0. -1.
        -12    1    6    6    0    0  0.28381421480E+02 -0.13743267101E+02 -0.23210275656E+03  0.23423507867E+03  0.00000000000E+00 0.  1.
<mgrwt>
<rscale>  2 0.17954805E+03</rscale>
<asrwt>0</asrwt>
<pdfrwt beam="1">  1       21 0.79462121E-02 0.17984776E+03</pdfrwt>
<pdfrwt beam="2">  1       21 0.99545843E-01 0.17984776E+03</pdfrwt>
<totfact> 0.10129108E+05</totfact>
</mgrwt>
</event>
<event>
12    1  0.1039378E-001  0.2254148E+03  0.7546771E-02  0.1131159E+00
         21   -1    0    0  501  502  0.00000000000E+00  0.00000000000E+00  0.57547836909E+02  0.57547836909E+02  0.00000000000E+00 0.  1.
         21   -1    0    0  502  503 -0.00000000000E+00 -0.00000000000E+00 -0.20027980101E+04  0.20027980101E+04  0.00000000000E+00 0. -1.
         -6    2    1    2    0  503  0.82517547182E+02 -0.11819190219E+03 -0.17583354043E+04  0.17727253630E+04  0.17330132004E+03 0.  0.
        -24    2    3    3    0    0 -0.21145250221E+02 -0.72909531845E+02 -0.96499551216E+03  0.97134733549E+03  0.80847920411E+02 0.  0.
          6    2    1    2  501    0 -0.82517547182E+02  0.11819190219E+03 -0.18691476896E+03  0.28762048401E+03  0.16434701283E+03 0.  0.
         24    2    5    5    0    0 -0.38886941499E+02  0.66790688268E+02 -0.18940218224E+03  0.21998919118E+03  0.80925072365E+02 0.  0.
          5    1    5    5  501    0 -0.43630605683E+02  0.51401213925E+02  0.24874132812E+01  0.67631292832E+02  0.47000000000E+01 0. -1.
        -11    1    6    6    0    0 -0.59572383143E+02  0.50359276217E+02 -0.17052641293E+03  0.18752115358E+03  0.00000000000E+00 0.  1.
         12    1    6    6    0    0  0.20685441643E+02  0.16431412051E+02 -0.18875769314E+02  0.32468037594E+02  0.00000000000E+00 0. -1.
         -5    1    3    3    0  503  0.10366279740E+03 -0.45282370348E+02 -0.79333989210E+03  0.80137802754E+03  0.47000000000E+01 0.  1.
         11    1    4    4    0    0 -0.51170499484E+00 -0.17936745329E+02 -0.68624915625E+03  0.68648371658E+03  0.00000000000E+00 0. -1.
        -12    1    4    4    0    0 -0.20633545226E+02 -0.54972786516E+02 -0.27874635590E+03  0.28486361891E+03  0.00000000000E+00 0.  1.
<mgrwt>
<rscale>  2 0.22369285E+03</rscale>
<asrwt>0</asrwt>
<pdfrwt beam="1">  1       21 0.88535152E-02 0.22541477E+03</pdfrwt>
<pdfrwt beam="2">  1       21 0.30812271E+00 0.22541477E+03</pdfrwt>
<totfact> 0.29665265E+03</totfact>
</mgrwt>
</event>
<event>
12    1  0.1039378E-001  0.5605950E+03  0.7546771E-02  0.9990807E-01
         21   -1    0    0  501  502  0.00000000000E+00  0.00000000000E+00  0.15920872451E+04  0.15920872451E+04  0.00000000000E+00 0. -1.
         21   -1    0    0  502  503 -0.00000000000E+00 -0.00000000000E+00 -0.29161967179E+03  0.29161967179E+03  0.00000000000E+00 0.  1.
         -6    2    1    2    0  503 -0.13611728245E+03  0.51526180568E+03  0.11474837367E+03  0.57221845147E+03  0.17390837811E+03 0.  0.
        -24    2    3    3    0    0 -0.86497241467E+02  0.45853361529E+03  0.58883171638E+02  0.47828631188E+03  0.86923639417E+02 0.  0.
          6    2    1    2  501    0  0.13611728245E+03 -0.51526180568E+03  0.11857191996E+04  0.13114884654E+04  0.17334743018E+03 0.  0.
         24    2    5    5    0    0  0.90845094634E+02 -0.31126802187E+03  0.56382115471E+03  0.65540744670E+03  0.80771368949E+02 0.  0.
          5    1    5    5  501    0  0.45272187812E+02 -0.20399378381E+03  0.62189804494E+03  0.65608101872E+03  0.47000000000E+01 0. -1.
        -11    1    6    6    0    0  0.95005205875E+02 -0.30626982946E+03  0.51867847094E+03  0.60979878140E+03  0.00000000000E+00 0.  1.
         12    1    6    6    0    0 -0.41601112408E+01 -0.49981924068E+01  0.45142683773E+02  0.45608665307E+02  0.00000000000E+00 0. -1.
         -5    1    3    3    0  503 -0.49620040978E+02  0.56728190384E+02  0.55865202036E+02  0.93932139598E+02  0.47000000000E+01 0.  1.
         11    1    4    4    0    0 -0.82090247968E+01  0.94844663181E+02  0.46774466740E+02  0.10606954775E+03  0.00000000000E+00 0. -1.
        -12    1    4    4    0    0 -0.78288216670E+02  0.36368895211E+03  0.12108704897E+02  0.37221676412E+03  0.00000000000E+00 0.  1.
<mgrwt>
<rscale>  2 0.56055157E+03</rscale>
<asrwt>0</asrwt>
<pdfrwt beam="1">  1       21 0.24493649E+00 0.56059501E+03</pdfrwt>
<pdfrwt beam="2">  1       21 0.44864566E-01 0.56059501E+03</pdfrwt>
<totfact> 0.25811185E+02</totfact>
</mgrwt>
</event>
<event>
12    1  0.1039378E-001  0.2036072E+03  0.7546771E-02  0.1148404E+00
         21   -1    0    0  503  502  0.00000000000E+00  0.00000000000E+00  0.96112980912E+02  0.96112980912E+02  0.00000000000E+00 0. -1.
         21   -1    0    0  501  503 -0.00000000000E+00 -0.00000000000E+00 -0.99032398721E+03  0.99032398721E+03  0.00000000000E+00 0. -1.
          6    2    1    2  501    0 -0.73598596380E+02 -0.52969331647E+02 -0.86496137802E+03  0.88860230581E+03  0.18230021649E+03 0.  0.
         24    2    3    3    0    0 -0.79236292939E+01 -0.28987967844E+02 -0.74317812934E+03  0.74809765545E+03  0.80207755141E+02 0.  0.
         -6    2    1    2    0  502  0.73598596380E+02  0.52969331647E+02 -0.29249628275E+02  0.19783466231E+03  0.17337966828E+03 0.  0.
        -24    2    5    5    0    0  0.59492633191E+02  0.51975791339E+02  0.46263160294E+02  0.12086559998E+03  0.78913604454E+02 0.  0.
          5    1    3    3  501    0 -0.65674967086E+02 -0.23981363803E+02 -0.12178324869E+03  0.14050465036E+03  0.47000000000E+01 0. -1.
        -11    1    4    4    0    0  0.16648017556E+02 -0.68303071140E+01 -0.36989197537E+02  0.41134053025E+02  0.00000000000E+00 0.  1.
         12    1    4    4    0    0 -0.24571646850E+02 -0.22157660730E+02 -0.70618893180E+03  0.70696360243E+03  0.00000000000E+00 0. -1.
         -5    1    5    5    0  502  0.14105963188E+02  0.99354030884E+00 -0.75512788569E+02  0.76969062338E+02  0.47000000000E+01 0.  1.
         13    1    6    6    0    0  0.23411991076E+02 -0.15878174531E+02  0.31985494051E+02  0.42700229300E+02  0.00000000000E+00 0. -1.
        -14    1    6    6    0    0  0.36080642115E+02  0.67853965869E+02  0.14277666243E+02  0.78165370677E+02  0.00000000000E+00 0.  1.
<mgrwt>
<rscale>  2 0.20159072E+03</rscale>
<asrwt>0</asrwt>
<pdfrwt beam="1">  1       21 0.14786613E-01 0.20360715E+03</pdfrwt>
<pdfrwt beam="2">  1       21 0.15235754E+00 0.20360715E+03</pdfrwt>
<totfact> 0.11456678E+04</totfact>
</mgrwt>
</event>
<event>
12    1  0.1039378E-001  0.2325055E+03  0.7546771E-02  0.1125328E+00
         21   -1    0    0  501  502  0.00000000000E+00  0.00000000000E+00  0.37157756872E+03  0.37157756872E+03  0.00000000000E+00 0. -1.
         21   -1    0    0  502  503 -0.00000000000E+00 -0.00000000000E+00 -0.15812127863E+03  0.15812127863E+03  0.00000000000E+00 0.  1.
         -6    2    1    2    0  503 -0.95957717045E+02  0.12199445640E+03  0.26814475194E+02  0.23154789887E+03  0.16972001219E+03 0.  0.
        -24    2    3    3    0    0 -0.14397290726E+02  0.48366221345E+02 -0.41448372041E+02  0.10210630412E+03  0.78493034397E+02 0.  0.
          6    2    1    2  501    0  0.95957717045E+02 -0.12199445640E+03  0.18664181490E+03  0.29815094847E+03  0.17311351811E+03 0.  0.
         24    2    5    5    0    0 -0.91642146825E+01 -0.78285929115E+02  0.12057519109E+03  0.16643935191E+03  0.83372727128E+02 0.  0.
          5    1    5    5  501    0  0.10512193173E+03 -0.43708527288E+02  0.66066623807E+02  0.13171159656E+03  0.47000000000E+01 0. -1.
        -11    1    6    6    0    0 -0.18462235735E+02  0.13083756372E+02  0.19508726693E+02  0.29876901552E+02  0.00000000000E+00 0.  1.
         12    1    6    6    0    0  0.92980210525E+01 -0.91369685488E+02  0.10106646439E+03  0.13656245035E+03  0.00000000000E+00 0. -1.
         -5    1    3    3    0  503 -0.81560426319E+02  0.73628235059E+02  0.68262847235E+02  0.12944159475E+03  0.47000000000E+01 0.  1.
         11    1    4    4    0    0  0.16705155232E+01  0.25830855551E+01 -0.52297060087E+02  0.52387455052E+02  0.00000000000E+00 0. -1.
        -12    1    4    4    0    0 -0.16067806249E+02  0.45783135790E+02  0.10848688045E+02  0.49718849068E+02  0.00000000000E+00 0.  1.
<mgrwt>
<rscale>  2 0.23187409E+03</rscale>
<asrwt>0</asrwt>
<pdfrwt beam="1">  1       21 0.57165780E-01 0.23250553E+03</pdfrwt>
<pdfrwt beam="2">  1       21 0.24326351E-01 0.23250553E+03</pdfrwt>
<totfact> 0.44993321E+04</totfact>
</mgrwt>
</event>
<event>
12    1  0.1039378E-001  0.1789469E+03  0.7546771E-02  0.1169986E+00
         21   -1    0    0  501  502  0.00000000000E+00  0.00000000000E+00  0.62207410812E+03  0.62207410812E+03  0.00000000000E+00 0. -1.
         21   -1    0    0  502  503 -0.00000000000E+00 -0.00000000000E+00 -0.53384228108E+02  0.53384228108E+02  0.00000000000E+00 0. -1.
         -6    2    1    2    0  503  0.34108125597E+00  0.28152026513E+02  0.19749834338E+03  0.26338412046E+03  0.17196786426E+03 0.  0.
        -24    2    3    3    0    0 -0.43075174992E+02  0.13618163998E+02  0.19476393005E+03  0.21727803103E+03  0.85063677483E+02 0.  0.
          6    2    1    2  501    0 -0.34108125597E+00 -0.28152026513E+02  0.37119153664E+03  0.41207421577E+03  0.17671827721E+03 0.  0.
         24    2    5    5    0    0 -0.80606393941E+01  0.18874782753E+02  0.75438208730E+02  0.11246908675E+03  0.80852586888E+02 0.  0.
          5    1    5    5  501    0  0.77195581381E+01 -0.47026809267E+02  0.29575332791E+03  0.29960512902E+03  0.47000000000E+01 0. -1.
        -13    1    6    6    0    0  0.31165525488E+02  0.27458919271E+02  0.49709506797E+02  0.64778988047E+02  0.00000000000E+00 0.  1.
         14    1    6    6    0    0 -0.39226164882E+02 -0.85841365171E+01  0.25728701933E+02  0.47690098702E+02  0.00000000000E+00 0. -1.
         -5    1    3    3    0  503  0.43416256248E+02  0.14533862515E+02  0.27344133233E+01  0.46106089429E+02  0.47000000000E+01 0.  1.
         13    1    4    4    0    0 -0.67084280145E+01 -0.12985948822E+02 -0.25913361010E+01  0.14844288330E+02  0.00000000000E+00 0. -1.
        -14    1    4    4    0    0 -0.36366746977E+02  0.26604112820E+02  0.19735526615E+03  0.20243374270E+03  0.00000000000E+00 0.  1.
<mgrwt>
<rscale>  2 0.17776281E+03</rscale>
<asrwt>0</asrwt>
<pdfrwt beam="1">  1       21 0.95703704E-01 0.17894693E+03</pdfrwt>
<pdfrwt beam="2">  1       21 0.82129586E-02 0.17894693E+03</pdfrwt>
<totfact> 0.10494640E+05</totfact>
</mgrwt>
</event>
<event>
12    1  0.1039378E-001  0.2081856E+03  0.7546771E-02  0.1143801E+00
         21   -1    0    0  503  502  0.00000000000E+00  0.00000000000E+00  0.19367386585E+03  0.19367386585E+03  0.00000000000E+00 0.  1.
         21   -1    0    0  501  503 -0.00000000000E+00 -0.00000000000E+00 -0.24673930489E+03  0.24673930489E+03  0.00000000000E+00 0.  1.
          6    2    1    2  501    0 -0.14720730948E+02  0.11440283641E+03 -0.99332346220E+02  0.22714842183E+03  0.16859650541E+03 0.  0.
         24    2    3    3    0    0  0.48433525877E+02  0.89013665398E+02 -0.92425561661E+02  0.15857099236E+03  0.79580375177E+02 0.  0.
         -6    2    1    2    0  502  0.14720730948E+02 -0.11440283641E+03  0.46266907181E+02  0.21326474892E+03  0.17331046573E+03 0.  0.
        -24    2    5    5    0    0  0.24203600089E+02  0.88970497969E+01  0.48173225118E+01  0.82754424358E+02  0.78486409030E+02 0.  0.
          5    1    3    3  501    0 -0.63154256825E+02  0.25389171017E+02 -0.69067845589E+01  0.68577429472E+02  0.47000000000E+01 0. -1.
        -13    1    4    4    0    0  0.23174848465E+02  0.26625113339E+02  0.93834690472E+01  0.36524235146E+02  0.00000000000E+00 0.  1.
         14    1    4    4    0    0  0.25258677412E+02  0.62388552059E+02 -0.10180903071E+03  0.12204675721E+03  0.00000000000E+00 0. -1.
         -5    1    5    5    0  502 -0.94828691406E+01 -0.12329988621E+03  0.41449584669E+02  0.13051032456E+03  0.47000000000E+01 0.  1.
         11    1    6    6    0    0  0.31469998694E+02 -0.14055304383E+02 -0.26340554711E+02  0.43378995165E+02  0.00000000000E+00 0. -1.
        -12    1    6    6    0    0 -0.72663986049E+01  0.22952354180E+02  0.31157877223E+02  0.39375429193E+02  0.00000000000E+00 0.  1.
<mgrwt>
<rscale>  2 0.20720171E+03</rscale>
<asrwt>0</asrwt>
<pdfrwt beam="1">  1       21 0.29795979E-01 0.20818556E+03</pdfrwt>
<pdfrwt beam="2">  1       21 0.37959893E-01 0.20818556E+03</pdfrwt>
<totfact> 0.71781205E+04</totfact>
</mgrwt>
</event>
<event>
12    1  0.1039378E-001  0.1794656E+03  0.7546771E-02  0.1168572E+00
         21   -1    0    0  503  502  0.00000000000E+00  0.00000000000E+00  0.14449753881E+03  0.14449753881E+03  0.00000000000E+00 0.  1.
         21   -1    0    0  501  503 -0.00000000000E+00 -0.00000000000E+00 -0.22230267629E+03  0.22230267629E+03  0.00000000000E+00 0.  1.
          6    2    1    2  501    0 -0.24219484375E+02  0.39735503198E+02 -0.28626957912E+02  0.18071856223E+03  0.17226201664E+03 0.  0.
         24    2    3    3    0    0 -0.61235445211E+02 -0.27970075104E+01  0.24115516321E+02  0.10336835595E+03  0.79660880502E+02 0.  0.
         -6    2    1    2    0  502  0.24219484375E+02 -0.39735503198E+02 -0.49178179568E+02  0.18608165288E+03  0.17332742009E+03 0.  0.
        -24    2    5    5    0    0  0.13784954171E+02 -0.79242794407E+02  0.10129827476E+02  0.11390662133E+03  0.80016620468E+02 0.  0.
          5    1    3    3  501    0  0.37015960836E+02  0.42532510708E+02 -0.52742474233E+02  0.77350206283E+02  0.47000000000E+01 0. -1.
        -11    1    4    4    0    0 -0.19686207807E+02 -0.23440160705E+02 -0.22199352432E+02  0.37812685174E+02  0.00000000000E+00 0.  1.
         12    1    4    4    0    0 -0.41549237404E+02  0.20643153194E+02  0.46314868753E+02  0.65555670771E+02  0.00000000000E+00 0. -1.
         -5    1    5    5    0  502  0.10434530204E+02  0.39507291209E+02 -0.59308007043E+02  0.72175031546E+02  0.47000000000E+01 0.  1.
         13    1    6    6    0    0 -0.33515191633E+02 -0.34895119344E+02  0.79464565084E+01  0.49031455161E+02  0.00000000000E+00 0. -1.
        -14    1    6    6    0    0  0.47300145804E+02 -0.44347675064E+02  0.21833709672E+01  0.64875166169E+02  0.00000000000E+00 0.  1.
<mgrwt>
<rscale>  2 0.17920782E+03</rscale>
<asrwt>0</asrwt>
<pdfrwt beam="1">  1       21 0.22230391E-01 0.17946556E+03</pdfrwt>
<pdfrwt beam="2">  1       21 0.34200412E-01 0.17946556E+03</pdfrwt>
<totfact> 0.15658029E+05</totfact>
</mgrwt>
</event>
<event>
12    1  0.1039378E-001  0.2215077E+03  0.7546771E-02  0.1133056E+00
         21   -1    0    0  501  502  0.00000000000E+00  0.00000000000E+00  0.63489061526E+03  0.63489061526E+03  0.00000000000E+00 0. -1.
         21   -1    0    0  502  503 -0.00000000000E+00 -0.00000000000E+00 -0.13043305017E+03  0.13043305017E+03  0.00000000000E+00 0. -1.
         -6    2    1    2    0  503 -0.13192436394E+03  0.30134723222E+02  0.72288396262E+01  0.22162562238E+03  0.17536681849E+03 0.  0.
        -24    2    3    3    0    0 -0.28633683950E+02  0.28734431766E+02  0.56890300530E+02  0.10691173443E+03  0.80920066976E+02 0.  0.
          6    2    1    2  501    0  0.13192436394E+03 -0.30134723222E+02  0.49722872546E+03  0.54369804305E+03  0.17337536516E+03 0.  0.
         24    2    5    5    0    0  0.41310804420E+02 -0.75051880785E+02  0.29368299229E+03  0.31636277587E+03  0.80599867372E+02 0.  0.
          5    1    5    5  501    0  0.90613559521E+02  0.44917157563E+02  0.20354573317E+03  0.22733526718E+03  0.47000000000E+01 0. -1.
        -11    1    6    6    0    0  0.52234640178E+01 -0.69803380306E+01  0.17276590945E+03  0.17298574844E+03  0.00000000000E+00 0.  1.
         12    1    6    6    0    0  0.36087340402E+02 -0.68071542755E+02  0.12091708284E+03  0.14337702743E+03  0.00000000000E+00 0. -1.
         -5    1    3    3    0  503 -0.10329067999E+03  0.14002914558E+01 -0.49661460904E+02  0.11471388795E+03  0.47000000000E+01 0.  1.
         11    1    4    4    0    0 -0.20305345051E+02  0.19847851940E+02 -0.16282892918E+02  0.32731893713E+02  0.00000000000E+00 0. -1.
        -12    1    4    4    0    0 -0.83283388997E+01  0.88865798267E+01  0.73173193448E+02  0.74179840720E+02  0.00000000000E+00 0.  1.
<mgrwt>
<rscale>  2 0.22111333E+03</rscale>
<asrwt>0</asrwt>
<pdfrwt beam="1">  1       21 0.97675478E-01 0.22150770E+03</pdfrwt>
<pdfrwt beam="2">  1       21 0.20066623E-01 0.22150770E+03</pdfrwt>
<totfact> 0.19566340E+04</totfact>
</mgrwt>
</event>
<event>
12    1  0.1039378E-001  0.1885034E+03  0.7546771E-02  0.1161578E+00
         21   -1    0    0  501  502  0.00000000000E+00  0.00000000000E+00  0.63902342750E+03  0.63902342750E+03  0.00000000000E+00 0.  1.
         21   -1    0    0  502  503 -0.00000000000E+00 -0.00000000000E+00 -0.54542763557E+02  0.54542763557E+02  0.00000000000E+00 0.  1.
         -6    2    1    2    0  503 -0.17993728860E+02 -0.43535017657E+01  0.34831392488E+03  0.39605065443E+03  0.18759211965E+03 0.  0.
        -24    2    3    3    0    0  0.47377545474E+02  0.76641764587E+01  0.29854261934E+03  0.31288154386E+03  0.80397720815E+02 0.  0.
          6    2    1    2  501    0  0.17993728860E+02  0.43535017657E+01  0.23616673906E+03  0.29751553662E+03  0.17999455169E+03 0.  0.
         24    2    5    5    0    0 -0.90238351330E+01  0.71294214073E+02  0.14635137367E+03  0.18219035468E+03  0.81303789606E+02 0.  0.
          5    1    5    5  501    0  0.27017563993E+02 -0.66940712308E+02  0.89815365396E+02  0.11532518194E+03  0.47000000000E+01 0. -1.
        -11    1    6    6    0    0  0.35646808530E+02  0.21735070427E+02  0.58755002861E+02  0.72078142360E+02  0.00000000000E+00 0.  1.
         12    1    6    6    0    0 -0.44670643663E+02  0.49559143646E+02  0.87596370805E+02  0.11011221232E+03  0.00000000000E+00 0. -1.
         -5    1    3    3    0  503 -0.65371274335E+02 -0.12017678224E+02  0.49771305544E+02  0.83169110574E+02  0.47000000000E+01 0.  1.
         11    1    4    4    0    0 -0.84998892978E+01  0.15087777340E+01 -0.45544278600E+00  0.86447646849E+01  0.00000000000E+00 0. -1.
        -12    1    4    4    0    0  0.55877434772E+02  0.61553987247E+01  0.29899806212E+03  0.30423677918E+03  0.00000000000E+00 0.  1.
<mgrwt>
<rscale>  2 0.18658447E+03</rscale>
<asrwt>0</asrwt>
<pdfrwt beam="1">  1       21 0.98311291E-01 0.18850340E+03</pdfrwt>
<pdfrwt beam="2">  1       21 0.83911949E-02 0.18850340E+03</pdfrwt>
<totfact> 0.94537408E+04</totfact>
</mgrwt>
</event>
<event>
12    1  0.1039378E-001  0.1977196E+03  0.7546771E-02  0.1153750E+00
         21   -1    0    0  501  502  0.00000000000E+00  0.00000000000E+00  0.35119916404E+02  0.35119916404E+02  0.00000000000E+00 0. -1.
         21   -1    0    0  502  503 -0.00000000000E+00 -0.00000000000E+00 -0.12731223674E+04  0.12731223674E+04  0.00000000000E+00 0. -1.
         -6    2    1    2    0  503 -0.21389034523E+02 -0.71374854246E+02 -0.89874938587E+03  0.92024099899E+03  0.18314250463E+03 0.  0.
        -24    2    3    3    0    0 -0.62516283330E+02 -0.10327559543E+03 -0.69338129626E+03  0.70832769098E+03  0.79852122757E+02 0.  0.
          6    2    1    2  501    0  0.21389034523E+02  0.71374854246E+02 -0.33925306511E+03  0.38800128480E+03  0.17291759368E+03 0.  0.
         24    2    5    5    0    0 -0.27309663983E+02  0.69747039581E+02 -0.31280884707E+03  0.33236317120E+03  0.83698479619E+02 0.  0.
          5    1    5    5  501    0  0.48698698506E+02  0.16278146650E+01 -0.26444218042E+02  0.55638113597E+02  0.47000000000E+01 0. -1.
        -13    1    6    6    0    0 -0.36888398047E+02  0.75867296274E+02 -0.17695786696E+03  0.19603746385E+03  0.00000000000E+00 0.  1.
         14    1    6    6    0    0  0.95787340635E+01 -0.61202566933E+01 -0.13585098011E+03  0.13632570735E+03  0.00000000000E+00 0. -1.
         -5    1    3    3    0  503  0.41127248807E+02  0.31900741186E+02 -0.20536808961E+03  0.21191330801E+03  0.47000000000E+01 0.  1.
         13    1    4    4    0    0 -0.19701448282E+02 -0.92235853071E+02 -0.55783525303E+03  0.56575239211E+03  0.00000000000E+00 0. -1.
        -14    1    4    4    0    0 -0.42814835048E+02 -0.11039742361E+02 -0.13554604324E+03  0.14257529887E+03  0.00000000000E+00 0.  1.
<mgrwt>
<rscale>  2 0.19531829E+03</rscale>
<asrwt>0</asrwt>
<pdfrwt beam="1">  1       21 0.54030630E-02 0.19771959E+03</pdfrwt>
<pdfrwt beam="2">  1       21 0.19586502E+00 0.19771959E+03</pdfrwt>
<totfact> 0.33549165E+04</totfact>
</mgrwt>
</event>
<event>
12    1  0.1039378E-001  0.1920429E+03  0.7546771E-02  0.1156662E+00
         21   -1    0    0  501  502  0.00000000000E+00  0.00000000000E+00  0.26180934268E+03  0.26180934268E+03  0.00000000000E+00 0. -1.
         21   -1    0    0  502  503 -0.00000000000E+00 -0.00000000000E+00 -0.50624591642E+03  0.50624591642E+03  0.00000000000E+00 0. -1.
         -6    2    1    2    0  503 -0.77828160284E+02 -0.29282464959E+02 -0.44852748364E+03  0.48791124042E+03  0.17310629584E+03 0.  0.
        -24    2    3    3    0    0  0.10316352924E+02  0.19018856624E+02 -0.27298692780E+03  0.28557723532E+03  0.81020679689E+02 0.  0.
          6    2    1    2  501    0  0.77828160284E+02  0.29282464959E+02  0.20409090989E+03  0.28014401868E+03  0.17295342267E+03 0.  0.
         24    2    5    5    0    0  0.75222928018E+02  0.67907874165E+02  0.20351479361E+03  0.24114233434E+03  0.80382746414E+02 0.  0.
          5    1    5    5  501    0  0.26052322658E+01 -0.38625409207E+02  0.57611628878E+00  0.39001684342E+02  0.47000000000E+01 0. -1.
        -11    1    6    6    0    0  0.21655162217E+02 -0.12167545007E+02  0.13919362293E+02  0.28473564034E+02  0.00000000000E+00 0.  1.
         12    1    6    6    0    0  0.53567765801E+02  0.80075419173E+02  0.18959543131E+03  0.21266877030E+03  0.00000000000E+00 0. -1.
         -5    1    3    3    0  503 -0.88144513208E+02 -0.48301321583E+02 -0.17554055584E+03  0.20233400510E+03  0.47000000000E+01 0.  1.
         13    1    4    4    0    0 -0.22695713173E+02 -0.18038097136E+02 -0.56845267762E+02  0.63811071231E+02  0.00000000000E+00 0. -1.
        -14    1    4    4    0    0  0.33012066097E+02  0.37056953760E+02 -0.21614166004E+03  0.22176616409E+03  0.00000000000E+00 0.  1.
<mgrwt>
<rscale>  2 0.19200844E+03</rscale>
<asrwt>0</asrwt>
<pdfrwt beam="1">  1       21 0.40278361E-01 0.19204290E+03</pdfrwt>
<pdfrwt beam="2">  1       21 0.77883986E-01 0.19204290E+03</pdfrwt>
<totfact> 0.86822460E+03</totfact>
</mgrwt>
</event>
<event>
12    1  0.1039378E-001  0.1746002E+03  0.7546771E-02  0.1173554E+00
         21   -1    0    0  501  502  0.00000000000E+00  0.00000000000E+00  0.14406611733E+03  0.14406611733E+03  0.00000000000E+00 0. -1.
         21   -1    0    0  502  503 -0.00000000000E+00 -0.00000000000E+00 -0.26002647051E+03  0.26002647051E+03  0.00000000000E+00 0. -1.
         -6    2    1    2    0  503  0.17958897676E+02 -0.39845187423E+01 -0.14717982256E+03  0.22835747477E+03  0.17362844732E+03 0.  0.
        -24    2    3    3    0    0 -0.18334364412E+02  0.58082871322E+02 -0.10083435976E+03  0.14268627947E+03  0.80511100976E+02 0.  0.
          6    2    1    2  501    0 -0.17958897676E+02  0.39845187423E+01  0.31219469386E+02  0.17573511307E+03  0.17195864707E+03 0.  0.
         24    2    5    5    0    0  0.28506445894E+01 -0.62457216252E+02  0.25216366073E+02  0.10569463586E+03  0.81403076695E+02 0.  0.
          5    1    5    5  501    0 -0.20809542265E+02  0.66441734994E+02  0.60031033129E+01  0.70040477209E+02  0.47000000000E+01 0. -1.
        -11    1    6    6    0    0  0.43696427377E+01  0.19844604473E+02  0.54749493975E+01  0.21044647188E+02  0.00000000000E+00 0.  1.
         12    1    6    6    0    0 -0.15189981483E+01 -0.82301820725E+02  0.19741416676E+02  0.84649988673E+02  0.00000000000E+00 0. -1.
         -5    1    3    3    0  503  0.36293262088E+02 -0.62067390064E+02 -0.46345462800E+02  0.85671195303E+02  0.47000000000E+01 0.  1.
         11    1    4    4    0    0  0.47889612594E+01 -0.13371393047E+02 -0.50047110519E+02  0.52023471369E+02  0.00000000000E+00 0. -1.
        -12    1    4    4    0    0 -0.23123325672E+02  0.71454264369E+02 -0.50787249243E+02  0.90662808099E+02  0.00000000000E+00 0.  1.
<mgrwt>
<rscale>  2 0.17418363E+03</rscale>
<asrwt>0</asrwt>
<pdfrwt beam="1">  1       21 0.22164018E-01 0.17460022E+03</pdfrwt>
<pdfrwt beam="2">  1       21 0.40004072E-01 0.17460022E+03</pdfrwt>
<totfact> 0.11538143E+05</totfact>
</mgrwt>
</event>
<event>
12    1  0.1039378E-001  0.1772932E+03  0.7546771E-02  0.1170816E+00
         21   -1    0    0  501  502  0.00000000000E+00  0.00000000000E+00  0.11025519558E+03  0.11025519558E+03  0.00000000000E+00 0.  1.
         21   -1    0    0  502  503 -0.00000000000E+00 -0.00000000000E+00 -0.29449123229E+03  0.29449123229E+03  0.00000000000E+00 0.  1.
         -6    2    1    2    0  503  0.26300432823E+02  0.25071224469E+02 -0.13296307475E+03  0.22161243352E+03  0.17352986020E+03 0.  0.
        -24    2    3    3    0    0 -0.43982687140E+02  0.41969735094E+02 -0.10019259082E+03  0.14210601095E+03  0.80371808875E+02 0.  0.
          6    2    1    2  501    0 -0.26300432823E+02 -0.25071224469E+02 -0.51272961961E+02  0.18313399434E+03  0.17201413951E+03 0.  0.
         24    2    5    5    0    0 -0.72735896752E+02  0.43964181226E+01 -0.67546836447E+02  0.12558815817E+03  0.76811269935E+02 0.  0.
          5    1    5    5  501    0  0.46435463929E+02 -0.29467642591E+02  0.16273874486E+02  0.57545836174E+02  0.47000000000E+01 0. -1.
        -11    1    6    6    0    0 -0.15195700724E+02 -0.96140151056E+01  0.15396575659E+02  0.23672624463E+02  0.00000000000E+00 0.  1.
         12    1    6    6    0    0 -0.57540196028E+02  0.14010433228E+02 -0.82943412107E+02  0.10191553370E+03  0.00000000000E+00 0. -1.
         -5    1    3    3    0  503  0.70283119963E+02 -0.16898510626E+02 -0.32770483935E+02  0.79506422573E+02  0.47000000000E+01 0.  1.
         11    1    4    4    0    0 -0.20056335689E+02  0.10251811257E+02  0.10240731857E+02  0.24743258158E+02  0.00000000000E+00 0. -1.
        -12    1    4    4    0    0 -0.23926351451E+02  0.31717923837E+02 -0.11043332267E+03  0.11736275279E+03  0.00000000000E+00 0.  1.
<mgrwt>
<rscale>  2 0.17692125E+03</rscale>
<asrwt>0</asrwt>
<pdfrwt beam="1">  1       21 0.16962338E-01 0.17729324E+03</pdfrwt>
<pdfrwt beam="2">  1       21 0.45306343E-01 0.17729324E+03</pdfrwt>
<totfact> 0.14712056E+05</totfact>
</mgrwt>
</event>
<event>
12    1  0.1039378E-001  0.1791935E+03  0.7546771E-02  0.1169407E+00
         21   -1    0    0  501  502  0.00000000000E+00  0.00000000000E+00  0.10037753413E+03  0.10037753413E+03  0.00000000000E+00 0.  1.
         21   -1    0    0  502  503 -0.00000000000E+00 -0.00000000000E+00 -0.55396720591E+03  0.55396720591E+03  0.00000000000E+00 0.  1.
         -6    2    1    2    0  503  0.31479408686E+02  0.19612163480E+02 -0.44093022398E+03  0.47470466287E+03  0.17189957650E+03 0.  0.
        -24    2    3    3    0    0  0.25363794893E+02 -0.11041322191E+02 -0.43406902939E+03  0.44235960286E+03  0.80627929915E+02 0.  0.
          6    2    1    2  501    0 -0.31479408686E+02 -0.19612163480E+02 -0.12659447797E+02  0.17964007716E+03  0.17531316430E+03 0.  0.
         24    2    5    5    0    0  0.12470932567E+02 -0.64632860073E+02  0.16104354544E+02  0.11030075251E+03  0.87028587304E+02 0.  0.
          5    1    5    5  501    0 -0.43950341253E+02  0.45020696594E+02 -0.28763802340E+02  0.69339324651E+02  0.47000000000E+01 0. -1.
        -13    1    6    6    0    0 -0.33582802894E+02 -0.16057005468E+02  0.21772962824E+02  0.43124169383E+02  0.00000000000E+00 0.  1.
         14    1    6    6    0    0  0.46053735461E+02 -0.48575854605E+02 -0.56686082805E+01  0.67176583125E+02  0.00000000000E+00 0. -1.
         -5    1    3    3    0  503  0.61156137934E+01  0.30653485671E+02 -0.68611945965E+01  0.32345060011E+02  0.47000000000E+01 0.  1.
         13    1    4    4    0    0 -0.28563983602E+02  0.44186735562E+01 -0.13234213798E+03  0.13546168211E+03  0.00000000000E+00 0. -1.
        -14    1    4    4    0    0  0.53927778495E+02 -0.15459995747E+02 -0.30172689140E+03  0.30689792075E+03  0.00000000000E+00 0.  1.
<mgrwt>
<rscale>  2 0.17835300E+03</rscale>
<asrwt>0</asrwt>
<pdfrwt beam="1">  1       21 0.15442697E-01 0.17919346E+03</pdfrwt>
<pdfrwt beam="2">  1       21 0.85225724E-01 0.17919346E+03</pdfrwt>
<totfact> 0.44609380E+04</totfact>
</mgrwt>
</event>
<event>
12    1  0.1039378E-001  0.3447198E+03  0.7546771E-02  0.1064841E+00
         21   -1    0    0  503  502  0.00000000000E+00  0.00000000000E+00  0.22397293029E+03  0.22397293029E+03  0.00000000000E+00 0.  1.
         21   -1    0    0  501  503 -0.00000000000E+00 -0.00000000000E+00 -0.53068129200E+03  0.53068129200E+03  0.00000000000E+00 0.  1.
          6    2    1    2  501    0  0.23445422832E+03 -0.18360744563E+03 -0.16671744323E+03  0.38259352128E+03  0.17292373285E+03 0.  0.
         24    2    3    3    0    0  0.15186212058E+03 -0.12251547424E+03 -0.18068926549E+03  0.27881015534E+03  0.83751698242E+02 0.  0.
         -6    2    1    2    0  502 -0.23445422832E+03  0.18360744563E+03 -0.13999091848E+03  0.37206070101E+03  0.17364109164E+03 0.  0.
        -24    2    5    5    0    0 -0.16949573004E+03  0.57111417707E+02 -0.11446606589E+03  0.22751154092E+03  0.81660911585E+02 0.  0.
          5    1    3    3  501    0  0.82592107746E+02 -0.61091971387E+02  0.13971822265E+02  0.10378336595E+03  0.47000000000E+01 0. -1.
        -11    1    4    4    0    0  0.10577945200E+03 -0.12637338891E+03 -0.12775090981E+03  0.20851815472E+03  0.00000000000E+00 0.  1.
         12    1    4    4    0    0  0.46082668572E+02  0.38579146616E+01 -0.52938355685E+02  0.70292000619E+02  0.00000000000E+00 0. -1.
         -5    1    5    5    0  502 -0.64958498286E+02  0.12649602792E+03 -0.25524852594E+02  0.14454916008E+03  0.47000000000E+01 0.  1.
         13    1    6    6    0    0 -0.13472326913E+03  0.25115532771E+02 -0.46470199287E+02  0.14470877186E+03  0.00000000000E+00 0. -1.
        -14    1    6    6    0    0 -0.34772460910E+02  0.31995884936E+02 -0.67995866600E+02  0.82802769068E+02  0.00000000000E+00 0.  1.
<mgrwt>
<rscale>  2 0.34462952E+03</rscale>
<asrwt>0</asrwt>
<pdfrwt beam="1">  1       21 0.34457374E-01 0.34471975E+03</pdfrwt>
<pdfrwt beam="2">  1       21 0.81643276E-01 0.34471975E+03</pdfrwt>
<totfact> 0.98433255E+03</totfact>
</mgrwt>
</event>
<event>
12    1  0.1039378E-001  0.1956683E+03  0.7546771E-02  0.1153601E+00
         21   -1    0    0  501  502  0.00000000000E+00  0.00000000000E+00  0.17339634737E+04  0.17339634737E+04  0.00000000000E+00 0.  1.
         21   -1    0    0  502  503 -0.00000000000E+00 -0.00000000000E+00 -0.23048208964E+02  0.23048208964E+02  0.00000000000E+00 0. -1.
         -6    2    1    2    0  503 -0.94532074983E+02 -0.86246723689E+01  0.10413247470E+04  0.10594175634E+04  0.17028695432E+03 0.  0.
        -24    2    3    3    0    0  0.91560712245E+01 -0.11557800344E+01  0.57824715786E+03  0.58479143733E+03  0.86752983395E+02 0.  0.
          6    2    1    2  501    0  0.94532074983E+02  0.86246723689E+01  0.66959051775E+03  0.69759411925E+03  0.17110054230E+03 0.  0.
         24    2    5    5    0    0  0.21716933442E+02 -0.52315674950E+02  0.40259078746E+03  0.41417443619E+03  0.79073171202E+02 0.  0.
          5    1    5    5  501    0  0.72815141541E+02  0.60940347319E+02  0.26699973029E+03  0.28341968306E+03  0.47000000000E+01 0. -1.
        -11    1    6    6    0    0 -0.21621777851E+02 -0.22083976936E+01  0.19647301088E+03  0.19767150099E+03  0.00000000000E+00 0.  1.
         12    1    6    6    0    0  0.43338711293E+02 -0.50107277257E+02  0.20611777658E+03  0.21650293521E+03  0.00000000000E+00 0. -1.
         -5    1    3    3    0  503 -0.10368814621E+03 -0.74688923345E+01  0.46307758915E+03  0.47462612612E+03  0.47000000000E+01 0.  1.
         11    1    4    4    0    0  0.48886528696E+01 -0.22386320678E+02  0.39919455276E+02  0.46028352022E+02  0.00000000000E+00 0. -1.
        -12    1    4    4    0    0  0.42674183549E+01  0.21230540643E+02  0.53832770259E+03  0.53876308530E+03  0.00000000000E+00 0.  1.
<mgrwt>
<rscale>  2 0.19549032E+03</rscale>
<asrwt>0</asrwt>
<pdfrwt beam="1">  1       21 0.26676351E+00 0.19566833E+03</pdfrwt>
<pdfrwt beam="2">  1       21 0.35458797E-02 0.19566833E+03</pdfrwt>
<totfact> 0.25373390E+04</totfact>
</mgrwt>
</event>
<event>
12    1  0.1039378E-001  0.1744839E+03  0.7546771E-02  0.1173793E+00
         21   -1    0    0  503  502  0.00000000000E+00  0.00000000000E+00  0.28020368363E+03  0.28020368363E+03  0.00000000000E+00 0. -1.
         21   -1    0    0  501  503 -0.00000000000E+00 -0.00000000000E+00 -0.32291442123E+03  0.32291442123E+03  0.00000000000E+00 0. -1.
          6    2    1    2  501    0  0.54391170415E+01 -0.10777860071E+02 -0.26771104752E+03  0.31839056547E+03  0.17192324146E+03 0.  0.
         24    2    3    3    0    0  0.63582435393E+02 -0.32858427814E+02 -0.19444437483E+03  0.22217054537E+03  0.80179386115E+02 0.  0.
         -6    2    1    2    0  502 -0.54391170415E+01  0.10777860071E+02  0.22500030992E+03  0.28472753939E+03  0.17406575182E+03 0.  0.
        -24    2    5    5    0    0 -0.27223769967E+02 -0.38596779913E+02  0.61052803424E+02  0.11206225317E+03  0.81238283519E+02 0.  0.
          5    1    3    3  501    0 -0.58143318352E+02  0.22080567743E+02 -0.73266672687E+02  0.96220020097E+02  0.47000000000E+01 0. -1.
        -13    1    4    4    0    0  0.44041343229E+02  0.15985356240E+02 -0.50369182767E+02  0.68791177488E+02  0.00000000000E+00 0.  1.
         14    1    4    4    0    0  0.19541092164E+02 -0.48843784054E+02 -0.14407519207E+03  0.15337936789E+03  0.00000000000E+00 0. -1.
         -5    1    5    5    0  502  0.21784652926E+02  0.49374639984E+02  0.16394750650E+03  0.17266528621E+03  0.47000000000E+01 0.  1.
         13    1    6    6    0    0 -0.47059689303E+02 -0.77322552398E+00  0.48415841804E+02  0.67522633040E+02  0.00000000000E+00 0. -1.
        -14    1    6    6    0    0  0.19835919336E+02 -0.37823554389E+02  0.12636961620E+02  0.44539620132E+02  0.00000000000E+00 0.  1.
<mgrwt>
<rscale>  2 0.17394710E+03</rscale>
<asrwt>0</asrwt>
<pdfrwt beam="1">  1       21 0.43108259E-01 0.17448390E+03</pdfrwt>
<pdfrwt beam="2">  1       21 0.49679142E-01 0.17448390E+03</pdfrwt>
<totfact> 0.20202122E+04</totfact>
</mgrwt>
</event>
<event>
12    1  0.1039378E-001  0.2834115E+03  0.7546771E-02  0.1093855E+00
         21   -1    0    0  503  502  0.00000000000E+00  0.00000000000E+00  0.32415222337E+04  0.32415222337E+04  0.00000000000E+00 0. -1.
         21   -1    0    0  501  503 -0.00000000000E+00 -0.00000000000E+00 -0.11638183897E+03  0.11638183897E+03  0.00000000000E+00 0. -1.
          6    2    1    2  501    0  0.18811090292E+03  0.12211196803E+03  0.73024424685E+02  0.29266817965E+03  0.17327738527E+03 0.  0.
         24    2    3    3    0    0  0.67565993313E+02  0.10651747762E+03  0.83396876197E+00  0.15121919489E+03  0.83399118157E+02 0.  0.
         -6    2    1    2    0  502 -0.18811090292E+03 -0.12211196803E+03  0.30521159700E+04  0.30652358930E+04  0.17309575588E+03 0.  0.
        -24    2    5    5    0    0 -0.18919856557E+03 -0.77587474000E+02  0.19625217020E+04  0.19747216232E+04  0.78855216876E+02 0.  0.
          5    1    3    3  501    0  0.12054490961E+03  0.15594490416E+02  0.72190455923E+02  0.14144898476E+03  0.47000000000E+01 0. -1.
        -11    1    4    4    0    0  0.54510216486E+02  0.39761913556E+02  0.33988921928E+02  0.75548794066E+02  0.00000000000E+00 0.  1.
         12    1    4    4    0    0  0.13055776827E+02  0.66755564060E+02 -0.33154953166E+02  0.75670400825E+02  0.00000000000E+00 0. -1.
         -5    1    5    5    0  502  0.10876626511E+01 -0.44524494032E+02  0.10895942681E+04  0.10905142698E+04  0.47000000000E+01 0.  1.
         11    1    6    6    0    0 -0.12984629909E+03 -0.28937544288E+02  0.94612894632E+03  0.95543572569E+03  0.00000000000E+00 0. -1.
        -12    1    6    6    0    0 -0.59352266481E+02 -0.48649929712E+02  0.10163927557E+04  0.10192858976E+04  0.00000000000E+00 0.  1.
<mgrwt>
<rscale>  2 0.28338378E+03</rscale>
<asrwt>0</asrwt>
<pdfrwt beam="1">  1       21 0.49869566E+00 0.28341153E+03</pdfrwt>
<pdfrwt beam="2">  1       21 0.17904901E-01 0.28341153E+03</pdfrwt>
<totfact> 0.47498729E+01</totfact>
</mgrwt>
</event>
<event>
12    1  0.1039378E-001  0.1943098E+03  0.7546771E-02  0.1154866E+00
         21   -1    0    0  501  502  0.00000000000E+00  0.00000000000E+00  0.11988959847E+04  0.11988959847E+04  0.00000000000E+00 0. -1.
         21   -1    0    0  502  503 -0.00000000000E+00 -0.00000000000E+00 -0.41116852683E+03  0.41116852683E+03  0.00000000000E+00 0. -1.
         -6    2    1    2    0  503 -0.82164627040E+02 -0.33790523431E+02 -0.37981823472E+03  0.42663590103E+03  0.17281051823E+03 0.  0.
        -24    2    3    3    0    0 -0.79254111330E+02 -0.76861132989E+02 -0.20407509755E+03  0.24560748123E+03  0.80545275915E+02 0.  0.
          6    2    1    2  501    0  0.82164627040E+02  0.33790523431E+02  0.11675456926E+04  0.11834286105E+04  0.17160275764E+03 0.  0.
         24    2    5    5    0    0  0.38149923255E+02  0.38405779028E+02  0.10852882088E+04  0.10899033285E+04  0.84311024136E+02 0.  0.
          5    1    5    5  501    0  0.44014703784E+02 -0.46152555976E+01  0.82257483808E+02  0.93525282014E+02  0.47000000000E+01 0. -1.
        -11    1    6    6    0    0  0.12525305564E+02  0.39027128858E+02  0.19571429389E+03  0.19996020829E+03  0.00000000000E+00 0.  1.
         12    1    6    6    0    0  0.25624617691E+02 -0.62134982945E+00  0.88957391493E+03  0.88994312022E+03  0.00000000000E+00 0. -1.
         -5    1    3    3    0  503 -0.29105157095E+01  0.43070609558E+02 -0.17574313718E+03  0.18102841980E+03  0.47000000000E+01 0.  1.
         11    1    4    4    0    0 -0.68605829070E+02 -0.70207379205E+02 -0.20993511997E+03  0.23175113910E+03  0.00000000000E+00 0. -1.
        -12    1    4    4    0    0 -0.10648282260E+02 -0.66537537842E+01  0.58600224240E+01  0.13856342133E+02  0.00000000000E+00 0.  1.
<mgrwt>
<rscale>  2 0.19404091E+03</rscale>
<asrwt>0</asrwt>
<pdfrwt beam="1">  1       21 0.18444553E+00 0.19430981E+03</pdfrwt>
<pdfrwt beam="2">  1       21 0.63256697E-01 0.19430981E+03</pdfrwt>
<totfact> 0.39180969E+02</totfact>
</mgrwt>
</event>
<event>
12    1  0.1039378E-001  0.2356067E+03  0.7546771E-02  0.1123085E+00
         21   -1    0    0  503  502  0.00000000000E+00  0.00000000000E+00  0.46794899563E+02  0.46794899563E+02  0.00000000000E+00 0.  1.
         21   -1    0    0  501  503 -0.00000000000E+00 -0.00000000000E+00 -0.15986225671E+04  0.15986225671E+04  0.00000000000E+00 0.  1.
          6    2    1    2  501    0  0.15693649128E+03  0.25917491019E+02 -0.11962923308E+04  0.12189014642E+04  0.17118603933E+03 0.  0.
         24    2    3    3    0    0  0.16857310295E+03 -0.13596252430E+02 -0.86980879031E+03  0.88979610286E+03  0.81043345460E+02 0.  0.
         -6    2    1    2    0  502 -0.15693649128E+03 -0.25917491019E+02 -0.35553533669E+03  0.42651600242E+03  0.17380951080E+03 0.  0.
        -24    2    5    5    0    0 -0.13220058928E+03 -0.48152248996E+02 -0.15934203177E+03  0.22746788711E+03  0.80969881370E+02 0.  0.
          5    1    3    3  501    0 -0.11636611673E+02  0.39513743450E+02 -0.32648354050E+03  0.32910536135E+03  0.47000000000E+01 0. -1.
        -13    1    4    4    0    0  0.13532070213E+03 -0.36839209787E+02 -0.75775147713E+03  0.77062060763E+03  0.00000000000E+00 0.  1.
         14    1    4    4    0    0  0.33252400829E+02  0.23242957356E+02 -0.11205731318E+03  0.11917549523E+03  0.00000000000E+00 0. -1.
         -5    1    5    5    0  502 -0.24735901998E+02  0.22234757977E+02 -0.19619330492E+03  0.19904811531E+03  0.47000000000E+01 0.  1.
         13    1    6    6    0    0  0.88097627862E+01 -0.76912938078E+00 -0.26824001970E+02  0.28244124381E+02  0.00000000000E+00 0. -1.
        -14    1    6    6    0    0 -0.14101035207E+03 -0.47383119615E+02 -0.13251802980E+03  0.19922376273E+03  0.00000000000E+00 0.  1.
<mgrwt>
<rscale>  2 0.23512307E+03</rscale>
<asrwt>0</asrwt>
<pdfrwt beam="1">  1       21 0.71992157E-02 0.23560672E+03</pdfrwt>
<pdfrwt beam="2">  1       21 0.24594192E+00 0.23560672E+03</pdfrwt>
<totfact> 0.97501475E+03</totfact>
</mgrwt>
</event>
<event>
11    1  0.1039378E-001  0.1889410E+03  0.7546771E-02  0.1159603E+00
         21   -1    0    0  501  502  0.00000000000E+00  0.00000000000E+00  0.36036739545E+03  0.36036739545E+03  0.00000000000E+00 0. -1.
         21   -1    0    0  502  503 -0.00000000000E+00 -0.00000000000E+00 -0.19856132053E+03  0.19856132053E+03  0.00000000000E+00 0. -1.
         -6    2    1    2    0  503 -0.21176159909E+02  0.71657093172E+02 -0.11742994403E+03  0.22177671205E+03  0.17266137235E+03 0.  0.
        -24    2    3    3    0    0  0.51429104186E+02  0.61274274108E+02 -0.50596899656E+02  0.12243853647E+03  0.77663759465E+02 0.  0.
          6    2    1    2  501    0  0.21176159909E+02 -0.71657093172E+02  0.27923601896E+03  0.33715200393E+03  0.17353832637E+03 0.  0.
          5    1    5    5  501    0  0.55191051078E+02  0.24225361656E+02  0.17003659924E+03  0.18046455427E+03  0.47000000000E+01 0. -1.
        -13    1    5    5    0    0  0.26508723723E+01 -0.14403256556E+02 -0.11622295427E+01  0.14691211701E+02  0.00000000000E+00 0.  1.
         14    1    5    5    0    0 -0.36665763541E+02 -0.81479198272E+02  0.11036164927E+03  0.14199623796E+03  0.00000000000E+00 0. -1.
         -5    1    3    3    0  503 -0.72605264095E+02  0.10382819064E+02 -0.66833044378E+02  0.99338175576E+02  0.47000000000E+01 0.  1.
         13    1    4    4    0    0  0.55019433404E+02  0.61478386860E+02 -0.66604174596E+02  0.10603228837E+03  0.00000000000E+00 0. -1.
        -14    1    4    4    0    0 -0.35903292176E+01 -0.20411275252E+00  0.16007274940E+02  0.16406248106E+02  0.00000000000E+00 0.  1.
<mgrwt>
<rscale>  2 0.18873944E+03</rscale>
<asrwt>0</asrwt>
<pdfrwt beam="1">  1       21 0.55441138E-01 0.18894105E+03</pdfrwt>
<pdfrwt beam="2">  1       21 0.30547896E-01 0.18894105E+03</pdfrwt>
<totfact> 0.31610004E+04</totfact>
</mgrwt>
</event>
<event>
12    1  0.1039378E-001  0.1916045E+03  0.7546771E-02  0.1157563E+00
         21   -1    0    0  503  502  0.00000000000E+00  0.00000000000E+00  0.96838001843E+02  0.96838001843E+02  0.00000000000E+00 0. -1.
         21   -1    0    0  501  503 -0.00000000000E+00 -0.00000000000E+00 -0.47957937846E+03  0.47957937846E+03  0.00000000000E+00 0. -1.
          6    2    1    2  501    0 -0.56631223971E+02  0.50711968879E+02 -0.32542323988E+03  0.37642324437E+03  0.17324945752E+03 0.  0.
         24    2    3    3    0    0 -0.10189272841E+03  0.43128012528E+02 -0.27459833634E+03  0.30778374410E+03  0.84169075323E+02 0.  0.
         -6    2    1    2    0  502  0.56631223971E+02 -0.50711968879E+02 -0.57318136740E+02  0.19999413594E+03  0.17587918095E+03 0.  0.
        -24    2    5    5    0    0  0.55379544292E+02 -0.55509077965E+02 -0.10423145602E+03  0.15258603027E+03  0.79184269562E+02 0.  0.
          5    1    3    3  501    0  0.45261504441E+02  0.75839563505E+01 -0.50824903539E+02  0.68639500275E+02  0.47000000000E+01 0. -1.
        -11    1    4    4    0    0 -0.64181906926E+02 -0.17169720044E+02 -0.15497416653E+03  0.16861526845E+03  0.00000000000E+00 0.  1.
         12    1    4    4    0    0 -0.37710821486E+02  0.60297732572E+02 -0.11962416981E+03  0.13916847564E+03  0.00000000000E+00 0. -1.
         -5    1    5    5    0  502  0.12516796788E+01  0.47971090860E+01  0.46913319278E+02  0.47408105671E+02  0.47000000000E+01 0.  1.
         11    1    6    6    0    0 -0.10955180605E+01 -0.20005845160E+02  0.83654910365E+01  0.21712103552E+02  0.00000000000E+00 0. -1.
        -12    1    6    6    0    0  0.56475062353E+02 -0.35503232805E+02 -0.11259694705E+03  0.13087392671E+03  0.00000000000E+00 0.  1.
<mgrwt>
<rscale>  2 0.19099888E+03</rscale>
<asrwt>0</asrwt>
<pdfrwt beam="1">  1       21 0.14898154E-01 0.19160450E+03</pdfrwt>
<pdfrwt beam="2">  1       21 0.73781442E-01 0.19160450E+03</pdfrwt>
<totfact> 0.65530334E+04</totfact>
</mgrwt>
</event>
<event>
12    1  0.1039378E-001  0.1869723E+03  0.7546771E-02  0.1162011E+00
         21   -1    0    0  501  502  0.00000000000E+00  0.00000000000E+00  0.10023774293E+04  0.10023774293E+04  0.00000000000E+00 0. -1.
         21   -1    0    0  502  503 -0.00000000000E+00 -0.00000000000E+00 -0.60707938083E+02  0.60707938083E+02  0.00000000000E+00 0. -1.
         -6    2    1    2    0  503  0.66510836126E+02 -0.24621002157E+02  0.12233627998E+03  0.22343861447E+03  0.17299931782E+03 0.  0.
        -24    2    3    3    0    0  0.10017064185E+03 -0.19694599968E+02  0.40750897672E+02  0.13492016122E+03  0.78235410686E+02 0.  0.
          6    2    1    2  501    0 -0.66510836126E+02  0.24621002157E+02  0.81933321126E+03  0.83964675293E+03  0.16932180479E+03 0.  0.
         24    2    5    5    0    0  0.14405353335E+01 -0.26429954198E+02  0.47071691242E+03  0.48078883838E+03  0.94249020402E+02 0.  0.
          5    1    5    5  501    0 -0.67951371459E+02  0.51050956355E+02  0.34861629883E+03  0.35885791456E+03  0.47000000000E+01 0. -1.
        -13    1    6    6    0    0 -0.43816877185E+01 -0.28027012018E+02  0.35099869473E+02  0.45129961521E+02  0.00000000000E+00 0.  1.
         14    1    6    6    0    0  0.58222230520E+01  0.15970578199E+01  0.43561704295E+03  0.43565887686E+03  0.00000000000E+00 0. -1.
         -5    1    3    3    0  503 -0.33659805723E+02 -0.49264021888E+01  0.81585382307E+02  0.88518453252E+02  0.47000000000E+01 0.  1.
         13    1    4    4    0    0  0.10548306307E+02  0.15393137432E+02 -0.14778603807E+02  0.23803835330E+02  0.00000000000E+00 0. -1.
        -14    1    4    4    0    0  0.89622335542E+02 -0.35087737400E+02  0.55529501480E+02  0.11111632589E+03  0.00000000000E+00 0.  1.
<mgrwt>
<rscale>  2 0.18611713E+03</rscale>
<asrwt>0</asrwt>
<pdfrwt beam="1">  1       21 0.15421190E+00 0.18697232E+03</pdfrwt>
<pdfrwt beam="2">  1       21 0.93396835E-02 0.18697232E+03</pdfrwt>
<totfact> 0.25521171E+04</totfact>
</mgrwt>
</event>
<event>
12    1  0.1039378E-001  0.2102637E+03  0.7546771E-02  0.1142063E+00
         21   -1    0    0  501  502  0.00000000000E+00  0.00000000000E+00  0.12001969128E+04  0.12001969128E+04  0.00000000000E+00 0.  1.
         21   -1    0    0  502  503 -0.00000000000E+00 -0.00000000000E+00 -0.86970449968E+02  0.86970449968E+02  0.00000000000E+00 0. -1.
         -6    2    1    2    0  503  0.87320609041E+02  0.81586778505E+02  0.66952631417E+02  0.22066599742E+03  0.17300155021E+03 0.  0.
        -24    2    3    3    0    0 -0.11571888847E+02  0.28317875188E+02 -0.52184218039E+01  0.87069391471E+02  0.81351314300E+02 0.  0.
          6    2    1    2  501    0 -0.87320609041E+02 -0.81586778505E+02  0.10462738314E+04  0.10665013654E+04  0.16868592351E+03 0.  0.
         24    2    5    5    0    0 -0.10733253196E+03 -0.10444879210E+03  0.96125224142E+03  0.97609168949E+03  0.79493974943E+02 0.  0.
          5    1    5    5  501    0  0.20011922917E+02  0.22862013596E+02  0.85021589997E+02  0.90409675866E+02  0.47000000000E+01 0. -1.
        -13    1    6    6    0    0 -0.38357393700E+02  0.34834859011E+01  0.30810727633E+03  0.31050526252E+03  0.00000000000E+00 0.  1.
         14    1    6    6    0    0 -0.68975138258E+02 -0.10793227800E+03  0.65314496510E+03  0.66558642697E+03  0.00000000000E+00 0. -1.
         -5    1    3    3    0  503  0.98892497888E+02  0.53268903317E+02  0.72171053221E+02  0.13359660595E+03  0.47000000000E+01 0.  1.
         13    1    4    4    0    0 -0.13998804159E+02  0.55325111472E+02 -0.13639187768E+02  0.58675905790E+02  0.00000000000E+00 0. -1.
        -14    1    4    4    0    0  0.24269153122E+01 -0.27007236285E+02  0.84207659644E+01  0.28393485681E+02  0.00000000000E+00 0.  1.
<mgrwt>
<rscale>  2 0.20937401E+03</rscale>
<asrwt>0</asrwt>
<pdfrwt beam="1">  1       21 0.18464567E+00 0.21026371E+03</pdfrwt>
<pdfrwt beam="2">  1       21 0.13380070E-01 0.21026371E+03</pdfrwt>
<totfact> 0.80516422E+03</totfact>
</mgrwt>
</event>
<event>
12    1  0.1039378E-001  0.1809241E+03  0.7546771E-02  0.1167296E+00
         21   -1    0    0  503  502  0.00000000000E+00  0.00000000000E+00  0.68372528147E+02  0.68372528147E+02  0.00000000000E+00 0. -1.
         21   -1    0    0  501  503 -0.00000000000E+00 -0.00000000000E+00 -0.47456461517E+03  0.47456461517E+03  0.00000000000E+00 0. -1.
          6    2    1    2  501    0  0.17757296074E+02 -0.49904479330E+02 -0.20544077322E+03  0.27375068686E+03  0.17299638329E+03 0.  0.
         24    2    3    3    0    0 -0.34856919644E+01 -0.46926325061E+02 -0.22646254829E+03  0.24335103274E+03  0.75632065471E+02 0.  0.
         -6    2    1    2    0  502 -0.17757296074E+02  0.49904479330E+02 -0.20075131380E+03  0.26918645646E+03  0.17133149077E+03 0.  0.
        -24    2    5    5    0    0  0.22463004851E+02 -0.23481464899E+02 -0.14448992214E+03  0.16823793687E+03  0.79816665058E+02 0.  0.
          5    1    3    3  501    0  0.21242988038E+02 -0.29781542689E+01  0.21021775062E+02  0.30399654117E+02  0.47000000000E+01 0. -1.
        -13    1    4    4    0    0 -0.31617239269E+02 -0.46046197036E+02 -0.18492175640E+03  0.19317338862E+03  0.00000000000E+00 0.  1.
         14    1    4    4    0    0  0.28131547305E+02 -0.88012802525E+00 -0.41540791890E+02  0.50177644125E+02  0.00000000000E+00 0. -1.
         -5    1    5    5    0  502 -0.40220300925E+02  0.73385944229E+02 -0.56261391667E+02  0.10094851960E+03  0.47000000000E+01 0.  1.
         13    1    6    6    0    0 -0.61894648313E+01  0.84884266927E+01 -0.11653577723E+03  0.11700833405E+03  0.00000000000E+00 0. -1.
        -14    1    6    6    0    0  0.28652469682E+02 -0.31969891592E+02 -0.27954144910E+02  0.51229602818E+02  0.00000000000E+00 0.  1.
<mgrwt>
<rscale>  2 0.18052495E+03</rscale>
<asrwt>0</asrwt>
<pdfrwt beam="1">  1       21 0.10518850E-01 0.18092409E+03</pdfrwt>
<pdfrwt beam="2">  1       21 0.73009941E-01 0.18092409E+03</pdfrwt>
<totfact> 0.12577869E+05</totfact>
</mgrwt>
</event>
<event>
12    1  0.1039378E-001  0.1837907E+03  0.7546771E-02  0.1164367E+00
         21   -1    0    0  503  502  0.00000000000E+00  0.00000000000E+00  0.13650328478E+03  0.13650328478E+03  0.00000000000E+00 0. -1.
         21   -1    0    0  501  503 -0.00000000000E+00 -0.00000000000E+00 -0.34752684294E+03  0.34752684294E+03  0.00000000000E+00 0. -1.
          6    2    1    2  501    0 -0.43614841491E+02 -0.40324460665E+02 -0.23621132826E+03  0.29929049968E+03  0.17392726949E+03 0.  0.
         24    2    3    3    0    0  0.31456820668E+02  0.16018738302E+02 -0.86732107399E+02  0.12272199173E+03  0.79322741107E+02 0.  0.
         -6    2    1    2    0  502  0.43614841491E+02  0.40324460665E+02  0.25187770098E+02  0.18473962804E+03  0.17310687415E+03 0.  0.
        -24    2    5    5    0    0 -0.41868436119E+02  0.18408796333E+02  0.47932420327E+00  0.92977520433E+02  0.80948995230E+02 0.  0.
          5    1    3    3  501    0 -0.75071662160E+02 -0.56343198967E+02 -0.14947922086E+03  0.17656850795E+03  0.47000000000E+01 0. -1.
        -13    1    4    4    0    0 -0.25101905645E+02  0.14371112412E+01 -0.42789746903E+02  0.49629964696E+02  0.00000000000E+00 0.  1.
         14    1    4    4    0    0  0.56558726313E+02  0.14581627060E+02 -0.43942360496E+02  0.73092027033E+02  0.00000000000E+00 0. -1.
         -5    1    5    5    0  502  0.85483277610E+02  0.21915664332E+02  0.24708445894E+02  0.91762107607E+02  0.47000000000E+01 0.  1.
         13    1    6    6    0    0 -0.26981659632E+02 -0.63207519437E+01  0.37126094272E+02  0.46328271471E+02  0.00000000000E+00 0. -1.
        -14    1    6    6    0    0 -0.14886776487E+02  0.24729548277E+02 -0.36646770069E+02  0.46649248961E+02  0.00000000000E+00 0.  1.
<mgrwt>
<rscale>  2 0.18359632E+03</rscale>
<asrwt>0</asrwt>
<pdfrwt beam="1">  1       21 0.21000505E-01 0.18379067E+03</pdfrwt>
<pdfrwt beam="2">  1       21 0.53465668E-01 0.18379067E+03</pdfrwt>
<totfact> 0.70019549E+04</totfact>
</mgrwt>
</event>
<event>
12    1  0.1039378E-001  0.1835636E+03  0.7546771E-02  0.1166233E+00
         21   -1    0    0  501  502  0.00000000000E+00  0.00000000000E+00  0.83444097417E+02  0.83444097417E+02  0.00000000000E+00 0.  1.
         21   -1    0    0  502  503 -0.00000000000E+00 -0.00000000000E+00 -0.10854415864E+04  0.10854415864E+04  0.00000000000E+00 0.  1.
         -6    2    1    2    0  503  0.19273718000E+02  0.17352869571E+02 -0.97347534043E+03  0.99063101892E+03  0.18172225765E+03 0.  0.
        -24    2    3    3    0    0  0.44859402133E+02  0.14615939701E+02 -0.23064165009E+03  0.24733693208E+03  0.75855095823E+02 0.  0.
          6    2    1    2  501    0 -0.19273718000E+02 -0.17352869571E+02 -0.28522148509E+02  0.17825466486E+03  0.17403624421E+03 0.  0.
         24    2    5    5    0    0 -0.67240202426E+02 -0.20127946921E+01  0.20065223099E+02  0.10811962222E+03  0.82231036518E+02 0.  0.
          5    1    5    5  501    0  0.47966484426E+02 -0.15340074879E+02 -0.48587371609E+02  0.70135042635E+02  0.47000000000E+01 0. -1.
        -13    1    6    6    0    0  0.15295283014E+02 -0.15603267640E+02  0.94357952277E+01  0.23800039393E+02  0.00000000000E+00 0.  1.
         14    1    6    6    0    0 -0.82535485440E+02  0.13590472947E+02  0.10629427872E+02  0.84319582830E+02  0.00000000000E+00 0. -1.
         -5    1    3    3    0  503 -0.25585684133E+02  0.27369298706E+01 -0.74283369034E+03  0.74329408684E+03  0.47000000000E+01 0.  1.
         13    1    4    4    0    0  0.20333170320E+02 -0.25674207966E+02 -0.44140098276E+02  0.54963178999E+02  0.00000000000E+00 0. -1.
        -14    1    4    4    0    0  0.24526231813E+02  0.40290147666E+02 -0.18650155181E+03  0.19237375308E+03  0.00000000000E+00 0.  1.
<mgrwt>
<rscale>  2 0.18163188E+03</rscale>
<asrwt>0</asrwt>
<pdfrwt beam="1">  1       21 0.12837554E-01 0.18356355E+03</pdfrwt>
<pdfrwt beam="2">  1       21 0.16699101E+00 0.18356355E+03</pdfrwt>
<totfact> 0.11733372E+04</totfact>
</mgrwt>
</event>
<event>
12    1  0.1039378E-001  0.2034075E+03  0.7546771E-02  0.1148415E+00
         21   -1    0    0  503  502  0.00000000000E+00  0.00000000000E+00  0.35137436033E+03  0.35137436033E+03  0.00000000000E+00 0.  1.
         21   -1    0    0  501  503 -0.00000000000E+00 -0.00000000000E+00 -0.13831824363E+03  0.13831824363E+03  0.00000000000E+00 0.  1.
          6    2    1    2  501    0 -0.90961075232E+02 -0.24594307567E+02  0.14684306171E+01  0.19618971002E+03  0.17207396333E+03 0.  0.
         24    2    3    3    0    0 -0.51108147070E+02 -0.81829745124E+02 -0.26195201730E+01  0.12616862364E+03  0.81261982637E+02 0.  0.
         -6    2    1    2    0  502  0.90961075232E+02  0.24594307567E+02  0.21158768608E+03  0.29350289395E+03  0.18026592213E+03 0.  0.
        -24    2    5    5    0    0  0.10333357054E+03 -0.41717581172E+02  0.12661183900E+03  0.18490579538E+03  0.75772105765E+02 0.  0.
          5    1    3    3  501    0 -0.39852928162E+02  0.57235437556E+02  0.40879507901E+01  0.70021086374E+02  0.47000000000E+01 0. -1.
        -11    1    4    4    0    0 -0.29497711259E+02  0.54093560343E+00  0.22812687715E+02  0.37293783686E+02  0.00000000000E+00 0.  1.
         12    1    4    4    0    0 -0.21610435811E+02 -0.82370680727E+02 -0.25432207888E+02  0.88874839957E+02  0.00000000000E+00 0. -1.
         -5    1    5    5    0  502 -0.12372495312E+02  0.66311888740E+02  0.84975847087E+02  0.10859709856E+03  0.47000000000E+01 0.  1.
         11    1    6    6    0    0  0.42233963066E+02  0.17287211956E+02  0.23552295350E+02  0.51354317732E+02  0.00000000000E+00 0. -1.
        -12    1    6    6    0    0  0.61099607477E+02 -0.59004793129E+02  0.10305954365E+03  0.13355147765E+03  0.00000000000E+00 0.  1.
<mgrwt>
<rscale>  2 0.20157710E+03</rscale>
<asrwt>0</asrwt>
<pdfrwt beam="1">  1       21 0.54057594E-01 0.20340747E+03</pdfrwt>
<pdfrwt beam="2">  1       21 0.21279730E-01 0.20340747E+03</pdfrwt>
<totfact> 0.66161021E+04</totfact>
</mgrwt>
</event>
<event>
12    1  0.1039378E-001  0.1934016E+03  0.7546771E-02  0.1155875E+00
         21   -1    0    0  501  502  0.00000000000E+00  0.00000000000E+00  0.18140147701E+03  0.18140147701E+03  0.00000000000E+00 0.  1.
         21   -1    0    0  502  503 -0.00000000000E+00 -0.00000000000E+00 -0.21264101903E+03  0.21264101903E+03  0.00000000000E+00 0. -1.
         -6    2    1    2    0  503  0.43725231627E+02  0.66826773449E+02 -0.55296200597E+02  0.20115128785E+03  0.17614328619E+03 0.  0.
        -24    2    3    3    0    0  0.41484647472E+01 -0.84377925733E+01 -0.79252760695E+02  0.11268048958E+03  0.79545499872E+02 0.  0.
          6    2    1    2  501    0 -0.43725231627E+02 -0.66826773449E+02  0.24056658577E+02  0.19289120819E+03  0.17392694399E+03 0.  0.
         24    2    5    5    0    0 -0.83088919762E+02 -0.99272177608E+00  0.19345563466E+02  0.11589830774E+03  0.78443692081E+02 0.  0.
          5    1    5    5  501    0  0.39363688135E+02 -0.65834051672E+02  0.47110951111E+01  0.76992900454E+02  0.47000000000E+01 0. -1.
        -11    1    6    6    0    0 -0.87456486095E+01 -0.23996854286E+02  0.27643185613E+02  0.37636167394E+02  0.00000000000E+00 0.  1.
         12    1    6    6    0    0 -0.74343271152E+02  0.23004132510E+02 -0.82976221471E+01  0.78262140345E+02  0.00000000000E+00 0. -1.
         -5    1    3    3    0  503  0.39576766880E+02  0.75264566022E+02  0.23956560098E+02  0.88470798272E+02  0.47000000000E+01 0.  1.
         13    1    4    4    0    0 -0.23881960152E+02 -0.34144665833E+02 -0.35812082036E+02  0.54942801578E+02  0.00000000000E+00 0. -1.
        -14    1    4    4    0    0  0.28030424900E+02  0.25706873259E+02 -0.43440678659E+02  0.57737687997E+02  0.00000000000E+00 0.  1.
<mgrwt>
<rscale>  2 0.19289550E+03</rscale>
<asrwt>0</asrwt>
<pdfrwt beam="1">  1       21 0.27907920E-01 0.19340158E+03</pdfrwt>
<pdfrwt beam="2">  1       21 0.32714003E-01 0.19340158E+03</pdfrwt>
<totfact> 0.11024868E+05</totfact>
</mgrwt>
</event>
<event>
12    1  0.1039378E-001  0.2101630E+03  0.7546771E-02  0.1142397E+00
         21   -1    0    0  503  502  0.00000000000E+00  0.00000000000E+00  0.10809885793E+03  0.10809885793E+03  0.00000000000E+00 0.  1.
         21   -1    0    0  501  503 -0.00000000000E+00 -0.00000000000E+00 -0.57035186401E+03  0.57035186401E+03  0.00000000000E+00 0. -1.
          6    2    1    2  501    0 -0.10519056428E+03  0.54952997880E+02 -0.41874327244E+03  0.46852366959E+03  0.17344628554E+03 0.  0.
         24    2    3    3    0    0 -0.14002562907E+02  0.11469966015E+02 -0.81113868640E+02  0.11607263758E+03  0.81029412077E+02 0.  0.
         -6    2    1    2    0  502  0.10519056428E+03 -0.54952997880E+02 -0.43509733638E+02  0.20992705235E+03  0.16760484359E+03 0.  0.
        -24    2    5    5    0    0  0.10297529119E+03 -0.15822917859E+02 -0.82465733772E+02  0.15446778312E+03  0.78774510144E+02 0.  0.
          5    1    3    3  501    0 -0.91188001377E+02  0.43483031865E+02 -0.33762940380E+03  0.35245103201E+03  0.47000000000E+01 0. -1.
        -11    1    4    4    0    0  0.19541109745E+01  0.39324273036E+02 -0.73033006086E+02  0.82970096887E+02  0.00000000000E+00 0.  1.
         12    1    4    4    0    0 -0.15956673881E+02 -0.27854307021E+02 -0.80808625543E+01  0.33102540697E+02  0.00000000000E+00 0. -1.
         -5    1    5    5    0  502  0.22152730905E+01 -0.39130080021E+02  0.38956000133E+02  0.55459269232E+02  0.47000000000E+01 0.  1.
         11    1    6    6    0    0 -0.78437259912E+01 -0.13362938748E+02 -0.25504358595E+02  0.29842326933E+02  0.00000000000E+00 0. -1.
        -12    1    6    6    0    0  0.11081901718E+03 -0.24599791108E+01 -0.56961375177E+02  0.12462545618E+03  0.00000000000E+00 0.  1.
<mgrwt>
<rscale>  2 0.20895404E+03</rscale>
<asrwt>0</asrwt>
<pdfrwt beam="1">  1       21 0.16630594E-01 0.21016303E+03</pdfrwt>
<pdfrwt beam="2">  1       21 0.87746440E-01 0.21016303E+03</pdfrwt>
<totfact> 0.35843742E+04</totfact>
</mgrwt>
</event>
<event>
12    1  0.1039378E-001  0.2035244E+03  0.7546771E-02  0.1147304E+00
         21   -1    0    0  503  502  0.00000000000E+00  0.00000000000E+00  0.13089515312E+03  0.13089515312E+03  0.00000000000E+00 0. -1.
         21   -1    0    0  501  503 -0.00000000000E+00 -0.00000000000E+00 -0.60007919969E+03  0.60007919969E+03  0.00000000000E+00 0. -1.
          6    2    1    2  501    0 -0.82272437568E+02 -0.61340989731E+02 -0.48679004065E+03  0.52668984223E+03  0.17293401985E+03 0.  0.
         24    2    3    3    0    0 -0.88451697573E+02 -0.21663142173E+02 -0.18167021234E+03  0.21890304188E+03  0.81372484039E+02 0.  0.
         -6    2    1    2    0  502  0.82272437568E+02  0.61340989731E+02  0.17605994085E+02  0.20428451059E+03  0.17575755812E+03 0.  0.
        -24    2    5    5    0    0  0.10898194933E+03  0.44926656948E+02  0.57892978065E+02  0.15302088394E+03  0.78538679829E+02 0.  0.
          5    1    3    3  501    0  0.61792600056E+01 -0.39677847558E+02 -0.30511982831E+03  0.30778680035E+03  0.47000000000E+01 0. -1.
        -13    1    4    4    0    0 -0.12172074278E+02  0.24053193476E+02 -0.76849381110E+02  0.81440425377E+02  0.00000000000E+00 0.  1.
         14    1    4    4    0    0 -0.76279623295E+02 -0.45716335649E+02 -0.10482083123E+03  0.13746261650E+03  0.00000000000E+00 0. -1.
         -5    1    5    5    0  502 -0.26709511758E+02  0.16414332783E+02 -0.40286983980E+02  0.51263626650E+02  0.47000000000E+01 0.  1.
         11    1    6    6    0    0  0.79678216816E+02  0.65633277389E+02  0.29784122579E+02  0.10744039880E+03  0.00000000000E+00 0. -1.
        -12    1    6    6    0    0  0.29303732509E+02 -0.20706620442E+02  0.28108855487E+02  0.45580485143E+02  0.00000000000E+00 0.  1.
<mgrwt>
<rscale>  2 0.20291335E+03</rscale>
<asrwt>0</asrwt>
<pdfrwt beam="1">  1       21 0.20137716E-01 0.20352442E+03</pdfrwt>
<pdfrwt beam="2">  1       21 0.92319877E-01 0.20352442E+03</pdfrwt>
<totfact> 0.22421412E+04</totfact>
</mgrwt>
</event>
<event>
12    1  0.1039378E-001  0.2058255E+03  0.7546771E-02  0.1144966E+00
         21   -1    0    0  503  502  0.00000000000E+00  0.00000000000E+00  0.56191670477E+02  0.56191670477E+02  0.00000000000E+00 0. -1.
         21   -1    0    0  501  503 -0.00000000000E+00 -0.00000000000E+00 -0.94036364402E+03  0.94036364402E+03  0.00000000000E+00 0. -1.
          6    2    1    2  501    0  0.10824785404E+03 -0.79885560968E+01 -0.21945848436E+03  0.30070462769E+03  0.17458474110E+03 0.  0.
         24    2    3    3    0    0  0.34176853622E+02 -0.38832524008E+02 -0.19631392311E+03  0.21706477968E+03  0.76824084280E+02 0.  0.
         -6    2    1    2    0  502 -0.10824785404E+03  0.79885560968E+01 -0.66471348919E+03  0.69585068681E+03  0.17487921744E+03 0.  0.
        -24    2    5    5    0    0 -0.29388840765E+02 -0.43233847320E+02 -0.18903130537E+03  0.21094027386E+03  0.77653687678E+02 0.  0.
          5    1    3    3  501    0  0.74071000423E+02  0.30843967911E+02 -0.23144561248E+02  0.83639848012E+02  0.47000000000E+01 0. -1.
        -11    1    4    4    0    0  0.55598860786E+02 -0.34656697460E+02 -0.17366185265E+03  0.18560915674E+03  0.00000000000E+00 0.  1.
         12    1    4    4    0    0 -0.21422007164E+02 -0.41758265481E+01 -0.22652070456E+02  0.31455622935E+02  0.00000000000E+00 0. -1.
         -5    1    5    5    0  502 -0.78859013279E+02  0.51222403416E+02 -0.47568218382E+03  0.48491041296E+03  0.47000000000E+01 0.  1.
         13    1    6    6    0    0 -0.12092865465E+02  0.63913053483E+01 -0.13454978724E+03  0.13524323061E+03  0.00000000000E+00 0. -1.
        -14    1    6    6    0    0 -0.17295975300E+02 -0.49625152668E+02 -0.54481518127E+02  0.75697043247E+02  0.00000000000E+00 0.  1.
<mgrwt>
<rscale>  2 0.20576298E+03</rscale>
<asrwt>0</asrwt>
<pdfrwt beam="1">  1       21 0.86448732E-02 0.20582555E+03</pdfrwt>
<pdfrwt beam="2">  1       21 0.14467132E+00 0.20582555E+03</pdfrwt>
<totfact> 0.34172119E+04</totfact>
</mgrwt>
</event>
<event>
12    1  0.1039378E-001  0.3091022E+03  0.7546771E-02  0.1081072E+00
         21   -1    0    0  501  502  0.00000000000E+00  0.00000000000E+00  0.13169006716E+03  0.13169006716E+03  0.00000000000E+00 0.  1.
         21   -1    0    0  502  503 -0.00000000000E+00 -0.00000000000E+00 -0.13810949308E+04  0.13810949308E+04  0.00000000000E+00 0. -1.
         -6    2    1    2    0  503 -0.20630025013E+03  0.15176324411E+03 -0.11493911830E+04  0.11902286505E+04  0.17306725126E+03 0.  0.
        -24    2    3    3    0    0 -0.15671038998E+03  0.68317238229E+02 -0.94239727150E+03  0.96155648446E+03  0.85163748765E+02 0.  0.
          6    2    1    2  501    0  0.20630025013E+03 -0.15176324411E+03 -0.10001368064E+03  0.32255634745E+03  0.16866530615E+03 0.  0.
         24    2    5    5    0    0  0.82499127911E+02 -0.13598141742E+03 -0.82862645179E+02  0.19649274472E+03  0.80287787186E+02 0.  0.
          5    1    5    5  501    0  0.12380112222E+03 -0.15781826691E+02 -0.17151035457E+02  0.12606360274E+03  0.47000000000E+01 0. -1.
        -11    1    6    6    0    0  0.85834906349E+02 -0.77408666041E+02 -0.73783484235E+02  0.13712671247E+03  0.00000000000E+00 0.  1.
         12    1    6    6    0    0 -0.33357784381E+01 -0.58572751376E+02 -0.90791609435E+01  0.59366032249E+02  0.00000000000E+00 0. -1.
         -5    1    3    3    0  503 -0.49589860151E+02  0.83446005880E+02 -0.20699391149E+03  0.22867216604E+03  0.47000000000E+01 0.  1.
         11    1    4    4    0    0 -0.19247506940E+02  0.45330287569E+02 -0.18499266341E+03  0.19143559494E+03  0.00000000000E+00 0. -1.
        -12    1    4    4    0    0 -0.13746288304E+03  0.22986950659E+02 -0.75740460809E+03  0.77012088951E+03  0.00000000000E+00 0.  1.
<mgrwt>
<rscale>  2 0.30848960E+03</rscale>
<asrwt>0</asrwt>
<pdfrwt beam="1">  1       21 0.20260010E-01 0.30910217E+03</pdfrwt>
<pdfrwt beam="2">  1       21 0.21247615E+00 0.30910217E+03</pdfrwt>
<totfact> 0.22921037E+03</totfact>
</mgrwt>
</event>
<event>
12    1  0.1039378E-001  0.2673645E+03  0.7546771E-02  0.1102892E+00
         21   -1    0    0  501  502  0.00000000000E+00  0.00000000000E+00  0.42526187839E+02  0.42526187839E+02  0.00000000000E+00 0. -1.
         21   -1    0    0  502  503 -0.00000000000E+00 -0.00000000000E+00 -0.19096663807E+04  0.19096663807E+04  0.00000000000E+00 0. -1.
         -6    2    1    2    0  503 -0.12210227904E+03  0.16196506144E+03 -0.12754013011E+04  0.13031240403E+04  0.17418994788E+03 0.  0.
        -24    2    3    3    0    0 -0.69272989306E+02  0.17252738608E+03 -0.73749066980E+03  0.76250177495E+03  0.54332520259E+02 0.  0.
          6    2    1    2  501    0  0.12210227904E+03 -0.16196506144E+03 -0.59173889173E+03  0.64906852819E+03  0.17318600007E+03 0.  0.
         24    2    5    5    0    0  0.14119666028E+03 -0.17261259065E+03 -0.47458678419E+03  0.52980130061E+03  0.75665045244E+02 0.  0.
          5    1    5    5  501    0 -0.19094381238E+02  0.10647529214E+02 -0.11715210754E+03  0.11926722758E+03  0.47000000000E+01 0. -1.
        -13    1    6    6    0    0  0.38883084405E+02 -0.59013757876E+01 -0.66529356849E+02  0.77284382716E+02  0.00000000000E+00 0.  1.
         14    1    6    6    0    0  0.10231357587E+03 -0.16671121487E+03 -0.40805742734E+03  0.45251691789E+03  0.00000000000E+00 0. -1.
         -5    1    3    3    0  503 -0.52829289735E+02 -0.10562324638E+02 -0.53791063131E+03  0.54062226538E+03  0.47000000000E+01 0.  1.
         11    1    4    4    0    0 -0.24947716562E+02  0.11066367277E+03 -0.36131033447E+03  0.37870040246E+03  0.00000000000E+00 0. -1.
        -12    1    4    4    0    0 -0.44325272744E+02  0.61863713309E+02 -0.37618033534E+03  0.38380137249E+03  0.00000000000E+00 0.  1.
<mgrwt>
<rscale>  2 0.26720112E+03</rscale>
<asrwt>0</asrwt>
<pdfrwt beam="1">  1       21 0.65424902E-02 0.26736452E+03</pdfrwt>
<pdfrwt beam="2">  1       21 0.29379484E+00 0.26736452E+03</pdfrwt>
<totfact> 0.58642125E+03</totfact>
</mgrwt>
</event>
<event>
12    1  0.1039378E-001  0.1953526E+03  0.7546771E-02  0.1154558E+00
         21   -1    0    0  503  502  0.00000000000E+00  0.00000000000E+00  0.43654919043E+03  0.43654919043E+03  0.00000000000E+00 0.  1.
         21   -1    0    0  501  503 -0.00000000000E+00 -0.00000000000E+00 -0.11181673447E+04  0.11181673447E+04  0.00000000000E+00 0. -1.
          6    2    1    2  501    0  0.20328151540E+02 -0.88203988665E+02 -0.10875159059E+04  0.11042549772E+04  0.16880471453E+03 0.  0.
         24    2    3    3    0    0  0.52481382939E+02 -0.54376816936E+02 -0.98455405507E+03  0.99111196782E+03  0.85118221505E+02 0.  0.
         -6    2    1    2    0  502 -0.20328151540E+02  0.88203988665E+02  0.40589775164E+03  0.45046155797E+03  0.17311687688E+03 0.  0.
        -24    2    5    5    0    0  0.42319699245E+02  0.28288923026E+02  0.29197931985E+03  0.30723423027E+03  0.80930395513E+02 0.  0.
          5    1    3    3  501    0 -0.32153231399E+02 -0.33827171729E+02 -0.10296185083E+03  0.11314300934E+03  0.47000000000E+01 0. -1.
        -11    1    4    4    0    0  0.32265879433E+02 -0.60373986474E+02 -0.37523231222E+03  0.38142547549E+03  0.00000000000E+00 0.  1.
         12    1    4    4    0    0  0.20215503506E+02  0.59971695377E+01 -0.60932174285E+03  0.60968649233E+03  0.00000000000E+00 0. -1.
         -5    1    5    5    0  502 -0.62647850786E+02  0.59915065639E+02  0.11391843178E+03  0.14322732769E+03  0.47000000000E+01 0.  1.
         11    1    6    6    0    0  0.26968494871E+02  0.35206200609E+02  0.59825341080E+02  0.74470448584E+02  0.00000000000E+00 0. -1.
        -12    1    6    6    0    0  0.15351204374E+02 -0.69172775829E+01  0.23215397877E+03  0.23276378169E+03  0.00000000000E+00 0.  1.
<mgrwt>
<rscale>  2 0.19439280E+03</rscale>
<asrwt>0</asrwt>
<pdfrwt beam="1">  1       21 0.67161414E-01 0.19535258E+03</pdfrwt>
<pdfrwt beam="2">  1       21 0.17202575E+00 0.19535258E+03</pdfrwt>
<totfact> 0.41776270E+02</totfact>
</mgrwt>
</event>
<event>
12    1  0.1039378E-001  0.2102957E+03  0.7546771E-02  0.1141356E+00
         21   -1    0    0  501  502  0.00000000000E+00  0.00000000000E+00  0.55191173130E+03  0.55191173130E+03  0.00000000000E+00 0. -1.
         21   -1    0    0  502  503 -0.00000000000E+00 -0.00000000000E+00 -0.92474978770E+02  0.92474978770E+02  0.00000000000E+00 0. -1.
         -6    2    1    2    0  503  0.92998120714E+02 -0.75125375995E+02  0.11171744410E+03  0.23802109243E+03  0.17286058125E+03 0.  0.
        -24    2    3    3    0    0  0.64178248690E+02 -0.82660872528E+02  0.13238606821E+03  0.20146085783E+03  0.11003971433E+03 0.  0.
          6    2    1    2  501    0 -0.92998120714E+02  0.75125375995E+02  0.34771930843E+03  0.40636561764E+03  0.17300816504E+03 0.  0.
         24    2    5    5    0    0 -0.59177563418E+02  0.54872461086E+02  0.35218823591E+03  0.36641474818E+03  0.60911765473E+02 0.  0.
          5    1    5    5  501    0 -0.33820557296E+02  0.20252914909E+02 -0.44689274765E+01  0.39950869463E+02  0.47000000000E+01 0. -1.
        -13    1    6    6    0    0 -0.58007741076E+02  0.30768856206E+02  0.31711254630E+03  0.32383944719E+03  0.00000000000E+00 0.  1.
         14    1    6    6    0    0 -0.11698223420E+01  0.24103604881E+02  0.35075689605E+02  0.42575300984E+02  0.00000000000E+00 0. -1.
         -5    1    3    3    0  503  0.28819872024E+02  0.75354965329E+01 -0.20668624107E+02  0.36560234599E+02  0.47000000000E+01 0.  1.
         13    1    4    4    0    0 -0.28859266773E+02 -0.93897296300E+01  0.12130928926E+02  0.32683080299E+02  0.00000000000E+00 0. -1.
        -14    1    4    4    0    0  0.93037515464E+02 -0.73271142898E+02  0.12025513929E+03  0.16877777754E+03  0.00000000000E+00 0.  1.
<mgrwt>
<rscale>  2 0.21026538E+03</rscale>
<asrwt>0</asrwt>
<pdfrwt beam="1">  1       21 0.84909495E-01 0.21029574E+03</pdfrwt>
<pdfrwt beam="2">  1       21 0.14226920E-01 0.21029574E+03</pdfrwt>
<totfact> 0.51425401E+04</totfact>
</mgrwt>
</event>
<event>
12    1  0.1039378E-001  0.3241290E+03  0.7546771E-02  0.1073856E+00
         21   -1    0    0  503  502  0.00000000000E+00  0.00000000000E+00  0.15463847748E+03  0.15463847748E+03  0.00000000000E+00 0.  1.
         21   -1    0    0  501  503 -0.00000000000E+00 -0.00000000000E+00 -0.10162971736E+04  0.10162971736E+04  0.00000000000E+00 0.  1.
          6    2    1    2  501    0 -0.26769419706E+03  0.55299555429E+02 -0.76911912136E+03  0.83462797470E+03  0.17418785647E+03 0.  0.
         24    2    3    3    0    0 -0.37149458216E+02  0.19600838542E+02 -0.18519077202E+03  0.20580392764E+03  0.79343301384E+02 0.  0.
         -6    2    1    2    0  502  0.26769419706E+03 -0.55299555429E+02 -0.92539574742E+02  0.33630767637E+03  0.17268774223E+03 0.  0.
        -24    2    5    5    0    0  0.13798460831E+03  0.33890815747E+02 -0.66907876243E+02  0.17675024566E+03  0.81090356490E+02 0.  0.
          5    1    3    3  501    0 -0.23054473885E+03  0.35698716887E+02 -0.58392834934E+03  0.62882404706E+03  0.47000000000E+01 0. -1.
        -13    1    4    4    0    0 -0.43756108802E+02 -0.21073842984E+02 -0.99645833357E+02  0.11085123374E+03  0.00000000000E+00 0.  1.
         14    1    4    4    0    0  0.66066505853E+01  0.40674681526E+02 -0.85544938664E+02  0.94952693907E+02  0.00000000000E+00 0. -1.
         -5    1    5    5    0  502  0.12970958875E+03 -0.89190371176E+02 -0.25631698500E+02  0.15955743070E+03  0.47000000000E+01 0.  1.
         13    1    6    6    0    0  0.12616780154E+02 -0.21778897391E+02 -0.18690935093E+02  0.31350511442E+02  0.00000000000E+00 0. -1.
        -14    1    6    6    0    0  0.12536782816E+03  0.55669713138E+02 -0.48216941150E+02  0.14539973422E+03  0.00000000000E+00 0.  1.
<mgrwt>
<rscale>  2 0.32392793E+03</rscale>
<asrwt>0</asrwt>
<pdfrwt beam="1">  1       21 0.23790535E-01 0.32412904E+03</pdfrwt>
<pdfrwt beam="2">  1       21 0.15635341E+00 0.32412904E+03</pdfrwt>
<totfact> 0.40775815E+03</totfact>
</mgrwt>
</event>
<event>
12    1  0.1039378E-001  0.2523691E+03  0.7546771E-02  0.1113243E+00
         21   -1    0    0  501  502  0.00000000000E+00  0.00000000000E+00  0.35519743370E+03  0.35519743370E+03  0.00000000000E+00 0.  1.
         21   -1    0    0  502  503 -0.00000000000E+00 -0.00000000000E+00 -0.17367173716E+03  0.17367173716E+03  0.00000000000E+00 0.  1.
         -6    2    1    2    0  503 -0.87059268758E+02 -0.16261098658E+03  0.75923623725E+02  0.26354235249E+03  0.17224553893E+03 0.  0.
        -24    2    3    3    0    0 -0.96933362611E+02 -0.16858750265E+03  0.27505223983E+02  0.21354587354E+03  0.83830065742E+02 0.  0.
          6    2    1    2  501    0  0.87059268758E+02  0.16261098658E+03  0.10560207282E+03  0.26532681837E+03  0.15882340359E+03 0.  0.
         24    2    5    5    0    0  0.11828669409E+03  0.13247044665E+03  0.65524351653E+02  0.20606538087E+03  0.81420754723E+02 0.  0.
          5    1    5    5  501    0 -0.31227425332E+02  0.30140539931E+02  0.40077721165E+02  0.59261437495E+02  0.47000000000E+01 0. -1.
        -13    1    6    6    0    0  0.45351246237E+02  0.35808605347E+02 -0.16157259517E+02  0.60000406559E+02  0.00000000000E+00 0.  1.
         14    1    6    6    0    0  0.72935447853E+02  0.96661841304E+02  0.81681611169E+02  0.14606497431E+03  0.00000000000E+00 0. -1.
         -5    1    3    3    0  503  0.98740938535E+01  0.59765160657E+01  0.48418399742E+02  0.49996478949E+02  0.47000000000E+01 0.  1.
         13    1    4    4    0    0 -0.48101221795E+02 -0.17909154256E+02  0.19642543639E+02  0.54957209399E+02  0.00000000000E+00 0. -1.
        -14    1    4    4    0    0 -0.48832140816E+02 -0.15067834839E+03  0.78626803439E+01  0.15858866414E+03  0.00000000000E+00 0.  1.
<mgrwt>
<rscale>  2 0.25009789E+03</rscale>
<asrwt>0</asrwt>
<pdfrwt beam="1">  1       21 0.54645759E-01 0.25236912E+03</pdfrwt>
<pdfrwt beam="2">  1       21 0.26718729E-01 0.25236912E+03</pdfrwt>
<totfact> 0.41012666E+04</totfact>
</mgrwt>
</event>
<event>
12    1  0.1039378E-001  0.3082238E+03  0.7546771E-02  0.1081406E+00
         21   -1    0    0  503  502  0.00000000000E+00  0.00000000000E+00  0.31632552945E+03  0.31632552945E+03  0.00000000000E+00 0.  1.
         21   -1    0    0  501  503 -0.00000000000E+00 -0.00000000000E+00 -0.32291447863E+03  0.32291447863E+03  0.00000000000E+00 0.  1.
          6    2    1    2  501    0 -0.10503717429E+03  0.23110200886E+03 -0.90868649859E+02  0.32133943423E+03  0.17481697279E+03 0.  0.
         24    2    3    3    0    0 -0.78925902424E+02  0.25298601310E+03 -0.79492443799E+02  0.28511490905E+03  0.68849414225E+02 0.  0.
         -6    2    1    2    0  502  0.10503717429E+03 -0.23110200886E+03  0.84279700678E+02  0.31790057385E+03  0.17180442492E+03 0.  0.
        -24    2    5    5    0    0  0.61218483286E+02 -0.22637400247E+03  0.34635240768E+02  0.25134913415E+03  0.83569705310E+02 0.  0.
          5    1    3    3  501    0 -0.26111271870E+02 -0.21884004240E+02 -0.11376206060E+02  0.36224525180E+02  0.47000000000E+01 0. -1.
        -11    1    4    4    0    0 -0.34140597600E+02  0.16223009331E+03 -0.79616639873E+02  0.18391028499E+03  0.00000000000E+00 0.  1.
         12    1    4    4    0    0 -0.44785304824E+02  0.90755919796E+02  0.12419607388E+00  0.10120462406E+03  0.00000000000E+00 0. -1.
         -5    1    5    5    0  502  0.43818691008E+02 -0.47280063980E+01  0.49644459910E+02  0.66551439698E+02  0.47000000000E+01 0.  1.
         11    1    6    6    0    0 -0.69841958149E+01 -0.96214261199E+02  0.39696801424E+02  0.10431586213E+03  0.00000000000E+00 0. -1.
        -12    1    6    6    0    0  0.68202679101E+02 -0.13015974127E+03 -0.50615606560E+01  0.14703327202E+03  0.00000000000E+00 0.  1.
<mgrwt>
<rscale>  2 0.30779828E+03</rscale>
<asrwt>0</asrwt>
<pdfrwt beam="1">  1       21 0.48665466E-01 0.30822382E+03</pdfrwt>
<pdfrwt beam="2">  1       21 0.49679150E-01 0.30822382E+03</pdfrwt>
<totfact> 0.14667514E+04</totfact>
</mgrwt>
</event>
<event>
12    1  0.1039378E-001  0.2148360E+03  0.7546771E-02  0.1138469E+00
         21   -1    0    0  503  502  0.00000000000E+00  0.00000000000E+00  0.14605073850E+03  0.14605073850E+03  0.00000000000E+00 0.  1.
         21   -1    0    0  501  503 -0.00000000000E+00 -0.00000000000E+00 -0.53767148113E+03  0.53767148113E+03  0.00000000000E+00 0. -1.
          6    2    1    2  501    0  0.17248051865E+02  0.12119196638E+03 -0.41874739861E+03  0.47064200742E+03  0.17654893741E+03 0.  0.
         24    2    3    3    0    0  0.32648663708E+02  0.40106740651E+02 -0.34977521262E+03  0.36297936247E+03  0.82078208623E+02 0.  0.
         -6    2    1    2    0  502 -0.17248051865E+02 -0.12119196638E+03  0.27126655976E+02  0.21308021220E+03  0.17228561564E+03 0.  0.
        -24    2    5    5    0    0  0.45231342759E+02 -0.69229710788E+02 -0.24096299271E+02  0.11690520556E+03  0.79041560105E+02 0.  0.
          5    1    3    3  501    0 -0.15400611843E+02  0.81085225733E+02 -0.68972185985E+02  0.10766264495E+03  0.47000000000E+01 0. -1.
        -13    1    4    4    0    0  0.35813491590E+02  0.45038877918E+01 -0.53390524000E+02  0.64447181770E+02  0.00000000000E+00 0.  1.
         14    1    4    4    0    0 -0.31648278819E+01  0.35602852859E+02 -0.29638468862E+03  0.29853218070E+03  0.00000000000E+00 0. -1.
         -5    1    5    5    0  502 -0.62479394623E+02 -0.51962255596E+02  0.51222955247E+02  0.96175006646E+02  0.47000000000E+01 0.  1.
         11    1    6    6    0    0  0.51340001156E+02 -0.77097394160E+02 -0.19789299543E+01  0.92648367869E+02  0.00000000000E+00 0. -1.
        -12    1    6    6    0    0 -0.61086583975E+01  0.78676833720E+01 -0.22117369316E+02  0.24256837686E+02  0.00000000000E+00 0.  1.
<mgrwt>
<rscale>  2 0.21395826E+03</rscale>
<asrwt>0</asrwt>
<pdfrwt beam="1">  1       21 0.22469344E-01 0.21483602E+03</pdfrwt>
<pdfrwt beam="2">  1       21 0.82718691E-01 0.21483602E+03</pdfrwt>
<totfact> 0.23347882E+04</totfact>
</mgrwt>
</event>
<event>
12    1  0.1039378E-001  0.2470179E+03  0.7546771E-02  0.1115286E+00
         21   -1    0    0  501  502  0.00000000000E+00  0.00000000000E+00  0.27341737046E+03  0.27341737046E+03  0.00000000000E+00 0. -1.
         21   -1    0    0  502  503 -0.00000000000E+00 -0.00000000000E+00 -0.51898907486E+03  0.51898907486E+03  0.00000000000E+00 0.  1.
         -6    2    1    2    0  503 -0.62967291504E+02  0.16533863878E+03 -0.42220015497E+03  0.48915313777E+03  0.17238351447E+03 0.  0.
        -24    2    3    3    0    0 -0.60604702908E+02  0.18814226946E+03 -0.32226241078E+03  0.38651186873E+03  0.80423377782E+02 0.  0.
          6    2    1    2  501    0  0.62967291504E+02 -0.16533863878E+03  0.17662845057E+03  0.30325330755E+03  0.17164851796E+03 0.  0.
         24    2    5    5    0    0  0.16257687529E+02 -0.15459445736E+03  0.18481826862E+03  0.25440264064E+03  0.79994702947E+02 0.  0.
          5    1    5    5  501    0  0.46709603974E+02 -0.10744181417E+02 -0.81898180501E+01  0.48850666909E+02  0.47000000000E+01 0. -1.
        -11    1    6    6    0    0  0.33801930867E+02 -0.12087132356E+03  0.96718854638E+02  0.15845183569E+03  0.00000000000E+00 0.  1.
         12    1    6    6    0    0 -0.17544243337E+02 -0.33723133796E+02  0.88099413983E+02  0.95950804955E+02  0.00000000000E+00 0. -1.
         -5    1    3    3    0  503 -0.23625885960E+01 -0.22803630681E+02 -0.99937744194E+02  0.10264126905E+03  0.47000000000E+01 0.  1.
         11    1    4    4    0    0 -0.36723143553E+01  0.11250059176E+03 -0.12829746452E+03  0.17067544768E+03  0.00000000000E+00 0. -1.
        -12    1    4    4    0    0 -0.56932388553E+02  0.75641677693E+02 -0.19396494626E+03  0.21583642105E+03  0.00000000000E+00 0.  1.
<mgrwt>
<rscale>  2 0.24688967E+03</rscale>
<asrwt>0</asrwt>
<pdfrwt beam="1">  1       21 0.42064211E-01 0.24701786E+03</pdfrwt>
<pdfrwt beam="2">  1       21 0.79844473E-01 0.24701786E+03</pdfrwt>
<totfact> 0.72461686E+03</totfact>
</mgrwt>
</event>
<event>
12    1  0.1039378E-001  0.2451421E+03  0.7546771E-02  0.1116423E+00
         21   -1    0    0  503  502  0.00000000000E+00  0.00000000000E+00  0.30477745866E+03  0.30477745866E+03  0.00000000000E+00 0. -1.
         21   -1    0    0  501  503 -0.00000000000E+00 -0.00000000000E+00 -0.19839717487E+03  0.19839717487E+03  0.00000000000E+00 0. -1.
          6    2    1    2  501    0 -0.16497779978E+03  0.54311514749E+02  0.73303944762E+02  0.25586737214E+03  0.17299488071E+03 0.  0.
         24    2    3    3    0    0 -0.27381268851E+02  0.43096914431E+02  0.66275709910E+02  0.11755591683E+03  0.82582358524E+02 0.  0.
         -6    2    1    2    0  502  0.16497779978E+03 -0.54311514749E+02  0.33076339030E+02  0.24730726140E+03  0.17291449413E+03 0.  0.
        -24    2    5    5    0    0  0.18194309560E+03 -0.20816840810E+02  0.49810236957E+02  0.20593302081E+03  0.79941969291E+02 0.  0.
          5    1    3    3  501    0 -0.13759653093E+03  0.11214600318E+02  0.70282348519E+01  0.13831145531E+03  0.47000000000E+01 0. -1.
        -11    1    4    4    0    0 -0.53996372493E+02  0.33775372324E+02  0.62269871353E+02  0.89072559726E+02  0.00000000000E+00 0.  1.
         12    1    4    4    0    0  0.26615103642E+02  0.93215421073E+01  0.40058385571E+01  0.28483357099E+02  0.00000000000E+00 0. -1.
         -5    1    5    5    0  502 -0.16965295821E+02 -0.33494673939E+02 -0.16733897928E+02  0.41374240590E+02  0.47000000000E+01 0.  1.
         11    1    6    6    0    0  0.11851459409E+03 -0.12314889235E+00 -0.64066870480E+01  0.11868769867E+03  0.00000000000E+00 0. -1.
        -12    1    6    6    0    0  0.63428501516E+02 -0.20693691918E+02  0.56216924005E+02  0.87245322134E+02  0.00000000000E+00 0.  1.
<mgrwt>
<rscale>  2 0.24512791E+03</rscale>
<asrwt>0</asrwt>
<pdfrwt beam="1">  1       21 0.46888840E-01 0.24514209E+03</pdfrwt>
<pdfrwt beam="2">  1       21 0.30522642E-01 0.24514209E+03</pdfrwt>
<totfact> 0.43780049E+04</totfact>
</mgrwt>
</event>
<event>
12    1  0.1039378E-001  0.1821943E+03  0.7546771E-02  0.1166034E+00
         21   -1    0    0  501  502  0.00000000000E+00  0.00000000000E+00  0.65193748641E+03  0.65193748641E+03  0.00000000000E+00 0. -1.
         21   -1    0    0  502  503 -0.00000000000E+00 -0.00000000000E+00 -0.50759634024E+02  0.50759634024E+02  0.00000000000E+00 0. -1.
         -6    2    1    2    0  503  0.54462141647E+02 -0.75342837750E+01  0.32575486643E+03  0.37324388185E+03  0.17370052397E+03 0.  0.
        -24    2    3    3    0    0  0.51964660017E+02  0.60022517422E+02  0.17116649484E+03  0.20445462438E+03  0.78744498147E+02 0.  0.
          6    2    1    2  501    0 -0.54462141647E+02  0.75342837750E+01  0.27542298596E+03  0.32945323859E+03  0.17221708661E+03 0.  0.
         24    2    5    5    0    0 -0.89639737310E+02 -0.23723047448E+02  0.14276720225E+03  0.18861953899E+03  0.81220631408E+02 0.  0.
          5    1    5    5  501    0  0.35177595663E+02  0.31257331223E+02  0.13265578371E+03  0.14083369960E+03  0.47000000000E+01 0. -1.
        -13    1    6    6    0    0 -0.37077489875E+02 -0.42940591478E+02  0.10999733601E+03  0.12376610433E+03  0.00000000000E+00 0.  1.
         14    1    6    6    0    0 -0.52562247435E+02  0.19217544030E+02  0.32769866238E+02  0.64853434661E+02  0.00000000000E+00 0. -1.
         -5    1    3    3    0  503  0.24974816299E+01 -0.67556801197E+02  0.15458837159E+03  0.16878925746E+03  0.47000000000E+01 0.  1.
         11    1    4    4    0    0  0.40417692196E+02 -0.90235559414E+01  0.55401979859E+02  0.69169312390E+02  0.00000000000E+00 0. -1.
        -12    1    4    4    0    0  0.11546967821E+02  0.69046073363E+02  0.11576451498E+03  0.13528531199E+03  0.00000000000E+00 0.  1.
<mgrwt>
<rscale>  2 0.18183983E+03</rscale>
<asrwt>0</asrwt>
<pdfrwt beam="1">  1       21 0.10029807E+00 0.18219430E+03</pdfrwt>
<pdfrwt beam="2">  1       21 0.78091749E-02 0.18219430E+03</pdfrwt>
<totfact> 0.10245443E+05</totfact>
</mgrwt>
</event>
<event>
12    1  0.1039378E-001  0.2219749E+03  0.7546771E-02  0.1132484E+00
         21   -1    0    0  503  502  0.00000000000E+00  0.00000000000E+00  0.60902516766E+03  0.60902516766E+03  0.00000000000E+00 0. -1.
         21   -1    0    0  501  503 -0.00000000000E+00 -0.00000000000E+00 -0.11203720186E+03  0.11203720186E+03  0.00000000000E+00 0. -1.
          6    2    1    2  501    0 -0.62333884739E+01 -0.13857542812E+03  0.58194771164E+02  0.22947655893E+03  0.17329412943E+03 0.  0.
         24    2    3    3    0    0  0.19023321479E+02 -0.76597884356E+01  0.44787481063E+02  0.95392064895E+02  0.81689463617E+02 0.  0.
         -6    2    1    2    0  502  0.62333884739E+01  0.13857542812E+03  0.43879319464E+03  0.49158581059E+03  0.17284425677E+03 0.  0.
        -24    2    5    5    0    0  0.40079713776E+02  0.49899060950E+02  0.33784775898E+03  0.35294547443E+03  0.79580776118E+02 0.  0.
          5    1    3    3  501    0 -0.25256709953E+02 -0.13091563969E+03  0.13407290101E+02  0.13408449403E+03  0.47000000000E+01 0. -1.
        -11    1    4    4    0    0  0.47288797612E+02 -0.20565493913E+01  0.46725911899E+02  0.66511432234E+02  0.00000000000E+00 0.  1.
         12    1    4    4    0    0 -0.28265476133E+02 -0.56032390443E+01 -0.19384308356E+01  0.28880632661E+02  0.00000000000E+00 0. -1.
         -5    1    5    5    0  502 -0.33846325302E+02  0.88676367173E+02  0.10094543566E+03  0.13864033616E+03  0.47000000000E+01 0.  1.
         13    1    6    6    0    0  0.28225796963E+02  0.71632434844E+02  0.24201656864E+03  0.25396834613E+03  0.00000000000E+00 0. -1.
        -14    1    6    6    0    0  0.11853916813E+02 -0.21733373893E+02  0.95831190339E+02  0.98977128299E+02  0.00000000000E+00 0.  1.
<mgrwt>
<rscale>  2 0.22188710E+03</rscale>
<asrwt>0</asrwt>
<pdfrwt beam="1">  1       21 0.93696178E-01 0.22197491E+03</pdfrwt>
<pdfrwt beam="2">  1       21 0.17236493E-01 0.22197491E+03</pdfrwt>
<totfact> 0.28629050E+04</totfact>
</mgrwt>
</event>
<event>
12    1  0.1039378E-001  0.1905506E+03  0.7546771E-02  0.1160531E+00
         21   -1    0    0  501  502  0.00000000000E+00  0.00000000000E+00  0.72732932733E+03  0.72732932733E+03  0.00000000000E+00 0. -1.
         21   -1    0    0  502  503 -0.00000000000E+00 -0.00000000000E+00 -0.49534860482E+02  0.49534860482E+02  0.00000000000E+00 0. -1.
         -6    2    1    2    0  503  0.12935385110E+02  0.46513482950E+02  0.43520125302E+03  0.47508909847E+03  0.18433310221E+03 0.  0.
        -24    2    3    3    0    0 -0.25844945193E+02  0.86500559735E+02  0.36871704209E+03  0.38822644464E+03  0.81346217856E+02 0.  0.
          6    2    1    2  501    0 -0.12935385110E+02 -0.46513482950E+02  0.24259321383E+03  0.30177508934E+03  0.17287541430E+03 0.  0.
         24    2    5    5    0    0  0.51649146066E+02 -0.13681102778E+02  0.18738343027E+03  0.21056468941E+03  0.79813104341E+02 0.  0.
          5    1    5    5  501    0 -0.64584531176E+02 -0.32832380172E+02  0.55209783558E+02  0.91210399930E+02  0.47000000000E+01 0. -1.
        -11    1    6    6    0    0 -0.29205533238E+01 -0.27560704059E+02  0.11798621079E+03  0.12119764014E+03  0.00000000000E+00 0.  1.
         12    1    6    6    0    0  0.54569699390E+02  0.13879601281E+02  0.69397219483E+02  0.89367049270E+02  0.00000000000E+00 0. -1.
         -5    1    3    3    0  503  0.38780330303E+02 -0.39987076785E+02  0.66484210925E+02  0.86862653831E+02  0.47000000000E+01 0.  1.
         13    1    4    4    0    0  0.30543517887E+01  0.65356299062E+02  0.32593093592E+03  0.33243307579E+03  0.00000000000E+00 0. -1.
        -14    1    4    4    0    0 -0.28899296982E+02  0.21144260674E+02  0.42786106171E+02  0.55793368842E+02  0.00000000000E+00 0.  1.
<mgrwt>
<rscale>  2 0.18772317E+03</rscale>
<asrwt>0</asrwt>
<pdfrwt beam="1">  1       21 0.11189681E+00 0.19055057E+03</pdfrwt>
<pdfrwt beam="2">  1       21 0.76207483E-02 0.19055057E+03</pdfrwt>
<totfact> 0.81895395E+04</totfact>
</mgrwt>
</event>
<event>
12    1  0.1039378E-001  0.1798607E+03  0.7546771E-02  0.1168451E+00
         21   -1    0    0  503  502  0.00000000000E+00  0.00000000000E+00  0.12660806281E+03  0.12660806281E+03  0.00000000000E+00 0. -1.
         21   -1    0    0  501  503 -0.00000000000E+00 -0.00000000000E+00 -0.25253980107E+03  0.25253980107E+03  0.00000000000E+00 0. -1.
          6    2    1    2  501    0  0.12014009784E+02 -0.44072397954E+02 -0.62009750024E+02  0.19025002862E+03  0.17396307539E+03 0.  0.
         24    2    3    3    0    0  0.69435670687E+02 -0.57527924260E+02 -0.54500208541E+02  0.13061126990E+03  0.77189744523E+02 0.  0.
         -6    2    1    2    0  502 -0.12014009784E+02  0.44072397954E+02 -0.63921988235E+02  0.18889783526E+03  0.17178375620E+03 0.  0.
        -24    2    5    5    0    0 -0.19119311041E+02  0.42351630348E+02  0.26013575994E+02  0.98543299898E+02  0.82914818766E+02 0.  0.
          5    1    3    3  501    0 -0.57421660903E+02  0.13455526306E+02 -0.75095414832E+01  0.59638758725E+02  0.47000000000E+01 0. -1.
        -13    1    4    4    0    0 -0.68993926330E+00  0.15013629623E+02 -0.17685795517E+02  0.23209318252E+02  0.00000000000E+00 0.  1.
         14    1    4    4    0    0  0.70125609950E+02 -0.72541553883E+02 -0.36814413024E+02  0.10740195164E+03  0.00000000000E+00 0. -1.
         -5    1    5    5    0  502  0.71053012573E+01  0.17207676059E+01 -0.89935564228E+02  0.90354535360E+02  0.47000000000E+01 0.  1.
         13    1    6    6    0    0 -0.46590227626E+02  0.47558955244E+02  0.22923317490E+02  0.70412939286E+02  0.00000000000E+00 0. -1.
        -14    1    6    6    0    0  0.27470916585E+02 -0.52073248961E+01  0.30902585034E+01  0.28130360612E+02  0.00000000000E+00 0.  1.
<mgrwt>
<rscale>  2 0.17933160E+03</rscale>
<asrwt>0</asrwt>
<pdfrwt beam="1">  1       21 0.19478164E-01 0.17986068E+03</pdfrwt>
<pdfrwt beam="2">  1       21 0.38852277E-01 0.17986068E+03</pdfrwt>
<totfact> 0.15553036E+05</totfact>
</mgrwt>
</event>
<event>
12    1  0.1039378E-001  0.2179386E+03  0.7546771E-02  0.1135561E+00
         21   -1    0    0  501  502  0.00000000000E+00  0.00000000000E+00  0.74885254828E+03  0.74885254828E+03  0.00000000000E+00 0.  1.
         21   -1    0    0  502  503 -0.00000000000E+00 -0.00000000000E+00 -0.23941532277E+03  0.23941532277E+03  0.00000000000E+00 0.  1.
         -6    2    1    2    0  503 -0.77685896483E+02  0.10836332539E+03 -0.16928710967E+03  0.27541166987E+03  0.17151021426E+03 0.  0.
        -24    2    3    3    0    0 -0.41047120514E+01  0.98725441050E+02 -0.15218429480E+03  0.19911176296E+03  0.81987030647E+02 0.  0.
          6    2    1    2  501    0  0.77685896483E+02 -0.10836332539E+03  0.67872433519E+03  0.71285620118E+03  0.17239353697E+03 0.  0.
         24    2    5    5    0    0 -0.13242757992E+01  0.31011024647E+01  0.28549739069E+03  0.29654328296E+03  0.80111098076E+02 0.  0.
          5    1    5    5  501    0  0.79010172282E+02 -0.11146442785E+03  0.39322694449E+03  0.41631291822E+03  0.47000000000E+01 0. -1.
        -13    1    6    6    0    0 -0.72097727494E+01 -0.36009737202E+02  0.18364906678E+03  0.18728497464E+03  0.00000000000E+00 0.  1.
         14    1    6    6    0    0  0.58854969502E+01  0.39110839667E+02  0.10184832391E+03  0.10925830832E+03  0.00000000000E+00 0. -1.
         -5    1    3    3    0  503 -0.73581184431E+02  0.96378843388E+01 -0.17102814870E+02  0.76299906903E+02  0.47000000000E+01 0.  1.
         13    1    4    4    0    0  0.54370566354E+00 -0.65114615938E+00 -0.70180632070E+02  0.70185758704E+02  0.00000000000E+00 0. -1.
        -14    1    4    4    0    0 -0.46484177149E+01  0.99376587209E+02 -0.82003662733E+02  0.12892600426E+03  0.00000000000E+00 0.  1.
<mgrwt>
<rscale>  2 0.21776389E+03</rscale>
<asrwt>0</asrwt>
<pdfrwt beam="1">  1       21 0.11520808E+00 0.21793862E+03</pdfrwt>
<pdfrwt beam="2">  1       21 0.36833127E-01 0.21793862E+03</pdfrwt>
<totfact> 0.40659312E+03</totfact>
</mgrwt>
</event>
<event>
12    1  0.1039378E-001  0.1787594E+03  0.7546771E-02  0.1169415E+00
         21   -1    0    0  501  502  0.00000000000E+00  0.00000000000E+00  0.60266291153E+03  0.60266291153E+03  0.00000000000E+00 0.  1.
         21   -1    0    0  502  503 -0.00000000000E+00 -0.00000000000E+00 -0.67765849412E+02  0.67765849412E+02  0.00000000000E+00 0.  1.
         -6    2    1    2    0  503  0.24172006808E+02 -0.37090007585E+02  0.10948376447E+03  0.20962258263E+03  0.17319058257E+03 0.  0.
        -24    2    3    3    0    0 -0.38799775562E+02 -0.43071854262E+01  0.10599892272E+03  0.13838780935E+03  0.79946480393E+02 0.  0.
          6    2    1    2  501    0 -0.24172006808E+02  0.37090007585E+02  0.42541329765E+03  0.46080617831E+03  0.17148150214E+03 0.  0.
         24    2    5    5    0    0  0.21006142715E+02  0.72243089825E+02  0.34616908869E+03  0.36293616738E+03  0.78925924578E+02 0.  0.
          5    1    5    5  501    0 -0.45178149523E+02 -0.35153082240E+02  0.79244208963E+02  0.97870010930E+02  0.47000000000E+01 0. -1.
        -11    1    6    6    0    0  0.47293029583E+02  0.39412781524E+02  0.14692239405E+03  0.15929905169E+03  0.00000000000E+00 0.  1.
         12    1    6    6    0    0 -0.26286886868E+02  0.32830308301E+02  0.19924669463E+03  0.20363711569E+03  0.00000000000E+00 0. -1.
         -5    1    3    3    0  503  0.62971782370E+02 -0.32782822158E+02  0.34848417464E+01  0.71234773289E+02  0.47000000000E+01 0.  1.
         13    1    4    4    0    0 -0.21153894658E+02  0.19103705401E+02  0.97463238452E-01  0.28503479057E+02  0.00000000000E+00 0. -1.
        -14    1    4    4    0    0 -0.17645880904E+02 -0.23410890827E+02  0.10590145948E+03  0.10988433029E+03  0.00000000000E+00 0.  1.
<mgrwt>
<rscale>  2 0.17834415E+03</rscale>
<asrwt>0</asrwt>
<pdfrwt beam="1">  1       21 0.92717368E-01 0.17875943E+03</pdfrwt>
<pdfrwt beam="2">  1       21 0.10425516E-01 0.17875943E+03</pdfrwt>
<totfact> 0.74363104E+04</totfact>
</mgrwt>
</event>
<event>
12    1  0.1039378E-001  0.2106281E+03  0.7546771E-02  0.1141281E+00
         21   -1    0    0  501  502  0.00000000000E+00  0.00000000000E+00  0.41854962275E+02  0.41854962275E+02  0.00000000000E+00 0. -1.
         21   -1    0    0  502  503 -0.00000000000E+00 -0.00000000000E+00 -0.14546236647E+04  0.14546236647E+04  0.00000000000E+00 0.  1.
         -6    2    1    2    0  503  0.10585044269E+03 -0.51576655655E+02 -0.31269531285E+03  0.37642253331E+03  0.17335252314E+03 0.  0.
        -24    2    3    3    0    0  0.93532151137E+01 -0.66527151563E+02 -0.21120728647E+03  0.23550716241E+03  0.79635175384E+02 0.  0.
          6    2    1    2  501    0 -0.10585044269E+03  0.51576655655E+02 -0.11000733895E+04  0.11200560936E+04  0.17464169855E+03 0.  0.
         24    2    5    5    0    0 -0.60544946602E+02 -0.35372415100E+02 -0.69731030809E+03  0.70550462679E+03  0.81106191748E+02 0.  0.
          5    1    5    5  501    0 -0.45305496092E+02  0.86949070755E+02 -0.40276308145E+03  0.41455146684E+03  0.47000000000E+01 0. -1.
        -13    1    6    6    0    0 -0.67016841953E+01  0.25156263078E+02 -0.15308885111E+03  0.15528665905E+03  0.00000000000E+00 0.  1.
         14    1    6    6    0    0 -0.53843262407E+02 -0.60528678178E+02 -0.54422145698E+03  0.55021796774E+03  0.00000000000E+00 0. -1.
         -5    1    3    3    0  503  0.96497227581E+02  0.14950495908E+02 -0.10148802637E+03  0.14091537090E+03  0.47000000000E+01 0.  1.
         13    1    4    4    0    0  0.35573370471E+02 -0.15027704101E+02 -0.43734200341E+02  0.58343610248E+02  0.00000000000E+00 0. -1.
        -14    1    4    4    0    0 -0.26220155358E+02 -0.51499447462E+02 -0.16747308613E+03  0.17716355216E+03  0.00000000000E+00 0.  1.
<mgrwt>
<rscale>  2 0.21036066E+03</rscale>
<asrwt>0</asrwt>
<pdfrwt beam="1">  1       21 0.64392247E-02 0.21062809E+03</pdfrwt>
<pdfrwt beam="2">  1       21 0.22378826E+00 0.21062809E+03</pdfrwt>
<totfact> 0.16416662E+04</totfact>
</mgrwt>
</event>
<event>
12    1  0.1039378E-001  0.1937550E+03  0.7546771E-02  0.1155879E+00
         21   -1    0    0  503  502  0.00000000000E+00  0.00000000000E+00  0.74465246639E+02  0.74465246639E+02  0.00000000000E+00 0.  1.
         21   -1    0    0  501  503 -0.00000000000E+00 -0.00000000000E+00 -0.68871661820E+03  0.68871661820E+03  0.00000000000E+00 0. -1.
          6    2    1    2  501    0 -0.86295791305E+02 -0.12143746663E+01 -0.51133480268E+03  0.54681283177E+03  0.17347205612E+03 0.  0.
         24    2    3    3    0    0 -0.45930305999E+02 -0.63000330976E+02 -0.37813907786E+03  0.39446432370E+03  0.80835052763E+02 0.  0.
         -6    2    1    2    0  502  0.86295791305E+02  0.12143746663E+01 -0.10291656889E+03  0.21636903307E+03  0.16963283886E+03 0.  0.
        -24    2    5    5    0    0 -0.21183334307E+02 -0.81685253474E+01 -0.44675391215E+02  0.93674591343E+02  0.79142782516E+02 0.  0.
          5    1    3    3  501    0 -0.40365485307E+02  0.61785956309E+02 -0.13319572482E+03  0.15234850807E+03  0.47000000000E+01 0. -1.
        -11    1    4    4    0    0 -0.84417639718E+01 -0.60054862854E+02 -0.12948968679E+03  0.14298751315E+03  0.00000000000E+00 0.  1.
         12    1    4    4    0    0 -0.37488542027E+02 -0.29454681216E+01 -0.24864939107E+03  0.25147681055E+03  0.00000000000E+00 0. -1.
         -5    1    5    5    0  502  0.10747912561E+03  0.93829000137E+01 -0.58241177672E+02  0.12269444173E+03  0.47000000000E+01 0.  1.
         13    1    6    6    0    0  0.21313473068E+02  0.21466437342E+02 -0.20202295401E+02  0.36375882200E+02  0.00000000000E+00 0. -1.
        -14    1    6    6    0    0 -0.42496807375E+02 -0.29634962690E+02 -0.24473095814E+02  0.57298709143E+02  0.00000000000E+00 0.  1.
<mgrwt>
<rscale>  2 0.19289182E+03</rscale>
<asrwt>0</asrwt>
<pdfrwt beam="1">  1       21 0.11456192E-01 0.19375498E+03</pdfrwt>
<pdfrwt beam="2">  1       21 0.10595641E+00 0.19375498E+03</pdfrwt>
<totfact> 0.45548435E+04</totfact>
</mgrwt>
</event>
<event>
12    1  0.1039378E-001  0.1939531E+03  0.7546771E-02  0.1155311E+00
         21   -1    0    0  501  502  0.00000000000E+00  0.00000000000E+00  0.23549124830E+03  0.23549124830E+03  0.00000000000E+00 0.  1.
         21   -1    0    0  502  503 -0.00000000000E+00 -0.00000000000E+00 -0.17982175906E+03  0.17982175906E+03  0.00000000000E+00 0.  1.
         -6    2    1    2    0  503 -0.63962421248E+02 -0.54499777205E+02  0.99449219192E+02  0.21648023573E+03  0.17295123074E+03 0.  0.
        -24    2    3    3    0    0 -0.49952410413E+02 -0.37426255188E+02 -0.12487320681E+02  0.10228888528E+03  0.80069438559E+02 0.  0.
          6    2    1    2  501    0  0.63962421248E+02  0.54499777205E+02 -0.43779729957E+02  0.19883277163E+03  0.17480385943E+03 0.  0.
         24    2    5    5    0    0  0.17503906167E+02 -0.10020163589E+02 -0.76373196662E+02  0.11277674073E+03  0.80491848476E+02 0.  0.
          5    1    5    5  501    0  0.46458515081E+02  0.64519940794E+02  0.32593466705E+02  0.86056030907E+02  0.47000000000E+01 0. -1.
        -13    1    6    6    0    0 -0.14807850858E+00  0.83704084912E+01  0.15400331745E+02  0.17528715966E+02  0.00000000000E+00 0.  1.
         14    1    6    6    0    0  0.17651984676E+02 -0.18390572080E+02 -0.91773528407E+02  0.95248024760E+02  0.00000000000E+00 0. -1.
         -5    1    3    3    0  503 -0.14010010835E+02 -0.17073522017E+02  0.11193653987E+03  0.11419135044E+03  0.47000000000E+01 0.  1.
         13    1    4    4    0    0  0.14215027278E+02 -0.26938989788E+02  0.12102305973E+02  0.32775630904E+02  0.00000000000E+00 0. -1.
        -14    1    4    4    0    0 -0.64167437691E+02 -0.10487265400E+02 -0.24589626654E+02  0.69513254379E+02  0.00000000000E+00 0.  1.
<mgrwt>
<rscale>  2 0.19353474E+03</rscale>
<asrwt>0</asrwt>
<pdfrwt beam="1">  1       21 0.36229423E-01 0.19395310E+03</pdfrwt>
<pdfrwt beam="2">  1       21 0.27664886E-01 0.19395310E+03</pdfrwt>
<totfact> 0.91578156E+04</totfact>
</mgrwt>
</event>
<event>
12    1  0.1039378E-001  0.2103099E+03  0.7546771E-02  0.1141766E+00
         21   -1    0    0  501  502  0.00000000000E+00  0.00000000000E+00  0.23467181639E+03  0.23467181639E+03  0.00000000000E+00 0.  1.
         21   -1    0    0  502  503 -0.00000000000E+00 -0.00000000000E+00 -0.20159763648E+03  0.20159763648E+03  0.00000000000E+00 0.  1.
         -6    2    1    2    0  503  0.10978838702E+03  0.36252277961E+02 -0.43122334189E+02  0.21468527919E+03  0.17567730592E+03 0.  0.
        -24    2    3    3    0    0  0.12022481750E+03 -0.18996413218E+02 -0.56609975877E+02  0.15667369900E+03  0.80790396287E+02 0.  0.
          6    2    1    2  501    0 -0.10978838702E+03 -0.36252277961E+02  0.76196514103E+02  0.22158417367E+03  0.17299109710E+03 0.  0.
         24    2    5    5    0    0 -0.14612349168E+03 -0.37748508924E+02  0.63777176512E+02  0.18286972568E+03  0.81220585932E+02 0.  0.
          5    1    5    5  501    0  0.36335104654E+02  0.14962309639E+01  0.12419337591E+02  0.38714447994E+02  0.47000000000E+01 0. -1.
        -13    1    6    6    0    0 -0.13186576701E+03 -0.13762551944E+02  0.75535802852E+02  0.15258979605E+03  0.00000000000E+00 0.  1.
         14    1    6    6    0    0 -0.14257724668E+02 -0.23985956981E+02 -0.11758626340E+02  0.30279929630E+02  0.00000000000E+00 0. -1.
         -5    1    3    3    0  503 -0.10436430475E+02  0.55248691179E+02  0.13487641688E+02  0.58011580192E+02  0.47000000000E+01 0.  1.
         13    1    4    4    0    0  0.86538998625E+01 -0.81507365500E+01 -0.41974514114E+02  0.43625500848E+02  0.00000000000E+00 0. -1.
        -14    1    4    4    0    0  0.11157091764E+03 -0.10845676668E+02 -0.14635461763E+02  0.11304819815E+03  0.00000000000E+00 0.  1.
<mgrwt>
<rscale>  2 0.20974795E+03</rscale>
<asrwt>0</asrwt>
<pdfrwt beam="1">  1       21 0.36103356E-01 0.21030985E+03</pdfrwt>
<pdfrwt beam="2">  1       21 0.31015021E-01 0.21030985E+03</pdfrwt>
<totfact> 0.73311814E+04</totfact>
</mgrwt>
</event>
<event>
12    1  0.1039378E-001  0.2167642E+03  0.7546771E-02  0.1136348E+00
         21   -1    0    0  501  502  0.00000000000E+00  0.00000000000E+00  0.60158293964E+03  0.60158293964E+03  0.00000000000E+00 0.  1.
         21   -1    0    0  502  503 -0.00000000000E+00 -0.00000000000E+00 -0.79670513582E+02  0.79670513582E+02  0.00000000000E+00 0.  1.
         -6    2    1    2    0  503  0.51594127474E+02  0.11821526057E+03  0.30964093095E+03  0.37797386572E+03  0.17421232801E+03 0.  0.
        -24    2    3    3    0    0  0.27510294796E+02  0.96149167217E+02  0.90588165055E+02  0.15644926727E+03  0.79174989146E+02 0.  0.
          6    2    1    2  501    0 -0.51594127474E+02 -0.11821526057E+03  0.21227149511E+03  0.30327958750E+03  0.17401873099E+03 0.  0.
         24    2    5    5    0    0 -0.30200554068E+02 -0.14291958971E+03  0.21585326502E+03  0.27006952973E+03  0.70759001415E+02 0.  0.
          5    1    5    5  501    0 -0.21393573405E+02  0.24704329139E+02 -0.35817699117E+01  0.33210057768E+02  0.47000000000E+01 0. -1.
        -11    1    6    6    0    0 -0.36826702190E+02 -0.56466640329E+02  0.53692600968E+02  0.86183425685E+02  0.00000000000E+00 0.  1.
         12    1    6    6    0    0  0.66261481220E+01 -0.86452949378E+02  0.16216066405E+03  0.18388610404E+03  0.00000000000E+00 0. -1.
         -5    1    3    3    0  503  0.24083832678E+02  0.22066093351E+02  0.21905276590E+03  0.22152459845E+03  0.47000000000E+01 0.  1.
         11    1    4    4    0    0  0.95944961975E+01  0.10133621628E+03  0.53634544466E+02  0.11505541034E+03  0.00000000000E+00 0. -1.
        -12    1    4    4    0    0  0.17915798599E+02 -0.51870490660E+01  0.36953620589E+02  0.41393856936E+02  0.00000000000E+00 0.  1.
<mgrwt>
<rscale>  2 0.21672534E+03</rscale>
<asrwt>0</asrwt>
<pdfrwt beam="1">  1       21 0.92551218E-01 0.21676424E+03</pdfrwt>
<pdfrwt beam="2">  1       21 0.12257003E-01 0.21676424E+03</pdfrwt>
<totfact> 0.54978761E+04</totfact>
</mgrwt>
</event>
<event>
12    1  0.1039378E-001  0.1811620E+03  0.7546771E-02  0.1166763E+00
         21   -1    0    0  503  502  0.00000000000E+00  0.00000000000E+00  0.12008103205E+04  0.12008103205E+04  0.00000000000E+00 0.  1.
         21   -1    0    0  501  503 -0.00000000000E+00 -0.00000000000E+00 -0.86849758172E+02  0.86849758172E+02  0.00000000000E+00 0.  1.
          6    2    1    2  501    0 -0.19293385187E+02  0.52360706264E+02  0.23934275182E+02  0.18273624059E+03  0.17235372297E+03 0.  0.
         24    2    3    3    0    0  0.53007568207E+02  0.18822445099E+02  0.41182229689E+01  0.10047441014E+03  0.83150830455E+02 0.  0.
         -6    2    1    2    0  502  0.19293385187E+02 -0.52360706264E+02  0.10900262872E+04  0.11049238381E+04  0.17200436920E+03 0.  0.
        -24    2    5    5    0    0 -0.39117904770E+02 -0.33900826315E+02  0.90228514621E+03  0.90738530523E+03  0.80932877001E+02 0.  0.
          5    1    3    3  501    0 -0.72300953394E+02  0.33538261166E+02  0.19816052213E+02  0.82261830450E+02  0.47000000000E+01 0. -1.
        -13    1    4    4    0    0  0.26451249245E+02  0.43963840338E+02  0.26348916457E+02  0.57678013509E+02  0.00000000000E+00 0.  1.
         14    1    4    4    0    0  0.26556318962E+02 -0.25141395240E+02 -0.22230693488E+02  0.42796396628E+02  0.00000000000E+00 0. -1.
         -5    1    5    5    0  502  0.58411289957E+02 -0.18459879949E+02  0.18774114096E+03  0.19753853288E+03  0.47000000000E+01 0.  1.
         11    1    6    6    0    0  0.97452057561E+01  0.20046574030E+02  0.27184903075E+03  0.27276130533E+03  0.00000000000E+00 0. -1.
        -12    1    6    6    0    0 -0.48863110527E+02 -0.53947400345E+02  0.63043611546E+03  0.63462399990E+03  0.00000000000E+00 0.  1.
<mgrwt>
<rscale>  2 0.18107890E+03</rscale>
<asrwt>0</asrwt>
<pdfrwt beam="1">  1       21 0.18474004E+00 0.18116204E+03</pdfrwt>
<pdfrwt beam="2">  1       21 0.13361502E-01 0.18116204E+03</pdfrwt>
<totfact> 0.82581204E+03</totfact>
</mgrwt>
</event>
<event>
12    1  0.1039378E-001  0.2038829E+03  0.7546771E-02  0.1146618E+00
         21   -1    0    0  501  502  0.00000000000E+00  0.00000000000E+00  0.36672681448E+03  0.36672681448E+03  0.00000000000E+00 0.  1.
         21   -1    0    0  502  503 -0.00000000000E+00 -0.00000000000E+00 -0.11313770310E+03  0.11313770310E+03  0.00000000000E+00 0.  1.
         -6    2    1    2    0  503  0.39689256105E+02  0.99256235304E+02  0.13363434531E+03  0.24331134960E+03  0.17296021884E+03 0.  0.
        -24    2    3    3    0    0  0.19363416544E+02  0.97776958592E+02  0.16291253858E+03  0.20733037387E+03  0.80685272322E+02 0.  0.
          6    2    1    2  501    0 -0.39689256105E+02 -0.99256235304E+02  0.11995476607E+03  0.23655316798E+03  0.17361226363E+03 0.  0.
         24    2    5    5    0    0 -0.93687068843E+02 -0.72184658434E+02  0.89773716371E+02  0.16886550429E+03  0.80426031896E+02 0.  0.
          5    1    5    5  501    0  0.53997812738E+02 -0.27071576870E+02  0.30181049697E+02  0.67687663688E+02  0.47000000000E+01 0. -1.
        -11    1    6    6    0    0 -0.75314142498E+02 -0.44122479359E+02  0.17269903176E+02  0.88979002021E+02  0.00000000000E+00 0.  1.
         12    1    6    6    0    0 -0.18372926345E+02 -0.28062179075E+02  0.72503813196E+02  0.79886502269E+02  0.00000000000E+00 0. -1.
         -5    1    3    3    0  503  0.20325839561E+02  0.14792767126E+01 -0.29278193273E+02  0.35980975734E+02  0.47000000000E+01 0.  1.
         11    1    4    4    0    0  0.22072709636E+01  0.14497675987E+02  0.10122606269E+03  0.10228279631E+03  0.00000000000E+00 0. -1.
        -12    1    4    4    0    0  0.17156145581E+02  0.83279282605E+02  0.61686475894E+02  0.10504757756E+03  0.00000000000E+00 0.  1.
<mgrwt>
<rscale>  2 0.20374407E+03</rscale>
<asrwt>0</asrwt>
<pdfrwt beam="1">  1       21 0.56419510E-01 0.20388295E+03</pdfrwt>
<pdfrwt beam="2">  1       21 0.17405801E-01 0.20388295E+03</pdfrwt>
<totfact> 0.87854662E+04</totfact>
</mgrwt>
</event>
<event>
12    1  0.1039378E-001  0.2004804E+03  0.7546771E-02  0.1150288E+00
         21   -1    0    0  501  502  0.00000000000E+00  0.00000000000E+00  0.27632038885E+03  0.27632038885E+03  0.00000000000E+00 0.  1.
         21   -1    0    0  502  503 -0.00000000000E+00 -0.00000000000E+00 -0.22661066894E+03  0.22661066894E+03  0.00000000000E+00 0.  1.
         -6    2    1    2    0  503  0.16833929305E+02 -0.91433066109E+02 -0.12841661187E+03  0.23808235063E+03  0.17762036123E+03 0.  0.
        -24    2    3    3    0    0 -0.47489130853E+02 -0.11594992382E+02 -0.83958181110E+02  0.12623327308E+03  0.80599017728E+02 0.  0.
          6    2    1    2  501    0 -0.16833929305E+02  0.91433066109E+02  0.17812633178E+03  0.26484870716E+03  0.17254698160E+03 0.  0.
         24    2    5    5    0    0  0.35213057256E+02  0.63795806564E+02  0.17566075941E+03  0.20568050648E+03  0.78344776550E+02 0.  0.
          5    1    5    5  501    0 -0.52046986561E+02  0.27637259544E+02  0.24655723666E+01  0.59168200685E+02  0.47000000000E+01 0. -1.
        -11    1    6    6    0    0  0.20978048124E+02  0.95403326829E+01  0.13359359290E+03  0.13556675298E+03  0.00000000000E+00 0.  1.
         12    1    6    6    0    0  0.14235009132E+02  0.54255473882E+02  0.42067166512E+02  0.70113753497E+02  0.00000000000E+00 0. -1.
         -5    1    3    3    0  503  0.64323060158E+02 -0.79838073726E+02 -0.44458430758E+02  0.11184907755E+03  0.47000000000E+01 0.  1.
         13    1    4    4    0    0 -0.39716559683E+02 -0.43051233987E+02 -0.69105392688E+02  0.90589012355E+02  0.00000000000E+00 0. -1.
        -14    1    4    4    0    0 -0.77725711701E+01  0.31456241604E+02 -0.14852788422E+02  0.35644260721E+02  0.00000000000E+00 0.  1.
<mgrwt>
<rscale>  2 0.19935067E+03</rscale>
<asrwt>0</asrwt>
<pdfrwt beam="1">  1       21 0.42510829E-01 0.20048037E+03</pdfrwt>
<pdfrwt beam="2">  1       21 0.34863180E-01 0.20048037E+03</pdfrwt>
<totfact> 0.42052308E+04</totfact>
</mgrwt>
</event>
<event>
12    1  0.1039378E-001  0.2157460E+03  0.7546771E-02  0.1137734E+00
         21   -1    0    0  503  502  0.00000000000E+00  0.00000000000E+00  0.73341940849E+02  0.73341940849E+02  0.00000000000E+00 0.  1.
         21   -1    0    0  501  503 -0.00000000000E+00 -0.00000000000E+00 -0.71587325905E+03  0.71587325905E+03  0.00000000000E+00 0.  1.
          6    2    1    2  501    0  0.11528818702E+03  0.53819180195E+02 -0.45974003081E+03  0.50644498327E+03  0.17011100767E+03 0.  0.
         24    2    3    3    0    0  0.50001063160E+02  0.25641394805E+02 -0.10265347353E+03  0.14231685263E+03  0.80986193093E+02 0.  0.
         -6    2    1    2    0  502 -0.11528818702E+03 -0.53819180195E+02 -0.18279128739E+03  0.28277021663E+03  0.17423682286E+03 0.  0.
        -24    2    5    5    0    0 -0.90491911093E+02 -0.10834636571E+02 -0.19683605641E+03  0.23098342461E+03  0.79389760160E+02 0.  0.
          5    1    3    3  501    0  0.65287123864E+02  0.28177785391E+02 -0.35708655728E+03  0.36412813064E+03  0.47000000000E+01 0. -1.
        -11    1    4    4    0    0  0.27242250318E+02  0.78931170679E+01 -0.10911524229E+03  0.11274119744E+03  0.00000000000E+00 0.  1.
         12    1    4    4    0    0  0.22758812841E+02  0.17748277737E+02  0.64617687657E+01  0.29575655194E+02  0.00000000000E+00 0. -1.
         -5    1    5    5    0  502 -0.24796275930E+02 -0.42984543624E+02  0.14044769018E+02  0.51786792016E+02  0.47000000000E+01 0.  1.
         11    1    6    6    0    0 -0.17882070809E+02  0.27693821228E+02 -0.92238376950E+02  0.97952204534E+02  0.00000000000E+00 0. -1.
        -12    1    6    6    0    0 -0.72609840284E+02 -0.38528457799E+02 -0.10459767946E+03  0.13303122008E+03  0.00000000000E+00 0.  1.
<mgrwt>
<rscale>  2 0.21491166E+03</rscale>
<asrwt>0</asrwt>
<pdfrwt beam="1">  1       21 0.11283376E-01 0.21574601E+03</pdfrwt>
<pdfrwt beam="2">  1       21 0.11013435E+00 0.21574601E+03</pdfrwt>
<totfact> 0.42132841E+04</totfact>
</mgrwt>
</event>
<event>
12    1  0.1039378E-001  0.2413502E+03  0.7546771E-02  0.1119091E+00
         21   -1    0    0  503  502  0.00000000000E+00  0.00000000000E+00  0.16907939668E+03  0.16907939668E+03  0.00000000000E+00 0.  1.
         21   -1    0    0  501  503 -0.00000000000E+00 -0.00000000000E+00 -0.45368519448E+03  0.45368519448E+03  0.00000000000E+00 0. -1.
          6    2    1    2  501    0 -0.16599377041E+03  0.25674289433E+02 -0.29647707104E+03  0.38229384616E+03  0.17331136778E+03 0.  0.
         24    2    3    3    0    0 -0.15206075159E+03  0.75331988030E+02 -0.21186992102E+03  0.28309467339E+03  0.80351416113E+02 0.  0.
         -6    2    1    2    0  502  0.16599377041E+03 -0.25674289433E+02  0.11871273239E+02  0.24047074500E+03  0.17167455000E+03 0.  0.
        -24    2    5    5    0    0  0.14282693692E+03  0.26456080897E+02 -0.32205054425E+02  0.16822747303E+03  0.78510247900E+02 0.  0.
          5    1    3    3  501    0 -0.13933018825E+02 -0.49657698597E+02 -0.84607150019E+02  0.99199172769E+02  0.47000000000E+01 0. -1.
        -13    1    4    4    0    0 -0.81309208943E+02  0.81438691295E+02 -0.14885979576E+03  0.18815601689E+03  0.00000000000E+00 0.  1.
         14    1    4    4    0    0 -0.70751542647E+02 -0.61067032649E+01 -0.63010125268E+02  0.94938656500E+02  0.00000000000E+00 0. -1.
         -5    1    5    5    0  502  0.23166833498E+02 -0.52130370330E+02  0.44076327664E+02  0.72243271973E+02  0.47000000000E+01 0.  1.
         13    1    6    6    0    0  0.10779590617E+03  0.53490628108E+02 -0.17531369386E+02  0.12160819707E+03  0.00000000000E+00 0. -1.
        -14    1    6    6    0    0  0.35031030749E+02 -0.27034547211E+02 -0.14673685040E+02  0.46619275958E+02  0.00000000000E+00 0.  1.
<mgrwt>
<rscale>  2 0.24105652E+03</rscale>
<asrwt>0</asrwt>
<pdfrwt beam="1">  1       21 0.26012215E-01 0.24135023E+03</pdfrwt>
<pdfrwt beam="2">  1       21 0.69797721E-01 0.24135023E+03</pdfrwt>
<totfact> 0.25509559E+04</totfact>
</mgrwt>
</event>
<event>
12    1  0.1039378E-001  0.2273866E+03  0.7546771E-02  0.1128542E+00
         21   -1    0    0  503  502  0.00000000000E+00  0.00000000000E+00  0.12765192392E+03  0.12765192392E+03  0.00000000000E+00 0. -1.
         21   -1    0    0  501  503 -0.00000000000E+00 -0.00000000000E+00 -0.40692887638E+03  0.40692887638E+03  0.00000000000E+00 0. -1.
          6    2    1    2  501    0 -0.13866776068E+03 -0.46632190009E+02 -0.16015297884E+03  0.27812520041E+03  0.17407280510E+03 0.  0.
         24    2    3    3    0    0 -0.42564778864E+02  0.32860316494E+02 -0.60155923955E+02  0.11819914659E+03  0.86375588384E+02 0.  0.
         -6    2    1    2    0  502  0.13866776068E+03  0.46632190009E+02 -0.11912397362E+03  0.25645559988E+03  0.17371138311E+03 0.  0.
        -24    2    5    5    0    0  0.40413773890E+02  0.49145270546E+02 -0.11993507800E+03  0.15805382457E+03  0.80920070377E+02 0.  0.
          5    1    3    3  501    0 -0.96102981816E+02 -0.79492506503E+02 -0.99997054882E+02  0.15992605382E+03  0.47000000000E+01 0. -1.
        -11    1    4    4    0    0 -0.65930550665E+02  0.96653070781E+01 -0.28329329719E+02  0.72407227500E+02  0.00000000000E+00 0.  1.
         12    1    4    4    0    0  0.23365771800E+02  0.23195009416E+02 -0.31826594236E+02  0.45791919094E+02  0.00000000000E+00 0. -1.
         -5    1    5    5    0  502  0.98253986791E+02 -0.25130805366E+01  0.81110437988E+00  0.98401775311E+02  0.47000000000E+01 0.  1.
         13    1    6    6    0    0 -0.19352648170E+02 -0.49650653231E+01 -0.38975070169E+02  0.43797636461E+02  0.00000000000E+00 0. -1.
        -14    1    6    6    0    0  0.59766422060E+02  0.54110335869E+02 -0.80960007831E+02  0.11425618811E+03  0.00000000000E+00 0.  1.
<mgrwt>
<rscale>  2 0.22731739E+03</rscale>
<asrwt>0</asrwt>
<pdfrwt beam="1">  1       21 0.19638757E-01 0.22738657E+03</pdfrwt>
<pdfrwt beam="2">  1       21 0.62604443E-01 0.22738657E+03</pdfrwt>
<totfact> 0.55575672E+04</totfact>
</mgrwt>
</event>
<event>
12    1  0.1039378E-001  0.2266044E+03  0.7546771E-02  0.1129085E+00
         21   -1    0    0  503  502  0.00000000000E+00  0.00000000000E+00  0.16299589290E+04  0.16299589290E+04  0.00000000000E+00 0. -1.
         21   -1    0    0  501  503 -0.00000000000E+00 -0.00000000000E+00 -0.39530115583E+02  0.39530115583E+02  0.00000000000E+00 0. -1.
          6    2    1    2  501    0 -0.14198041149E+03 -0.35751849108E+02  0.41874325107E+03  0.47612545957E+03  0.17295349367E+03 0.  0.
         24    2    3    3    0    0 -0.11177974694E+03  0.34855285962E+02  0.21507427927E+03  0.25840869922E+03  0.82513680348E+02 0.  0.
         -6    2    1    2    0  502  0.14198041149E+03  0.35751849108E+02  0.11716855623E+04  0.11933635850E+04  0.17272219621E+03 0.  0.
        -24    2    5    5    0    0  0.85520282500E+02 -0.41584642667E+02  0.53276446340E+03  0.54729010637E+03  0.81519849394E+02 0.  0.
          5    1    3    3  501    0 -0.30200664546E+02 -0.70607135069E+02  0.20366897181E+03  0.21771676035E+03  0.47000000000E+01 0. -1.
        -11    1    4    4    0    0 -0.15131502316E+02  0.25951503637E+02  0.11555910598E+03  0.11939995761E+03  0.00000000000E+00 0.  1.
         12    1    4    4    0    0 -0.96648244624E+02  0.89037823245E+01  0.99515173292E+02  0.13900874161E+03  0.00000000000E+00 0. -1.
         -5    1    5    5    0  502  0.56460128986E+02  0.77336491775E+02  0.63892109890E+03  0.64607347859E+03  0.47000000000E+01 0.  1.
         13    1    6    6    0    0  0.76063296720E+02 -0.13957927531E+02  0.48630973559E+03  0.49242015371E+03  0.00000000000E+00 0. -1.
        -14    1    6    6    0    0  0.94569857804E+01 -0.27626715136E+02  0.46454727808E+02  0.54869952661E+02  0.00000000000E+00 0.  1.
<mgrwt>
<rscale>  2 0.22656024E+03</rscale>
<asrwt>0</asrwt>
<pdfrwt beam="1">  1       21 0.25076286E+00 0.22660438E+03</pdfrwt>
<pdfrwt beam="2">  1       21 0.60815575E-02 0.22660438E+03</pdfrwt>
<totfact> 0.12306788E+04</totfact>
</mgrwt>
</event>
<event>
12    1  0.1039378E-001  0.1914975E+03  0.7546771E-02  0.1158700E+00
         21   -1    0    0  503  502  0.00000000000E+00  0.00000000000E+00  0.18866416564E+04  0.18866416564E+04  0.00000000000E+00 0. -1.
         21   -1    0    0  501  503 -0.00000000000E+00 -0.00000000000E+00 -0.44697699016E+02  0.44697699016E+02  0.00000000000E+00 0. -1.
          6    2    1    2  501    0  0.62197813868E+02 -0.14940093912E+02  0.17796144088E+03  0.25637394607E+03  0.17310560744E+03 0.  0.
         24    2    3    3    0    0  0.33840186103E+02  0.52155019716E+02  0.59045840400E+02  0.11684287655E+03  0.79375955137E+02 0.  0.
         -6    2    1    2    0  502 -0.62197813868E+02  0.14940093912E+02  0.16639825165E+04  0.16749654093E+04  0.18049801333E+03 0.  0.
        -24    2    5    5    0    0 -0.91631988888E+02  0.60425648389E+02  0.11944252058E+04  0.12022694560E+04  0.82174156998E+02 0.  0.
          5    1    3    3  501    0  0.28357627765E+02 -0.67095113628E+02  0.11891560048E+03  0.13953106952E+03  0.47000000000E+01 0. -1.
        -11    1    4    4    0    0 -0.26010431317E+02  0.20200288931E+02  0.20955287719E+02  0.39034834361E+02  0.00000000000E+00 0.  1.
         12    1    4    4    0    0  0.59850617420E+02  0.31954730785E+02  0.38090552681E+02  0.77808042185E+02  0.00000000000E+00 0. -1.
         -5    1    5    5    0  502  0.29434175020E+02 -0.45485554477E+02  0.46955731067E+03  0.47269595336E+03  0.47000000000E+01 0.  1.
         13    1    6    6    0    0 -0.17264341975E+02  0.46062674811E+02  0.73484713730E+03  0.73649178047E+03  0.00000000000E+00 0. -1.
        -14    1    6    6    0    0 -0.74367646913E+02  0.14362973578E+02  0.45957806854E+03  0.46577767550E+03  0.00000000000E+00 0.  1.
<mgrwt>
<rscale>  2 0.18973555E+03</rscale>
<asrwt>0</asrwt>
<pdfrwt beam="1">  1       21 0.29025250E+00 0.19149754E+03</pdfrwt>
<pdfrwt beam="2">  1       21 0.68765706E-02 0.19149754E+03</pdfrwt>
<totfact> 0.60665285E+03</totfact>
</mgrwt>
</event>
<event>
11    1  0.1039378E-001  0.4955506E+03  0.7546771E-02  0.1015025E+00
         21   -1    0    0  503  502  0.00000000000E+00  0.00000000000E+00  0.37642669508E+03  0.37642669508E+03  0.00000000000E+00 0. -1.
         21   -1    0    0  501  503 -0.00000000000E+00 -0.00000000000E+00 -0.65124118738E+03  0.65124118738E+03  0.00000000000E+00 0.  1.
          6    2    1    2  501    0 -0.15631586885E+02 -0.46275145925E+03 -0.12406707076E+03  0.50969566967E+03  0.17324485009E+03 0.  0.
         24    2    3    3    0    0  0.47698393848E+01 -0.11382147395E+03 -0.70051188160E+02  0.15598935306E+03  0.80295890336E+02 0.  0.
         -6    2    1    2    0  502  0.15631586885E+02  0.46275145925E+03 -0.15074742154E+03  0.51797221279E+03  0.17659889176E+03 0.  0.
          5    1    3    3  501    0 -0.20401426270E+02 -0.34892998530E+03 -0.54015882602E+02  0.35370631661E+03  0.47000000000E+01 0. -1.
        -11    1    4    4    0    0 -0.32695503304E+02 -0.74654164255E+02 -0.59152018444E+02  0.10070353252E+03  0.00000000000E+00 0.  1.
         12    1    4    4    0    0  0.37465342689E+02 -0.39167309693E+02 -0.10899169716E+02  0.55285820532E+02  0.00000000000E+00 0. -1.
         -5    1    5    5    0  502 -0.50630856928E+02  0.41533977551E+02 -0.10834153685E+02  0.66543398250E+02  0.47000000000E+01 0.  1.
         11    1    5    5    0    0  0.14566073793E+02  0.24485939571E+03 -0.74516790724E+02  0.25636116374E+03  0.00000000000E+00 0. -1.
        -12    1    5    5    0    0  0.51696370021E+02  0.17635808599E+03 -0.65396477129E+02  0.19506765080E+03  0.00000000000E+00 0.  1.
<mgrwt>
<rscale>  2 0.49525403E+03</rscale>
<asrwt>0</asrwt>
<pdfrwt beam="1">  1       21 0.57911800E-01 0.49555063E+03</pdfrwt>
<pdfrwt beam="2">  1       21 0.10019095E+00 0.49555063E+03</pdfrwt>
<totfact> 0.19375492E+03</totfact>
</mgrwt>
</event>
<event>
12    1  0.1039378E-001  0.2594444E+03  0.7546771E-02  0.1107480E+00
         21   -1    0    0  501  502  0.00000000000E+00  0.00000000000E+00  0.14010041123E+03  0.14010041123E+03  0.00000000000E+00 0.  1.
         21   -1    0    0  502  503 -0.00000000000E+00 -0.00000000000E+00 -0.50969223760E+03  0.50969223760E+03  0.00000000000E+00 0.  1.
         -6    2    1    2    0  503 -0.74307939695E+02  0.17869472770E+03 -0.26265634349E+03  0.36918796155E+03  0.17279444599E+03 0.  0.
        -24    2    3    3    0    0 -0.45821228608E+02  0.13052306156E+03 -0.87110710924E+02  0.18487745929E+03  0.86345494428E+02 0.  0.
          6    2    1    2  501    0  0.74307939695E+02 -0.17869472770E+03 -0.10693548288E+03  0.28060468729E+03  0.17277244404E+03 0.  0.
         24    2    5    5    0    0 -0.16279573063E+02 -0.48467550936E+02 -0.15141525231E+02  0.97265014288E+02  0.81345492962E+02 0.  0.
          5    1    5    5  501    0  0.90587512759E+02 -0.13022717676E+03 -0.91793957649E+02  0.18333967300E+03  0.47000000000E+01 0. -1.
        -13    1    6    6    0    0 -0.23932569925E+02 -0.12198527285E+02  0.29063088787E+02  0.39575688256E+02  0.00000000000E+00 0.  1.
         14    1    6    6    0    0  0.76529968614E+01 -0.36269023651E+02 -0.44204614018E+02  0.57689326032E+02  0.00000000000E+00 0. -1.
         -5    1    3    3    0  503 -0.28486711087E+02  0.48171666142E+02 -0.17554563257E+03  0.18431050225E+03  0.47000000000E+01 0.  1.
         11    1    4    4    0    0 -0.26086981382E+02 -0.36852548817E+01 -0.67018388872E+01  0.27185039004E+02  0.00000000000E+00 0. -1.
        -12    1    4    4    0    0 -0.19734247226E+02  0.13420831644E+03 -0.80408872037E+02  0.15769242029E+03  0.00000000000E+00 0.  1.
<mgrwt>
<rscale>  2 0.25944074E+03</rscale>
<asrwt>0</asrwt>
<pdfrwt beam="1">  1       21 0.21553910E-01 0.25944440E+03</pdfrwt>
<pdfrwt beam="2">  1       21 0.78414190E-01 0.25944440E+03</pdfrwt>
<totfact> 0.27908084E+04</totfact>
</mgrwt>
</event>
<event>
12    1  0.1039378E-001  0.1966907E+03  0.7546771E-02  0.1154469E+00
         21   -1    0    0  501  502  0.00000000000E+00  0.00000000000E+00  0.59732126504E+02  0.59732126504E+02  0.00000000000E+00 0. -1.
         21   -1    0    0  502  503 -0.00000000000E+00 -0.00000000000E+00 -0.75232799409E+03  0.75232799409E+03  0.00000000000E+00 0. -1.
         -6    2    1    2    0  503  0.92873156209E+02 -0.34329542948E+01 -0.52324717794E+03  0.55899450281E+03  0.17334946389E+03 0.  0.
        -24    2    3    3    0    0  0.23478594503E+02 -0.29969911212E+02 -0.43320921173E+03  0.44216667806E+03  0.79948171210E+02 0.  0.
          6    2    1    2  501    0 -0.92873156209E+02  0.34329542948E+01 -0.16934868965E+03  0.25306561779E+03  0.16348094660E+03 0.  0.
         24    2    5    5    0    0  0.13385473046E+01 -0.13523855914E+02 -0.37851511573E+02  0.90348143822E+02  0.80903422524E+02 0.  0.
          5    1    5    5  501    0 -0.94211703514E+02  0.16956810209E+02 -0.13149717808E+03  0.16271747396E+03  0.47000000000E+01 0. -1.
        -13    1    6    6    0    0 -0.72218028222E+01  0.32888998230E+02 -0.83565482971E+01  0.34693984205E+02  0.00000000000E+00 0.  1.
         14    1    6    6    0    0  0.85603501268E+01 -0.46412854144E+02 -0.29494963276E+02  0.55654159617E+02  0.00000000000E+00 0. -1.
         -5    1    3    3    0  503  0.69394561706E+02  0.26536956917E+02 -0.90037966210E+02  0.11682782475E+03  0.47000000000E+01 0.  1.
         13    1    4    4    0    0  0.46110707813E+02 -0.25523691785E+02 -0.38646165403E+03  0.39003880096E+03  0.00000000000E+00 0. -1.
        -14    1    4    4    0    0 -0.22632113310E+02 -0.44462194266E+01 -0.46747557698E+02  0.52127877099E+02  0.00000000000E+00 0.  1.
<mgrwt>
<rscale>  2 0.19449432E+03</rscale>
<asrwt>0</asrwt>
<pdfrwt beam="1">  1       21 0.91895583E-02 0.19669073E+03</pdfrwt>
<pdfrwt beam="2">  1       21 0.11574276E+00 0.19669073E+03</pdfrwt>
<totfact> 0.54236597E+04</totfact>
</mgrwt>
</event>
<event>
12    1  0.1039378E-001  0.2493866E+03  0.7546771E-02  0.1115175E+00
         21   -1    0    0  501  502  0.00000000000E+00  0.00000000000E+00  0.73797156484E+02  0.73797156484E+02  0.00000000000E+00 0. -1.
         21   -1    0    0  502  503 -0.00000000000E+00 -0.00000000000E+00 -0.82515075897E+03  0.82515075897E+03  0.00000000000E+00 0. -1.
         -6    2    1    2    0  503  0.16602007341E+03 -0.39197053634E+01 -0.42532649375E+03  0.48847578908E+03  0.17357402274E+03 0.  0.
        -24    2    3    3    0    0  0.15082899414E+03  0.19287628720E+02 -0.42704566332E+03  0.46029077908E+03  0.79863662902E+02 0.  0.
          6    2    1    2  501    0 -0.16602007341E+03  0.39197053634E+01 -0.32602710873E+03  0.41047212637E+03  0.18605284742E+03 0.  0.
         24    2    5    5    0    0 -0.18228915943E+03  0.45414741243E+02 -0.25039213621E+03  0.32255591494E+03  0.77809125562E+02 0.  0.
          5    1    5    5  501    0  0.16269086025E+02 -0.41495035880E+02 -0.75634972529E+02  0.87916211430E+02  0.47000000000E+01 0. -1.
        -11    1    6    6    0    0 -0.72901672094E+02  0.12711220749E+02 -0.16221722374E+03  0.17829934550E+03  0.00000000000E+00 0.  1.
         12    1    6    6    0    0 -0.10938748734E+03  0.32703520494E+02 -0.88174912464E+02  0.14425656944E+03  0.00000000000E+00 0. -1.
         -5    1    3    3    0  503  0.15191079263E+02 -0.23207334083E+02  0.17191695748E+01  0.28185009996E+02  0.47000000000E+01 0.  1.
         11    1    4    4    0    0  0.72255715172E+02  0.33225346691E+02 -0.29915623436E+03  0.30954686978E+03  0.00000000000E+00 0. -1.
        -12    1    4    4    0    0  0.78573278972E+02 -0.13937717971E+02 -0.12788942897E+03  0.15074390930E+03  0.00000000000E+00 0.  1.
<mgrwt>
<rscale>  2 0.24706286E+03</rscale>
<asrwt>0</asrwt>
<pdfrwt beam="1">  1       21 0.11353409E-01 0.24938663E+03</pdfrwt>
<pdfrwt beam="2">  1       21 0.12694626E+00 0.24938663E+03</pdfrwt>
<totfact> 0.28817989E+04</totfact>
</mgrwt>
</event>
<event>
12    1  0.1039378E-001  0.2469817E+03  0.7546771E-02  0.1115271E+00
         21   -1    0    0  503  502  0.00000000000E+00  0.00000000000E+00  0.17114105849E+03  0.17114105849E+03  0.00000000000E+00 0. -1.
         21   -1    0    0  501  503 -0.00000000000E+00 -0.00000000000E+00 -0.40876635730E+03  0.40876635730E+03  0.00000000000E+00 0. -1.
          6    2    1    2  501    0 -0.66198066952E+02  0.16336700736E+03 -0.14728796209E+02  0.24742044526E+03  0.17299993102E+03 0.  0.
         24    2    3    3    0    0 -0.76536578074E+02  0.12112140413E+03  0.47313645753E+02  0.17150647811E+03  0.81533113744E+02 0.  0.
         -6    2    1    2    0  502  0.66198066952E+02 -0.16336700736E+03 -0.22289650260E+03  0.33248697053E+03  0.17260872382E+03 0.  0.
        -24    2    5    5    0    0 -0.18187676212E+02 -0.13172871873E+03 -0.12666791960E+03  0.20056288197E+03  0.80606828883E+02 0.  0.
          5    1    3    3  501    0  0.10338511123E+02  0.42245603235E+02 -0.62042441962E+02  0.75913967157E+02  0.47000000000E+01 0. -1.
        -13    1    4    4    0    0 -0.10678140017E+02  0.38265199702E+02  0.52145365437E+02  0.65554460710E+02  0.00000000000E+00 0.  1.
         14    1    4    4    0    0 -0.65858438057E+02  0.82856204428E+02 -0.48317196838E+01  0.10595201740E+03  0.00000000000E+00 0. -1.
         -5    1    5    5    0  502  0.84385743164E+02 -0.31638288631E+02 -0.96228582996E+02  0.13192408856E+03  0.47000000000E+01 0.  1.
         11    1    6    6    0    0 -0.46182043584E+02 -0.70107733166E+02 -0.47689918743E+02  0.96551560055E+02  0.00000000000E+00 0. -1.
        -12    1    6    6    0    0  0.27994367372E+02 -0.61620985567E+02 -0.78978000861E+02  0.10401132192E+03  0.00000000000E+00 0.  1.
<mgrwt>
<rscale>  2 0.24691316E+03</rscale>
<asrwt>0</asrwt>
<pdfrwt beam="1">  1       21 0.26329394E-01 0.24698166E+03</pdfrwt>
<pdfrwt beam="2">  1       21 0.62887131E-01 0.24698166E+03</pdfrwt>
<totfact> 0.31254245E+04</totfact>
</mgrwt>
</event>
<event>
12    1  0.1039378E-001  0.2345477E+03  0.7546771E-02  0.1124140E+00
         21   -1    0    0  503  502  0.00000000000E+00  0.00000000000E+00  0.62716773022E+03  0.62716773022E+03  0.00000000000E+00 0.  1.
         21   -1    0    0  501  503 -0.00000000000E+00 -0.00000000000E+00 -0.10032553232E+03  0.10032553232E+03  0.00000000000E+00 0. -1.
          6    2    1    2  501    0  0.10601706528E+03  0.12084630462E+03  0.12553589868E+03  0.26267139673E+03  0.16550997955E+03 0.  0.
         24    2    3    3    0    0  0.13221177181E+03  0.11823024053E+03  0.13297509369E+03  0.23491463064E+03  0.77744233010E+02 0.  0.
         -6    2    1    2    0  502 -0.10601706528E+03 -0.12084630462E+03  0.40130629922E+03  0.46482186581E+03  0.17078985236E+03 0.  0.
        -24    2    5    5    0    0 -0.13494299177E+03 -0.13117313012E+03  0.34057608479E+03  0.39660455501E+03  0.76727455488E+02 0.  0.
          5    1    3    3  501    0 -0.26194706527E+02  0.26160640909E+01 -0.74391950082E+01  0.27756766089E+02  0.47000000000E+01 0. -1.
        -11    1    4    4    0    0  0.12882919891E+02  0.49393500667E+01  0.47564820476E+02  0.49525538371E+02  0.00000000000E+00 0.  1.
         12    1    4    4    0    0  0.11932885192E+03  0.11329089046E+03  0.85410273213E+02  0.18538909227E+03  0.00000000000E+00 0. -1.
         -5    1    5    5    0  502  0.28925926492E+02  0.10326825505E+02  0.60730214427E+02  0.68217310800E+02  0.47000000000E+01 0.  1.
         13    1    6    6    0    0 -0.40990116657E+02 -0.81130575590E+02  0.11039789531E+03  0.14300368963E+03  0.00000000000E+00 0. -1.
        -14    1    6    6    0    0 -0.93952875116E+02 -0.50042554534E+02  0.23017818948E+03  0.25360086538E+03  0.00000000000E+00 0.  1.
<mgrwt>
<rscale>  2 0.23358776E+03</rscale>
<asrwt>0</asrwt>
<pdfrwt beam="1">  1       21 0.96487341E-01 0.23454769E+03</pdfrwt>
<pdfrwt beam="2">  1       21 0.15434698E-01 0.23454769E+03</pdfrwt>
<totfact> 0.32532943E+04</totfact>
</mgrwt>
</event>
<event>
12    1  0.1039378E-001  0.1889970E+03  0.7546771E-02  0.1159789E+00
         21   -1    0    0  503  502  0.00000000000E+00  0.00000000000E+00  0.33460058585E+03  0.33460058585E+03  0.00000000000E+00 0.  1.
         21   -1    0    0  501  503 -0.00000000000E+00 -0.00000000000E+00 -0.10659881910E+03  0.10659881910E+03  0.00000000000E+00 0. -1.
          6    2    1    2  501    0 -0.60149676788E+02 -0.42022837386E+02  0.94487036573E+02  0.21129993237E+03  0.17417221036E+03 0.  0.
         24    2    3    3    0    0  0.97760183198E+01 -0.65238815444E+02  0.90360058950E+02  0.13735599132E+03  0.79687229369E+02 0.  0.
         -6    2    1    2    0  502  0.60149676788E+02  0.42022837386E+02  0.13351473017E+03  0.22989947258E+03  0.17217340631E+03 0.  0.
        -24    2    5    5    0    0 -0.15364373258E+02  0.32688279867E+02  0.18464856336E+02  0.91884729932E+02  0.82445527889E+02 0.  0.
          5    1    3    3  501    0 -0.69925695108E+02  0.23215978058E+02  0.41269776221E+01  0.73943941049E+02  0.47000000000E+01 0. -1.
        -13    1    4    4    0    0 -0.33727776059E+02 -0.36188362004E+02  0.56239611022E+02  0.74900295529E+02  0.00000000000E+00 0.  1.
         14    1    4    4    0    0  0.43503794379E+02 -0.29050453440E+02  0.34120447928E+02  0.62455695795E+02  0.00000000000E+00 0. -1.
         -5    1    5    5    0  502  0.75514050047E+02  0.93345575193E+01  0.11504987384E+03  0.13801474265E+03  0.47000000000E+01 0.  1.
         13    1    6    6    0    0 -0.23434206289E+02  0.58471727059E+02  0.13073728976E+02  0.64335272433E+02  0.00000000000E+00 0. -1.
        -14    1    6    6    0    0  0.80698330309E+01 -0.25783447193E+02  0.53911273595E+01  0.27549457499E+02  0.00000000000E+00 0.  1.
<mgrwt>
<rscale>  2 0.18853520E+03</rscale>
<asrwt>0</asrwt>
<pdfrwt beam="1">  1       21 0.51477013E-01 0.18899699E+03</pdfrwt>
<pdfrwt beam="2">  1       21 0.16399818E-01 0.18899699E+03</pdfrwt>
<totfact> 0.11964981E+05</totfact>
</mgrwt>
</event>
<event>
12    1  0.1039378E-001  0.1803305E+03  0.7546771E-02  0.1168636E+00
         21   -1    0    0  501  502  0.00000000000E+00  0.00000000000E+00  0.54816989854E+03  0.54816989854E+03  0.00000000000E+00 0.  1.
         21   -1    0    0  502  503 -0.00000000000E+00 -0.00000000000E+00 -0.60380760434E+02  0.60380760434E+02  0.00000000000E+00 0.  1.
         -6    2    1    2    0  503 -0.32531781589E+02 -0.15320526780E+02  0.17771974431E+03  0.24985565034E+03  0.17190259781E+03 0.  0.
        -24    2    3    3    0    0  0.44454400520E+01  0.13801428993E+01  0.19074141547E+03  0.20698513357E+03  0.80242701917E+02 0.  0.
          6    2    1    2  501    0  0.32531781589E+02  0.15320526780E+02  0.31006939380E+03  0.35869500864E+03  0.17670892704E+03 0.  0.
         24    2    5    5    0    0  0.13389015578E+02 -0.28891537873E+02  0.29881666386E+03  0.30899726138E+03  0.71929981513E+02 0.  0.
          5    1    5    5  501    0  0.19142766011E+02  0.44212064653E+02  0.11252729941E+02  0.49697747258E+02  0.47000000000E+01 0. -1.
        -13    1    6    6    0    0  0.37548912975E+02  0.39188150774E+01  0.13375300963E+03  0.13897893928E+03  0.00000000000E+00 0.  1.
         14    1    6    6    0    0 -0.24159897397E+02 -0.32810352951E+02  0.16506365423E+03  0.17001832210E+03  0.00000000000E+00 0. -1.
         -5    1    3    3    0  503 -0.36977221641E+02 -0.16700669679E+02 -0.13021671165E+02  0.42870516768E+02  0.47000000000E+01 0.  1.
         11    1    4    4    0    0 -0.26119111357E+02  0.20928857299E+02  0.14387202475E+03  0.14771386039E+03  0.00000000000E+00 0. -1.
        -12    1    4    4    0    0  0.30564551409E+02 -0.19548714400E+02  0.46869390719E+02  0.59271273176E+02  0.00000000000E+00 0.  1.
<mgrwt>
<rscale>  2 0.17914198E+03</rscale>
<asrwt>0</asrwt>
<pdfrwt beam="1">  1       21 0.84333827E-01 0.18033048E+03</pdfrwt>
<pdfrwt beam="2">  1       21 0.92893481E-02 0.18033048E+03</pdfrwt>
<totfact> 0.11326151E+05</totfact>
</mgrwt>
</event>
<event>
12    1  0.1039378E-001  0.2738655E+03  0.7546771E-02  0.1099116E+00
         21   -1    0    0  503  502  0.00000000000E+00  0.00000000000E+00  0.11274712758E+04  0.11274712758E+04  0.00000000000E+00 0.  1.
         21   -1    0    0  501  503 -0.00000000000E+00 -0.00000000000E+00 -0.73119298799E+02  0.73119298799E+02  0.00000000000E+00 0. -1.
          6    2    1    2  501    0 -0.21219124901E+03 -0.75501558686E+00  0.34601234573E+03  0.44115174049E+03  0.17281382622E+03 0.  0.
         24    2    3    3    0    0 -0.47876640794E+02 -0.45520232389E+02  0.12678027779E+03  0.16350447376E+03  0.79348659803E+02 0.  0.
         -6    2    1    2    0  502  0.21219124901E+03  0.75501558686E+00  0.70833963129E+03  0.75943883413E+03  0.17313755608E+03 0.  0.
        -24    2    5    5    0    0  0.29717947592E+02 -0.29812130404E+02  0.19169215014E+03  0.21064236373E+03  0.76501015973E+02 0.  0.
          5    1    3    3  501    0 -0.16431460822E+03  0.44765216802E+02  0.21923206794E+03  0.27764726673E+03  0.47000000000E+01 0. -1.
        -13    1    4    4    0    0 -0.67941815457E+02 -0.45877140699E+02  0.91010457004E+02  0.12248961430E+03  0.00000000000E+00 0.  1.
         14    1    4    4    0    0  0.20065174663E+02  0.35690831082E+00  0.35769820785E+02  0.41014859463E+02  0.00000000000E+00 0. -1.
         -5    1    5    5    0  502  0.18247330142E+03  0.30567145991E+02  0.51664748115E+03  0.54879647040E+03  0.47000000000E+01 0.  1.
         11    1    6    6    0    0 -0.92279700469E+01 -0.24975300545E+02  0.15380693504E+03  0.15609450449E+03  0.00000000000E+00 0. -1.
        -12    1    6    6    0    0  0.38945917639E+02 -0.48368298595E+01  0.37885215104E+02  0.54547859237E+02  0.00000000000E+00 0.  1.
<mgrwt>
<rscale>  2 0.27381434E+03</rscale>
<asrwt>0</asrwt>
<pdfrwt beam="1">  1       21 0.17345711E+00 0.27386550E+03</pdfrwt>
<pdfrwt beam="2">  1       21 0.11249124E-01 0.27386550E+03</pdfrwt>
<totfact> 0.12601250E+04</totfact>
</mgrwt>
</event>
<event>
12    1  0.1039378E-001  0.1737748E+03  0.7546771E-02  0.1174578E+00
         21   -1    0    0  501  502  0.00000000000E+00  0.00000000000E+00  0.39975757543E+03  0.39975757543E+03  0.00000000000E+00 0.  1.
         21   -1    0    0  502  503 -0.00000000000E+00 -0.00000000000E+00 -0.17077347442E+03  0.17077347442E+03  0.00000000000E+00 0.  1.
         -6    2    1    2    0  503 -0.13512536256E+02  0.57925778167E+01 -0.99341579317E+02  0.20016598514E+03  0.17315175319E+03 0.  0.
        -24    2    3    3    0    0  0.80354099815E+01  0.66782904130E+02 -0.42967684564E+02  0.11423438501E+03  0.81723611669E+02 0.  0.
          6    2    1    2  501    0  0.13512536256E+02 -0.57925778167E+01  0.32832568033E+03  0.37036506471E+03  0.17075241200E+03 0.  0.
         24    2    5    5    0    0  0.15420045882E+02 -0.57607035576E+02  0.12472020663E+03  0.16020880013E+03  0.80965309441E+02 0.  0.
          5    1    5    5  501    0 -0.19075096253E+01  0.51814457759E+02  0.20360547369E+03  0.21015626458E+03  0.47000000000E+01 0. -1.
        -13    1    6    6    0    0  0.12481689271E+02  0.13216137775E+02  0.65083673828E+02  0.67574725036E+02  0.00000000000E+00 0.  1.
         14    1    6    6    0    0  0.29383566110E+01 -0.70823173351E+02  0.59636532805E+02  0.92634075092E+02  0.00000000000E+00 0. -1.
         -5    1    3    3    0  503 -0.21547946238E+02 -0.60990326314E+02 -0.56373894753E+02  0.85931600128E+02  0.47000000000E+01 0.  1.
         13    1    4    4    0    0  0.26149945553E+02  0.30649729535E+02 -0.58416745612E+02  0.70962960345E+02  0.00000000000E+00 0. -1.
        -14    1    4    4    0    0 -0.18114535572E+02  0.36133174595E+02  0.15449061048E+02  0.43271424665E+02  0.00000000000E+00 0.  1.
<mgrwt>
<rscale>  2 0.17317401E+03</rscale>
<asrwt>0</asrwt>
<pdfrwt beam="1">  1       21 0.61501165E-01 0.17377477E+03</pdfrwt>
<pdfrwt beam="2">  1       21 0.26272842E-01 0.17377477E+03</pdfrwt>
<totfact> 0.34183612E+04</totfact>
</mgrwt>
</event>
<event>
12    1  0.1039378E-001  0.1906050E+03  0.7546771E-02  0.1158736E+00
         21   -1    0    0  501  502  0.00000000000E+00  0.00000000000E+00  0.32597353014E+03  0.32597353014E+03  0.00000000000E+00 0. -1.
         21   -1    0    0  502  503 -0.00000000000E+00 -0.00000000000E+00 -0.11346219401E+03  0.11346219401E+03  0.00000000000E+00 0. -1.
         -6    2    1    2    0  503 -0.16072771469E+01 -0.71495465364E+02  0.14906639353E+03  0.24197326229E+03  0.17668074336E+03 0.  0.
        -24    2    3    3    0    0  0.28794826247E+01 -0.95222941307E+02  0.16909387660E+03  0.21025080643E+03  0.80851484395E+02 0.  0.
          6    2    1    2  501    0  0.16072771469E+01  0.71495465364E+02  0.63444942603E+02  0.19746246186E+03  0.17277725023E+03 0.  0.
         24    2    5    5    0    0  0.37177182994E+02  0.93275512308E+02  0.80789983735E+02  0.15204738619E+03  0.80677890667E+02 0.  0.
          5    1    5    5  501    0 -0.35569905847E+02 -0.21780046943E+02 -0.17345041133E+02  0.45415075677E+02  0.47000000000E+01 0. -1.
        -11    1    6    6    0    0 -0.43106088652E+01 -0.81596465043E+01 -0.70372939581E+01  0.11605373157E+02  0.00000000000E+00 0.  1.
         12    1    6    6    0    0  0.41487791859E+02  0.10143515881E+03  0.87827277693E+02  0.14044201303E+03  0.00000000000E+00 0. -1.
         -5    1    3    3    0  503 -0.44867597716E+01  0.23727475942E+02 -0.20027483069E+02  0.31722455862E+02  0.47000000000E+01 0.  1.
         13    1    4    4    0    0  0.96869072142E+01 -0.53749888668E+02  0.15742952408E+03  0.16663415543E+03  0.00000000000E+00 0. -1.
        -14    1    4    4    0    0 -0.68074245896E+01 -0.41473052639E+02  0.11664352520E+02  0.43616650999E+02  0.00000000000E+00 0.  1.
<mgrwt>
<rscale>  2 0.18969537E+03</rscale>
<asrwt>0</asrwt>
<pdfrwt beam="1">  1       21 0.50149773E-01 0.19060501E+03</pdfrwt>
<pdfrwt beam="2">  1       21 0.17455722E-01 0.19060501E+03</pdfrwt>
<totfact> 0.11260382E+05</totfact>
</mgrwt>
</event>
<event>
12    1  0.1039378E-001  0.2102116E+03  0.7546771E-02  0.1141404E+00
         21   -1    0    0  501  502  0.00000000000E+00  0.00000000000E+00  0.10193902145E+03  0.10193902145E+03  0.00000000000E+00 0. -1.
         21   -1    0    0  502  503 -0.00000000000E+00 -0.00000000000E+00 -0.12896942159E+04  0.12896942159E+04  0.00000000000E+00 0. -1.
         -6    2    1    2    0  503  0.79172730653E+02 -0.88899010043E+02 -0.26897570153E+02  0.21189625932E+03  0.17322006283E+03 0.  0.
        -24    2    3    3    0    0  0.93780532988E+02 -0.14623986222E+02  0.11981163686E+02  0.12666825337E+03  0.83021977744E+02 0.  0.
          6    2    1    2  501    0 -0.79172730653E+02  0.88899010043E+02 -0.11608576243E+04  0.11797369780E+04  0.17325575941E+03 0.  0.
         24    2    5    5    0    0 -0.73168846211E+02  0.11399878490E+03 -0.11199766945E+04  0.11311634693E+04  0.82665561837E+02 0.  0.
          5    1    5    5  501    0 -0.60038844422E+01 -0.25099774860E+02 -0.40880929842E+02  0.48573508738E+02  0.47000000000E+01 0. -1.
        -11    1    6    6    0    0 -0.39499650940E+02  0.11230425502E+03 -0.72071422102E+03  0.73048029166E+03  0.00000000000E+00 0.  1.
         12    1    6    6    0    0 -0.33669195271E+02  0.16945298786E+01 -0.39926247345E+03  0.40068317764E+03  0.00000000000E+00 0. -1.
         -5    1    3    3    0  503 -0.14607802335E+02 -0.74275023821E+02 -0.38878733839E+02  0.85228005947E+02  0.47000000000E+01 0.  1.
         11    1    4    4    0    0  0.78437166203E+02 -0.26731397845E+02  0.40389273005E+02  0.92185953629E+02  0.00000000000E+00 0. -1.
        -12    1    4    4    0    0  0.15343366786E+02  0.12107411623E+02 -0.28408109318E+02  0.34482299743E+02  0.00000000000E+00 0.  1.
<mgrwt>
<rscale>  2 0.21020424E+03</rscale>
<asrwt>0</asrwt>
<pdfrwt beam="1">  1       21 0.15682926E-01 0.21021159E+03</pdfrwt>
<pdfrwt beam="2">  1       21 0.19841450E+00 0.21021159E+03</pdfrwt>
<totfact> 0.48933456E+03</totfact>
</mgrwt>
</event>
<event>
12    1  0.1039378E-001  0.1944943E+03  0.7546771E-02  0.1154840E+00
         21   -1    0    0  503  502  0.00000000000E+00  0.00000000000E+00  0.15573507857E+03  0.15573507857E+03  0.00000000000E+00 0. -1.
         21   -1    0    0  501  503 -0.00000000000E+00 -0.00000000000E+00 -0.51233008333E+03  0.51233008333E+03  0.00000000000E+00 0.  1.
          6    2    1    2  501    0  0.77107601409E+02  0.44762935284E+02 -0.42184071856E+03  0.46451871579E+03  0.17285468729E+03 0.  0.
         24    2    3    3    0    0  0.27686596550E+02  0.78186591663E+02 -0.36206950159E+03  0.37993582802E+03  0.79857489834E+02 0.  0.
         -6    2    1    2    0  502 -0.77107601409E+02 -0.44762935284E+02  0.65245713799E+02  0.20354644610E+03  0.17095277120E+03 0.  0.
        -24    2    5    5    0    0 -0.11481358254E+02 -0.72854973334E+02  0.45719027098E+01  0.10974150090E+03  0.81133383994E+02 0.  0.
          5    1    3    3  501    0  0.49421004859E+02 -0.33423656378E+02 -0.59771216968E+02  0.84582887778E+02  0.47000000000E+01 0. -1.
        -11    1    4    4    0    0  0.45539901505E+02  0.78526837528E+02 -0.24049175173E+03  0.25705374826E+03  0.00000000000E+00 0.  1.
         12    1    4    4    0    0 -0.17853304955E+02 -0.34024586561E+00 -0.12157774986E+03  0.12288207976E+03  0.00000000000E+00 0. -1.
         -5    1    5    5    0  502 -0.65626243156E+02  0.28092038050E+02  0.60673811089E+02  0.93804945203E+02  0.47000000000E+01 0.  1.
         11    1    6    6    0    0  0.11636911310E+02 -0.31546488808E+02  0.38787562427E+02  0.51332968548E+02  0.00000000000E+00 0. -1.
        -12    1    6    6    0    0 -0.23118269564E+02 -0.41308484527E+02 -0.34215659717E+02  0.58408532351E+02  0.00000000000E+00 0.  1.
<mgrwt>
<rscale>  2 0.19407087E+03</rscale>
<asrwt>0</asrwt>
<pdfrwt beam="1">  1       21 0.23959243E-01 0.19449433E+03</pdfrwt>
<pdfrwt beam="2">  1       21 0.78820013E-01 0.19449433E+03</pdfrwt>
<totfact> 0.23336002E+04</totfact>
</mgrwt>
</event>
<event>
12    1  0.1039378E-001  0.1744068E+03  0.7546771E-02  0.1173463E+00
         21   -1    0    0  503  502  0.00000000000E+00  0.00000000000E+00  0.28336077195E+03  0.28336077195E+03  0.00000000000E+00 0.  1.
         21   -1    0    0  501  503 -0.00000000000E+00 -0.00000000000E+00 -0.12577499481E+03  0.12577499481E+03  0.00000000000E+00 0.  1.
          6    2    1    2  501    0  0.18119465301E+02  0.97585085331E+01 -0.30424998684E+00  0.17387632285E+03  0.17265381423E+03 0.  0.
         24    2    3    3    0    0  0.75398517479E+02 -0.79455386955E+01 -0.13834790964E+02  0.11223633059E+03  0.81593654410E+02 0.  0.
         -6    2    1    2    0  502 -0.18119465301E+02 -0.97585085331E+01  0.15789002712E+03  0.23525944391E+03  0.17318834191E+03 0.  0.
        -24    2    5    5    0    0  0.34945990442E+02  0.22912365456E+01  0.40567924995E+02  0.10584652108E+03  0.91275722251E+02 0.  0.
          5    1    3    3  501    0 -0.57279052178E+02  0.17704047229E+02  0.13530540977E+02  0.61639992260E+02  0.47000000000E+01 0. -1.
        -13    1    4    4    0    0  0.12068165821E+02 -0.16991328296E+02 -0.38414439639E+02  0.43703718793E+02  0.00000000000E+00 0.  1.
         14    1    4    4    0    0  0.63330351658E+02  0.90457896004E+01  0.24579648675E+02  0.68532611797E+02  0.00000000000E+00 0. -1.
         -5    1    5    5    0  502 -0.53065455743E+02 -0.12049745079E+02  0.11732210213E+03  0.12941292284E+03  0.47000000000E+01 0.  1.
         11    1    6    6    0    0  0.83096984355E+01 -0.42500716312E+02  0.29974748763E+02  0.52667328948E+02  0.00000000000E+00 0. -1.
        -12    1    6    6    0    0  0.26636292007E+02  0.44791952857E+02  0.10593176232E+02  0.53179192127E+02  0.00000000000E+00 0.  1.
<mgrwt>
<rscale>  2 0.17427399E+03</rscale>
<asrwt>0</asrwt>
<pdfrwt beam="1">  1       21 0.43593965E-01 0.17440684E+03</pdfrwt>
<pdfrwt beam="2">  1       21 0.19349999E-01 0.17440684E+03</pdfrwt>
<totfact> 0.12495158E+05</totfact>
</mgrwt>
</event>
<event>
12    1  0.1039378E-001  0.2284712E+03  0.7546771E-02  0.1128482E+00
         21   -1    0    0  503  502  0.00000000000E+00  0.00000000000E+00  0.98612364687E+02  0.98612364687E+02  0.00000000000E+00 0.  1.
         21   -1    0    0  501  503 -0.00000000000E+00 -0.00000000000E+00 -0.72256657287E+03  0.72256657287E+03  0.00000000000E+00 0. -1.
          6    2    1    2  501    0  0.95247791457E+02  0.11551302528E+03 -0.52750781803E+03  0.57318500623E+03  0.16691660343E+03 0.  0.
         24    2    3    3    0    0  0.54619414426E+02  0.11403068997E+03 -0.23881724798E+03  0.28160791938E+03  0.79265778487E+02 0.  0.
         -6    2    1    2    0  502 -0.95247791457E+02 -0.11551302528E+03 -0.96446390153E+02  0.24799393132E+03  0.17257949766E+03 0.  0.
        -24    2    5    5    0    0 -0.48172909114E+02 -0.10133740266E+03 -0.12952192550E+03  0.18855426559E+03  0.78656745000E+02 0.  0.
          5    1    3    3  501    0  0.40628377031E+02  0.14823353074E+01 -0.28869057005E+03  0.29157708685E+03  0.47000000000E+01 0. -1.
        -11    1    4    4    0    0  0.71363941921E+02  0.79672879467E+02 -0.14401007533E+03  0.17938640340E+03  0.00000000000E+00 0.  1.
         12    1    4    4    0    0 -0.16744527495E+02  0.34357810508E+02 -0.94807172648E+02  0.10222151598E+03  0.00000000000E+00 0. -1.
         -5    1    5    5    0  502 -0.47074882343E+02 -0.14175622624E+02  0.33075535352E+02  0.59439665739E+02  0.47000000000E+01 0.  1.
         11    1    6    6    0    0 -0.61570273940E+02 -0.95836337559E+02 -0.86124012911E+02  0.14280352877E+03  0.00000000000E+00 0. -1.
        -12    1    6    6    0    0  0.13397364826E+02 -0.55010650991E+01 -0.43397912594E+02  0.45750736814E+02  0.00000000000E+00 0.  1.
<mgrwt>
<rscale>  2 0.22740199E+03</rscale>
<asrwt>0</asrwt>
<pdfrwt beam="1">  1       21 0.15171133E-01 0.22847119E+03</pdfrwt>
<pdfrwt beam="2">  1       21 0.11116409E+00 0.22847119E+03</pdfrwt>
<totfact> 0.23960897E+04</totfact>
</mgrwt>
</event>
<event>
12    1  0.1039378E-001  0.1832678E+03  0.7546771E-02  0.1166489E+00
         21   -1    0    0  501  502  0.00000000000E+00  0.00000000000E+00  0.16646026076E+02  0.16646026076E+02  0.00000000000E+00 0.  1.
         21   -1    0    0  502  503 -0.00000000000E+00 -0.00000000000E+00 -0.19567459423E+04  0.19567459423E+04  0.00000000000E+00 0.  1.
         -6    2    1    2    0  503 -0.29543155697E+02  0.14824466353E+02 -0.10916061893E+04  0.11068835303E+04  0.18026234854E+03 0.  0.
        -24    2    3    3    0    0  0.19918606824E+02 -0.46043392484E+02 -0.42926759061E+03  0.43990086823E+03  0.82008320540E+02 0.  0.
          6    2    1    2  501    0  0.29543155697E+02 -0.14824466353E+02 -0.84849372696E+03  0.86650843810E+03  0.17263460187E+03 0.  0.
         24    2    5    5    0    0  0.47955817847E+02 -0.41497716046E+02 -0.29553522926E+03  0.31258093512E+03  0.79648906883E+02 0.  0.
          5    1    5    5  501    0 -0.18412662151E+02  0.26673249693E+02 -0.55295849770E+03  0.55392750298E+03  0.47000000000E+01 0. -1.
        -11    1    6    6    0    0 -0.46567791488E+01 -0.38729574266E+02 -0.62579625536E+02  0.73741949033E+02  0.00000000000E+00 0.  1.
         12    1    6    6    0    0  0.52612596996E+02 -0.27681417801E+01 -0.23295560372E+03  0.23883898609E+03  0.00000000000E+00 0. -1.
         -5    1    3    3    0  503 -0.49461762521E+02  0.60867858837E+02 -0.66233859869E+03  0.66698266207E+03  0.47000000000E+01 0.  1.
         11    1    4    4    0    0 -0.20808054993E+02 -0.21747995547E+02 -0.31139458329E+03  0.31284586774E+03  0.00000000000E+00 0. -1.
        -12    1    4    4    0    0  0.40726661818E+02 -0.24295396936E+02 -0.11787300732E+03  0.12705500049E+03  0.00000000000E+00 0.  1.
<mgrwt>
<rscale>  2 0.18136400E+03</rscale>
<asrwt>0</asrwt>
<pdfrwt beam="1">  1       21 0.25609279E-02 0.18326777E+03</pdfrwt>
<pdfrwt beam="2">  1       21 0.30103774E+00 0.18326777E+03</pdfrwt>
<totfact> 0.27914663E+04</totfact>
</mgrwt>
</event>
<event>
12    1  0.1039378E-001  0.1842834E+03  0.7546771E-02  0.1164381E+00
         21   -1    0    0  503  502  0.00000000000E+00  0.00000000000E+00  0.32588147697E+03  0.32588147697E+03  0.00000000000E+00 0. -1.
         21   -1    0    0  501  503 -0.00000000000E+00 -0.00000000000E+00 -0.17537532030E+03  0.17537532030E+03  0.00000000000E+00 0. -1.
          6    2    1    2  501    0  0.81105827858E+01  0.58497335508E+02 -0.86488088432E+02  0.20104578071E+03  0.17161438368E+03 0.  0.
         24    2    3    3    0    0  0.43240744412E+01  0.20499260812E+02  0.21840194843E+02  0.86087969829E+02  0.80592971932E+02 0.  0.
         -6    2    1    2    0  502 -0.81105827858E+01 -0.58497335508E+02  0.23699424510E+03  0.30021101656E+03  0.17456420720E+03 0.  0.
        -24    2    5    5    0    0 -0.52593576758E+02  0.67882073278E+01  0.82022124241E+02  0.12620128378E+03  0.79918527819E+02 0.  0.
          5    1    3    3  501    0  0.37865083446E+01  0.37998074696E+02 -0.10832828328E+03  0.11495781088E+03  0.47000000000E+01 0. -1.
        -11    1    4    4    0    0 -0.83881142730E+01 -0.27768894001E+02  0.21611130831E+02  0.36173372954E+02  0.00000000000E+00 0.  1.
         12    1    4    4    0    0  0.12712188714E+02  0.48268154812E+02  0.22906401225E+00  0.49914596875E+02  0.00000000000E+00 0. -1.
         -5    1    5    5    0  502  0.44482993972E+02 -0.65285542835E+02  0.15497212086E+03  0.17400973278E+03  0.47000000000E+01 0.  1.
         13    1    6    6    0    0 -0.41606463223E+02 -0.32312546563E+02  0.31506165902E+02  0.61382708780E+02  0.00000000000E+00 0. -1.
        -14    1    6    6    0    0 -0.10987113534E+02  0.39100753890E+02  0.50515958339E+02  0.64818575004E+02  0.00000000000E+00 0.  1.
<mgrwt>
<rscale>  2 0.18358148E+03</rscale>
<asrwt>0</asrwt>
<pdfrwt beam="1">  1       21 0.50135612E-01 0.18428343E+03</pdfrwt>
<pdfrwt beam="2">  1       21 0.26980818E-01 0.18428343E+03</pdfrwt>
<totfact> 0.49781791E+04</totfact>
</mgrwt>
</event>
<event>
12    1  0.1039378E-001  0.1885671E+03  0.7546771E-02  0.1160016E+00
         21   -1    0    0  501  502  0.00000000000E+00  0.00000000000E+00  0.18458817094E+03  0.18458817094E+03  0.00000000000E+00 0.  1.
         21   -1    0    0  502  503 -0.00000000000E+00 -0.00000000000E+00 -0.34367270502E+03  0.34367270502E+03  0.00000000000E+00 0.  1.
         -6    2    1    2    0  503 -0.71228895394E+02 -0.23698017092E+02 -0.25517394936E+03  0.31662269273E+03  0.17175864918E+03 0.  0.
        -24    2    3    3    0    0  0.17902902919E+02  0.25488659713E+02 -0.11482560831E+03  0.14317658155E+03  0.79651914451E+02 0.  0.
          6    2    1    2  501    0  0.71228895394E+02  0.23698017092E+02  0.96089415280E+02  0.21163818323E+03  0.17298090449E+03 0.  0.
         24    2    5    5    0    0  0.28248401489E+02  0.60599144591E+02  0.75416502395E+01  0.10641550145E+03  0.82444853984E+02 0.  0.
          5    1    5    5  501    0  0.42980493905E+02 -0.36901127499E+02  0.88547765041E+02  0.10522268178E+03  0.47000000000E+01 0. -1.
        -11    1    6    6    0    0  0.10155535025E+02  0.64735183412E+02  0.34213907831E+02  0.73921379533E+02  0.00000000000E+00 0.  1.
         12    1    6    6    0    0  0.18092866464E+02 -0.41360388208E+01 -0.26672257592E+02  0.32494121916E+02  0.00000000000E+00 0. -1.
         -5    1    3    3    0  503 -0.89131798313E+02 -0.49186676805E+02 -0.14034834106E+03  0.17344611118E+03  0.47000000000E+01 0.  1.
         11    1    4    4    0    0 -0.14969551470E+00 -0.18745028362E+02 -0.84578612926E+02  0.86631058297E+02  0.00000000000E+00 0. -1.
        -12    1    4    4    0    0  0.18052598434E+02  0.44233688075E+02 -0.30246995380E+02  0.56545523257E+02  0.00000000000E+00 0.  1.
<mgrwt>
<rscale>  2 0.18828631E+03</rscale>
<asrwt>0</asrwt>
<pdfrwt beam="1">  1       21 0.28398180E-01 0.18856708E+03</pdfrwt>
<pdfrwt beam="2">  1       21 0.52872724E-01 0.18856708E+03</pdfrwt>
<totfact> 0.40268395E+04</totfact>
</mgrwt>
</event>
<event>
12    1  0.1039378E-001  0.1767599E+03  0.7546771E-02  0.1171025E+00
         21   -1    0    0  503  502  0.00000000000E+00  0.00000000000E+00  0.23096088678E+03  0.23096088678E+03  0.00000000000E+00 0.  1.
         21   -1    0    0  501  503 -0.00000000000E+00 -0.00000000000E+00 -0.13644038214E+03  0.13644038214E+03  0.00000000000E+00 0.  1.
          6    2    1    2  501    0  0.15033582135E+02 -0.31131539999E+02  0.29260172140E+02  0.17916534967E+03  0.17334613775E+03 0.  0.
         24    2    3    3    0    0  0.63403313380E+02 -0.46920011300E+02 -0.12696740327E+02  0.11304894300E+03  0.79983677656E+02 0.  0.
         -6    2    1    2    0  502 -0.15033582135E+02  0.31131539999E+02  0.65260332503E+02  0.18823591925E+03  0.17314349230E+03 0.  0.
        -24    2    5    5    0    0  0.15429032641E+02 -0.42426489394E+02  0.16552434159E+02  0.94783771347E+02  0.81681810604E+02 0.  0.
          5    1    3    3  501    0 -0.48369731245E+02  0.15788471301E+02  0.41956912467E+02  0.66116406667E+02  0.47000000000E+01 0. -1.
        -13    1    4    4    0    0  0.21580467650E+02 -0.57980934788E+02  0.12311428835E+02  0.63079922819E+02  0.00000000000E+00 0.  1.
         14    1    4    4    0    0  0.41822845731E+02  0.11060923487E+02 -0.25008169163E+02  0.49969020185E+02  0.00000000000E+00 0. -1.
         -5    1    5    5    0  502 -0.30462614777E+02  0.73558029393E+02  0.48707898344E+02  0.93452147907E+02  0.47000000000E+01 0.  1.
         13    1    6    6    0    0 -0.87948835049E+01 -0.55546887916E+02 -0.93019577928E+01  0.57002922309E+02  0.00000000000E+00 0. -1.
        -14    1    6    6    0    0  0.24223916146E+02  0.13120398522E+02  0.25854391952E+02  0.37780849038E+02  0.00000000000E+00 0.  1.
<mgrwt>
<rscale>  2 0.17671020E+03</rscale>
<asrwt>0</asrwt>
<pdfrwt beam="1">  1       21 0.35532444E-01 0.17675991E+03</pdfrwt>
<pdfrwt beam="2">  1       21 0.20990828E-01 0.17675991E+03</pdfrwt>
<totfact> 0.16182789E+05</totfact>
</mgrwt>
</event>
<event>
12    1  0.1039378E-001  0.1881382E+03  0.7546771E-02  0.1160556E+00
         21   -1    0    0  503  502  0.00000000000E+00  0.00000000000E+00  0.20577305937E+03  0.20577305937E+03  0.00000000000E+00 0.  1.
         21   -1    0    0  501  503 -0.00000000000E+00 -0.00000000000E+00 -0.17324345579E+03  0.17324345579E+03  0.00000000000E+00 0.  1.
          6    2    1    2  501    0 -0.71513598171E+02  0.32422629885E+00 -0.80635698358E+01  0.18654891240E+03  0.17210803500E+03 0.  0.
         24    2    3    3    0    0 -0.10849761460E+02  0.44723984672E+02 -0.44373906370E+02  0.10293091094E+03  0.80670792309E+02 0.  0.
         -6    2    1    2    0  502  0.71513598171E+02 -0.32422629885E+00  0.40593173417E+02  0.19246760275E+03  0.17401629963E+03 0.  0.
        -24    2    5    5    0    0  0.99972698910E+02  0.43209442496E+02  0.34104403288E+02  0.13984351254E+03  0.80817703671E+02 0.  0.
          5    1    3    3  501    0 -0.60663836712E+02 -0.44399758373E+02  0.36310336535E+02  0.83618001456E+02  0.47000000000E+01 0. -1.
        -11    1    4    4    0    0 -0.12797037119E+02  0.20326659356E+01  0.21090028318E+02  0.24752478347E+02  0.00000000000E+00 0.  1.
         12    1    4    4    0    0  0.19472756596E+01  0.42691318737E+02 -0.65463934689E+02  0.78178432594E+02  0.00000000000E+00 0. -1.
         -5    1    5    5    0  502 -0.28459100739E+02 -0.43533668794E+02  0.64887701286E+01  0.52624090219E+02  0.47000000000E+01 0.  1.
         11    1    6    6    0    0  0.19154331676E+02  0.26874410867E+02  0.45919723893E+02  0.56548593473E+02  0.00000000000E+00 0. -1.
        -12    1    6    6    0    0  0.80818367234E+02  0.16335031629E+02 -0.11815320605E+02  0.83294919063E+02  0.00000000000E+00 0.  1.
<mgrwt>
<rscale>  2 0.18769571E+03</rscale>
<asrwt>0</asrwt>
<pdfrwt beam="1">  1       21 0.31657394E-01 0.18813817E+03</pdfrwt>
<pdfrwt beam="2">  1       21 0.26652839E-01 0.18813817E+03</pdfrwt>
<totfact> 0.12872960E+05</totfact>
</mgrwt>
</event>
<event>
12    1  0.1039378E-001  0.2012231E+03  0.7546771E-02  0.1148785E+00
         21   -1    0    0  501  502  0.00000000000E+00  0.00000000000E+00  0.21048332787E+03  0.21048332787E+03  0.00000000000E+00 0. -1.
         21   -1    0    0  502  503 -0.00000000000E+00 -0.00000000000E+00 -0.20774048935E+03  0.20774048935E+03  0.00000000000E+00 0.  1.
         -6    2    1    2    0  503 -0.86485121011E+02  0.56036354412E+02  0.58873241513E+02  0.20931872313E+03  0.17241960479E+03 0.  0.
        -24    2    3    3    0    0  0.11149942528E+02 -0.75942270023E+01  0.40721279304E+02  0.91280423181E+02  0.80572325061E+02 0.  0.
          6    2    1    2  501    0  0.86485121011E+02 -0.56036354412E+02 -0.56130403002E+02  0.20890509409E+03  0.17283219325E+03 0.  0.
         24    2    5    5    0    0  0.38648372304E+02 -0.39261619901E+02  0.33066708451E+02  0.10620182765E+03  0.84559147995E+02 0.  0.
          5    1    5    5  501    0  0.47836748708E+02 -0.16774734510E+02 -0.89197111453E+02  0.10270326643E+03  0.47000000000E+01 0. -1.
        -11    1    6    6    0    0  0.19622388298E+02 -0.28916628480E+02 -0.25826083481E+02  0.43453378615E+02  0.00000000000E+00 0.  1.
         12    1    6    6    0    0  0.19025984006E+02 -0.10344991422E+02  0.58892791932E+02  0.62748449036E+02  0.00000000000E+00 0. -1.
         -5    1    3    3    0  503 -0.97635063540E+02  0.63630581414E+02  0.18151962209E+02  0.11803829995E+03  0.47000000000E+01 0.  1.
         11    1    4    4    0    0 -0.15159250687E+02 -0.37695458414E+02  0.27938516611E+02  0.49308327662E+02  0.00000000000E+00 0. -1.
        -12    1    4    4    0    0  0.26309193216E+02  0.30101231411E+02  0.12782762693E+02  0.41972095518E+02  0.00000000000E+00 0.  1.
<mgrwt>
<rscale>  2 0.20113443E+03</rscale>
<asrwt>0</asrwt>
<pdfrwt beam="1">  1       21 0.32382051E-01 0.20122305E+03</pdfrwt>
<pdfrwt beam="2">  1       21 0.31960075E-01 0.20122305E+03</pdfrwt>
<totfact> 0.86081865E+04</totfact>
</mgrwt>
</event>
<event>
12    1  0.1039378E-001  0.1831536E+03  0.7546771E-02  0.1165827E+00
         21   -1    0    0  501  502  0.00000000000E+00  0.00000000000E+00  0.59558114783E+03  0.59558114783E+03  0.00000000000E+00 0. -1.
         21   -1    0    0  502  503 -0.00000000000E+00 -0.00000000000E+00 -0.19368135677E+03  0.19368135677E+03  0.00000000000E+00 0. -1.
         -6    2    1    2    0  503  0.37114883061E+02  0.45103849862E+02 -0.13229563577E+03  0.22593662669E+03  0.17358960862E+03 0.  0.
        -24    2    3    3    0    0  0.57160756987E+02  0.59557162698E+02 -0.15435439668E+03  0.19247897815E+03  0.80052916784E+02 0.  0.
          6    2    1    2  501    0 -0.37114883061E+02 -0.45103849862E+02  0.53419542683E+03  0.56332587791E+03  0.16899532202E+03 0.  0.
         24    2    5    5    0    0 -0.27864761783E+02  0.24535525482E+02  0.20978084084E+03  0.23135882994E+03  0.90224553445E+02 0.  0.
          5    1    5    5  501    0 -0.92501212778E+01 -0.69639375344E+02  0.32441458598E+03  0.33196704797E+03  0.47000000000E+01 0. -1.
        -13    1    6    6    0    0  0.12355528910E+02  0.24990538019E+02  0.13455418044E+02  0.30955360762E+02  0.00000000000E+00 0.  1.
         14    1    6    6    0    0 -0.40220290693E+02 -0.45501253778E+00  0.19632542280E+03  0.20040346917E+03  0.00000000000E+00 0. -1.
         -5    1    3    3    0  503 -0.20045873926E+02 -0.14453312836E+02  0.22058760909E+02  0.33457648546E+02  0.47000000000E+01 0.  1.
         13    1    4    4    0    0  0.17173047368E+02  0.66379332371E+02 -0.65592513301E+02  0.94886812166E+02  0.00000000000E+00 0. -1.
        -14    1    4    4    0    0  0.39987709619E+02 -0.68221696725E+01 -0.88761883380E+02  0.97592165980E+02  0.00000000000E+00 0.  1.
<mgrwt>
<rscale>  2 0.18205664E+03</rscale>
<asrwt>0</asrwt>
<pdfrwt beam="1">  1       21 0.91627868E-01 0.18315355E+03</pdfrwt>
<pdfrwt beam="2">  1       21 0.29797132E-01 0.18315355E+03</pdfrwt>
<totfact> 0.10953848E+04</totfact>
</mgrwt>
</event>
<event>
12    1  0.1039378E-001  0.2694217E+03  0.7546771E-02  0.1101712E+00
         21   -1    0    0  503  502  0.00000000000E+00  0.00000000000E+00  0.44586896239E+03  0.44586896239E+03  0.00000000000E+00 0.  1.
         21   -1    0    0  501  503 -0.00000000000E+00 -0.00000000000E+00 -0.41587569400E+03  0.41587569400E+03  0.00000000000E+00 0.  1.
          6    2    1    2  501    0  0.15045391546E+02  0.20508060085E+03 -0.32140896557E+03  0.41894493190E+03  0.17299339919E+03 0.  0.
         24    2    3    3    0    0 -0.24703999190E+02  0.31595677029E+02 -0.95889858143E+02  0.13161586850E+03  0.80742167201E+02 0.  0.
         -6    2    1    2    0  502 -0.15045391546E+02 -0.20508060085E+03  0.35140223396E+03  0.44279972449E+03  0.17407943394E+03 0.  0.
        -24    2    5    5    0    0  0.13291425899E+02 -0.88328292120E+02  0.81596322391E+02  0.14741625045E+03  0.84232071547E+02 0.  0.
          5    1    3    3  501    0  0.39749390736E+02  0.17348492382E+03 -0.22551910743E+03  0.28732906339E+03  0.47000000000E+01 0. -1.
        -11    1    4    4    0    0 -0.28430287920E+02  0.31929621981E+02 -0.10947402567E+03  0.11752593045E+03  0.00000000000E+00 0.  1.
         12    1    4    4    0    0  0.37262887298E+01 -0.33394495194E+00  0.13584167529E+02  0.14089938054E+02  0.00000000000E+00 0. -1.
         -5    1    5    5    0  502 -0.28336817445E+02 -0.11675230873E+03  0.26980591157E+03  0.29538347404E+03  0.47000000000E+01 0.  1.
         11    1    6    6    0    0 -0.20841323160E+02 -0.83370523871E+02  0.44541666869E+02  0.96793414492E+02  0.00000000000E+00 0. -1.
        -12    1    6    6    0    0  0.34132749059E+02 -0.49577682491E+01  0.37054655523E+02  0.50622835956E+02  0.00000000000E+00 0.  1.
<mgrwt>
<rscale>  2 0.26924645E+03</rscale>
<asrwt>0</asrwt>
<pdfrwt beam="1">  1       21 0.68595225E-01 0.26942173E+03</pdfrwt>
<pdfrwt beam="2">  1       21 0.63980876E-01 0.26942173E+03</pdfrwt>
<totfact> 0.41434175E+03</totfact>
</mgrwt>
</event>
<event>
12    1  0.1039378E-001  0.2377916E+03  0.7546771E-02  0.1121967E+00
         21   -1    0    0  501  502  0.00000000000E+00  0.00000000000E+00  0.19705878639E+03  0.19705878639E+03  0.00000000000E+00 0. -1.
         21   -1    0    0  502  503 -0.00000000000E+00 -0.00000000000E+00 -0.38317265807E+03  0.38317265807E+03  0.00000000000E+00 0. -1.
         -6    2    1    2    0  503  0.12828568226E+03 -0.95051593150E+02 -0.24150582405E+03  0.33607350381E+03  0.17067019446E+03 0.  0.
        -24    2    3    3    0    0  0.82667938510E+02 -0.10140978863E+03 -0.24544981035E+03  0.28960792276E+03  0.80679651951E+02 0.  0.
          6    2    1    2  501    0 -0.12828568226E+03  0.95051593150E+02  0.55391952369E+02  0.24415794065E+03  0.17621807502E+03 0.  0.
         24    2    5    5    0    0 -0.97497336517E+02  0.11726910630E+03 -0.49997423603E+01  0.17266817274E+03  0.80817860223E+02 0.  0.
          5    1    5    5  501    0 -0.30788345741E+02 -0.22217513155E+02  0.60391694729E+02  0.71489767915E+02  0.47000000000E+01 0. -1.
        -11    1    6    6    0    0  0.11354676942E+02  0.28892101825E+02 -0.92507999045E+01  0.32392275858E+02  0.00000000000E+00 0.  1.
         12    1    6    6    0    0 -0.10885201346E+03  0.88377004479E+02  0.42510575442E+01  0.14027589688E+03  0.00000000000E+00 0. -1.
         -5    1    3    3    0  503  0.45617743747E+02  0.63581954782E+01  0.39439862911E+01  0.46465581049E+02  0.47000000000E+01 0.  1.
         13    1    4    4    0    0  0.27196811011E+02 -0.92343932102E+02 -0.13673928638E+03  0.16722649540E+03  0.00000000000E+00 0. -1.
        -14    1    4    4    0    0  0.55471127500E+02 -0.90658565264E+01 -0.10871052397E+03  0.12238142736E+03  0.00000000000E+00 0.  1.
<mgrwt>
<rscale>  2 0.23676453E+03</rscale>
<asrwt>0</asrwt>
<pdfrwt beam="1">  1       21 0.30316737E-01 0.23779157E+03</pdfrwt>
<pdfrwt beam="2">  1       21 0.58949639E-01 0.23779157E+03</pdfrwt>
<totfact> 0.27437744E+04</totfact>
</mgrwt>
</event>
<event>
12    1  0.1039378E-001  0.2774557E+03  0.7546771E-02  0.1097151E+00
         21   -1    0    0  503  502  0.00000000000E+00  0.00000000000E+00  0.70925064321E+03  0.70925064321E+03  0.00000000000E+00 0.  1.
         21   -1    0    0  501  503 -0.00000000000E+00 -0.00000000000E+00 -0.12282414481E+03  0.12282414481E+03  0.00000000000E+00 0. -1.
          6    2    1    2  501    0 -0.15936211476E+03  0.14739577401E+03  0.15022193585E+03  0.31510662866E+03  0.17205743110E+03 0.  0.
         24    2    3    3    0    0 -0.90856660363E+01  0.24927702043E+02  0.41013586572E+02  0.92553279450E+02  0.78613329640E+02 0.  0.
         -6    2    1    2    0  502  0.15936211476E+03 -0.14739577401E+03  0.43620456254E+03  0.51696815936E+03  0.17280005669E+03 0.  0.
        -24    2    5    5    0    0  0.15365186360E+03 -0.17647767707E+03  0.38693858735E+03  0.45928288945E+03  0.80411668687E+02 0.  0.
          5    1    3    3  501    0 -0.15027644872E+03  0.12246807197E+03  0.10920834928E+03  0.22255334921E+03  0.47000000000E+01 0. -1.
        -13    1    4    4    0    0  0.29218983589E+02  0.26595042206E+02  0.36779263581E+02  0.53979250657E+02  0.00000000000E+00 0.  1.
         14    1    4    4    0    0 -0.38304649626E+02 -0.16673401631E+01  0.42343229906E+01  0.38574028793E+02  0.00000000000E+00 0. -1.
         -5    1    5    5    0  502  0.57102511576E+01  0.29081903060E+02  0.49265975190E+02  0.57685269916E+02  0.47000000000E+01 0.  1.
         11    1    6    6    0    0  0.58910172975E+02 -0.70494291952E+02  0.83285084179E+02  0.12400104405E+03  0.00000000000E+00 0. -1.
        -12    1    6    6    0    0  0.94741690625E+02 -0.10598338512E+03  0.30365350317E+03  0.33528184540E+03  0.00000000000E+00 0.  1.
<mgrwt>
<rscale>  2 0.27734014E+03</rscale>
<asrwt>0</asrwt>
<pdfrwt beam="1">  1       21 0.10911548E+00 0.27745569E+03</pdfrwt>
<pdfrwt beam="2">  1       21 0.18896023E-01 0.27745569E+03</pdfrwt>
<totfact> 0.16296040E+04</totfact>
</mgrwt>
</event>
<event>
12    1  0.1039378E-001  0.1845430E+03  0.7546771E-02  0.1165497E+00
         21   -1    0    0  501  502  0.00000000000E+00  0.00000000000E+00  0.23395794922E+03  0.23395794922E+03  0.00000000000E+00 0.  1.
         21   -1    0    0  502  503 -0.00000000000E+00 -0.00000000000E+00 -0.14505327298E+03  0.14505327298E+03  0.00000000000E+00 0.  1.
         -6    2    1    2    0  503 -0.27883796134E+02  0.17301061769E+02  0.47781360580E+01  0.17619749944E+03  0.17304882374E+03 0.  0.
        -24    2    3    3    0    0  0.40537548807E+02  0.15301595538E+02  0.11384499909E+01  0.10748930761E+03  0.98362713940E+02 0.  0.
          6    2    1    2  501    0  0.27883796134E+02 -0.17301061769E+02  0.84126540177E+02  0.20281372277E+03  0.18160203346E+03 0.  0.
         24    2    5    5    0    0  0.52197029179E+02 -0.33226154021E+02 -0.13081926794E+02  0.10124444633E+03  0.79061962655E+02 0.  0.
          5    1    5    5  501    0 -0.24313233045E+02  0.15925092252E+02  0.97208466971E+02  0.10156927643E+03  0.47000000000E+01 0. -1.
        -11    1    6    6    0    0 -0.68903463472E+01  0.73992999719E+01  0.19896729024E+02  0.22318296053E+02  0.00000000000E+00 0.  1.
         12    1    6    6    0    0  0.59087375526E+02 -0.40625453993E+02 -0.32978655818E+02  0.78926150281E+02  0.00000000000E+00 0. -1.
         -5    1    3    3    0  503 -0.68421344941E+02  0.19994662315E+01  0.36396860671E+01  0.68708191822E+02  0.47000000000E+01 0.  1.
         13    1    4    4    0    0  0.16156846976E+02  0.56353534805E+02 -0.70497375539E+01  0.59046281752E+02  0.00000000000E+00 0. -1.
        -14    1    4    4    0    0  0.24380701831E+02 -0.41051939267E+02  0.81881875448E+01  0.48443025862E+02  0.00000000000E+00 0.  1.
<mgrwt>
<rscale>  2 0.18240353E+03</rscale>
<asrwt>0</asrwt>
<pdfrwt beam="1">  1       21 0.35993531E-01 0.18454303E+03</pdfrwt>
<pdfrwt beam="2">  1       21 0.22315888E-01 0.18454303E+03</pdfrwt>
<totfact> 0.14024220E+05</totfact>
</mgrwt>
</event>
<event>
12    1  0.1039378E-001  0.2477017E+03  0.7546771E-02  0.1115318E+00
         21   -1    0    0  501  502  0.00000000000E+00  0.00000000000E+00  0.61558987544E+03  0.61558987544E+03  0.00000000000E+00 0. -1.
         21   -1    0    0  502  503 -0.00000000000E+00 -0.00000000000E+00 -0.10972386477E+03  0.10972386477E+03  0.00000000000E+00 0. -1.
         -6    2    1    2    0  503  0.15712064112E+03 -0.69171927711E+02  0.37155083024E+03  0.44654918549E+03  0.17856232572E+03 0.  0.
        -24    2    3    3    0    0  0.10326320096E+03 -0.14855969994E+02  0.10424204891E+03  0.16847199892E+03  0.81439677918E+02 0.  0.
          6    2    1    2  501    0 -0.15712064112E+03  0.69171927711E+02  0.13431518043E+03  0.27876455472E+03  0.17377415754E+03 0.  0.
         24    2    5    5    0    0 -0.10726747008E+03  0.11275202963E+03  0.11294667313E+03  0.20902742652E+03  0.81952326028E+02 0.  0.
          5    1    5    5  501    0 -0.49853171034E+02 -0.43580101923E+02  0.21368507299E+02  0.69737128203E+02  0.47000000000E+01 0. -1.
        -11    1    6    6    0    0 -0.97087316817E+02  0.47880064401E+02  0.54869745120E+02  0.12136365429E+03  0.00000000000E+00 0.  1.
         12    1    6    6    0    0 -0.10180153265E+02  0.64871965233E+02  0.58076928012E+02  0.87663772227E+02  0.00000000000E+00 0. -1.
         -5    1    3    3    0  503  0.53857440153E+02 -0.54315957717E+02  0.26730878132E+03  0.27807718658E+03  0.47000000000E+01 0.  1.
         11    1    4    4    0    0  0.12839052382E+02  0.10486431859E+02  0.64334333973E+02  0.66435781375E+02  0.00000000000E+00 0. -1.
        -12    1    4    4    0    0  0.90424148580E+02 -0.25342401853E+02  0.39907714942E+02  0.10203621754E+03  0.00000000000E+00 0.  1.
<mgrwt>
<rscale>  2 0.24683998E+03</rscale>
<asrwt>0</asrwt>
<pdfrwt beam="1">  1       21 0.94706132E-01 0.24770175E+03</pdfrwt>
<pdfrwt beam="2">  1       21 0.16880595E-01 0.24770175E+03</pdfrwt>
<totfact> 0.28649403E+04</totfact>
</mgrwt>
</event>
<event>
12    1  0.1039378E-001  0.1824758E+03  0.7546771E-02  0.1165585E+00
         21   -1    0    0  503  502  0.00000000000E+00  0.00000000000E+00  0.62117148668E+03  0.62117148668E+03  0.00000000000E+00 0.  1.
         21   -1    0    0  501  503 -0.00000000000E+00 -0.00000000000E+00 -0.91738931080E+02  0.91738931080E+02  0.00000000000E+00 0. -1.
          6    2    1    2  501    0 -0.15662384869E+02  0.56302306997E+02  0.34593903701E+02  0.18572601095E+03  0.17286455072E+03 0.  0.
         24    2    3    3    0    0 -0.56718437479E+01 -0.16228431205E+02  0.66195870443E+02  0.10584301402E+03  0.80779443939E+02 0.  0.
         -6    2    1    2    0  502  0.15662384869E+02 -0.56302306997E+02  0.49483865190E+03  0.52718440681E+03  0.17217098274E+03 0.  0.
        -24    2    5    5    0    0 -0.47757261329E+02 -0.46756595237E+02  0.18919183191E+03  0.21484606349E+03  0.76800693546E+02 0.  0.
          5    1    3    3  501    0 -0.99905411207E+01  0.72530738202E+02 -0.31601966741E+02  0.79882996926E+02  0.47000000000E+01 0. -1.
        -13    1    4    4    0    0  0.30351269421E+00 -0.32123922893E+02 -0.51221471861E+01  0.32531137911E+02  0.00000000000E+00 0.  1.
         14    1    4    4    0    0 -0.59753564421E+01  0.15895491688E+02  0.71318017629E+02  0.73311876112E+02  0.00000000000E+00 0. -1.
         -5    1    5    5    0  502  0.63419646198E+02 -0.95457117597E+01  0.30564681999E+03  0.31233834332E+03  0.47000000000E+01 0.  1.
         11    1    6    6    0    0  0.22596160977E+00  0.88498649388E+01  0.94960055597E+02  0.95371816209E+02  0.00000000000E+00 0. -1.
        -12    1    6    6    0    0 -0.47983222939E+02 -0.55606460176E+02  0.94231776315E+02  0.11947424729E+03  0.00000000000E+00 0.  1.
<mgrwt>
<rscale>  2 0.18231134E+03</rscale>
<asrwt>0</asrwt>
<pdfrwt beam="1">  1       21 0.95564841E-01 0.18247579E+03</pdfrwt>
<pdfrwt beam="2">  1       21 0.14113682E-01 0.18247579E+03</pdfrwt>
<totfact> 0.40243447E+04</totfact>
</mgrwt>
</event>
<event>
12    1  0.1039378E-001  0.1927617E+03  0.7546771E-02  0.1156448E+00
         21   -1    0    0  503  502  0.00000000000E+00  0.00000000000E+00  0.24889076101E+03  0.24889076101E+03  0.00000000000E+00 0.  1.
         21   -1    0    0  501  503 -0.00000000000E+00 -0.00000000000E+00 -0.23145956179E+03  0.23145956179E+03  0.00000000000E+00 0.  1.
          6    2    1    2  501    0  0.17473076346E+02 -0.81235626352E+02 -0.13578179640E+03  0.23411605700E+03  0.17166565332E+03 0.  0.
         24    2    3    3    0    0  0.65520304606E+02 -0.13886045685E+02 -0.52804310661E+02  0.11684775226E+03  0.79870954686E+02 0.  0.
         -6    2    1    2    0  502 -0.17473076346E+02  0.81235626352E+02  0.15321299561E+03  0.24623426579E+03  0.17393261983E+03 0.  0.
        -24    2    5    5    0    0 -0.28770980850E+02 -0.11739085728E+02  0.20426108253E+02  0.83672317028E+02  0.74955021618E+02 0.  0.
          5    1    3    3  501    0 -0.48047228260E+02 -0.67349580667E+02 -0.82977485734E+02  0.11726830475E+03  0.47000000000E+01 0. -1.
        -11    1    4    4    0    0  0.53387751051E+02 -0.41005728030E+02 -0.15359131182E+02  0.69047987692E+02  0.00000000000E+00 0.  1.
         12    1    4    4    0    0  0.12132553555E+02  0.27119682345E+02 -0.37445179479E+02  0.47799764565E+02  0.00000000000E+00 0. -1.
         -5    1    5    5    0  502  0.11297904504E+02  0.92974712081E+02  0.13278688736E+03  0.16256194877E+03  0.47000000000E+01 0.  1.
         11    1    6    6    0    0  0.75780932867E+01  0.25862331330E+02 -0.14368689586E+01  0.26988002373E+02  0.00000000000E+00 0. -1.
        -12    1    6    6    0    0 -0.36349074137E+02 -0.37601417058E+02  0.21862977211E+02  0.56684314655E+02  0.00000000000E+00 0.  1.
<mgrwt>
<rscale>  2 0.19224895E+03</rscale>
<asrwt>0</asrwt>
<pdfrwt beam="1">  1       21 0.38290886E-01 0.19276175E+03</pdfrwt>
<pdfrwt beam="2">  1       21 0.35609163E-01 0.19276175E+03</pdfrwt>
<totfact> 0.50014808E+04</totfact>
</mgrwt>
</event>
<event>
12    1  0.1039378E-001  0.2828418E+03  0.7546771E-02  0.1094237E+00
         21   -1    0    0  503  502  0.00000000000E+00  0.00000000000E+00  0.87583344548E+02  0.87583344548E+02  0.00000000000E+00 0. -1.
         21   -1    0    0  501  503 -0.00000000000E+00 -0.00000000000E+00 -0.12637988367E+04  0.12637988367E+04  0.00000000000E+00 0.  1.
          6    2    1    2  501    0  0.83428700247E+02  0.20745812709E+03 -0.94448162139E+03  0.98573200796E+03  0.17211285790E+03 0.  0.
         24    2    3    3    0    0 -0.16191561729E+01  0.16895834084E+03 -0.62504594952E+03  0.65290080467E+03  0.83949265141E+02 0.  0.
         -6    2    1    2    0  502 -0.83428700247E+02 -0.20745812709E+03 -0.23173387078E+03  0.36565017330E+03  0.17320577314E+03 0.  0.
        -24    2    5    5    0    0 -0.12120640254E+03 -0.18572779503E+03 -0.21406504877E+03  0.31838877899E+03  0.79760664597E+02 0.  0.
          5    1    3    3  501    0  0.85047856420E+02  0.38499786254E+02 -0.31943567187E+03  0.33283120329E+03  0.47000000000E+01 0. -1.
        -13    1    4    4    0    0 -0.18880691360E+02  0.74058768603E+02 -0.15213733356E+03  0.17025554315E+03  0.00000000000E+00 0.  1.
         14    1    4    4    0    0  0.17261535187E+02  0.94899572234E+02 -0.47290861597E+03  0.48264526151E+03  0.00000000000E+00 0. -1.
         -5    1    5    5    0  502  0.37777702288E+02 -0.21730332056E+02 -0.17668822009E+02  0.47261394315E+02  0.47000000000E+01 0.  1.
         13    1    6    6    0    0  0.27057460666E+01 -0.53233704147E+02 -0.61236649985E+02  0.81185439707E+02  0.00000000000E+00 0. -1.
        -14    1    6    6    0    0 -0.12391214860E+03 -0.13249409089E+03 -0.15282839879E+03  0.23720333928E+03  0.00000000000E+00 0.  1.
<mgrwt>
<rscale>  2 0.28267463E+03</rscale>
<asrwt>0</asrwt>
<pdfrwt beam="1">  1       21 0.13474362E-01 0.28284176E+03</pdfrwt>
<pdfrwt beam="2">  1       21 0.19443057E+00 0.28284176E+03</pdfrwt>
<totfact> 0.65023945E+03</totfact>
</mgrwt>
</event>
<event>
12    1  0.1039378E-001  0.2579672E+03  0.7546771E-02  0.1109365E+00
         21   -1    0    0  501  502  0.00000000000E+00  0.00000000000E+00  0.36562479441E+03  0.36562479441E+03  0.00000000000E+00 0.  1.
         21   -1    0    0  502  503 -0.00000000000E+00 -0.00000000000E+00 -0.17754208876E+03  0.17754208876E+03  0.00000000000E+00 0.  1.
         -6    2    1    2    0  503 -0.17106673463E+03 -0.63370510479E+02  0.89975183490E+02  0.27320799018E+03  0.18239359352E+03 0.  0.
        -24    2    3    3    0    0 -0.14623019510E+03 -0.11286494211E+03  0.76115938570E+02  0.21593041055E+03  0.81917891716E+02 0.  0.
          6    2    1    2  501    0  0.17106673463E+03  0.63370510479E+02  0.98107522161E+02  0.26995889299E+03  0.17312731934E+03 0.  0.
         24    2    5    5    0    0  0.11524805717E+03 -0.10185751231E+02  0.79977539618E+01  0.14085386320E+03  0.79937366114E+02 0.  0.
          5    1    5    5  501    0  0.55818677466E+02  0.73556261710E+02  0.90109768199E+02  0.12910502979E+03  0.47000000000E+01 0. -1.
        -13    1    6    6    0    0  0.59871905460E+02  0.79464697510E+01  0.41836538442E+02  0.73471677493E+02  0.00000000000E+00 0.  1.
         14    1    6    6    0    0  0.55376151707E+02 -0.18132220982E+02 -0.33838784480E+02  0.67382185707E+02  0.00000000000E+00 0. -1.
         -5    1    3    3    0  503 -0.24836539535E+02  0.49494431626E+02  0.13859244920E+02  0.57277579626E+02  0.47000000000E+01 0.  1.
         11    1    4    4    0    0 -0.76945816032E+01 -0.78035734189E+01  0.35813416762E+02  0.37452679001E+02  0.00000000000E+00 0. -1.
        -12    1    4    4    0    0 -0.13853561349E+03 -0.10506136869E+03  0.40302521807E+02  0.17847773155E+03  0.00000000000E+00 0.  1.
<mgrwt>
<rscale>  2 0.25633521E+03</rscale>
<asrwt>0</asrwt>
<pdfrwt beam="1">  1       21 0.56249968E-01 0.25796719E+03</pdfrwt>
<pdfrwt beam="2">  1       21 0.27314168E-01 0.25796719E+03</pdfrwt>
<totfact> 0.36860888E+04</totfact>
</mgrwt>
</event>
<event>
12    1  0.1039378E-001  0.1997606E+03  0.7546771E-02  0.1150015E+00
         21   -1    0    0  503  502  0.00000000000E+00  0.00000000000E+00  0.12002445597E+03  0.12002445597E+03  0.00000000000E+00 0.  1.
         21   -1    0    0  501  503 -0.00000000000E+00 -0.00000000000E+00 -0.38255088220E+03  0.38255088220E+03  0.00000000000E+00 0. -1.
          6    2    1    2  501    0 -0.77020660050E+02 -0.62027050121E+02 -0.22261414212E+03  0.29886648789E+03  0.17316057373E+03 0.  0.
         24    2    3    3    0    0 -0.27807642391E+02 -0.40788602467E+02 -0.30119199694E+02  0.98993063884E+02  0.80346035623E+02 0.  0.
         -6    2    1    2    0  502  0.77020660050E+02  0.62027050121E+02 -0.39912284118E+02  0.20370885028E+03  0.17356488192E+03 0.  0.
        -24    2    5    5    0    0 -0.17653489117E+02  0.74854842946E+01  0.20513091220E+01  0.86572134934E+02  0.84396969879E+02 0.  0.
          5    1    3    3  501    0 -0.49213017659E+02 -0.21238447654E+02 -0.19249494243E+03  0.19987342401E+03  0.47000000000E+01 0. -1.
        -13    1    4    4    0    0  0.18717908920E+02 -0.34135561362E+02  0.64265206559E+01  0.39457532001E+02  0.00000000000E+00 0.  1.
         14    1    4    4    0    0 -0.46525551311E+02 -0.66530411052E+01 -0.36545720350E+02  0.59535531883E+02  0.00000000000E+00 0. -1.
         -5    1    5    5    0  502  0.94674149167E+02  0.54541565827E+02 -0.41963593240E+02  0.11713671534E+03  0.47000000000E+01 0.  1.
         13    1    6    6    0    0  0.13471407416E+02  0.31736491114E+02 -0.21489451096E+02  0.40626102378E+02  0.00000000000E+00 0. -1.
        -14    1    6    6    0    0 -0.31124896533E+02 -0.24251006820E+02  0.23540760218E+02  0.45946032556E+02  0.00000000000E+00 0.  1.
<mgrwt>
<rscale>  2 0.19967276E+03</rscale>
<asrwt>0</asrwt>
<pdfrwt beam="1">  1       21 0.18465301E-01 0.19976062E+03</pdfrwt>
<pdfrwt beam="2">  1       21 0.58853982E-01 0.19976062E+03</pdfrwt>
<totfact> 0.72092754E+04</totfact>
</mgrwt>
</event>
<event>
12    1  0.1039378E-001  0.2060637E+03  0.7546771E-02  0.1145719E+00
         21   -1    0    0  501  502  0.00000000000E+00  0.00000000000E+00  0.16785187313E+03  0.16785187313E+03  0.00000000000E+00 0.  1.
         21   -1    0    0  502  503 -0.00000000000E+00 -0.00000000000E+00 -0.26641805712E+03  0.26641805712E+03  0.00000000000E+00 0. -1.
         -6    2    1    2    0  503 -0.65802702868E+02 -0.84843973922E+02  0.87132711488E+01  0.20624787469E+03  0.17587998495E+03 0.  0.
        -24    2    3    3    0    0  0.31989367046E+02 -0.58569265080E+02 -0.46618277457E+01  0.10399997724E+03  0.79627785427E+02 0.  0.
          6    2    1    2  501    0  0.65802702868E+02  0.84843973922E+02 -0.10727945514E+03  0.22802205555E+03  0.17016662630E+03 0.  0.
         24    2    5    5    0    0 -0.94101138539E+01  0.35235858245E+02 -0.15891868892E+01  0.89059989710E+02  0.81234477306E+02 0.  0.
          5    1    5    5  501    0  0.75212816722E+02  0.49608115677E+02 -0.10569026825E+03  0.13896206584E+03  0.47000000000E+01 0. -1.
        -13    1    6    6    0    0  0.20707852552E+02 -0.66144627018E+01 -0.24399426971E+02  0.32678713418E+02  0.00000000000E+00 0.  1.
         14    1    6    6    0    0 -0.30117966406E+02  0.41850320947E+02  0.22810240082E+02  0.56381276292E+02  0.00000000000E+00 0. -1.
         -5    1    3    3    0  503 -0.97792069914E+02 -0.26274708842E+02  0.13375098894E+02  0.10224789745E+03  0.47000000000E+01 0.  1.
         11    1    4    4    0    0 -0.24234817125E+02 -0.35774055614E+02 -0.28372623314E+01  0.43303111594E+02  0.00000000000E+00 0. -1.
        -12    1    4    4    0    0  0.56224184172E+02 -0.22795209466E+02 -0.18245654143E+01  0.60696865646E+02  0.00000000000E+00 0.  1.
<mgrwt>
<rscale>  2 0.20483925E+03</rscale>
<asrwt>0</asrwt>
<pdfrwt beam="1">  1       21 0.25823365E-01 0.20606374E+03</pdfrwt>
<pdfrwt beam="2">  1       21 0.40987393E-01 0.20606374E+03</pdfrwt>
<totfact> 0.81158685E+04</totfact>
</mgrwt>
</event>
<event>
12    1  0.1039378E-001  0.2721408E+03  0.7546771E-02  0.1100068E+00
         21   -1    0    0  503  502  0.00000000000E+00  0.00000000000E+00  0.25040441031E+03  0.25040441031E+03  0.00000000000E+00 0.  1.
         21   -1    0    0  501  503 -0.00000000000E+00 -0.00000000000E+00 -0.31641971801E+03  0.31641971801E+03  0.00000000000E+00 0.  1.
          6    2    1    2  501    0 -0.20858807697E+03  0.26910884282E+02 -0.10552476347E+03  0.29188372920E+03  0.17270626544E+03 0.  0.
         24    2    3    3    0    0 -0.91329897846E+02  0.67783640843E+02 -0.25144527837E+02  0.14388665126E+03  0.84470994566E+02 0.  0.
         -6    2    1    2    0  502  0.20858807697E+03 -0.26910884282E+02  0.39509455772E+02  0.27494039911E+03  0.17262110074E+03 0.  0.
        -24    2    5    5    0    0  0.22564728513E+03 -0.40734106319E+02  0.17058872522E+02  0.24318797024E+03  0.79204917980E+02 0.  0.
          5    1    3    3  501    0 -0.11725817912E+03 -0.40872756562E+02 -0.80380235636E+02  0.14799707795E+03  0.47000000000E+01 0. -1.
        -11    1    4    4    0    0 -0.15654757165E+02 -0.11567377983E+02 -0.28115131858E+02  0.34195559575E+02  0.00000000000E+00 0.  1.
         12    1    4    4    0    0 -0.75675140681E+02  0.79351018826E+02  0.29706040204E+01  0.10969109168E+03  0.00000000000E+00 0. -1.
         -5    1    5    5    0  502 -0.17059208165E+02  0.13823222037E+02  0.22450583250E+02  0.31752428867E+02  0.47000000000E+01 0.  1.
         13    1    6    6    0    0  0.35648008455E+02 -0.38367928850E+02 -0.39538812602E+00  0.52373989754E+02  0.00000000000E+00 0. -1.
        -14    1    6    6    0    0  0.18999927668E+03 -0.23661774691E+01  0.17454260648E+02  0.19081398049E+03  0.00000000000E+00 0.  1.
<mgrwt>
<rscale>  2 0.27212733E+03</rscale>
<asrwt>0</asrwt>
<pdfrwt beam="1">  1       21 0.38523756E-01 0.27214084E+03</pdfrwt>
<pdfrwt beam="2">  1       21 0.48679956E-01 0.27214084E+03</pdfrwt>
<totfact> 0.25163854E+04</totfact>
</mgrwt>
</event>
<event>
12    1  0.1039378E-001  0.1981912E+03  0.7546771E-02  0.1151438E+00
         21   -1    0    0  501  502  0.00000000000E+00  0.00000000000E+00  0.22172846240E+03  0.22172846240E+03  0.00000000000E+00 0. -1.
         21   -1    0    0  502  503 -0.00000000000E+00 -0.00000000000E+00 -0.20915136429E+03  0.20915136429E+03  0.00000000000E+00 0.  1.
         -6    2    1    2    0  503 -0.72807514944E+02  0.64392402176E+02 -0.78887378271E+02  0.21260129976E+03  0.17183939745E+03 0.  0.
        -24    2    3    3    0    0  0.22677181890E+02  0.39341526528E+02 -0.13155995227E+02  0.93910194709E+02  0.81142061668E+02 0.  0.
          6    2    1    2  501    0  0.72807514944E+02 -0.64392402176E+02  0.91464476380E+02  0.21827852694E+03  0.17272072601E+03 0.  0.
         24    2    5    5    0    0  0.38104938536E+02 -0.91199363651E+02  0.13492767810E+02  0.12869862222E+03  0.81314022819E+02 0.  0.
          5    1    5    5  501    0  0.34702576408E+02  0.26806961475E+02  0.77971708570E+02  0.89579904723E+02  0.47000000000E+01 0. -1.
        -13    1    6    6    0    0 -0.18984364277E+02  0.63744750303E+00 -0.32624307549E+01  0.19273190726E+02  0.00000000000E+00 0.  1.
         14    1    6    6    0    0  0.57089302814E+02 -0.91836811154E+02  0.16755198565E+02  0.10942543149E+03  0.00000000000E+00 0. -1.
         -5    1    3    3    0  503 -0.95484696835E+02  0.25050875647E+02 -0.65731383043E+02  0.11869110505E+03  0.47000000000E+01 0.  1.
         13    1    4    4    0    0  0.13197938363E+02 -0.21581905885E+02  0.11137026497E+02  0.27640506469E+02  0.00000000000E+00 0. -1.
        -14    1    4    4    0    0  0.94792435274E+01  0.60923432413E+02 -0.24293021725E+02  0.66269688240E+02  0.00000000000E+00 0.  1.
<mgrwt>
<rscale>  2 0.19799906E+03</rscale>
<asrwt>0</asrwt>
<pdfrwt beam="1">  1       21 0.34112071E-01 0.19819123E+03</pdfrwt>
<pdfrwt beam="2">  1       21 0.32177133E-01 0.19819123E+03</pdfrwt>
<totfact> 0.76750069E+04</totfact>
</mgrwt>
</event>
<event>
12    1  0.1039378E-001  0.1756900E+03  0.7546771E-02  0.1172394E+00
         21   -1    0    0  503  502  0.00000000000E+00  0.00000000000E+00  0.55059492362E+02  0.55059492362E+02  0.00000000000E+00 0.  1.
         21   -1    0    0  501  503 -0.00000000000E+00 -0.00000000000E+00 -0.62407927625E+03  0.62407927625E+03  0.00000000000E+00 0.  1.
          6    2    1    2  501    0 -0.69059389145E+01  0.32337599152E+02 -0.39757441274E+03  0.43466352308E+03  0.17255014434E+03 0.  0.
         24    2    3    3    0    0  0.38871015233E+01  0.15593490495E+02 -0.73942778928E+02  0.11038527943E+03  0.80368581266E+02 0.  0.
         -6    2    1    2    0  502  0.69059389145E+01 -0.32337599152E+02 -0.17144537115E+03  0.24447524554E+03  0.17111755632E+03 0.  0.
        -24    2    5    5    0    0 -0.60214206874E+01 -0.78430560936E+02 -0.70132541974E+02  0.13232330794E+03  0.80020459789E+02 0.  0.
          5    1    3    3  501    0 -0.10793040438E+02  0.16744108657E+02 -0.32363163382E+03  0.32427824365E+03  0.47000000000E+01 0. -1.
        -13    1    4    4    0    0 -0.45083960110E+01  0.85390007219E+01 -0.90232911665E+02  0.90748104749E+02  0.00000000000E+00 0.  1.
         14    1    4    4    0    0  0.83954975343E+01  0.70544897730E+01  0.16290132737E+02  0.19637174679E+02  0.00000000000E+00 0. -1.
         -5    1    5    5    0  502  0.12927359602E+02  0.46092961783E+02 -0.10131282917E+03  0.11215193760E+03  0.47000000000E+01 0.  1.
         13    1    6    6    0    0 -0.33618687270E+02 -0.30432750113E+02 -0.32010177004E+01  0.45460036599E+02  0.00000000000E+00 0. -1.
        -14    1    6    6    0    0  0.27597266583E+02 -0.47997810822E+02 -0.66931524274E+02  0.86863271342E+02  0.00000000000E+00 0.  1.
<mgrwt>
<rscale>  2 0.17533721E+03</rscale>
<asrwt>0</asrwt>
<pdfrwt beam="1">  1       21 0.84706919E-02 0.17568997E+03</pdfrwt>
<pdfrwt beam="2">  1       21 0.96012187E-01 0.17568997E+03</pdfrwt>
<totfact> 0.98835976E+04</totfact>
</mgrwt>
</event>
<event>
12    1  0.1039378E-001  0.1747289E+03  0.7546771E-02  0.1173021E+00
         21   -1    0    0  501  502  0.00000000000E+00  0.00000000000E+00  0.13848495694E+03  0.13848495694E+03  0.00000000000E+00 0.  1.
         21   -1    0    0  502  503 -0.00000000000E+00 -0.00000000000E+00 -0.32828278308E+03  0.32828278308E+03  0.00000000000E+00 0.  1.
         -6    2    1    2    0  503  0.26680992164E+02 -0.11729688712E+02 -0.22869183081E+03  0.28776239171E+03  0.17221434222E+03 0.  0.
        -24    2    3    3    0    0  0.36594681616E+02 -0.23103622531E+01 -0.37583140468E+02  0.96107424461E+02  0.80496186821E+02 0.  0.
          6    2    1    2  501    0 -0.26680992164E+02  0.11729688712E+02  0.38894004663E+02  0.17900534830E+03  0.17228090487E+03 0.  0.
         24    2    5    5    0    0  0.45761468354E+02 -0.18640502919E+02  0.33134671378E+02  0.10010339303E+03  0.80505916021E+02 0.  0.
          5    1    5    5  501    0 -0.72442460519E+02  0.30370191631E+02  0.57593332845E+01  0.78901955271E+02  0.47000000000E+01 0. -1.
        -11    1    6    6    0    0  0.25429959873E+02  0.25881536007E+02  0.35950037530E+02  0.51077803043E+02  0.00000000000E+00 0.  1.
         12    1    6    6    0    0  0.20331508482E+02 -0.44522038926E+02 -0.28153661524E+01  0.49025589990E+02  0.00000000000E+00 0. -1.
         -5    1    3    3    0  503 -0.99136894516E+01 -0.94193264586E+01 -0.19110869034E+03  0.19165496725E+03  0.47000000000E+01 0.  1.
         13    1    4    4    0    0  0.12454483579E+02 -0.35932135242E+02 -0.39291897296E+02  0.54681676066E+02  0.00000000000E+00 0. -1.
        -14    1    4    4    0    0  0.24140198037E+02  0.33621772989E+02  0.17087568280E+01  0.41425748395E+02  0.00000000000E+00 0.  1.
<mgrwt>
<rscale>  2 0.17471244E+03</rscale>
<asrwt>0</asrwt>
<pdfrwt beam="1">  1       21 0.21305378E-01 0.17472885E+03</pdfrwt>
<pdfrwt beam="2">  1       21 0.50505044E-01 0.17472885E+03</pdfrwt>
<totfact> 0.77085039E+04</totfact>
</mgrwt>
</event>
<event>
12    1  0.1039378E-001  0.4076134E+03  0.7546771E-02  0.1041253E+00
         21   -1    0    0  501  502  0.00000000000E+00  0.00000000000E+00  0.91995035929E+03  0.91995035929E+03  0.00000000000E+00 0. -1.
         21   -1    0    0  502  503 -0.00000000000E+00 -0.00000000000E+00 -0.37287448577E+03  0.37287448577E+03  0.00000000000E+00 0.  1.
         -6    2    1    2    0  503 -0.16059456920E+03  0.33397054969E+03 -0.19097948476E+03  0.45013533708E+03  0.16976959203E+03 0.  0.
        -24    2    3    3    0    0 -0.15815648219E+03  0.24576868147E+03 -0.19927608657E+03  0.36138604173E+03  0.73981043692E+02 0.  0.
          6    2    1    2  501    0  0.16059456920E+03 -0.33397054969E+03  0.73805535828E+03  0.84268950798E+03  0.16754984709E+03 0.  0.
         24    2    5    5    0    0  0.97514400944E+02 -0.17182611112E+03  0.53066351536E+03  0.57194351430E+03  0.80513018576E+02 0.  0.
          5    1    5    5  501    0  0.63080168259E+02 -0.16214443857E+03  0.20739184292E+03  0.27074599368E+03  0.47000000000E+01 0. -1.
        -11    1    6    6    0    0 -0.53669103154E+01 -0.54117866602E+02  0.17941126299E+03  0.18747252732E+03  0.00000000000E+00 0.  1.
         12    1    6    6    0    0  0.10288131126E+03 -0.11770824452E+03  0.35125225237E+03  0.38447098698E+03  0.00000000000E+00 0. -1.
         -5    1    3    3    0  503 -0.24380870170E+01  0.88201868212E+02  0.82966018119E+01  0.88749295355E+02  0.47000000000E+01 0.  1.
         13    1    4    4    0    0 -0.56292507103E+01  0.49008516411E+01  0.64066435732E+01  0.98362539740E+01  0.00000000000E+00 0. -1.
        -14    1    4    4    0    0 -0.15252723148E+03  0.24086782983E+03 -0.20568273015E+03  0.35154978776E+03  0.00000000000E+00 0.  1.
<mgrwt>
<rscale>  2 0.40738330E+03</rscale>
<asrwt>0</asrwt>
<pdfrwt beam="1">  1       21 0.14153082E+00 0.40761337E+03</pdfrwt>
<pdfrwt beam="2">  1       21 0.57365306E-01 0.40761337E+03</pdfrwt>
<totfact> 0.85284407E+02</totfact>
</mgrwt>
</event>
<event>
12    1  0.1039378E-001  0.1774863E+03  0.7546771E-02  0.1170510E+00
         21   -1    0    0  501  502  0.00000000000E+00  0.00000000000E+00  0.30120263482E+03  0.30120263482E+03  0.00000000000E+00 0. -1.
         21   -1    0    0  502  503 -0.00000000000E+00 -0.00000000000E+00 -0.17277014791E+03  0.17277014791E+03  0.00000000000E+00 0. -1.
         -6    2    1    2    0  503 -0.39525989519E+02 -0.23404011198E+02 -0.85425363518E+02  0.19605810601E+03  0.17038555283E+03 0.  0.
        -24    2    3    3    0    0  0.17200266678E+02  0.32030783534E+02 -0.75561771734E+02  0.11599397514E+03  0.80144872912E+02 0.  0.
          6    2    1    2  501    0  0.39525989519E+02  0.23404011198E+02  0.21385785043E+03  0.27791467671E+03  0.17143901468E+03 0.  0.
         24    2    5    5    0    0 -0.39555656878E+02  0.21796531468E+00  0.14016193017E+03  0.16725900274E+03  0.82252719266E+02 0.  0.
          5    1    5    5  501    0  0.79081646397E+02  0.23186045883E+02  0.73695920259E+02  0.11065567398E+03  0.47000000000E+01 0. -1.
        -13    1    6    6    0    0 -0.33932472735E+02 -0.18768497311E+02  0.16701980857E+02  0.42221148276E+02  0.00000000000E+00 0.  1.
         14    1    6    6    0    0 -0.56231841431E+01  0.18986462626E+02  0.12345994931E+03  0.12503785446E+03  0.00000000000E+00 0. -1.
         -5    1    3    3    0  503 -0.56726256197E+02 -0.55434794732E+02 -0.98635917839E+01  0.80064130870E+02  0.47000000000E+01 0.  1.
         11    1    4    4    0    0  0.64582491520E+00 -0.20967806530E+02 -0.51256880160E+02  0.55383515276E+02  0.00000000000E+00 0. -1.
        -12    1    4    4    0    0  0.16554441763E+02  0.52998590064E+02 -0.24304891574E+02  0.60610459867E+02  0.00000000000E+00 0.  1.
<mgrwt>
<rscale>  2 0.17723141E+03</rscale>
<asrwt>0</asrwt>
<pdfrwt beam="1">  1       21 0.46338867E-01 0.17748630E+03</pdfrwt>
<pdfrwt beam="2">  1       21 0.26580023E-01 0.17748630E+03</pdfrwt>
<totfact> 0.60498013E+04</totfact>
</mgrwt>
</event>
<event>
12    1  0.1039378E-001  0.2085575E+03  0.7546771E-02  0.1143556E+00
         21   -1    0    0  501  502  0.00000000000E+00  0.00000000000E+00  0.11510939533E+03  0.11510939533E+03  0.00000000000E+00 0.  1.
         21   -1    0    0  502  503 -0.00000000000E+00 -0.00000000000E+00 -0.47608289445E+03  0.47608289445E+03  0.00000000000E+00 0.  1.
         -6    2    1    2    0  503  0.11372054615E+03 -0.19095997170E+02 -0.31836710393E+03  0.37832725550E+03  0.16875093975E+03 0.  0.
        -24    2    3    3    0    0  0.12948740597E+03 -0.57575264039E+02 -0.25604566447E+03  0.30325862248E+03  0.79526790946E+02 0.  0.
          6    2    1    2  501    0 -0.11372054615E+03  0.19095997170E+02 -0.42606395184E+02  0.21286503428E+03  0.17377916499E+03 0.  0.
         24    2    5    5    0    0 -0.55706315278E+02  0.55716078112E+02 -0.77555731543E+02  0.13572731702E+03  0.78737146053E+02 0.  0.
          5    1    5    5  501    0 -0.58014230872E+02 -0.36620080942E+02  0.34949336360E+02  0.77137717258E+02  0.47000000000E+01 0. -1.
        -11    1    6    6    0    0 -0.45545541293E+02 -0.21761337099E+01 -0.10946625513E+02  0.46893075179E+02  0.00000000000E+00 0.  1.
         12    1    6    6    0    0 -0.10160773985E+02  0.57892211822E+02 -0.66609106030E+02  0.88834241843E+02  0.00000000000E+00 0. -1.
         -5    1    3    3    0  503 -0.15766859825E+02  0.38479266869E+02 -0.62321439459E+02  0.75068633022E+02  0.47000000000E+01 0.  1.
         11    1    4    4    0    0  0.12447639409E+02 -0.31603322603E+02 -0.22510116551E+02  0.40748240128E+02  0.00000000000E+00 0. -1.
        -12    1    4    4    0    0  0.11703976657E+03 -0.25971941436E+02 -0.23353554792E+03  0.26251038235E+03  0.00000000000E+00 0.  1.
<mgrwt>
<rscale>  2 0.20750685E+03</rscale>
<asrwt>0</asrwt>
<pdfrwt beam="1">  1       21 0.17709138E-01 0.20855747E+03</pdfrwt>
<pdfrwt beam="2">  1       21 0.73243522E-01 0.20855747E+03</pdfrwt>
<totfact> 0.48114125E+04</totfact>
</mgrwt>
</event>
<event>
12    1  0.1039378E-001  0.2227913E+03  0.7546771E-02  0.1132997E+00
         21   -1    0    0  503  502  0.00000000000E+00  0.00000000000E+00  0.22870172458E+03  0.22870172458E+03  0.00000000000E+00 0. -1.
         21   -1    0    0  501  503 -0.00000000000E+00 -0.00000000000E+00 -0.62235129441E+03  0.62235129441E+03  0.00000000000E+00 0.  1.
          6    2    1    2  501    0  0.10377496403E+03  0.94877725966E+02 -0.54376078625E+03  0.58763234148E+03  0.17281478536E+03 0.  0.
         24    2    3    3    0    0  0.13114983230E+03  0.39641200463E+02 -0.42562366480E+03  0.45429470003E+03  0.80352144642E+02 0.  0.
         -6    2    1    2    0  502 -0.10377496403E+03 -0.94877725966E+02  0.15011121643E+03  0.26342067752E+03  0.16457840078E+03 0.  0.
        -24    2    5    5    0    0 -0.12295208066E+03 -0.11630028885E+03  0.12738028232E+03  0.22646836543E+03  0.80119990585E+02 0.  0.
          5    1    3    3  501    0 -0.27374868271E+02  0.55236525502E+02 -0.11813712146E+03  0.13333764145E+03  0.47000000000E+01 0. -1.
        -13    1    4    4    0    0  0.72253577213E+02 -0.16426965667E+02 -0.25017948641E+03  0.26092182746E+03  0.00000000000E+00 0.  1.
         14    1    4    4    0    0  0.58896255084E+02  0.56068166131E+02 -0.17544417838E+03  0.19337287257E+03  0.00000000000E+00 0. -1.
         -5    1    5    5    0  502  0.19177116639E+02  0.21422562882E+02  0.22730934110E+02  0.36952312087E+02  0.47000000000E+01 0.  1.
         11    1    6    6    0    0 -0.10642434334E+03 -0.60210862499E+02  0.56834813801E+02  0.13483947819E+03  0.00000000000E+00 0. -1.
        -12    1    6    6    0    0 -0.16527737327E+02 -0.56089426349E+02  0.70545468516E+02  0.91628887244E+02  0.00000000000E+00 0.  1.
<mgrwt>
<rscale>  2 0.22119261E+03</rscale>
<asrwt>0</asrwt>
<pdfrwt beam="1">  1       21 0.35184881E-01 0.22279133E+03</pdfrwt>
<pdfrwt beam="2">  1       21 0.95746352E-01 0.22279133E+03</pdfrwt>
<totfact> 0.69311299E+03</totfact>
</mgrwt>
</event>
<event>
12    1  0.1039378E-001  0.1895381E+03  0.7546771E-02  0.1160462E+00
         21   -1    0    0  501  502  0.00000000000E+00  0.00000000000E+00  0.22286163007E+03  0.22286163007E+03  0.00000000000E+00 0.  1.
         21   -1    0    0  502  503 -0.00000000000E+00 -0.00000000000E+00 -0.27994421723E+03  0.27994421723E+03  0.00000000000E+00 0. -1.
         -6    2    1    2    0  503 -0.35732921331E+02 -0.66977212333E+02 -0.19591027148E+03  0.26786366322E+03  0.16615450328E+03 0.  0.
        -24    2    3    3    0    0 -0.34392130128E+02 -0.96727204629E+02 -0.90936454944E+02  0.15864621076E+03  0.79750928652E+02 0.  0.
          6    2    1    2  501    0  0.35732921331E+02  0.66977212333E+02  0.13882768433E+03  0.23494218408E+03  0.17367186096E+03 0.  0.
         24    2    5    5    0    0 -0.46516038127E+02  0.56423572812E+02  0.26839420887E+02  0.95515745460E+02  0.55276954921E+02 0.  0.
          5    1    5    5  501    0  0.82248959458E+02  0.10553639521E+02  0.11198826344E+03  0.13942643862E+03  0.47000000000E+01 0. -1.
        -11    1    6    6    0    0 -0.22354459270E+02  0.37105773526E+00  0.26241902039E+02  0.34474584200E+02  0.00000000000E+00 0.  1.
         12    1    6    6    0    0 -0.24161578857E+02  0.56052515076E+02  0.59751884775E+00  0.61041161260E+02  0.00000000000E+00 0. -1.
         -5    1    3    3    0  503 -0.13407912029E+01  0.29749992296E+02 -0.10497381654E+03  0.10921745246E+03  0.47000000000E+01 0.  1.
         13    1    4    4    0    0 -0.33425285332E+02 -0.10183361592E+03 -0.10103194732E+03  0.14729151167E+03  0.00000000000E+00 0. -1.
        -14    1    4    4    0    0 -0.96684479531E+00  0.51064112871E+01  0.10095492378E+02  0.11354699091E+02  0.00000000000E+00 0.  1.
<mgrwt>
<rscale>  2 0.18779851E+03</rscale>
<asrwt>0</asrwt>
<pdfrwt beam="1">  1       21 0.34286405E-01 0.18953813E+03</pdfrwt>
<pdfrwt beam="2">  1       21 0.43068341E-01 0.18953813E+03</pdfrwt>
<totfact> 0.42560921E+04</totfact>
</mgrwt>
</event>
<event>
12    1  0.1039378E-001  0.1783440E+03  0.7546771E-02  0.1170331E+00
         21   -1    0    0  501  502  0.00000000000E+00  0.00000000000E+00  0.23482305095E+03  0.23482305095E+03  0.00000000000E+00 0.  1.
         21   -1    0    0  502  503 -0.00000000000E+00 -0.00000000000E+00 -0.37329238948E+03  0.37329238948E+03  0.00000000000E+00 0.  1.
         -6    2    1    2    0  503  0.12339485064E+01  0.12806267801E+02 -0.31309757437E+03  0.35851256682E+03  0.17417131328E+03 0.  0.
        -24    2    3    3    0    0 -0.57605048058E+02 -0.24698847931E+02 -0.22504282296E+03  0.24606528820E+03  0.77301224071E+02 0.  0.
          6    2    1    2  501    0 -0.12339485064E+01 -0.12806267801E+02  0.17462823583E+03  0.24960287360E+03  0.17787931481E+03 0.  0.
         24    2    5    5    0    0  0.49261872686E+02 -0.41276200705E+02  0.15376000819E+03  0.18781340878E+03  0.86609927580E+02 0.  0.
          5    1    5    5  501    0 -0.50495821193E+02  0.28469932903E+02  0.20868227645E+02  0.61789464818E+02  0.47000000000E+01 0. -1.
        -13    1    6    6    0    0 -0.24488653401E+02 -0.13240393839E+02  0.52704957469E+02  0.59605492332E+02  0.00000000000E+00 0.  1.
         14    1    6    6    0    0  0.73750526087E+02 -0.28035806865E+02  0.10105505072E+03  0.12820791645E+03  0.00000000000E+00 0. -1.
         -5    1    3    3    0  503  0.58838996565E+02  0.37505115732E+02 -0.88054751415E+02  0.11244727862E+03  0.47000000000E+01 0.  1.
         13    1    4    4    0    0 -0.47160736361E+02 -0.18537124665E+02 -0.52031279033E+02  0.72629291906E+02  0.00000000000E+00 0. -1.
        -14    1    4    4    0    0 -0.10444311697E+02 -0.61617232657E+01 -0.17301154392E+03  0.17343599630E+03  0.00000000000E+00 0.  1.
<mgrwt>
<rscale>  2 0.17741216E+03</rscale>
<asrwt>0</asrwt>
<pdfrwt beam="1">  1       21 0.36126624E-01 0.17834398E+03</pdfrwt>
<pdfrwt beam="2">  1       21 0.57429597E-01 0.17834398E+03</pdfrwt>
<totfact> 0.21204915E+04</totfact>
</mgrwt>
</event>
<event>
12    1  0.1039378E-001  0.2600780E+03  0.7546771E-02  0.1107413E+00
         21   -1    0    0  503  502  0.00000000000E+00  0.00000000000E+00  0.51206281107E+03  0.51206281107E+03  0.00000000000E+00 0. -1.
         21   -1    0    0  501  503 -0.00000000000E+00 -0.00000000000E+00 -0.15912927270E+03  0.15912927270E+03  0.00000000000E+00 0. -1.
          6    2    1    2  501    0 -0.18805007826E+03  0.33265843333E+02  0.36032202519E+02  0.26256212362E+03  0.17655339384E+03 0.  0.
         24    2    3    3    0    0 -0.66027301391E+02  0.25246798382E+02 -0.44510224039E+02  0.11605944231E+03  0.80570644451E+02 0.  0.
         -6    2    1    2    0  502  0.18805007826E+03 -0.33265843333E+02  0.31690133584E+03  0.40862996015E+03  0.17344318785E+03 0.  0.
        -24    2    5    5    0    0  0.12715124603E+03 -0.52621320952E+02  0.11310527936E+03  0.19499891157E+03  0.79343106247E+02 0.  0.
          5    1    3    3  501    0 -0.12202277686E+03  0.80190449509E+01  0.80542426557E+02  0.14650268131E+03  0.47000000000E+01 0. -1.
        -11    1    4    4    0    0 -0.10275832494E+02 -0.69570535020E+01 -0.49928698295E+02  0.51447723374E+02  0.00000000000E+00 0.  1.
         12    1    4    4    0    0 -0.55751468897E+02  0.32203851884E+02  0.54184742566E+01  0.64611718934E+02  0.00000000000E+00 0. -1.
         -5    1    5    5    0  502  0.60898832229E+02  0.19355477619E+02  0.20379605649E+03  0.21363104859E+03  0.47000000000E+01 0.  1.
         11    1    6    6    0    0  0.76613598118E+02 -0.35050545567E+01  0.95269635219E+02  0.12230385202E+03  0.00000000000E+00 0. -1.
        -12    1    6    6    0    0  0.50537647909E+02 -0.49116266395E+02  0.17835644137E+02  0.72695059547E+02  0.00000000000E+00 0.  1.
<mgrwt>
<rscale>  2 0.25955106E+03</rscale>
<asrwt>0</asrwt>
<pdfrwt beam="1">  1       21 0.78778893E-01 0.26007797E+03</pdfrwt>
<pdfrwt beam="2">  1       21 0.24481427E-01 0.26007797E+03</pdfrwt>
<totfact> 0.21656671E+04</totfact>
</mgrwt>
</event>
<event>
12    1  0.1039378E-001  0.1774993E+03  0.7546771E-02  0.1170678E+00
         21   -1    0    0  503  502  0.00000000000E+00  0.00000000000E+00  0.13937238707E+03  0.13937238707E+03  0.00000000000E+00 0. -1.
         21   -1    0    0  501  503 -0.00000000000E+00 -0.00000000000E+00 -0.22418893985E+03  0.22418893985E+03  0.00000000000E+00 0. -1.
          6    2    1    2  501    0 -0.30864807012E+02  0.12921234082E+02 -0.49836358066E+02  0.18436281779E+03  0.17431692803E+03 0.  0.
         24    2    3    3    0    0 -0.81011807241E+02  0.26014025221E+02 -0.78117102478E+01  0.11747258057E+03  0.80617255893E+02 0.  0.
         -6    2    1    2    0  502  0.30864807012E+02 -0.12921234082E+02 -0.34980194715E+02  0.17919850913E+03  0.17253665422E+03 0.  0.
        -24    2    5    5    0    0  0.37356564312E+02  0.95543610755E+01  0.42743068433E+02  0.97894813486E+02  0.79180969277E+02 0.  0.
          5    1    3    3  501    0  0.50147000229E+02 -0.13092791139E+02 -0.42024647818E+02  0.66890237225E+02  0.47000000000E+01 0. -1.
        -11    1    4    4    0    0 -0.27693848767E+02  0.28972441291E+02  0.31653791035E+02  0.51071656531E+02  0.00000000000E+00 0.  1.
         12    1    4    4    0    0 -0.53317958475E+02 -0.29584160704E+01 -0.39465501283E+02  0.66400924038E+02  0.00000000000E+00 0. -1.
         -5    1    5    5    0  502 -0.64917572996E+01 -0.22475595157E+02 -0.77723263148E+02  0.81303695641E+02  0.47000000000E+01 0.  1.
         11    1    6    6    0    0  0.41196629662E+02 -0.36978969473E+01  0.61801828954E+02  0.74366005671E+02  0.00000000000E+00 0. -1.
        -12    1    6    6    0    0 -0.38400653505E+01  0.13252258023E+02 -0.19058760521E+02  0.23528807815E+02  0.00000000000E+00 0.  1.
<mgrwt>
<rscale>  2 0.17706062E+03</rscale>
<asrwt>0</asrwt>
<pdfrwt beam="1">  1       21 0.21441906E-01 0.17749926E+03</pdfrwt>
<pdfrwt beam="2">  1       21 0.34490606E-01 0.17749926E+03</pdfrwt>
<totfact> 0.16490806E+05</totfact>
</mgrwt>
</event>
<event>
12    1  0.1039378E-001  0.1946833E+03  0.7546771E-02  0.1154854E+00
         21   -1    0    0  501  502  0.00000000000E+00  0.00000000000E+00  0.13635117288E+03  0.13635117288E+03  0.00000000000E+00 0. -1.
         21   -1    0    0  502  503 -0.00000000000E+00 -0.00000000000E+00 -0.30979558983E+03  0.30979558983E+03  0.00000000000E+00 0. -1.
         -6    2    1    2    0  503 -0.87889126302E+02 -0.17692933471E+02 -0.11831480993E+02  0.19504246323E+03  0.17281215265E+03 0.  0.
        -24    2    3    3    0    0 -0.64945262691E+02 -0.44991073935E+02  0.53881339519E+02  0.12013002014E+03  0.72704464172E+02 0.  0.
          6    2    1    2  501    0  0.87889126302E+02  0.17692933471E+02 -0.16161293596E+03  0.25110429948E+03  0.16999144017E+03 0.  0.
         24    2    5    5    0    0  0.40761332425E+02 -0.26141455503E+02 -0.24887192403E+02  0.99914016841E+02  0.83776944911E+02 0.  0.
          5    1    5    5  501    0  0.47127793877E+02  0.43834388974E+02 -0.13672574356E+03  0.15119028264E+03  0.47000000000E+01 0. -1.
        -13    1    6    6    0    0  0.18218154382E+02  0.21721783936E+02  0.16446767707E+02  0.32775497166E+02  0.00000000000E+00 0.  1.
         14    1    6    6    0    0  0.22543178043E+02 -0.47863239439E+02 -0.41333960109E+02  0.67138519675E+02  0.00000000000E+00 0. -1.
         -5    1    3    3    0  503 -0.22943863611E+02  0.27298140464E+02 -0.65712820512E+02  0.74912443091E+02  0.47000000000E+01 0.  1.
         13    1    4    4    0    0 -0.40362575968E+02 -0.63871468401E+02  0.44762157984E+02  0.87820002288E+02  0.00000000000E+00 0. -1.
        -14    1    4    4    0    0 -0.24582686723E+02  0.18880394466E+02  0.91191815354E+01  0.32310017852E+02  0.00000000000E+00 0.  1.
<mgrwt>
<rscale>  2 0.19405539E+03</rscale>
<asrwt>0</asrwt>
<pdfrwt beam="1">  1       21 0.20977104E-01 0.19468328E+03</pdfrwt>
<pdfrwt beam="2">  1       21 0.47660859E-01 0.19468328E+03</pdfrwt>
<totfact> 0.88792194E+04</totfact>
</mgrwt>
</event>
<event>
12    1  0.1039378E-001  0.5986679E+03  0.7546771E-02  0.9908449E-01
         21   -1    0    0  503  502  0.00000000000E+00  0.00000000000E+00  0.71803146988E+03  0.71803146988E+03  0.00000000000E+00 0. -1.
         21   -1    0    0  501  503 -0.00000000000E+00 -0.00000000000E+00 -0.58546070384E+03  0.58546070384E+03  0.00000000000E+00 0.  1.
          6    2    1    2  501    0  0.93866037888E+02 -0.56462028144E+03 -0.18457510207E+03  0.62647520431E+03  0.17548879745E+03 0.  0.
         24    2    3    3    0    0  0.59826083915E+01 -0.24949048186E+03 -0.13787836062E+03  0.29597109931E+03  0.79417612378E+02 0.  0.
         -6    2    1    2    0  502 -0.93866037888E+02  0.56462028144E+03  0.31714586811E+03  0.67701696942E+03  0.17367665340E+03 0.  0.
        -24    2    5    5    0    0 -0.70263870373E+02  0.56325207167E+03  0.31114011866E+03  0.65217560601E+03  0.79592335815E+02 0.  0.
          5    1    3    3  501    0  0.87883429496E+02 -0.31512979958E+03 -0.46696741451E+02  0.33050410500E+03  0.47000000000E+01 0. -1.
        -13    1    4    4    0    0  0.28790400501E+02 -0.23027700190E+03 -0.12255857182E+03  0.26244425750E+03  0.00000000000E+00 0.  1.
         14    1    4    4    0    0 -0.22807792109E+02 -0.19213479960E+02 -0.15319788793E+02  0.33526841810E+02  0.00000000000E+00 0. -1.
         -5    1    5    5    0  502 -0.23602167514E+02  0.13682097759E+01  0.60057494453E+01  0.24841363404E+02  0.47000000000E+01 0.  1.
         11    1    6    6    0    0 -0.78055205933E+02  0.33169720186E+03  0.20126077333E+03  0.39575440336E+03  0.00000000000E+00 0. -1.
        -12    1    6    6    0    0  0.77913355599E+01  0.23155486980E+03  0.10987934533E+03  0.25642120265E+03  0.00000000000E+00 0.  1.
<mgrwt>
<rscale>  2 0.59853565E+03</rscale>
<asrwt>0</asrwt>
<pdfrwt beam="1">  1       21 0.11046638E+00 0.59866787E+03</pdfrwt>
<pdfrwt beam="2">  1       21 0.90070878E-01 0.59866787E+03</pdfrwt>
<totfact> 0.53745074E+02</totfact>
</mgrwt>
</event>
<event>
12    1  0.1039378E-001  0.2204505E+03  0.7546771E-02  0.1133573E+00
         21   -1    0    0  503  502  0.00000000000E+00  0.00000000000E+00  0.24237633329E+03  0.24237633329E+03  0.00000000000E+00 0. -1.
         21   -1    0    0  501  503 -0.00000000000E+00 -0.00000000000E+00 -0.21127553438E+03  0.21127553438E+03  0.00000000000E+00 0. -1.
          6    2    1    2  501    0  0.39809398719E+02 -0.13016781726E+03 -0.35946583683E+02  0.22336194348E+03  0.17340689733E+03 0.  0.
         24    2    3    3    0    0  0.29559896572E+02 -0.65529360040E+01 -0.47403743363E+02  0.98706226926E+02  0.81111502843E+02 0.  0.
         -6    2    1    2    0  502 -0.39809398719E+02  0.13016781726E+03  0.67047382588E+02  0.23028992419E+03  0.17323293219E+03 0.  0.
        -24    2    5    5    0    0 -0.61724018627E+02  0.14519350326E+02  0.29526443391E+02  0.10665849879E+03  0.80520547034E+02 0.  0.
          5    1    3    3  501    0  0.10249502148E+02 -0.12361488125E+03  0.11457159680E+02  0.12465571655E+03  0.47000000000E+01 0. -1.
        -13    1    4    4    0    0 -0.10342974359E+01  0.34695457836E+02 -0.13915220157E+02  0.37396228656E+02  0.00000000000E+00 0.  1.
         14    1    4    4    0    0  0.30594194008E+02 -0.41248393840E+02 -0.33488523206E+02  0.61309998270E+02  0.00000000000E+00 0. -1.
         -5    1    5    5    0  502  0.21914619908E+02  0.11564846693E+03  0.37520939197E+02  0.12363142541E+03  0.47000000000E+01 0.  1.
         13    1    6    6    0    0 -0.35797111312E+02  0.47570378956E+02  0.24397028030E+02  0.64339638707E+02  0.00000000000E+00 0. -1.
        -14    1    6    6    0    0 -0.25926907315E+02 -0.33051028630E+02  0.51294153611E+01  0.42318860079E+02  0.00000000000E+00 0.  1.
<mgrwt>
<rscale>  2 0.22041624E+03</rscale>
<asrwt>0</asrwt>
<pdfrwt beam="1">  1       21 0.37288667E-01 0.22045045E+03</pdfrwt>
<pdfrwt beam="2">  1       21 0.32503928E-01 0.22045045E+03</pdfrwt>
<totfact> 0.62397587E+04</totfact>
</mgrwt>
</event>
<event>
12    1  0.1039378E-001  0.2111361E+03  0.7546771E-02  0.1144394E+00
         21   -1    0    0  501  502  0.00000000000E+00  0.00000000000E+00  0.54550056649E+03  0.54550056649E+03  0.00000000000E+00 0.  1.
         21   -1    0    0  502  503 -0.00000000000E+00 -0.00000000000E+00 -0.96395945121E+02  0.96395945121E+02  0.00000000000E+00 0.  1.
         -6    2    1    2    0  503 -0.84931605208E+02 -0.94802562218E+01  0.80828643814E+02  0.22607900991E+03  0.19306785398E+03 0.  0.
        -24    2    3    3    0    0 -0.15268340475E+02  0.39765446808E+02 -0.18356862855E+02  0.95166961371E+02  0.83098514680E+02 0.  0.
          6    2    1    2  501    0  0.84931605208E+02  0.94802562218E+01  0.36827597755E+03  0.41581750170E+03  0.17312927613E+03 0.  0.
         24    2    5    5    0    0  0.77139167437E+02 -0.57423968706E+02  0.23438716053E+03  0.26586683407E+03  0.80621765670E+02 0.  0.
          5    1    5    5  501    0  0.77924377707E+01  0.66904224928E+02  0.13388881702E+03  0.14995066763E+03  0.47000000000E+01 0. -1.
        -13    1    6    6    0    0  0.27788198632E+02 -0.23209341109E+02  0.16377333258E+02  0.39737570919E+02  0.00000000000E+00 0.  1.
         14    1    6    6    0    0  0.49350968805E+02 -0.34214627597E+02  0.21800982728E+03  0.22612926315E+03  0.00000000000E+00 0. -1.
         -5    1    3    3    0  503 -0.69663264733E+02 -0.49245703030E+02  0.99185506669E+02  0.13091204854E+03  0.47000000000E+01 0.  1.
         13    1    4    4    0    0 -0.21246393266E+02 -0.76442941325E+01 -0.37432200698E+02  0.43715147359E+02  0.00000000000E+00 0. -1.
        -14    1    4    4    0    0  0.59780527907E+01  0.47409740941E+02  0.19075337843E+02  0.51451814012E+02  0.00000000000E+00 0.  1.
<mgrwt>
<rscale>  2 0.20646763E+03</rscale>
<asrwt>0</asrwt>
<pdfrwt beam="1">  1       21 0.83923162E-01 0.21113609E+03</pdfrwt>
<pdfrwt beam="2">  1       21 0.14830146E-01 0.21113609E+03</pdfrwt>
<totfact> 0.48955363E+04</totfact>
</mgrwt>
</event>
<event>
12    1  0.1039378E-001  0.2059431E+03  0.7546771E-02  0.1144924E+00
         21   -1    0    0  501  502  0.00000000000E+00  0.00000000000E+00  0.13581396844E+03  0.13581396844E+03  0.00000000000E+00 0.  1.
         21   -1    0    0  502  503 -0.00000000000E+00 -0.00000000000E+00 -0.31205942590E+03  0.31205942590E+03  0.00000000000E+00 0.  1.
         -6    2    1    2    0  503  0.49019650764E+02 -0.99925357590E+02 -0.78581036337E+02  0.21994594995E+03  0.17266510469E+03 0.  0.
        -24    2    3    3    0    0  0.45973935449E+02 -0.98985764433E+02  0.48505064251E+01  0.13632136299E+03  0.81536508957E+02 0.  0.
          6    2    1    2  501    0 -0.49019650764E+02  0.99925357590E+02 -0.97664421128E+02  0.22792744439E+03  0.17327601536E+03 0.  0.
         24    2    5    5    0    0 -0.36044996584E+01  0.38164864458E+02  0.20826419733E+02  0.86721694400E+02  0.74949070868E+02 0.  0.
          5    1    5    5  501    0 -0.45415151105E+02  0.61760493133E+02 -0.11849084086E+03  0.14120574999E+03  0.47000000000E+01 0. -1.
        -13    1    6    6    0    0  0.44466868008E+00  0.59228328186E+02  0.25956088580E+02  0.64667697688E+02  0.00000000000E+00 0.  1.
         14    1    6    6    0    0 -0.40491683385E+01 -0.21063463729E+02 -0.51296688474E+01  0.22053996712E+02  0.00000000000E+00 0. -1.
         -5    1    3    3    0  503  0.30457153147E+01 -0.93959315658E+00 -0.83431542762E+02  0.83624586963E+02  0.47000000000E+01 0.  1.
         11    1    4    4    0    0 -0.20177519096E+02 -0.24987156762E+02  0.16975747656E+02  0.36327211404E+02  0.00000000000E+00 0. -1.
        -12    1    4    4    0    0  0.66151454545E+02 -0.73998607672E+02 -0.12125241231E+02  0.99994151583E+02  0.00000000000E+00 0.  1.
<mgrwt>
<rscale>  2 0.20581459E+03</rscale>
<asrwt>0</asrwt>
<pdfrwt beam="1">  1       21 0.20894457E-01 0.20594315E+03</pdfrwt>
<pdfrwt beam="2">  1       21 0.48009142E-01 0.20594315E+03</pdfrwt>
<totfact> 0.87692921E+04</totfact>
</mgrwt>
</event>
<event>
12    1  0.1039378E-001  0.1745627E+03  0.7546771E-02  0.1173208E+00
         21   -1    0    0  503  502  0.00000000000E+00  0.00000000000E+00  0.12483452791E+03  0.12483452791E+03  0.00000000000E+00 0. -1.
         21   -1    0    0  501  503 -0.00000000000E+00 -0.00000000000E+00 -0.25203159203E+03  0.25203159203E+03  0.00000000000E+00 0. -1.
          6    2    1    2  501    0  0.73114920656E+01  0.19405922518E+02 -0.97471677990E+02  0.19993212444E+03  0.17332650873E+03 0.  0.
         24    2    3    3    0    0 -0.60568809403E+02  0.27206771244E+02 -0.73382371932E+02  0.12733065590E+03  0.80120748544E+02 0.  0.
         -6    2    1    2    0  502 -0.73114920656E+01 -0.19405922518E+02 -0.29725386127E+02  0.17693399550E+03  0.17318196337E+03 0.  0.
        -24    2    5    5    0    0 -0.61019261444E+02 -0.17486544522E+02  0.19430846824E+02  0.10395020455E+03  0.79993485424E+02 0.  0.
          5    1    3    3  501    0  0.67880301469E+02 -0.78008487258E+01 -0.24089306058E+02  0.72601468543E+02  0.47000000000E+01 0. -1.
        -13    1    4    4    0    0 -0.23605426241E+02  0.47837084696E+02 -0.15366731344E+02  0.55513415067E+02  0.00000000000E+00 0.  1.
         14    1    4    4    0    0 -0.36963383162E+02 -0.20630313451E+02 -0.58015640588E+02  0.71817240833E+02  0.00000000000E+00 0. -1.
         -5    1    5    5    0  502  0.53707769378E+02 -0.19193779968E+01 -0.49156232951E+02  0.72983790950E+02  0.47000000000E+01 0.  1.
         11    1    6    6    0    0 -0.25644350026E+02  0.32175083562E+02  0.76160968325E+01  0.41843441797E+02  0.00000000000E+00 0. -1.
        -12    1    6    6    0    0 -0.35374911418E+02 -0.49661628083E+02  0.11814749992E+02  0.62106762749E+02  0.00000000000E+00 0.  1.
<mgrwt>
<rscale>  2 0.17452678E+03</rscale>
<asrwt>0</asrwt>
<pdfrwt beam="1">  1       21 0.19205312E-01 0.17456267E+03</pdfrwt>
<pdfrwt beam="2">  1       21 0.38774091E-01 0.17456267E+03</pdfrwt>
<totfact> 0.16058465E+05</totfact>
</mgrwt>
</event>
<event>
12    1  0.1039378E-001  0.2020935E+03  0.7546771E-02  0.1148448E+00
         21   -1    0    0  501  502  0.00000000000E+00  0.00000000000E+00  0.65522120966E+03  0.65522120966E+03  0.00000000000E+00 0. -1.
         21   -1    0    0  502  503 -0.00000000000E+00 -0.00000000000E+00 -0.62078383788E+02  0.62078383788E+02  0.00000000000E+00 0. -1.
         -6    2    1    2    0  503 -0.63196566976E+01 -0.10297052363E+03  0.26520746264E+03  0.33209397766E+03  0.17119738597E+03 0.  0.
        -24    2    3    3    0    0  0.57286365017E+02 -0.36767701942E+02  0.16493449868E+03  0.19605980218E+03  0.81255557674E+02 0.  0.
          6    2    1    2  501    0  0.63196566976E+01  0.10297052363E+03  0.32793536323E+03  0.38520561578E+03  0.17377829892E+03 0.  0.
         24    2    5    5    0    0  0.17347680991E+02  0.32270605692E+01  0.83485062918E+02  0.12091710853E+03  0.85672839620E+02 0.  0.
          5    1    5    5  501    0 -0.11028024293E+02  0.99743463065E+02  0.24445030031E+03  0.26428850726E+03  0.47000000000E+01 0. -1.
        -13    1    6    6    0    0  0.54026423445E+01 -0.40499524149E+02  0.29332840014E+02  0.50297271336E+02  0.00000000000E+00 0.  1.
         14    1    6    6    0    0  0.11945038646E+02  0.43726584718E+02  0.54152222904E+02  0.70619837190E+02  0.00000000000E+00 0. -1.
         -5    1    3    3    0  503 -0.63606021715E+02 -0.66202821692E+02  0.10027296396E+03  0.13603417548E+03  0.47000000000E+01 0.  1.
         11    1    4    4    0    0 -0.35731691369E+01  0.33366513677E+00 -0.81329131329E+01  0.88894963936E+01  0.00000000000E+00 0. -1.
        -12    1    4    4    0    0  0.60859534154E+02 -0.37101367079E+02  0.17306741181E+03  0.18717030578E+03  0.00000000000E+00 0.  1.
<mgrwt>
<rscale>  2 0.20153742E+03</rscale>
<asrwt>0</asrwt>
<pdfrwt beam="1">  1       21 0.10080326E+00 0.20209345E+03</pdfrwt>
<pdfrwt beam="2">  1       21 0.95505211E-02 0.20209345E+03</pdfrwt>
<totfact> 0.70567626E+04</totfact>
</mgrwt>
</event>
<event>
12    1  0.1039378E-001  0.2201262E+03  0.7546771E-02  0.1135244E+00
         21   -1    0    0  503  502  0.00000000000E+00  0.00000000000E+00  0.55821955545E+03  0.55821955545E+03  0.00000000000E+00 0.  1.
         21   -1    0    0  501  503 -0.00000000000E+00 -0.00000000000E+00 -0.46306708706E+03  0.46306708706E+03  0.00000000000E+00 0.  1.
          6    2    1    2  501    0 -0.36277283241E+02  0.12803765580E+03 -0.41469372487E+03  0.46595008552E+03  0.16561676896E+03 0.  0.
         24    2    3    3    0    0  0.27228440645E+02  0.10625038409E+03 -0.33644962121E+03  0.36274208228E+03  0.79705323173E+02 0.  0.
         -6    2    1    2    0  502  0.36277283241E+02 -0.12803765580E+03  0.50984619326E+03  0.55533655699E+03  0.17534499755E+03 0.  0.
        -24    2    5    5    0    0 -0.27883890579E+02 -0.12842985518E+03  0.34471012049E+03  0.37811121293E+03  0.82893203109E+02 0.  0.
          5    1    3    3  501    0 -0.63505723886E+02  0.21787271711E+02 -0.78244103662E+02  0.10320800324E+03  0.47000000000E+01 0. -1.
        -11    1    4    4    0    0  0.20333750702E+01  0.85807274726E+02 -0.14449710621E+03  0.16806676266E+03  0.00000000000E+00 0.  1.
         12    1    4    4    0    0  0.25195065575E+02  0.20443109361E+02 -0.19195251501E+03  0.19467531961E+03  0.00000000000E+00 0. -1.
         -5    1    5    5    0  502  0.64161173820E+02  0.39219938498E+00  0.16513607277E+03  0.17722534406E+03  0.47000000000E+01 0.  1.
         11    1    6    6    0    0  0.10418419074E+02 -0.30430464073E+02  0.17865461354E+03  0.18152693337E+03  0.00000000000E+00 0. -1.
        -12    1    6    6    0    0 -0.38302309653E+02 -0.97999391110E+02  0.16605550694E+03  0.19658427956E+03  0.00000000000E+00 0.  1.
<mgrwt>
<rscale>  2 0.21818371E+03</rscale>
<asrwt>0</asrwt>
<pdfrwt beam="1">  1       21 0.85879931E-01 0.22012622E+03</pdfrwt>
<pdfrwt beam="2">  1       21 0.71241091E-01 0.22012622E+03</pdfrwt>
<totfact> 0.20368431E+03</totfact>
</mgrwt>
</event>
<event>
12    1  0.1039378E-001  0.2005124E+03  0.7546771E-02  0.1149444E+00
         21   -1    0    0  503  502  0.00000000000E+00  0.00000000000E+00  0.20079561014E+02  0.20079561014E+02  0.00000000000E+00 0. -1.
         21   -1    0    0  501  503 -0.00000000000E+00 -0.00000000000E+00 -0.20258492912E+04  0.20258492912E+04  0.00000000000E+00 0. -1.
          6    2    1    2  501    0  0.98584786364E+02 -0.12974463260E+02 -0.11290689855E+04  0.11467353659E+04  0.17412044297E+03 0.  0.
         24    2    3    3    0    0  0.10287766222E+03 -0.32351298043E+02 -0.51562751694E+03  0.53295493625E+03  0.80862896182E+02 0.  0.
         -6    2    1    2    0  502 -0.98584786364E+02  0.12974463260E+02 -0.87670074466E+03  0.89919348625E+03  0.17337079696E+03 0.  0.
        -24    2    5    5    0    0 -0.10041206546E+02  0.58985284612E+02 -0.41083759196E+03  0.42274041590E+03  0.79635686963E+02 0.  0.
          5    1    3    3  501    0 -0.42928758611E+01  0.19376834783E+02 -0.61344146854E+03  0.61378042966E+03  0.47000000000E+01 0. -1.
        -13    1    4    4    0    0  0.37724676641E+02 -0.41882715137E+02 -0.12924790716E+03  0.14100473240E+03  0.00000000000E+00 0.  1.
         14    1    4    4    0    0  0.65152985584E+02  0.95314170948E+01 -0.38637960978E+03  0.39195020385E+03  0.00000000000E+00 0. -1.
         -5    1    5    5    0  502 -0.88543579817E+02 -0.46010821352E+02 -0.46586315269E+03  0.47645307035E+03  0.47000000000E+01 0.  1.
         13    1    6    6    0    0 -0.19912512519E+02  0.86329299466E+01 -0.23382822587E+02  0.31902852951E+02  0.00000000000E+00 0. -1.
        -14    1    6    6    0    0  0.98713059727E+01  0.50352354665E+02 -0.38745476938E+03  0.39083756295E+03  0.00000000000E+00 0.  1.
<mgrwt>
<rscale>  2 0.20034955E+03</rscale>
<asrwt>0</asrwt>
<pdfrwt beam="1">  1       21 0.30891630E-02 0.20051241E+03</pdfrwt>
<pdfrwt beam="2">  1       21 0.31166914E+00 0.20051241E+03</pdfrwt>
<totfact> 0.17483652E+04</totfact>
</mgrwt>
</event>
<event>
12    1  0.1039378E-001  0.1751709E+03  0.7546771E-02  0.1172823E+00
         21   -1    0    0  503  502  0.00000000000E+00  0.00000000000E+00  0.19693921398E+03  0.19693921398E+03  0.00000000000E+00 0.  1.
         21   -1    0    0  501  503 -0.00000000000E+00 -0.00000000000E+00 -0.27447319787E+03  0.27447319787E+03  0.00000000000E+00 0.  1.
          6    2    1    2  501    0  0.32385409073E+02  0.10602127994E+02 -0.19428827799E+03  0.26089782096E+03  0.17075865477E+03 0.  0.
         24    2    3    3    0    0  0.56035040880E+02 -0.45587965753E+02 -0.15125517656E+03  0.18612770969E+03  0.80914816024E+02 0.  0.
         -6    2    1    2    0  502 -0.32385409073E+02 -0.10602127994E+02  0.11675429411E+03  0.21051459089E+03  0.17182435202E+03 0.  0.
        -24    2    5    5    0    0 -0.85157111639E+02 -0.27676947131E+00  0.56501017694E+02  0.12961951725E+03  0.79731072914E+02 0.  0.
          5    1    3    3  501    0 -0.23649631807E+02  0.56190093747E+02 -0.43033101434E+02  0.74770111268E+02  0.47000000000E+01 0. -1.
        -13    1    4    4    0    0  0.24748208355E+02 -0.27587473491E+02 -0.14478978053E+03  0.14945776346E+03  0.00000000000E+00 0.  1.
         14    1    4    4    0    0  0.31286832525E+02 -0.18000492262E+02 -0.64653960212E+01  0.36669946234E+02  0.00000000000E+00 0. -1.
         -5    1    5    5    0  502  0.52771702566E+02 -0.10325358523E+02  0.60253276412E+02  0.80895073637E+02  0.47000000000E+01 0.  1.
         13    1    6    6    0    0 -0.17752131249E+02 -0.31113153761E+02  0.39973975311E+02  0.53675741289E+02  0.00000000000E+00 0. -1.
        -14    1    6    6    0    0 -0.67404980390E+02  0.30836384289E+02  0.16527042383E+02  0.75943775962E+02  0.00000000000E+00 0.  1.
<mgrwt>
<rscale>  2 0.17490896E+03</rscale>
<asrwt>0</asrwt>
<pdfrwt beam="1">  1       21 0.30298341E-01 0.17517085E+03</pdfrwt>
<pdfrwt beam="2">  1       21 0.42226646E-01 0.17517085E+03</pdfrwt>
<totfact> 0.56862935E+04</totfact>
</mgrwt>
</event>
<event>
11    1  0.1039378E-001  0.2702717E+03  0.7546771E-02  0.1101305E+00
         21   -1    0    0  503  502  0.00000000000E+00  0.00000000000E+00  0.43317179184E+03  0.43317179184E+03  0.00000000000E+00 0. -1.
         21   -1    0    0  501  503 -0.00000000000E+00 -0.00000000000E+00 -0.19951362529E+03  0.19951362529E+03  0.00000000000E+00 0. -1.
          6    2    1    2  501    0  0.20577189961E+03  0.25026353746E+02  0.24262849440E+03  0.36226485892E+03  0.17146092458E+03 0.  0.
         -6    2    1    2    0  502 -0.20577189961E+03 -0.25026353746E+02 -0.89703278556E+01  0.27042055822E+03  0.17343130765E+03 0.  0.
        -24    2    4    4    0    0 -0.76651699281E+02 -0.52711199834E+02  0.41334268305E+02  0.12903060373E+03  0.79286955868E+02 0.  0.
          5    1    3    3  501    0  0.20094978184E+03  0.17547980556E+02  0.12395960154E+03  0.23680544600E+03  0.47000000000E+01 0. -1.
        -11    1    3    3    0    0  0.25793414298E+01 -0.14672326577E+02  0.74745919392E+02  0.76216026105E+02  0.00000000000E+00 0.  1.
         12    1    3    3    0    0  0.22427763420E+01  0.22150699766E+02  0.43922973473E+02  0.49243386811E+02  0.00000000000E+00 0. -1.
         -5    1    4    4    0  502 -0.12912020033E+03  0.27684846088E+02 -0.50304596161E+02  0.14138995449E+03  0.47000000000E+01 0.  1.
         13    1    5    5    0    0 -0.63676900636E+02  0.12345820401E+01  0.36327654275E+02  0.73321008807E+02  0.00000000000E+00 0. -1.
        -14    1    5    5    0    0 -0.12974798646E+02 -0.53945781874E+02  0.50066140297E+01  0.55709594918E+02  0.00000000000E+00 0.  1.
<mgrwt>
<rscale>  2 0.26995615E+03</rscale>
<asrwt>0</asrwt>
<pdfrwt beam="1">  1       21 0.66641814E-01 0.27027174E+03</pdfrwt>
<pdfrwt beam="2">  1       21 0.30694404E-01 0.27027174E+03</pdfrwt>
<totfact> 0.20195865E+04</totfact>
</mgrwt>
</event>
<event>
12    1  0.1039378E-001  0.1882577E+03  0.7546771E-02  0.1160153E+00
         21   -1    0    0  501  502  0.00000000000E+00  0.00000000000E+00  0.29873226385E+02  0.29873226385E+02  0.00000000000E+00 0. -1.
         21   -1    0    0  502  503 -0.00000000000E+00 -0.00000000000E+00 -0.15433276202E+04  0.15433276202E+04  0.00000000000E+00 0. -1.
         -6    2    1    2    0  503  0.10315371094E+02 -0.70707037127E+02 -0.11373859025E+04  0.11528606417E+04  0.17416967546E+03 0.  0.
        -24    2    3    3    0    0  0.46779461238E+01 -0.69879414944E+02 -0.11400426522E+04  0.11450111935E+04  0.80301734832E+02 0.  0.
          6    2    1    2  501    0 -0.10315371094E+02  0.70707037127E+02 -0.37606849130E+03  0.42034020493E+03  0.17364471128E+03 0.  0.
         24    2    5    5    0    0 -0.79913552199E+01 -0.97937261536E+01 -0.29773344005E+03  0.30789357673E+03  0.77417533170E+02 0.  0.
          5    1    5    5  501    0 -0.23240158739E+01  0.80500763280E+02 -0.78335051250E+02  0.11244662820E+03  0.47000000000E+01 0. -1.
        -13    1    6    6    0    0  0.28534011121E+02  0.44022708348E+01 -0.20776263461E+03  0.20975910498E+03  0.00000000000E+00 0.  1.
         14    1    6    6    0    0 -0.36525366341E+02 -0.14195996988E+02 -0.89970805433E+02  0.98134471757E+02  0.00000000000E+00 0. -1.
         -5    1    3    3    0  503  0.56374249700E+01 -0.82762218318E+00  0.26567496112E+01  0.78494482142E+01  0.47000000000E+01 0.  1.
         13    1    4    4    0    0  0.38262792496E+02 -0.50903300671E+02 -0.85532035113E+03  0.85768764149E+03  0.00000000000E+00 0. -1.
        -14    1    4    4    0    0 -0.33584846372E+02 -0.18976114272E+02 -0.28472230102E+03  0.28732355197E+03  0.00000000000E+00 0.  1.
<mgrwt>
<rscale>  2 0.18813621E+03</rscale>
<asrwt>0</asrwt>
<pdfrwt beam="1">  1       21 0.45958804E-02 0.18825772E+03</pdfrwt>
<pdfrwt beam="2">  1       21 0.23743505E+00 0.18825772E+03</pdfrwt>
<totfact> 0.24569490E+04</totfact>
</mgrwt>
</event>
<event>
12    1  0.1039378E-001  0.2373753E+03  0.7546771E-02  0.1123283E+00
         21   -1    0    0  501  502  0.00000000000E+00  0.00000000000E+00  0.95108533179E+02  0.95108533179E+02  0.00000000000E+00 0. -1.
         21   -1    0    0  502  503 -0.00000000000E+00 -0.00000000000E+00 -0.60110362461E+03  0.60110362461E+03  0.00000000000E+00 0. -1.
         -6    2    1    2    0  503 -0.13416567863E+03  0.61880789667E+02 -0.32983945846E+03  0.40061471263E+03  0.17282481930E+03 0.  0.
        -24    2    3    3    0    0 -0.63197175113E+02  0.30051396127E+02 -0.29806724350E+03  0.31646483189E+03  0.80055848178E+02 0.  0.
          6    2    1    2  501    0  0.13416567863E+03 -0.61880789667E+02 -0.17615563297E+03  0.29559744516E+03  0.18578853868E+03 0.  0.
         24    2    5    5    0    0  0.11095711078E+03 -0.61858597216E+02 -0.20736624931E+03  0.25642052994E+03  0.81318880554E+02 0.  0.
          5    1    5    5  501    0  0.23208567842E+02 -0.22192451114E-01  0.31210616344E+02  0.39176915222E+02  0.47000000000E+01 0. -1.
        -11    1    6    6    0    0  0.98597041195E+02 -0.15625426704E+02 -0.16312781963E+03  0.19124909420E+03  0.00000000000E+00 0.  1.
         12    1    6    6    0    0  0.12360069590E+02 -0.46233170512E+02 -0.44238429681E+02  0.65171435740E+02  0.00000000000E+00 0. -1.
         -5    1    3    3    0  503 -0.70968503514E+02  0.31829393540E+02 -0.31772214959E+02  0.84149880733E+02  0.47000000000E+01 0.  1.
         11    1    4    4    0    0 -0.78159633510E+02  0.36325934264E+02 -0.27552307548E+03  0.28868922206E+03  0.00000000000E+00 0. -1.
        -12    1    4    4    0    0  0.14962458397E+02 -0.62745381369E+01 -0.22544168018E+02  0.27775609836E+02  0.00000000000E+00 0.  1.
<mgrwt>
<rscale>  2 0.23483400E+03</rscale>
<asrwt>0</asrwt>
<pdfrwt beam="1">  1       21 0.14632082E-01 0.23737532E+03</pdfrwt>
<pdfrwt beam="2">  1       21 0.92477480E-01 0.23737532E+03</pdfrwt>
<totfact> 0.39586810E+04</totfact>
</mgrwt>
</event>
<event>
12    1  0.1039378E-001  0.1924047E+03  0.7546771E-02  0.1157196E+00
         21   -1    0    0  503  502  0.00000000000E+00  0.00000000000E+00  0.16092798474E+03  0.16092798474E+03  0.00000000000E+00 0.  1.
         21   -1    0    0  501  503 -0.00000000000E+00 -0.00000000000E+00 -0.22552253557E+03  0.22552253557E+03  0.00000000000E+00 0.  1.
          6    2    1    2  501    0  0.34420680710E+02 -0.67047884147E+02 -0.37450686036E+02  0.19214060364E+03  0.17272885009E+03 0.  0.
         24    2    3    3    0    0  0.46228705154E+02 -0.24119370837E+02  0.38940019868E+02  0.10359729986E+03  0.80605447467E+02 0.  0.
         -6    2    1    2    0  502 -0.34420680710E+02  0.67047884147E+02 -0.27143864798E+02  0.19430991666E+03  0.17702924134E+03 0.  0.
        -24    2    5    5    0    0  0.16809125938E+02  0.81794627156E+02  0.26495937573E+02  0.11853869576E+03  0.79852864309E+02 0.  0.
          5    1    3    3  501    0 -0.11808024444E+02 -0.42928513310E+02 -0.76390705904E+02  0.88543303783E+02  0.47000000000E+01 0. -1.
        -11    1    4    4    0    0  0.28852372344E+02 -0.54099849044E+02  0.26229651368E+02  0.66687687524E+02  0.00000000000E+00 0.  1.
         12    1    4    4    0    0  0.17376332810E+02  0.29980478207E+02  0.12710368500E+02  0.36909612336E+02  0.00000000000E+00 0. -1.
         -5    1    5    5    0  502 -0.51229806648E+02 -0.14746743009E+02 -0.53639802370E+02  0.75771220901E+02  0.47000000000E+01 0.  1.
         11    1    6    6    0    0 -0.31933238736E+02  0.35598533875E+02  0.16794921958E+02  0.50685863451E+02  0.00000000000E+00 0. -1.
        -12    1    6    6    0    0  0.48742364674E+02  0.46196093281E+02  0.97010156147E+01  0.67852832309E+02  0.00000000000E+00 0.  1.
<mgrwt>
<rscale>  2 0.19140967E+03</rscale>
<asrwt>0</asrwt>
<pdfrwt beam="1">  1       21 0.24758152E-01 0.19240466E+03</pdfrwt>
<pdfrwt beam="2">  1       21 0.34695775E-01 0.19240466E+03</pdfrwt>
<totfact> 0.12356679E+05</totfact>
</mgrwt>
</event>
<event>
12    1  0.1039378E-001  0.1761266E+03  0.7546771E-02  0.1171763E+00
         21   -1    0    0  503  502  0.00000000000E+00  0.00000000000E+00  0.29236120598E+03  0.29236120598E+03  0.00000000000E+00 0. -1.
         21   -1    0    0  501  503 -0.00000000000E+00 -0.00000000000E+00 -0.16032749489E+03  0.16032749489E+03  0.00000000000E+00 0. -1.
          6    2    1    2  501    0  0.10976486747E+02 -0.33269252472E+02 -0.66154787152E+02  0.18754864093E+03  0.17196136319E+03 0.  0.
         24    2    3    3    0    0 -0.37436663170E+02 -0.58997072991E+02 -0.89422687011E+01  0.10816907114E+03  0.82087912691E+02 0.  0.
         -6    2    1    2    0  502 -0.10976486747E+02  0.33269252472E+02  0.19818849825E+03  0.26514005994E+03  0.17260719605E+03 0.  0.
        -24    2    5    5    0    0 -0.18068210976E+02  0.26266328443E+00  0.21230242878E+03  0.22824804837E+03  0.81843271422E+02 0.  0.
          5    1    3    3  501    0  0.48413149917E+02  0.25727820519E+02 -0.57212518451E+02  0.79379569796E+02  0.47000000000E+01 0. -1.
        -11    1    4    4    0    0 -0.36630798719E+02 -0.87634596512E+01 -0.35137651752E+02  0.51509884591E+02  0.00000000000E+00 0.  1.
         12    1    4    4    0    0 -0.80586445079E+00 -0.50233613340E+02  0.26195383051E+02  0.56659186545E+02  0.00000000000E+00 0. -1.
         -5    1    5    5    0  502  0.70917242286E+01  0.33006589188E+02 -0.14113930540E+02  0.36892011569E+02  0.47000000000E+01 0.  1.
         13    1    6    6    0    0 -0.12892008198E+02 -0.38070542329E+02  0.14654615863E+03  0.15195837153E+03  0.00000000000E+00 0. -1.
        -14    1    6    6    0    0 -0.51762027774E+01  0.38333205614E+02  0.65756270156E+02  0.76289676842E+02  0.00000000000E+00 0.  1.
<mgrwt>
<rscale>  2 0.17596814E+03</rscale>
<asrwt>0</asrwt>
<pdfrwt beam="1">  1       21 0.44978647E-01 0.17612658E+03</pdfrwt>
<pdfrwt beam="2">  1       21 0.24665769E-01 0.17612658E+03</pdfrwt>
<totfact> 0.74227845E+04</totfact>
</mgrwt>
</event>
<event>
12    1  0.1039378E-001  0.1744497E+03  0.7546771E-02  0.1173715E+00
         21   -1    0    0  501  502  0.00000000000E+00  0.00000000000E+00  0.22086067934E+03  0.22086067934E+03  0.00000000000E+00 0. -1.
         21   -1    0    0  502  503 -0.00000000000E+00 -0.00000000000E+00 -0.17085006376E+03  0.17085006376E+03  0.00000000000E+00 0. -1.
         -6    2    1    2    0  503 -0.29922211261E+01 -0.19341956984E+02 -0.62773617892E+02  0.18540022087E+03  0.17334834902E+03 0.  0.
        -24    2    3    3    0    0 -0.29530312500E+02  0.10714994665E+02 -0.98798807388E+02  0.13129296706E+03  0.80559222882E+02 0.  0.
          6    2    1    2  501    0  0.29922211261E+01  0.19341956984E+02  0.11278423347E+03  0.20631052223E+03  0.17164114768E+03 0.  0.
         24    2    5    5    0    0  0.59526697985E+02 -0.18830892314E+02  0.78224976294E+02  0.12969625624E+03  0.82486009043E+02 0.  0.
          5    1    5    5  501    0 -0.56534476859E+02  0.38172849298E+02  0.34559257178E+02  0.76614265995E+02  0.47000000000E+01 0. -1.
        -11    1    6    6    0    0  0.58012526159E+02 -0.54038644089E+00  0.97803123705E+01  0.58833661444E+02  0.00000000000E+00 0.  1.
         12    1    6    6    0    0  0.15141718257E+01 -0.18290505873E+02  0.68444663923E+02  0.70862594794E+02  0.00000000000E+00 0. -1.
         -5    1    3    3    0  503  0.26538091374E+02 -0.30056951649E+02  0.36025189496E+02  0.54107253806E+02  0.47000000000E+01 0.  1.
         13    1    4    4    0    0 -0.30736609021E+02 -0.18782061460E+02 -0.95169607631E+01  0.37256912231E+02  0.00000000000E+00 0. -1.
        -14    1    4    4    0    0  0.12062965206E+01  0.29497056125E+02 -0.89281846625E+02  0.94036054831E+02  0.00000000000E+00 0.  1.
<mgrwt>
<rscale>  2 0.17402411E+03</rscale>
<asrwt>0</asrwt>
<pdfrwt beam="1">  1       21 0.33978566E-01 0.17444975E+03</pdfrwt>
<pdfrwt beam="2">  1       21 0.26284625E-01 0.17444975E+03</pdfrwt>
<totfact> 0.11559413E+05</totfact>
</mgrwt>
</event>
<event>
12    1  0.1039378E-001  0.2177017E+03  0.7546771E-02  0.1135842E+00
         21   -1    0    0  503  502  0.00000000000E+00  0.00000000000E+00  0.13056902260E+03  0.13056902260E+03  0.00000000000E+00 0.  1.
         21   -1    0    0  501  503 -0.00000000000E+00 -0.00000000000E+00 -0.47481574329E+03  0.47481574329E+03  0.00000000000E+00 0.  1.
          6    2    1    2  501    0  0.65866793790E+02  0.11441982788E+03 -0.32074288913E+03  0.38764676985E+03  0.17310021871E+03 0.  0.
         24    2    3    3    0    0  0.81414330690E+02  0.57774599603E+02 -0.10720298629E+03  0.16612524066E+03  0.78351245780E+02 0.  0.
         -6    2    1    2    0  502 -0.65866793790E+02 -0.11441982788E+03 -0.23503831565E+02  0.21773799604E+03  0.17154321113E+03 0.  0.
        -24    2    5    5    0    0 -0.80043679171E+02 -0.13219821484E+03 -0.52058030663E+02  0.18093463467E+03  0.78383320205E+02 0.  0.
          5    1    3    3  501    0 -0.15547536899E+02  0.56645228279E+02 -0.21353990284E+03  0.22152152919E+03  0.47000000000E+01 0. -1.
        -13    1    4    4    0    0  0.56991022709E+02  0.64411009140E+02 -0.41055188149E+02  0.95301013855E+02  0.00000000000E+00 0.  1.
         14    1    4    4    0    0  0.24423307981E+02 -0.66364095376E+01 -0.66147798138E+02  0.70824226807E+02  0.00000000000E+00 0. -1.
         -5    1    5    5    0  502  0.14176885381E+02  0.17778386957E+02  0.28554199098E+02  0.36803361369E+02  0.47000000000E+01 0.  1.
         13    1    6    6    0    0  0.36424397050E+01 -0.26900165668E+02 -0.36568462581E+02  0.45542713308E+02  0.00000000000E+00 0. -1.
        -14    1    6    6    0    0 -0.83686118876E+02 -0.10529804917E+03 -0.15489568082E+02  0.13539192137E+03  0.00000000000E+00 0.  1.
<mgrwt>
<rscale>  2 0.21739202E+03</rscale>
<asrwt>0</asrwt>
<pdfrwt beam="1">  1       21 0.20087542E-01 0.21770167E+03</pdfrwt>
<pdfrwt beam="2">  1       21 0.73048575E-01 0.21770167E+03</pdfrwt>
<totfact> 0.38108355E+04</totfact>
</mgrwt>
</event>
<event>
12    1  0.1039378E-001  0.2491864E+03  0.7546771E-02  0.1114258E+00
         21   -1    0    0  501  502  0.00000000000E+00  0.00000000000E+00  0.13962938766E+03  0.13962938766E+03  0.00000000000E+00 0. -1.
         21   -1    0    0  502  503 -0.00000000000E+00 -0.00000000000E+00 -0.50658749938E+03  0.50658749938E+03  0.00000000000E+00 0. -1.
         -6    2    1    2    0  503  0.17549637142E+03  0.84985929693E+01 -0.29989485922E+03  0.38816394115E+03  0.17280947938E+03 0.  0.
        -24    2    3    3    0    0  0.84981091871E+02 -0.17922304781E+02 -0.26125410894E+03  0.28615277877E+03  0.78017359434E+02 0.  0.
          6    2    1    2  501    0 -0.17549637142E+03 -0.84985929693E+01 -0.67063252508E+02  0.25805294589E+03  0.17669929423E+03 0.  0.
         24    2    5    5    0    0 -0.11608038221E+03  0.85181200655E+01 -0.11285487252E+03  0.18098939575E+03  0.80459465693E+02 0.  0.
          5    1    5    5  501    0 -0.59415989212E+02 -0.17016713035E+02  0.45791620014E+02  0.77063550140E+02  0.47000000000E+01 0. -1.
        -11    1    6    6    0    0 -0.90546282969E+01  0.54775303983E+01 -0.61205753008E+02  0.62113877952E+02  0.00000000000E+00 0.  1.
         12    1    6    6    0    0 -0.10702575391E+03  0.30405896671E+01 -0.51649119514E+02  0.11887551780E+03  0.00000000000E+00 0. -1.
         -5    1    3    3    0  503  0.90515279549E+02  0.26420897751E+02 -0.38640750274E+02  0.10201116239E+03  0.47000000000E+01 0.  1.
         13    1    4    4    0    0  0.99636772282E+02 -0.20770873247E+02 -0.22534357972E+03  0.24726229896E+03  0.00000000000E+00 0. -1.
        -14    1    4    4    0    0 -0.14655680411E+02  0.28485684651E+01 -0.35910529223E+02  0.38890479808E+02  0.00000000000E+00 0.  1.
<mgrwt>
<rscale>  2 0.24849776E+03</rscale>
<asrwt>0</asrwt>
<pdfrwt beam="1">  1       21 0.21481445E-01 0.24918636E+03</pdfrwt>
<pdfrwt beam="2">  1       21 0.77936537E-01 0.24918636E+03</pdfrwt>
<totfact> 0.28609125E+04</totfact>
</mgrwt>
</event>
<event>
12    1  0.1039378E-001  0.1844990E+03  0.7546771E-02  0.1164575E+00
         21   -1    0    0  501  502  0.00000000000E+00  0.00000000000E+00  0.45013368691E+03  0.45013368691E+03  0.00000000000E+00 0. -1.
         21   -1    0    0  502  503 -0.00000000000E+00 -0.00000000000E+00 -0.75554103650E+02  0.75554103650E+02  0.00000000000E+00 0.  1.
         -6    2    1    2    0  503  0.65108039184E+02 -0.65905276559E+01  0.14509753097E+03  0.23123593312E+03  0.16773273816E+03 0.  0.
        -24    2    3    3    0    0 -0.84386582677E+01 -0.37357763632E+02  0.35551250296E+02  0.95669649974E+02  0.80137238982E+02 0.  0.
          6    2    1    2  501    0 -0.65108039184E+02  0.65905276559E+01  0.22948205229E+03  0.29445185745E+03  0.17250331072E+03 0.  0.
         24    2    5    5    0    0 -0.82940821406E+02 -0.67755839198E+01  0.24221225336E+03  0.26835953904E+03  0.80155961234E+02 0.  0.
          5    1    5    5  501    0  0.17832782222E+02  0.13366111576E+02 -0.12730201071E+02  0.26092318405E+02  0.47000000000E+01 0. -1.
        -11    1    6    6    0    0 -0.30689925335E+02 -0.42123199342E+02  0.99393315540E+02  0.11222863545E+03  0.00000000000E+00 0.  1.
         12    1    6    6    0    0 -0.52250896071E+02  0.35347615422E+02  0.14281893782E+03  0.15613090360E+03  0.00000000000E+00 0. -1.
         -5    1    3    3    0  503  0.73546697452E+02  0.30767235976E+02  0.10954628067E+03  0.13556628314E+03  0.47000000000E+01 0.  1.
         11    1    4    4    0    0  0.36981788200E+01 -0.48357250540E+01  0.55365900266E+02  0.55699584160E+02  0.00000000000E+00 0. -1.
        -12    1    4    4    0    0 -0.12136837088E+02 -0.32522038578E+02 -0.19814649970E+02  0.39970065814E+02  0.00000000000E+00 0.  1.
<mgrwt>
<rscale>  2 0.18337568E+03</rscale>
<asrwt>0</asrwt>
<pdfrwt beam="1">  1       21 0.69251335E-01 0.18449901E+03</pdfrwt>
<pdfrwt beam="2">  1       21 0.11623709E-01 0.18449901E+03</pdfrwt>
<totfact> 0.11821207E+05</totfact>
</mgrwt>
</event>
<event>
12    1  0.1039378E-001  0.2213581E+03  0.7546771E-02  0.1132930E+00
         21   -1    0    0  501  502  0.00000000000E+00  0.00000000000E+00  0.25275179900E+03  0.25275179900E+03  0.00000000000E+00 0. -1.
         21   -1    0    0  502  503 -0.00000000000E+00 -0.00000000000E+00 -0.19644397418E+03  0.19644397418E+03  0.00000000000E+00 0. -1.
         -6    2    1    2    0  503 -0.14700112577E+02  0.13847202877E+03  0.11576451884E+01  0.22136115140E+03  0.17207214518E+03 0.  0.
        -24    2    3    3    0    0 -0.86584234361E+01  0.28555491393E+02 -0.50387127983E+02  0.99717816864E+02  0.80711807988E+02 0.  0.
          6    2    1    2  501    0  0.14700112577E+02 -0.13847202877E+03  0.55150179625E+02  0.22783462178E+03  0.17168714718E+03 0.  0.
         24    2    5    5    0    0  0.11195484844E+01 -0.16215195781E+03  0.72270054555E+02  0.19527159247E+03  0.81323571188E+02 0.  0.
          5    1    5    5  501    0  0.13580564093E+02  0.23679929034E+02 -0.17119874930E+02  0.32563029309E+02  0.47000000000E+01 0. -1.
        -13    1    6    6    0    0 -0.31881355244E+02 -0.51220097646E+02  0.30370040312E+01  0.60408133629E+02  0.00000000000E+00 0.  1.
         14    1    6    6    0    0  0.33000903728E+02 -0.11093186016E+03  0.69233050524E+02  0.13486345884E+03  0.00000000000E+00 0. -1.
         -5    1    3    3    0  503 -0.60416891411E+01  0.10991653738E+03  0.51544773171E+02  0.12164333454E+03  0.47000000000E+01 0.  1.
         11    1    4    4    0    0 -0.93910555824E+01  0.54897834293E+02 -0.19255037962E+02  0.58929794009E+02  0.00000000000E+00 0. -1.
        -12    1    4    4    0    0  0.73263214623E+00 -0.26342342900E+02 -0.31132090021E+02  0.40788022855E+02  0.00000000000E+00 0.  1.
<mgrwt>
<rscale>  2 0.22128330E+03</rscale>
<asrwt>0</asrwt>
<pdfrwt beam="1">  1       21 0.38884892E-01 0.22135812E+03</pdfrwt>
<pdfrwt beam="2">  1       21 0.30222150E-01 0.22135812E+03</pdfrwt>
<totfact> 0.66143872E+04</totfact>
</mgrwt>
</event>
<event>
12    1  0.1039378E-001  0.1769613E+03  0.7546771E-02  0.1171579E+00
         21   -1    0    0  501  502  0.00000000000E+00  0.00000000000E+00  0.83438023390E+02  0.83438023390E+02  0.00000000000E+00 0. -1.
         21   -1    0    0  502  503 -0.00000000000E+00 -0.00000000000E+00 -0.36941251792E+03  0.36941251792E+03  0.00000000000E+00 0. -1.
         -6    2    1    2    0  503 -0.39656756347E+01 -0.44147744764E+02 -0.15531923925E+03  0.23545566544E+03  0.17132003490E+03 0.  0.
        -24    2    3    3    0    0 -0.88940868849E+00 -0.95801437024E+02 -0.96134955283E+02  0.15670011446E+03  0.78321707461E+02 0.  0.
          6    2    1    2  501    0  0.39656756347E+01  0.44147744764E+02 -0.13065525528E+03  0.21739487587E+03  0.16800293560E+03 0.  0.
         24    2    5    5    0    0 -0.26174452063E+02 -0.12226007515E+02 -0.17386934432E+02  0.87247921423E+02  0.80469355056E+02 0.  0.
          5    1    5    5  501    0  0.30140127698E+02  0.56373752278E+02 -0.11326832085E+03  0.13014695445E+03  0.47000000000E+01 0. -1.
        -11    1    6    6    0    0  0.27117833455E+02 -0.11879911107E+02 -0.16613818003E+02  0.33948904664E+02  0.00000000000E+00 0.  1.
         12    1    6    6    0    0 -0.53292285519E+02 -0.34609640717E+00 -0.77311642904E+00  0.53299016760E+02  0.00000000000E+00 0. -1.
         -5    1    3    3    0  503 -0.30762669462E+01  0.51653692261E+02 -0.59184283968E+02  0.78755550987E+02  0.47000000000E+01 0.  1.
         13    1    4    4    0    0 -0.70989647968E+01 -0.51256722170E+02 -0.98921641406E+02  0.11163842532E+03  0.00000000000E+00 0. -1.
        -14    1    4    4    0    0  0.62095561083E+01 -0.44544714855E+02  0.27866861231E+01  0.45061689139E+02  0.00000000000E+00 0.  1.
<mgrwt>
<rscale>  2 0.17615345E+03</rscale>
<asrwt>0</asrwt>
<pdfrwt beam="1">  1       21 0.12836619E-01 0.17696131E+03</pdfrwt>
<pdfrwt beam="2">  1       21 0.56832697E-01 0.17696131E+03</pdfrwt>
<totfact> 0.15208801E+05</totfact>
</mgrwt>
</event>
<event>
12    1  0.1039378E-001  0.2432546E+03  0.7546771E-02  0.1118034E+00
         21   -1    0    0  501  502  0.00000000000E+00  0.00000000000E+00  0.92180572319E+03  0.92180572319E+03  0.00000000000E+00 0.  1.
         21   -1    0    0  502  503 -0.00000000000E+00 -0.00000000000E+00 -0.10003777128E+03  0.10003777128E+03  0.00000000000E+00 0. -1.
         -6    2    1    2    0  503  0.28084110632E+02 -0.16587589131E+03  0.10111438641E+03  0.26124216993E+03  0.17239438397E+03 0.  0.
        -24    2    3    3    0    0 -0.32378176969E+02 -0.14270374880E+03  0.86541930028E+02  0.19470584230E+03  0.94911290724E+02 0.  0.
          6    2    1    2  501    0 -0.28084110632E+02  0.16587589131E+03  0.72065356550E+03  0.76060132453E+03  0.17569657032E+03 0.  0.
         24    2    5    5    0    0 -0.62138141773E+01  0.79054940740E+01  0.21599117784E+03  0.23131957368E+03  0.82191532030E+02 0.  0.
          5    1    5    5  501    0 -0.21870296455E+02  0.15797039724E+03  0.50466238766E+03  0.52928175085E+03  0.47000000000E+01 0. -1.
        -11    1    6    6    0    0 -0.72513925670E+01  0.40630441950E+02  0.16952503199E+03  0.17447679495E+03  0.00000000000E+00 0.  1.
         12    1    6    6    0    0  0.10375783897E+01 -0.32724947876E+02  0.46466145856E+02  0.56842778724E+02  0.00000000000E+00 0. -1.
         -5    1    3    3    0  503  0.60462287601E+02 -0.23172142514E+02  0.14572456384E+02  0.66536327639E+02  0.47000000000E+01 0.  1.
         13    1    4    4    0    0 -0.31521634831E+02 -0.11222733208E+03  0.15752052172E+02  0.11762956548E+03  0.00000000000E+00 0. -1.
        -14    1    4    4    0    0 -0.85654213778E+00 -0.30476416715E+02  0.70789877856E+02  0.77076276811E+02  0.00000000000E+00 0.  1.
<mgrwt>
<rscale>  2 0.24265888E+03</rscale>
<asrwt>0</asrwt>
<pdfrwt beam="1">  1       21 0.14181626E+00 0.24325463E+03</pdfrwt>
<pdfrwt beam="2">  1       21 0.15390427E-01 0.24325463E+03</pdfrwt>
<totfact> 0.12529470E+04</totfact>
</mgrwt>
</event>
<event>
12    1  0.1039378E-001  0.1949399E+03  0.7546771E-02  0.1154140E+00
         21   -1    0    0  503  502  0.00000000000E+00  0.00000000000E+00  0.73543096934E+03  0.73543096934E+03  0.00000000000E+00 0. -1.
         21   -1    0    0  501  503 -0.00000000000E+00 -0.00000000000E+00 -0.72010732752E+02  0.72010732752E+02  0.00000000000E+00 0.  1.
          6    2    1    2  501    0  0.29073389287E+02  0.81995004769E+02  0.11660080094E+03  0.22691342907E+03  0.17414222561E+03 0.  0.
         24    2    3    3    0    0 -0.40821964449E+02  0.82917905120E+02  0.83499414872E+02  0.14942792089E+03  0.82551435396E+02 0.  0.
         -6    2    1    2    0  502 -0.29073389287E+02 -0.81995004769E+02  0.54681943565E+03  0.58052827302E+03  0.17445096102E+03 0.  0.
        -24    2    5    5    0    0 -0.25741995723E+02 -0.97174635649E+02  0.54911967209E+03  0.56413008823E+03  0.81269809930E+02 0.  0.
          5    1    3    3  501    0  0.69895353736E+02 -0.92290035092E+00  0.33101386068E+02  0.77485508184E+02  0.47000000000E+01 0. -1.
        -13    1    4    4    0    0 -0.18861179516E+02  0.79888833720E+02  0.94086530640E+02  0.12486090298E+03  0.00000000000E+00 0.  1.
         14    1    4    4    0    0 -0.21960784934E+02  0.30290713994E+01 -0.10587115768E+02  0.24567017905E+02  0.00000000000E+00 0. -1.
         -5    1    5    5    0  502 -0.33313935641E+01  0.15179630880E+02 -0.23002364461E+01  0.16398184791E+02  0.47000000000E+01 0.  1.
         13    1    6    6    0    0  0.11378378713E+02 -0.86317893838E+02  0.31383717512E+03  0.32569006553E+03  0.00000000000E+00 0. -1.
        -14    1    6    6    0    0 -0.37120374436E+02 -0.10856741812E+02  0.23528249698E+03  0.23844002270E+03  0.00000000000E+00 0.  1.
<mgrwt>
<rscale>  2 0.19487084E+03</rscale>
<asrwt>0</asrwt>
<pdfrwt beam="1">  1       21 0.11314322E+00 0.19493994E+03</pdfrwt>
<pdfrwt beam="2">  1       21 0.11078575E-01 0.19493994E+03</pdfrwt>
<totfact> 0.41226576E+04</totfact>
</mgrwt>
</event>
<event>
12    1  0.1039378E-001  0.2135779E+03  0.7546771E-02  0.1139039E+00
         21   -1    0    0  501  502  0.00000000000E+00  0.00000000000E+00  0.10291734996E+03  0.10291734996E+03  0.00000000000E+00 0.  1.
         21   -1    0    0  502  503 -0.00000000000E+00 -0.00000000000E+00 -0.45985313639E+03  0.45985313639E+03  0.00000000000E+00 0.  1.
         -6    2    1    2    0  503 -0.46123948554E+01 -0.12989851176E+03 -0.23708239791E+03  0.31909804914E+03  0.16947154339E+03 0.  0.
        -24    2    3    3    0    0  0.42807251651E+02 -0.87660106687E+02 -0.79825830863E+02  0.14943832021E+03  0.80267634680E+02 0.  0.
          6    2    1    2  501    0  0.46123948554E+01  0.12989851176E+03 -0.11985338852E+03  0.24367243721E+03  0.16767982697E+03 0.  0.
         24    2    5    5    0    0 -0.16208269160E+02  0.71893091770E+02 -0.88365744347E+00  0.10960523126E+03  0.81124603147E+02 0.  0.
          5    1    5    5  501    0  0.20820664016E+02  0.58005419987E+02 -0.11896973108E+03  0.13406720595E+03  0.47000000000E+01 0. -1.
        -11    1    6    6    0    0 -0.23764227098E+02 -0.55809351167E+00  0.22869862392E+02  0.32986066206E+02  0.00000000000E+00 0.  1.
         12    1    6    6    0    0  0.75559579378E+01  0.72451185282E+02 -0.23753519835E+02  0.76619165055E+02  0.00000000000E+00 0. -1.
         -5    1    3    3    0  503 -0.47419646507E+02 -0.42238405070E+02 -0.15725656705E+03  0.16965972892E+03  0.47000000000E+01 0.  1.
         13    1    4    4    0    0  0.51228729137E+02 -0.18055317984E+02 -0.47812357157E+02  0.72362964930E+02  0.00000000000E+00 0. -1.
        -14    1    4    4    0    0 -0.84214774859E+01 -0.69604788703E+02 -0.32013473706E+02  0.77075355284E+02  0.00000000000E+00 0.  1.
<mgrwt>
<rscale>  2 0.21322225E+03</rscale>
<asrwt>0</asrwt>
<pdfrwt beam="1">  1       21 0.15833439E-01 0.21357786E+03</pdfrwt>
<pdfrwt beam="2">  1       21 0.70746636E-01 0.21357786E+03</pdfrwt>
<totfact> 0.63717268E+04</totfact>
</mgrwt>
</event>
<event>
12    1  0.1039378E-001  0.2001704E+03  0.7546771E-02  0.1149693E+00
         21   -1    0    0  503  502  0.00000000000E+00  0.00000000000E+00  0.40230517189E+03  0.40230517189E+03  0.00000000000E+00 0. -1.
         21   -1    0    0  501  503 -0.00000000000E+00 -0.00000000000E+00 -0.20094095079E+03  0.20094095079E+03  0.00000000000E+00 0. -1.
          6    2    1    2  501    0 -0.45792383870E+02 -0.87521540187E+02 -0.11382272456E+03  0.22986829765E+03  0.17357090546E+03 0.  0.
         24    2    3    3    0    0  0.18657065132E+02 -0.65518071651E+02 -0.91425503498E+01  0.10489664896E+03  0.79240248254E+02 0.  0.
         -6    2    1    2    0  502  0.45792383870E+02  0.87521540187E+02  0.31518694566E+03  0.37337782503E+03  0.17410119785E+03 0.  0.
        -24    2    5    5    0    0 -0.43125653692E+02  0.40310973558E+02  0.17098378005E+03  0.19744631001E+03  0.79150462413E+02 0.  0.
          5    1    3    3  501    0 -0.64449449002E+02 -0.22003468536E+02 -0.10468017421E+03  0.12497164869E+03  0.47000000000E+01 0. -1.
        -13    1    4    4    0    0  0.17452626517E+02 -0.95524901179E+01 -0.37270584045E+02  0.42248558258E+02  0.00000000000E+00 0.  1.
         14    1    4    4    0    0  0.12044386156E+01 -0.55965581533E+02  0.28128033695E+02  0.62648090699E+02  0.00000000000E+00 0. -1.
         -5    1    5    5    0  502  0.88918037563E+02  0.47210566628E+02  0.14420316561E+03  0.17593151502E+03  0.47000000000E+01 0.  1.
         11    1    6    6    0    0  0.82356355002E+01  0.19600165175E+02  0.12097409894E+03  0.12282802930E+03  0.00000000000E+00 0. -1.
        -12    1    6    6    0    0 -0.51361289193E+02  0.20710808383E+02  0.50009681111E+02  0.74618280711E+02  0.00000000000E+00 0.  1.
<mgrwt>
<rscale>  2 0.20005504E+03</rscale>
<asrwt>0</asrwt>
<pdfrwt beam="1">  1       21 0.61893103E-01 0.20017040E+03</pdfrwt>
<pdfrwt beam="2">  1       21 0.30913993E-01 0.20017040E+03</pdfrwt>
<totfact> 0.24250377E+04</totfact>
</mgrwt>
</event>
<event>
11    1  0.1039378E-001  0.2364940E+03  0.7546771E-02  0.1122275E+00
         21   -1    0    0  503  502  0.00000000000E+00  0.00000000000E+00  0.12460120747E+03  0.12460120747E+03  0.00000000000E+00 0. -1.
         21   -1    0    0  501  503 -0.00000000000E+00 -0.00000000000E+00 -0.61719539688E+03  0.61719539688E+03  0.00000000000E+00 0.  1.
          6    2    1    2  501    0 -0.14712211582E+03 -0.61544951673E+02 -0.52083110953E+02  0.24216123239E+03  0.17463308388E+03 0.  0.
         -6    2    1    2    0  502  0.14712211582E+03  0.61544951673E+02 -0.44051107846E+03  0.49963537195E+03  0.17364560640E+03 0.  0.
        -24    2    4    4    0    0  0.13876296945E+03  0.10102923163E+03 -0.39670509902E+03  0.43988641776E+03  0.81627554261E+02 0.  0.
          5    1    3    3  501    0 -0.38104478547E+02  0.47123092335E+02  0.29110952684E+02  0.67394915852E+02  0.47000000000E+01 0. -1.
        -11    1    3    3    0    0 -0.32811280306E+02 -0.38143117882E+02 -0.33911242659E+02  0.60674953117E+02  0.00000000000E+00 0.  1.
         12    1    3    3    0    0 -0.76206356966E+02 -0.70524926125E+02 -0.47282820978E+02  0.11409136342E+03  0.00000000000E+00 0. -1.
         -5    1    4    4    0  502  0.83591463743E+01 -0.39484279958E+02 -0.43805979443E+02  0.59748954191E+02  0.47000000000E+01 0.  1.
         11    1    5    5    0    0 -0.27227526998E+00  0.33992184383E+02 -0.51032942519E+02  0.61318055703E+02  0.00000000000E+00 0. -1.
        -12    1    5    5    0    0  0.13903524472E+03  0.67037047248E+02 -0.34567215650E+03  0.37856836206E+03  0.00000000000E+00 0.  1.
<mgrwt>
<rscale>  2 0.23631173E+03</rscale>
<asrwt>0</asrwt>
<pdfrwt beam="1">  1       21 0.19169417E-01 0.23649400E+03</pdfrwt>
<pdfrwt beam="2">  1       21 0.94953137E-01 0.23649400E+03</pdfrwt>
<totfact> 0.22602713E+04</totfact>
</mgrwt>
</event>
<event>
12    1  0.1039378E-001  0.2199895E+03  0.7546771E-02  0.1134049E+00
         21   -1    0    0  501  502  0.00000000000E+00  0.00000000000E+00  0.39347046068E+03  0.39347046068E+03  0.00000000000E+00 0.  1.
         21   -1    0    0  502  503 -0.00000000000E+00 -0.00000000000E+00 -0.13716855379E+03  0.13716855379E+03  0.00000000000E+00 0.  1.
         -6    2    1    2    0  503  0.12120060592E+03 -0.59197068615E+02  0.41237596306E+02  0.22298978092E+03  0.17271370309E+03 0.  0.
        -24    2    3    3    0    0  0.43261296386E+02 -0.25649049775E+02 -0.42271334776E+02  0.10384349642E+03  0.80418856532E+02 0.  0.
          6    2    1    2  501    0 -0.12120060592E+03  0.59197068615E+02  0.21506431058E+03  0.30764923355E+03  0.17378582626E+03 0.  0.
         24    2    5    5    0    0 -0.55026490576E+02  0.38079687903E+02  0.28371912868E+02  0.10839788808E+03  0.80418650845E+02 0.  0.
          5    1    5    5  501    0 -0.66174115347E+02  0.21117380712E+02  0.18669239771E+03  0.19925134547E+03  0.47000000000E+01 0. -1.
        -11    1    6    6    0    0  0.13653129498E+02  0.19661219942E+02  0.28594619838E+02  0.37291068614E+02  0.00000000000E+00 0.  1.
         12    1    6    6    0    0 -0.68679620075E+02  0.18418467961E+02 -0.22270697026E+00  0.71106819462E+02  0.00000000000E+00 0. -1.
         -5    1    3    3    0  503  0.77939309537E+02 -0.33548018840E+02  0.83508931083E+02  0.11914628450E+03  0.47000000000E+01 0.  1.
         13    1    4    4    0    0  0.14539683127E+02 -0.38694703630E+02 -0.55863769924E+02  0.69494195905E+02  0.00000000000E+00 0. -1.
        -14    1    4    4    0    0  0.28721613259E+02  0.13045653855E+02  0.13592435147E+02  0.34349300516E+02  0.00000000000E+00 0.  1.
<mgrwt>
<rscale>  2 0.21977773E+03</rscale>
<asrwt>0</asrwt>
<pdfrwt beam="1">  1       21 0.60533917E-01 0.21998953E+03</pdfrwt>
<pdfrwt beam="2">  1       21 0.21102855E-01 0.21998953E+03</pdfrwt>
<totfact> 0.52393006E+04</totfact>
</mgrwt>
</event>
<event>
12    1  0.1039378E-001  0.1759902E+03  0.7546771E-02  0.1172484E+00
         21   -1    0    0  503  502  0.00000000000E+00  0.00000000000E+00  0.91680809924E+03  0.91680809924E+03  0.00000000000E+00 0. -1.
         21   -1    0    0  501  503 -0.00000000000E+00 -0.00000000000E+00 -0.61338669897E+02  0.61338669897E+02  0.00000000000E+00 0. -1.
          6    2    1    2  501    0 -0.24409835192E+01 -0.22546144344E+02  0.98556811532E+02  0.20170768837E+03  0.17452294813E+03 0.  0.
         24    2    3    3    0    0  0.25420525779E+02  0.11644837356E+02 -0.90221158773E+01  0.85343593595E+02  0.80126930709E+02 0.  0.
         -6    2    1    2    0  502  0.24409835192E+01  0.22546144344E+02  0.75691261781E+03  0.77643908077E+03  0.17154197189E+03 0.  0.
        -24    2    5    5    0    0  0.59543317246E+02 -0.20223469954E+02  0.40712080857E+03  0.41941482916E+03  0.78784838540E+02 0.  0.
          5    1    3    3  501    0 -0.27861509299E+02 -0.34190981700E+02  0.10757892741E+03  0.11636409477E+03  0.47000000000E+01 0. -1.
        -13    1    4    4    0    0 -0.13409493781E+02  0.13780671965E+02  0.26454420543E+02  0.32704094691E+02  0.00000000000E+00 0.  1.
         14    1    4    4    0    0  0.38830019561E+02 -0.21358346088E+01 -0.35476536420E+02  0.52639498905E+02  0.00000000000E+00 0. -1.
         -5    1    5    5    0  502 -0.57102333726E+02  0.42769614298E+02  0.34979180925E+03  0.35702425161E+03  0.47000000000E+01 0.  1.
         11    1    6    6    0    0 -0.31123840565E+01 -0.21303710246E+02  0.23945888631E+03  0.24042481826E+03  0.00000000000E+00 0. -1.
        -12    1    6    6    0    0  0.62655701302E+02  0.10802402919E+01  0.16766192226E+03  0.17899001090E+03  0.00000000000E+00 0.  1.
<mgrwt>
<rscale>  2 0.17524656E+03</rscale>
<asrwt>0</asrwt>
<pdfrwt beam="1">  1       21 0.14104739E+00 0.17599019E+03</pdfrwt>
<pdfrwt beam="2">  1       21 0.94367191E-02 0.17599019E+03</pdfrwt>
<totfact> 0.31869375E+04</totfact>
</mgrwt>
</event>
<event>
12    1  0.1039378E-001  0.1894494E+03  0.7546771E-02  0.1159001E+00
         21   -1    0    0  503  502  0.00000000000E+00  0.00000000000E+00  0.49049475571E+03  0.49049475571E+03  0.00000000000E+00 0.  1.
         21   -1    0    0  501  503 -0.00000000000E+00 -0.00000000000E+00 -0.15169023703E+03  0.15169023703E+03  0.00000000000E+00 0.  1.
          6    2    1    2  501    0 -0.40027056411E+02  0.65652305801E+02 -0.61674798897E+02  0.19923571787E+03  0.17314358190E+03 0.  0.
         24    2    3    3    0    0 -0.23096100817E+01  0.70307896144E+02 -0.98616342281E+02  0.14602812530E+03  0.81550572382E+02 0.  0.
         -6    2    1    2    0  502  0.40027056411E+02 -0.65652305801E+02  0.40047931758E+03  0.44294927488E+03  0.17293925466E+03 0.  0.
        -24    2    5    5    0    0  0.42048593166E+02 -0.10399993100E+03  0.35125743179E+03  0.38034327668E+03  0.93247814416E+02 0.  0.
          5    1    3    3  501    0 -0.37717446329E+02 -0.46555903433E+01  0.36941543384E+02  0.53207592565E+02  0.47000000000E+01 0. -1.
        -13    1    4    4    0    0 -0.39291148471E+02  0.43427426653E+02 -0.73116282445E+02  0.93678847626E+02  0.00000000000E+00 0.  1.
         14    1    4    4    0    0  0.36981538390E+02  0.26880469491E+02 -0.25500059836E+02  0.52349277677E+02  0.00000000000E+00 0. -1.
         -5    1    5    5    0  502 -0.20215367549E+01  0.38347625201E+02  0.49221885783E+02  0.62605998190E+02  0.47000000000E+01 0.  1.
         13    1    6    6    0    0 -0.29489748145E+02 -0.29772847629E+02  0.83482627748E+02  0.93409939713E+02  0.00000000000E+00 0. -1.
        -14    1    6    6    0    0  0.71538341311E+02 -0.74227083373E+02  0.26777480405E+03  0.28693333697E+03  0.00000000000E+00 0.  1.
<mgrwt>
<rscale>  2 0.18940274E+03</rscale>
<asrwt>0</asrwt>
<pdfrwt beam="1">  1       21 0.75460731E-01 0.18944944E+03</pdfrwt>
<pdfrwt beam="2">  1       21 0.23336960E-01 0.18944944E+03</pdfrwt>
<totfact> 0.27127666E+04</totfact>
</mgrwt>
</event>
<event>
11    1  0.1039378E-001  0.2221096E+03  0.7546771E-02  0.1132366E+00
         21   -1    0    0  503  502  0.00000000000E+00  0.00000000000E+00  0.20674987715E+03  0.20674987715E+03  0.00000000000E+00 0.  1.
         21   -1    0    0  501  503 -0.00000000000E+00 -0.00000000000E+00 -0.51637151744E+03  0.51637151744E+03  0.00000000000E+00 0.  1.
          6    2    1    2  501    0 -0.63929875775E+02 -0.12101588619E+03 -0.42007592640E+03  0.47506332250E+03  0.17461243575E+03 0.  0.
         24    2    3    3    0    0 -0.46118884442E+02 -0.14306309680E+03 -0.25229236394E+03  0.30483781108E+03  0.81735261614E+02 0.  0.
         -6    2    1    2    0  502  0.63929875775E+02  0.12101588619E+03  0.11045428611E+03  0.24805807208E+03  0.17493079797E+03 0.  0.
          5    1    3    3  501    0 -0.17810991332E+02  0.22047210616E+02 -0.16778356246E+03  0.17022551142E+03  0.47000000000E+01 0. -1.
        -13    1    4    4    0    0 -0.62639683067E+02 -0.63472868877E+02 -0.11884044697E+03  0.14857855435E+03  0.00000000000E+00 0.  1.
         14    1    4    4    0    0  0.16520798625E+02 -0.79590227925E+02 -0.13345191697E+03  0.15625925672E+03  0.00000000000E+00 0. -1.
         -5    1    5    5    0  502  0.39220463806E+02 -0.18845646348E+02 -0.21587906757E+02  0.48800931196E+02  0.47000000000E+01 0.  1.
         11    1    5    5    0    0  0.28070586441E+02  0.71141077501E+02  0.92051688713E+02  0.11967674848E+03  0.00000000000E+00 0. -1.
        -12    1    5    5    0    0 -0.33611744729E+01  0.68720455033E+02  0.39990504153E+02  0.79580392410E+02  0.00000000000E+00 0.  1.
<mgrwt>
<rscale>  2 0.22204687E+03</rscale>
<asrwt>0</asrwt>
<pdfrwt beam="1">  1       21 0.31807674E-01 0.22210956E+03</pdfrwt>
<pdfrwt beam="2">  1       21 0.79441771E-01 0.22210956E+03</pdfrwt>
<totfact> 0.13032868E+04</totfact>
</mgrwt>
</event>
<event>
12    1  0.1039378E-001  0.1801045E+03  0.7546771E-02  0.1168053E+00
         21   -1    0    0  503  502  0.00000000000E+00  0.00000000000E+00  0.25558204419E+03  0.25558204419E+03  0.00000000000E+00 0. -1.
         21   -1    0    0  501  503 -0.00000000000E+00 -0.00000000000E+00 -0.14324462069E+03  0.14324462069E+03  0.00000000000E+00 0. -1.
          6    2    1    2  501    0 -0.18819520350E+02  0.45473108060E+02  0.12535888329E+03  0.21825200809E+03  0.17174723146E+03 0.  0.
         24    2    3    3    0    0  0.19572223088E+02  0.59303862959E+02  0.14884508406E+02  0.10038813216E+03  0.77176475749E+02 0.  0.
         -6    2    1    2    0  502  0.18819520350E+02 -0.45473108060E+02 -0.13021459795E+02  0.18057465679E+03  0.17325031127E+03 0.  0.
        -24    2    5    5    0    0  0.15728160180E+01 -0.89448814518E+02 -0.38317700613E+02  0.12678523991E+03  0.81256917916E+02 0.  0.
          5    1    3    3  501    0 -0.38391743439E+02 -0.13830754899E+02  0.11047437488E+03  0.11786387593E+03  0.47000000000E+01 0. -1.
        -13    1    4    4    0    0  0.27250927626E+02  0.15041759051E+02 -0.25302196449E+02  0.40113198787E+02  0.00000000000E+00 0.  1.
         14    1    4    4    0    0 -0.76787045374E+01  0.44262103908E+02  0.40186704855E+02  0.60274933370E+02  0.00000000000E+00 0. -1.
         -5    1    5    5    0  502  0.17246704332E+02  0.43975706458E+02  0.25296240818E+02  0.53789416881E+02  0.47000000000E+01 0.  1.
         11    1    6    6    0    0 -0.35013105290E+02 -0.31690675758E+02  0.22614211903E+01  0.47279281909E+02  0.00000000000E+00 0. -1.
        -12    1    6    6    0    0  0.36585921308E+02 -0.57758138760E+02 -0.40579121803E+02  0.79505957998E+02  0.00000000000E+00 0.  1.
<mgrwt>
<rscale>  2 0.17974210E+03</rscale>
<asrwt>0</asrwt>
<pdfrwt beam="1">  1       21 0.39320315E-01 0.18010455E+03</pdfrwt>
<pdfrwt beam="2">  1       21 0.22037634E-01 0.18010455E+03</pdfrwt>
<totfact> 0.12050705E+05</totfact>
</mgrwt>
</event>
<event>
12    1  0.1039378E-001  0.1890001E+03  0.7546771E-02  0.1161062E+00
         21   -1    0    0  501  502  0.00000000000E+00  0.00000000000E+00  0.70472358301E+02  0.70472358301E+02  0.00000000000E+00 0. -1.
         21   -1    0    0  502  503 -0.00000000000E+00 -0.00000000000E+00 -0.49646775295E+03  0.49646775295E+03  0.00000000000E+00 0. -1.
         -6    2    1    2    0  503 -0.67693394843E+02 -0.18141575853E+02 -0.24704821085E+03  0.30666501182E+03  0.16762785720E+03 0.  0.
        -24    2    3    3    0    0 -0.59250301871E+02 -0.11763138591E+02 -0.26622984981E+03  0.28425975455E+03  0.79223136939E+02 0.  0.
          6    2    1    2  501    0  0.67693394843E+02  0.18141575853E+02 -0.17894718380E+03  0.26027509943E+03  0.17552640916E+03 0.  0.
         24    2    5    5    0    0  0.86305856495E+02 -0.18581640089E+02 -0.59144127740E+02  0.13350806681E+03  0.80823250640E+02 0.  0.
          5    1    5    5  501    0 -0.18612461652E+02  0.36723215942E+02 -0.11980305606E+03  0.12676703262E+03  0.47000000000E+01 0. -1.
        -13    1    6    6    0    0  0.75764128972E+01 -0.30594770089E+02 -0.41195047989E+02  0.51869778947E+02  0.00000000000E+00 0.  1.
         14    1    6    6    0    0  0.78729443598E+02  0.12013130000E+02 -0.17949079751E+02  0.81638287865E+02  0.00000000000E+00 0. -1.
         -5    1    3    3    0  503 -0.84430929717E+01 -0.63784372624E+01  0.19181638951E+02  0.22405257277E+02  0.47000000000E+01 0.  1.
         11    1    4    4    0    0 -0.66178814265E+02 -0.34158636613E+02 -0.17762249227E+03  0.19260373224E+03  0.00000000000E+00 0. -1.
        -12    1    4    4    0    0  0.69285123939E+01  0.22395498022E+02 -0.88607357536E+02  0.91656022307E+02  0.00000000000E+00 0.  1.
<mgrwt>
<rscale>  2 0.18714499E+03</rscale>
<asrwt>0</asrwt>
<pdfrwt beam="1">  1       21 0.10841902E-01 0.18900009E+03</pdfrwt>
<pdfrwt beam="2">  1       21 0.76379652E-01 0.18900009E+03</pdfrwt>
<totfact> 0.10748737E+05</totfact>
</mgrwt>
</event>
<event>
11    1  0.1039378E-001  0.2672933E+03  0.7546771E-02  0.1103420E+00
         21   -1    0    0  501  502  0.00000000000E+00  0.00000000000E+00  0.18763611833E+03  0.18763611833E+03  0.00000000000E+00 0. -1.
         21   -1    0    0  502  503 -0.00000000000E+00 -0.00000000000E+00 -0.37834055224E+03  0.37834055224E+03  0.00000000000E+00 0. -1.
         -6    2    1    2    0  503 -0.86370535978E+02 -0.17979665535E+03 -0.68546029329E+02  0.27209164256E+03  0.17189705365E+03 0.  0.
          6    2    1    2  501    0  0.86370535978E+02  0.17979665535E+03 -0.12215840458E+03  0.29388502801E+03  0.17792983763E+03 0.  0.
         24    2    4    4    0    0  0.30901182469E+02  0.19032510633E+03 -0.10711212366E+03  0.23526610591E+03  0.81845002150E+02 0.  0.
          5    1    4    4  501    0  0.55469353509E+02 -0.10528450983E+02 -0.15046280918E+02  0.58618922101E+02  0.47000000000E+01 0. -1.
        -13    1    5    5    0    0 -0.26910449155E+02  0.77011603075E+02 -0.51182414740E+02  0.96304718787E+02  0.00000000000E+00 0.  1.
         14    1    5    5    0    0  0.57811631625E+02  0.11331350325E+03 -0.55929708921E+02  0.13896138712E+03  0.00000000000E+00 0. -1.
         -5    1    3    3    0  503  0.44170539446E+01 -0.16147748478E+03 -0.49049998040E+02  0.16888599932E+03  0.47000000000E+01 0.  1.
         11    1    3    3    0    0 -0.51626358567E+02 -0.30855612730E+02 -0.95113319124E+01  0.60891831723E+02  0.00000000000E+00 0. -1.
        -12    1    3    3    0    0 -0.39161231356E+02  0.12536442166E+02 -0.99846993763E+01  0.42313811517E+02  0.00000000000E+00 0.  1.
<mgrwt>
<rscale>  2 0.26629341E+03</rscale>
<asrwt>0</asrwt>
<pdfrwt beam="1">  1       21 0.28867095E-01 0.26729335E+03</pdfrwt>
<pdfrwt beam="2">  1       21 0.58206238E-01 0.26729335E+03</pdfrwt>
<totfact> 0.30635722E+04</totfact>
</mgrwt>
</event>
<event>
12    1  0.1039378E-001  0.1854375E+03  0.7546771E-02  0.1162987E+00
         21   -1    0    0  501  502  0.00000000000E+00  0.00000000000E+00  0.36802203609E+03  0.36802203609E+03  0.00000000000E+00 0.  1.
         21   -1    0    0  502  503 -0.00000000000E+00 -0.00000000000E+00 -0.92894129202E+02  0.92894129202E+02  0.00000000000E+00 0. -1.
         -6    2    1    2    0  503  0.59756791765E+02  0.20723800471E+02  0.12743910622E+03  0.22500621809E+03  0.17431787721E+03 0.  0.
        -24    2    3    3    0    0 -0.90005955534E+01  0.51086538437E+02  0.29447052996E+02  0.10141816582E+03  0.82022376817E+02 0.  0.
          6    2    1    2  501    0 -0.59756791765E+02 -0.20723800471E+02  0.14768880067E+03  0.23590994721E+03  0.17274597327E+03 0.  0.
         24    2    5    5    0    0  0.32682587773E+02  0.10634041349E+02  0.64516783105E+02  0.10758213401E+03  0.78932033281E+02 0.  0.
          5    1    5    5  501    0 -0.92439379538E+02 -0.31357841819E+02  0.83172017566E+02  0.12832781319E+03  0.47000000000E+01 0. -1.
        -13    1    6    6    0    0  0.15856605704E+02  0.31745833696E+02 -0.22570866263E+01  0.35557338787E+02  0.00000000000E+00 0.  1.
         14    1    6    6    0    0  0.16825982069E+02 -0.21111792348E+02  0.66773869731E+02  0.72024795228E+02  0.00000000000E+00 0. -1.
         -5    1    3    3    0  503  0.68757387318E+02 -0.30362737966E+02  0.97992053225E+02  0.12358805227E+03  0.47000000000E+01 0.  1.
         13    1    4    4    0    0 -0.26032819730E+02 -0.11702249267E+02 -0.30335645510E+01  0.28702837053E+02  0.00000000000E+00 0. -1.
        -14    1    4    4    0    0  0.17032224177E+02  0.62788787704E+02  0.32480617547E+02  0.72715328769E+02  0.00000000000E+00 0.  1.
<mgrwt>
<rscale>  2 0.18506719E+03</rscale>
<asrwt>0</asrwt>
<pdfrwt beam="1">  1       21 0.56618774E-01 0.18543752E+03</pdfrwt>
<pdfrwt beam="2">  1       21 0.14291405E-01 0.18543752E+03</pdfrwt>
<totfact> 0.12595571E+05</totfact>
</mgrwt>
</event>
<event>
12    1  0.1039378E-001  0.1925751E+03  0.7546771E-02  0.1156286E+00
         21   -1    0    0  503  502  0.00000000000E+00  0.00000000000E+00  0.31882673628E+03  0.31882673628E+03  0.00000000000E+00 0.  1.
         21   -1    0    0  501  503 -0.00000000000E+00 -0.00000000000E+00 -0.11795021655E+03  0.11795021655E+03  0.00000000000E+00 0. -1.
          6    2    1    2  501    0 -0.55681573187E+02  0.60328972257E+02  0.12856273004E+03  0.23107217945E+03  0.17356829801E+03 0.  0.
         24    2    3    3    0    0  0.23488096135E+02  0.65469305948E+02  0.82816328835E+02  0.13937112823E+03  0.87908170162E+02 0.  0.
         -6    2    1    2    0  502  0.55681573187E+02 -0.60328972257E+02  0.72313789686E+02  0.20570477339E+03  0.17419858532E+03 0.  0.
        -24    2    5    5    0    0  0.73998831254E+02 -0.46768129240E+02 -0.10657003879E+02  0.11953249831E+03  0.80693007639E+02 0.  0.
          5    1    3    3  501    0 -0.79169669322E+02 -0.51403336910E+01  0.45746401208E+02  0.91701051218E+02  0.47000000000E+01 0. -1.
        -13    1    4    4    0    0  0.99398512009E+01  0.44980809919E+02  0.99521571695E+02  0.10966593425E+03  0.00000000000E+00 0.  1.
         14    1    4    4    0    0  0.13548244934E+02  0.20488496029E+02 -0.16705242859E+02  0.29705193979E+02  0.00000000000E+00 0. -1.
         -5    1    5    5    0  502 -0.18317258067E+02 -0.13560843017E+02  0.82970793565E+02  0.86172275073E+02  0.47000000000E+01 0.  1.
         13    1    6    6    0    0  0.46229380710E+02  0.17174667598E+02 -0.31510271478E+01  0.49417140953E+02  0.00000000000E+00 0. -1.
        -14    1    6    6    0    0  0.27769450544E+02 -0.63942796838E+02 -0.75059767314E+01  0.70115357360E+02  0.00000000000E+00 0.  1.
<mgrwt>
<rscale>  2 0.19243245E+03</rscale>
<asrwt>0</asrwt>
<pdfrwt beam="1">  1       21 0.49050267E-01 0.19257510E+03</pdfrwt>
<pdfrwt beam="2">  1       21 0.18146187E-01 0.19257510E+03</pdfrwt>
<totfact> 0.10969518E+05</totfact>
</mgrwt>
</event>
<event>
12    1  0.1039378E-001  0.1944800E+03  0.7546771E-02  0.1155178E+00
         21   -1    0    0  503  502  0.00000000000E+00  0.00000000000E+00  0.41484619868E+03  0.41484619868E+03  0.00000000000E+00 0.  1.
         21   -1    0    0  501  503 -0.00000000000E+00 -0.00000000000E+00 -0.11504911464E+03  0.11504911464E+03  0.00000000000E+00 0. -1.
          6    2    1    2  501    0 -0.63980068504E+01  0.81601238886E+02  0.24580771545E+02  0.19289904831E+03  0.17293389439E+03 0.  0.
         24    2    3    3    0    0 -0.69948923562E+02  0.35806945027E+02  0.39341978065E+01  0.11175591938E+03  0.79365725506E+02 0.  0.
         -6    2    1    2    0  502  0.63980068504E+01 -0.81601238886E+02  0.27521631249E+03  0.33699626501E+03  0.17641645979E+03 0.  0.
        -24    2    5    5    0    0  0.61453932464E+02 -0.93005070262E+02  0.20313052287E+03  0.24545581831E+03  0.80993953554E+02 0.  0.
          5    1    3    3  501    0  0.63550916711E+02  0.45794293859E+02  0.20646573739E+02  0.81143128927E+02  0.47000000000E+01 0. -1.
        -13    1    4    4    0    0 -0.30660312410E+02 -0.18217422181E+02  0.22816973479E+02  0.42338440060E+02  0.00000000000E+00 0.  1.
         14    1    4    4    0    0 -0.39288611152E+02  0.54024367208E+02 -0.18882775672E+02  0.69417479323E+02  0.00000000000E+00 0. -1.
         -5    1    5    5    0  502 -0.55055925613E+02  0.11403831376E+02  0.72085789624E+02  0.91540446694E+02  0.47000000000E+01 0.  1.
         11    1    6    6    0    0  0.23408446750E+02 -0.44748059146E+02  0.23683426298E+02  0.55778569879E+02  0.00000000000E+00 0. -1.
        -12    1    6    6    0    0  0.38045485713E+02 -0.48257011116E+02  0.17944709657E+03  0.18967724843E+03  0.00000000000E+00 0.  1.
<mgrwt>
<rscale>  2 0.19368677E+03</rscale>
<asrwt>0</asrwt>
<pdfrwt beam="1">  1       21 0.63822491E-01 0.19447998E+03</pdfrwt>
<pdfrwt beam="2">  1       21 0.17699864E-01 0.19447998E+03</pdfrwt>
<totfact> 0.65627958E+04</totfact>
</mgrwt>
</event>
<event>
12    1  0.1039378E-001  0.2450524E+03  0.7546771E-02  0.1116525E+00
         21   -1    0    0  501  502  0.00000000000E+00  0.00000000000E+00  0.63731093396E+02  0.63731093396E+02  0.00000000000E+00 0. -1.
         21   -1    0    0  502  503 -0.00000000000E+00 -0.00000000000E+00 -0.16143734958E+04  0.16143734958E+04  0.00000000000E+00 0.  1.
         -6    2    1    2    0  503 -0.17265945795E+03 -0.12228930715E+02 -0.13169158932E+04  0.13394620399E+04  0.17300361659E+03 0.  0.
        -24    2    3    3    0    0 -0.15151018398E+03 -0.17026780207E+02 -0.12938287954E+04  0.13074399345E+04  0.11027684897E+03 0.  0.
          6    2    1    2  501    0  0.17265945795E+03  0.12228930715E+02 -0.23372650918E+03  0.33864254929E+03  0.17346429007E+03 0.  0.
         24    2    5    5    0    0  0.42609426450E+02  0.16248962792E+02 -0.28525245899E+02  0.95622344772E+02  0.79059162353E+02 0.  0.
          5    1    5    5  501    0  0.13005003150E+03 -0.40200320765E+01 -0.20520126328E+03  0.24302020451E+03  0.47000000000E+01 0. -1.
        -13    1    6    6    0    0 -0.11913077321E+02  0.14899176538E+02 -0.35834241081E+02  0.40595562647E+02  0.00000000000E+00 0.  1.
         14    1    6    6    0    0  0.54522503771E+02  0.13497862538E+01  0.73089951822E+01  0.55026782125E+02  0.00000000000E+00 0. -1.
         -5    1    3    3    0  503 -0.21149273972E+02  0.47978494921E+01 -0.23087097852E+02  0.32022105436E+02  0.47000000000E+01 0.  1.
         13    1    4    4    0    0  0.14300164161E+02 -0.22558299052E+01 -0.25016795440E+03  0.25058648981E+03  0.00000000000E+00 0. -1.
        -14    1    4    4    0    0 -0.16581034814E+03 -0.14770950302E+02 -0.10436608410E+04  0.10568534447E+04  0.00000000000E+00 0.  1.
<mgrwt>
<rscale>  2 0.24497092E+03</rscale>
<asrwt>0</asrwt>
<pdfrwt beam="1">  1       21 0.98047852E-02 0.24505243E+03</pdfrwt>
<pdfrwt beam="2">  1       21 0.24836511E+00 0.24505243E+03</pdfrwt>
<totfact> 0.54430098E+03</totfact>
</mgrwt>
</event>
<event>
12    1  0.1039378E-001  0.2339105E+03  0.7546771E-02  0.1123917E+00
         21   -1    0    0  503  502  0.00000000000E+00  0.00000000000E+00  0.12687846124E+03  0.12687846124E+03  0.00000000000E+00 0. -1.
         21   -1    0    0  501  503 -0.00000000000E+00 -0.00000000000E+00 -0.54007015701E+03  0.54007015701E+03  0.00000000000E+00 0. -1.
          6    2    1    2  501    0 -0.48115366517E+02  0.14988191350E+03 -0.35629769290E+03  0.42621841475E+03  0.17301564848E+03 0.  0.
         24    2    3    3    0    0 -0.49784727256E+01  0.12604083583E+03 -0.14096111774E+03  0.20526339854E+03  0.79699112773E+02 0.  0.
         -6    2    1    2    0  502  0.48115366517E+02 -0.14988191350E+03 -0.56894002878E+02  0.24073020351E+03  0.17301568377E+03 0.  0.
        -24    2    5    5    0    0  0.52726480294E+02 -0.17917745953E+03 -0.50943296056E+02  0.21011987357E+03  0.81673117541E+02 0.  0.
          5    1    3    3  501    0 -0.43136893791E+02  0.23841077671E+02 -0.21533657515E+03  0.22095501621E+03  0.47000000000E+01 0. -1.
        -11    1    4    4    0    0  0.12776224929E+02  0.22614367373E+02  0.40262509642E+01  0.26284068025E+02  0.00000000000E+00 0.  1.
         12    1    4    4    0    0 -0.17754697654E+02  0.10342646845E+03 -0.14498736871E+03  0.17897933051E+03  0.00000000000E+00 0. -1.
         -5    1    5    5    0  502 -0.46111137771E+01  0.29295546030E+02 -0.59507068214E+01  0.30610329942E+02  0.47000000000E+01 0.  1.
         11    1    6    6    0    0  0.58157646196E+02 -0.57428567487E+02 -0.25535622096E+02  0.85629551970E+02  0.00000000000E+00 0. -1.
        -12    1    6    6    0    0 -0.54311659019E+01 -0.12174889204E+03 -0.25407673960E+02  0.12449032160E+03  0.00000000000E+00 0.  1.
<mgrwt>
<rscale>  2 0.23391045E+03</rscale>
<asrwt>0</asrwt>
<pdfrwt beam="1">  1       21 0.19519763E-01 0.23391046E+03</pdfrwt>
<pdfrwt beam="2">  1       21 0.83087718E-01 0.23391046E+03</pdfrwt>
<totfact> 0.29825836E+04</totfact>
</mgrwt>
</event>
<event>
12    1  0.1039378E-001  0.1906297E+03  0.7546771E-02  0.1158018E+00
         21   -1    0    0  503  502  0.00000000000E+00  0.00000000000E+00  0.44497087283E+02  0.44497087283E+02  0.00000000000E+00 0. -1.
         21   -1    0    0  501  503 -0.00000000000E+00 -0.00000000000E+00 -0.14195007241E+04  0.14195007241E+04  0.00000000000E+00 0.  1.
          6    2    1    2  501    0 -0.43667435145E+02 -0.68390663763E+02 -0.11660259207E+04  0.11815058698E+04  0.17249795581E+03 0.  0.
         24    2    3    3    0    0  0.16787653501E+02 -0.35691934305E+02 -0.96007334860E+03  0.96433640459E+03  0.81536047427E+02 0.  0.
         -6    2    1    2    0  502  0.43667435145E+02  0.68390663763E+02 -0.20897771609E+03  0.28249194159E+03  0.17188916039E+03 0.  0.
        -24    2    5    5    0    0  0.21924784168E+02  0.64395070392E+02 -0.22952422453E+03  0.25194760256E+03  0.78541731195E+02 0.  0.
          5    1    3    3  501    0 -0.60455088646E+02 -0.32698729458E+02 -0.20595257208E+03  0.21716946516E+03  0.47000000000E+01 0. -1.
        -13    1    4    4    0    0 -0.36599775047E+01 -0.48578291381E+02 -0.30917717271E+03  0.31299164518E+03  0.00000000000E+00 0.  1.
         14    1    4    4    0    0  0.20447631005E+02  0.12886357076E+02 -0.65089617590E+03  0.65134475941E+03  0.00000000000E+00 0. -1.
         -5    1    5    5    0  502  0.21742650976E+02  0.39955933716E+01  0.20546508438E+02  0.30544339032E+02  0.47000000000E+01 0.  1.
         13    1    6    6    0    0 -0.77840840457E+01  0.34795572048E+02 -0.25951179223E+02  0.44099744915E+02  0.00000000000E+00 0. -1.
        -14    1    6    6    0    0  0.29708868214E+02  0.29599498344E+02 -0.20357304530E+03  0.20784785764E+03  0.00000000000E+00 0.  1.
<mgrwt>
<rscale>  2 0.19049185E+03</rscale>
<asrwt>0</asrwt>
<pdfrwt beam="1">  1       21 0.68457053E-02 0.19062967E+03</pdfrwt>
<pdfrwt beam="2">  1       21 0.21838474E+00 0.19062967E+03</pdfrwt>
<totfact> 0.16206716E+04</totfact>
</mgrwt>
</event>
<event>
12    1  0.1039378E-001  0.2203874E+03  0.7546771E-02  0.1134443E+00
         21   -1    0    0  501  502  0.00000000000E+00  0.00000000000E+00  0.10305317448E+03  0.10305317448E+03  0.00000000000E+00 0.  1.
         21   -1    0    0  502  503 -0.00000000000E+00 -0.00000000000E+00 -0.10509733014E+04  0.10509733014E+04  0.00000000000E+00 0.  1.
         -6    2    1    2    0  503  0.11605689609E+03 -0.71559481841E+02 -0.90385411858E+03  0.92927680333E+03  0.16737128477E+03 0.  0.
        -24    2    3    3    0    0  0.61653392135E+02  0.23359202393E+02 -0.33936091731E+03  0.35426031475E+03  0.77380522826E+02 0.  0.
          6    2    1    2  501    0 -0.11605689609E+03  0.71559481841E+02 -0.44066008381E+02  0.22474967260E+03  0.17314918327E+03 0.  0.
         24    2    5    5    0    0 -0.28575553184E+02  0.97131203532E+02 -0.25572647422E+02  0.13163150731E+03  0.80136511536E+02 0.  0.
          5    1    5    5  501    0 -0.87481342907E+02 -0.25571721691E+02 -0.18493360959E+02  0.93118165288E+02  0.47000000000E+01 0. -1.
        -13    1    6    6    0    0 -0.22106717123E+02 -0.71432802407E+01  0.27267547181E+01  0.23391634955E+02  0.00000000000E+00 0.  1.
         14    1    6    6    0    0 -0.64688360608E+01  0.10427448377E+03 -0.28299402140E+02  0.10823987236E+03  0.00000000000E+00 0. -1.
         -5    1    3    3    0  503  0.54403503956E+02 -0.94918684234E+02 -0.56449320127E+03  0.57501648858E+03  0.47000000000E+01 0.  1.
         13    1    4    4    0    0 -0.82286529207E+01  0.19133976897E+02 -0.16592615912E+03  0.16722831722E+03  0.00000000000E+00 0. -1.
        -14    1    4    4    0    0  0.69882045055E+02  0.42252254964E+01 -0.17343475819E+03  0.18703199753E+03  0.00000000000E+00 0.  1.
<mgrwt>
<rscale>  2 0.21925117E+03</rscale>
<asrwt>0</asrwt>
<pdfrwt beam="1">  1       21 0.15854336E-01 0.22038739E+03</pdfrwt>
<pdfrwt beam="2">  1       21 0.16168819E+00 0.22038739E+03</pdfrwt>
<totfact> 0.84926164E+03</totfact>
</mgrwt>
</event>
<event>
12    1  0.1039378E-001  0.2852899E+03  0.7546771E-02  0.1092957E+00
         21   -1    0    0  501  502  0.00000000000E+00  0.00000000000E+00  0.47499750479E+03  0.47499750479E+03  0.00000000000E+00 0. -1.
         21   -1    0    0  502  503 -0.00000000000E+00 -0.00000000000E+00 -0.51523495921E+03  0.51523495921E+03  0.00000000000E+00 0. -1.
         -6    2    1    2    0  503 -0.15510573127E+03  0.16582019010E+03 -0.42494720497E+03  0.51183051982E+03  0.17273167251E+03 0.  0.
        -24    2    3    3    0    0 -0.11891176998E+03  0.10723847951E+03 -0.40118017845E+03  0.43883201847E+03  0.77381550297E+02 0.  0.
          6    2    1    2  501    0  0.15510573127E+03 -0.16582019010E+03  0.38470975054E+03  0.47840194418E+03  0.17120953455E+03 0.  0.
         24    2    5    5    0    0  0.93132438197E+02 -0.32632040984E+02  0.11937805745E+03  0.17508236111E+03  0.81634621496E+02 0.  0.
          5    1    5    5  501    0  0.61973293070E+02 -0.13318814911E+03  0.26533169310E+03  0.30331958308E+03  0.47000000000E+01 0. -1.
        -11    1    6    6    0    0 -0.11515146477E+02  0.79493420170E+01  0.24042560557E+02  0.27817896308E+02  0.00000000000E+00 0.  1.
         12    1    6    6    0    0  0.10464758467E+03 -0.40581383001E+02  0.95335496892E+02  0.14726446480E+03  0.00000000000E+00 0. -1.
         -5    1    3    3    0  503 -0.36193961288E+02  0.58581710589E+02 -0.23767026521E+02  0.72998501347E+02  0.47000000000E+01 0.  1.
         13    1    4    4    0    0 -0.58618224789E+02  0.65987028494E+02 -0.12412428041E+03  0.15230633996E+03  0.00000000000E+00 0. -1.
        -14    1    4    4    0    0 -0.60293545190E+02  0.41251451013E+02 -0.27705589804E+03  0.28652567850E+03  0.00000000000E+00 0.  1.
<mgrwt>
<rscale>  2 0.28505992E+03</rscale>
<asrwt>0</asrwt>
<pdfrwt beam="1">  1       21 0.73076539E-01 0.28528995E+03</pdfrwt>
<pdfrwt beam="2">  1       21 0.79266917E-01 0.28528995E+03</pdfrwt>
<totfact> 0.22086806E+03</totfact>
</mgrwt>
</event>
<event>
12    1  0.1039378E-001  0.2826788E+03  0.7546771E-02  0.1094751E+00
         21   -1    0    0  503  502  0.00000000000E+00  0.00000000000E+00  0.22051232297E+03  0.22051232297E+03  0.00000000000E+00 0.  1.
         21   -1    0    0  501  503 -0.00000000000E+00 -0.00000000000E+00 -0.48577013941E+03  0.48577013941E+03  0.00000000000E+00 0. -1.
          6    2    1    2  501    0  0.81916945605E+02  0.20854557824E+03 -0.31341939594E+03  0.41953018583E+03  0.16604883284E+03 0.  0.
         24    2    3    3    0    0  0.69095205603E+02  0.22965528705E+03 -0.29231843514E+03  0.38670706335E+03  0.81096159037E+02 0.  0.
         -6    2    1    2    0  502 -0.81916945605E+02 -0.20854557824E+03  0.48161579504E+02  0.28675227655E+03  0.17235337591E+03 0.  0.
        -24    2    5    5    0    0 -0.28531718871E+01 -0.11103401279E+03 -0.27361313103E+02  0.14017334553E+03  0.81013781277E+02 0.  0.
          5    1    3    3  501    0  0.12821740002E+02 -0.21109708811E+02 -0.21100960799E+02  0.32823122481E+02  0.47000000000E+01 0. -1.
        -13    1    4    4    0    0  0.54656527747E+02  0.12062163819E+03 -0.10303394340E+03  0.16778828659E+03  0.00000000000E+00 0.  1.
         14    1    4    4    0    0  0.14438677856E+02  0.10903364887E+03 -0.18928449174E+03  0.21891877676E+03  0.00000000000E+00 0. -1.
         -5    1    5    5    0  502 -0.79063773718E+02 -0.97511565454E+02  0.75522892606E+02  0.14657893102E+03  0.47000000000E+01 0.  1.
         11    1    6    6    0    0 -0.40936195305E+02 -0.70657246254E+02 -0.11624690339E+02  0.82482434249E+02  0.00000000000E+00 0. -1.
        -12    1    6    6    0    0  0.38083023418E+02 -0.40376766533E+02 -0.15736622764E+02  0.57690911280E+02  0.00000000000E+00 0.  1.
<mgrwt>
<rscale>  2 0.28172422E+03</rscale>
<asrwt>0</asrwt>
<pdfrwt beam="1">  1       21 0.33924973E-01 0.28267885E+03</pdfrwt>
<pdfrwt beam="2">  1       21 0.74733867E-01 0.28267885E+03</pdfrwt>
<totfact> 0.12755419E+04</totfact>
</mgrwt>
</event>
<event>
12    1  0.1039378E-001  0.2086979E+03  0.7546771E-02  0.1144557E+00
         21   -1    0    0  503  502  0.00000000000E+00  0.00000000000E+00  0.15005605596E+03  0.15005605596E+03  0.00000000000E+00 0.  1.
         21   -1    0    0  501  503 -0.00000000000E+00 -0.00000000000E+00 -0.27713196086E+03  0.27713196086E+03  0.00000000000E+00 0. -1.
          6    2    1    2  501    0 -0.11642458134E+03  0.70832562499E+01 -0.60599635450E+02  0.20815858094E+03  0.16140887008E+03 0.  0.
         24    2    3    3    0    0 -0.14379421530E+03  0.21909685442E+02 -0.43080399618E+02  0.17213173692E+03  0.81342506440E+02 0.  0.
         -6    2    1    2    0  502  0.11642458134E+03 -0.70832562499E+01 -0.66476269445E+02  0.21902943588E+03  0.17306052040E+03 0.  0.
        -24    2    5    5    0    0  0.70034536521E+02 -0.58244316132E+01 -0.11129292537E+03  0.15434370680E+03  0.80604617003E+02 0.  0.
          5    1    3    3  501    0  0.27369633957E+02 -0.14826429192E+02 -0.17519235832E+02  0.36026844015E+02  0.47000000000E+01 0. -1.
        -13    1    4    4    0    0 -0.21099817954E+02  0.12851882192E+02  0.21884370427E+02  0.33004527910E+02  0.00000000000E+00 0.  1.
         14    1    4    4    0    0 -0.12269439735E+03  0.90578032497E+01 -0.64964770046E+02  0.13912720901E+03  0.00000000000E+00 0. -1.
         -5    1    5    5    0  502  0.46390044823E+02 -0.12588246368E+01  0.44816655925E+02  0.64685729078E+02  0.47000000000E+01 0.  1.
         13    1    6    6    0    0  0.63300839052E+02 -0.37859531453E+02 -0.83397889379E+02  0.11133529674E+03  0.00000000000E+00 0. -1.
        -14    1    6    6    0    0  0.67336974691E+01  0.32035099840E+02 -0.27895035991E+02  0.43008410064E+02  0.00000000000E+00 0.  1.
<mgrwt>
<rscale>  2 0.20626684E+03</rscale>
<asrwt>0</asrwt>
<pdfrwt beam="1">  1       21 0.23085547E-01 0.20869787E+03</pdfrwt>
<pdfrwt beam="2">  1       21 0.42635686E-01 0.20869787E+03</pdfrwt>
<totfact> 0.92652772E+04</totfact>
</mgrwt>
</event>
<event>
12    1  0.1039378E-001  0.1956022E+03  0.7546771E-02  0.1154814E+00
         21   -1    0    0  501  502  0.00000000000E+00  0.00000000000E+00  0.23626538759E+03  0.23626538759E+03  0.00000000000E+00 0. -1.
         21   -1    0    0  502  503 -0.00000000000E+00 -0.00000000000E+00 -0.16279141501E+03  0.16279141501E+03  0.00000000000E+00 0. -1.
         -6    2    1    2    0  503 -0.80486693674E+02  0.24200387261E+01  0.74723250864E+02  0.20938906982E+03  0.17825895179E+03 0.  0.
        -24    2    3    3    0    0 -0.48931066410E+02 -0.67595220402E+02  0.59687818662E+02  0.13099233300E+03  0.81443185878E+02 0.  0.
          6    2    1    2  501    0  0.80486693674E+02 -0.24200387261E+01 -0.12492782866E+01  0.18966773278E+03  0.17172164604E+03 0.  0.
         24    2    5    5    0    0  0.60610378155E+02 -0.17753763051E+02  0.62209057385E+02  0.12126275207E+03  0.82739798018E+02 0.  0.
          5    1    5    5  501    0  0.19876315518E+02  0.15333724325E+02 -0.63458335672E+02  0.68404980714E+02  0.47000000000E+01 0. -1.
        -13    1    6    6    0    0  0.33917127983E+02  0.28219602294E+02  0.50064900286E+02  0.66732389173E+02  0.00000000000E+00 0.  1.
         14    1    6    6    0    0  0.26693250173E+02 -0.45973365345E+02  0.12144157100E+02  0.54530362896E+02  0.00000000000E+00 0. -1.
         -5    1    3    3    0  503 -0.31555627264E+02  0.70015259128E+02  0.15035432202E+02  0.78396736822E+02  0.47000000000E+01 0.  1.
         13    1    4    4    0    0 -0.11725934584E+02  0.15526700653E+02 -0.39994577176E+01  0.19863827352E+02  0.00000000000E+00 0. -1.
        -14    1    4    4    0    0 -0.37205131826E+02 -0.83121921055E+02  0.63687276379E+02  0.11112850564E+03  0.00000000000E+00 0.  1.
<mgrwt>
<rscale>  2 0.19410034E+03</rscale>
<asrwt>0</asrwt>
<pdfrwt beam="1">  1       21 0.36348521E-01 0.19560219E+03</pdfrwt>
<pdfrwt beam="2">  1       21 0.25044833E-01 0.19560219E+03</pdfrwt>
<totfact> 0.11005945E+05</totfact>
</mgrwt>
</event>
<event>
12    1  0.1039378E-001  0.2426268E+03  0.7546771E-02  0.1120287E+00
         21   -1    0    0  501  502  0.00000000000E+00  0.00000000000E+00  0.36152294696E+02  0.36152294696E+02  0.00000000000E+00 0.  1.
         21   -1    0    0  502  503 -0.00000000000E+00 -0.00000000000E+00 -0.15757168542E+04  0.15757168542E+04  0.00000000000E+00 0.  1.
         -6    2    1    2    0  503 -0.14420818192E+03  0.58088778522E+02 -0.91036540235E+03  0.94214273532E+03  0.18627254762E+03 0.  0.
        -24    2    3    3    0    0 -0.41794451361E+02  0.23503322179E+02 -0.17006603763E+03  0.19397833801E+03  0.80037217240E+02 0.  0.
          6    2    1    2  501    0  0.14420818192E+03 -0.58088778522E+02 -0.62919915713E+03  0.66972641356E+03  0.16873524751E+03 0.  0.
         24    2    5    5    0    0  0.49588659221E+02 -0.80405850354E+02 -0.26327046536E+03  0.29107511852E+03  0.80555886156E+02 0.  0.
          5    1    5    5  501    0  0.94619522701E+02  0.22317071832E+02 -0.36592869177E+03  0.37865129504E+03  0.47000000000E+01 0. -1.
        -13    1    6    6    0    0 -0.10258650385E+02  0.25715685586E+01 -0.23784139645E+01  0.10840190291E+02  0.00000000000E+00 0.  1.
         14    1    6    6    0    0  0.59847309606E+02 -0.82977418912E+02 -0.26089205140E+03  0.28023492823E+03  0.00000000000E+00 0. -1.
         -5    1    3    3    0  503 -0.10241373056E+03  0.34585456342E+02 -0.74029936472E+03  0.74816439731E+03  0.47000000000E+01 0.  1.
         11    1    4    4    0    0 -0.54032233593E+02  0.43072329091E+02 -0.11342672030E+03  0.13281689907E+03  0.00000000000E+00 0. -1.
        -12    1    4    4    0    0  0.12237782233E+02 -0.19569006912E+02 -0.56639317331E+02  0.61161438940E+02  0.00000000000E+00 0.  1.
<mgrwt>
<rscale>  2 0.23926023E+03</rscale>
<asrwt>0</asrwt>
<pdfrwt beam="1">  1       21 0.55618928E-02 0.24262681E+03</pdfrwt>
<pdfrwt beam="2">  1       21 0.24241792E+00 0.24262681E+03</pdfrwt>
<totfact> 0.15892773E+04</totfact>
</mgrwt>
</event>
<event>
12    1  0.1039378E-001  0.2490945E+03  0.7546771E-02  0.1114501E+00
         21   -1    0    0  501  502  0.00000000000E+00  0.00000000000E+00  0.13295453252E+04  0.13295453252E+04  0.00000000000E+00 0. -1.
         21   -1    0    0  502  503 -0.00000000000E+00 -0.00000000000E+00 -0.81563547392E+02  0.81563547392E+02  0.00000000000E+00 0. -1.
         -6    2    1    2    0  503 -0.27748875613E+01  0.18016541517E+03  0.15496143781E+03  0.29006402808E+03  0.16630338648E+03 0.  0.
        -24    2    3    3    0    0 -0.27031105253E+02  0.12586969346E+03  0.17053769430E+03  0.22841097253E+03  0.80713114248E+02 0.  0.
          6    2    1    2  501    0  0.27748875613E+01 -0.18016541517E+03  0.10930203400E+04  0.11210448445E+04  0.17199070599E+03 0.  0.
         24    2    5    5    0    0  0.57148135045E+02 -0.83497181256E+02  0.53278442081E+03  0.54991651162E+03  0.91166013830E+02 0.  0.
          5    1    5    5  501    0 -0.54373247484E+02 -0.96668233909E+02  0.56023591919E+03  0.57112833289E+03  0.47000000000E+01 0. -1.
        -13    1    6    6    0    0  0.17792500184E+02  0.14320033522E+02  0.18767905670E+03  0.18906365263E+03  0.00000000000E+00 0.  1.
         14    1    6    6    0    0  0.39355634862E+02 -0.97817214778E+02  0.34510536411E+03  0.36085285899E+03  0.00000000000E+00 0. -1.
         -5    1    3    3    0  503  0.24256217692E+02  0.54295721705E+02 -0.15576256489E+02  0.61653055548E+02  0.47000000000E+01 0.  1.
         11    1    4    4    0    0  0.13108541519E+02  0.75824368990E+02  0.49713686191E+02  0.91611240512E+02  0.00000000000E+00 0. -1.
        -12    1    4    4    0    0 -0.40139646772E+02  0.50045324471E+02  0.12082400811E+03  0.13679973202E+03  0.00000000000E+00 0.  1.
<mgrwt>
<rscale>  2 0.24811567E+03</rscale>
<asrwt>0</asrwt>
<pdfrwt beam="1">  1       21 0.20454542E+00 0.24909452E+03</pdfrwt>
<pdfrwt beam="2">  1       21 0.12548239E-01 0.24909452E+03</pdfrwt>
<totfact> 0.64989748E+03</totfact>
</mgrwt>
</event>
<event>
12    1  0.1039378E-001  0.2975228E+03  0.7546771E-02  0.1086501E+00
         21   -1    0    0  501  502  0.00000000000E+00  0.00000000000E+00  0.58281985040E+03  0.58281985040E+03  0.00000000000E+00 0. -1.
         21   -1    0    0  502  503 -0.00000000000E+00 -0.00000000000E+00 -0.43557922562E+03  0.43557922562E+03  0.00000000000E+00 0. -1.
         -6    2    1    2    0  503 -0.13183271538E+03  0.20267806057E+03  0.48460253403E+03  0.56858479312E+03  0.17317849141E+03 0.  0.
        -24    2    3    3    0    0 -0.75609255922E+01  0.68803761762E+02  0.24666038371E+03  0.26857752233E+03  0.80631354845E+02 0.  0.
          6    2    1    2  501    0  0.13183271538E+03 -0.20267806057E+03 -0.33736190925E+03  0.44981428289E+03  0.17338272751E+03 0.  0.
         24    2    5    5    0    0  0.74034560524E+02 -0.20152105955E+03 -0.21328259322E+03  0.31284811180E+03  0.79326054329E+02 0.  0.
          5    1    5    5  501    0  0.57798154858E+02 -0.11570010271E+01 -0.12407931603E+03  0.13696617109E+03  0.47000000000E+01 0. -1.
        -13    1    6    6    0    0  0.79665120139E+02 -0.12133238649E+03 -0.11083061968E+03  0.18262394596E+03  0.00000000000E+00 0.  1.
         14    1    6    6    0    0 -0.56305596140E+01 -0.80188673052E+02 -0.10245197354E+03  0.13022416585E+03  0.00000000000E+00 0. -1.
         -5    1    3    3    0  503 -0.12427178979E+03  0.13387429881E+03  0.23794215033E+03  0.30000727078E+03  0.47000000000E+01 0.  1.
         11    1    4    4    0    0 -0.27857031064E+02  0.31758623215E+02  0.20478867869E+03  0.20910051948E+03  0.00000000000E+00 0. -1.
        -12    1    4    4    0    0  0.20296105472E+02  0.37045138547E+02  0.41871705021E+02  0.59477002855E+02  0.00000000000E+00 0.  1.
<mgrwt>
<rscale>  2 0.29749308E+03</rscale>
<asrwt>0</asrwt>
<pdfrwt beam="1">  1       21 0.89664592E-01 0.29752282E+03</pdfrwt>
<pdfrwt beam="2">  1       21 0.67012189E-01 0.29752282E+03</pdfrwt>
<totfact> 0.20006688E+03</totfact>
</mgrwt>
</event>
<event>
12    1  0.1039378E-001  0.4092041E+03  0.7546771E-02  0.1040759E+00
         21   -1    0    0  501  502  0.00000000000E+00  0.00000000000E+00  0.23434310080E+03  0.23434310080E+03  0.00000000000E+00 0.  1.
         21   -1    0    0  502  503 -0.00000000000E+00 -0.00000000000E+00 -0.14072331654E+04  0.14072331654E+04  0.00000000000E+00 0. -1.
         -6    2    1    2    0  503 -0.18549997204E+02  0.36919755192E+03 -0.11628248165E+04  0.12322483551E+04  0.17211484575E+03 0.  0.
        -24    2    3    3    0    0  0.45617769597E+02  0.20858529806E+03 -0.54941565100E+03  0.59490488988E+03  0.80408102631E+02 0.  0.
          6    2    1    2  501    0  0.18549997204E+02 -0.36919755192E+03 -0.10065248074E+02  0.40932791104E+03  0.17549101058E+03 0.  0.
         24    2    5    5    0    0 -0.48112981006E+02 -0.26430094161E+03  0.20821856481E+02  0.28117427376E+03  0.80346598189E+02 0.  0.
          5    1    5    5  501    0  0.66662978210E+02 -0.10489661031E+03 -0.30887104555E+02  0.12815363727E+03  0.47000000000E+01 0. -1.
        -11    1    6    6    0    0  0.20644937681E+02 -0.95292715459E+02 -0.23636885648E+00  0.97503697067E+02  0.00000000000E+00 0.  1.
         12    1    6    6    0    0 -0.68757918688E+02 -0.16900822615E+03  0.21058225338E+02  0.18367057670E+03  0.00000000000E+00 0. -1.
         -5    1    3    3    0  503 -0.64167766800E+02  0.16061225386E+03 -0.61340916551E+03  0.63734346526E+03  0.47000000000E+01 0.  1.
         13    1    4    4    0    0  0.34563777796E+01 -0.73588010434E+01 -0.19067019670E+02  0.20727994096E+02  0.00000000000E+00 0. -1.
        -14    1    4    4    0    0  0.42161391817E+02  0.21594409910E+03 -0.53034863133E+03  0.57417689578E+03  0.00000000000E+00 0.  1.
<mgrwt>
<rscale>  2 0.40884454E+03</rscale>
<asrwt>0</asrwt>
<pdfrwt beam="1">  1       21 0.36052784E-01 0.40920414E+03</pdfrwt>
<pdfrwt beam="2">  1       21 0.21649741E+00 0.40920414E+03</pdfrwt>
<totfact> 0.65954866E+02</totfact>
</mgrwt>
</event>
<event>
12    1  0.1039378E-001  0.1989181E+03  0.7546771E-02  0.1150871E+00
         21   -1    0    0  503  502  0.00000000000E+00  0.00000000000E+00  0.12648926818E+03  0.12648926818E+03  0.00000000000E+00 0.  1.
         21   -1    0    0  501  503 -0.00000000000E+00 -0.00000000000E+00 -0.40036997212E+03  0.40036997212E+03  0.00000000000E+00 0.  1.
          6    2    1    2  501    0 -0.95120244417E+02 -0.19405003755E+02 -0.26151127017E+03  0.32856743840E+03  0.17362028132E+03 0.  0.
         24    2    3    3    0    0  0.12482623532E+02  0.20443472206E+02 -0.11954509404E+03  0.14596742912E+03  0.80260260451E+02 0.  0.
         -6    2    1    2    0  502  0.95120244417E+02  0.19405003755E+02 -0.12369433777E+02  0.19829180190E+03  0.17245933068E+03 0.  0.
        -24    2    5    5    0    0  0.12337277093E+03  0.48763729014E+02  0.41692465445E+01  0.15406784968E+03  0.78235399991E+02 0.  0.
          5    1    3    3  501    0 -0.10760286795E+03 -0.39848475961E+02 -0.14196617613E+03  0.18260000929E+03  0.47000000000E+01 0. -1.
        -11    1    4    4    0    0 -0.13845606591E+02  0.98747313475E+01  0.53991743556E+01  0.17842707888E+02  0.00000000000E+00 0.  1.
         12    1    4    4    0    0  0.26328230123E+02  0.10568740859E+02 -0.12494426840E+03  0.12812472123E+03  0.00000000000E+00 0. -1.
         -5    1    5    5    0  502 -0.28252526516E+02 -0.29358725259E+02 -0.16538680322E+02  0.44223952222E+02  0.47000000000E+01 0.  1.
         11    1    6    6    0    0 -0.10966112527E+02  0.80974945051E+01 -0.34567988637E+00  0.13636148129E+02  0.00000000000E+00 0. -1.
        -12    1    6    6    0    0  0.13433888346E+03  0.40666234509E+02  0.45149264309E+01  0.14043170155E+03  0.00000000000E+00 0.  1.
<mgrwt>
<rscale>  2 0.19866451E+03</rscale>
<asrwt>0</asrwt>
<pdfrwt beam="1">  1       21 0.19459888E-01 0.19891812E+03</pdfrwt>
<pdfrwt beam="2">  1       21 0.61595379E-01 0.19891812E+03</pdfrwt>
<totfact> 0.59315611E+04</totfact>
</mgrwt>
</event>
<event>
12    1  0.1039378E-001  0.2607674E+03  0.7546771E-02  0.1106734E+00
         21   -1    0    0  501  502  0.00000000000E+00  0.00000000000E+00  0.81045228055E+02  0.81045228055E+02  0.00000000000E+00 0. -1.
         21   -1    0    0  502  503 -0.00000000000E+00 -0.00000000000E+00 -0.10772685999E+04  0.10772685999E+04  0.00000000000E+00 0. -1.
         -6    2    1    2    0  503 -0.12165127338E+03  0.15176675036E+03 -0.22538047625E+03  0.34466797259E+03  0.17368786206E+03 0.  0.
        -24    2    3    3    0    0 -0.15583073644E+03  0.13333398444E+03 -0.17902302780E+03  0.28401234152E+03  0.80948105769E+02 0.  0.
          6    2    1    2  501    0  0.12165127338E+03 -0.15176675036E+03 -0.77084289559E+03  0.81364585535E+03  0.17317225362E+03 0.  0.
         24    2    5    5    0    0  0.13325049730E+03 -0.12180090689E+03 -0.45453660496E+03  0.49567690519E+03  0.80628240391E+02 0.  0.
          5    1    5    5  501    0 -0.11599223920E+02 -0.29965843472E+02 -0.31630629063E+03  0.31796895016E+03  0.47000000000E+01 0. -1.
        -11    1    6    6    0    0  0.20553565691E+02 -0.64073295575E+02 -0.11421563446E+03  0.13256337135E+03  0.00000000000E+00 0.  1.
         12    1    6    6    0    0  0.11269693161E+03 -0.57727611312E+02 -0.34032097049E+03  0.36311353384E+03  0.00000000000E+00 0. -1.
         -5    1    3    3    0  503  0.34179463056E+02  0.18432765915E+02 -0.46357448446E+02  0.60655631070E+02  0.47000000000E+01 0.  1.
         13    1    4    4    0    0 -0.95108028571E+02  0.51627538684E+02 -0.48774340884E+02  0.11870078423E+03  0.00000000000E+00 0. -1.
        -14    1    4    4    0    0 -0.60722707868E+02  0.81706445760E+02 -0.13024868692E+03  0.16531155729E+03  0.00000000000E+00 0.  1.
<mgrwt>
<rscale>  2 0.26068160E+03</rscale>
<asrwt>0</asrwt>
<pdfrwt beam="1">  1       21 0.12468497E-01 0.26076743E+03</pdfrwt>
<pdfrwt beam="2">  1       21 0.16573363E+00 0.26076743E+03</pdfrwt>
<totfact> 0.11975725E+04</totfact>
</mgrwt>
</event>
<event>
12    1  0.1039378E-001  0.1922208E+03  0.7546771E-02  0.1160353E+00
         21   -1    0    0  503  502  0.00000000000E+00  0.00000000000E+00  0.57183724248E+03  0.57183724248E+03  0.00000000000E+00 0. -1.
         21   -1    0    0  501  503 -0.00000000000E+00 -0.00000000000E+00 -0.81030294964E+02  0.81030294964E+02  0.00000000000E+00 0. -1.
          6    2    1    2  501    0  0.41313387548E+02 -0.44214833779E+02  0.67759823469E+02  0.18819808503E+03  0.16481922829E+03 0.  0.
         24    2    3    3    0    0  0.85855589243E+02 -0.50028467849E+02  0.33990673915E+02  0.13180436610E+03  0.79642923163E+02 0.  0.
         -6    2    1    2    0  502 -0.41313387548E+02  0.44214833779E+02  0.42304712405E+03  0.46466945242E+03  0.18244748102E+03 0.  0.
        -24    2    5    5    0    0 -0.54292085130E+02  0.10049132765E+02  0.10076782407E+03  0.14029038572E+03  0.80489889932E+02 0.  0.
          5    1    3    3  501    0 -0.44542201695E+02  0.58136340704E+01  0.33769149554E+02  0.56393718928E+02  0.47000000000E+01 0. -1.
        -13    1    4    4    0    0  0.27498209875E+02  0.18751361089E+02  0.24037673577E+02  0.41055752825E+02  0.00000000000E+00 0.  1.
         14    1    4    4    0    0  0.58357379368E+02 -0.68779828938E+02  0.99530003378E+01  0.90748613274E+02  0.00000000000E+00 0. -1.
         -5    1    5    5    0  502  0.12978697583E+02  0.34165701014E+02  0.32227929998E+03  0.32437906669E+03  0.47000000000E+01 0.  1.
         13    1    6    6    0    0 -0.11828176816E+02  0.33575190803E+02  0.79858763217E+02  0.87433524845E+02  0.00000000000E+00 0. -1.
        -14    1    6    6    0    0 -0.42463908314E+02 -0.23526058038E+02  0.20909060855E+02  0.52856860879E+02  0.00000000000E+00 0.  1.
<mgrwt>
<rscale>  2 0.18791736E+03</rscale>
<asrwt>0</asrwt>
<pdfrwt beam="1">  1       21 0.87974958E-01 0.19222079E+03</pdfrwt>
<pdfrwt beam="2">  1       21 0.12466200E-01 0.19222079E+03</pdfrwt>
<totfact> 0.60703133E+04</totfact>
</mgrwt>
</event>
<event>
12    1  0.1039378E-001  0.1890883E+03  0.7546771E-02  0.1160500E+00
         21   -1    0    0  503  502  0.00000000000E+00  0.00000000000E+00  0.49037325932E+02  0.49037325932E+02  0.00000000000E+00 0.  1.
         21   -1    0    0  501  503 -0.00000000000E+00 -0.00000000000E+00 -0.11628352207E+04  0.11628352207E+04  0.00000000000E+00 0.  1.
          6    2    1    2  501    0  0.69669021990E+02 -0.28116920778E+02 -0.93064471830E+03  0.94862458995E+03  0.16776378364E+03 0.  0.
         24    2    3    3    0    0 -0.17500668591E+02 -0.25614878229E+01 -0.24759245057E+03  0.25954250082E+03  0.75811961667E+02 0.  0.
         -6    2    1    2    0  502 -0.69669021990E+02  0.28116920778E+02 -0.18315317646E+03  0.26324795667E+03  0.17352252530E+03 0.  0.
        -24    2    5    5    0    0 -0.97524757814E+02 -0.27804510184E+01 -0.18122415072E+03  0.22133852167E+03  0.81423209688E+02 0.  0.
          5    1    3    3  501    0  0.87169690581E+02 -0.25555432955E+02 -0.68305226772E+03  0.68908208912E+03  0.47000000000E+01 0. -1.
        -11    1    4    4    0    0  0.26820046303E+02 -0.54650118766E+01 -0.49818036612E+02  0.56842044390E+02  0.00000000000E+00 0.  1.
         12    1    4    4    0    0 -0.44320714895E+02  0.29035240538E+01 -0.19777441396E+03  0.20270045643E+03  0.00000000000E+00 0. -1.
         -5    1    5    5    0  502  0.27855735823E+02  0.30897371796E+02 -0.19290257420E+01  0.41909435005E+02  0.47000000000E+01 0.  1.
         13    1    6    6    0    0 -0.29830628471E+02  0.37682701606E+02 -0.73897723139E+02  0.88151720802E+02  0.00000000000E+00 0. -1.
        -14    1    6    6    0    0 -0.67694129342E+02 -0.40463152624E+02 -0.10732642758E+03  0.13318680086E+03  0.00000000000E+00 0.  1.
<mgrwt>
<rscale>  2 0.18775673E+03</rscale>
<asrwt>0</asrwt>
<pdfrwt beam="1">  1       21 0.75442044E-02 0.18908834E+03</pdfrwt>
<pdfrwt beam="2">  1       21 0.17889772E+00 0.18908834E+03</pdfrwt>
<totfact> 0.24661999E+04</totfact>
</mgrwt>
</event>
<event>
12    1  0.1039378E-001  0.2612879E+03  0.7546771E-02  0.1106514E+00
         21   -1    0    0  501  502  0.00000000000E+00  0.00000000000E+00  0.39574904048E+03  0.39574904048E+03  0.00000000000E+00 0.  1.
         21   -1    0    0  502  503 -0.00000000000E+00 -0.00000000000E+00 -0.47411176886E+03  0.47411176886E+03  0.00000000000E+00 0.  1.
         -6    2    1    2    0  503  0.12381453922E+03  0.15024429520E+03 -0.38645914034E+03  0.46649978379E+03  0.17426414652E+03 0.  0.
        -24    2    3    3    0    0  0.74034483171E+02  0.12868367801E+03 -0.37480321486E+03  0.41081437464E+03  0.79059514611E+02 0.  0.
          6    2    1    2  501    0 -0.12381453922E+03 -0.15024429520E+03  0.30809641196E+03  0.40336102555E+03  0.17283902772E+03 0.  0.
         24    2    5    5    0    0 -0.18104520840E+02 -0.11405077174E+03  0.21658148408E+03  0.25885617735E+03  0.82241285842E+02 0.  0.
          5    1    5    5  501    0 -0.10571001838E+03 -0.36193523461E+02  0.91514927886E+02  0.14450484820E+03  0.47000000000E+01 0. -1.
        -13    1    6    6    0    0 -0.22782430178E+02 -0.96453039773E+01  0.96703771985E+02  0.99818287552E+02  0.00000000000E+00 0.  1.
         14    1    6    6    0    0  0.46779093378E+01 -0.10440546776E+03  0.11987771209E+03  0.15903788980E+03  0.00000000000E+00 0. -1.
         -5    1    3    3    0  503  0.49780056054E+02  0.21560617190E+02 -0.11655925475E+02  0.55685409157E+02  0.47000000000E+01 0.  1.
         11    1    4    4    0    0  0.53164074077E+01 -0.83257175259E+01 -0.58517832725E+02  0.59345753907E+02  0.00000000000E+00 0. -1.
        -12    1    4    4    0    0  0.68718075763E+02  0.13700939554E+03 -0.31628538214E+03  0.35146862073E+03  0.00000000000E+00 0.  1.
<mgrwt>
<rscale>  2 0.26105053E+03</rscale>
<asrwt>0</asrwt>
<pdfrwt beam="1">  1       21 0.60884468E-01 0.26128793E+03</pdfrwt>
<pdfrwt beam="2">  1       21 0.72940272E-01 0.26128793E+03</pdfrwt>
<totfact> 0.40458517E+03</totfact>
</mgrwt>
</event>
<event>
12    1  0.1039378E-001  0.1811750E+03  0.7546771E-02  0.1167394E+00
         21   -1    0    0  501  502  0.00000000000E+00  0.00000000000E+00  0.14622461029E+03  0.14622461029E+03  0.00000000000E+00 0. -1.
         21   -1    0    0  502  503 -0.00000000000E+00 -0.00000000000E+00 -0.22540921275E+03  0.22540921275E+03  0.00000000000E+00 0. -1.
         -6    2    1    2    0  503 -0.79592340333E+01 -0.44530751627E+02 -0.12678498557E+02  0.17863787173E+03  0.17234966679E+03 0.  0.
        -24    2    3    3    0    0  0.49040446928E+02  0.13968673193E+02  0.63240352380E+01  0.94647797170E+02  0.79486620394E+02 0.  0.
          6    2    1    2  501    0  0.79592340333E+01  0.44530751627E+02 -0.66506103899E+02  0.19299595131E+03  0.17543670688E+03 0.  0.
         24    2    5    5    0    0  0.25910746780E+02  0.84080693611E+02 -0.84022453805E+02  0.14592826351E+03  0.80587564244E+02 0.  0.
          5    1    5    5  501    0 -0.17951512747E+02 -0.39549941984E+02  0.17516349906E+02  0.47067687800E+02  0.47000000000E+01 0. -1.
        -11    1    6    6    0    0  0.55064212239E+02  0.54089133347E+02 -0.59365399128E+02  0.97375317351E+02  0.00000000000E+00 0.  1.
         12    1    6    6    0    0 -0.29153465458E+02  0.29991560265E+02 -0.24657054677E+02  0.48552946159E+02  0.00000000000E+00 0. -1.
         -5    1    3    3    0  503 -0.56999680962E+02 -0.58499424820E+02 -0.19002533795E+02  0.83990074560E+02  0.47000000000E+01 0.  1.
         13    1    4    4    0    0  0.68199814855E+02  0.11560840869E+02  0.18770226950E+02  0.71674187876E+02  0.00000000000E+00 0. -1.
        -14    1    4    4    0    0 -0.19159367927E+02  0.24078323237E+01 -0.12446191712E+02  0.22973609294E+02  0.00000000000E+00 0.  1.
<mgrwt>
<rscale>  2 0.18042342E+03</rscale>
<asrwt>0</asrwt>
<pdfrwt beam="1">  1       21 0.22496094E-01 0.18117499E+03</pdfrwt>
<pdfrwt beam="2">  1       21 0.34678340E-01 0.18117499E+03</pdfrwt>
<totfact> 0.14888542E+05</totfact>
</mgrwt>
</event>
<event>
12    1  0.1039378E-001  0.1817807E+03  0.7546771E-02  0.1166570E+00
         21   -1    0    0  501  502  0.00000000000E+00  0.00000000000E+00  0.57875317178E+03  0.57875317178E+03  0.00000000000E+00 0. -1.
         21   -1    0    0  502  503 -0.00000000000E+00 -0.00000000000E+00 -0.79600677518E+02  0.79600677518E+02  0.00000000000E+00 0. -1.
         -6    2    1    2    0  503 -0.53598103949E+02  0.28877529775E+02  0.73111123337E+02  0.19593232252E+03  0.17128213620E+03 0.  0.
        -24    2    3    3    0    0 -0.78911807693E+02  0.40503131169E+02  0.10052605217E+03  0.15656728057E+03  0.80871806904E+02 0.  0.
          6    2    1    2  501    0  0.53598103949E+02 -0.28877529775E+02  0.42604137093E+03  0.46242152678E+03  0.16916190533E+03 0.  0.
         24    2    5    5    0    0  0.97367882018E+02 -0.15654735798E+02  0.36242533289E+03  0.38393760455E+03  0.79563729589E+02 0.  0.
          5    1    5    5  501    0 -0.43769778069E+02 -0.13222793976E+02  0.63616038032E+02  0.78483922224E+02  0.47000000000E+01 0. -1.
        -13    1    6    6    0    0  0.15478693524E+02  0.17865164581E+02  0.22320466249E+02  0.32510879292E+02  0.00000000000E+00 0.  1.
         14    1    6    6    0    0  0.81889188494E+02 -0.33519900380E+02  0.34010486664E+03  0.35142672526E+03  0.00000000000E+00 0. -1.
         -5    1    3    3    0  503  0.25313703744E+02 -0.11625601394E+02 -0.27414928833E+02  0.39365041952E+02  0.47000000000E+01 0.  1.
         11    1    4    4    0    0 -0.40436364575E+02  0.24817982463E+02 -0.37467566131E+00  0.47446519529E+02  0.00000000000E+00 0. -1.
        -12    1    4    4    0    0 -0.38475443119E+02  0.15685148706E+02  0.10090072783E+03  0.10912076104E+03  0.00000000000E+00 0.  1.
<mgrwt>
<rscale>  2 0.18127958E+03</rscale>
<asrwt>0</asrwt>
<pdfrwt beam="1">  1       21 0.89038947E-01 0.18178074E+03</pdfrwt>
<pdfrwt beam="2">  1       21 0.12246258E-01 0.18178074E+03</pdfrwt>
<totfact> 0.61249793E+04</totfact>
</mgrwt>
</event>
<event>
12    1  0.1039378E-001  0.1807905E+03  0.7546771E-02  0.1167051E+00
         21   -1    0    0  501  502  0.00000000000E+00  0.00000000000E+00  0.46316998771E+02  0.46316998771E+02  0.00000000000E+00 0.  1.
         21   -1    0    0  502  503 -0.00000000000E+00 -0.00000000000E+00 -0.15405502087E+04  0.15405502087E+04  0.00000000000E+00 0.  1.
         -6    2    1    2    0  503 -0.48250173085E+02  0.23990148969E+02 -0.13312271696E+04  0.13434412860E+04  0.17252566573E+03 0.  0.
        -24    2    3    3    0    0  0.63230958619E+01 -0.43779896964E+02 -0.80371859377E+03  0.80878400474E+03  0.78811975139E+02 0.  0.
          6    2    1    2  501    0  0.48250173085E+02 -0.23990148969E+02 -0.16300604031E+03  0.24342592147E+03  0.17257347310E+03 0.  0.
         24    2    5    5    0    0 -0.98657749361E+01 -0.41664347702E+02 -0.15257323932E+03  0.18161351130E+03  0.88722166024E+02 0.  0.
          5    1    5    5  501    0  0.58115948021E+02  0.17674198733E+02 -0.10432800983E+02  0.61812410174E+02  0.47000000000E+01 0. -1.
        -13    1    6    6    0    0  0.76795962101E+01 -0.54441788627E+02 -0.42693282031E+02  0.69610350361E+02  0.00000000000E+00 0.  1.
         14    1    6    6    0    0 -0.17545371146E+02  0.12777440925E+02 -0.10987995729E+03  0.11200316094E+03  0.00000000000E+00 0. -1.
         -5    1    3    3    0  503 -0.54573268947E+02  0.67770045933E+02 -0.52750857583E+03  0.53465728124E+03  0.47000000000E+01 0.  1.
         11    1    4    4    0    0  0.26469513151E+02 -0.27588275976E+02 -0.15842882462E+03  0.16297680991E+03  0.00000000000E+00 0. -1.
        -12    1    4    4    0    0 -0.20146417289E+02 -0.16191620988E+02 -0.64528976915E+03  0.64580719483E+03  0.00000000000E+00 0.  1.
<mgrwt>
<rscale>  2 0.18077910E+03</rscale>
<asrwt>0</asrwt>
<pdfrwt beam="1">  1       21 0.71256922E-02 0.18079051E+03</pdfrwt>
<pdfrwt beam="2">  1       21 0.23700772E+00 0.18079051E+03</pdfrwt>
<totfact> 0.11772418E+04</totfact>
</mgrwt>
</event>
<event>
12    1  0.1039378E-001  0.2104671E+03  0.7546771E-02  0.1141397E+00
         21   -1    0    0  501  502  0.00000000000E+00  0.00000000000E+00  0.14772796155E+03  0.14772796155E+03  0.00000000000E+00 0. -1.
         21   -1    0    0  502  503 -0.00000000000E+00 -0.00000000000E+00 -0.29931632091E+03  0.29931632091E+03  0.00000000000E+00 0.  1.
         -6    2    1    2    0  503  0.22300232690E+02 -0.11772029175E+03 -0.63318834331E+02  0.21881648894E+03  0.17180225140E+03 0.  0.
        -24    2    3    3    0    0  0.57945102666E+02 -0.15966480234E+02 -0.14293498455E+02  0.10028392603E+03  0.78993659917E+02 0.  0.
          6    2    1    2  501    0 -0.22300232690E+02  0.11772029175E+03 -0.88269525025E+02  0.22822779352E+03  0.17303482083E+03 0.  0.
         24    2    5    5    0    0 -0.53269808080E+02  0.89259008756E+02 -0.11824745735E+03  0.17636330031E+03  0.79477729134E+02 0.  0.
          5    1    5    5  501    0  0.30969575390E+02  0.28461282995E+02  0.29977932328E+02  0.51864493213E+02  0.47000000000E+01 0. -1.
        -13    1    6    6    0    0 -0.31206041087E+02  0.98445181009E+02 -0.77478039686E+02  0.12910506302E+03  0.00000000000E+00 0.  1.
         14    1    6    6    0    0 -0.22063766992E+02 -0.91861722532E+01 -0.40769417667E+02  0.47258237287E+02  0.00000000000E+00 0. -1.
         -5    1    3    3    0  503 -0.35644869977E+02 -0.10175381152E+03 -0.49025335877E+02  0.11853256292E+03  0.47000000000E+01 0.  1.
         11    1    4    4    0    0 -0.12766377456E+02 -0.96040980477E+01  0.16436952509E+02  0.22921441936E+02  0.00000000000E+00 0. -1.
        -12    1    4    4    0    0  0.70711480122E+02 -0.63623821859E+01 -0.30730450963E+02  0.77362484090E+02  0.00000000000E+00 0.  1.
<mgrwt>
<rscale>  2 0.21021364E+03</rscale>
<asrwt>0</asrwt>
<pdfrwt beam="1">  1       21 0.22727379E-01 0.21046714E+03</pdfrwt>
<pdfrwt beam="2">  1       21 0.46048664E-01 0.21046714E+03</pdfrwt>
<totfact> 0.81422807E+04</totfact>
</mgrwt>
</event>
<event>
12    1  0.1039378E-001  0.1988397E+03  0.7546771E-02  0.1150766E+00
         21   -1    0    0  501  502  0.00000000000E+00  0.00000000000E+00  0.60816908026E+03  0.60816908026E+03  0.00000000000E+00 0. -1.
         21   -1    0    0  502  503 -0.00000000000E+00 -0.00000000000E+00 -0.11839195374E+03  0.11839195374E+03  0.00000000000E+00 0.  1.
         -6    2    1    2    0  503 -0.61066031284E+02 -0.77264650365E+02  0.86638306379E+00  0.19884159371E+03  0.17273778508E+03 0.  0.
        -24    2    3    3    0    0 -0.68982575577E+02 -0.99402264990E+02 -0.39200433771E+02  0.15214913751E+03  0.83506167541E+02 0.  0.
          6    2    1    2  501    0  0.61066031284E+02  0.77264650365E+02  0.48891074345E+03  0.52771944029E+03  0.17249697456E+03 0.  0.
         24    2    5    5    0    0  0.36741684008E+02  0.50640808088E+02  0.47899170840E+03  0.49002355054E+03  0.82313914880E+02 0.  0.
          5    1    5    5  501    0  0.24324347276E+02  0.26623842276E+02  0.99190350511E+01  0.37695889753E+02  0.47000000000E+01 0. -1.
        -13    1    6    6    0    0  0.16885217338E+02 -0.21471185199E+02  0.96715019304E+02  0.10049834485E+03  0.00000000000E+00 0.  1.
         14    1    6    6    0    0  0.19856466670E+02  0.72111993288E+02  0.38227668909E+03  0.38952520569E+03  0.00000000000E+00 0. -1.
         -5    1    3    3    0  503  0.79165442931E+01  0.22137614625E+02  0.40066816835E+02  0.46692456201E+02  0.47000000000E+01 0.  1.
         13    1    4    4    0    0 -0.17183563323E+02 -0.94963968899E+00  0.19792023395E+02  0.26227864078E+02  0.00000000000E+00 0. -1.
        -14    1    4    4    0    0 -0.51799012254E+02 -0.98452625301E+02 -0.58992457166E+02  0.12592127343E+03  0.00000000000E+00 0.  1.
<mgrwt>
<rscale>  2 0.19878739E+03</rscale>
<asrwt>0</asrwt>
<pdfrwt beam="1">  1       21 0.93564472E-01 0.19883971E+03</pdfrwt>
<pdfrwt beam="2">  1       21 0.18214147E-01 0.19883971E+03</pdfrwt>
<totfact> 0.26271597E+04</totfact>
</mgrwt>
</event>
<event>
12    1  0.1039378E-001  0.2026605E+03  0.7546771E-02  0.1147650E+00
         21   -1    0    0  501  502  0.00000000000E+00  0.00000000000E+00  0.10510222571E+04  0.10510222571E+04  0.00000000000E+00 0.  1.
         21   -1    0    0  502  503 -0.00000000000E+00 -0.00000000000E+00 -0.62910817963E+02  0.62910817963E+02  0.00000000000E+00 0. -1.
         -6    2    1    2    0  503  0.63616605421E+02  0.83433320292E+02  0.83728138353E+03  0.86130496066E+03  0.17262076535E+03 0.  0.
        -24    2    3    3    0    0  0.35208133208E+02  0.74424857425E+02  0.81674391566E+03  0.82480740892E+03  0.80361470780E+02 0.  0.
          6    2    1    2  501    0 -0.63616605421E+02 -0.83433320292E+02  0.15083005559E+03  0.25262811439E+03  0.17338704418E+03 0.  0.
         24    2    5    5    0    0  0.62869527194E+01 -0.54318628866E+02  0.12192812230E+02  0.94588410691E+02  0.76211964616E+02 0.  0.
          5    1    5    5  501    0 -0.69903558141E+02 -0.29114691426E+02  0.13863724336E+03  0.15803970370E+03  0.47000000000E+01 0. -1.
        -13    1    6    6    0    0  0.40898486900E+01 -0.56780692200E+01  0.38578827834E+02  0.39208331888E+02  0.00000000000E+00 0.  1.
         14    1    6    6    0    0  0.21971040295E+01 -0.48640559646E+02 -0.26386015604E+02  0.55380078803E+02  0.00000000000E+00 0. -1.
         -5    1    3    3    0  503  0.28408472213E+02  0.90084628675E+01  0.20537467865E+02  0.36497551740E+02  0.47000000000E+01 0.  1.
         13    1    4    4    0    0  0.42732447601E+02  0.26244802853E+01  0.31516049852E+03  0.31805516786E+03  0.00000000000E+00 0. -1.
        -14    1    4    4    0    0 -0.75243143930E+01  0.71800377139E+02  0.50158341714E+03  0.50675224105E+03  0.00000000000E+00 0.  1.
<mgrwt>
<rscale>  2 0.20249645E+03</rscale>
<asrwt>0</asrwt>
<pdfrwt beam="1">  1       21 0.16169572E+00 0.20266045E+03</pdfrwt>
<pdfrwt beam="2">  1       21 0.96785882E-02 0.20266045E+03</pdfrwt>
<totfact> 0.20884372E+04</totfact>
</mgrwt>
</event>
<event>
12    1  0.1039378E-001  0.2350747E+03  0.7546771E-02  0.1123297E+00
         21   -1    0    0  503  502  0.00000000000E+00  0.00000000000E+00  0.33082076851E+03  0.33082076851E+03  0.00000000000E+00 0.  1.
         21   -1    0    0  501  503 -0.00000000000E+00 -0.00000000000E+00 -0.17413654462E+03  0.17413654462E+03  0.00000000000E+00 0.  1.
          6    2    1    2  501    0  0.15713365935E+03  0.24431539530E+02  0.13173620064E+03  0.26856251567E+03  0.17170763304E+03 0.  0.
         24    2    3    3    0    0  0.81425940131E+02 -0.36002534953E+02  0.12079825425E+03  0.17096300349E+03  0.81913149639E+02 0.  0.
         -6    2    1    2    0  502 -0.15713365935E+03 -0.24431539530E+02  0.24948023255E+02  0.23639479745E+03  0.17312483754E+03 0.  0.
        -24    2    5    5    0    0 -0.52597594711E+01 -0.39047520087E+02  0.15030340521E+02  0.83425000492E+02  0.71982259455E+02 0.  0.
          5    1    3    3  501    0  0.75707719216E+02  0.60434074484E+02  0.10937946392E+02  0.97599512185E+02  0.47000000000E+01 0. -1.
        -13    1    4    4    0    0  0.69984223939E+02  0.12183827472E+02  0.78078490570E+02  0.10555798379E+03  0.00000000000E+00 0.  1.
         14    1    4    4    0    0  0.11441716192E+02 -0.48186362426E+02  0.42719763676E+02  0.65405019699E+02  0.00000000000E+00 0. -1.
         -5    1    5    5    0  502 -0.15187389988E+03  0.14615980557E+02  0.99176827335E+01  0.15296979696E+03  0.47000000000E+01 0.  1.
         11    1    6    6    0    0 -0.19630048396E+02 -0.24139639143E+02  0.40199096635E+02  0.50833338945E+02  0.00000000000E+00 0. -1.
        -12    1    6    6    0    0  0.14370288925E+02 -0.14907880944E+02 -0.25168756114E+02  0.32591661547E+02  0.00000000000E+00 0.  1.
<mgrwt>
<rscale>  2 0.23481379E+03</rscale>
<asrwt>0</asrwt>
<pdfrwt beam="1">  1       21 0.50895503E-01 0.23507466E+03</pdfrwt>
<pdfrwt beam="2">  1       21 0.26790238E-01 0.23507466E+03</pdfrwt>
<totfact> 0.47761751E+04</totfact>
</mgrwt>
</event>
<event>
12    1  0.1039378E-001  0.2102329E+03  0.7546771E-02  0.1142583E+00
         21   -1    0    0  501  502  0.00000000000E+00  0.00000000000E+00  0.11328953240E+03  0.11328953240E+03  0.00000000000E+00 0. -1.
         21   -1    0    0  502  503 -0.00000000000E+00 -0.00000000000E+00 -0.43023387542E+03  0.43023387542E+03  0.00000000000E+00 0. -1.
         -6    2    1    2    0  503  0.10566956591E+03  0.56898528115E+02 -0.25013023041E+03  0.32292875520E+03  0.16527053310E+03 0.  0.
        -24    2    3    3    0    0  0.92818406183E+01  0.19794644067E+02 -0.46895402362E+02  0.94907315137E+02  0.79562800383E+02 0.  0.
          6    2    1    2  501    0 -0.10566956591E+03 -0.56898528115E+02 -0.66814112608E+02  0.22059465262E+03  0.17261047320E+03 0.  0.
         24    2    5    5    0    0 -0.13377841512E+03 -0.69201446733E+02 -0.78979370331E+02  0.18725469601E+03  0.78365015525E+02 0.  0.
          5    1    5    5  501    0  0.28108849217E+02  0.12302918618E+02  0.12165257723E+02  0.33339956603E+02  0.47000000000E+01 0. -1.
        -13    1    6    6    0    0 -0.12332893203E+02 -0.23711373718E+01 -0.41928923594E+02  0.43769363497E+02  0.00000000000E+00 0.  1.
         14    1    6    6    0    0 -0.12144552192E+03 -0.66830309361E+02 -0.37050446737E+02  0.14348533252E+03  0.00000000000E+00 0. -1.
         -5    1    3    3    0  503  0.96387725289E+02  0.37103884048E+02 -0.20323482805E+03  0.22802144007E+03  0.47000000000E+01 0.  1.
         11    1    4    4    0    0  0.20027398949E+02  0.42435480874E+02 -0.65039454687E+01  0.47372650890E+02  0.00000000000E+00 0. -1.
        -12    1    4    4    0    0 -0.10745558331E+02 -0.22640836807E+02 -0.40391456893E+02  0.47534664247E+02  0.00000000000E+00 0.  1.
<mgrwt>
<rscale>  2 0.20872081E+03</rscale>
<asrwt>0</asrwt>
<pdfrwt beam="1">  1       21 0.17429159E-01 0.21023291E+03</pdfrwt>
<pdfrwt beam="2">  1       21 0.66189826E-01 0.21023291E+03</pdfrwt>
<totfact> 0.61917954E+04</totfact>
</mgrwt>
</event>
<event>
12    1  0.1039378E-001  0.2374601E+03  0.7546771E-02  0.1121933E+00
         21   -1    0    0  503  502  0.00000000000E+00  0.00000000000E+00  0.17075820164E+03  0.17075820164E+03  0.00000000000E+00 0.  1.
         21   -1    0    0  501  503 -0.00000000000E+00 -0.00000000000E+00 -0.35554027511E+03  0.35554027511E+03  0.00000000000E+00 0.  1.
          6    2    1    2  501    0  0.70833097995E+02  0.14169351449E+03 -0.16693290624E+03  0.28816852881E+03  0.17343623033E+03 0.  0.
         24    2    3    3    0    0 -0.30862522182E+01  0.10469499356E+03 -0.15618383153E+03  0.20467844860E+03  0.80804154964E+02 0.  0.
         -6    2    1    2    0  502 -0.70833097995E+02 -0.14169351449E+03 -0.17849167237E+02  0.23812994794E+03  0.17689799184E+03 0.  0.
        -24    2    5    5    0    0  0.22979745165E+02 -0.92434360210E+02  0.17218658056E+02  0.12641980430E+03  0.81322230039E+02 0.  0.
          5    1    3    3  501    0  0.73919350213E+02  0.36998520932E+02 -0.10749074706E+02  0.83490080214E+02  0.47000000000E+01 0. -1.
        -13    1    4    4    0    0 -0.36754961824E+02  0.22555730219E+02 -0.43843615767E+02  0.61497567659E+02  0.00000000000E+00 0.  1.
         14    1    4    4    0    0  0.33668709606E+02  0.82139263338E+02 -0.11234021576E+03  0.14318088094E+03  0.00000000000E+00 0. -1.
         -5    1    5    5    0  502 -0.93812843160E+02 -0.49259154278E+02 -0.35067825293E+02  0.11171014364E+03  0.47000000000E+01 0.  1.
         11    1    6    6    0    0  0.13672845995E+02 -0.10413630190E+03  0.27134869563E+02  0.10847864876E+03  0.00000000000E+00 0. -1.
        -12    1    6    6    0    0  0.93068991692E+01  0.11701941688E+02 -0.99162115069E+01  0.17941155539E+02  0.00000000000E+00 0.  1.
<mgrwt>
<rscale>  2 0.23681556E+03</rscale>
<asrwt>0</asrwt>
<pdfrwt beam="1">  1       21 0.26270493E-01 0.23746006E+03</pdfrwt>
<pdfrwt beam="2">  1       21 0.54698504E-01 0.23746006E+03</pdfrwt>
<totfact> 0.42553749E+04</totfact>
</mgrwt>
</event>
<event>
12    1  0.1039378E-001  0.1847332E+03  0.7546771E-02  0.1163551E+00
         21   -1    0    0  503  502  0.00000000000E+00  0.00000000000E+00  0.14495428393E+03  0.14495428393E+03  0.00000000000E+00 0.  1.
         21   -1    0    0  501  503 -0.00000000000E+00 -0.00000000000E+00 -0.23490129218E+03  0.23490129218E+03  0.00000000000E+00 0.  1.
          6    2    1    2  501    0 -0.38564276251E+01 -0.60724450955E+02 -0.56453533591E+02  0.19316662577E+03  0.17442480581E+03 0.  0.
         24    2    3    3    0    0  0.63730448146E+02 -0.20362221045E+02 -0.41020836038E+02  0.11280896569E+03  0.81036804508E+02 0.  0.
         -6    2    1    2    0  502  0.38564276251E+01  0.60724450955E+02 -0.33493474658E+02  0.18668895034E+03  0.17328768092E+03 0.  0.
        -24    2    5    5    0    0  0.44541753544E+02  0.79562650055E+02 -0.58430578128E+02  0.13517077277E+03  0.80887713897E+02 0.  0.
          5    1    3    3  501    0 -0.67586875771E+02 -0.40362229910E+02 -0.15432697553E+02  0.80357660080E+02  0.47000000000E+01 0. -1.
        -11    1    4    4    0    0  0.35694874933E+02 -0.35459587473E+02 -0.57951467821E+02  0.76745547511E+02  0.00000000000E+00 0.  1.
         12    1    4    4    0    0  0.28035573213E+02  0.15097366428E+02  0.16930631783E+02  0.36063418183E+02  0.00000000000E+00 0. -1.
         -5    1    5    5    0  502 -0.40685325919E+02 -0.18838199099E+02  0.24937103470E+02  0.51518177568E+02  0.47000000000E+01 0.  1.
         11    1    6    6    0    0  0.25210455080E+02 -0.55431228795E+01  0.62297620831E+01  0.26553779245E+02  0.00000000000E+00 0. -1.
        -12    1    6    6    0    0  0.19331298464E+02  0.85105772934E+02 -0.64660340211E+02  0.10861699353E+03  0.00000000000E+00 0.  1.
<mgrwt>
<rscale>  2 0.18446426E+03</rscale>
<asrwt>0</asrwt>
<pdfrwt beam="1">  1       21 0.22300659E-01 0.18473317E+03</pdfrwt>
<pdfrwt beam="2">  1       21 0.36138660E-01 0.18473317E+03</pdfrwt>
<totfact> 0.13929409E+05</totfact>
</mgrwt>
</event>
<event>
12    1  0.1039378E-001  0.2114147E+03  0.7546771E-02  0.1140952E+00
         21   -1    0    0  503  502  0.00000000000E+00  0.00000000000E+00  0.18524521045E+03  0.18524521045E+03  0.00000000000E+00 0. -1.
         21   -1    0    0  501  503 -0.00000000000E+00 -0.00000000000E+00 -0.24557002257E+03  0.24557002257E+03  0.00000000000E+00 0. -1.
          6    2    1    2  501    0  0.80777042993E+01  0.11900686463E+03 -0.66812016973E+02  0.21930099237E+03  0.17146777105E+03 0.  0.
         24    2    3    3    0    0  0.41284769804E+01  0.17383224144E+01 -0.60526132207E+02  0.10170375713E+03  0.81609897976E+02 0.  0.
         -6    2    1    2    0  502 -0.80777042993E+01 -0.11900686463E+03  0.64872048592E+01  0.21151424065E+03  0.17455173169E+03 0.  0.
        -24    2    5    5    0    0  0.56557428875E+02 -0.31847682731E+02  0.30355102837E+00  0.10272659887E+03  0.79621883400E+02 0.  0.
          5    1    3    3  501    0  0.39492273189E+01  0.11726854221E+03 -0.62858847665E+01  0.11759723524E+03  0.47000000000E+01 0. -1.
        -13    1    4    4    0    0  0.33604439594E+01  0.38835287007E+02 -0.49479014214E+02  0.62989244702E+02  0.00000000000E+00 0.  1.
         14    1    4    4    0    0  0.76803302094E+00 -0.37096964592E+02 -0.11047117992E+02  0.38714512429E+02  0.00000000000E+00 0. -1.
         -5    1    5    5    0  502 -0.64635133174E+02 -0.87159181897E+02  0.61836538308E+01  0.10878764178E+03  0.47000000000E+01 0.  1.
         11    1    6    6    0    0  0.96346059533E+01 -0.34617645664E+02 -0.29991682647E+02  0.46805000280E+02  0.00000000000E+00 0. -1.
        -12    1    6    6    0    0  0.46922822921E+02  0.27699629336E+01  0.30295233675E+02  0.55921598591E+02  0.00000000000E+00 0.  1.
<mgrwt>
<rscale>  2 0.21077711E+03</rscale>
<asrwt>0</asrwt>
<pdfrwt beam="1">  1       21 0.28499263E-01 0.21141473E+03</pdfrwt>
<pdfrwt beam="2">  1       21 0.37780003E-01 0.21141473E+03</pdfrwt>
<totfact> 0.78918593E+04</totfact>
</mgrwt>
</event>
<event>
12    1  0.1039378E-001  0.1997667E+03  0.7546771E-02  0.1150301E+00
         21   -1    0    0  501  502  0.00000000000E+00  0.00000000000E+00  0.51481287085E+02  0.51481287085E+02  0.00000000000E+00 0.  1.
         21   -1    0    0  502  503 -0.00000000000E+00 -0.00000000000E+00 -0.23791245140E+04  0.23791245140E+04  0.00000000000E+00 0.  1.
         -6    2    1    2    0  503 -0.97511740822E+02  0.10721879906E+02 -0.21621280333E+04  0.21711794778E+04  0.17204416314E+03 0.  0.
        -24    2    3    3    0    0 -0.21774238818E+02  0.59250687362E+02 -0.86984110836E+03  0.87575722974E+03  0.79639250490E+02 0.  0.
          6    2    1    2  501    0  0.97511740822E+02 -0.10721879906E+02 -0.16551519367E+03  0.25942632336E+03  0.17402080223E+03 0.  0.
         24    2    5    5    0    0  0.12792842953E+03  0.30080239551E+02 -0.12394896447E+03  0.19354894246E+03  0.69479086354E+02 0.  0.
          5    1    5    5  501    0 -0.30416688705E+02 -0.40802119457E+02 -0.41566229207E+02  0.65877380902E+02  0.47000000000E+01 0. -1.
        -11    1    6    6    0    0  0.56667583507E+02  0.44495854680E+02 -0.83729784617E+02  0.11046163559E+03  0.00000000000E+00 0.  1.
         12    1    6    6    0    0  0.71260846021E+02 -0.14415615130E+02 -0.40219179849E+02  0.83087306870E+02  0.00000000000E+00 0. -1.
         -5    1    3    3    0  503 -0.75737502004E+02 -0.48528807456E+02 -0.12922869249E+04  0.12954222480E+04  0.47000000000E+01 0.  1.
         11    1    4    4    0    0 -0.12526352903E+02 -0.98840343918E+01 -0.41141369613E+02  0.44127269874E+02  0.00000000000E+00 0. -1.
        -12    1    4    4    0    0 -0.92478859154E+01  0.69134721754E+02 -0.82869973874E+03  0.83162995986E+03  0.00000000000E+00 0.  1.
<mgrwt>
<rscale>  2 0.19933544E+03</rscale>
<asrwt>0</asrwt>
<pdfrwt beam="1">  1       21 0.79201991E-02 0.19976671E+03</pdfrwt>
<pdfrwt beam="2">  1       21 0.36601911E+00 0.19976671E+03</pdfrwt>
<totfact> 0.16978843E+03</totfact>
</mgrwt>
</event>
<event>
12    1  0.1039378E-001  0.1915844E+03  0.7546771E-02  0.1157259E+00
         21   -1    0    0  503  502  0.00000000000E+00  0.00000000000E+00  0.30598091420E+03  0.30598091420E+03  0.00000000000E+00 0. -1.
         21   -1    0    0  501  503 -0.00000000000E+00 -0.00000000000E+00 -0.20078649362E+03  0.20078649362E+03  0.00000000000E+00 0. -1.
          6    2    1    2  501    0 -0.70379028578E+02  0.38780319449E+02 -0.10869738226E+03  0.22027185172E+03  0.17391793153E+03 0.  0.
         24    2    3    3    0    0 -0.10077828207E+03  0.60667370327E+02 -0.50787747648E+02  0.15114317901E+03  0.80175266082E+02 0.  0.
         -6    2    1    2    0  502  0.70379028578E+02 -0.38780319449E+02  0.21389180285E+03  0.28649555611E+03  0.17283772593E+03 0.  0.
        -24    2    5    5    0    0  0.89858402560E+02 -0.15493874442E+02  0.22327625700E+03  0.25437293928E+03  0.80862306696E+02 0.  0.
          5    1    3    3  501    0  0.30399253491E+02 -0.21887050878E+02 -0.57909634616E+02  0.69128672708E+02  0.47000000000E+01 0. -1.
        -11    1    4    4    0    0 -0.99587842708E+01  0.36337088596E+01  0.20005998312E+02  0.22641139386E+02  0.00000000000E+00 0.  1.
         12    1    4    4    0    0 -0.90819497798E+02  0.57033661468E+02 -0.70793745960E+02  0.12850203962E+03  0.00000000000E+00 0. -1.
         -5    1    5    5    0  502 -0.19479373982E+02 -0.23286445007E+02 -0.93844541553E+01  0.32122616823E+02  0.47000000000E+01 0.  1.
         13    1    6    6    0    0  0.53081132929E+02 -0.37464637051E+02  0.18789603024E+03  0.19881178004E+03  0.00000000000E+00 0. -1.
        -14    1    6    6    0    0  0.36777269631E+02  0.21970762609E+02  0.35380226762E+02  0.55561159246E+02  0.00000000000E+00 0.  1.
<mgrwt>
<rscale>  2 0.19133888E+03</rscale>
<asrwt>0</asrwt>
<pdfrwt beam="1">  1       21 0.47073987E-01 0.19158436E+03</pdfrwt>
<pdfrwt beam="2">  1       21 0.30890230E-01 0.19158436E+03</pdfrwt>
<totfact> 0.43490550E+04</totfact>
</mgrwt>
</event>
<event>
12    1  0.1039378E-001  0.2624894E+03  0.7546771E-02  0.1105674E+00
         21   -1    0    0  503  502  0.00000000000E+00  0.00000000000E+00  0.21150576711E+03  0.21150576711E+03  0.00000000000E+00 0.  1.
         21   -1    0    0  501  503 -0.00000000000E+00 -0.00000000000E+00 -0.34949787702E+03  0.34949787702E+03  0.00000000000E+00 0.  1.
          6    2    1    2  501    0 -0.16257714784E+03  0.11173213908E+03 -0.14232675186E+03  0.29859271209E+03  0.17316265046E+03 0.  0.
         24    2    3    3    0    0 -0.14405460013E+03  0.11341546917E+03 -0.17155073113E+03  0.26363488982E+03  0.80367314964E+02 0.  0.
         -6    2    1    2    0  502  0.16257714784E+03 -0.11173213908E+03  0.43346419519E+01  0.26241093205E+03  0.17298932983E+03 0.  0.
        -24    2    5    5    0    0  0.80077853487E+02 -0.49928990369E+02 -0.62508525331E+02  0.13946435108E+03  0.81471607231E+02 0.  0.
          5    1    3    3  501    0 -0.18522547708E+02 -0.16833300922E+01  0.29223979263E+02  0.34957822269E+02  0.47000000000E+01 0. -1.
        -11    1    4    4    0    0 -0.71917970934E+02  0.13901843120E+02 -0.90405577687E+02  0.11635559403E+03  0.00000000000E+00 0.  1.
         12    1    4    4    0    0 -0.72136629201E+02  0.99513626049E+02 -0.81145153438E+02  0.14727929579E+03  0.00000000000E+00 0. -1.
         -5    1    5    5    0  502  0.82499294356E+02 -0.61803148709E+02  0.66843167283E+02  0.12294658097E+03  0.47000000000E+01 0.  1.
         11    1    6    6    0    0  0.95935029271E+02 -0.48667058574E+02 -0.47497571186E+02  0.11759265156E+03  0.00000000000E+00 0. -1.
        -12    1    6    6    0    0 -0.15857175784E+02 -0.12619317951E+01 -0.15010954144E+02  0.21871699523E+02  0.00000000000E+00 0.  1.
<mgrwt>
<rscale>  2 0.26246085E+03</rscale>
<asrwt>0</asrwt>
<pdfrwt beam="1">  1       21 0.32539349E-01 0.26248943E+03</pdfrwt>
<pdfrwt beam="2">  1       21 0.53768904E-01 0.26248943E+03</pdfrwt>
<totfact> 0.28732111E+04</totfact>
</mgrwt>
</event>
<event>
12    1  0.1039378E-001  0.1739551E+03  0.7546771E-02  0.1174215E+00
         21   -1    0    0  503  502  0.00000000000E+00  0.00000000000E+00  0.24251507545E+03  0.24251507545E+03  0.00000000000E+00 0. -1.
         21   -1    0    0  501  503 -0.00000000000E+00 -0.00000000000E+00 -0.26949434487E+03  0.26949434487E+03  0.00000000000E+00 0. -1.
          6    2    1    2  501    0  0.11767949232E+02  0.63994093202E+00 -0.20190218672E+03  0.26650492437E+03  0.17355543079E+03 0.  0.
         24    2    3    3    0    0  0.46402734225E+02  0.26431064987E+02 -0.51502434777E+02  0.10995804387E+03  0.81156981725E+02 0.  0.
         -6    2    1    2    0  502 -0.11767949232E+02 -0.63994093202E+00  0.17492291729E+03  0.24550449595E+03  0.17185905965E+03 0.  0.
        -24    2    5    5    0    0  0.35686292531E+02 -0.73417576238E+01  0.17769114044E+03  0.19726993917E+03  0.77549175565E+02 0.  0.
          5    1    3    3  501    0 -0.34634784994E+02 -0.25791124055E+02 -0.15039975194E+03  0.15654688051E+03  0.47000000000E+01 0. -1.
        -11    1    4    4    0    0 -0.16570754436E+02 -0.90911142474E+01 -0.28287909973E+02  0.34021230305E+02  0.00000000000E+00 0.  1.
         12    1    4    4    0    0  0.62973488662E+02  0.35522179234E+02 -0.23214524804E+02  0.75936813560E+02  0.00000000000E+00 0. -1.
         -5    1    5    5    0  502 -0.47454241763E+02  0.67018166918E+01 -0.27682231436E+01  0.48234556779E+02  0.47000000000E+01 0.  1.
         11    1    6    6    0    0 -0.11535297011E+02 -0.67630995602E+01 -0.39903329373E-01  0.13371768210E+02  0.00000000000E+00 0. -1.
        -12    1    6    6    0    0  0.47221589542E+02 -0.57865806358E+00  0.17773104377E+03  0.18389817096E+03  0.00000000000E+00 0.  1.
<mgrwt>
<rscale>  2 0.17353045E+03</rscale>
<asrwt>0</asrwt>
<pdfrwt beam="1">  1       21 0.37310011E-01 0.17395511E+03</pdfrwt>
<pdfrwt beam="2">  1       21 0.41460669E-01 0.17395511E+03</pdfrwt>
<totfact> 0.39180222E+04</totfact>
</mgrwt>
</event>
<event>
12    1  0.1039378E-001  0.2597270E+03  0.7546771E-02  0.1107626E+00
         21   -1    0    0  503  502  0.00000000000E+00  0.00000000000E+00  0.15743291203E+03  0.15743291203E+03  0.00000000000E+00 0.  1.
         21   -1    0    0  501  503 -0.00000000000E+00 -0.00000000000E+00 -0.49050430283E+03  0.49050430283E+03  0.00000000000E+00 0.  1.
          6    2    1    2  501    0 -0.18469493509E+03 -0.48211629773E+02 -0.47574897050E+02  0.26197563022E+03  0.17300658862E+03 0.  0.
         24    2    3    3    0    0 -0.59417672674E+02 -0.13040936539E+02  0.35785815525E+02  0.10737139825E+03  0.80916418102E+02 0.  0.
         -6    2    1    2    0  502  0.18469493509E+03  0.48211629773E+02 -0.28549649375E+03  0.38596158464E+03  0.17612926100E+03 0.  0.
        -24    2    5    5    0    0  0.10774520475E+03  0.63934163969E+02 -0.87492449662E+02  0.17289786047E+03  0.80883465175E+02 0.  0.
          5    1    3    3  501    0 -0.12527726242E+03 -0.35170693234E+02 -0.83360712575E+02  0.15460423197E+03  0.47000000000E+01 0. -1.
        -13    1    4    4    0    0 -0.45868356177E+02  0.30372109809E+02  0.26023260661E+02  0.60857055861E+02  0.00000000000E+00 0.  1.
         14    1    4    4    0    0 -0.13549316497E+02 -0.43413046348E+02  0.97625548647E+01  0.46514342393E+02  0.00000000000E+00 0. -1.
         -5    1    5    5    0  502  0.76949730346E+02 -0.15722534196E+02 -0.19800404408E+03  0.21306372417E+03  0.47000000000E+01 0.  1.
         11    1    6    6    0    0  0.76898559970E+02  0.43995662557E+02 -0.12603333599E+02  0.89486596019E+02  0.00000000000E+00 0. -1.
        -12    1    6    6    0    0  0.30846644777E+02  0.19938501412E+02 -0.74889116063E+02  0.83411264451E+02  0.00000000000E+00 0.  1.
<mgrwt>
<rscale>  2 0.25919851E+03</rscale>
<asrwt>0</asrwt>
<pdfrwt beam="1">  1       21 0.24220448E-01 0.25972697E+03</pdfrwt>
<pdfrwt beam="2">  1       21 0.75462200E-01 0.25972697E+03</pdfrwt>
<totfact> 0.24369491E+04</totfact>
</mgrwt>
</event>
<event>
12    1  0.1039378E-001  0.1850624E+03  0.7546771E-02  0.1163565E+00
         21   -1    0    0  503  502  0.00000000000E+00  0.00000000000E+00  0.11094690114E+03  0.11094690114E+03  0.00000000000E+00 0.  1.
         21   -1    0    0  501  503 -0.00000000000E+00 -0.00000000000E+00 -0.48312380440E+03  0.48312380440E+03  0.00000000000E+00 0.  1.
          6    2    1    2  501    0  0.58116708332E+02  0.10041194425E+02 -0.36740938186E+03  0.41138514667E+03  0.17541296316E+03 0.  0.
         24    2    3    3    0    0  0.10564391778E+03  0.66231935160E+01 -0.30380856070E+03  0.33177564459E+03  0.81061289985E+02 0.  0.
         -6    2    1    2    0  502 -0.58116708332E+02 -0.10041194425E+02 -0.47675214016E+01  0.18268555887E+03  0.17283780485E+03 0.  0.
        -24    2    5    5    0    0 -0.18345252667E+02 -0.57107976989E+02 -0.55880758648E+02  0.10248765535E+03  0.61507649782E+02 0.  0.
          5    1    3    3  501    0 -0.47527209445E+02  0.34180009093E+01 -0.63600821164E+02  0.79609502075E+02  0.47000000000E+01 0. -1.
        -11    1    4    4    0    0  0.16896684875E+02  0.20992159939E+02 -0.15945055311E+03  0.16171161871E+03  0.00000000000E+00 0.  1.
         12    1    4    4    0    0  0.88747232903E+02 -0.14368966423E+02 -0.14435800759E+03  0.17006402588E+03  0.00000000000E+00 0. -1.
         -5    1    5    5    0  502 -0.39771455664E+02  0.47066782564E+02  0.51113237247E+02  0.80197903516E+02  0.47000000000E+01 0.  1.
         11    1    6    6    0    0  0.15211689002E+02 -0.48546510121E+02 -0.28303725039E+02  0.58217351179E+02  0.00000000000E+00 0. -1.
        -12    1    6    6    0    0 -0.33556941669E+02 -0.85614668684E+01 -0.27577033609E+02  0.44270304176E+02  0.00000000000E+00 0.  1.
<mgrwt>
<rscale>  2 0.18444958E+03</rscale>
<asrwt>0</asrwt>
<pdfrwt beam="1">  1       21 0.17068754E-01 0.18506238E+03</pdfrwt>
<pdfrwt beam="2">  1       21 0.74326739E-01 0.18506238E+03</pdfrwt>
<totfact> 0.50416313E+04</totfact>
</mgrwt>
</event>
<event>
12    1  0.1039378E-001  0.2922652E+03  0.7546771E-02  0.1090406E+00
         21   -1    0    0  503  502  0.00000000000E+00  0.00000000000E+00  0.32528619305E+03  0.32528619305E+03  0.00000000000E+00 0. -1.
         21   -1    0    0  501  503 -0.00000000000E+00 -0.00000000000E+00 -0.33100771602E+03  0.33100771602E+03  0.00000000000E+00 0.  1.
          6    2    1    2  501    0 -0.27443279295E+02  0.23258819848E+03 -0.16084679781E+03  0.32541208115E+03  0.15865347944E+03 0.  0.
         24    2    3    3    0    0 -0.96111652133E+01  0.71491757041E+02 -0.11231801136E+03  0.15615730027E+03  0.81032838577E+02 0.  0.
         -6    2    1    2    0  502  0.27443279295E+02 -0.23258819848E+03  0.15512527485E+03  0.33088182792E+03  0.17483858127E+03 0.  0.
        -24    2    5    5    0    0  0.58645489367E+02 -0.16802253194E+03  0.16916012226E+03  0.25766045023E+03  0.78121034206E+02 0.  0.
          5    1    3    3  501    0 -0.17832114082E+02  0.16109644144E+03 -0.48528786447E+02  0.16925478088E+03  0.47000000000E+01 0. -1.
        -11    1    4    4    0    0 -0.20044970939E+02  0.83651837332E+02 -0.69984594628E+02  0.11089307568E+03  0.00000000000E+00 0.  1.
         12    1    4    4    0    0  0.10433805726E+02 -0.12160080290E+02 -0.42333416736E+02  0.45264224583E+02  0.00000000000E+00 0. -1.
         -5    1    5    5    0  502 -0.31202210071E+02 -0.64565666544E+02 -0.14034847417E+02  0.73221377695E+02  0.47000000000E+01 0.  1.
         11    1    6    6    0    0 -0.17309700112E+02 -0.56531160288E+02  0.44774249112E+02  0.74162869315E+02  0.00000000000E+00 0. -1.
        -12    1    6    6    0    0  0.75955189478E+02 -0.11149137165E+03  0.12438587315E+03  0.18349758091E+03  0.00000000000E+00 0.  1.
<mgrwt>
<rscale>  2 0.28989019E+03</rscale>
<asrwt>0</asrwt>
<pdfrwt beam="1">  1       21 0.50044030E-01 0.29226518E+03</pdfrwt>
<pdfrwt beam="2">  1       21 0.50924264E-01 0.29226518E+03</pdfrwt>
<totfact> 0.13215806E+04</totfact>
</mgrwt>
</event>
<event>
12    1  0.1039378E-001  0.1802342E+03  0.7546771E-02  0.1167978E+00
         21   -1    0    0  503  502  0.00000000000E+00  0.00000000000E+00  0.24518395291E+03  0.24518395291E+03  0.00000000000E+00 0. -1.
         21   -1    0    0  501  503 -0.00000000000E+00 -0.00000000000E+00 -0.16053517024E+03  0.16053517024E+03  0.00000000000E+00 0. -1.
          6    2    1    2  501    0  0.30462404316E+01  0.44683248469E+02 -0.44119082796E+02  0.18555559220E+03  0.17458096132E+03 0.  0.
         24    2    3    3    0    0  0.25373750204E+02 -0.19394275595E+02  0.23799650037E+02  0.89433320833E+02  0.80074530333E+02 0.  0.
         -6    2    1    2    0  502 -0.30462404316E+01 -0.44683248469E+02  0.12876786547E+03  0.22016353095E+03  0.17287262626E+03 0.  0.
        -24    2    5    5    0    0 -0.25179650224E+02 -0.61811696076E+02  0.15129337497E+03  0.18393149920E+03  0.80538255079E+02 0.  0.
          5    1    3    3  501    0 -0.22327509773E+02  0.64077524064E+02 -0.67918732832E+02  0.96122271365E+02  0.47000000000E+01 0. -1.
        -13    1    4    4    0    0 -0.22687487632E+02  0.14722262824E+02  0.45181629716E+01  0.27420447012E+02  0.00000000000E+00 0.  1.
         14    1    4    4    0    0  0.48061237836E+02 -0.34116538419E+02  0.19281487065E+02  0.62012873820E+02  0.00000000000E+00 0. -1.
         -5    1    5    5    0  502  0.22133409792E+02  0.17128447607E+02 -0.22525509502E+02  0.36232031750E+02  0.47000000000E+01 0.  1.
         13    1    6    6    0    0  0.27142994997E+02 -0.11247923494E+02  0.63038548673E+02  0.69549382306E+02  0.00000000000E+00 0. -1.
        -14    1    6    6    0    0 -0.52322645221E+02 -0.50563772582E+02  0.88254826298E+02  0.11438211690E+03  0.00000000000E+00 0.  1.
<mgrwt>
<rscale>  2 0.17981926E+03</rscale>
<asrwt>0</asrwt>
<pdfrwt beam="1">  1       21 0.37720608E-01 0.18023425E+03</pdfrwt>
<pdfrwt beam="2">  1       21 0.24697719E-01 0.18023425E+03</pdfrwt>
<totfact> 0.10555918E+05</totfact>
</mgrwt>
</event>
<event>
12    1  0.1039378E-001  0.3028845E+03  0.7546771E-02  0.1083903E+00
         21   -1    0    0  503  502  0.00000000000E+00  0.00000000000E+00  0.74649676669E+03  0.74649676669E+03  0.00000000000E+00 0.  1.
         21   -1    0    0  501  503 -0.00000000000E+00 -0.00000000000E+00 -0.15738615233E+03  0.15738615233E+03  0.00000000000E+00 0. -1.
          6    2    1    2  501    0  0.21933745330E+03 -0.11670936689E+03  0.81721711086E+02  0.31296624554E+03  0.17187041063E+03 0.  0.
         24    2    3    3    0    0  0.12629827850E+03 -0.12065090221E+03  0.10022544932E+03  0.21790677955E+03  0.83248594739E+02 0.  0.
         -6    2    1    2    0  502 -0.21933745330E+03  0.11670936689E+03  0.50738890328E+03  0.59091667348E+03  0.17323112041E+03 0.  0.
        -24    2    5    5    0    0 -0.19568013548E+03  0.60920852121E+02  0.28425076850E+03  0.35964898386E+03  0.80912462299E+02 0.  0.
          5    1    3    3  501    0  0.93039174793E+02  0.39415353163E+01 -0.18503738232E+02  0.95059465996E+02  0.47000000000E+01 0. -1.
        -11    1    4    4    0    0  0.11441582567E+03 -0.82264643458E+02  0.41785154880E+02  0.14698452944E+03  0.00000000000E+00 0.  1.
         12    1    4    4    0    0  0.11882452832E+02 -0.38386258750E+02  0.58440294438E+02  0.70922250106E+02  0.00000000000E+00 0. -1.
         -5    1    5    5    0  502 -0.23657317819E+02  0.55788514771E+02  0.22313813478E+03  0.23126768961E+03  0.47000000000E+01 0.  1.
         13    1    6    6    0    0 -0.88184336627E+02 -0.10914910768E+02  0.91434749377E+02  0.12749872900E+03  0.00000000000E+00 0. -1.
        -14    1    6    6    0    0 -0.10749579885E+03  0.71835762889E+02  0.19281601913E+03  0.23215025486E+03  0.00000000000E+00 0.  1.
<mgrwt>
<rscale>  2 0.30269026E+03</rscale>
<asrwt>0</asrwt>
<pdfrwt beam="1">  1       21 0.11484565E+00 0.30288449E+03</pdfrwt>
<pdfrwt beam="2">  1       21 0.24213255E-01 0.30288449E+03</pdfrwt>
<totfact> 0.88691098E+03</totfact>
</mgrwt>
</event>
<event>
12    1  0.1039378E-001  0.2964291E+03  0.7546771E-02  0.1087060E+00
         21   -1    0    0  503  502  0.00000000000E+00  0.00000000000E+00  0.11969497390E+03  0.11969497390E+03  0.00000000000E+00 0. -1.
         21   -1    0    0  501  503 -0.00000000000E+00 -0.00000000000E+00 -0.78305398121E+03  0.78305398121E+03  0.00000000000E+00 0. -1.
          6    2    1    2  501    0  0.23515692609E+03 -0.51205426603E+02 -0.44489060356E+03  0.53451170605E+03  0.17278408252E+03 0.  0.
         24    2    3    3    0    0  0.18565596170E+03 -0.99953204698E+02 -0.36521955418E+03  0.42869933696E+03  0.77065034272E+02 0.  0.
         -6    2    1    2    0  502 -0.23515692609E+03  0.51205426603E+02 -0.21846840375E+03  0.36823724906E+03  0.17305910134E+03 0.  0.
        -24    2    5    5    0    0 -0.25629889336E+03  0.44351723113E+02 -0.19090552145E+03  0.33251948720E+03  0.80424456299E+02 0.  0.
          5    1    3    3  501    0  0.49500964394E+02  0.48747778095E+02 -0.79671049379E+02  0.10581236910E+03  0.47000000000E+01 0. -1.
        -11    1    4    4    0    0  0.79770582309E+01 -0.94577268123E+01  0.24813033191E+00  0.12375121136E+02  0.00000000000E+00 0.  1.
         12    1    4    4    0    0  0.17767890347E+03 -0.90495477886E+02 -0.36546768451E+03  0.41632421582E+03  0.00000000000E+00 0. -1.
         -5    1    5    5    0  502  0.21141967264E+02  0.68537034909E+01 -0.27562882301E+02  0.35717761857E+02  0.47000000000E+01 0.  1.
         11    1    6    6    0    0 -0.67658637296E+02 -0.48142349367E+01 -0.90912244954E+02  0.11342796984E+03  0.00000000000E+00 0. -1.
        -12    1    6    6    0    0 -0.18864025606E+03  0.49165958049E+02 -0.99993276497E+02  0.21909151737E+03  0.00000000000E+00 0.  1.
<mgrwt>
<rscale>  2 0.29638900E+03</rscale>
<asrwt>0</asrwt>
<pdfrwt beam="1">  1       21 0.18414610E-01 0.29642913E+03</pdfrwt>
<pdfrwt beam="2">  1       21 0.12046985E+00 0.29642913E+03</pdfrwt>
<totfact> 0.13273802E+04</totfact>
</mgrwt>
</event>
<event>
12    1  0.1039378E-001  0.1907387E+03  0.7546771E-02  0.1157965E+00
         21   -1    0    0  501  502  0.00000000000E+00  0.00000000000E+00  0.36748196529E+02  0.36748196529E+02  0.00000000000E+00 0. -1.
         21   -1    0    0  502  503 -0.00000000000E+00 -0.00000000000E+00 -0.12018147252E+04  0.12018147252E+04  0.00000000000E+00 0.  1.
         -6    2    1    2    0  503  0.61855166959E+02 -0.47549911156E+02 -0.84393607624E+03  0.86505785059E+03  0.17323373913E+03 0.  0.
        -24    2    3    3    0    0 -0.34564484127E+01  0.24765602897E+02 -0.25716182873E+03  0.27022909523E+03  0.79159810695E+02 0.  0.
          6    2    1    2  501    0 -0.61855166959E+02  0.47549911156E+02 -0.32113045243E+03  0.37350507112E+03  0.17405233394E+03 0.  0.
         24    2    5    5    0    0  0.45688154619E+01 -0.85393025155E+01 -0.24464353855E+03  0.25761510899E+03  0.80132949898E+02 0.  0.
          5    1    5    5  501    0 -0.66423982421E+02  0.56089213672E+02 -0.76486913871E+02  0.11588996214E+03  0.47000000000E+01 0. -1.
        -11    1    6    6    0    0 -0.32802071869E+02  0.74387455148E+01 -0.62329510276E+02  0.70825692408E+02  0.00000000000E+00 0.  1.
         12    1    6    6    0    0  0.37370887331E+02 -0.15978048030E+02 -0.18231402828E+03  0.18678941658E+03  0.00000000000E+00 0. -1.
         -5    1    3    3    0  503  0.65311615372E+02 -0.72315514053E+02 -0.58677424750E+03  0.59482875536E+03  0.47000000000E+01 0.  1.
         13    1    4    4    0    0  0.28766304220E+02  0.31345083148E+02 -0.86136097480E+02  0.96069983789E+02  0.00000000000E+00 0. -1.
        -14    1    4    4    0    0 -0.32222752633E+02 -0.65794802516E+01 -0.17102573125E+03  0.17415911144E+03  0.00000000000E+00 0.  1.
<mgrwt>
<rscale>  2 0.19055180E+03</rscale>
<asrwt>0</asrwt>
<pdfrwt beam="1">  1       21 0.56535684E-02 0.19073875E+03</pdfrwt>
<pdfrwt beam="2">  1       21 0.18489458E+00 0.19073875E+03</pdfrwt>
<totfact> 0.36854433E+04</totfact>
</mgrwt>
</event>
<event>
12    1  0.1039378E-001  0.1752489E+03  0.7546771E-02  0.1172850E+00
         21   -1    0    0  503  502  0.00000000000E+00  0.00000000000E+00  0.13794826412E+03  0.13794826412E+03  0.00000000000E+00 0.  1.
         21   -1    0    0  501  503 -0.00000000000E+00 -0.00000000000E+00 -0.39212518370E+03  0.39212518370E+03  0.00000000000E+00 0.  1.
          6    2    1    2  501    0 -0.28400726825E+02  0.41759787278E+01 -0.30198524710E+03  0.34842048467E+03  0.17139925493E+03 0.  0.
         24    2    3    3    0    0 -0.65128913486E+02 -0.35530073033E+02 -0.24294894344E+03  0.26821508964E+03  0.86087070640E+02 0.  0.
         -6    2    1    2    0  502  0.28400726825E+02 -0.41759787278E+01  0.47808327523E+02  0.18165296315E+03  0.17288181731E+03 0.  0.
        -24    2    5    5    0    0 -0.22617982763E+02 -0.51572614595E+02  0.52548544663E+02  0.11169648040E+03  0.80891572288E+02 0.  0.
          5    1    3    3  501    0  0.36728186661E+02  0.39706051760E+02 -0.59036303658E+02  0.80205395027E+02  0.47000000000E+01 0. -1.
        -13    1    4    4    0    0 -0.72725988805E+02  0.35061949973E+01 -0.13893025083E+03  0.15685336288E+03  0.00000000000E+00 0.  1.
         14    1    4    4    0    0  0.75970753192E+01 -0.39036268030E+02 -0.10401869261E+03  0.11136172676E+03  0.00000000000E+00 0. -1.
         -5    1    5    5    0  502  0.51018709588E+02  0.47396635867E+02 -0.47402171402E+01  0.69956482745E+02  0.47000000000E+01 0.  1.
         13    1    6    6    0    0 -0.49820456530E+02 -0.13391256252E+02  0.25091652005E+02  0.57367191261E+02  0.00000000000E+00 0. -1.
        -14    1    6    6    0    0  0.27202473767E+02 -0.38181358342E+02  0.27456892658E+02  0.54329289139E+02  0.00000000000E+00 0.  1.
<mgrwt>
<rscale>  2 0.17488212E+03</rscale>
<asrwt>0</asrwt>
<pdfrwt beam="1">  1       21 0.21222810E-01 0.17524886E+03</pdfrwt>
<pdfrwt beam="2">  1       21 0.60326952E-01 0.17524886E+03</pdfrwt>
<totfact> 0.53334169E+04</totfact>
</mgrwt>
</event>
<event>
12    1  0.1039378E-001  0.2276203E+03  0.7546771E-02  0.1128460E+00
         21   -1    0    0  503  502  0.00000000000E+00  0.00000000000E+00  0.44201880954E+03  0.44201880954E+03  0.00000000000E+00 0.  1.
         21   -1    0    0  501  503 -0.00000000000E+00 -0.00000000000E+00 -0.15167026100E+03  0.15167026100E+03  0.00000000000E+00 0.  1.
          6    2    1    2  501    0  0.57251435808E+02 -0.13426553236E+03  0.30843224149E+01  0.22764119702E+03  0.17465978774E+03 0.  0.
         24    2    3    3    0    0  0.69040669041E+02 -0.15968752880E+03  0.26051855589E+02  0.19110544052E+03  0.74671744189E+02 0.  0.
         -6    2    1    2    0  502 -0.57251435808E+02  0.13426553236E+03  0.28726422612E+03  0.36604787352E+03  0.17368174924E+03 0.  0.
        -24    2    5    5    0    0 -0.17007335922E+02  0.80614330042E+02  0.27423295095E+03  0.29756471341E+03  0.80951390341E+02 0.  0.
          5    1    3    3  501    0 -0.11789233233E+02  0.25421996438E+02 -0.22967533175E+02  0.36535756503E+02  0.47000000000E+01 0. -1.
        -11    1    4    4    0    0  0.49052085723E+02 -0.29239329281E+02  0.12345948665E+02  0.58424891434E+02  0.00000000000E+00 0.  1.
         12    1    4    4    0    0  0.19988583318E+02 -0.13044819952E+03  0.13705906924E+02  0.13268054908E+03  0.00000000000E+00 0. -1.
         -5    1    5    5    0  502 -0.40244099886E+02  0.53651202318E+02  0.13031275170E+02  0.68483160108E+02  0.47000000000E+01 0.  1.
         13    1    6    6    0    0  0.29550606414E+02  0.36363407117E+02  0.15755459629E+03  0.16437453126E+03  0.00000000000E+00 0. -1.
        -14    1    6    6    0    0 -0.46557942336E+02  0.44250922926E+02  0.11667835466E+03  0.13319018215E+03  0.00000000000E+00 0.  1.
<mgrwt>
<rscale>  2 0.22743267E+03</rscale>
<asrwt>0</asrwt>
<pdfrwt beam="1">  1       21 0.68002893E-01 0.22762030E+03</pdfrwt>
<pdfrwt beam="2">  1       21 0.23333887E-01 0.22762030E+03</pdfrwt>
<totfact> 0.33491991E+04</totfact>
</mgrwt>
</event>
<event>
12    1  0.1039378E-001  0.2253521E+03  0.7546771E-02  0.1130895E+00
         21   -1    0    0  501  502  0.00000000000E+00  0.00000000000E+00  0.44771468589E+02  0.44771468589E+02  0.00000000000E+00 0.  1.
         21   -1    0    0  502  503 -0.00000000000E+00 -0.00000000000E+00 -0.11087686264E+04  0.11087686264E+04  0.00000000000E+00 0.  1.
         -6    2    1    2    0  503  0.13182893063E+03  0.60849553355E+02 -0.51778153297E+03  0.56266354885E+03  0.16556273199E+03 0.  0.
        -24    2    3    3    0    0  0.86093400556E+02  0.79448332658E+02 -0.27337870976E+03  0.31327934065E+03  0.98406885681E+02 0.  0.
          6    2    1    2  501    0 -0.13182893063E+03 -0.60849553355E+02 -0.54621562485E+03  0.59087654615E+03  0.17234282366E+03 0.  0.
         24    2    5    5    0    0 -0.13675739977E+03 -0.83855766044E+02 -0.35617716281E+03  0.39932946921E+03  0.82870246660E+02 0.  0.
          5    1    5    5  501    0  0.49284691394E+01  0.23006212689E+02 -0.19003846204E+03  0.19154707694E+03  0.47000000000E+01 0. -1.
        -13    1    6    6    0    0 -0.10371881941E+03 -0.88194951069E+02 -0.32991175980E+03  0.35690014310E+03  0.00000000000E+00 0.  1.
         14    1    6    6    0    0 -0.33038580352E+02  0.43391850249E+01 -0.26265403014E+02  0.42429326107E+02  0.00000000000E+00 0. -1.
         -5    1    3    3    0  503  0.45735530071E+02 -0.18598779303E+02 -0.24440282322E+03  0.24938420820E+03  0.47000000000E+01 0.  1.
         13    1    4    4    0    0 -0.65574444820E+01  0.30339234925E+02 -0.14112716648E+03  0.14450033347E+03  0.00000000000E+00 0. -1.
        -14    1    4    4    0    0  0.92650845038E+02  0.49109097733E+02 -0.13225154327E+03  0.16877900718E+03  0.00000000000E+00 0.  1.
<mgrwt>
<rscale>  2 0.22405551E+03</rscale>
<asrwt>0</asrwt>
<pdfrwt beam="1">  1       21 0.68879195E-02 0.22535213E+03</pdfrwt>
<pdfrwt beam="2">  1       21 0.17057976E+00 0.22535213E+03</pdfrwt>
<totfact> 0.32215222E+04</totfact>
</mgrwt>
</event>
<event>
12    1  0.1039378E-001  0.1761631E+03  0.7546771E-02  0.1171660E+00
         21   -1    0    0  501  502  0.00000000000E+00  0.00000000000E+00  0.16035576239E+03  0.16035576239E+03  0.00000000000E+00 0.  1.
         21   -1    0    0  502  503 -0.00000000000E+00 -0.00000000000E+00 -0.31737588176E+03  0.31737588176E+03  0.00000000000E+00 0.  1.
         -6    2    1    2    0  503 -0.18146999888E+02 -0.26071519685E+02 -0.22801680703E+03  0.28814079597E+03  0.17327555012E+03 0.  0.
        -24    2    3    3    0    0  0.15723646232E+02 -0.65117932432E+02 -0.80283193918E+02  0.13155486601E+03  0.79835539525E+02 0.  0.
          6    2    1    2  501    0  0.18146999888E+02  0.26071519685E+02  0.70996687662E+02  0.18959084817E+03  0.17290205987E+03 0.  0.
         24    2    5    5    0    0 -0.54087747200E+02  0.75730719197E+01  0.21433894687E+02  0.99932542899E+02  0.80896634500E+02 0.  0.
          5    1    5    5  501    0  0.72234747087E+02  0.18498447765E+02  0.49562792975E+02  0.89658305270E+02  0.47000000000E+01 0. -1.
        -13    1    6    6    0    0 -0.49588110252E+02 -0.41177073592E+01  0.48887414883E+02  0.69756114616E+02  0.00000000000E+00 0.  1.
         14    1    6    6    0    0 -0.44996369473E+01  0.11690779279E+02 -0.27453520196E+02  0.30176428284E+02  0.00000000000E+00 0. -1.
         -5    1    3    3    0  503 -0.33870646120E+02  0.39046412747E+02 -0.14773361312E+03  0.15658592996E+03  0.47000000000E+01 0.  1.
         13    1    4    4    0    0  0.35180796535E+02 -0.15137975405E+02 -0.65576103036E+02  0.75941240664E+02  0.00000000000E+00 0. -1.
        -14    1    4    4    0    0 -0.19457150303E+02 -0.49979957027E+02 -0.14707090882E+02  0.55613625350E+02  0.00000000000E+00 0.  1.
<mgrwt>
<rscale>  2 0.17607124E+03</rscale>
<asrwt>0</asrwt>
<pdfrwt beam="1">  1       21 0.24670118E-01 0.17616315E+03</pdfrwt>
<pdfrwt beam="2">  1       21 0.48827058E-01 0.17616315E+03</pdfrwt>
<totfact> 0.62652592E+04</totfact>
</mgrwt>
</event>
<event>
12    1  0.1039378E-001  0.1858095E+03  0.7546771E-02  0.1163371E+00
         21   -1    0    0  503  502  0.00000000000E+00  0.00000000000E+00  0.27141771721E+03  0.27141771721E+03  0.00000000000E+00 0.  1.
         21   -1    0    0  501  503 -0.00000000000E+00 -0.00000000000E+00 -0.12937464689E+03  0.12937464689E+03  0.00000000000E+00 0.  1.
          6    2    1    2  501    0  0.61465235162E+02 -0.14162209650E+02  0.29690951387E+02  0.18365610094E+03  0.16991017480E+03 0.  0.
         24    2    3    3    0    0  0.28328227630E+02  0.28641345314E+02 -0.36081509437E+02  0.98343076204E+02  0.82138116438E+02 0.  0.
         -6    2    1    2    0  502 -0.61465235162E+02  0.14162209650E+02  0.11235211893E+03  0.21713626316E+03  0.17477589889E+03 0.  0.
        -24    2    5    5    0    0 -0.64667088006E+02  0.68420269936E+02  0.10366342671E+03  0.16189341439E+03  0.81241651730E+02 0.  0.
          5    1    3    3  501    0  0.33137007532E+02 -0.42803554965E+02  0.65772460825E+02  0.85313024731E+02  0.47000000000E+01 0. -1.
        -11    1    4    4    0    0 -0.18173523870E+02  0.39338198911E+02 -0.21966873697E+02  0.48583067045E+02  0.00000000000E+00 0.  1.
         12    1    4    4    0    0  0.46501751501E+02 -0.10696853597E+02 -0.14114635740E+02  0.49760009160E+02  0.00000000000E+00 0. -1.
         -5    1    5    5    0  502  0.32018528442E+01 -0.54258060286E+02  0.86886922223E+01  0.55242848769E+02  0.47000000000E+01 0.  1.
         13    1    6    6    0    0 -0.64654477656E+02  0.43143429474E+02  0.11105902611E+03  0.13555686729E+03  0.00000000000E+00 0. -1.
        -14    1    6    6    0    0 -0.12610350148E-01  0.25276840462E+02 -0.73955994009E+01  0.26336547102E+02  0.00000000000E+00 0.  1.
<mgrwt>
<rscale>  2 0.18465646E+03</rscale>
<asrwt>0</asrwt>
<pdfrwt beam="1">  1       21 0.41756572E-01 0.18580947E+03</pdfrwt>
<pdfrwt beam="2">  1       21 0.19903792E-01 0.18580947E+03</pdfrwt>
<totfact> 0.12889788E+05</totfact>
</mgrwt>
</event>
<event>
12    1  0.1039378E-001  0.1825521E+03  0.7546771E-02  0.1165399E+00
         21   -1    0    0  501  502  0.00000000000E+00  0.00000000000E+00  0.18837141548E+04  0.18837141548E+04  0.00000000000E+00 0. -1.
         21   -1    0    0  502  503 -0.00000000000E+00 -0.00000000000E+00 -0.51689972595E+02  0.51689972595E+02  0.00000000000E+00 0.  1.
         -6    2    1    2    0  503 -0.41913730010E+01 -0.55136702295E+02  0.13083133713E+03  0.22444464474E+03  0.17378416565E+03 0.  0.
        -24    2    3    3    0    0 -0.47738761020E+02 -0.56432150834E+02  0.14082206353E+03  0.17950070405E+03  0.83223027030E+02 0.  0.
          6    2    1    2  501    0  0.41913730010E+01  0.55136702295E+02  0.17011928451E+04  0.17109594826E+04  0.17397595120E+03 0.  0.
         24    2    5    5    0    0 -0.27391074687E+00 -0.37974752211E+02  0.90605459834E+03  0.91036182893E+03  0.79884714269E+02 0.  0.
          5    1    5    5  501    0  0.44652837479E+01  0.93111454506E+02  0.79513824671E+03  0.80059765370E+03  0.47000000000E+01 0. -1.
        -11    1    6    6    0    0  0.12920982318E+02 -0.21008027234E+02  0.73458049069E+02  0.77487895605E+02  0.00000000000E+00 0.  1.
         12    1    6    6    0    0 -0.13194893065E+02 -0.16966724977E+02  0.83259654927E+03  0.83287393333E+03  0.00000000000E+00 0. -1.
         -5    1    3    3    0  503  0.43547388019E+02  0.12954485392E+01 -0.99907264015E+01  0.44943940684E+02  0.47000000000E+01 0.  1.
         13    1    4    4    0    0 -0.67471727244E+02 -0.31558913946E+02  0.71485186859E+02  0.10324016160E+03  0.00000000000E+00 0. -1.
        -14    1    4    4    0    0  0.19732966224E+02 -0.24873236888E+02  0.69336876669E+02  0.76260542455E+02  0.00000000000E+00 0.  1.
<mgrwt>
<rscale>  2 0.18250635E+03</rscale>
<asrwt>0</asrwt>
<pdfrwt beam="1">  1       21 0.28980213E+00 0.18255206E+03</pdfrwt>
<pdfrwt beam="2">  1       21 0.79523049E-02 0.18255206E+03</pdfrwt>
<totfact> 0.47944958E+03</totfact>
</mgrwt>
</event>
<event>
12    1  0.1039378E-001  0.1744717E+03  0.7546771E-02  0.1173593E+00
         21   -1    0    0  503  502  0.00000000000E+00  0.00000000000E+00  0.91642583115E+02  0.91642583115E+02  0.00000000000E+00 0.  1.
         21   -1    0    0  501  503 -0.00000000000E+00 -0.00000000000E+00 -0.38568574502E+03  0.38568574502E+03  0.00000000000E+00 0.  1.
          6    2    1    2  501    0 -0.13056201837E+02  0.13995312937E+02 -0.23843480451E+03  0.29545142807E+03  0.17341873358E+03 0.  0.
         24    2    3    3    0    0 -0.22454972387E+02  0.23938146368E+02 -0.38965452068E+02  0.95458154714E+02  0.80726031800E+02 0.  0.
         -6    2    1    2    0  502  0.13056201837E+02 -0.13995312937E+02 -0.55608357398E+02  0.18187690007E+03  0.17210631649E+03 0.  0.
        -24    2    5    5    0    0 -0.55041838746E+02  0.69813276845E+00 -0.56057053512E+02  0.11205189161E+03  0.79894566539E+02 0.  0.
          5    1    3    3  501    0  0.93987705502E+01 -0.99428334310E+01 -0.19946935244E+03  0.19999327335E+03  0.47000000000E+01 0. -1.
        -13    1    4    4    0    0 -0.42940397640E+01  0.44572755805E+02  0.34527483513E+01  0.44912034119E+02  0.00000000000E+00 0.  1.
         14    1    4    4    0    0 -0.18160932623E+02 -0.20634609437E+02 -0.42418200419E+02  0.50546120595E+02  0.00000000000E+00 0. -1.
         -5    1    5    5    0  502  0.68098040583E+02 -0.14693445706E+02  0.44869611465E+00  0.69825008458E+02  0.47000000000E+01 0.  1.
         11    1    6    6    0    0 -0.99328848712E+01  0.36171833095E+02 -0.10999348609E+02  0.39090272206E+02  0.00000000000E+00 0. -1.
        -12    1    6    6    0    0 -0.45108953875E+02 -0.35473700327E+02 -0.45057704903E+02  0.72961619401E+02  0.00000000000E+00 0.  1.
<mgrwt>
<rscale>  2 0.17414472E+03</rscale>
<asrwt>0</asrwt>
<pdfrwt beam="1">  1       21 0.14098859E-01 0.17447175E+03</pdfrwt>
<pdfrwt beam="2">  1       21 0.59336269E-01 0.17447175E+03</pdfrwt>
<totfact> 0.11728049E+05</totfact>
</mgrwt>
</event>
<event>
12    1  0.1039378E-001  0.2338314E+03  0.7546771E-02  0.1124244E+00
         21   -1    0    0  503  502  0.00000000000E+00  0.00000000000E+00  0.82227916712E+03  0.82227916712E+03  0.00000000000E+00 0. -1.
         21   -1    0    0  501  503 -0.00000000000E+00 -0.00000000000E+00 -0.13050402713E+03  0.13050402713E+03  0.00000000000E+00 0.  1.
          6    2    1    2  501    0  0.20721820168E+01  0.15509925960E+03  0.11679665474E+02  0.23412291076E+03  0.17497727992E+03 0.  0.
         24    2    3    3    0    0  0.23769474813E+02  0.14993622638E+03 -0.41429621095E+02  0.17632917627E+03  0.79559443091E+02 0.  0.
         -6    2    1    2    0  502 -0.20721820168E+01 -0.15509925960E+03  0.68009547451E+03  0.71866028350E+03  0.17286605899E+03 0.  0.
        -24    2    5    5    0    0  0.27532130459E+02 -0.16335871087E+03  0.45610553239E+03  0.49252267489E+03  0.84274800393E+02 0.  0.
          5    1    3    3  501    0 -0.21697292797E+02  0.51630332222E+01  0.53109286569E+02  0.57793734493E+02  0.47000000000E+01 0. -1.
        -11    1    4    4    0    0  0.62963189710E+00  0.11096571162E+03  0.54782419629E+01  0.11110264051E+03  0.00000000000E+00 0.  1.
         12    1    4    4    0    0  0.23139842916E+02  0.38970514754E+02 -0.46907863058E+02  0.65226535758E+02  0.00000000000E+00 0. -1.
         -5    1    5    5    0  502 -0.29604312475E+02  0.82594512670E+01  0.22398994212E+03  0.22613760860E+03  0.47000000000E+01 0.  1.
         13    1    6    6    0    0 -0.17763671102E+02 -0.16139483649E+02  0.12579132738E+03  0.12806048956E+03  0.00000000000E+00 0. -1.
        -14    1    6    6    0    0  0.45295801561E+02 -0.14721922722E+03  0.33031420501E+03  0.36446218533E+03  0.00000000000E+00 0.  1.
<mgrwt>
<rscale>  2 0.23343650E+03</rscale>
<asrwt>0</asrwt>
<pdfrwt beam="1">  1       21 0.12650448E+00 0.23383140E+03</pdfrwt>
<pdfrwt beam="2">  1       21 0.20077543E-01 0.23383140E+03</pdfrwt>
<totfact> 0.10315762E+04</totfact>
</mgrwt>
</event>
<event>
12    1  0.1039378E-001  0.1973485E+03  0.7546771E-02  0.1152087E+00
         21   -1    0    0  501  502  0.00000000000E+00  0.00000000000E+00  0.11897200799E+04  0.11897200799E+04  0.00000000000E+00 0.  1.
         21   -1    0    0  502  503 -0.00000000000E+00 -0.00000000000E+00 -0.32743747778E+02  0.32743747778E+02  0.00000000000E+00 0.  1.
         -6    2    1    2    0  503  0.91935432801E+02  0.14666019239E+02  0.60773779084E+03  0.63884632164E+03  0.17352862682E+03 0.  0.
        -24    2    3    3    0    0  0.23535172310E+02 -0.31861339657E+02  0.47201667173E+03  0.47983153322E+03  0.76612744274E+02 0.  0.
          6    2    1    2  501    0 -0.91935432801E+02 -0.14666019239E+02  0.54923854131E+03  0.58361750607E+03  0.17400920150E+03 0.  0.
         24    2    5    5    0    0 -0.12488954769E+03  0.66108023067E+01  0.34824592937E+03  0.37877904074E+03  0.80976740825E+02 0.  0.
          5    1    5    5  501    0  0.32954114888E+02 -0.21276821546E+02  0.20099261194E+03  0.20483846533E+03  0.47000000000E+01 0. -1.
        -11    1    6    6    0    0 -0.90994901946E+02 -0.32742114967E+02  0.23864724183E+03  0.25749684329E+03  0.00000000000E+00 0.  1.
         12    1    6    6    0    0 -0.33894645743E+02  0.39352917274E+02  0.10959868755E+03  0.12128219746E+03  0.00000000000E+00 0. -1.
         -5    1    3    3    0  503  0.68400260491E+02  0.46527358897E+02  0.13572111912E+03  0.15901478842E+03  0.47000000000E+01 0.  1.
         13    1    4    4    0    0  0.14030672194E+02 -0.48379863974E+02  0.17237846726E+03  0.17958788093E+03  0.00000000000E+00 0. -1.
        -14    1    4    4    0    0  0.95045001164E+01  0.16518524317E+02  0.29963820446E+03  0.30024365229E+03  0.00000000000E+00 0.  1.
<mgrwt>
<rscale>  2 0.19724248E+03</rscale>
<asrwt>0</asrwt>
<pdfrwt beam="1">  1       21 0.18303383E+00 0.19734847E+03</pdfrwt>
<pdfrwt beam="2">  1       21 0.50375006E-02 0.19734847E+03</pdfrwt>
<totfact> 0.45959712E+04</totfact>
</mgrwt>
</event>
<event>
12    1  0.1039378E-001  0.2806567E+03  0.7546771E-02  0.1095366E+00
         21   -1    0    0  503  502  0.00000000000E+00  0.00000000000E+00  0.11349798001E+04  0.11349798001E+04  0.00000000000E+00 0. -1.
         21   -1    0    0  501  503 -0.00000000000E+00 -0.00000000000E+00 -0.18729867261E+03  0.18729867261E+03  0.00000000000E+00 0. -1.
          6    2    1    2  501    0  0.21509343910E+03  0.50428071225E+02 -0.50760994814E+02  0.28521023892E+03  0.17308964118E+03 0.  0.
         24    2    3    3    0    0  0.19560230761E+03  0.27639573623E+02  0.13700978621E+02  0.21395958385E+03  0.81035658396E+02 0.  0.
         -6    2    1    2    0  502 -0.21509343910E+03 -0.50428071225E+02  0.99844212229E+03  0.10370682338E+04  0.17267215183E+03 0.  0.
        -24    2    5    5    0    0 -0.20884687963E+03 -0.20885930117E+01  0.89539795984E+03  0.92298092477E+03  0.80838726187E+02 0.  0.
          5    1    3    3  501    0  0.19491131481E+02  0.22788497602E+02 -0.64461973435E+02  0.71250655074E+02  0.47000000000E+01 0. -1.
        -13    1    4    4    0    0  0.15653986679E+03  0.36047408915E+01 -0.18858746747E+02  0.15771295565E+03  0.00000000000E+00 0.  1.
         14    1    4    4    0    0  0.39062440825E+02  0.24034832732E+02  0.32559725368E+02  0.56246628199E+02  0.00000000000E+00 0. -1.
         -5    1    5    5    0  502 -0.62465594668E+01 -0.48339478213E+02  0.10304416244E+03  0.11408730899E+03  0.47000000000E+01 0.  1.
         11    1    6    6    0    0 -0.21346732995E+02  0.26617148764E+02  0.14913423587E+03  0.15298750252E+03  0.00000000000E+00 0. -1.
        -12    1    6    6    0    0 -0.18750014663E+03 -0.28705741776E+02  0.74626372397E+03  0.76999342225E+03  0.00000000000E+00 0.  1.
<mgrwt>
<rscale>  2 0.28059239E+03</rscale>
<asrwt>0</asrwt>
<pdfrwt beam="1">  1       21 0.17461227E+00 0.28065673E+03</pdfrwt>
<pdfrwt beam="2">  1       21 0.28815181E-01 0.28065673E+03</pdfrwt>
<totfact> 0.21234255E+03</totfact>
</mgrwt>
</event>
<event>
12    1  0.1039378E-001  0.2325940E+03  0.7546771E-02  0.1125090E+00
         21   -1    0    0  503  502  0.00000000000E+00  0.00000000000E+00  0.39804561184E+03  0.39804561184E+03  0.00000000000E+00 0. -1.
         21   -1    0    0  501  503 -0.00000000000E+00 -0.00000000000E+00 -0.18125295762E+03  0.18125295762E+03  0.00000000000E+00 0. -1.
          6    2    1    2  501    0 -0.34959872666E+02  0.15116252811E+03 -0.37607963945E+02  0.23561476019E+03  0.17328489164E+03 0.  0.
         24    2    3    3    0    0 -0.59915939978E+02  0.33165554940E+02  0.78406689029E+01  0.10664282837E+03  0.81371634216E+02 0.  0.
         -6    2    1    2    0  502  0.34959872666E+02 -0.15116252811E+03  0.25440061817E+03  0.34368380927E+03  0.17125006169E+03 0.  0.
        -24    2    5    5    0    0 -0.16905534827E+02 -0.31869618906E+02  0.50792241999E+02  0.10202438047E+03  0.80793889911E+02 0.  0.
          5    1    3    3  501    0  0.24956067312E+02  0.11799697317E+03 -0.45448632848E+02  0.12897193183E+03  0.47000000000E+01 0. -1.
        -11    1    4    4    0    0 -0.42553854559E+02  0.39079179592E+02  0.39546592924E+02  0.70013897387E+02  0.00000000000E+00 0.  1.
         12    1    4    4    0    0 -0.17362085419E+02 -0.59136246520E+01 -0.31705924021E+02  0.36628930979E+02  0.00000000000E+00 0. -1.
         -5    1    5    5    0  502  0.51865407493E+02 -0.11929290920E+03  0.20360837617E+03  0.24165942880E+03  0.47000000000E+01 0.  1.
         11    1    6    6    0    0  0.27130711921E+02 -0.31717114352E+02  0.37275994901E+02  0.55960259720E+02  0.00000000000E+00 0. -1.
        -12    1    6    6    0    0 -0.44036246747E+02 -0.15250455401E+00  0.13516247098E+02  0.46064120754E+02  0.00000000000E+00 0.  1.
<mgrwt>
<rscale>  2 0.23221505E+03</rscale>
<asrwt>0</asrwt>
<pdfrwt beam="1">  1       21 0.61237786E-01 0.23259397E+03</pdfrwt>
<pdfrwt beam="2">  1       21 0.27885070E-01 0.23259397E+03</pdfrwt>
<totfact> 0.29824805E+04</totfact>
</mgrwt>
</event>
<event>
12    1  0.1039378E-001  0.1844575E+03  0.7546771E-02  0.1165562E+00
         21   -1    0    0  503  502  0.00000000000E+00  0.00000000000E+00  0.38567893556E+03  0.38567893556E+03  0.00000000000E+00 0. -1.
         21   -1    0    0  501  503 -0.00000000000E+00 -0.00000000000E+00 -0.15892148511E+03  0.15892148511E+03  0.00000000000E+00 0. -1.
          6    2    1    2  501    0 -0.62274254201E+02 -0.91299539468E+01 -0.71825055028E+02  0.19794798821E+03  0.17338722188E+03 0.  0.
         24    2    3    3    0    0 -0.23757325766E+02  0.12253665322E+02 -0.10979165422E+03  0.13960104654E+03  0.81973666606E+02 0.  0.
         -6    2    1    2    0  502  0.62274254201E+02  0.91299539468E+01  0.29858250548E+03  0.34665243245E+03  0.16448391274E+03 0.  0.
        -24    2    5    5    0    0  0.65512832052E+02  0.58417182899E+02  0.11817335037E+03  0.15954478276E+03  0.61523154569E+02 0.  0.
          5    1    3    3  501    0 -0.38516928435E+02 -0.21383619269E+02  0.37966599189E+02  0.58346941677E+02  0.47000000000E+01 0. -1.
        -11    1    4    4    0    0  0.29757554821E+02 -0.38746184347E+01 -0.32738615597E+02  0.44411053671E+02  0.00000000000E+00 0.  1.
         12    1    4    4    0    0 -0.53514880587E+02  0.16128283757E+02 -0.77053038619E+02  0.95189992865E+02  0.00000000000E+00 0. -1.
         -5    1    5    5    0  502 -0.32385778513E+01 -0.49287228952E+02  0.18040915511E+03  0.18710764969E+03  0.47000000000E+01 0.  1.
         11    1    6    6    0    0  0.15821769020E+02 -0.77743944464E+01  0.47649402773E+02  0.50805857621E+02  0.00000000000E+00 0. -1.
        -12    1    6    6    0    0  0.49691063032E+02  0.66191577345E+02  0.70523947598E+02  0.10873892514E+03  0.00000000000E+00 0.  1.
<mgrwt>
<rscale>  2 0.18233546E+03</rscale>
<asrwt>0</asrwt>
<pdfrwt beam="1">  1       21 0.59335221E-01 0.18445750E+03</pdfrwt>
<pdfrwt beam="2">  1       21 0.24449459E-01 0.18445750E+03</pdfrwt>
<totfact> 0.42111461E+04</totfact>
</mgrwt>
</event>
<event>
12    1  0.1039378E-001  0.1720829E+03  0.7546771E-02  0.1175716E+00
         21   -1    0    0  503  502  0.00000000000E+00  0.00000000000E+00  0.30496025336E+03  0.30496025336E+03  0.00000000000E+00 0.  1.
         21   -1    0    0  501  503 -0.00000000000E+00 -0.00000000000E+00 -0.10606523538E+03  0.10606523538E+03  0.00000000000E+00 0.  1.
          6    2    1    2  501    0 -0.21683198929E+01 -0.58541884498E+00  0.39516305553E+02  0.17647466415E+03  0.17197884857E+03 0.  0.
         24    2    3    3    0    0  0.51878606235E+01 -0.32789158870E+02 -0.36487985048E+02  0.93469023059E+02  0.79391702221E+02 0.  0.
         -6    2    1    2    0  502  0.21683198929E+01  0.58541884498E+00  0.15937871243E+03  0.23455082458E+03  0.17206821616E+03 0.  0.
        -24    2    5    5    0    0 -0.56686988459E+02  0.14336883815E+02  0.52155291922E+02  0.11137614368E+03  0.79154974628E+02 0.  0.
          5    1    3    3  501    0 -0.73561805164E+01  0.32203740025E+02  0.76004290601E+02  0.83005641092E+02  0.47000000000E+01 0. -1.
        -13    1    4    4    0    0  0.29354936791E+02  0.81862084629E+01 -0.34249774099E+02  0.45845101688E+02  0.00000000000E+00 0.  1.
         14    1    4    4    0    0 -0.24167076167E+02 -0.40975367332E+02 -0.22382109493E+01  0.47623921371E+02  0.00000000000E+00 0. -1.
         -5    1    5    5    0  502  0.58855308352E+02 -0.13751464970E+02  0.10722342051E+03  0.12317468090E+03  0.47000000000E+01 0.  1.
         11    1    6    6    0    0  0.14420114349E+02 -0.27782940006E+01  0.32468325736E+02  0.35634965855E+02  0.00000000000E+00 0. -1.
        -12    1    6    6    0    0 -0.71107102807E+02  0.17115177816E+02  0.19686966186E+02  0.75741177829E+02  0.00000000000E+00 0.  1.
<mgrwt>
<rscale>  2 0.17206053E+03</rscale>
<asrwt>0</asrwt>
<pdfrwt beam="1">  1       21 0.46916962E-01 0.17208287E+03</pdfrwt>
<pdfrwt beam="2">  1       21 0.16317729E-01 0.17208287E+03</pdfrwt>
<totfact> 0.14726182E+05</totfact>
</mgrwt>
</event>
<event>
12    1  0.1039378E-001  0.1808445E+03  0.7546771E-02  0.1167002E+00
         21   -1    0    0  501  502  0.00000000000E+00  0.00000000000E+00  0.30756250968E+03  0.30756250968E+03  0.00000000000E+00 0.  1.
         21   -1    0    0  502  503 -0.00000000000E+00 -0.00000000000E+00 -0.15827434150E+03  0.15827434150E+03  0.00000000000E+00 0.  1.
         -6    2    1    2    0  503 -0.42067600577E+02 -0.32921247727E+02 -0.58835689154E+02  0.19011910336E+03  0.17271405147E+03 0.  0.
        -24    2    3    3    0    0 -0.17597291162E+02  0.25475836442E+02  0.21562814527E+02  0.87673874698E+02  0.79139563024E+02 0.  0.
          6    2    1    2  501    0  0.42067600577E+02  0.32921247727E+02  0.20812385734E+03  0.27571774781E+03  0.17277512812E+03 0.  0.
         24    2    5    5    0    0 -0.17663446786E+02  0.38371629583E+02  0.19356652737E+03  0.21381855123E+03  0.80411398591E+02 0.  0.
          5    1    5    5  501    0  0.59731047364E+02 -0.54503818566E+01  0.14557329967E+02  0.61899196581E+02  0.47000000000E+01 0. -1.
        -13    1    6    6    0    0 -0.33804213554E+02  0.49587899373E+02  0.88501554311E+02  0.10693086427E+03  0.00000000000E+00 0.  1.
         14    1    6    6    0    0  0.16140766768E+02 -0.11216269790E+02  0.10506497306E+03  0.10688768696E+03  0.00000000000E+00 0. -1.
         -5    1    3    3    0  503 -0.24470309416E+02 -0.58397084169E+02 -0.80398503681E+02  0.10244522867E+03  0.47000000000E+01 0.  1.
         11    1    4    4    0    0  0.30935091543E+02  0.17670510259E+02  0.61114385775E+01  0.36146597392E+02  0.00000000000E+00 0. -1.
        -12    1    4    4    0    0 -0.48532382704E+02  0.78053261825E+01  0.15451375950E+02  0.51527277306E+02  0.00000000000E+00 0.  1.
<mgrwt>
<rscale>  2 0.18082992E+03</rscale>
<asrwt>0</asrwt>
<pdfrwt beam="1">  1       21 0.47317309E-01 0.18084451E+03</pdfrwt>
<pdfrwt beam="2">  1       21 0.24349899E-01 0.18084451E+03</pdfrwt>
<totfact> 0.68397659E+04</totfact>
</mgrwt>
</event>
<event>
12    1  0.1039378E-001  0.1814069E+03  0.7546771E-02  0.1166664E+00
         21   -1    0    0  501  502  0.00000000000E+00  0.00000000000E+00  0.20459325081E+03  0.20459325081E+03  0.00000000000E+00 0. -1.
         21   -1    0    0  502  503 -0.00000000000E+00 -0.00000000000E+00 -0.16626116424E+04  0.16626116424E+04  0.00000000000E+00 0. -1.
         -6    2    1    2    0  503  0.49008481003E+02 -0.19199464517E+02 -0.16167115399E+04  0.16268573011E+04  0.17360306457E+03 0.  0.
        -24    2    3    3    0    0  0.21056391725E+02  0.43367710976E+01 -0.15326952846E+04  0.15351180246E+04  0.83488531412E+02 0.  0.
          6    2    1    2  501    0 -0.49008481003E+02  0.19199464517E+02  0.15869314832E+03  0.24034759217E+03  0.17266441176E+03 0.  0.
         24    2    5    5    0    0 -0.25135866083E+02  0.56708399521E+02  0.16620277796E+03  0.19501210402E+03  0.80985819581E+02 0.  0.
          5    1    5    5  501    0 -0.23872614921E+02 -0.37508935005E+02 -0.75096296343E+01  0.45335488147E+02  0.47000000000E+01 0. -1.
        -13    1    6    6    0    0 -0.38198034024E+02  0.13103271928E+02  0.27055284151E+02  0.48608373137E+02  0.00000000000E+00 0.  1.
         14    1    6    6    0    0  0.13062167941E+02  0.43605127593E+02  0.13914749381E+03  0.14640373088E+03  0.00000000000E+00 0. -1.
         -5    1    3    3    0  503  0.27952089278E+02 -0.23536235614E+02 -0.84016255357E+02  0.91739276464E+02  0.47000000000E+01 0.  1.
         13    1    4    4    0    0  0.48417448031E+02  0.41673954760E+00 -0.12800156564E+04  0.12809311081E+04  0.00000000000E+00 0. -1.
        -14    1    4    4    0    0 -0.27361056306E+02  0.39200315500E+01 -0.25267962816E+03  0.25418691653E+03  0.00000000000E+00 0.  1.
<mgrwt>
<rscale>  2 0.18118200E+03</rscale>
<asrwt>0</asrwt>
<pdfrwt beam="1">  1       21 0.31475884E-01 0.18140693E+03</pdfrwt>
<pdfrwt beam="2">  1       21 0.25578641E+00 0.18140693E+03</pdfrwt>
<totfact> 0.60576799E+02</totfact>
</mgrwt>
</event>
<event>
12    1  0.1039378E-001  0.2009689E+03  0.7546771E-02  0.1149103E+00
         21   -1    0    0  501  502  0.00000000000E+00  0.00000000000E+00  0.46385103554E+02  0.46385103554E+02  0.00000000000E+00 0.  1.
         21   -1    0    0  502  503 -0.00000000000E+00 -0.00000000000E+00 -0.10724027458E+04  0.10724027458E+04  0.00000000000E+00 0. -1.
         -6    2    1    2    0  503 -0.94794609729E+02  0.33137919440E+02 -0.26909761822E+03  0.33586010618E+03  0.17408142651E+03 0.  0.
        -24    2    3    3    0    0 -0.98225832902E+02 -0.17928840874E+02 -0.25000286045E+03  0.28103048758E+03  0.80665650277E+02 0.  0.
          6    2    1    2  501    0  0.94794609729E+02 -0.33137919440E+02 -0.75692002406E+03  0.78292774320E+03  0.17310051566E+03 0.  0.
         24    2    5    5    0    0  0.12801366659E+03 -0.53011497114E+02 -0.58308196194E+03  0.60476987313E+03  0.81020413750E+02 0.  0.
          5    1    5    5  501    0 -0.33219056865E+02  0.19873577675E+02 -0.17383806212E+03  0.17815787007E+03  0.47000000000E+01 0. -1.
        -11    1    6    6    0    0  0.19609224425E+02  0.87013266814E+01 -0.25118812930E+02  0.33033158062E+02  0.00000000000E+00 0.  1.
         12    1    6    6    0    0  0.10840444217E+03 -0.61712823796E+02 -0.55796314901E+03  0.57173671507E+03  0.00000000000E+00 0. -1.
         -5    1    3    3    0  503  0.34312231733E+01  0.51066760313E+02 -0.19094757773E+02  0.54829618600E+02  0.47000000000E+01 0.  1.
         13    1    4    4    0    0  0.26131057517E+01 -0.18899090102E+02 -0.89239356381E+02  0.91256049967E+02  0.00000000000E+00 0. -1.
        -14    1    4    4    0    0 -0.10083893865E+03  0.97024922802E+00 -0.16076350407E+03  0.18977443761E+03  0.00000000000E+00 0.  1.
<mgrwt>
<rscale>  2 0.20075625E+03</rscale>
<asrwt>0</asrwt>
<pdfrwt beam="1">  1       21 0.71361707E-02 0.20096886E+03</pdfrwt>
<pdfrwt beam="2">  1       21 0.16498502E+00 0.20096886E+03</pdfrwt>
<totfact> 0.33708230E+04</totfact>
</mgrwt>
</event>
<event>
12    1  0.1039378E-001  0.1891174E+03  0.7546771E-02  0.1159663E+00
         21   -1    0    0  501  502  0.00000000000E+00  0.00000000000E+00  0.37458549167E+03  0.37458549167E+03  0.00000000000E+00 0. -1.
         21   -1    0    0  502  503 -0.00000000000E+00 -0.00000000000E+00 -0.99024940952E+02  0.99024940952E+02  0.00000000000E+00 0. -1.
         -6    2    1    2    0  503 -0.68937981186E+02  0.16783725188E+02  0.87043669299E+02  0.20658233128E+03  0.17339411913E+03 0.  0.
        -24    2    3    3    0    0 -0.26551823197E+02  0.71696589531E+02  0.33307357848E+02  0.11870918277E+03  0.84481298062E+02 0.  0.
          6    2    1    2  501    0  0.68937981186E+02 -0.16783725188E+02  0.18851688142E+03  0.26702810134E+03  0.17530331898E+03 0.  0.
         24    2    5    5    0    0 -0.23406284635E+02 -0.27954993991E+02  0.51643531462E+02  0.10147247745E+03  0.79374262123E+02 0.  0.
          5    1    5    5  501    0  0.92344265821E+02  0.11171268802E+02  0.13687334995E+03  0.16555562390E+03  0.47000000000E+01 0. -1.
        -13    1    6    6    0    0  0.25574838534E+01 -0.22979564587E+02 -0.16483833352E+02  0.28395736903E+02  0.00000000000E+00 0.  1.
         14    1    6    6    0    0 -0.25963768488E+02 -0.49754294034E+01  0.68127364814E+02  0.73076740543E+02  0.00000000000E+00 0. -1.
         -5    1    3    3    0  503 -0.42386157988E+02 -0.54912864343E+02  0.53736311451E+02  0.87873148502E+02  0.47000000000E+01 0.  1.
         13    1    4    4    0    0  0.78881362985E+01  0.39584076379E+02 -0.22082863834E+02  0.46008419579E+02  0.00000000000E+00 0. -1.
        -14    1    4    4    0    0 -0.34439959496E+02  0.32112513152E+02  0.55390221682E+02  0.72700763194E+02  0.00000000000E+00 0.  1.
<mgrwt>
<rscale>  2 0.18867375E+03</rscale>
<asrwt>0</asrwt>
<pdfrwt beam="1">  1       21 0.57628536E-01 0.18911740E+03</pdfrwt>
<pdfrwt beam="2">  1       21 0.15234607E-01 0.18911740E+03</pdfrwt>
<totfact> 0.10786457E+05</totfact>
</mgrwt>
</event>
<event>
12    1  0.1039378E-001  0.1784431E+03  0.7546771E-02  0.1169681E+00
         21   -1    0    0  501  502  0.00000000000E+00  0.00000000000E+00  0.21272059904E+04  0.21272059904E+04  0.00000000000E+00 0. -1.
         21   -1    0    0  502  503 -0.00000000000E+00 -0.00000000000E+00 -0.23114744043E+02  0.23114744043E+02  0.00000000000E+00 0. -1.
         -6    2    1    2    0  503  0.37533195966E+02  0.26186420913E+02  0.41177297142E+03  0.44877491421E+03  0.17247456102E+03 0.  0.
        -24    2    3    3    0    0 -0.89428783506E+01 -0.40813604070E+02  0.16320812853E+03  0.18713470333E+03  0.81466426347E+02 0.  0.
          6    2    1    2  501    0 -0.37533195966E+02 -0.26186420913E+02  0.16923182750E+04  0.17015458203E+04  0.17094608859E+03 0.  0.
         24    2    5    5    0    0 -0.59356853831E+02  0.17506270472E+02  0.63210767944E+03  0.64020048523E+03  0.80416647991E+02 0.  0.
          5    1    5    5  501    0  0.21823657865E+02 -0.43692691385E+02  0.10602105955E+04  0.10613453350E+04  0.47000000000E+01 0. -1.
        -11    1    6    6    0    0  0.65239817469E+01  0.32795960890E+02  0.18318929961E+03  0.18621615633E+03  0.00000000000E+00 0.  1.
         12    1    6    6    0    0 -0.65880835578E+02 -0.15289690418E+02  0.44891837983E+03  0.45398432890E+03  0.00000000000E+00 0. -1.
         -5    1    3    3    0  503  0.46476074316E+02  0.67000024983E+02  0.24856484289E+03  0.26164021089E+03  0.47000000000E+01 0.  1.
         13    1    4    4    0    0 -0.37980912256E+02 -0.13938949762E+02  0.36841379428E+02  0.54718655451E+02  0.00000000000E+00 0. -1.
        -14    1    4    4    0    0  0.29038033905E+02 -0.26874654308E+02  0.12636674910E+03  0.13241604788E+03  0.00000000000E+00 0.  1.
<mgrwt>
<rscale>  2 0.17807273E+03</rscale>
<asrwt>0</asrwt>
<pdfrwt beam="1">  1       21 0.32726231E+00 0.17844311E+03</pdfrwt>
<pdfrwt beam="2">  1       21 0.35561161E-02 0.17844311E+03</pdfrwt>
<totfact> 0.11521419E+04</totfact>
</mgrwt>
</event>
<event>
12    1  0.1039378E-001  0.2033490E+03  0.7546771E-02  0.1147909E+00
         21   -1    0    0  503  502  0.00000000000E+00  0.00000000000E+00  0.90630038230E+03  0.90630038230E+03  0.00000000000E+00 0.  1.
         21   -1    0    0  501  503 -0.00000000000E+00 -0.00000000000E+00 -0.98874231972E+02  0.98874231972E+02  0.00000000000E+00 0.  1.
          6    2    1    2  501    0  0.50701744291E+02 -0.91703671093E+02  0.29254868612E+02  0.20087282279E+03  0.16886033706E+03 0.  0.
         24    2    3    3    0    0  0.36545611900E+02 -0.10464618609E+03 -0.28911787664E+02  0.13944518502E+03  0.79515169292E+02 0.  0.
         -6    2    1    2    0  502 -0.50701744291E+02  0.91703671093E+02  0.77817128171E+03  0.80430179148E+03  0.17427162113E+03 0.  0.
        -24    2    5    5    0    0  0.38219496227E+02  0.57381401697E+02  0.35332965205E+03  0.36887383477E+03  0.80453140447E+02 0.  0.
          5    1    3    3  501    0  0.14156132391E+02  0.12942515000E+02  0.58166656276E+02  0.61427637762E+02  0.47000000000E+01 0. -1.
        -13    1    4    4    0    0  0.15451109860E+02  0.41033977901E+01 -0.23646555109E+02  0.28543549847E+02  0.00000000000E+00 0.  1.
         14    1    4    4    0    0  0.21094502040E+02 -0.10874958388E+03 -0.52652325547E+01  0.11090163518E+03  0.00000000000E+00 0. -1.
         -5    1    5    5    0  502 -0.88921240518E+02  0.34322269396E+02  0.42484162966E+03  0.43542795671E+03  0.47000000000E+01 0.  1.
         11    1    6    6    0    0  0.19244994350E+02 -0.18402677100E+02  0.67563221748E+02  0.72621052491E+02  0.00000000000E+00 0. -1.
        -12    1    6    6    0    0  0.18974501877E+02  0.75784078796E+02  0.28576643030E+03  0.29625278228E+03  0.00000000000E+00 0.  1.
<mgrwt>
<rscale>  2 0.20218458E+03</rscale>
<asrwt>0</asrwt>
<pdfrwt beam="1">  1       21 0.13943082E+00 0.20334903E+03</pdfrwt>
<pdfrwt beam="2">  1       21 0.15211421E-01 0.20334903E+03</pdfrwt>
<totfact> 0.13724687E+04</totfact>
</mgrwt>
</event>
<event>
12    1  0.1039378E-001  0.1799820E+03  0.7546771E-02  0.1169612E+00
         21   -1    0    0  503  502  0.00000000000E+00  0.00000000000E+00  0.11920551804E+02  0.11920551804E+02  0.00000000000E+00 0.  1.
         21   -1    0    0  501  503 -0.00000000000E+00 -0.00000000000E+00 -0.28997801142E+04  0.28997801142E+04  0.00000000000E+00 0.  1.
          6    2    1    2  501    0  0.50921120669E+02 -0.25340472505E+02 -0.19314000357E+04  0.19397679333E+04  0.17075841794E+03 0.  0.
         24    2    3    3    0    0 -0.16423230473E+02 -0.61141788622E+02 -0.12600069082E+04  0.12640403125E+04  0.78565019082E+02 0.  0.
         -6    2    1    2    0  502 -0.50921120669E+02  0.25340472505E+02 -0.95645952671E+03  0.97193273266E+03  0.16310521300E+03 0.  0.
        -24    2    5    5    0    0 -0.42829329506E+02  0.74642228018E+02 -0.58953990695E+03  0.60159742845E+03  0.83404738243E+02 0.  0.
          5    1    3    3  501    0  0.67344351141E+02  0.35801316117E+02 -0.67139312747E+03  0.67572762077E+03  0.47000000000E+01 0. -1.
        -11    1    4    4    0    0 -0.18483608945E+02  0.10254365168E+02 -0.56001194566E+03  0.56041072000E+03  0.00000000000E+00 0.  1.
         12    1    4    4    0    0  0.20603784729E+01 -0.71396153790E+02 -0.69999496253E+03  0.70362959254E+03  0.00000000000E+00 0. -1.
         -5    1    5    5    0  502 -0.80917911628E+01 -0.49301755513E+02 -0.36691961976E+03  0.37033530421E+03  0.47000000000E+01 0.  1.
         11    1    6    6    0    0  0.12152338660E+02  0.16840401568E+01 -0.24009509343E+03  0.24040833849E+03  0.00000000000E+00 0. -1.
        -12    1    6    6    0    0 -0.54981668166E+02  0.72958187861E+02 -0.34944481352E+03  0.36118908996E+03  0.00000000000E+00 0.  1.
<mgrwt>
<rscale>  2 0.17814304E+03</rscale>
<asrwt>0</asrwt>
<pdfrwt beam="1">  1       21 0.18339309E-02 0.17998205E+03</pdfrwt>
<pdfrwt beam="2">  1       21 0.44612005E+00 0.17998205E+03</pdfrwt>
<totfact> 0.63712120E+03</totfact>
</mgrwt>
</event>
<event>
12    1  0.1039378E-001  0.1880089E+03  0.7546771E-02  0.1160553E+00
         21   -1    0    0  501  502  0.00000000000E+00  0.00000000000E+00  0.38087009329E+02  0.38087009329E+02  0.00000000000E+00 0. -1.
         21   -1    0    0  502  503 -0.00000000000E+00 -0.00000000000E+00 -0.97320280611E+03  0.97320280611E+03  0.00000000000E+00 0.  1.
         -6    2    1    2    0  503  0.25380422001E+02 -0.69776308985E+02 -0.58503778725E+03  0.61450512349E+03  0.17272647500E+03 0.  0.
        -24    2    3    3    0    0  0.52401985406E+02 -0.25946369299E+02 -0.52955974391E+03  0.53866890658E+03  0.79444863875E+02 0.  0.
          6    2    1    2  501    0 -0.25380422001E+02  0.69776308985E+02 -0.35007800953E+03  0.39678469195E+03  0.17137846975E+03 0.  0.
         24    2    5    5    0    0  0.19880195056E+02  0.69368050382E+02 -0.11619128949E+03  0.15851220520E+03  0.80115884034E+02 0.  0.
          5    1    5    5  501    0 -0.45260617057E+02  0.40825860297E+00 -0.23388672004E+03  0.23827248675E+03  0.47000000000E+01 0. -1.
        -11    1    6    6    0    0  0.19776406312E+02  0.12694579791E+02 -0.95229553582E+02  0.98086321565E+02  0.00000000000E+00 0.  1.
         12    1    6    6    0    0  0.10378874421E+00  0.56673470591E+02 -0.20961735912E+02  0.60425883638E+02  0.00000000000E+00 0. -1.
         -5    1    3    3    0  503 -0.27021563405E+02 -0.43829939686E+02 -0.55478043342E+02  0.75836216907E+02  0.47000000000E+01 0.  1.
         13    1    4    4    0    0  0.70655575589E+02 -0.13829107500E+02 -0.32171315441E+03  0.32967075742E+03  0.00000000000E+00 0. -1.
        -14    1    4    4    0    0 -0.18253590183E+02 -0.12117261799E+02 -0.20784658950E+03  0.20899814916E+03  0.00000000000E+00 0.  1.
<mgrwt>
<rscale>  2 0.18769868E+03</rscale>
<asrwt>0</asrwt>
<pdfrwt beam="1">  1       21 0.58595404E-02 0.18800887E+03</pdfrwt>
<pdfrwt beam="2">  1       21 0.14972350E+00 0.18800887E+03</pdfrwt>
<totfact> 0.61825271E+04</totfact>
</mgrwt>
</event>
<event>
12    1  0.1039378E-001  0.2007780E+03  0.7546771E-02  0.1150003E+00
         21   -1    0    0  501  502  0.00000000000E+00  0.00000000000E+00  0.17684736853E+03  0.17684736853E+03  0.00000000000E+00 0. -1.
         21   -1    0    0  502  503 -0.00000000000E+00 -0.00000000000E+00 -0.22306889483E+03  0.22306889483E+03  0.00000000000E+00 0.  1.
         -6    2    1    2    0  503  0.98600090372E+02 -0.13028867999E+02 -0.24038095913E+02  0.19791646020E+03  0.16941477486E+03 0.  0.
        -24    2    3    3    0    0  0.71329342919E+01 -0.39753320557E+02 -0.43441737742E+02  0.10055615863E+03  0.81198221739E+02 0.  0.
          6    2    1    2  501    0 -0.98600090372E+02  0.13028867999E+02 -0.22183430393E+02  0.20199980315E+03  0.17441355070E+03 0.  0.
         24    2    5    5    0    0 -0.28984436897E+02  0.54792878127E+02  0.29079081375E+02  0.10587224798E+03  0.80752602704E+02 0.  0.
          5    1    5    5  501    0 -0.69615653476E+02 -0.41764010128E+02 -0.51262511768E+02  0.96127555173E+02  0.47000000000E+01 0. -1.
        -13    1    6    6    0    0 -0.44633424593E+02  0.16807902415E+00  0.84841616732E+01  0.45432937840E+02  0.00000000000E+00 0.  1.
         14    1    6    6    0    0  0.15648987696E+02  0.54624799103E+02  0.20594919702E+02  0.60439310142E+02  0.00000000000E+00 0. -1.
         -5    1    3    3    0  503  0.91467156080E+02  0.26724452558E+02  0.19403641829E+02  0.97360301572E+02  0.47000000000E+01 0.  1.
         11    1    4    4    0    0  0.26933383627E+02 -0.45211686215E+02 -0.13556414712E+00  0.52626249169E+02  0.00000000000E+00 0. -1.
        -12    1    4    4    0    0 -0.19800449335E+02  0.54583656582E+01 -0.43306173595E+02  0.47929909461E+02  0.00000000000E+00 0.  1.
<mgrwt>
<rscale>  2 0.19968748E+03</rscale>
<asrwt>0</asrwt>
<pdfrwt beam="1">  1       21 0.27207287E-01 0.20077803E+03</pdfrwt>
<pdfrwt beam="2">  1       21 0.34318292E-01 0.20077803E+03</pdfrwt>
<totfact> 0.10503464E+05</totfact>
</mgrwt>
</event>
<event>
12    1  0.1039378E-001  0.2085696E+03  0.7546771E-02  0.1142782E+00
         21   -1    0    0  501  502  0.00000000000E+00  0.00000000000E+00  0.17371395786E+04  0.17371395786E+04  0.00000000000E+00 0.  1.
         21   -1    0    0  502  503 -0.00000000000E+00 -0.00000000000E+00 -0.16270594170E+03  0.16270594170E+03  0.00000000000E+00 0.  1.
         -6    2    1    2    0  503 -0.16952796749E+02 -0.11577578413E+03 -0.86588016354E+02  0.22582909675E+03  0.17265534123E+03 0.  0.
        -24    2    3    3    0    0 -0.55226589329E+02 -0.11682799851E+03 -0.95239748586E+02  0.18629515154E+03  0.94533149588E+02 0.  0.
          6    2    1    2  501    0  0.16952796749E+02  0.11577578413E+03  0.16610216533E+04  0.16740164236E+04  0.17218195101E+03 0.  0.
         24    2    5    5    0    0  0.23282792471E+02  0.80098906733E+02  0.52759872529E+03  0.54000472517E+03  0.79289122844E+02 0.  0.
          5    1    5    5  501    0 -0.63299957221E+01  0.35676877396E+02  0.11334229280E+04  0.11340116984E+04  0.47000000000E+01 0. -1.
        -11    1    6    6    0    0  0.15445591356E+02  0.39134811450E+02  0.44952244205E+03  0.45148701605E+03  0.00000000000E+00 0.  1.
         12    1    6    6    0    0  0.78372011158E+01  0.40964095283E+02  0.78076283237E+02  0.88517709120E+02  0.00000000000E+00 0. -1.
         -5    1    3    3    0  503  0.38273792579E+02  0.10522143782E+01  0.86517322325E+01  0.39533945213E+02  0.47000000000E+01 0.  1.
         11    1    4    4    0    0  0.22072533471E+02 -0.34625324232E+02 -0.41362902480E+01  0.41270070378E+02  0.00000000000E+00 0. -1.
        -12    1    4    4    0    0 -0.77299122800E+02 -0.82202674275E+02 -0.91103458338E+02  0.14502508116E+03  0.00000000000E+00 0.  1.
<mgrwt>
<rscale>  2 0.20847165E+03</rscale>
<asrwt>0</asrwt>
<pdfrwt beam="1">  1       21 0.26725223E+00 0.20856964E+03</pdfrwt>
<pdfrwt beam="2">  1       21 0.25031685E-01 0.20856964E+03</pdfrwt>
<totfact> 0.78094685E+02</totfact>
</mgrwt>
</event>
<event>
12    1  0.1039378E-001  0.1988316E+03  0.7546771E-02  0.1150916E+00
         21   -1    0    0  503  502  0.00000000000E+00  0.00000000000E+00  0.84242246181E+03  0.84242246181E+03  0.00000000000E+00 0. -1.
         21   -1    0    0  501  503 -0.00000000000E+00 -0.00000000000E+00 -0.27261319136E+03  0.27261319136E+03  0.00000000000E+00 0. -1.
          6    2    1    2  501    0 -0.16321092895E+02 -0.92700494024E+02 -0.22248603798E+03  0.29838575490E+03  0.17514069192E+03 0.  0.
         24    2    3    3    0    0  0.20641269188E+02  0.31924582943E+01 -0.43449694193E+02  0.91896585910E+02  0.78235879191E+02 0.  0.
         -6    2    1    2    0  502  0.16321092895E+02  0.92700494024E+02  0.79229530843E+03  0.81664989827E+03  0.17414201366E+03 0.  0.
        -24    2    5    5    0    0 -0.21657965212E+02  0.12241392621E+03  0.60651833889E+03  0.62465909298E+03  0.82947273844E+02 0.  0.
          5    1    3    3  501    0 -0.36962362083E+02 -0.95892952318E+02 -0.17903634379E+03  0.20648916899E+03  0.47000000000E+01 0. -1.
        -11    1    4    4    0    0 -0.12246048658E+02 -0.30604711728E+02 -0.11401875496E+02  0.34880035157E+02  0.00000000000E+00 0.  1.
         12    1    4    4    0    0  0.32887317845E+02  0.33797170022E+02 -0.32047818696E+02  0.57016550753E+02  0.00000000000E+00 0. -1.
         -5    1    5    5    0  502  0.37979058107E+02 -0.29713432189E+02  0.18577696954E+03  0.19199080529E+03  0.47000000000E+01 0.  1.
         13    1    6    6    0    0  0.24363667215E+02  0.71497160923E+02  0.23457054568E+03  0.24643208639E+03  0.00000000000E+00 0. -1.
        -14    1    6    6    0    0 -0.46021632427E+02  0.50916765289E+02  0.37194779321E+03  0.37822700659E+03  0.00000000000E+00 0.  1.
<mgrwt>
<rscale>  2 0.19861150E+03</rscale>
<asrwt>0</asrwt>
<pdfrwt beam="1">  1       21 0.12960345E+00 0.19883164E+03</pdfrwt>
<pdfrwt beam="2">  1       21 0.41940491E-01 0.19883164E+03</pdfrwt>
<totfact> 0.23702110E+03</totfact>
</mgrwt>
</event>
<event>
12    1  0.1039378E-001  0.1773633E+03  0.7546771E-02  0.1170750E+00
         21   -1    0    0  503  502  0.00000000000E+00  0.00000000000E+00  0.22367903686E+02  0.22367903686E+02  0.00000000000E+00 0. -1.
         21   -1    0    0  501  503 -0.00000000000E+00 -0.00000000000E+00 -0.14453441948E+04  0.14453441948E+04  0.00000000000E+00 0. -1.
          6    2    1    2  501    0 -0.18108416384E+02  0.35690886100E+02 -0.57098606282E+03  0.59745634500E+03  0.17125199606E+03 0.  0.
         24    2    3    3    0    0  0.22451352048E+02 -0.13510714594E+02 -0.15001825887E+03  0.17166076695E+03  0.79217032876E+02 0.  0.
         -6    2    1    2    0  502  0.18108416384E+02 -0.35690886100E+02 -0.85199022829E+03  0.87025575348E+03  0.17278881118E+03 0.  0.
        -24    2    5    5    0    0 -0.27123990049E+01  0.45583993141E+02 -0.42355569061E+03  0.43365827820E+03  0.81085273996E+02 0.  0.
          5    1    3    3  501    0 -0.40559768432E+02  0.49201600694E+02 -0.42096780395E+03  0.42579557805E+03  0.47000000000E+01 0. -1.
        -13    1    4    4    0    0 -0.16077755570E+02 -0.34513383313E+02 -0.53815184378E+02  0.65922241478E+02  0.00000000000E+00 0.  1.
         14    1    4    4    0    0  0.38529107618E+02  0.21002668719E+02 -0.96203074489E+02  0.10573852547E+03  0.00000000000E+00 0. -1.
         -5    1    5    5    0  502  0.20820815389E+02 -0.81274879241E+02 -0.42843453768E+03  0.43659747528E+03  0.47000000000E+01 0.  1.
         13    1    6    6    0    0  0.16937217037E+00 -0.19640891837E+02 -0.39737035063E+02  0.44326349666E+02  0.00000000000E+00 0. -1.
        -14    1    6    6    0    0 -0.28817711753E+01  0.65224884979E+02 -0.38381865555E+03  0.38933192853E+03  0.00000000000E+00 0.  1.
<mgrwt>
<rscale>  2 0.17698786E+03</rscale>
<asrwt>0</asrwt>
<pdfrwt beam="1">  1       21 0.34412156E-02 0.17736326E+03</pdfrwt>
<pdfrwt beam="2">  1       21 0.22236067E+00 0.17736326E+03</pdfrwt>
<totfact> 0.49567982E+04</totfact>
</mgrwt>
</event>
<event>
12    1  0.1039378E-001  0.2250177E+03  0.7546771E-02  0.1130252E+00
         21   -1    0    0  501  502  0.00000000000E+00  0.00000000000E+00  0.91916423097E+02  0.91916423097E+02  0.00000000000E+00 0.  1.
         21   -1    0    0  502  503 -0.00000000000E+00 -0.00000000000E+00 -0.59912250997E+03  0.59912250997E+03  0.00000000000E+00 0.  1.
         -6    2    1    2    0  503 -0.14457011324E+03  0.51549998795E+01 -0.35226670861E+03  0.41783722175E+03  0.17195644278E+03 0.  0.
        -24    2    3    3    0    0 -0.12930526955E+03 -0.36893148819E+02 -0.17671394971E+03  0.23661381426E+03  0.81714869603E+02 0.  0.
          6    2    1    2  501    0  0.14457011324E+03 -0.51549998795E+01 -0.15493937826E+03  0.27320171132E+03  0.17235391630E+03 0.  0.
         24    2    5    5    0    0  0.13781331213E+03 -0.51413374703E+02 -0.15189951077E+03  0.22611856787E+03  0.80126782440E+02 0.  0.
          5    1    5    5  501    0  0.67568011150E+01  0.46258374824E+02 -0.30398674837E+01  0.47083143448E+02  0.47000000000E+01 0. -1.
        -11    1    6    6    0    0  0.10437764364E+03 -0.10185717501E+02 -0.13387182020E+03  0.17005912377E+03  0.00000000000E+00 0.  1.
         12    1    6    6    0    0  0.33435668484E+02 -0.41227657202E+02 -0.18027690573E+02  0.56059444100E+02  0.00000000000E+00 0. -1.
         -5    1    3    3    0  503 -0.15264843691E+02  0.42048148699E+02 -0.17555275890E+03  0.18122340749E+03  0.47000000000E+01 0.  1.
         13    1    4    4    0    0 -0.39363387586E+02  0.83922853732E+00 -0.57581673767E+01  0.39791168346E+02  0.00000000000E+00 0. -1.
        -14    1    4    4    0    0 -0.89941881965E+02 -0.37732377357E+02 -0.17095578233E+03  0.19682264592E+03  0.00000000000E+00 0.  1.
<mgrwt>
<rscale>  2 0.22494158E+03</rscale>
<asrwt>0</asrwt>
<pdfrwt beam="1">  1       21 0.14140989E-01 0.22501770E+03</pdfrwt>
<pdfrwt beam="2">  1       21 0.92172691E-01 0.22501770E+03</pdfrwt>
<totfact> 0.42698684E+04</totfact>
</mgrwt>
</event>
<event>
12    1  0.1039378E-001  0.2005007E+03  0.7546771E-02  0.1151739E+00
         21   -1    0    0  501  502  0.00000000000E+00  0.00000000000E+00  0.14978326855E+03  0.14978326855E+03  0.00000000000E+00 0.  1.
         21   -1    0    0  502  503 -0.00000000000E+00 -0.00000000000E+00 -0.25462346300E+03  0.25462346300E+03  0.00000000000E+00 0. -1.
         -6    2    1    2    0  503  0.44390677998E+02  0.90207273484E+02 -0.38405004957E+02  0.19318604725E+03  0.16043073260E+03 0.  0.
        -24    2    3    3    0    0  0.70167365969E+02  0.98645800773E+02 -0.61892999770E+02  0.15700010680E+03  0.78510106724E+02 0.  0.
          6    2    1    2  501    0 -0.44390677998E+02 -0.90207273484E+02 -0.66435189494E+02  0.21122068430E+03  0.17347235685E+03 0.  0.
         24    2    5    5    0    0 -0.46886128982E+02  0.13798302239E+02 -0.19123502950E+02  0.96835926838E+02  0.81380502123E+02 0.  0.
          5    1    5    5  501    0  0.24954509840E+01 -0.10400557572E+03 -0.47311686544E+02  0.11438475747E+03  0.47000000000E+01 0. -1.
        -11    1    6    6    0    0 -0.41206864311E+02 -0.20588005727E+02  0.14616924649E+02  0.48327281450E+02  0.00000000000E+00 0.  1.
         12    1    6    6    0    0 -0.56792646712E+01  0.34386307966E+02 -0.33740427599E+02  0.48508645388E+02  0.00000000000E+00 0. -1.
         -5    1    3    3    0  503 -0.25776687970E+02 -0.84385272896E+01  0.23487994813E+02  0.36185940445E+02  0.47000000000E+01 0.  1.
         11    1    4    4    0    0  0.25418431759E+02  0.10409987812E+02 -0.50401984607E+02  0.57400562468E+02  0.00000000000E+00 0. -1.
        -12    1    4    4    0    0  0.44748934209E+02  0.88235812961E+02 -0.11491015163E+02  0.99599544333E+02  0.00000000000E+00 0.  1.
<mgrwt>
<rscale>  2 0.19764777E+03</rscale>
<asrwt>0</asrwt>
<pdfrwt beam="1">  1       21 0.23043580E-01 0.20050073E+03</pdfrwt>
<pdfrwt beam="2">  1       21 0.39172840E-01 0.20050073E+03</pdfrwt>
<totfact> 0.11077225E+05</totfact>
</mgrwt>
</event>
<event>
12    1  0.1039378E-001  0.1865605E+03  0.7546771E-02  0.1161679E+00
         21   -1    0    0  501  502  0.00000000000E+00  0.00000000000E+00  0.21113418847E+04  0.21113418847E+04  0.00000000000E+00 0. -1.
         21   -1    0    0  502  503 -0.00000000000E+00 -0.00000000000E+00 -0.18197287668E+02  0.18197287668E+02  0.00000000000E+00 0. -1.
         -6    2    1    2    0  503 -0.63506681594E+02  0.28168413712E+02  0.13769056585E+04  0.13894869538E+04  0.17314226610E+03 0.  0.
        -24    2    3    3    0    0 -0.42161081262E+02  0.82931999784E+02  0.76018707743E+03  0.76995601574E+03  0.79325910767E+02 0.  0.
          6    2    1    2  501    0  0.63506681594E+02 -0.28168413712E+02  0.71623893856E+03  0.74005221857E+03  0.17277879199E+03 0.  0.
         24    2    5    5    0    0  0.21553645464E+02  0.42308099947E+02  0.35415637737E+03  0.36876679287E+03  0.91146436783E+02 0.  0.
          5    1    5    5  501    0  0.41953036130E+02 -0.70476513659E+02  0.36208256119E+03  0.37128542570E+03  0.47000000000E+01 0. -1.
        -11    1    6    6    0    0 -0.69422169074E+01 -0.19419292678E+02  0.18960745155E+03  0.19072569042E+03  0.00000000000E+00 0.  1.
         12    1    6    6    0    0  0.28495862372E+02  0.61727392625E+02  0.16454892582E+03  0.17804110245E+03  0.00000000000E+00 0. -1.
         -5    1    3    3    0  503 -0.21345600333E+02 -0.54763586072E+02  0.61671858105E+03  0.61953093807E+03  0.47000000000E+01 0.  1.
         11    1    4    4    0    0 -0.11177954391E+02  0.56440372395E+02  0.19527456114E+03  0.20357459696E+03  0.00000000000E+00 0. -1.
        -12    1    4    4    0    0 -0.30983126871E+02  0.26491627389E+02  0.56491251630E+03  0.56638141878E+03  0.00000000000E+00 0.  1.
<mgrwt>
<rscale>  2 0.18647607E+03</rscale>
<asrwt>0</asrwt>
<pdfrwt beam="1">  1       21 0.32482163E+00 0.18656045E+03</pdfrwt>
<pdfrwt beam="2">  1       21 0.27995844E-02 0.18656045E+03</pdfrwt>
<totfact> 0.17524929E+04</totfact>
</mgrwt>
</event>
<event>
12    1  0.1039378E-001  0.2768142E+03  0.7546771E-02  0.1097729E+00
         21   -1    0    0  503  502  0.00000000000E+00  0.00000000000E+00  0.23623128018E+03  0.23623128018E+03  0.00000000000E+00 0. -1.
         21   -1    0    0  501  503 -0.00000000000E+00 -0.00000000000E+00 -0.98083429135E+03  0.98083429135E+03  0.00000000000E+00 0.  1.
          6    2    1    2  501    0  0.21631498318E+03  0.10316231995E+02 -0.87060069941E+03  0.91292492727E+03  0.16907911883E+03 0.  0.
         24    2    3    3    0    0  0.19139116293E+03 -0.43836914820E+02 -0.59219597138E+03  0.62817057223E+03  0.73143331500E+02 0.  0.
         -6    2    1    2    0  502 -0.21631498318E+03 -0.10316231995E+02  0.12599768824E+03  0.30414064427E+03  0.17241669717E+03 0.  0.
        -24    2    5    5    0    0 -0.94138751845E+02 -0.59795625390E+02  0.29440686170E+02  0.14067631628E+03  0.80532295051E+02 0.  0.
          5    1    3    3  501    0  0.24923820244E+02  0.54153146816E+02 -0.27840472803E+03  0.28475435504E+03  0.47000000000E+01 0. -1.
        -13    1    4    4    0    0  0.15436505475E+03 -0.92547916891E+01 -0.38561001110E+03  0.41546275641E+03  0.00000000000E+00 0.  1.
         14    1    4    4    0    0  0.37026108179E+02 -0.34582123131E+02 -0.20658596028E+03  0.21270781582E+03  0.00000000000E+00 0. -1.
         -5    1    5    5    0  502 -0.12217623133E+03  0.49479393395E+02  0.96557002073E+02  0.16346432798E+03  0.47000000000E+01 0.  1.
         13    1    6    6    0    0 -0.21453695226E+02  0.63048849406E+01  0.35815871540E+02  0.42223089265E+02  0.00000000000E+00 0. -1.
        -14    1    6    6    0    0 -0.72685056619E+02 -0.66100510331E+02 -0.63751853702E+01  0.98453227018E+02  0.00000000000E+00 0.  1.
<mgrwt>
<rscale>  2 0.27629616E+03</rscale>
<asrwt>0</asrwt>
<pdfrwt beam="1">  1       21 0.36343274E-01 0.27681422E+03</pdfrwt>
<pdfrwt beam="2">  1       21 0.15089758E+00 0.27681422E+03</pdfrwt>
<totfact> 0.20068352E+03</totfact>
</mgrwt>
</event>
<event>
12    1  0.1039378E-001  0.1948167E+03  0.7546771E-02  0.1154335E+00
         21   -1    0    0  503  502  0.00000000000E+00  0.00000000000E+00  0.16473263782E+03  0.16473263782E+03  0.00000000000E+00 0.  1.
         21   -1    0    0  501  503 -0.00000000000E+00 -0.00000000000E+00 -0.23249797634E+03  0.23249797634E+03  0.00000000000E+00 0. -1.
          6    2    1    2  501    0  0.54040532795E+02 -0.69489693735E+02 -0.11633977457E+02  0.19448872258E+03  0.17303559477E+03 0.  0.
         24    2    3    3    0    0  0.33073594039E+01 -0.16685514442E+02 -0.64028897477E+02  0.10432523841E+03  0.80589767584E+02 0.  0.
         -6    2    1    2    0  502 -0.54040532795E+02  0.69489693735E+02 -0.56131361063E+02  0.20274189159E+03  0.17379398203E+03 0.  0.
        -24    2    5    5    0    0 -0.38015723259E+02  0.94074014131E+02 -0.90052137628E+02  0.15764319523E+03  0.80292429047E+02 0.  0.
          5    1    3    3  501    0  0.50733173391E+02 -0.52804179293E+02  0.52394920020E+02  0.90163484166E+02  0.47000000000E+01 0. -1.
        -13    1    4    4    0    0 -0.19336746264E+02  0.19273716470E+02  0.21026692567E+00  0.27302566085E+02  0.00000000000E+00 0.  1.
         14    1    4    4    0    0  0.22644105668E+02 -0.35959230912E+02 -0.64239164403E+02  0.77022672327E+02  0.00000000000E+00 0. -1.
         -5    1    5    5    0  502 -0.16024809536E+02 -0.24584320396E+02  0.33920776565E+02  0.45098696354E+02  0.47000000000E+01 0.  1.
         13    1    6    6    0    0 -0.33735408373E+01  0.92119593143E+02 -0.50793620504E+02  0.10524919051E+03  0.00000000000E+00 0. -1.
        -14    1    6    6    0    0 -0.34642182421E+02  0.19544209879E+01 -0.39258517125E+02  0.52394004725E+02  0.00000000000E+00 0.  1.
<mgrwt>
<rscale>  2 0.19464741E+03</rscale>
<asrwt>0</asrwt>
<pdfrwt beam="1">  1       21 0.25343483E-01 0.19481670E+03</pdfrwt>
<pdfrwt beam="2">  1       21 0.35768920E-01 0.19481670E+03</pdfrwt>
<totfact> 0.11113170E+05</totfact>
</mgrwt>
</event>
<event>
12    1  0.1039378E-001  0.1930157E+03  0.7546771E-02  0.1158308E+00
         21   -1    0    0  501  502  0.00000000000E+00  0.00000000000E+00  0.57023121134E+03  0.57023121134E+03  0.00000000000E+00 0. -1.
         21   -1    0    0  502  503 -0.00000000000E+00 -0.00000000000E+00 -0.13596399989E+03  0.13596399989E+03  0.00000000000E+00 0. -1.
         -6    2    1    2    0  503  0.22191606697E+02  0.72268802023E+02  0.47525961295E+03  0.50887459469E+03  0.16542794885E+03 0.  0.
        -24    2    3    3    0    0 -0.21751673810E+02 -0.99374169980E+01  0.17217072603E+03  0.19174080947E+03  0.80931400251E+02 0.  0.
          6    2    1    2  501    0 -0.22191606697E+02 -0.72268802023E+02 -0.40992401503E+02  0.19732061654E+03  0.17759448633E+03 0.  0.
         24    2    5    5    0    0 -0.51533816834E+02 -0.61947690473E+02 -0.85535908232E+02  0.14278893188E+03  0.81111262093E+02 0.  0.
          5    1    5    5  501    0  0.29342210138E+02 -0.10321111550E+02  0.44543506729E+02  0.54531684653E+02  0.47000000000E+01 0. -1.
        -13    1    6    6    0    0 -0.10197808749E+02  0.19874225892E+02 -0.21189000665E+02  0.30788860116E+02  0.00000000000E+00 0.  1.
         14    1    6    6    0    0 -0.41336008085E+02 -0.81821916365E+02 -0.64346907568E+02  0.11200007177E+03  0.00000000000E+00 0. -1.
         -5    1    3    3    0  503  0.43943280507E+02  0.82206219021E+02  0.30308888693E+03  0.31713378522E+03  0.47000000000E+01 0.  1.
         11    1    4    4    0    0 -0.32444525291E+02  0.24524743904E+02  0.13013558344E+03  0.13634287793E+03  0.00000000000E+00 0. -1.
        -12    1    4    4    0    0  0.10692851482E+02 -0.34462160902E+02  0.42035142582E+02  0.55397931538E+02  0.00000000000E+00 0.  1.
<mgrwt>
<rscale>  2 0.19017036E+03</rscale>
<asrwt>0</asrwt>
<pdfrwt beam="1">  1       21 0.87727878E-01 0.19301567E+03</pdfrwt>
<pdfrwt beam="2">  1       21 0.20917539E-01 0.19301567E+03</pdfrwt>
<totfact> 0.23650063E+04</totfact>
</mgrwt>
</event>
<event>
12    1  0.1039378E-001  0.1768050E+03  0.7546771E-02  0.1171612E+00
         21   -1    0    0  503  502  0.00000000000E+00  0.00000000000E+00  0.30027294181E+03  0.30027294181E+03  0.00000000000E+00 0.  1.
         21   -1    0    0  501  503 -0.00000000000E+00 -0.00000000000E+00 -0.12466442827E+03  0.12466442827E+03  0.00000000000E+00 0.  1.
          6    2    1    2  501    0 -0.19846301203E+02  0.19893408938E+02 -0.23274196371E+01  0.17409634399E+03  0.17179783677E+03 0.  0.
         24    2    3    3    0    0 -0.40451500187E+02  0.61167636241E+02  0.30623405895E+02  0.11721064308E+03  0.86155314826E+02 0.  0.
         -6    2    1    2    0  502  0.19846301203E+02 -0.19893408938E+02  0.17793593319E+03  0.25084102609E+03  0.17455772873E+03 0.  0.
        -24    2    5    5    0    0 -0.24425295215E+02  0.46254982642E+02  0.98444395972E+02  0.13825071369E+03  0.81766999891E+02 0.  0.
          5    1    3    3  501    0  0.20605198985E+02 -0.41274227303E+02 -0.32950825533E+02  0.56885700909E+02  0.47000000000E+01 0. -1.
        -11    1    4    4    0    0 -0.65938467757E+02  0.35584413364E+02  0.99107732081E+01  0.75580125894E+02  0.00000000000E+00 0.  1.
         12    1    4    4    0    0  0.25486967570E+02  0.25583222877E+02  0.20712632687E+02  0.41630517190E+02  0.00000000000E+00 0. -1.
         -5    1    5    5    0  502  0.44271596418E+02 -0.66148391580E+02  0.79491537213E+02  0.11259031240E+03  0.47000000000E+01 0.  1.
         13    1    6    6    0    0 -0.42507336843E+02  0.17969964941E+02  0.15357316243E+02  0.48637850360E+02  0.00000000000E+00 0. -1.
        -14    1    6    6    0    0  0.18082041627E+02  0.28285017701E+02  0.83087079730E+02  0.89612863327E+02  0.00000000000E+00 0.  1.
<mgrwt>
<rscale>  2 0.17612001E+03</rscale>
<asrwt>0</asrwt>
<pdfrwt beam="1">  1       21 0.46195837E-01 0.17680505E+03</pdfrwt>
<pdfrwt beam="2">  1       21 0.19179143E-01 0.17680505E+03</pdfrwt>
<totfact> 0.11270674E+05</totfact>
</mgrwt>
</event>
<event>
12    1  0.1039378E-001  0.2196231E+03  0.7546771E-02  0.1134533E+00
         21   -1    0    0  501  502  0.00000000000E+00  0.00000000000E+00  0.10261837393E+03  0.10261837393E+03  0.00000000000E+00 0. -1.
         21   -1    0    0  502  503 -0.00000000000E+00 -0.00000000000E+00 -0.60048291080E+03  0.60048291080E+03  0.00000000000E+00 0.  1.
         -6    2    1    2    0  503  0.12668293719E+03  0.15607481834E+02 -0.41453068803E+03  0.46819954876E+03  0.17630361903E+03 0.  0.
        -24    2    3    3    0    0  0.12087674230E+03 -0.42827396924E+02 -0.34780197132E+03  0.37918742269E+03  0.79821785981E+02 0.  0.
          6    2    1    2  501    0 -0.12668293719E+03 -0.15607481834E+02 -0.83333848835E+02  0.23490173596E+03  0.17872362780E+03 0.  0.
         24    2    5    5    0    0 -0.65892225007E+02 -0.30478031168E+02 -0.11016616571E+03  0.16664701339E+03  0.10180347392E+03 0.  0.
          5    1    5    5  501    0 -0.60790712178E+02  0.14870549334E+02  0.26832316879E+02  0.68254722575E+02  0.47000000000E+01 0. -1.
        -13    1    6    6    0    0  0.18874449082E+02  0.90510622912E+01  0.14993025698E+01  0.20986054058E+02  0.00000000000E+00 0.  1.
         14    1    6    6    0    0 -0.84766674089E+02 -0.39529093459E+02 -0.11166546828E+03  0.14566095933E+03  0.00000000000E+00 0. -1.
         -5    1    3    3    0  503  0.58061948903E+01  0.58434878758E+02 -0.66728716704E+02  0.89012126070E+02  0.47000000000E+01 0.  1.
         13    1    4    4    0    0  0.12814109848E+02 -0.22839565890E+02 -0.18585994787E+02  0.32113647932E+02  0.00000000000E+00 0. -1.
        -14    1    4    4    0    0  0.10806263245E+03 -0.19987831035E+02 -0.32921597654E+03  0.34707377476E+03  0.00000000000E+00 0.  1.
<mgrwt>
<rscale>  2 0.21913022E+03</rscale>
<asrwt>0</asrwt>
<pdfrwt beam="1">  1       21 0.15787442E-01 0.21962308E+03</pdfrwt>
<pdfrwt beam="2">  1       21 0.92381988E-01 0.21962308E+03</pdfrwt>
<totfact> 0.34825594E+04</totfact>
</mgrwt>
</event>
<event>
12    1  0.1039378E-001  0.2067783E+03  0.7546771E-02  0.1144507E+00
         21   -1    0    0  501  502  0.00000000000E+00  0.00000000000E+00  0.34955084392E+03  0.34955084392E+03  0.00000000000E+00 0. -1.
         21   -1    0    0  502  503 -0.00000000000E+00 -0.00000000000E+00 -0.74022960856E+03  0.74022960856E+03  0.00000000000E+00 0. -1.
         -6    2    1    2    0  503  0.89890423201E+02 -0.64318146281E+02 -0.69374255298E+03  0.72390329263E+03  0.17475736075E+03 0.  0.
        -24    2    3    3    0    0  0.27387997259E+02  0.88805749211E-01 -0.53625043992E+03  0.54257302931E+03  0.77915643736E+02 0.  0.
          6    2    1    2  501    0 -0.89890423201E+02  0.64318146281E+02  0.30306378834E+03  0.36587715986E+03  0.17263060035E+03 0.  0.
         24    2    5    5    0    0 -0.72877583595E+02  0.58228818094E+02  0.31760806073E+03  0.34220983029E+03  0.86781047818E+02 0.  0.
          5    1    5    5  501    0 -0.17012839606E+02  0.60893281872E+01 -0.14544272390E+02  0.23667329562E+02  0.47000000000E+01 0. -1.
        -13    1    6    6    0    0  0.67154475704E+01 -0.64982856078E+00 -0.24586257490E+01  0.71808323892E+01  0.00000000000E+00 0.  1.
         14    1    6    6    0    0 -0.79593031165E+02  0.58878646655E+02  0.32006668648E+03  0.33502899791E+03  0.00000000000E+00 0. -1.
         -5    1    3    3    0  503  0.62502425942E+02 -0.64406952030E+02 -0.15749211306E+03  0.18133026332E+03  0.47000000000E+01 0.  1.
         11    1    4    4    0    0  0.43132054163E+02 -0.25490716172E+02 -0.39497099375E+03  0.39813595242E+03  0.00000000000E+00 0. -1.
        -12    1    4    4    0    0 -0.15744056904E+02  0.25579521921E+02 -0.14127944617E+03  0.14443707689E+03  0.00000000000E+00 0.  1.
<mgrwt>
<rscale>  2 0.20632822E+03</rscale>
<asrwt>0</asrwt>
<pdfrwt beam="1">  1       21 0.53777053E-01 0.20677826E+03</pdfrwt>
<pdfrwt beam="2">  1       21 0.11388148E+00 0.20677826E+03</pdfrwt>
<totfact> 0.19386704E+03</totfact>
</mgrwt>
</event>
<event>
12    1  0.1039378E-001  0.2187449E+03  0.7546771E-02  0.1134913E+00
         21   -1    0    0  503  502  0.00000000000E+00  0.00000000000E+00  0.60104531650E+03  0.60104531650E+03  0.00000000000E+00 0.  1.
         21   -1    0    0  501  503 -0.00000000000E+00 -0.00000000000E+00 -0.81522385347E+02  0.81522385347E+02  0.00000000000E+00 0.  1.
          6    2    1    2  501    0  0.13326762675E+03 -0.71994308956E+01  0.31410730832E+03  0.38249286364E+03  0.17270002156E+03 0.  0.
         24    2    3    3    0    0  0.41267557053E+02  0.83927669028E+01  0.25567541058E+03  0.27229528594E+03  0.83674114088E+02 0.  0.
         -6    2    1    2    0  502 -0.13326762675E+03  0.71994308956E+01  0.20541562283E+03  0.30007483822E+03  0.17331254507E+03 0.  0.
        -24    2    5    5    0    0 -0.13590701866E+03 -0.15291360454E+02  0.90946844014E+02  0.18329301853E+03  0.81366201695E+02 0.  0.
          5    1    3    3  501    0  0.92000069697E+02 -0.15592197798E+02  0.58431897743E+02  0.11019757770E+03  0.47000000000E+01 0. -1.
        -13    1    4    4    0    0  0.54524952854E+02 -0.21724780434E+01  0.86508146191E+02  0.10228073867E+03  0.00000000000E+00 0.  1.
         14    1    4    4    0    0 -0.13257395801E+02  0.10565244946E+02  0.16916726439E+03  0.17001454727E+03  0.00000000000E+00 0. -1.
         -5    1    5    5    0  502  0.26393919110E+01  0.22490791350E+02  0.11446877882E+03  0.11678181969E+03  0.47000000000E+01 0.  1.
         13    1    6    6    0    0 -0.18340672279E+02 -0.35394126286E+02  0.23163634204E+02  0.46105079815E+02  0.00000000000E+00 0. -1.
        -14    1    6    6    0    0 -0.11756634638E+03  0.20102765831E+02  0.67783209810E+02  0.13718793871E+03  0.00000000000E+00 0.  1.
<mgrwt>
<rscale>  2 0.21862355E+03</rscale>
<asrwt>0</asrwt>
<pdfrwt beam="1">  1       21 0.92468507E-01 0.21874490E+03</pdfrwt>
<pdfrwt beam="2">  1       21 0.12541906E-01 0.21874490E+03</pdfrwt>
<totfact> 0.52814882E+04</totfact>
</mgrwt>
</event>
<event>
12    1  0.1039378E-001  0.1995888E+03  0.7546771E-02  0.1150190E+00
         21   -1    0    0  501  502  0.00000000000E+00  0.00000000000E+00  0.10534705848E+04  0.10534705848E+04  0.00000000000E+00 0. -1.
         21   -1    0    0  502  503 -0.00000000000E+00 -0.00000000000E+00 -0.38885792598E+02  0.38885792598E+02  0.00000000000E+00 0. -1.
         -6    2    1    2    0  503  0.79672540677E+02 -0.55845575863E+02  0.60120013168E+03  0.63331108828E+03  0.17370922292E+03 0.  0.
        -24    2    3    3    0    0  0.10980036667E+03 -0.79027539936E+02  0.42516693772E+03  0.45315875071E+03  0.79274559764E+02 0.  0.
          6    2    1    2  501    0 -0.79672540677E+02  0.55845575863E+02  0.41338466050E+03  0.45904528910E+03  0.17426777620E+03 0.  0.
         24    2    5    5    0    0 -0.38295178528E+01  0.32179344177E+02  0.33834950769E+03  0.34966238920E+03  0.82056210399E+02 0.  0.
          5    1    5    5  501    0 -0.75843022824E+02  0.23666231686E+02  0.75035152810E+02  0.10938289990E+03  0.47000000000E+01 0. -1.
        -11    1    6    6    0    0  0.27010120289E+02  0.12331057417E+02  0.44271628056E+02  0.53306459512E+02  0.00000000000E+00 0.  1.
         12    1    6    6    0    0 -0.30839638141E+02  0.19848286760E+02  0.29407787964E+03  0.29635592969E+03  0.00000000000E+00 0. -1.
         -5    1    3    3    0  503 -0.30127825988E+02  0.23181964073E+02  0.17603319396E+03  0.18015233757E+03  0.47000000000E+01 0.  1.
         13    1    4    4    0    0  0.43443995806E+01 -0.42661086207E+02  0.85630645385E+02  0.95767685119E+02  0.00000000000E+00 0. -1.
        -14    1    4    4    0    0  0.10545596708E+03 -0.36366453729E+02  0.33953629233E+03  0.35739106559E+03  0.00000000000E+00 0.  1.
<mgrwt>
<rscale>  2 0.19946684E+03</rscale>
<asrwt>0</asrwt>
<pdfrwt beam="1">  1       21 0.16207238E+00 0.19958883E+03</pdfrwt>
<pdfrwt beam="2">  1       21 0.59824304E-02 0.19958883E+03</pdfrwt>
<totfact> 0.47975722E+04</totfact>
</mgrwt>
</event>
<event>
12    1  0.1039378E-001  0.2343796E+03  0.7546771E-02  0.1124075E+00
         21   -1    0    0  501  502  0.00000000000E+00  0.00000000000E+00  0.49370144757E+03  0.49370144757E+03  0.00000000000E+00 0. -1.
         21   -1    0    0  502  503 -0.00000000000E+00 -0.00000000000E+00 -0.11403821231E+03  0.11403821231E+03  0.00000000000E+00 0. -1.
         -6    2    1    2    0  503 -0.14733757169E+03  0.43459190816E+02  0.13341702243E+03  0.26969225642E+03  0.17702189130E+03 0.  0.
        -24    2    3    3    0    0 -0.13685026472E+03  0.86222426710E+02  0.13559089804E+03  0.22535836772E+03  0.78988609614E+02 0.  0.
          6    2    1    2  501    0  0.14733757169E+03 -0.43459190816E+02  0.24624621283E+03  0.33804740347E+03  0.17332567139E+03 0.  0.
         24    2    5    5    0    0  0.91519112945E+02 -0.53194434255E+02  0.64514697009E+02  0.14762968070E+03  0.80168451556E+02 0.  0.
          5    1    5    5  501    0  0.55818458746E+02  0.97352434391E+01  0.18173151582E+03  0.19041772276E+03  0.47000000000E+01 0. -1.
        -11    1    6    6    0    0  0.98132851833E+02 -0.57048010844E+02  0.37488559777E+02  0.11954047124E+03  0.00000000000E+00 0.  1.
         12    1    6    6    0    0 -0.66137388887E+01  0.38535765897E+01  0.27026137232E+02  0.28089209464E+02  0.00000000000E+00 0. -1.
         -5    1    3    3    0  503 -0.10487306966E+02 -0.42763235894E+02 -0.21738756083E+01  0.44333888694E+02  0.47000000000E+01 0.  1.
         11    1    4    4    0    0 -0.50089966652E+02 -0.71448863689E+01  0.54127214668E+02  0.74093248870E+02  0.00000000000E+00 0. -1.
        -12    1    4    4    0    0 -0.86760298073E+02  0.93367313079E+02  0.81463683371E+02  0.15126511885E+03  0.00000000000E+00 0.  1.
<mgrwt>
<rscale>  2 0.23368177E+03</rscale>
<asrwt>0</asrwt>
<pdfrwt beam="1">  1       21 0.75954068E-01 0.23437963E+03</pdfrwt>
<pdfrwt beam="2">  1       21 0.17544341E-01 0.23437963E+03</pdfrwt>
<totfact> 0.44593462E+04</totfact>
</mgrwt>
</event>
<event>
12    1  0.1039378E-001  0.2740607E+03  0.7546771E-02  0.1099417E+00
         21   -1    0    0  503  502  0.00000000000E+00  0.00000000000E+00  0.17086303606E+04  0.17086303606E+04  0.00000000000E+00 0. -1.
         21   -1    0    0  501  503 -0.00000000000E+00 -0.00000000000E+00 -0.16766695279E+03  0.16766695279E+03  0.00000000000E+00 0. -1.
          6    2    1    2  501    0 -0.20489011438E+02  0.20668725366E+03 -0.35830439717E+02  0.27639298308E+03  0.17880111933E+03 0.  0.
         24    2    3    3    0    0 -0.69040864236E+01  0.73828420111E+02  0.47824622130E+02  0.11873424018E+03  0.79450130804E+02 0.  0.
         -6    2    1    2    0  502  0.20489011438E+02 -0.20668725366E+03  0.15767938476E+04  0.15999043303E+04  0.17399887397E+03 0.  0.
        -24    2    5    5    0    0 -0.56368046146E+01 -0.16918111733E+03  0.79772708900E+03  0.81948369196E+03  0.80814533580E+02 0.  0.
          5    1    3    3  501    0 -0.13584925015E+02  0.13285883355E+03 -0.83655061847E+02  0.15765874290E+03  0.47000000000E+01 0. -1.
        -11    1    4    4    0    0  0.18308430648E+02  0.32486681101E+02 -0.14324956891E+02  0.39947308691E+02  0.00000000000E+00 0.  1.
         12    1    4    4    0    0 -0.25212517072E+02  0.41341739010E+02  0.62149579022E+02  0.78786931493E+02  0.00000000000E+00 0. -1.
         -5    1    5    5    0  502  0.26125816053E+02 -0.37506136337E+02  0.77906675856E+03  0.78042063838E+03  0.47000000000E+01 0.  1.
         11    1    6    6    0    0 -0.10804923974E+00 -0.17710361565E+03  0.77053948208E+03  0.79063063171E+03  0.00000000000E+00 0. -1.
        -12    1    6    6    0    0 -0.55287553748E+01  0.79224983295E+01  0.27187606915E+02  0.28853060246E+02  0.00000000000E+00 0.  1.
<mgrwt>
<rscale>  2 0.27328021E+03</rscale>
<asrwt>0</asrwt>
<pdfrwt beam="1">  1       21 0.26286620E+00 0.27406069E+03</pdfrwt>
<pdfrwt beam="2">  1       21 0.25794917E-01 0.27406069E+03</pdfrwt>
<totfact> 0.72996242E+02</totfact>
</mgrwt>
</event>
<event>
12    1  0.1039378E-001  0.1883495E+03  0.7546771E-02  0.1160064E+00
         21   -1    0    0  503  502  0.00000000000E+00  0.00000000000E+00  0.18901015647E+03  0.18901015647E+03  0.00000000000E+00 0. -1.
         21   -1    0    0  501  503 -0.00000000000E+00 -0.00000000000E+00 -0.39289164501E+03  0.39289164501E+03  0.00000000000E+00 0.  1.
          6    2    1    2  501    0 -0.72001860558E+01 -0.72776509961E+02 -0.31250443957E+03  0.36487609593E+03  0.17357211051E+03 0.  0.
         24    2    3    3    0    0 -0.10192363231E+02 -0.97673327388E+02 -0.12925339683E+03  0.17985761224E+03  0.77449060270E+02 0.  0.
         -6    2    1    2    0  502  0.72001860558E+01  0.72776509961E+02  0.10862295103E+03  0.21702570555E+03  0.17306920090E+03 0.  0.
        -24    2    5    5    0    0 -0.34193854225E+02  0.91783119118E+02  0.11477593615E+03  0.17082324903E+03  0.80085618375E+02 0.  0.
          5    1    3    3  501    0  0.29921771747E+01  0.24896817427E+02 -0.18325104274E+03  0.18501848369E+03  0.47000000000E+01 0. -1.
        -13    1    4    4    0    0 -0.34224247967E+02 -0.35447066530E+02 -0.89604131054E+02  0.10225797757E+03  0.00000000000E+00 0.  1.
         14    1    4    4    0    0  0.24031884737E+02 -0.62226260858E+02 -0.39649265779E+02  0.77599634671E+02  0.00000000000E+00 0. -1.
         -5    1    5    5    0  502  0.41394040280E+02 -0.19006609157E+02 -0.61529851214E+01  0.46202456518E+02  0.47000000000E+01 0.  1.
         11    1    6    6    0    0  0.36048225974E+01  0.50317045306E+02  0.10122930767E+03  0.11310248683E+03  0.00000000000E+00 0. -1.
        -12    1    6    6    0    0 -0.37798676822E+02  0.41466073812E+02  0.13546628474E+02  0.57720762208E+02  0.00000000000E+00 0.  1.
<mgrwt>
<rscale>  2 0.18823357E+03</rscale>
<asrwt>0</asrwt>
<pdfrwt beam="1">  1       21 0.29078486E-01 0.18834952E+03</pdfrwt>
<pdfrwt beam="2">  1       21 0.60444868E-01 0.18834952E+03</pdfrwt>
<totfact> 0.28946174E+04</totfact>
</mgrwt>
</event>
<event>
12    1  0.1039378E-001  0.2267970E+03  0.7546771E-02  0.1129384E+00
         21   -1    0    0  501  502  0.00000000000E+00  0.00000000000E+00  0.12965557637E+04  0.12965557637E+04  0.00000000000E+00 0. -1.
         21   -1    0    0  502  503 -0.00000000000E+00 -0.00000000000E+00 -0.59034663040E+02  0.59034663040E+02  0.00000000000E+00 0. -1.
         -6    2    1    2    0  503 -0.11974130335E+03 -0.78562007381E+02  0.22843777249E+03  0.32190168139E+03  0.17586047837E+03 0.  0.
        -24    2    3    3    0    0 -0.14061896049E+03 -0.45548391907E+02  0.22696440713E+03  0.28253118254E+03  0.80390788951E+02 0.  0.
          6    2    1    2  501    0  0.11974130335E+03  0.78562007381E+02  0.10090833281E+04  0.10336887453E+04  0.17249142106E+03 0.  0.
         24    2    5    5    0    0  0.40192584436E+02 -0.19770078144E+02  0.25689350745E+03  0.27092481455E+03  0.73482522674E+02 0.  0.
          5    1    5    5  501    0  0.79548718911E+02  0.98332085525E+02  0.75218982069E+03  0.76276393077E+03  0.47000000000E+01 0. -1.
        -13    1    6    6    0    0  0.35869934791E+02 -0.25648072782E+01  0.41965910626E+02  0.55266337973E+02  0.00000000000E+00 0.  1.
         14    1    6    6    0    0  0.43226496459E+01 -0.17205270866E+02  0.21492759682E+03  0.21565847658E+03  0.00000000000E+00 0. -1.
         -5    1    3    3    0  503  0.20877657144E+02 -0.33013615473E+02  0.14733653619E+01  0.39370498853E+02  0.47000000000E+01 0.  1.
         11    1    4    4    0    0  0.63714459625E+01 -0.18854824952E+01 -0.20221760838E+01  0.69454707548E+01  0.00000000000E+00 0. -1.
        -12    1    4    4    0    0 -0.14699040645E+03 -0.43662909412E+02  0.22898658321E+03  0.27558571178E+03  0.00000000000E+00 0.  1.
<mgrwt>
<rscale>  2 0.22614360E+03</rscale>
<asrwt>0</asrwt>
<pdfrwt beam="1">  1       21 0.19947010E+00 0.22679699E+03</pdfrwt>
<pdfrwt beam="2">  1       21 0.90822568E-02 0.22679699E+03</pdfrwt>
<totfact> 0.12671054E+04</totfact>
</mgrwt>
</event>
<event>
12    1  0.1039378E-001  0.2266351E+03  0.7546771E-02  0.1129176E+00
         21   -1    0    0  503  502  0.00000000000E+00  0.00000000000E+00  0.32094721040E+03  0.32094721040E+03  0.00000000000E+00 0. -1.
         21   -1    0    0  501  503 -0.00000000000E+00 -0.00000000000E+00 -0.23859251298E+03  0.23859251298E+03  0.00000000000E+00 0.  1.
          6    2    1    2  501    0  0.14233222619E+03  0.32127104901E+02 -0.11998467419E+03  0.25572281789E+03  0.17235783727E+03 0.  0.
         24    2    3    3    0    0  0.63701684420E+02  0.18945670731E+02  0.75761252455E+01  0.10522245292E+03  0.81225143194E+02 0.  0.
         -6    2    1    2    0  502 -0.14233222619E+03 -0.32127104901E+02  0.20233937160E+03  0.30381690549E+03  0.17341533174E+03 0.  0.
        -24    2    5    5    0    0 -0.12604276416E+03 -0.59447667317E+02  0.21659227972E+03  0.26864596445E+03  0.76404417627E+02 0.  0.
          5    1    3    3  501    0  0.78630541766E+02  0.13181434170E+02 -0.12756079943E+03  0.15050036497E+03  0.47000000000E+01 0. -1.
        -11    1    4    4    0    0  0.28740989375E+02 -0.89068131733E+01 -0.33137976935E+02  0.44760488229E+02  0.00000000000E+00 0.  1.
         12    1    4    4    0    0  0.34960695045E+02  0.27852483904E+02  0.40714102180E+02  0.60461964689E+02  0.00000000000E+00 0. -1.
         -5    1    5    5    0  502 -0.16289462024E+02  0.27320562417E+02 -0.14252908122E+02  0.35170941041E+02  0.47000000000E+01 0.  1.
         11    1    6    6    0    0 -0.56341949347E+02 -0.68440162163E+02  0.12006306224E+03  0.14924345871E+03  0.00000000000E+00 0. -1.
        -12    1    6    6    0    0 -0.69700814815E+02  0.89924948453E+01  0.96529217484E+02  0.11940250574E+03  0.00000000000E+00 0.  1.
<mgrwt>
<rscale>  2 0.22643284E+03</rscale>
<asrwt>0</asrwt>
<pdfrwt beam="1">  1       21 0.49376494E-01 0.22663515E+03</pdfrwt>
<pdfrwt beam="2">  1       21 0.36706541E-01 0.22663515E+03</pdfrwt>
<totfact> 0.27490566E+04</totfact>
</mgrwt>
</event>
<event>
12    1  0.1039378E-001  0.1814095E+03  0.7546771E-02  0.1166494E+00
         21   -1    0    0  501  502  0.00000000000E+00  0.00000000000E+00  0.14670496146E+03  0.14670496146E+03  0.00000000000E+00 0.  1.
         21   -1    0    0  502  503 -0.00000000000E+00 -0.00000000000E+00 -0.55277633800E+03  0.55277633800E+03  0.00000000000E+00 0.  1.
         -6    2    1    2    0  503  0.50678258834E+02 -0.16065222938E+02 -0.47268478359E+03  0.50622825531E+03  0.17323326623E+03 0.  0.
        -24    2    3    3    0    0  0.64308389690E+02 -0.39604607477E+02 -0.17614333839E+03  0.20840481464E+03  0.81865726570E+02 0.  0.
          6    2    1    2  501    0 -0.50678258834E+02  0.16065222938E+02  0.66613407043E+02  0.19325304415E+03  0.17344456108E+03 0.  0.
         24    2    5    5    0    0 -0.39676398133E+02  0.27786713008E+02 -0.26655178981E+02  0.98492538626E+02  0.81510512266E+02 0.  0.
          5    1    5    5  501    0 -0.11001860701E+02 -0.11721490070E+02  0.93268586025E+02  0.94760505525E+02  0.47000000000E+01 0. -1.
        -11    1    6    6    0    0 -0.16841299418E+02  0.28896763219E-01  0.28237841736E+02  0.32878654276E+02  0.00000000000E+00 0.  1.
         12    1    6    6    0    0 -0.22835098715E+02  0.27757816244E+02 -0.54893020717E+02  0.65613884350E+02  0.00000000000E+00 0. -1.
         -5    1    3    3    0  503 -0.13630130856E+02  0.23539384539E+02 -0.29654144520E+03  0.29782344067E+03  0.47000000000E+01 0.  1.
         11    1    4    4    0    0  0.89797237675E+01  0.29234672313E+01  0.74291027867E+01  0.12015559405E+02  0.00000000000E+00 0. -1.
        -12    1    4    4    0    0  0.55328665923E+02 -0.42528074708E+02 -0.18357244118E+03  0.19638925523E+03  0.00000000000E+00 0.  1.
<mgrwt>
<rscale>  2 0.18135894E+03</rscale>
<asrwt>0</asrwt>
<pdfrwt beam="1">  1       21 0.22569994E-01 0.18140946E+03</pdfrwt>
<pdfrwt beam="2">  1       21 0.85042515E-01 0.18140946E+03</pdfrwt>
<totfact> 0.22162122E+04</totfact>
</mgrwt>
</event>
<event>
12    1  0.1039378E-001  0.2169430E+03  0.7546771E-02  0.1137562E+00
         21   -1    0    0  501  502  0.00000000000E+00  0.00000000000E+00  0.27994063114E+03  0.27994063114E+03  0.00000000000E+00 0. -1.
         21   -1    0    0  502  503 -0.00000000000E+00 -0.00000000000E+00 -0.24594944212E+03  0.24594944212E+03  0.00000000000E+00 0. -1.
         -6    2    1    2    0  503  0.10972268144E+03  0.21349718664E+00 -0.13621609064E+03  0.25014599338E+03  0.17882696176E+03 0.  0.
        -24    2    3    3    0    0  0.11757610556E+03  0.53568090941E+01 -0.16600142774E+03  0.21856457108E+03  0.79756891345E+02 0.  0.
          6    2    1    2  501    0 -0.10972268144E+03 -0.21349718664E+00  0.17020727966E+03  0.27574407988E+03  0.18715011926E+03 0.  0.
         24    2    5    5    0    0 -0.84879884952E+02  0.51598103538E+02  0.41233690706E+02  0.13447170766E+03  0.80718422638E+02 0.  0.
          5    1    5    5  501    0 -0.24842796485E+02 -0.51811600724E+02  0.12897358895E+03  0.14127237222E+03  0.47000000000E+01 0. -1.
        -13    1    6    6    0    0 -0.29605992691E+01 -0.57196408865E+01 -0.17408914880E+02  0.18562051535E+02  0.00000000000E+00 0.  1.
         14    1    6    6    0    0 -0.81919285683E+02  0.57317744424E+02  0.58642605586E+02  0.11590965612E+03  0.00000000000E+00 0. -1.
         -5    1    3    3    0  503 -0.78534241207E+01 -0.51433119075E+01  0.29785337107E+02  0.31581422298E+02  0.47000000000E+01 0.  1.
         11    1    4    4    0    0  0.87097354451E+02  0.28025968059E+02 -0.69629102794E+02  0.11497658889E+03  0.00000000000E+00 0. -1.
        -12    1    4    4    0    0  0.30478751107E+02 -0.22669158965E+02 -0.96372324950E+02  0.10358798219E+03  0.00000000000E+00 0.  1.
<mgrwt>
<rscale>  2 0.21513611E+03</rscale>
<asrwt>0</asrwt>
<pdfrwt beam="1">  1       21 0.43067790E-01 0.21694303E+03</pdfrwt>
<pdfrwt beam="2">  1       21 0.37838376E-01 0.21694303E+03</pdfrwt>
<totfact> 0.34481326E+04</totfact>
</mgrwt>
</event>
<event>
12    1  0.1039378E-001  0.1779842E+03  0.7546771E-02  0.1169874E+00
         21   -1    0    0  503  502  0.00000000000E+00  0.00000000000E+00  0.47228462480E+02  0.47228462480E+02  0.00000000000E+00 0. -1.
         21   -1    0    0  501  503 -0.00000000000E+00 -0.00000000000E+00 -0.67272186857E+03  0.67272186857E+03  0.00000000000E+00 0. -1.
          6    2    1    2  501    0 -0.35266405222E+02  0.21844720019E+02 -0.28607504447E+03  0.33669691286E+03  0.17264115654E+03 0.  0.
         24    2    3    3    0    0 -0.22653907903E+02  0.79662360876E+02 -0.21970984963E+03  0.24765544067E+03  0.78749653880E+02 0.  0.
         -6    2    1    2    0  502  0.35266405222E+02 -0.21844720019E+02 -0.33941836162E+03  0.38325341819E+03  0.17308219787E+03 0.  0.
        -24    2    5    5    0    0  0.30687630813E+02 -0.56534507896E+02 -0.11218386737E+03  0.15329265646E+03  0.82313651111E+02 0.  0.
          5    1    3    3  501    0 -0.12612497319E+02 -0.57817640857E+02 -0.66365194835E+02  0.89041472182E+02  0.47000000000E+01 0. -1.
        -11    1    4    4    0    0 -0.16343644785E+02 -0.12106382964E+02 -0.59953087348E+02  0.63309177186E+02  0.00000000000E+00 0.  1.
         12    1    4    4    0    0 -0.63102631178E+01  0.91768743839E+02 -0.15975676228E+03  0.18434626349E+03  0.00000000000E+00 0. -1.
         -5    1    5    5    0  502  0.45787744091E+01  0.34689787877E+02 -0.22723449425E+03  0.22996076173E+03  0.47000000000E+01 0.  1.
         11    1    6    6    0    0 -0.26931210434E+02 -0.61489725854E+01 -0.35042518107E+02  0.44621497449E+02  0.00000000000E+00 0. -1.
        -12    1    6    6    0    0  0.57618841247E+02 -0.50385535311E+02 -0.77141349263E+02  0.10867115901E+03  0.00000000000E+00 0.  1.
<mgrwt>
<rscale>  2 0.17787684E+03</rscale>
<asrwt>0</asrwt>
<pdfrwt beam="1">  1       21 0.72659175E-02 0.17798415E+03</pdfrwt>
<pdfrwt beam="2">  1       21 0.10349567E+00 0.17798415E+03</pdfrwt>
<totfact> 0.10790714E+05</totfact>
</mgrwt>
</event>
<event>
12    1  0.1039378E-001  0.2686138E+03  0.7546771E-02  0.1102712E+00
         21   -1    0    0  501  502  0.00000000000E+00  0.00000000000E+00  0.12971022725E+03  0.12971022725E+03  0.00000000000E+00 0. -1.
         21   -1    0    0  502  503 -0.00000000000E+00 -0.00000000000E+00 -0.58366031805E+03  0.58366031805E+03  0.00000000000E+00 0.  1.
         -6    2    1    2    0  503  0.17846991299E+03  0.10243141555E+03 -0.31783491870E+03  0.41613987866E+03  0.17265473738E+03 0.  0.
        -24    2    3    3    0    0  0.92466663506E+02 -0.12101698955E+02 -0.11794238300E+03  0.17018559619E+03  0.79725757859E+02 0.  0.
          6    2    1    2  501    0 -0.17846991299E+03 -0.10243141555E+03 -0.13611517211E+03  0.29723066664E+03  0.16575591809E+03 0.  0.
         24    2    5    5    0    0 -0.17982094810E+03 -0.44450722453E+02 -0.12646556471E+03  0.23824939003E+03  0.80360392539E+02 0.  0.
          5    1    5    5  501    0  0.13510351143E+01 -0.57980693094E+02 -0.96496073934E+01  0.58981276608E+02  0.47000000000E+01 0. -1.
        -11    1    6    6    0    0 -0.93677729277E+02 -0.37392506911E+02 -0.11181163880E+03  0.15058405994E+03  0.00000000000E+00 0.  1.
         12    1    6    6    0    0 -0.86143218824E+02 -0.70582155415E+01 -0.14653925914E+02  0.87665330095E+02  0.00000000000E+00 0. -1.
         -5    1    3    3    0  503  0.86003249480E+02  0.11453311450E+03 -0.19989253570E+03  0.24595428247E+03  0.47000000000E+01 0.  1.
         11    1    4    4    0    0  0.32106746721E+02 -0.34094707047E+01  0.52635596411E+01  0.32713494702E+02  0.00000000000E+00 0. -1.
        -12    1    4    4    0    0  0.60359916785E+02 -0.86922282506E+01 -0.12320594264E+03  0.13747210149E+03  0.00000000000E+00 0.  1.
<mgrwt>
<rscale>  2 0.26751166E+03</rscale>
<asrwt>0</asrwt>
<pdfrwt beam="1">  1       21 0.19955419E-01 0.26861378E+03</pdfrwt>
<pdfrwt beam="2">  1       21 0.89793896E-01 0.26861378E+03</pdfrwt>
<totfact> 0.23533860E+04</totfact>
</mgrwt>
</event>
<event>
12    1  0.1039378E-001  0.1782502E+03  0.7546771E-02  0.1169822E+00
         21   -1    0    0  503  502  0.00000000000E+00  0.00000000000E+00  0.74258224695E+02  0.74258224695E+02  0.00000000000E+00 0.  1.
         21   -1    0    0  501  503 -0.00000000000E+00 -0.00000000000E+00 -0.42604170868E+03  0.42604170868E+03  0.00000000000E+00 0.  1.
          6    2    1    2  501    0 -0.29641510348E+02 -0.34781378985E+02 -0.16304356197E+03  0.24157057842E+03  0.17229270965E+03 0.  0.
         24    2    3    3    0    0  0.42780361961E+02 -0.13242685348E+02 -0.56809112931E+02  0.11112253867E+03  0.84352920539E+02 0.  0.
         -6    2    1    2    0  502  0.29641510348E+02  0.34781378985E+02 -0.18873992202E+03  0.25872935496E+03  0.17096712401E+03 0.  0.
        -24    2    5    5    0    0  0.26890997405E+02  0.10730995176E+02 -0.21980412545E+02  0.90156491535E+02  0.82503178310E+02 0.  0.
          5    1    3    3  501    0 -0.72421872309E+02 -0.21538693637E+02 -0.10623444904E+03  0.13044803975E+03  0.47000000000E+01 0. -1.
        -11    1    4    4    0    0  0.24431110206E+02 -0.34285742227E+02 -0.68862609730E+02  0.80712144592E+02  0.00000000000E+00 0.  1.
         12    1    4    4    0    0  0.18349251755E+02  0.21043056879E+02  0.12053496799E+02  0.30410394076E+02  0.00000000000E+00 0. -1.
         -5    1    5    5    0  502  0.27505129431E+01  0.24050383809E+02 -0.16675950947E+03  0.16857286342E+03  0.47000000000E+01 0.  1.
         11    1    6    6    0    0  0.19241960582E+02  0.70726420520E+01 -0.53617423505E+02  0.57402991350E+02  0.00000000000E+00 0. -1.
        -12    1    6    6    0    0  0.76490368225E+01  0.36583531243E+01  0.31637010959E+02  0.32753500185E+02  0.00000000000E+00 0.  1.
<mgrwt>
<rscale>  2 0.17792912E+03</rscale>
<asrwt>0</asrwt>
<pdfrwt beam="1">  1       21 0.11424342E-01 0.17825022E+03</pdfrwt>
<pdfrwt beam="2">  1       21 0.65544879E-01 0.17825022E+03</pdfrwt>
<totfact> 0.13780079E+05</totfact>
</mgrwt>
</event>
<event>
12    1  0.1039378E-001  0.2204528E+03  0.7546771E-02  0.1133627E+00
         21   -1    0    0  503  502  0.00000000000E+00  0.00000000000E+00  0.43592198320E+03  0.43592198320E+03  0.00000000000E+00 0. -1.
         21   -1    0    0  501  503 -0.00000000000E+00 -0.00000000000E+00 -0.24768995943E+03  0.24768995943E+03  0.00000000000E+00 0. -1.
          6    2    1    2  501    0 -0.12798984647E+03  0.42441573671E+02 -0.15959491145E+03  0.27180738390E+03  0.17385634934E+03 0.  0.
         24    2    3    3    0    0 -0.30570807571E+02 -0.22410366063E+02 -0.23164545441E+02  0.91997545470E+02  0.80561488470E+02 0.  0.
         -6    2    1    2    0  502  0.12798984647E+03 -0.42441573671E+02  0.34782693522E+03  0.41180455874E+03  0.17440392701E+03 0.  0.
        -24    2    5    5    0    0  0.13590042817E+03 -0.84971047624E+02  0.26078058057E+03  0.31448810937E+03  0.72161308385E+02 0.  0.
          5    1    3    3  501    0 -0.97419038897E+02  0.64851939733E+02 -0.13643036601E+03  0.17980983843E+03  0.47000000000E+01 0. -1.
        -11    1    4    4    0    0  0.29188973335E+01 -0.46782159936E+02 -0.63740573818E+01  0.47304535273E+02  0.00000000000E+00 0.  1.
         12    1    4    4    0    0 -0.33489704905E+02  0.24371793873E+02 -0.16790488059E+02  0.44693010197E+02  0.00000000000E+00 0. -1.
         -5    1    5    5    0  502 -0.79105816979E+01  0.42529473954E+02  0.87046354655E+02  0.97316449362E+02  0.47000000000E+01 0.  1.
         11    1    6    6    0    0  0.11782039324E+03 -0.41129631578E+02  0.21488367801E+03  0.24849202549E+03  0.00000000000E+00 0. -1.
        -12    1    6    6    0    0  0.18080034921E+02 -0.43841416047E+02  0.45896902559E+02  0.65996083886E+02  0.00000000000E+00 0.  1.
<mgrwt>
<rscale>  2 0.22034444E+03</rscale>
<asrwt>0</asrwt>
<pdfrwt beam="1">  1       21 0.67064921E-01 0.22045276E+03</pdfrwt>
<pdfrwt beam="2">  1       21 0.38106147E-01 0.22045276E+03</pdfrwt>
<totfact> 0.13283920E+04</totfact>
</mgrwt>
</event>
<event>
12    1  0.1039378E-001  0.2514459E+03  0.7546771E-02  0.1112523E+00
         21   -1    0    0  501  502  0.00000000000E+00  0.00000000000E+00  0.67416135924E+03  0.67416135924E+03  0.00000000000E+00 0.  1.
         21   -1    0    0  502  503 -0.00000000000E+00 -0.00000000000E+00 -0.96626898095E+02  0.96626898095E+02  0.00000000000E+00 0.  1.
         -6    2    1    2    0  503  0.17651748435E+03 -0.42554679672E+02  0.35879541252E+03  0.43813146117E+03  0.17394167466E+03 0.  0.
        -24    2    3    3    0    0  0.18686182503E+03 -0.78430799700E+01  0.24473350280E+03  0.31836456347E+03  0.80514919869E+02 0.  0.
          6    2    1    2  501    0 -0.17651748435E+03  0.42554679672E+02  0.21873904862E+03  0.33265679616E+03  0.17275546184E+03 0.  0.
         24    2    5    5    0    0 -0.58110126489E+02  0.26393120441E+02  0.18279110051E+03  0.20777347716E+03  0.75391297751E+02 0.  0.
          5    1    5    5  501    0 -0.11840735786E+03  0.16161559230E+02  0.35947948114E+02  0.12488331900E+03  0.47000000000E+01 0. -1.
        -11    1    6    6    0    0 -0.64601427170E+02  0.26574061084E+02  0.86136404535E+02  0.11090088052E+03  0.00000000000E+00 0.  1.
         12    1    6    6    0    0  0.64913006810E+01 -0.18094064325E+00  0.96654695975E+02  0.96872596631E+02  0.00000000000E+00 0. -1.
         -5    1    3    3    0  503 -0.10344340681E+02 -0.34711599702E+02  0.11406190972E+03  0.11976689771E+03  0.47000000000E+01 0.  1.
         11    1    4    4    0    0  0.59326831509E+02  0.32890406912E+02  0.10359505785E+03  0.12382805746E+03  0.00000000000E+00 0. -1.
        -12    1    4    4    0    0  0.12753499352E+03 -0.40733486882E+02  0.14113844496E+03  0.19453650601E+03  0.00000000000E+00 0.  1.
<mgrwt>
<rscale>  2 0.25124085E+03</rscale>
<asrwt>0</asrwt>
<pdfrwt beam="1">  1       21 0.10371713E+00 0.25144588E+03</pdfrwt>
<pdfrwt beam="2">  1       21 0.14865677E-01 0.25144588E+03</pdfrwt>
<totfact> 0.29092933E+04</totfact>
</mgrwt>
</event>
<event>
12    1  0.1039378E-001  0.3143380E+03  0.7546771E-02  0.1078370E+00
         21   -1    0    0  503  502  0.00000000000E+00  0.00000000000E+00  0.25351196120E+04  0.25351196120E+04  0.00000000000E+00 0.  1.
         21   -1    0    0  501  503 -0.00000000000E+00 -0.00000000000E+00 -0.47474304294E+02  0.47474304294E+02  0.00000000000E+00 0. -1.
          6    2    1    2  501    0  0.18254084962E+03  0.18769192165E+03  0.69344112920E+03  0.76106241846E+03  0.17264410184E+03 0.  0.
         24    2    3    3    0    0  0.10212886421E+03  0.98790194725E+02  0.55195926089E+03  0.57556629045E+03  0.80173072436E+02 0.  0.
         -6    2    1    2    0  502 -0.18254084962E+03 -0.18769192165E+03  0.17942041785E+04  0.18215314979E+04  0.17395098213E+03 0.  0.
        -24    2    5    5    0    0 -0.15535442742E+03 -0.20405041777E+03  0.13689147245E+04  0.13950342392E+04  0.80133853140E+02 0.  0.
          5    1    3    3  501    0  0.80411985410E+02  0.88901726921E+02  0.14148186831E+03  0.18549612801E+03  0.47000000000E+01 0. -1.
        -11    1    4    4    0    0  0.58188989917E+02  0.41521092719E+02  0.41130965336E+03  0.41747525751E+03  0.00000000000E+00 0.  1.
         12    1    4    4    0    0  0.43939874294E+02  0.57269102006E+02  0.14064960753E+03  0.15809103294E+03  0.00000000000E+00 0. -1.
         -5    1    5    5    0  502 -0.27186422201E+02  0.16358496122E+02  0.42528945400E+03  0.42649725865E+03  0.47000000000E+01 0.  1.
         13    1    6    6    0    0 -0.12241619512E+03 -0.18690498086E+03  0.10219692796E+04  0.10461072627E+04  0.00000000000E+00 0. -1.
        -14    1    6    6    0    0 -0.32938232297E+02 -0.17145436904E+02  0.34694544493E+03  0.34892697648E+03  0.00000000000E+00 0.  1.
<mgrwt>
<rscale>  2 0.31415749E+03</rscale>
<asrwt>0</asrwt>
<pdfrwt beam="1">  1       21 0.39001829E+00 0.31433798E+03</pdfrwt>
<pdfrwt beam="2">  1       21 0.73037411E-02 0.31433798E+03</pdfrwt>
<totfact> 0.12275186E+03</totfact>
</mgrwt>
</event>
<event>
12    1  0.1039378E-001  0.2073145E+03  0.7546771E-02  0.1143903E+00
         21   -1    0    0  501  502  0.00000000000E+00  0.00000000000E+00  0.62064026805E+03  0.62064026805E+03  0.00000000000E+00 0.  1.
         21   -1    0    0  502  503 -0.00000000000E+00 -0.00000000000E+00 -0.85524673105E+02  0.85524673105E+02  0.00000000000E+00 0.  1.
         -6    2    1    2    0  503  0.99382731207E+02 -0.54105653214E+02  0.42258255068E+03  0.47027724460E+03  0.17256977047E+03 0.  0.
        -24    2    3    3    0    0  0.86211202733E+02  0.29894344583E+02  0.24076306482E+03  0.26950397887E+03  0.79620964161E+02 0.  0.
          6    2    1    2  501    0 -0.99382731207E+02  0.54105653214E+02  0.11253304426E+03  0.23588769655E+03  0.17370944235E+03 0.  0.
         24    2    5    5    0    0 -0.10512305264E+03  0.51170342960E+02  0.14457070657E+03  0.20287150139E+03  0.81159698649E+02 0.  0.
          5    1    5    5  501    0  0.57403214327E+01  0.29353102542E+01 -0.32037662307E+02  0.33016195156E+02  0.47000000000E+01 0. -1.
        -13    1    6    6    0    0 -0.87290139126E+02  0.19182096948E+02  0.52188401197E+02  0.10349468804E+03  0.00000000000E+00 0.  1.
         14    1    6    6    0    0 -0.17832913513E+02  0.31988246012E+02  0.92382305374E+02  0.99376813360E+02  0.00000000000E+00 0. -1.
         -5    1    3    3    0  503  0.13171528474E+02 -0.83999997797E+02  0.18181948586E+03  0.20077326573E+03  0.47000000000E+01 0.  1.
         11    1    4    4    0    0  0.38584220598E+01  0.29810390698E+01  0.12406328021E+03  0.12415905730E+03  0.00000000000E+00 0. -1.
        -12    1    4    4    0    0  0.82352780673E+02  0.26913305513E+02  0.11669978461E+03  0.14534492157E+03  0.00000000000E+00 0.  1.
<mgrwt>
<rscale>  2 0.20707563E+03</rscale>
<asrwt>0</asrwt>
<pdfrwt beam="1">  1       21 0.95483115E-01 0.20731454E+03</pdfrwt>
<pdfrwt beam="2">  1       21 0.13157642E-01 0.20731454E+03</pdfrwt>
<totfact> 0.45186477E+04</totfact>
</mgrwt>
</event>
<event>
12    1  0.1039378E-001  0.1791512E+03  0.7546771E-02  0.1168715E+00
         21   -1    0    0  503  502  0.00000000000E+00  0.00000000000E+00  0.11679528569E+03  0.11679528569E+03  0.00000000000E+00 0. -1.
         21   -1    0    0  501  503 -0.00000000000E+00 -0.00000000000E+00 -0.37454675800E+03  0.37454675800E+03  0.00000000000E+00 0. -1.
          6    2    1    2  501    0  0.43557013216E+02 -0.86823145109E+01 -0.25591256242E+03  0.31218142962E+03  0.17318605432E+03 0.  0.
         24    2    3    3    0    0  0.46038722797E+02  0.46459244745E+02 -0.90547686880E+02  0.13778423210E+03  0.80669607647E+02 0.  0.
         -6    2    1    2    0  502 -0.43557013216E+02  0.86823145109E+01 -0.18389098797E+01  0.17916061407E+03  0.17355848598E+03 0.  0.
        -24    2    5    5    0    0 -0.10408283636E+02 -0.61201372219E+02 -0.31123073299E+01  0.10166042384E+03  0.80443862346E+02 0.  0.
          5    1    3    3  501    0 -0.24817095803E+01 -0.55141559256E+02 -0.16536487554E+03  0.17439719752E+03  0.47000000000E+01 0. -1.
        -13    1    4    4    0    0  0.14995034360E+02  0.46917117085E+02 -0.94421512299E+02  0.10649642678E+03  0.00000000000E+00 0.  1.
         14    1    4    4    0    0  0.31043688437E+02 -0.45787233981E+00  0.38738254194E+01  0.31287805328E+02  0.00000000000E+00 0. -1.
         -5    1    5    5    0  502 -0.33148729580E+02  0.69883686730E+02  0.12733974502E+01  0.77500190224E+02  0.47000000000E+01 0.  1.
         11    1    6    6    0    0 -0.21509584576E+02 -0.67839744718E+01  0.29592967520E+02  0.37207905946E+02  0.00000000000E+00 0. -1.
        -12    1    6    6    0    0  0.11101300940E+02 -0.54417397747E+02 -0.32705274850E+02  0.64452517896E+02  0.00000000000E+00 0.  1.
<mgrwt>
<rscale>  2 0.17906091E+03</rscale>
<asrwt>0</asrwt>
<pdfrwt beam="1">  1       21 0.17968505E-01 0.17915118E+03</pdfrwt>
<pdfrwt beam="2">  1       21 0.57622579E-01 0.17915118E+03</pdfrwt>
<totfact> 0.80025566E+04</totfact>
</mgrwt>
</event>
<event>
12    1  0.1039378E-001  0.2370310E+03  0.7546771E-02  0.1121879E+00
         21   -1    0    0  503  502  0.00000000000E+00  0.00000000000E+00  0.33770302963E+03  0.33770302963E+03  0.00000000000E+00 0. -1.
         21   -1    0    0  501  503 -0.00000000000E+00 -0.00000000000E+00 -0.26792393942E+03  0.26792393942E+03  0.00000000000E+00 0.  1.
          6    2    1    2  501    0  0.71540343222E+02  0.14506537820E+03  0.22169589435E+03  0.32455010107E+03  0.17326775197E+03 0.  0.
         24    2    3    3    0    0  0.36080912039E+01  0.10255761549E+03  0.57956381193E+02  0.14219215931E+03  0.79552405567E+02 0.  0.
         -6    2    1    2    0  502 -0.71540343222E+02 -0.14506537820E+03 -0.15191680414E+03  0.28107686799E+03  0.17252102967E+03 0.  0.
        -24    2    5    5    0    0 -0.56796908075E+02 -0.95293587422E+02 -0.19366356225E+02  0.13864684560E+03  0.80877286492E+02 0.  0.
          5    1    3    3  501    0  0.67932252018E+02  0.42507762713E+02  0.16373951315E+03  0.18235794176E+03  0.47000000000E+01 0. -1.
        -13    1    4    4    0    0  0.35891330649E+02  0.73155929961E+02  0.55234522785E+02  0.98442014463E+02  0.00000000000E+00 0.  1.
         14    1    4    4    0    0 -0.32283239445E+02  0.29401685525E+02  0.27218584074E+01  0.43750144845E+02  0.00000000000E+00 0. -1.
         -5    1    5    5    0  502 -0.14743435147E+02 -0.49771790777E+02 -0.13255044791E+03  0.14243002239E+03  0.47000000000E+01 0.  1.
         13    1    6    6    0    0 -0.52015863805E+00 -0.43809345005E+02  0.24964718302E+02  0.50425850857E+02  0.00000000000E+00 0. -1.
        -14    1    6    6    0    0 -0.56276749437E+02 -0.51484242417E+02 -0.44331074527E+02  0.88220994742E+02  0.00000000000E+00 0.  1.
<mgrwt>
<rscale>  2 0.23689457E+03</rscale>
<asrwt>0</asrwt>
<pdfrwt beam="1">  1       21 0.51954312E-01 0.23703101E+03</pdfrwt>
<pdfrwt beam="2">  1       21 0.41219068E-01 0.23703101E+03</pdfrwt>
<totfact> 0.19441292E+04</totfact>
</mgrwt>
</event>
<event>
11    1  0.1039378E-001  0.1994456E+03  0.7546771E-02  0.1151114E+00
         21   -1    0    0  501  502  0.00000000000E+00  0.00000000000E+00  0.61920762228E+02  0.61920762228E+02  0.00000000000E+00 0.  1.
         21   -1    0    0  502  503 -0.00000000000E+00 -0.00000000000E+00 -0.74270798899E+03  0.74270798899E+03  0.00000000000E+00 0.  1.
         -6    2    1    2    0  503  0.82803867117E+02  0.36663997442E+02 -0.49481614247E+03  0.53193151396E+03  0.17293753664E+03 0.  0.
        -24    2    3    3    0    0  0.14844981621E+02  0.74998828583E+02 -0.34904775629E+03  0.36652751822E+03  0.81626513313E+02 0.  0.
          6    2    1    2  501    0 -0.82803867117E+02 -0.36663997442E+02 -0.18597108429E+03  0.27269723726E+03  0.17770146284E+03 0.  0.
          5    1    5    5  501    0  0.32475281760E+01 -0.22259381713E+02  0.62388887288E+01  0.23812606873E+02  0.47000000000E+01 0. -1.
        -11    1    5    5    0    0 -0.18375416171E+02  0.26591319091E+02  0.82626708397E+01  0.33362042801E+02  0.00000000000E+00 0.  1.
         12    1    5    5    0    0 -0.67675979121E+02 -0.40995934820E+02 -0.20047264386E+03  0.21552258758E+03  0.00000000000E+00 0. -1.
         -5    1    3    3    0  503  0.67958885495E+02 -0.38334831141E+02 -0.14576838618E+03  0.16540399574E+03  0.47000000000E+01 0.  1.
         13    1    4    4    0    0 -0.28393390929E+02  0.17576129221E+02 -0.17607546494E+03  0.17921404611E+03  0.00000000000E+00 0. -1.
        -14    1    4    4    0    0  0.43238372550E+02  0.57422699362E+02 -0.17297229134E+03  0.18731347212E+03  0.00000000000E+00 0.  1.
<mgrwt>
<rscale>  2 0.19837891E+03</rscale>
<asrwt>0</asrwt>
<pdfrwt beam="1">  1       21 0.95262719E-02 0.19944558E+03</pdfrwt>
<pdfrwt beam="2">  1       21 0.11426276E+00 0.19944558E+03</pdfrwt>
<totfact> 0.52456182E+04</totfact>
</mgrwt>
</event>
<event>
12    1  0.1039378E-001  0.3241216E+03  0.7546771E-02  0.1073784E+00
         21   -1    0    0  501  502  0.00000000000E+00  0.00000000000E+00  0.18631142521E+03  0.18631142521E+03  0.00000000000E+00 0. -1.
         21   -1    0    0  502  503 -0.00000000000E+00 -0.00000000000E+00 -0.12949589541E+04  0.12949589541E+04  0.00000000000E+00 0.  1.
         -6    2    1    2    0  503  0.34656554232E+02 -0.27112306811E+03 -0.11109692932E+04  0.11572845606E+04  0.17420100196E+03 0.  0.
        -24    2    3    3    0    0 -0.74578152171E+01 -0.78688780941E+02 -0.25690964464E+03  0.28078895411E+03  0.81193152349E+02 0.  0.
          6    2    1    2  501    0 -0.34656554232E+02  0.27112306811E+03  0.23217642552E+01  0.32398581872E+03  0.17393281843E+03 0.  0.
         24    2    5    5    0    0 -0.41683262638E+02  0.13194911056E+03 -0.60039153470E+02  0.17124506073E+03  0.81068543295E+02 0.  0.
          5    1    5    5  501    0  0.70267084066E+01  0.13917395755E+03  0.62360917726E+02  0.15274075799E+03  0.47000000000E+01 0. -1.
        -13    1    6    6    0    0 -0.38841442744E+02  0.23315456342E+02  0.33705607278E+01  0.45427181934E+02  0.00000000000E+00 0.  1.
         14    1    6    6    0    0 -0.28418198945E+01  0.10863365422E+03 -0.63409714198E+02  0.12581787879E+03  0.00000000000E+00 0. -1.
         -5    1    3    3    0  503  0.42114369449E+02 -0.19243428717E+03 -0.85405964853E+03  0.87649560652E+03  0.47000000000E+01 0.  1.
         11    1    4    4    0    0 -0.40382976522E+02 -0.57518856025E+02 -0.19760576841E+03  0.20973135984E+03  0.00000000000E+00 0. -1.
        -12    1    4    4    0    0  0.32925161305E+02 -0.21169924916E+02 -0.59303876233E+02  0.71057594275E+02  0.00000000000E+00 0.  1.
<mgrwt>
<rscale>  2 0.32408554E+03</rscale>
<asrwt>0</asrwt>
<pdfrwt beam="1">  1       21 0.28663297E-01 0.32412156E+03</pdfrwt>
<pdfrwt beam="2">  1       21 0.19922445E+00 0.32412156E+03</pdfrwt>
<totfact> 0.14185139E+03</totfact>
</mgrwt>
</event>
<event>
12    1  0.1039378E-001  0.1832775E+03  0.7546771E-02  0.1164670E+00
         21   -1    0    0  501  502  0.00000000000E+00  0.00000000000E+00  0.78138226945E+02  0.78138226945E+02  0.00000000000E+00 0.  1.
         21   -1    0    0  502  503 -0.00000000000E+00 -0.00000000000E+00 -0.48964466821E+03  0.48964466821E+03  0.00000000000E+00 0.  1.
         -6    2    1    2    0  503 -0.58334251977E+02 -0.18059364277E+02 -0.30493843403E+03  0.35577489148E+03  0.17279843537E+03 0.  0.
        -24    2    3    3    0    0 -0.13744455687E+02  0.55720777437E+02 -0.17396202941E+03  0.19890339052E+03  0.77498748285E+02 0.  0.
          6    2    1    2  501    0  0.58334251977E+02  0.18059364277E+02 -0.10656800723E+03  0.21200800367E+03  0.17280517314E+03 0.  0.
         24    2    5    5    0    0  0.54182137126E+02 -0.33053670058E+02 -0.12083944209E+03  0.15857069283E+03  0.80710871475E+02 0.  0.
          5    1    5    5  501    0  0.41521148511E+01  0.51113034335E+02  0.14271434856E+02  0.53437310837E+02  0.47000000000E+01 0. -1.
        -11    1    6    6    0    0 -0.12927474020E+02  0.46595133793E+00  0.34588929694E+01  0.13390318732E+02  0.00000000000E+00 0.  1.
         12    1    6    6    0    0  0.67109611146E+02 -0.33519621396E+02 -0.12429833506E+03  0.14518037410E+03  0.00000000000E+00 0. -1.
         -5    1    3    3    0  503 -0.44589796291E+02 -0.73780141713E+02 -0.13097640462E+03  0.15687150096E+03  0.47000000000E+01 0.  1.
         11    1    4    4    0    0 -0.48012180015E+01  0.12563771021E+02  0.51847990057E+01  0.14414651480E+02  0.00000000000E+00 0. -1.
        -12    1    4    4    0    0 -0.89432376852E+01  0.43157006415E+02 -0.17914682841E+03  0.18448873904E+03  0.00000000000E+00 0.  1.
<mgrwt>
<rscale>  2 0.18327594E+03</rscale>
<asrwt>0</asrwt>
<pdfrwt beam="1">  1       21 0.12021266E-01 0.18327753E+03</pdfrwt>
<pdfrwt beam="2">  1       21 0.75329949E-01 0.18327753E+03</pdfrwt>
<totfact> 0.92442921E+04</totfact>
</mgrwt>
</event>
<event>
12    1  0.1039378E-001  0.2269356E+03  0.7546771E-02  0.1129537E+00
         21   -1    0    0  501  502  0.00000000000E+00  0.00000000000E+00  0.17891376518E+04  0.17891376518E+04  0.00000000000E+00 0.  1.
         21   -1    0    0  502  503 -0.00000000000E+00 -0.00000000000E+00 -0.33530860452E+02  0.33530860452E+02  0.00000000000E+00 0.  1.
         -6    2    1    2    0  503  0.13558437968E+03 -0.38052590563E+02  0.12449779359E+04  0.12654919325E+04  0.17795686805E+03 0.  0.
        -24    2    3    3    0    0  0.72765445239E+02  0.29828984885E+02  0.39882351104E+03  0.41428483233E+03  0.79919653273E+02 0.  0.
          6    2    1    2  501    0 -0.13558437968E+03  0.38052590563E+02  0.51062885553E+03  0.55717657975E+03  0.17283746487E+03 0.  0.
         24    2    5    5    0    0 -0.15397897173E+03  0.58476124267E+02  0.36118035915E+03  0.40514886907E+03  0.81026991977E+02 0.  0.
          5    1    5    5  501    0  0.18394592050E+02 -0.20423533704E+02  0.14944849638E+03  0.15202771068E+03  0.47000000000E+01 0. -1.
        -11    1    6    6    0    0 -0.54426723632E+02 -0.18637943480E+02  0.10697445881E+03  0.12146265278E+03  0.00000000000E+00 0.  1.
         12    1    6    6    0    0 -0.99552248097E+02  0.77114067747E+02  0.25420590034E+03  0.28368621629E+03  0.00000000000E+00 0. -1.
         -5    1    3    3    0  503  0.62818934440E+02 -0.67881575448E+02  0.84615442482E+03  0.85120710021E+03  0.47000000000E+01 0.  1.
         13    1    4    4    0    0 -0.11803767321E+02  0.16329850757E+02  0.14523123433E+03  0.14662231881E+03  0.00000000000E+00 0. -1.
        -14    1    4    4    0    0  0.84569212560E+02  0.13499134128E+02  0.25359227671E+03  0.26766251352E+03  0.00000000000E+00 0.  1.
<mgrwt>
<rscale>  2 0.22593099E+03</rscale>
<asrwt>0</asrwt>
<pdfrwt beam="1">  1       21 0.27525187E+00 0.22693561E+03</pdfrwt>
<pdfrwt beam="2">  1       21 0.51585953E-02 0.22693561E+03</pdfrwt>
<totfact> 0.11709358E+04</totfact>
</mgrwt>
</event>
<event>
12    1  0.1039378E-001  0.1886472E+03  0.7546771E-02  0.1159833E+00
         21   -1    0    0  501  502  0.00000000000E+00  0.00000000000E+00  0.15058233566E+03  0.15058233566E+03  0.00000000000E+00 0.  1.
         21   -1    0    0  502  503 -0.00000000000E+00 -0.00000000000E+00 -0.25798974187E+03  0.25798974187E+03  0.00000000000E+00 0. -1.
         -6    2    1    2    0  503  0.56117563172E+02  0.47981319771E+02 -0.11405951528E+03  0.22044807133E+03  0.17359836170E+03 0.  0.
        -24    2    3    3    0    0  0.84323075490E+02  0.77275108316E+02 -0.56373750610E+02  0.14971325376E+03  0.78448933499E+02 0.  0.
          6    2    1    2  501    0 -0.56117563172E+02 -0.47981319771E+02  0.66521090695E+01  0.18812400619E+03  0.17290171546E+03 0.  0.
         24    2    5    5    0    0 -0.32343121122E+01 -0.27749407340E+02 -0.57255889286E+02  0.10261207266E+03  0.80439481692E+02 0.  0.
          5    1    5    5  501    0 -0.52883251060E+02 -0.20231912430E+02  0.63907998356E+02  0.85511933536E+02  0.47000000000E+01 0. -1.
        -11    1    6    6    0    0  0.22645887500E+02  0.10792496601E+01  0.10170518787E+02  0.24848349098E+02  0.00000000000E+00 0.  1.
         12    1    6    6    0    0 -0.25880199612E+02 -0.28828657000E+02 -0.67426408073E+02  0.77763723561E+02  0.00000000000E+00 0. -1.
         -5    1    3    3    0  503 -0.28205512318E+02 -0.29293788545E+02 -0.57685764667E+02  0.70734817577E+02  0.47000000000E+01 0.  1.
         11    1    4    4    0    0  0.72970623157E+02  0.59032376288E+02 -0.75878462334E+02  0.12069413548E+03  0.00000000000E+00 0. -1.
        -12    1    4    4    0    0  0.11352452333E+02  0.18242732027E+02  0.19504711725E+02  0.29019118271E+02  0.00000000000E+00 0.  1.
<mgrwt>
<rscale>  2 0.18848681E+03</rscale>
<asrwt>0</asrwt>
<pdfrwt beam="1">  1       21 0.23166513E-01 0.18864723E+03</pdfrwt>
<pdfrwt beam="2">  1       21 0.39690729E-01 0.18864723E+03</pdfrwt>
<totfact> 0.10728245E+05</totfact>
</mgrwt>
</event>
<event>
12    1  0.1039378E-001  0.2383377E+03  0.7546771E-02  0.1121147E+00
         21   -1    0    0  503  502  0.00000000000E+00  0.00000000000E+00  0.11382730809E+03  0.11382730809E+03  0.00000000000E+00 0.  1.
         21   -1    0    0  501  503 -0.00000000000E+00 -0.00000000000E+00 -0.53723621287E+03  0.53723621287E+03  0.00000000000E+00 0. -1.
          6    2    1    2  501    0  0.11880163282E+03  0.10985200159E+03 -0.30242761561E+03  0.38505494601E+03  0.17499588154E+03 0.  0.
         24    2    3    3    0    0  0.13977092471E+03  0.90238413678E+02 -0.17667709277E+03  0.25598253213E+03  0.81445558174E+02 0.  0.
         -6    2    1    2    0  502 -0.11880163282E+03 -0.10985200159E+03 -0.12098128917E+03  0.26600857494E+03  0.17303987807E+03 0.  0.
        -24    2    5    5    0    0 -0.76258328730E+02  0.79548917045E+01 -0.71998472388E+02  0.13143590621E+03  0.78822613588E+02 0.  0.
          5    1    3    3  501    0 -0.20969291893E+02  0.19613587910E+02 -0.12575052284E+03  0.12907241389E+03  0.47000000000E+01 0. -1.
        -11    1    4    4    0    0  0.92068557894E+02  0.94287179820E+02 -0.99355408034E+02  0.16503996103E+03  0.00000000000E+00 0.  1.
         12    1    4    4    0    0  0.47702366819E+02 -0.40487661424E+01 -0.77321684733E+02  0.90942571095E+02  0.00000000000E+00 0. -1.
         -5    1    5    5    0  502 -0.42543304091E+02 -0.11780689329E+03 -0.48982816781E+02  0.13457266873E+03  0.47000000000E+01 0.  1.
         13    1    6    6    0    0 -0.18319166714E+02 -0.17239526180E+02 -0.62722208308E+02  0.67578610130E+02  0.00000000000E+00 0. -1.
        -14    1    6    6    0    0 -0.57939162015E+02  0.25194417885E+02 -0.92762640797E+01  0.63857296082E+02  0.00000000000E+00 0.  1.
<mgrwt>
<rscale>  2 0.23797876E+03</rscale>
<asrwt>0</asrwt>
<pdfrwt beam="1">  1       21 0.17511894E-01 0.23833768E+03</pdfrwt>
<pdfrwt beam="2">  1       21 0.82651724E-01 0.23833768E+03</pdfrwt>
<totfact> 0.36875403E+04</totfact>
</mgrwt>
</event>
<event>
12    1  0.1039378E-001  0.1850780E+03  0.7546771E-02  0.1163473E+00
         21   -1    0    0  503  502  0.00000000000E+00  0.00000000000E+00  0.54062422741E+03  0.54062422741E+03  0.00000000000E+00 0. -1.
         21   -1    0    0  501  503 -0.00000000000E+00 -0.00000000000E+00 -0.69281013478E+02  0.69281013478E+02  0.00000000000E+00 0. -1.
          6    2    1    2  501    0  0.32279039974E+02 -0.49122305468E+02  0.14247477643E+03  0.23356570194E+03  0.17549626175E+03 0.  0.
         24    2    3    3    0    0 -0.19799739216E+02 -0.13878573604E+02  0.62858940481E+01  0.83486317743E+02  0.79660581896E+02 0.  0.
         -6    2    1    2    0  502 -0.32279039974E+02  0.49122305468E+02  0.32886843750E+03  0.37633953894E+03  0.17326875677E+03 0.  0.
        -24    2    5    5    0    0 -0.65037013285E+02  0.11349851085E+02  0.10761086890E+03  0.14945444735E+03  0.79986877109E+02 0.  0.
          5    1    3    3  501    0  0.52078779190E+02 -0.35243731864E+02  0.13618888238E+03  0.15007938420E+03  0.47000000000E+01 0. -1.
        -13    1    4    4    0    0 -0.31760591106E+01  0.15117345019E+02  0.35740893015E+02  0.38936267225E+02  0.00000000000E+00 0.  1.
         14    1    4    4    0    0 -0.16623680105E+02 -0.28995918623E+02 -0.29454998967E+02  0.44550050518E+02  0.00000000000E+00 0. -1.
         -5    1    5    5    0  502  0.32757973311E+02  0.37772454383E+02  0.22125756860E+03  0.22688509159E+03  0.47000000000E+01 0.  1.
         13    1    6    6    0    0 -0.26411373213E+02 -0.32692801360E+02  0.63390004267E+02  0.76057034762E+02  0.00000000000E+00 0. -1.
        -14    1    6    6    0    0 -0.38625640072E+02  0.44042652445E+02  0.44220864635E+02  0.73397412586E+02  0.00000000000E+00 0.  1.
<mgrwt>
<rscale>  2 0.18454805E+03</rscale>
<asrwt>0</asrwt>
<pdfrwt beam="1">  1       21 0.83172955E-01 0.18507802E+03</pdfrwt>
<pdfrwt beam="2">  1       21 0.10658618E-01 0.18507802E+03</pdfrwt>
<totfact> 0.91547256E+04</totfact>
</mgrwt>
</event>
<event>
12    1  0.1039378E-001  0.1843384E+03  0.7546771E-02  0.1163957E+00
         21   -1    0    0  503  502  0.00000000000E+00  0.00000000000E+00  0.85641916580E+02  0.85641916580E+02  0.00000000000E+00 0.  1.
         21   -1    0    0  501  503 -0.00000000000E+00 -0.00000000000E+00 -0.93605149684E+03  0.93605149684E+03  0.00000000000E+00 0.  1.
          6    2    1    2  501    0 -0.56582914212E+02 -0.29246257288E+02 -0.81449012033E+03  0.83508970369E+03  0.17298464483E+03 0.  0.
         24    2    3    3    0    0 -0.97264358514E+02 -0.49082085211E+02 -0.67742290735E+03  0.69066688398E+03  0.79054049194E+02 0.  0.
         -6    2    1    2    0  502  0.56582914212E+02  0.29246257288E+02 -0.35919459937E+02  0.18660370974E+03  0.17167925658E+03 0.  0.
        -24    2    5    5    0    0  0.30342686602E+02  0.55406975535E+02  0.35309063092E+02  0.10617656745E+03  0.77692483356E+02 0.  0.
          5    1    3    3  501    0  0.40681444302E+02  0.19835827923E+02 -0.13706721298E+03  0.14442281971E+03  0.47000000000E+01 0. -1.
        -13    1    4    4    0    0 -0.53465088055E+02 -0.41864221810E+02 -0.57556040847E+03  0.57955233802E+03  0.00000000000E+00 0.  1.
         14    1    4    4    0    0 -0.43799270458E+02 -0.72178634013E+01 -0.10186249888E+03  0.11111454596E+03  0.00000000000E+00 0. -1.
         -5    1    5    5    0  502  0.26240227609E+02 -0.26160718247E+02 -0.71228523029E+02  0.80427142291E+02  0.47000000000E+01 0.  1.
         13    1    6    6    0    0  0.15556351035E+02  0.72254639899E+01 -0.23264852903E+02  0.28904338221E+02  0.00000000000E+00 0. -1.
        -14    1    6    6    0    0  0.14786335567E+02  0.48181511545E+02  0.58573915995E+02  0.77272229224E+02  0.00000000000E+00 0.  1.
<mgrwt>
<rscale>  2 0.18403156E+03</rscale>
<asrwt>0</asrwt>
<pdfrwt beam="1">  1       21 0.13175680E-01 0.18433843E+03</pdfrwt>
<pdfrwt beam="2">  1       21 0.14400792E+00 0.18433843E+03</pdfrwt>
<totfact> 0.16595296E+04</totfact>
</mgrwt>
</event>
<event>
12    1  0.1039378E-001  0.1916991E+03  0.7546771E-02  0.1156972E+00
         21   -1    0    0  503  502  0.00000000000E+00  0.00000000000E+00  0.73330534558E+03  0.73330534558E+03  0.00000000000E+00 0. -1.
         21   -1    0    0  501  503 -0.00000000000E+00 -0.00000000000E+00 -0.53617191816E+02  0.53617191816E+02  0.00000000000E+00 0. -1.
          6    2    1    2  501    0 -0.81287882676E+02 -0.12386826909E+02  0.23881067059E+03  0.30623368792E+03  0.17316865155E+03 0.  0.
         24    2    3    3    0    0 -0.16545350848E+01 -0.58287596594E+02  0.11818030198E+03  0.15450324754E+03  0.80650408070E+02 0.  0.
         -6    2    1    2    0  502  0.81287882676E+02  0.12386826909E+02  0.44087748317E+03  0.48068884948E+03  0.17299613143E+03 0.  0.
        -24    2    5    5    0    0  0.20414884329E+01  0.36368039548E+02  0.12007875207E+03  0.14934460939E+03  0.80982119510E+02 0.  0.
          5    1    3    3  501    0 -0.79633347591E+02  0.45900769684E+02  0.12063036861E+03  0.15173044038E+03  0.47000000000E+01 0. -1.
        -13    1    4    4    0    0  0.26297625554E+02 -0.28155149979E+02  0.10419271320E+03  0.11108734880E+03  0.00000000000E+00 0.  1.
         14    1    4    4    0    0 -0.27952160639E+02 -0.30132446615E+02  0.13987588780E+02  0.43415898738E+02  0.00000000000E+00 0. -1.
         -5    1    5    5    0  502  0.79246394243E+02 -0.23981212638E+02  0.32079873110E+03  0.33134424008E+03  0.47000000000E+01 0.  1.
         11    1    6    6    0    0  0.40176170678E+02  0.28594116011E+02  0.75376496956E+02  0.90074216367E+02  0.00000000000E+00 0. -1.
        -12    1    6    6    0    0 -0.38134682245E+02  0.77739235370E+01  0.44702255116E+02  0.59270393027E+02  0.00000000000E+00 0.  1.
<mgrwt>
<rscale>  2 0.19166011E+03</rscale>
<asrwt>0</asrwt>
<pdfrwt beam="1">  1       21 0.11281620E+00 0.19169907E+03</pdfrwt>
<pdfrwt beam="2">  1       21 0.82487992E-02 0.19169907E+03</pdfrwt>
<totfact> 0.69916899E+04</totfact>
</mgrwt>
</event>
<event>
12    1  0.1039378E-001  0.1963395E+03  0.7546771E-02  0.1152908E+00
         21   -1    0    0  501  502  0.00000000000E+00  0.00000000000E+00  0.89429233138E+02  0.89429233138E+02  0.00000000000E+00 0. -1.
         21   -1    0    0  502  503 -0.00000000000E+00 -0.00000000000E+00 -0.84526482626E+03  0.84526482626E+03  0.00000000000E+00 0. -1.
         -6    2    1    2    0  503 -0.87360747753E+02  0.26891299085E+02 -0.70514742939E+03  0.73191707409E+03  0.17353577143E+03 0.  0.
        -24    2    3    3    0    0 -0.70410298412E+02 -0.34408973619E+01 -0.20949389113E+03  0.23502485252E+03  0.79872028800E+02 0.  0.
          6    2    1    2  501    0  0.87360747753E+02 -0.26891299085E+02 -0.50688163740E+02  0.20277698531E+03  0.17376470762E+03 0.  0.
         24    2    5    5    0    0  0.10675569737E+01  0.49195011244E+01  0.16892871889E+02  0.88550332721E+02  0.86778171997E+02 0.  0.
          5    1    5    5  501    0  0.86293190779E+02 -0.31810800210E+02 -0.67581035630E+02  0.11422665259E+03  0.47000000000E+01 0. -1.
        -13    1    6    6    0    0 -0.19781649564E+02 -0.16977831485E+02 -0.25508758051E+02  0.36472690587E+02  0.00000000000E+00 0.  1.
         14    1    6    6    0    0  0.20849206537E+02  0.21897332609E+02  0.42401629940E+02  0.52077642134E+02  0.00000000000E+00 0. -1.
         -5    1    3    3    0  503 -0.16950449341E+02  0.30332196447E+02 -0.49565353825E+03  0.49689222157E+03  0.47000000000E+01 0.  1.
         13    1    4    4    0    0 -0.22232195877E+01 -0.27223032483E+02 -0.10149729413E+03  0.10510821527E+03  0.00000000000E+00 0. -1.
        -14    1    4    4    0    0 -0.68187078824E+02  0.23782135121E+02 -0.10799659701E+03  0.12991663725E+03  0.00000000000E+00 0.  1.
<mgrwt>
<rscale>  2 0.19628888E+03</rscale>
<asrwt>0</asrwt>
<pdfrwt beam="1">  1       21 0.13758343E-01 0.19633954E+03</pdfrwt>
<pdfrwt beam="2">  1       21 0.13004075E+00 0.19633954E+03</pdfrwt>
<totfact> 0.19772029E+04</totfact>
</mgrwt>
</event>
<event>
12    1  0.1039378E-001  0.2640049E+03  0.7546771E-02  0.1104938E+00
         21   -1    0    0  501  502  0.00000000000E+00  0.00000000000E+00  0.36305776074E+02  0.36305776074E+02  0.00000000000E+00 0.  1.
         21   -1    0    0  502  503 -0.00000000000E+00 -0.00000000000E+00 -0.23945809801E+04  0.23945809801E+04  0.00000000000E+00 0.  1.
         -6    2    1    2    0  503  0.17531942704E+03  0.92599188518E+02 -0.17274657082E+04  0.17475229149E+04  0.17431882856E+03 0.  0.
        -24    2    3    3    0    0  0.68951935231E+02  0.23258920935E+02 -0.41354199769E+03  0.42746999059E+03  0.80114057606E+02 0.  0.
          6    2    1    2  501    0 -0.17531942704E+03 -0.92599188518E+02 -0.63080949577E+03  0.68336384119E+03  0.17249350213E+03 0.  0.
         24    2    5    5    0    0 -0.15498526385E+03 -0.12844245221E+03 -0.57012903027E+03  0.60986263958E+03  0.79796193248E+02 0.  0.
          5    1    5    5  501    0 -0.20334163191E+02  0.35843263692E+02 -0.60680465500E+02  0.73501201610E+02  0.47000000000E+01 0. -1.
        -13    1    6    6    0    0 -0.14478458940E+02  0.39831569913E+01 -0.11818329244E+02  0.19109270499E+02  0.00000000000E+00 0.  1.
         14    1    6    6    0    0 -0.14050680491E+03 -0.13242560920E+03 -0.55831070103E+03  0.59075336908E+03  0.00000000000E+00 0. -1.
         -5    1    3    3    0  503  0.10636749180E+03  0.69340267583E+02 -0.13139237105E+04  0.13200529244E+04  0.47000000000E+01 0.  1.
         11    1    4    4    0    0  0.76639537513E+02  0.41649395330E+02 -0.35755560039E+03  0.36804116375E+03  0.00000000000E+00 0. -1.
        -12    1    4    4    0    0 -0.76876022819E+01 -0.18390474395E+02 -0.55986397297E+02  0.59428826840E+02  0.00000000000E+00 0.  1.
<mgrwt>
<rscale>  2 0.26370393E+03</rscale>
<asrwt>0</asrwt>
<pdfrwt beam="1">  1       21 0.55855026E-02 0.26400486E+03</pdfrwt>
<pdfrwt beam="2">  1       21 0.36839717E+00 0.26400486E+03</pdfrwt>
<totfact> 0.27861479E+03</totfact>
</mgrwt>
</event>
<event>
12    1  0.1039378E-001  0.2181796E+03  0.7546771E-02  0.1137227E+00
         21   -1    0    0  501  502  0.00000000000E+00  0.00000000000E+00  0.34115857395E+03  0.34115857395E+03  0.00000000000E+00 0.  1.
         21   -1    0    0  502  503 -0.00000000000E+00 -0.00000000000E+00 -0.30937955188E+03  0.30937955188E+03  0.00000000000E+00 0. -1.
         -6    2    1    2    0  503  0.10427918026E+03 -0.42847520051E+02 -0.22979895195E+03  0.30991313770E+03  0.17472417460E+03 0.  0.
        -24    2    3    3    0    0  0.77051618038E+02 -0.28023501808E+01 -0.47268559356E+02  0.12101001439E+03  0.80400882276E+02 0.  0.
          6    2    1    2  501    0 -0.10427918026E+03  0.42847520051E+02  0.26157797402E+03  0.34062498813E+03  0.18679477679E+03 0.  0.
         24    2    5    5    0    0 -0.14322773619E+03  0.16588784948E+02  0.17063985422E+03  0.23816356704E+03  0.82550303573E+02 0.  0.
          5    1    5    5  501    0  0.38948555928E+02  0.26258735103E+02  0.90938119804E+02  0.10246142109E+03  0.47000000000E+01 0. -1.
        -13    1    6    6    0    0 -0.47170360829E+02 -0.33126558407E+02  0.66723290140E+02  0.88172610598E+02  0.00000000000E+00 0.  1.
         14    1    6    6    0    0 -0.96057375360E+02  0.49715343354E+02  0.10391656407E+03  0.14999095644E+03  0.00000000000E+00 0. -1.
         -5    1    3    3    0  503  0.27227562223E+02 -0.40045169870E+02 -0.18253039259E+03  0.18890312330E+03  0.47000000000E+01 0.  1.
         13    1    4    4    0    0  0.18150064070E+02 -0.33022774777E+02  0.31236798467E+01  0.37811186909E+02  0.00000000000E+00 0. -1.
        -14    1    4    4    0    0  0.58901553968E+02  0.30220424596E+02 -0.50392239203E+02  0.83198827483E+02  0.00000000000E+00 0.  1.
<mgrwt>
<rscale>  2 0.21557311E+03</rscale>
<asrwt>0</asrwt>
<pdfrwt beam="1">  1       21 0.52485935E-01 0.21817962E+03</pdfrwt>
<pdfrwt beam="2">  1       21 0.47596854E-01 0.21817962E+03</pdfrwt>
<totfact> 0.14300778E+04</totfact>
</mgrwt>
</event>
<event>
12    1  0.1039378E-001  0.2426713E+03  0.7546771E-02  0.1118378E+00
         21   -1    0    0  501  502  0.00000000000E+00  0.00000000000E+00  0.14600945924E+03  0.14600945924E+03  0.00000000000E+00 0.  1.
         21   -1    0    0  502  503 -0.00000000000E+00 -0.00000000000E+00 -0.68351949800E+03  0.68351949800E+03  0.00000000000E+00 0.  1.
         -6    2    1    2    0  503 -0.12255361485E+03 -0.11511946138E+03 -0.53528571350E+03  0.58684746119E+03  0.17200950185E+03 0.  0.
        -24    2    3    3    0    0 -0.46113041629E+02 -0.12181083271E+03 -0.26308292298E+03  0.30399699743E+03  0.78976316121E+02 0.  0.
          6    2    1    2  501    0  0.12255361485E+03  0.11511946138E+03 -0.22243252648E+01  0.24268149606E+03  0.17497851869E+03 0.  0.
         24    2    5    5    0    0  0.51783991338E+02  0.25934742640E+02  0.56913072428E+02  0.11430090767E+03  0.80445056070E+02 0.  0.
          5    1    5    5  501    0  0.70769623511E+02  0.89184718743E+02 -0.59137397693E+02  0.12838058839E+03  0.47000000000E+01 0. -1.
        -13    1    6    6    0    0  0.54263035099E+02 -0.16329859674E+02  0.29783738444E+02  0.64017281814E+02  0.00000000000E+00 0.  1.
         14    1    6    6    0    0 -0.24790437606E+01  0.42264602314E+02  0.27129333984E+02  0.50283625856E+02  0.00000000000E+00 0. -1.
         -5    1    3    3    0  503 -0.76440573220E+02  0.66913713220E+01 -0.27220279051E+03  0.28285046376E+03  0.47000000000E+01 0.  1.
         13    1    4    4    0    0  0.62011868798E+01 -0.31787935283E+02 -0.16532229342E+02  0.36362647803E+02  0.00000000000E+00 0. -1.
        -14    1    4    4    0    0 -0.52314228509E+02 -0.90022897423E+02 -0.24655069364E+03  0.26763434963E+03  0.00000000000E+00 0.  1.
<mgrwt>
<rscale>  2 0.24213653E+03</rscale>
<asrwt>0</asrwt>
<pdfrwt beam="1">  1       21 0.22462994E-01 0.24267130E+03</pdfrwt>
<pdfrwt beam="2">  1       21 0.10515685E+00 0.24267130E+03</pdfrwt>
<totfact> 0.13096751E+04</totfact>
</mgrwt>
</event>
<event>
12    1  0.1039378E-001  0.1781186E+03  0.7546771E-02  0.1169902E+00
         21   -1    0    0  501  502  0.00000000000E+00  0.00000000000E+00  0.11743568897E+03  0.11743568897E+03  0.00000000000E+00 0. -1.
         21   -1    0    0  502  503 -0.00000000000E+00 -0.00000000000E+00 -0.42803565921E+03  0.42803565921E+03  0.00000000000E+00 0. -1.
         -6    2    1    2    0  503  0.28928428168E+02  0.19736204695E+02 -0.32208806398E+03  0.36805838399E+03  0.17464215223E+03 0.  0.
        -24    2    3    3    0    0  0.40385019124E+02  0.52890879162E+02 -0.31420993000E+03  0.33180040679E+03  0.83278058151E+02 0.  0.
          6    2    1    2  501    0 -0.28928428168E+02 -0.19736204695E+02  0.11488093740E+02  0.17741296420E+03  0.17354253610E+03 0.  0.
         24    2    5    5    0    0  0.36689732633E+02  0.17608072444E+01 -0.39967310704E+02  0.91171366370E+02  0.73250223195E+02 0.  0.
          5    1    5    5  501    0 -0.65618160801E+02 -0.21497011940E+02  0.51455404444E+02  0.86241597826E+02  0.47000000000E+01 0. -1.
        -11    1    6    6    0    0  0.38776819286E+02 -0.22102039681E+02 -0.67628856144E-01  0.44633467775E+02  0.00000000000E+00 0.  1.
         12    1    6    6    0    0 -0.20870866530E+01  0.23862846926E+02 -0.39899681847E+02  0.46537898595E+02  0.00000000000E+00 0. -1.
         -5    1    3    3    0  503 -0.11456590956E+02 -0.33154674466E+02 -0.78781339776E+01  0.36257977195E+02  0.47000000000E+01 0.  1.
         11    1    4    4    0    0  0.22445220336E+02 -0.80842816634E+01 -0.19723766453E+03  0.19867521193E+03  0.00000000000E+00 0. -1.
        -12    1    4    4    0    0  0.17939798788E+02  0.60975160825E+02 -0.11697226547E+03  0.13312519486E+03  0.00000000000E+00 0.  1.
<mgrwt>
<rscale>  2 0.17784853E+03</rscale>
<asrwt>0</asrwt>
<pdfrwt beam="1">  1       21 0.18067029E-01 0.17811865E+03</pdfrwt>
<pdfrwt beam="2">  1       21 0.65851640E-01 0.17811865E+03</pdfrwt>
<totfact> 0.59464499E+04</totfact>
</mgrwt>
</event>
<event>
12    1  0.1039378E-001  0.1952339E+03  0.7546771E-02  0.1154010E+00
         21   -1    0    0  501  502  0.00000000000E+00  0.00000000000E+00  0.34524257673E+02  0.34524257673E+02  0.00000000000E+00 0. -1.
         21   -1    0    0  502  503 -0.00000000000E+00 -0.00000000000E+00 -0.15190249228E+04  0.15190249228E+04  0.00000000000E+00 0. -1.
         -6    2    1    2    0  503  0.40531954734E+02 -0.78304183888E+02 -0.11494268405E+04  0.11657467352E+04  0.17323107275E+03 0.  0.
        -24    2    3    3    0    0 -0.14478920203E+02 -0.74992767743E+02 -0.10057504604E+04  0.10117916963E+04  0.79717586992E+02 0.  0.
          6    2    1    2  501    0 -0.40531954734E+02  0.78304183888E+02 -0.33507382467E+03  0.38780244524E+03  0.17418921892E+03 0.  0.
         24    2    5    5    0    0 -0.17395431820E+02  0.12055057073E+03 -0.23826331489E+03  0.27956926781E+03  0.80960034149E+02 0.  0.
          5    1    5    5  501    0 -0.23136522914E+02 -0.42246386842E+02 -0.96810509774E+02  0.10823317743E+03  0.47000000000E+01 0. -1.
        -11    1    6    6    0    0 -0.46776462533E+02  0.44663252413E+02 -0.98279346384E+02  0.11765064169E+03  0.00000000000E+00 0.  1.
         12    1    6    6    0    0  0.29381030714E+02  0.75887318317E+02 -0.13998396851E+03  0.16191862613E+03  0.00000000000E+00 0. -1.
         -5    1    3    3    0  503  0.55010874937E+02 -0.33114161448E+01 -0.14367638004E+03  0.15395503896E+03  0.47000000000E+01 0.  1.
         11    1    4    4    0    0 -0.20728863422E+02 -0.31167129628E+02 -0.14022485571E+03  0.14513471641E+03  0.00000000000E+00 0. -1.
        -12    1    4    4    0    0  0.62499432185E+01 -0.43825638115E+02 -0.86552560470E+03  0.86665697986E+03  0.00000000000E+00 0.  1.
<mgrwt>
<rscale>  2 0.19501993E+03</rscale>
<asrwt>0</asrwt>
<pdfrwt beam="1">  1       21 0.53114237E-02 0.19523388E+03</pdfrwt>
<pdfrwt beam="2">  1       21 0.23369617E+00 0.19523388E+03</pdfrwt>
<totfact> 0.20127046E+04</totfact>
</mgrwt>
</event>
<event>
12    1  0.1039378E-001  0.3000713E+03  0.7546771E-02  0.1085208E+00
         21   -1    0    0  501  502  0.00000000000E+00  0.00000000000E+00  0.47042295272E+02  0.47042295272E+02  0.00000000000E+00 0. -1.
         21   -1    0    0  502  503 -0.00000000000E+00 -0.00000000000E+00 -0.21186716098E+04  0.21186716098E+04  0.00000000000E+00 0.  1.
         -6    2    1    2    0  503  0.22317387407E+03  0.10251212356E+03 -0.13724709920E+04  0.14048912501E+04  0.17241660951E+03 0.  0.
        -24    2    3    3    0    0  0.23643305250E+03  0.75930421541E+02 -0.13069979683E+04  0.13328412707E+04  0.80970035522E+02 0.  0.
          6    2    1    2  501    0 -0.22317387407E+03 -0.10251212356E+03 -0.69915832251E+03  0.76082265494E+03  0.17237586485E+03 0.  0.
         24    2    5    5    0    0 -0.68524289215E+02 -0.97717795474E+02 -0.37691070722E+03  0.40332426999E+03  0.79777439057E+02 0.  0.
          5    1    5    5  501    0 -0.15464958485E+03 -0.47943280875E+01 -0.32224761530E+03  0.35749838495E+03  0.47000000000E+01 0. -1.
        -11    1    6    6    0    0 -0.70826451999E+02 -0.51862016168E+02 -0.30989957103E+03  0.32209284244E+03  0.00000000000E+00 0.  1.
         12    1    6    6    0    0  0.23021627839E+01 -0.45855779306E+02 -0.67011136188E+02  0.81231427554E+02  0.00000000000E+00 0. -1.
         -5    1    3    3    0  503 -0.13259178431E+02  0.26581702021E+02 -0.65473023775E+02  0.72049979440E+02  0.47000000000E+01 0.  1.
         11    1    4    4    0    0  0.17729466434E+03  0.17910220211E+02 -0.91290002618E+03  0.93012936294E+03  0.00000000000E+00 0. -1.
        -12    1    4    4    0    0  0.59138388162E+02  0.58020201330E+02 -0.39409794207E+03  0.40271190777E+03  0.00000000000E+00 0.  1.
<mgrwt>
<rscale>  2 0.30006547E+03</rscale>
<asrwt>0</asrwt>
<pdfrwt beam="1">  1       21 0.72372765E-02 0.30007133E+03</pdfrwt>
<pdfrwt beam="2">  1       21 0.32594946E+00 0.30007133E+03</pdfrwt>
<totfact> 0.30980581E+03</totfact>
</mgrwt>
</event>
<event>
12    1  0.1039378E-001  0.3573387E+03  0.7546771E-02  0.1059701E+00
         21   -1    0    0  501  502  0.00000000000E+00  0.00000000000E+00  0.20671885178E+03  0.20671885178E+03  0.00000000000E+00 0. -1.
         21   -1    0    0  502  503 -0.00000000000E+00 -0.00000000000E+00 -0.61893491764E+03  0.61893491764E+03  0.00000000000E+00 0.  1.
         -6    2    1    2    0  503 -0.49693107004E+02  0.30839872090E+03 -0.23109989772E+03  0.42555623741E+03  0.17352744029E+03 0.  0.
        -24    2    3    3    0    0 -0.83505643983E+02  0.24631900439E+03 -0.12889935947E+03  0.30120102490E+03  0.80378902875E+02 0.  0.
          6    2    1    2  501    0  0.49693107004E+02 -0.30839872090E+03 -0.18111616814E+03  0.40009753201E+03  0.17232467270E+03 0.  0.
         24    2    5    5    0    0  0.72440677853E+02 -0.25342351676E+03 -0.19546264350E+03  0.33871645671E+03  0.83976558548E+02 0.  0.
          5    1    5    5  501    0 -0.22747570848E+02 -0.54975204140E+02  0.14346475362E+02  0.61381075300E+02  0.47000000000E+01 0. -1.
        -13    1    6    6    0    0  0.27499636480E+02 -0.20657309997E+03 -0.12547269550E+03  0.24325310471E+03  0.00000000000E+00 0.  1.
         14    1    6    6    0    0  0.44941041372E+02 -0.46850416797E+02 -0.69989947996E+02  0.95463351995E+02  0.00000000000E+00 0. -1.
         -5    1    3    3    0  503  0.33812536979E+02  0.62079716509E+02 -0.10220053825E+03  0.12435521251E+03  0.47000000000E+01 0.  1.
         11    1    4    4    0    0 -0.24218070930E+02  0.37764865723E+02  0.68646070174E+01  0.45385271533E+02  0.00000000000E+00 0. -1.
        -12    1    4    4    0    0 -0.59287573053E+02  0.20855413867E+03 -0.13576396648E+03  0.25581575337E+03  0.00000000000E+00 0.  1.
<mgrwt>
<rscale>  2 0.35719298E+03</rscale>
<asrwt>0</asrwt>
<pdfrwt beam="1">  1       21 0.31802901E-01 0.35733870E+03</pdfrwt>
<pdfrwt beam="2">  1       21 0.95220755E-01 0.35733870E+03</pdfrwt>
<totfact> 0.80173720E+03</totfact>
</mgrwt>
</event>
<event>
12    1  0.1039378E-001  0.2002922E+03  0.7546771E-02  0.1150212E+00
         21   -1    0    0  501  502  0.00000000000E+00  0.00000000000E+00  0.38276416920E+02  0.38276416920E+02  0.00000000000E+00 0.  1.
         21   -1    0    0  502  503 -0.00000000000E+00 -0.00000000000E+00 -0.13902418695E+04  0.13902418695E+04  0.00000000000E+00 0.  1.
         -6    2    1    2    0  503 -0.90803118671E+02  0.24842980150E+02 -0.31689868188E+03  0.37488899094E+03  0.17678970821E+03 0.  0.
        -24    2    3    3    0    0 -0.42964762901E+01  0.64454079054E+02 -0.13939865834E+03  0.17344225682E+03  0.80482560145E+02 0.  0.
          6    2    1    2  501    0  0.90803118671E+02 -0.24842980150E+02 -0.10350667707E+04  0.10536292955E+04  0.17294245420E+03 0.  0.
         24    2    5    5    0    0  0.61410422005E+02 -0.42189337458E+02 -0.33304795564E+03  0.35076562916E+03  0.81021020241E+02 0.  0.
          5    1    5    5  501    0  0.29392696666E+02  0.17346357308E+02 -0.70201881509E+03  0.70286366634E+03  0.47000000000E+01 0. -1.
        -11    1    6    6    0    0  0.24836635924E+02 -0.21066821745E+02 -0.28474711567E+03  0.28660354036E+03  0.00000000000E+00 0.  1.
         12    1    6    6    0    0  0.36573786081E+02 -0.21122515713E+02 -0.48300839970E+02  0.64162088808E+02  0.00000000000E+00 0. -1.
         -5    1    3    3    0  503 -0.86506642381E+02 -0.39611098904E+02 -0.17750002354E+03  0.20144673413E+03  0.47000000000E+01 0.  1.
         11    1    4    4    0    0  0.92707355747E+01 -0.13846633480E+02 -0.51583312456E+01  0.17443743236E+02  0.00000000000E+00 0. -1.
        -12    1    4    4    0    0 -0.13567211865E+02  0.78300712534E+02 -0.13424032709E+03  0.15599851358E+03  0.00000000000E+00 0.  1.
<mgrwt>
<rscale>  2 0.19943994E+03</rscale>
<asrwt>0</asrwt>
<pdfrwt beam="1">  1       21 0.58886792E-02 0.20029224E+03</pdfrwt>
<pdfrwt beam="2">  1       21 0.21388338E+00 0.20029224E+03</pdfrwt>
<totfact> 0.22210950E+04</totfact>
</mgrwt>
</event>
<event>
12    1  0.1039378E-001  0.2703962E+03  0.7546771E-02  0.1101360E+00
         21   -1    0    0  501  502  0.00000000000E+00  0.00000000000E+00  0.32498461488E+03  0.32498461488E+03  0.00000000000E+00 0.  1.
         21   -1    0    0  502  503 -0.00000000000E+00 -0.00000000000E+00 -0.35079233187E+03  0.35079233187E+03  0.00000000000E+00 0. -1.
         -6    2    1    2    0  503  0.85467981416E+02 -0.18628507349E+03 -0.21665181681E+03  0.34481537303E+03  0.17306856243E+03 0.  0.
        -24    2    3    3    0    0  0.11728843733E+03 -0.99693046651E+02 -0.14713629168E+03  0.22920733369E+03  0.84803492889E+02 0.  0.
          6    2    1    2  501    0 -0.85467981416E+02  0.18628507349E+03  0.19084409981E+03  0.33096157371E+03  0.17637230052E+03 0.  0.
         24    2    5    5    0    0 -0.41098312830E+01  0.13037201122E+03  0.18189008814E+03  0.23172607881E+03  0.59993494751E+02 0.  0.
          5    1    5    5  501    0 -0.81358150133E+02  0.55913062263E+02  0.89540116756E+01  0.99235494909E+02  0.47000000000E+01 0. -1.
        -11    1    6    6    0    0 -0.15245600674E+02  0.12731177328E+03  0.14745731640E+03  0.19540822940E+03  0.00000000000E+00 0.  1.
         12    1    6    6    0    0  0.11135769391E+02  0.30602379405E+01  0.34432771734E+02  0.36317849406E+02  0.00000000000E+00 0. -1.
         -5    1    3    3    0  503 -0.31820455916E+02 -0.86592026835E+02 -0.69515525129E+02  0.11560803934E+03  0.47000000000E+01 0.  1.
         11    1    4    4    0    0  0.87843792028E+02 -0.53423102271E+02 -0.14029998665E+03  0.17393862684E+03  0.00000000000E+00 0. -1.
        -12    1    4    4    0    0  0.29444645305E+02 -0.46269944380E+02 -0.68363050273E+01  0.55268706846E+02  0.00000000000E+00 0.  1.
<mgrwt>
<rscale>  2 0.26985876E+03</rscale>
<asrwt>0</asrwt>
<pdfrwt beam="1">  1       21 0.49997633E-01 0.27039618E+03</pdfrwt>
<pdfrwt beam="2">  1       21 0.53968051E-01 0.27039618E+03</pdfrwt>
<totfact> 0.11828034E+04</totfact>
</mgrwt>
</event>
<event>
12    1  0.1039378E-001  0.1845192E+03  0.7546771E-02  0.1164874E+00
         21   -1    0    0  503  502  0.00000000000E+00  0.00000000000E+00  0.21925628171E+03  0.21925628171E+03  0.00000000000E+00 0.  1.
         21   -1    0    0  501  503 -0.00000000000E+00 -0.00000000000E+00 -0.19880441491E+03  0.19880441491E+03  0.00000000000E+00 0.  1.
          6    2    1    2  501    0  0.35493772417E+02 -0.46587439256E+02 -0.92956956048E+02  0.20147607966E+03  0.16888285177E+03 0.  0.
         24    2    3    3    0    0  0.86821744058E+02 -0.19140903346E+02 -0.43736427410E+02  0.12510446552E+03  0.76379727607E+02 0.  0.
         -6    2    1    2    0  502 -0.35493772417E+02  0.46587439256E+02  0.11340882285E+03  0.21658461696E+03  0.17497753520E+03 0.  0.
        -24    2    5    5    0    0 -0.53439548402E+02 -0.29959390050E+02  0.35091311022E+02  0.10551171022E+03  0.78408995008E+02 0.  0.
          5    1    3    3  501    0 -0.51327971641E+02 -0.27446535910E+02 -0.49220528639E+02  0.76371614136E+02  0.47000000000E+01 0. -1.
        -13    1    4    4    0    0  0.65921318218E+02  0.16274839882E+02 -0.48875119482E+02  0.83661627483E+02  0.00000000000E+00 0.  1.
         14    1    4    4    0    0  0.20900425841E+02 -0.35415743227E+02  0.51386920727E+01  0.41442838041E+02  0.00000000000E+00 0. -1.
         -5    1    5    5    0  502  0.17945775984E+02  0.76546829306E+02  0.78317511828E+02  0.11107290674E+03  0.47000000000E+01 0.  1.
         11    1    6    6    0    0  0.14273083497E+02 -0.14866644687E+02  0.29400479737E+02  0.35904404264E+02  0.00000000000E+00 0. -1.
        -12    1    6    6    0    0 -0.67712631899E+02 -0.15092745363E+02  0.56908312842E+01  0.69607305953E+02  0.00000000000E+00 0.  1.
<mgrwt>
<rscale>  2 0.18305971E+03</rscale>
<asrwt>0</asrwt>
<pdfrwt beam="1">  1       21 0.33731735E-01 0.18451920E+03</pdfrwt>
<pdfrwt beam="2">  1       21 0.30585295E-01 0.18451920E+03</pdfrwt>
<totfact> 0.87156511E+04</totfact>
</mgrwt>
</event>
<event>
12    1  0.1039378E-001  0.2048388E+03  0.7546771E-02  0.1145742E+00
         21   -1    0    0  501  502  0.00000000000E+00  0.00000000000E+00  0.27600058472E+03  0.27600058472E+03  0.00000000000E+00 0.  1.
         21   -1    0    0  502  503 -0.00000000000E+00 -0.00000000000E+00 -0.15755115569E+03  0.15755115569E+03  0.00000000000E+00 0. -1.
         -6    2    1    2    0  503 -0.49621966795E+02  0.97575721302E+02  0.18336678323E+02  0.20565792238E+03  0.17313459010E+03 0.  0.
        -24    2    3    3    0    0  0.11325727767E+02  0.71471977538E+02 -0.42266610343E+02  0.11570862828E+03  0.79784112619E+02 0.  0.
          6    2    1    2  501    0  0.49621966795E+02 -0.97575721302E+02  0.10011275070E+03  0.22789381803E+03  0.17300193198E+03 0.  0.
         24    2    5    5    0    0 -0.34723438990E+02 -0.66909774101E+02  0.78989486561E+02  0.13557464298E+03  0.80364853926E+02 0.  0.
          5    1    5    5  501    0  0.84345405784E+02 -0.30665947201E+02  0.21123264143E+02  0.92319175054E+02  0.47000000000E+01 0. -1.
        -13    1    6    6    0    0  0.16768781156E+02 -0.50370970938E+02  0.54896189682E+02  0.76367652683E+02  0.00000000000E+00 0.  1.
         14    1    6    6    0    0 -0.51492220146E+02 -0.16538803164E+02  0.24093296879E+02  0.59206990298E+02  0.00000000000E+00 0. -1.
         -5    1    3    3    0  503 -0.60947694562E+02  0.26103743764E+02  0.60603288666E+02  0.89949294094E+02  0.47000000000E+01 0.  1.
         11    1    4    4    0    0 -0.10695156445E+02 -0.14281716717E+02 -0.58583188472E+00  0.17852086790E+02  0.00000000000E+00 0. -1.
        -12    1    4    4    0    0  0.22020884212E+02  0.85753694255E+02 -0.41680778458E+02  0.97856541492E+02  0.00000000000E+00 0.  1.
<mgrwt>
<rscale>  2 0.20481080E+03</rscale>
<asrwt>0</asrwt>
<pdfrwt beam="1">  1       21 0.42461628E-01 0.20483883E+03</pdfrwt>
<pdfrwt beam="2">  1       21 0.24238639E-01 0.20483883E+03</pdfrwt>
<totfact> 0.85293614E+04</totfact>
</mgrwt>
</event>
<event>
12    1  0.1039378E-001  0.2163693E+03  0.7546771E-02  0.1136868E+00
         21   -1    0    0  501  502  0.00000000000E+00  0.00000000000E+00  0.40237860068E+02  0.40237860068E+02  0.00000000000E+00 0.  1.
         21   -1    0    0  502  503 -0.00000000000E+00 -0.00000000000E+00 -0.11764295362E+04  0.11764295362E+04  0.00000000000E+00 0.  1.
         -6    2    1    2    0  503 -0.11047480055E+03 -0.66357452051E+02 -0.49059042220E+03  0.53618524835E+03  0.17380352471E+03 0.  0.
        -24    2    3    3    0    0  0.81509858181E+01 -0.12351547259E+02 -0.24573567100E+03  0.25876020600E+03  0.79698336968E+02 0.  0.
          6    2    1    2  501    0  0.11047480055E+03  0.66357452051E+02 -0.64560125396E+03  0.68048214794E+03  0.17218298855E+03 0.  0.
         24    2    5    5    0    0  0.12656515161E+03  0.93495068737E+02 -0.59519133694E+03  0.62082815084E+03  0.80092445458E+02 0.  0.
          5    1    5    5  501    0 -0.16090351055E+02 -0.27137616686E+02 -0.50409917016E+02  0.59653997100E+02  0.47000000000E+01 0. -1.
        -13    1    6    6    0    0  0.45370546914E+02  0.78508346487E+02 -0.37087835218E+03  0.38180204178E+03  0.00000000000E+00 0.  1.
         14    1    6    6    0    0  0.81194604693E+02  0.14986722251E+02 -0.22431298476E+03  0.23902610905E+03  0.00000000000E+00 0. -1.
         -5    1    3    3    0  503 -0.11862578637E+03 -0.54005904792E+02 -0.24485475120E+03  0.27742504236E+03  0.47000000000E+01 0.  1.
         11    1    4    4    0    0 -0.21926367837E+02  0.10884806956E+02 -0.25802339111E+02  0.35566913453E+02  0.00000000000E+00 0. -1.
        -12    1    4    4    0    0  0.30077353655E+02 -0.23236354215E+02 -0.21993333189E+03  0.22319329254E+03  0.00000000000E+00 0.  1.
<mgrwt>
<rscale>  2 0.21604364E+03</rscale>
<asrwt>0</asrwt>
<pdfrwt beam="1">  1       21 0.61904393E-02 0.21636926E+03</pdfrwt>
<pdfrwt beam="2">  1       21 0.18098918E+00 0.21636926E+03</pdfrwt>
<totfact> 0.32974352E+04</totfact>
</mgrwt>
</event>
<event>
12    1  0.1039378E-001  0.1876338E+03  0.7546771E-02  0.1160857E+00
         21   -1    0    0  501  502  0.00000000000E+00  0.00000000000E+00  0.15681601724E+03  0.15681601724E+03  0.00000000000E+00 0.  1.
         21   -1    0    0  502  503 -0.00000000000E+00 -0.00000000000E+00 -0.31925200081E+03  0.31925200081E+03  0.00000000000E+00 0.  1.
         -6    2    1    2    0  503  0.69331558162E+02 -0.20131127147E+02 -0.21191523619E+03  0.28304509534E+03  0.17318871623E+03 0.  0.
        -24    2    3    3    0    0  0.47453249331E+02 -0.55760518827E+01 -0.42005826944E+02  0.11105146766E+03  0.91022171725E+02 0.  0.
          6    2    1    2  501    0 -0.69331558162E+02  0.20131127147E+02  0.49479252617E+02  0.19302292271E+03  0.17203931242E+03 0.  0.
         24    2    5    5    0    0  0.62020678863E+00  0.65100648379E+02  0.31645453468E+02  0.10784286841E+03  0.79938541802E+02 0.  0.
          5    1    5    5  501    0 -0.69951764950E+02 -0.44969521232E+02  0.17833799149E+02  0.85180054306E+02  0.47000000000E+01 0. -1.
        -11    1    6    6    0    0 -0.10811791289E+01  0.29667518213E+02  0.56980822823E+02  0.64250640112E+02  0.00000000000E+00 0.  1.
         12    1    6    6    0    0  0.17013859175E+01  0.35433130166E+02 -0.25335369356E+02  0.43592228296E+02  0.00000000000E+00 0. -1.
         -5    1    3    3    0  503  0.21878308831E+02 -0.14555075264E+02 -0.16990940924E+03  0.17199362768E+03  0.47000000000E+01 0.  1.
         13    1    4    4    0    0 -0.20402014257E+02 -0.23416245042E+02 -0.41630323674E+01  0.31335180805E+02  0.00000000000E+00 0. -1.
        -14    1    4    4    0    0  0.67855263588E+02  0.17840193159E+02 -0.37842794576E+02  0.79716286855E+02  0.00000000000E+00 0.  1.
<mgrwt>
<rscale>  2 0.18736818E+03</rscale>
<asrwt>0</asrwt>
<pdfrwt beam="1">  1       21 0.24125541E-01 0.18763384E+03</pdfrwt>
<pdfrwt beam="2">  1       21 0.49115692E-01 0.18763384E+03</pdfrwt>
<totfact> 0.64246405E+04</totfact>
</mgrwt>
</event>
<event>
12    1  0.1039378E-001  0.1850295E+03  0.7546771E-02  0.1164010E+00
         21   -1    0    0  503  502  0.00000000000E+00  0.00000000000E+00  0.18318363470E+04  0.18318363470E+04  0.00000000000E+00 0. -1.
         21   -1    0    0  501  503 -0.00000000000E+00 -0.00000000000E+00 -0.19398477203E+02  0.19398477203E+02  0.00000000000E+00 0. -1.
          6    2    1    2  501    0  0.65937487705E+02  0.97599661842E+01  0.69270237447E+03  0.71698849251E+03  0.17260622690E+03 0.  0.
         24    2    3    3    0    0 -0.24681694518E+02  0.71053282282E+01  0.41951275349E+03  0.42911084089E+03  0.86518736088E+02 0.  0.
         -6    2    1    2    0  502 -0.65937487705E+02 -0.97599661842E+01  0.11197354953E+04  0.11342463317E+04  0.16811945827E+03 0.  0.
        -24    2    5    5    0    0 -0.90266575515E+02  0.20442928971E+02  0.55205191245E+03  0.56522009359E+03  0.78399439763E+02 0.  0.
          5    1    3    3  501    0  0.90619182223E+02  0.26546379561E+01  0.27318962098E+03  0.28787765162E+03  0.47000000000E+01 0. -1.
        -11    1    4    4    0    0 -0.45236323441E+01 -0.23114605831E+02  0.34897346489E+03  0.34976739049E+03  0.00000000000E+00 0.  1.
         12    1    4    4    0    0 -0.20158062174E+02  0.30219934060E+02  0.70539288601E+02  0.79343450400E+02  0.00000000000E+00 0. -1.
         -5    1    5    5    0  502  0.24329087810E+02 -0.30202895155E+02  0.56768358285E+03  0.56902623808E+03  0.47000000000E+01 0.  1.
         13    1    6    6    0    0 -0.39942230562E+02  0.47718261543E+02  0.33601210666E+03  0.34172584054E+03  0.00000000000E+00 0. -1.
        -14    1    6    6    0    0 -0.50324344953E+02 -0.27275332572E+02  0.21603980579E+03  0.22349425306E+03  0.00000000000E+00 0.  1.
<mgrwt>
<rscale>  2 0.18397597E+03</rscale>
<asrwt>0</asrwt>
<pdfrwt beam="1">  1       21 0.28182084E+00 0.18502951E+03</pdfrwt>
<pdfrwt beam="2">  1       21 0.29843826E-02 0.18502951E+03</pdfrwt>
<totfact> 0.27921590E+04</totfact>
</mgrwt>
</event>
<event>
12    1  0.1039378E-001  0.2230621E+03  0.7546771E-02  0.1131873E+00
         21   -1    0    0  501  502  0.00000000000E+00  0.00000000000E+00  0.81353889890E+02  0.81353889890E+02  0.00000000000E+00 0. -1.
         21   -1    0    0  502  503 -0.00000000000E+00 -0.00000000000E+00 -0.61750650176E+03  0.61750650176E+03  0.00000000000E+00 0. -1.
         -6    2    1    2    0  503 -0.46220076630E+02  0.13408198986E+03 -0.22519700200E+03  0.31697064435E+03  0.17216975396E+03 0.  0.
        -24    2    3    3    0    0 -0.58570795627E+02  0.19849313155E+02 -0.65598288716E+02  0.12025896709E+03  0.79589888491E+02 0.  0.
          6    2    1    2  501    0  0.46220076630E+02 -0.13408198986E+03 -0.31095560987E+03  0.38188974730E+03  0.17038812252E+03 0.  0.
         24    2    5    5    0    0  0.43909720076E+02 -0.16839255214E+02 -0.78263455996E+02  0.12127715158E+03  0.79820767453E+02 0.  0.
          5    1    5    5  501    0  0.23103565541E+01 -0.11724273465E+03 -0.23269215388E+03  0.26061259573E+03  0.47000000000E+01 0. -1.
        -13    1    6    6    0    0 -0.42071234184E+01  0.38208629821E+01  0.14044426055E+02  0.15150735447E+02  0.00000000000E+00 0.  1.
         14    1    6    6    0    0  0.48116843494E+02 -0.20660118196E+02 -0.92307882051E+02  0.10612641613E+03  0.00000000000E+00 0. -1.
         -5    1    3    3    0  503  0.12350718998E+02  0.11423267671E+03 -0.15959871328E+03  0.19671167726E+03  0.47000000000E+01 0.  1.
         11    1    4    4    0    0 -0.19187556645E+02 -0.30808684946E+02 -0.28439770539E+02  0.46110280269E+02  0.00000000000E+00 0. -1.
        -12    1    4    4    0    0 -0.39383238982E+02  0.50657998101E+02 -0.37158518177E+02  0.74148686822E+02  0.00000000000E+00 0.  1.
<mgrwt>
<rscale>  2 0.22271824E+03</rscale>
<asrwt>0</asrwt>
<pdfrwt beam="1">  1       21 0.12515984E-01 0.22306210E+03</pdfrwt>
<pdfrwt beam="2">  1       21 0.95000997E-01 0.22306210E+03</pdfrwt>
<totfact> 0.49659524E+04</totfact>
</mgrwt>
</event>
<event>
12    1  0.1039378E-001  0.1794067E+03  0.7546771E-02  0.1168727E+00
         21   -1    0    0  501  502  0.00000000000E+00  0.00000000000E+00  0.13588197926E+03  0.13588197926E+03  0.00000000000E+00 0. -1.
         21   -1    0    0  502  503 -0.00000000000E+00 -0.00000000000E+00 -0.25381637369E+03  0.25381637369E+03  0.00000000000E+00 0. -1.
         -6    2    1    2    0  503  0.46588425768E+02 -0.13449433295E+02 -0.11225048949E+03  0.21162923179E+03  0.17272924098E+03 0.  0.
        -24    2    3    3    0    0 -0.70843344335E+01 -0.73421737675E+02 -0.79110579696E+02  0.12446395143E+03  0.61578015783E+02 0.  0.
          6    2    1    2  501    0 -0.46588425768E+02  0.13449433295E+02 -0.56839049428E+01  0.17806912116E+03  0.17124525238E+03 0.  0.
         24    2    5    5    0    0 -0.48356701448E+01 -0.72500901448E+01 -0.68714711045E+02  0.99540556989E+02  0.71488904445E+02 0.  0.
          5    1    5    5  501    0 -0.41752755624E+02  0.20699523440E+02  0.63030806102E+02  0.78528564171E+02  0.47000000000E+01 0. -1.
        -13    1    6    6    0    0  0.22853200473E+02 -0.24209740192E+02 -0.55003302089E+02  0.64294195171E+02  0.00000000000E+00 0.  1.
         14    1    6    6    0    0 -0.27688870618E+02  0.16959650047E+02 -0.13711408956E+02  0.35246361818E+02  0.00000000000E+00 0. -1.
         -5    1    3    3    0  503  0.53672760202E+02  0.59972304379E+02 -0.33139909792E+02  0.87165280366E+02  0.47000000000E+01 0.  1.
         13    1    4    4    0    0  0.17894229161E+02 -0.50281572145E+02 -0.21490363741E+02  0.57534995163E+02  0.00000000000E+00 0. -1.
        -14    1    4    4    0    0 -0.24978563595E+02 -0.23140165529E+02 -0.57620215956E+02  0.66928956265E+02  0.00000000000E+00 0.  1.
<mgrwt>
<rscale>  2 0.17904854E+03</rscale>
<asrwt>0</asrwt>
<pdfrwt beam="1">  1       21 0.20904920E-01 0.17940669E+03</pdfrwt>
<pdfrwt beam="2">  1       21 0.39048673E-01 0.17940669E+03</pdfrwt>
<totfact> 0.13495487E+05</totfact>
</mgrwt>
</event>
<event>
12    1  0.1039378E-001  0.3175549E+03  0.7546771E-02  0.1076847E+00
         21   -1    0    0  503  502  0.00000000000E+00  0.00000000000E+00  0.22479585220E+03  0.22479585220E+03  0.00000000000E+00 0. -1.
         21   -1    0    0  501  503 -0.00000000000E+00 -0.00000000000E+00 -0.95312521082E+03  0.95312521082E+03  0.00000000000E+00 0.  1.
          6    2    1    2  501    0 -0.15580412022E+03 -0.21531731801E+03 -0.79286011686E+03  0.85387576592E+03  0.17274312550E+03 0.  0.
         24    2    3    3    0    0 -0.15901361828E+02 -0.10979224711E+03 -0.41617656715E+03  0.43839904092E+03  0.81753245822E+02 0.  0.
         -6    2    1    2    0  502  0.15580412022E+03  0.21531731801E+03  0.64530758246E+02  0.32404529710E+03  0.17379489205E+03 0.  0.
        -24    2    5    5    0    0  0.99582996906E+02  0.69428509895E+02  0.80836844188E+02  0.16678011507E+03  0.80894500101E+02 0.  0.
          5    1    3    3  501    0 -0.13990275839E+03 -0.10552507090E+03 -0.37668354971E+03  0.41547672500E+03  0.47000000000E+01 0. -1.
        -13    1    4    4    0    0 -0.14600927865E+02 -0.92387968472E+02 -0.40894839837E+03  0.41950866063E+03  0.00000000000E+00 0.  1.
         14    1    4    4    0    0 -0.13004339637E+01 -0.17404278642E+02 -0.72281687712E+01  0.18890380285E+02  0.00000000000E+00 0. -1.
         -5    1    5    5    0  502  0.56221123313E+02  0.14588880812E+03 -0.16306085942E+02  0.15726518203E+03  0.47000000000E+01 0.  1.
         11    1    6    6    0    0  0.35028292630E+02  0.65122127056E+02  0.16966511985E+02  0.75866562106E+02  0.00000000000E+00 0. -1.
        -12    1    6    6    0    0  0.64554704276E+02  0.43063828385E+01  0.63870332203E+02  0.90913552967E+02  0.00000000000E+00 0.  1.
<mgrwt>
<rscale>  2 0.31741124E+03</rscale>
<asrwt>0</asrwt>
<pdfrwt beam="1">  1       21 0.34583976E-01 0.31755493E+03</pdfrwt>
<pdfrwt beam="2">  1       21 0.14663465E+00 0.31755493E+03</pdfrwt>
<totfact> 0.23342278E+03</totfact>
</mgrwt>
</event>
<event>
12    1  0.1039378E-001  0.2448260E+03  0.7546771E-02  0.1116738E+00
         21   -1    0    0  503  502  0.00000000000E+00  0.00000000000E+00  0.12897241525E+04  0.12897241525E+04  0.00000000000E+00 0.  1.
         21   -1    0    0  501  503 -0.00000000000E+00 -0.00000000000E+00 -0.88312212418E+02  0.88312212418E+02  0.00000000000E+00 0.  1.
          6    2    1    2  501    0  0.16975533101E+03  0.29766687678E+02  0.12520232099E+03  0.27433038212E+03  0.17285430069E+03 0.  0.
         24    2    3    3    0    0  0.19130149240E+03  0.62780656183E+01  0.12512867930E+03  0.24211163199E+03  0.79531005650E+02 0.  0.
         -6    2    1    2    0  502 -0.16975533101E+03 -0.29766687678E+02  0.10762096190E+04  0.11037059828E+04  0.17388738928E+03 0.  0.
        -24    2    5    5    0    0 -0.99197642559E+02 -0.77973707592E+02  0.79010904086E+03  0.80507923411E+03  0.89219983115E+02 0.  0.
          5    1    3    3  501    0 -0.21546161384E+02  0.23488622060E+02  0.73641692245E-01  0.32218750127E+02  0.47000000000E+01 0. -1.
        -11    1    4    4    0    0  0.48066674752E+02  0.31279935380E+02  0.13801249907E+02  0.58985710796E+02  0.00000000000E+00 0.  1.
         12    1    4    4    0    0  0.14323481764E+03 -0.25001869762E+02  0.11132742940E+03  0.18312592119E+03  0.00000000000E+00 0. -1.
         -5    1    5    5    0  502 -0.70557688454E+02  0.48207019914E+02  0.28610057819E+03  0.29862674865E+03  0.47000000000E+01 0.  1.
         11    1    6    6    0    0 -0.32682553128E+02  0.13127089777E+02  0.10508104873E+03  0.11082642540E+03  0.00000000000E+00 0. -1.
        -12    1    6    6    0    0 -0.66515089431E+02 -0.91100797369E+02  0.68502799213E+03  0.69425280871E+03  0.00000000000E+00 0.  1.
<mgrwt>
<rscale>  2 0.24464259E+03</rscale>
<asrwt>0</asrwt>
<pdfrwt beam="1">  1       21 0.19841909E+00 0.24482596E+03</pdfrwt>
<pdfrwt beam="2">  1       21 0.13586495E-01 0.24482596E+03</pdfrwt>
<totfact> 0.61840945E+03</totfact>
</mgrwt>
</event>
<event>
12    1  0.1039378E-001  0.2498909E+03  0.7546771E-02  0.1113974E+00
         21   -1    0    0  501  502  0.00000000000E+00  0.00000000000E+00  0.53164453069E+02  0.53164453069E+02  0.00000000000E+00 0. -1.
         21   -1    0    0  502  503 -0.00000000000E+00 -0.00000000000E+00 -0.12969299574E+04  0.12969299574E+04  0.00000000000E+00 0. -1.
         -6    2    1    2    0  503  0.15741919555E+02 -0.17429051791E+03 -0.83945597652E+03  0.87479274192E+03  0.17306360722E+03 0.  0.
        -24    2    3    3    0    0 -0.42823074154E+02 -0.51086631800E+02 -0.29361836004E+03  0.31214733884E+03  0.82344156848E+02 0.  0.
          6    2    1    2  501    0 -0.15741919555E+02  0.17429051791E+03 -0.40430952781E+03  0.47530166854E+03  0.17838298455E+03 0.  0.
         24    2    5    5    0    0  0.22605555069E+02  0.61601427230E+01 -0.13098772455E+03  0.15209082403E+03  0.73653759537E+02 0.  0.
          5    1    5    5  501    0 -0.38347474624E+02  0.16813037519E+03 -0.27332180326E+03  0.32321084451E+03  0.47000000000E+01 0. -1.
        -11    1    6    6    0    0  0.19069288213E+02  0.21562677847E+02 -0.13307289399E+03  0.13615058554E+03  0.00000000000E+00 0.  1.
         12    1    6    6    0    0  0.35362668564E+01 -0.15402535124E+02  0.20851694406E+01  0.15940238490E+02  0.00000000000E+00 0. -1.
         -5    1    3    3    0  503  0.58564993709E+02 -0.12320388611E+03 -0.54583761648E+03  0.56264540308E+03  0.47000000000E+01 0.  1.
         11    1    4    4    0    0 -0.45223262476E+02 -0.37308806136E+02 -0.29227582958E+03  0.29809772063E+03  0.00000000000E+00 0. -1.
        -12    1    4    4    0    0  0.24001883220E+01 -0.13777825664E+02 -0.13425304551E+01  0.14049618217E+02  0.00000000000E+00 0.  1.
<mgrwt>
<rscale>  2 0.24894331E+03</rscale>
<asrwt>0</asrwt>
<pdfrwt beam="1">  1       21 0.81791471E-02 0.24989094E+03</pdfrwt>
<pdfrwt beam="2">  1       21 0.19952767E+00 0.24989094E+03</pdfrwt>
<totfact> 0.14985855E+04</totfact>
</mgrwt>
</event>
<event>
12    1  0.1039378E-001  0.1851278E+03  0.7546771E-02  0.1163408E+00
         21   -1    0    0  503  502  0.00000000000E+00  0.00000000000E+00  0.34517102757E+03  0.34517102757E+03  0.00000000000E+00 0. -1.
         21   -1    0    0  501  503 -0.00000000000E+00 -0.00000000000E+00 -0.11579572186E+03  0.11579572186E+03  0.00000000000E+00 0.  1.
          6    2    1    2  501    0 -0.22027295688E+02 -0.61070720649E+02  0.25385945941E+02  0.18686025251E+03  0.17337091175E+03 0.  0.
         24    2    3    3    0    0 -0.11705190468E+02 -0.10814358564E+03  0.29858621657E+02  0.13823417614E+03  0.79906843058E+02 0.  0.
         -6    2    1    2    0  502  0.22027295688E+02  0.61070720649E+02  0.20398935977E+03  0.27410649692E+03  0.17119543825E+03 0.  0.
        -24    2    5    5    0    0  0.58504189070E+02  0.67172715902E+02  0.20424351882E+03  0.23682442759E+03  0.80221447394E+02 0.  0.
          5    1    3    3  501    0 -0.10322105220E+02  0.47072864991E+02 -0.44726757162E+01  0.48626076365E+02  0.47000000000E+01 0. -1.
        -11    1    4    4    0    0  0.11266100736E+02 -0.69236190757E+02 -0.17997402229E+02  0.72418793303E+02  0.00000000000E+00 0.  1.
         12    1    4    4    0    0 -0.22971291203E+02 -0.38907394882E+02  0.47856023887E+02  0.65815382839E+02  0.00000000000E+00 0. -1.
         -5    1    5    5    0  502 -0.36476893382E+02 -0.61019952533E+01 -0.25415904409E+00  0.37282069333E+02  0.47000000000E+01 0.  1.
         11    1    6    6    0    0  0.47033602738E+01  0.42958606717E+02  0.15198472292E+03  0.15800923862E+03  0.00000000000E+00 0. -1.
        -12    1    6    6    0    0  0.53800828796E+02  0.24214109185E+02  0.52258795899E+02  0.78815188965E+02  0.00000000000E+00 0.  1.
<mgrwt>
<rscale>  2 0.18461677E+03</rscale>
<asrwt>0</asrwt>
<pdfrwt beam="1">  1       21 0.53103235E-01 0.18512781E+03</pdfrwt>
<pdfrwt beam="2">  1       21 0.17814727E-01 0.18512781E+03</pdfrwt>
<totfact> 0.96401603E+04</totfact>
</mgrwt>
</event>
<event>
12    1  0.1039378E-001  0.2414618E+03  0.7546771E-02  0.1120698E+00
         21   -1    0    0  501  502  0.00000000000E+00  0.00000000000E+00  0.57170452861E+03  0.57170452861E+03  0.00000000000E+00 0. -1.
         21   -1    0    0  502  503 -0.00000000000E+00 -0.00000000000E+00 -0.10992753233E+03  0.10992753233E+03  0.00000000000E+00 0.  1.
         -6    2    1    2    0  503 -0.12898061936E+03  0.76812791557E+02  0.12048087277E+03  0.26985077018E+03  0.18912322000E+03 0.  0.
        -24    2    3    3    0    0 -0.17369929834E+02  0.84544608467E+02  0.20900755834E+02  0.12000078954E+03  0.80708380058E+02 0.  0.
          6    2    1    2  501    0  0.12898061936E+03 -0.76812791557E+02  0.34129612351E+03  0.41178129077E+03  0.17477008436E+03 0.  0.
         24    2    5    5    0    0  0.85506959978E+02  0.19737685588E+02  0.13505373286E+03  0.17989776958E+03  0.80141626538E+02 0.  0.
          5    1    5    5  501    0  0.43473659377E+02 -0.96550477144E+02  0.20624239065E+03  0.23188352118E+03  0.47000000000E+01 0. -1.
        -11    1    6    6    0    0  0.25448547356E+02  0.27015315047E+02  0.10691993211E+03  0.11317830044E+03  0.00000000000E+00 0.  1.
         12    1    6    6    0    0  0.60058412623E+02 -0.72776294595E+01  0.28133800754E+02  0.66719469139E+02  0.00000000000E+00 0. -1.
         -5    1    3    3    0  503 -0.11161068952E+03 -0.77318169103E+01  0.99580116939E+02  0.14984998064E+03  0.47000000000E+01 0.  1.
         11    1    4    4    0    0 -0.27299662488E+02  0.59952390149E+02  0.48439649749E+02  0.81767721775E+02  0.00000000000E+00 0. -1.
        -12    1    4    4    0    0  0.99297326537E+01  0.24592218318E+02 -0.27538893915E+02  0.38233067761E+02  0.00000000000E+00 0.  1.
<mgrwt>
<rscale>  2 0.23864563E+03</rscale>
<asrwt>0</asrwt>
<pdfrwt beam="1">  1       21 0.87954541E-01 0.24146179E+03</pdfrwt>
<pdfrwt beam="2">  1       21 0.16911928E-01 0.24146179E+03</pdfrwt>
<totfact> 0.34036618E+04</totfact>
</mgrwt>
</event>
<event>
12    1  0.1039378E-001  0.5039207E+03  0.7546771E-02  0.1012913E+00
         21   -1    0    0  503  502  0.00000000000E+00  0.00000000000E+00  0.35974338383E+03  0.35974338383E+03  0.00000000000E+00 0. -1.
         21   -1    0    0  501  503 -0.00000000000E+00 -0.00000000000E+00 -0.10812839903E+04  0.10812839903E+04  0.00000000000E+00 0.  1.
          6    2    1    2  501    0  0.32332809274E+03 -0.34483101515E+03 -0.78772220622E+03  0.93511621542E+03  0.17460405952E+03 0.  0.
         24    2    3    3    0    0  0.15412911149E+03 -0.22271970656E+03 -0.35110363141E+03  0.45117682168E+03  0.83228082606E+02 0.  0.
         -6    2    1    2    0  502 -0.32332809274E+03  0.34483101515E+03  0.66181599776E+02  0.50591115868E+03  0.16768008757E+03 0.  0.
        -24    2    5    5    0    0 -0.18966807468E+03  0.12020051556E+03  0.26494377334E+02  0.24148531388E+03  0.84800131463E+02 0.  0.
          5    1    3    3  501    0  0.16919898125E+03 -0.12211130859E+03 -0.43661857481E+03  0.48393939374E+03  0.47000000000E+01 0. -1.
        -13    1    4    4    0    0  0.12903377484E+03 -0.11726764501E+03 -0.20215812600E+03  0.26696315013E+03  0.00000000000E+00 0.  1.
         14    1    4    4    0    0  0.25095336644E+02 -0.10545206155E+03 -0.14894550541E+03  0.18421367155E+03  0.00000000000E+00 0. -1.
         -5    1    5    5    0  502 -0.13366001806E+03  0.22463049959E+03  0.39687222442E+02  0.26442584480E+03  0.47000000000E+01 0.  1.
         11    1    6    6    0    0 -0.12283870324E+03  0.12199837406E+03  0.16969381159E+02  0.17395663305E+03  0.00000000000E+00 0. -1.
        -12    1    6    6    0    0 -0.66829371442E+02 -0.17978584957E+01  0.95249961749E+01  0.67528680830E+02  0.00000000000E+00 0.  1.
<mgrwt>
<rscale>  2 0.50333039E+03</rscale>
<asrwt>0</asrwt>
<pdfrwt beam="1">  1       21 0.55345137E-01 0.50392069E+03</pdfrwt>
<pdfrwt beam="2">  1       21 0.16635138E+00 0.50392069E+03</pdfrwt>
<totfact> 0.56689295E+02</totfact>
</mgrwt>
</event>
<event>
12    1  0.1039378E-001  0.2353015E+03  0.7546771E-02  0.1124242E+00
         21   -1    0    0  503  502  0.00000000000E+00  0.00000000000E+00  0.10685352277E+03  0.10685352277E+03  0.00000000000E+00 0.  1.
         21   -1    0    0  501  503 -0.00000000000E+00 -0.00000000000E+00 -0.77762885285E+03  0.77762885285E+03  0.00000000000E+00 0. -1.
          6    2    1    2  501    0  0.79966420303E+02  0.12665476846E+03 -0.60206179198E+03  0.64640946696E+03  0.18146828611E+03 0.  0.
         24    2    3    3    0    0  0.84647871317E+02  0.32727935277E+02 -0.46071013478E+03  0.47656675452E+03  0.81398177871E+02 0.  0.
         -6    2    1    2    0  502 -0.79966420303E+02 -0.12665476846E+03 -0.68713538094E+02  0.23807290866E+03  0.17181705611E+03 0.  0.
        -24    2    5    5    0    0 -0.53632653664E+02 -0.86752523370E+02 -0.11363178523E+03  0.17230517072E+03  0.79840011216E+02 0.  0.
          5    1    3    3  501    0 -0.46814510140E+01  0.93926833181E+02 -0.14135165720E+03  0.16984271244E+03  0.47000000000E+01 0. -1.
        -13    1    4    4    0    0  0.29141912055E+02  0.23949179380E+01 -0.32531089350E+02  0.43740809828E+02  0.00000000000E+00 0.  1.
         14    1    4    4    0    0  0.55505959262E+02  0.30333017339E+02 -0.42817904543E+03  0.43282594469E+03  0.00000000000E+00 0. -1.
         -5    1    5    5    0  502 -0.26333766639E+02 -0.39902245087E+02  0.44918247135E+02  0.65767737942E+02  0.47000000000E+01 0.  1.
         13    1    6    6    0    0  0.10370206497E+02 -0.55959181420E+02 -0.64071607125E+02  0.85697969682E+02  0.00000000000E+00 0. -1.
        -14    1    6    6    0    0 -0.64002860161E+02 -0.30793341951E+02 -0.49560178105E+02  0.86607201035E+02  0.00000000000E+00 0.  1.
<mgrwt>
<rscale>  2 0.23343942E+03</rscale>
<asrwt>0</asrwt>
<pdfrwt beam="1">  1       21 0.16439003E-01 0.23530150E+03</pdfrwt>
<pdfrwt beam="2">  1       21 0.11963521E+00 0.23530150E+03</pdfrwt>
<totfact> 0.17198257E+04</totfact>
</mgrwt>
</event>
<event>
12    1  0.1039378E-001  0.2169532E+03  0.7546771E-02  0.1138909E+00
         21   -1    0    0  503  502  0.00000000000E+00  0.00000000000E+00  0.21850410804E+03  0.21850410804E+03  0.00000000000E+00 0. -1.
         21   -1    0    0  501  503 -0.00000000000E+00 -0.00000000000E+00 -0.41612359824E+03  0.41612359824E+03  0.00000000000E+00 0. -1.
          6    2    1    2  501    0 -0.27026755342E+02 -0.10216862189E+03 -0.32804509418E+03  0.39329669803E+03  0.18947252059E+03 0.  0.
         24    2    3    3    0    0  0.46502635293E+02 -0.75189871801E+02 -0.11034245633E+03  0.16188591009E+03  0.78838939027E+02 0.  0.
         -6    2    1    2    0  502  0.27026755342E+02  0.10216862189E+03  0.13042560399E+03  0.24133100826E+03  0.17338092331E+03 0.  0.
        -24    2    5    5    0    0  0.82686775786E+02  0.10212412316E+03  0.94656115480E+02  0.17500163193E+03  0.66327607830E+02 0.  0.
          5    1    3    3  501    0 -0.73529390635E+02 -0.26978750085E+02 -0.21770263785E+03  0.23141078793E+03  0.47000000000E+01 0. -1.
        -11    1    4    4    0    0  0.33110197669E+02 -0.89774573619E+02 -0.10345642533E+03  0.14092193300E+03  0.00000000000E+00 0.  1.
         12    1    4    4    0    0  0.13392437624E+02  0.14584701819E+02 -0.68860310024E+01  0.20963977095E+02  0.00000000000E+00 0. -1.
         -5    1    5    5    0  502 -0.55660020444E+02  0.44498729729E-01  0.35769488506E+02  0.66329376327E+02  0.47000000000E+01 0.  1.
         13    1    6    6    0    0  0.16613388220E+01  0.49074239772E+02  0.42841270671E+02  0.65164526612E+02  0.00000000000E+00 0. -1.
        -14    1    6    6    0    0  0.81025436964E+02  0.53049883383E+02  0.51814844809E+02  0.10983710532E+03  0.00000000000E+00 0.  1.
<mgrwt>
<rscale>  2 0.21339097E+03</rscale>
<asrwt>0</asrwt>
<pdfrwt beam="1">  1       21 0.33616017E-01 0.21695324E+03</pdfrwt>
<pdfrwt beam="2">  1       21 0.64019014E-01 0.21695324E+03</pdfrwt>
<totfact> 0.18926274E+04</totfact>
</mgrwt>
</event>
<event>
12    1  0.1039378E-001  0.2077506E+03  0.7546771E-02  0.1143547E+00
         21   -1    0    0  503  502  0.00000000000E+00  0.00000000000E+00  0.21761842438E+03  0.21761842438E+03  0.00000000000E+00 0. -1.
         21   -1    0    0  501  503 -0.00000000000E+00 -0.00000000000E+00 -0.24212463658E+03  0.24212463658E+03  0.00000000000E+00 0. -1.
          6    2    1    2  501    0  0.73549934812E+02  0.85499997994E+02 -0.11098116927E+03  0.23471368184E+03  0.17336046245E+03 0.  0.
         24    2    3    3    0    0  0.16563002424E+02  0.78449656391E+01 -0.11094651791E+03  0.13827766308E+03  0.80471769797E+02 0.  0.
         -6    2    1    2    0  502 -0.73549934812E+02 -0.85499997994E+02  0.86474957069E+02  0.22502937912E+03  0.17447194818E+03 0.  0.
        -24    2    5    5    0    0  0.86862462595E-01 -0.41389069371E+02 -0.14408018097E+02  0.92486493175E+02  0.81443832338E+02 0.  0.
          5    1    3    3  501    0  0.56986932388E+02  0.77655032355E+02 -0.34651352533E-01  0.96436018758E+02  0.47000000000E+01 0. -1.
        -13    1    4    4    0    0 -0.15817370478E+02  0.58080772310E+01  0.52401935045E+01  0.17646036323E+02  0.00000000000E+00 0.  1.
         14    1    4    4    0    0  0.32380372901E+02  0.20368884081E+01 -0.11618671142E+03  0.12063162676E+03  0.00000000000E+00 0. -1.
         -5    1    5    5    0  502 -0.73636797274E+02 -0.44110928623E+02  0.10088297517E+03  0.13254288595E+03  0.47000000000E+01 0.  1.
         13    1    6    6    0    0 -0.38070435641E+02 -0.23483549870E+02  0.68955511507E+01  0.45259074339E+02  0.00000000000E+00 0. -1.
        -14    1    6    6    0    0  0.38157298104E+02 -0.17905519501E+02 -0.21303569248E+02  0.47227418836E+02  0.00000000000E+00 0.  1.
<mgrwt>
<rscale>  2 0.20751705E+03</rscale>
<asrwt>0</asrwt>
<pdfrwt beam="1">  1       21 0.33479758E-01 0.20775058E+03</pdfrwt>
<pdfrwt beam="2">  1       21 0.37249944E-01 0.20775058E+03</pdfrwt>
<totfact> 0.59306701E+04</totfact>
</mgrwt>
</event>
<event>
12    1  0.1039378E-001  0.2919474E+03  0.7546771E-02  0.1090110E+00
         21   -1    0    0  501  502  0.00000000000E+00  0.00000000000E+00  0.18826478519E+03  0.18826478519E+03  0.00000000000E+00 0.  1.
         21   -1    0    0  502  503 -0.00000000000E+00 -0.00000000000E+00 -0.44363616664E+03  0.44363616664E+03  0.00000000000E+00 0. -1.
         -6    2    1    2    0  503 -0.22787395327E+03 -0.58843447876E+02 -0.12424878328E+03  0.31185963016E+03  0.16257176519E+03 0.  0.
        -24    2    3    3    0    0 -0.10509923732E+03 -0.58052061367E+02 -0.28710521141E+02  0.15621931821E+03  0.95730297420E+02 0.  0.
          6    2    1    2  501    0  0.22787395327E+03  0.58843447876E+02 -0.13112259816E+03  0.32004132167E+03  0.17275480280E+03 0.  0.
         24    2    5    5    0    0  0.19874620347E+03  0.77687699494E+02 -0.52240894821E+02  0.23373984573E+03  0.79810853555E+02 0.  0.
          5    1    5    5  501    0  0.29127749807E+02 -0.18844251618E+02 -0.78881703339E+02  0.86301475941E+02  0.47000000000E+01 0. -1.
        -13    1    6    6    0    0  0.13898594439E+03  0.57250687271E+02 -0.73204467707E+02  0.16719338511E+03  0.00000000000E+00 0.  1.
         14    1    6    6    0    0  0.59760259074E+02  0.20437012223E+02  0.20963572886E+02  0.66546460622E+02  0.00000000000E+00 0. -1.
         -5    1    3    3    0  503 -0.12277471596E+03 -0.79138650919E+00 -0.95538262143E+02  0.15564031195E+03  0.47000000000E+01 0.  1.
         11    1    4    4    0    0 -0.26050802314E+02  0.25925058743E+02 -0.16364592687E+02  0.40231242410E+02  0.00000000000E+00 0. -1.
        -12    1    4    4    0    0 -0.79048435001E+02 -0.83977120110E+02 -0.12345928454E+02  0.11598807580E+03  0.00000000000E+00 0.  1.
<mgrwt>
<rscale>  2 0.29045915E+03</rscale>
<asrwt>0</asrwt>
<pdfrwt beam="1">  1       21 0.28963814E-01 0.29194745E+03</pdfrwt>
<pdfrwt beam="2">  1       21 0.68251717E-01 0.29194745E+03</pdfrwt>
<totfact> 0.21274527E+04</totfact>
</mgrwt>
</event>
<event>
12    1  0.1039378E-001  0.1954668E+03  0.7546771E-02  0.1154398E+00
         21   -1    0    0  503  502  0.00000000000E+00  0.00000000000E+00  0.37295245104E+03  0.37295245104E+03  0.00000000000E+00 0.  1.
         21   -1    0    0  501  503 -0.00000000000E+00 -0.00000000000E+00 -0.15187502558E+03  0.15187502558E+03  0.00000000000E+00 0.  1.
          6    2    1    2  501    0  0.64758551378E+02 -0.62810063124E+02 -0.41263498411E+02  0.19977474614E+03  0.17340270727E+03 0.  0.
         24    2    3    3    0    0  0.61562374400E+02 -0.21946572841E+02 -0.86277008761E+02  0.13871455863E+03  0.86754991405E+02 0.  0.
         -6    2    1    2    0  502 -0.64758551378E+02  0.62810063124E+02  0.26234092387E+03  0.32505273048E+03  0.16940408275E+03 0.  0.
        -24    2    5    5    0    0 -0.40958369410E+02  0.56139790594E+02  0.27716634467E+03  0.29584957484E+03  0.76658490742E+02 0.  0.
          5    1    3    3  501    0  0.31961769784E+01 -0.40863490283E+02  0.45013510351E+02  0.61060187516E+02  0.47000000000E+01 0. -1.
        -11    1    4    4    0    0  0.14640662224E+02 -0.42618823728E+01 -0.87238991908E+02  0.88561585018E+02  0.00000000000E+00 0.  1.
         12    1    4    4    0    0  0.46921712176E+02 -0.17684690468E+02  0.96198314712E+00  0.50152973611E+02  0.00000000000E+00 0. -1.
         -5    1    5    5    0  502 -0.23800181968E+02  0.66702725301E+01 -0.14825420803E+02  0.29203155640E+02  0.47000000000E+01 0.  1.
         11    1    6    6    0    0  0.19106624147E+02  0.23194743162E+02  0.13132758781E+03  0.13472191550E+03  0.00000000000E+00 0. -1.
        -12    1    6    6    0    0 -0.60064993557E+02  0.32945047432E+02  0.14583875686E+03  0.16112765934E+03  0.00000000000E+00 0.  1.
<mgrwt>
<rscale>  2 0.19457614E+03</rscale>
<asrwt>0</asrwt>
<pdfrwt beam="1">  1       21 0.57377300E-01 0.19546681E+03</pdfrwt>
<pdfrwt beam="2">  1       21 0.23365389E-01 0.19546681E+03</pdfrwt>
<totfact> 0.49049531E+04</totfact>
</mgrwt>
</event>
<event>
12    1  0.1039378E-001  0.2610797E+03  0.7546771E-02  0.1106688E+00
         21   -1    0    0  503  502  0.00000000000E+00  0.00000000000E+00  0.20455462042E+03  0.20455462042E+03  0.00000000000E+00 0. -1.
         21   -1    0    0  501  503 -0.00000000000E+00 -0.00000000000E+00 -0.33277930741E+03  0.33277930741E+03  0.00000000000E+00 0. -1.
          6    2    1    2  501    0  0.18655410756E+03 -0.57594270932E+02 -0.48232260849E+02  0.26549753553E+03  0.17332932613E+03 0.  0.
         24    2    3    3    0    0  0.96285251460E+02 -0.72471589273E+02  0.31526576104E+02  0.14403411283E+03  0.72311269922E+02 0.  0.
         -6    2    1    2    0  502 -0.18655410756E+03  0.57594270932E+02 -0.79992426137E+02  0.27183639230E+03  0.17139632682E+03 0.  0.
        -24    2    5    5    0    0 -0.17529177081E+03 -0.72875079808E+01 -0.59809854981E+02  0.20280080986E+03  0.82283880812E+02 0.  0.
          5    1    3    3  501    0  0.90268856096E+02  0.14877318341E+02 -0.79758836952E+02  0.12146342270E+03  0.47000000000E+01 0. -1.
        -13    1    4    4    0    0 -0.53524260353E+01  0.87704937194E+01  0.40706264685E+01  0.11051697806E+02  0.00000000000E+00 0.  1.
         14    1    4    4    0    0  0.10163767750E+03 -0.81242082993E+02  0.27455949635E+02  0.13298241503E+03  0.00000000000E+00 0. -1.
         -5    1    5    5    0  502 -0.11262336747E+02  0.64881778913E+02 -0.20182571156E+02  0.69035582437E+02  0.47000000000E+01 0.  1.
         11    1    6    6    0    0 -0.91898528019E+02  0.27019890897E+02 -0.59235735794E+02  0.11262453707E+03  0.00000000000E+00 0. -1.
        -12    1    6    6    0    0 -0.83393242792E+02 -0.34307398878E+02 -0.57411918668E+00  0.90176272788E+02  0.00000000000E+00 0.  1.
<mgrwt>
<rscale>  2 0.26075925E+03</rscale>
<asrwt>0</asrwt>
<pdfrwt beam="1">  1       21 0.31469942E-01 0.26107966E+03</pdfrwt>
<pdfrwt beam="2">  1       21 0.51196816E-01 0.26107966E+03</pdfrwt>
<totfact> 0.34070922E+04</totfact>
</mgrwt>
</event>
<event>
12    1  0.1039378E-001  0.2912638E+03  0.7546771E-02  0.1089796E+00
         21   -1    0    0  501  502  0.00000000000E+00  0.00000000000E+00  0.13983113013E+03  0.13983113013E+03  0.00000000000E+00 0.  1.
         21   -1    0    0  502  503 -0.00000000000E+00 -0.00000000000E+00 -0.75110248049E+03  0.75110248049E+03  0.00000000000E+00 0. -1.
         -6    2    1    2    0  503  0.18091724146E+03  0.14803903255E+03 -0.10952038527E+03  0.31117409146E+03  0.17374693377E+03 0.  0.
        -24    2    3    3    0    0  0.17306856803E+03  0.17697436739E+03 -0.10171605752E+03  0.27983956085E+03  0.81800779367E+02 0.  0.
          6    2    1    2  501    0 -0.18091724146E+03 -0.14803903255E+03 -0.50175096509E+03  0.57975951916E+03  0.17239624612E+03 0.  0.
         24    2    5    5    0    0 -0.47275817681E+02 -0.10867606966E+03 -0.31702804426E+03  0.34834188700E+03  0.82400232618E+02 0.  0.
          5    1    5    5  501    0 -0.13364142378E+03 -0.39362962889E+02 -0.18472292083E+03  0.23141763216E+03  0.47000000000E+01 0. -1.
        -11    1    6    6    0    0  0.91742667384E+01 -0.50841878577E+02 -0.19685527817E+03  0.20352165568E+03  0.00000000000E+00 0.  1.
         12    1    6    6    0    0 -0.56450084420E+02 -0.57834191080E+02 -0.12017276609E+03  0.14482023132E+03  0.00000000000E+00 0. -1.
         -5    1    3    3    0  503  0.78486734243E+01 -0.28935334845E+02 -0.78043277483E+01  0.31334530612E+02  0.47000000000E+01 0.  1.
         11    1    4    4    0    0  0.37182203384E+02  0.12032672323E+02 -0.43224168793E+02  0.58272036343E+02  0.00000000000E+00 0. -1.
        -12    1    4    4    0    0  0.13588636465E+03  0.16494169507E+03 -0.58491888728E+02  0.22156752451E+03  0.00000000000E+00 0.  1.
<mgrwt>
<rscale>  2 0.29106267E+03</rscale>
<asrwt>0</asrwt>
<pdfrwt beam="1">  1       21 0.21512481E-01 0.29126380E+03</pdfrwt>
<pdfrwt beam="2">  1       21 0.11555423E+00 0.29126380E+03</pdfrwt>
<totfact> 0.11010768E+04</totfact>
</mgrwt>
</event>
<event>
12    1  0.1039378E-001  0.2322997E+03  0.7546771E-02  0.1125336E+00
         21   -1    0    0  501  502  0.00000000000E+00  0.00000000000E+00  0.35308733276E+02  0.35308733276E+02  0.00000000000E+00 0. -1.
         21   -1    0    0  502  503 -0.00000000000E+00 -0.00000000000E+00 -0.15920143449E+04  0.15920143449E+04  0.00000000000E+00 0.  1.
         -6    2    1    2    0  503  0.13613264129E+03  0.73560657376E+02 -0.59879271327E+03  0.64164550085E+03  0.17091801824E+03 0.  0.
        -24    2    3    3    0    0  0.60726564258E+02  0.10832200556E+03 -0.35663434382E+03  0.38560411030E+03  0.77981422105E+02 0.  0.
          6    2    1    2  501    0 -0.13613264129E+03 -0.73560657376E+02 -0.95791289832E+03  0.98567757729E+03  0.17326251546E+03 0.  0.
         24    2    5    5    0    0 -0.59442930957E+02 -0.34465982589E+02 -0.79227789662E+03  0.79895117568E+03  0.76794203301E+02 0.  0.
          5    1    5    5  501    0 -0.76689710334E+02 -0.39094674787E+02 -0.16563500170E+03  0.18672640161E+03  0.47000000000E+01 0. -1.
        -11    1    6    6    0    0 -0.73327026639E+02 -0.16001485464E+02 -0.48132803596E+03  0.48714430980E+03  0.00000000000E+00 0.  1.
         12    1    6    6    0    0  0.13884095681E+02 -0.18464497126E+02 -0.31094986066E+03  0.31180686588E+03  0.00000000000E+00 0. -1.
         -5    1    3    3    0  503  0.75406077033E+02 -0.34761348184E+02 -0.24215836945E+03  0.25604139055E+03  0.47000000000E+01 0.  1.
         11    1    4    4    0    0  0.23275161098E+02  0.14758252266E+02 -0.19584618539E+02  0.33809708923E+02  0.00000000000E+00 0. -1.
        -12    1    4    4    0    0  0.37451403160E+02  0.93563753294E+02 -0.33704972528E+03  0.35179440138E+03  0.00000000000E+00 0.  1.
<mgrwt>
<rscale>  2 0.23186266E+03</rscale>
<asrwt>0</asrwt>
<pdfrwt beam="1">  1       21 0.54321113E-02 0.23229973E+03</pdfrwt>
<pdfrwt beam="2">  1       21 0.24492535E+00 0.23229973E+03</pdfrwt>
<totfact> 0.16105745E+04</totfact>
</mgrwt>
</event>
<event>
12    1  0.1039378E-001  0.1964604E+03  0.7546771E-02  0.1153120E+00
         21   -1    0    0  501  502  0.00000000000E+00  0.00000000000E+00  0.90469972933E+02  0.90469972933E+02  0.00000000000E+00 0. -1.
         21   -1    0    0  502  503 -0.00000000000E+00 -0.00000000000E+00 -0.50248484116E+03  0.50248484116E+03  0.00000000000E+00 0.  1.
         -6    2    1    2    0  503  0.45737857987E+02  0.81085476288E+02 -0.87375158316E+02  0.21349777253E+03  0.17111421468E+03 0.  0.
        -24    2    3    3    0    0 -0.13230427725E+02  0.72049182019E+02 -0.91497359306E+00  0.10834851254E+03  0.79827527495E+02 0.  0.
          6    2    1    2  501    0 -0.45737857987E+02 -0.81085476288E+02 -0.32463970991E+03  0.37945704156E+03  0.17300259831E+03 0.  0.
         24    2    5    5    0    0 -0.87374670254E+02 -0.43032494100E+02 -0.28068145703E+03  0.30779065066E+03  0.80416887284E+02 0.  0.
          5    1    5    5  501    0  0.41636812266E+02 -0.38052982189E+02 -0.43958252880E+02  0.71666390905E+02  0.47000000000E+01 0. -1.
        -13    1    6    6    0    0 -0.72980249619E+02 -0.65670783036E+02 -0.23698198983E+03  0.25651360994E+03  0.00000000000E+00 0.  1.
         14    1    6    6    0    0 -0.14394420635E+02  0.22638288936E+02 -0.43699467198E+02  0.51277040718E+02  0.00000000000E+00 0. -1.
         -5    1    3    3    0  503  0.58968285713E+02  0.90362942700E+01 -0.86460184723E+02  0.10514925999E+03  0.47000000000E+01 0.  1.
         11    1    4    4    0    0  0.32295951911E+02  0.39840707801E+02  0.78902688935E+01  0.51889949423E+02  0.00000000000E+00 0. -1.
        -12    1    4    4    0    0 -0.45526379636E+02  0.32208474217E+02 -0.88052424866E+01  0.56458563118E+02  0.00000000000E+00 0.  1.
<mgrwt>
<rscale>  2 0.19604391E+03</rscale>
<asrwt>0</asrwt>
<pdfrwt beam="1">  1       21 0.13918458E-01 0.19646044E+03</pdfrwt>
<pdfrwt beam="2">  1       21 0.77305359E-01 0.19646044E+03</pdfrwt>
<totfact> 0.66647218E+04</totfact>
</mgrwt>
</event>
<event>
12    1  0.1039378E-001  0.2361358E+03  0.7546771E-02  0.1122683E+00
         21   -1    0    0  503  502  0.00000000000E+00  0.00000000000E+00  0.59264061201E+02  0.59264061201E+02  0.00000000000E+00 0. -1.
         21   -1    0    0  501  503 -0.00000000000E+00 -0.00000000000E+00 -0.10044705687E+04  0.10044705687E+04  0.00000000000E+00 0. -1.
          6    2    1    2  501    0 -0.15790262338E+03  0.44475839145E+01 -0.33028394441E+03  0.40503144666E+03  0.17323385749E+03 0.  0.
         24    2    3    3    0    0 -0.10767784242E+03  0.25240994938E+02 -0.10794418940E+03  0.17609488073E+03  0.84414651695E+02 0.  0.
         -6    2    1    2    0  502  0.15790262338E+03 -0.44475839145E+01 -0.61492256307E+03  0.65870318322E+03  0.17551953035E+03 0.  0.
        -24    2    5    5    0    0  0.28511769428E+02 -0.64346849888E+01 -0.39121587730E+03  0.40022163085E+03  0.79203314198E+02 0.  0.
          5    1    3    3  501    0 -0.50224780958E+02 -0.20793411024E+02 -0.22233975501E+03  0.22893656593E+03  0.47000000000E+01 0. -1.
        -11    1    4    4    0    0  0.13237868033E+02 -0.96912735523E-01 -0.21728923713E+02  0.25443990801E+02  0.00000000000E+00 0.  1.
         12    1    4    4    0    0 -0.12091571045E+03  0.25337907674E+02 -0.86215265687E+02  0.15065088993E+03  0.00000000000E+00 0. -1.
         -5    1    5    5    0  502  0.12939085395E+03  0.19871010743E+01 -0.22370668577E+03  0.25848155237E+03  0.47000000000E+01 0.  1.
         11    1    6    6    0    0  0.40199875820E+02 -0.29745270214E+01 -0.88358085025E+02  0.97118633723E+02  0.00000000000E+00 0. -1.
        -12    1    6    6    0    0 -0.11688106393E+02 -0.34601579674E+01 -0.30285779228E+03  0.30310299712E+03  0.00000000000E+00 0.  1.
<mgrwt>
<rscale>  2 0.23571119E+03</rscale>
<asrwt>0</asrwt>
<pdfrwt beam="1">  1       21 0.91175488E-02 0.23613582E+03</pdfrwt>
<pdfrwt beam="2">  1       21 0.15453392E+00 0.23613582E+03</pdfrwt>
<totfact> 0.25688442E+04</totfact>
</mgrwt>
</event>
<event>
12    1  0.1039378E-001  0.1905356E+03  0.7546771E-02  0.1158394E+00
         21   -1    0    0  501  502  0.00000000000E+00  0.00000000000E+00  0.47179132700E+03  0.47179132700E+03  0.00000000000E+00 0. -1.
         21   -1    0    0  502  503 -0.00000000000E+00 -0.00000000000E+00 -0.77615864042E+02  0.77615864042E+02  0.00000000000E+00 0.  1.
         -6    2    1    2    0  503  0.62528331112E+02  0.40095327023E+02  0.23501340602E+03  0.30254773890E+03  0.17546055358E+03 0.  0.
        -24    2    3    3    0    0 -0.90235639392E+01  0.76755399792E+01  0.20538632469E+03  0.21846105609E+03  0.73493891174E+02 0.  0.
          6    2    1    2  501    0 -0.62528331112E+02 -0.40095327023E+02  0.15916205694E+03  0.24685945214E+03  0.17346354459E+03 0.  0.
         24    2    5    5    0    0 -0.25569008103E+02 -0.90483092631E+02  0.75481824785E+02  0.14231573051E+03  0.75599583658E+02 0.  0.
          5    1    5    5  501    0 -0.36959323009E+02  0.50387765608E+02  0.83680232154E+02  0.10454372164E+03  0.47000000000E+01 0. -1.
        -13    1    6    6    0    0 -0.27011155586E+02  0.28026724335E+01  0.20477799275E+02  0.34011729771E+02  0.00000000000E+00 0.  1.
         14    1    6    6    0    0  0.14421474829E+01 -0.93285765065E+02  0.55004025510E+02  0.10830400074E+03  0.00000000000E+00 0. -1.
         -5    1    3    3    0  503  0.71551895052E+02  0.32419787044E+02  0.29627081333E+02  0.84086682809E+02  0.47000000000E+01 0.  1.
         11    1    4    4    0    0 -0.23427322444E+02  0.35240952122E+02  0.13579570178E+03  0.14223655215E+03  0.00000000000E+00 0. -1.
        -12    1    4    4    0    0  0.14403758505E+02 -0.27565412142E+02  0.69590622901E+02  0.76224503944E+02  0.00000000000E+00 0.  1.
<mgrwt>
<rscale>  2 0.19007463E+03</rscale>
<asrwt>0</asrwt>
<pdfrwt beam="1">  1       21 0.72583280E-01 0.19053565E+03</pdfrwt>
<pdfrwt beam="2">  1       21 0.11940902E-01 0.19053565E+03</pdfrwt>
<totfact> 0.10133246E+05</totfact>
</mgrwt>
</event>
<event>
12    1  0.1039378E-001  0.2409849E+03  0.7546771E-02  0.1119464E+00
         21   -1    0    0  503  502  0.00000000000E+00  0.00000000000E+00  0.37329738400E+02  0.37329738400E+02  0.00000000000E+00 0. -1.
         21   -1    0    0  501  503 -0.00000000000E+00 -0.00000000000E+00 -0.17243825537E+04  0.17243825537E+04  0.00000000000E+00 0.  1.
          6    2    1    2  501    0  0.15915884689E+03 -0.48995475478E+02 -0.11260642088E+04  0.11511535821E+04  0.17146974047E+03 0.  0.
         24    2    3    3    0    0  0.20035937453E+02 -0.58054937936E+02 -0.47762235457E+03  0.48787672722E+03  0.78286478870E+02 0.  0.
         -6    2    1    2    0  502 -0.15915884689E+03  0.48995475478E+02 -0.56098860650E+03  0.61055871009E+03  0.17418848032E+03 0.  0.
        -24    2    5    5    0    0 -0.18200594951E+03  0.22303599994E+02 -0.42269257126E+03  0.46779201341E+03  0.80850119240E+02 0.  0.
          5    1    3    3  501    0  0.13912290943E+03  0.90594624578E+01 -0.64844185427E+03  0.66327685484E+03  0.47000000000E+01 0. -1.
        -13    1    4    4    0    0  0.36821088721E+01 -0.19737309212E+01 -0.31589141568E+03  0.31591904033E+03  0.00000000000E+00 0.  1.
         14    1    4    4    0    0  0.16353828581E+02 -0.56081207015E+02 -0.16173093889E+03  0.17195768690E+03  0.00000000000E+00 0. -1.
         -5    1    5    5    0  502  0.22847102627E+02  0.26691875485E+02 -0.13829603525E+03  0.14276669668E+03  0.47000000000E+01 0.  1.
         11    1    6    6    0    0 -0.97097269625E+02 -0.19217212368E+02 -0.15504725611E+03  0.18394790743E+03  0.00000000000E+00 0. -1.
        -12    1    6    6    0    0 -0.84908679890E+02  0.41520812361E+02 -0.26764531514E+03  0.28384410598E+03  0.00000000000E+00 0.  1.
<mgrwt>
<rscale>  2 0.24049396E+03</rscale>
<asrwt>0</asrwt>
<pdfrwt beam="1">  1       21 0.57430369E-02 0.24098490E+03</pdfrwt>
<pdfrwt beam="2">  1       21 0.26528961E+00 0.24098490E+03</pdfrwt>
<totfact> 0.11018319E+04</totfact>
</mgrwt>
</event>
<event>
12    1  0.1039378E-001  0.2237855E+03  0.7546771E-02  0.1131116E+00
         21   -1    0    0  501  502  0.00000000000E+00  0.00000000000E+00  0.20510876820E+04  0.20510876820E+04  0.00000000000E+00 0.  1.
         21   -1    0    0  502  503 -0.00000000000E+00 -0.00000000000E+00 -0.82525942811E+02  0.82525942811E+02  0.00000000000E+00 0.  1.
         -6    2    1    2    0  503 -0.90345397392E+02  0.10852470367E+03  0.88893105616E+02  0.24067038545E+03  0.17343687056E+03 0.  0.
        -24    2    3    3    0    0 -0.98567147138E+02  0.13548149159E+03  0.99042721226E+02  0.21034926607E+03  0.79791202819E+02 0.  0.
          6    2    1    2  501    0  0.90345397392E+02 -0.10852470367E+03  0.18796686336E+04  0.18929432394E+04  0.17360885132E+03 0.  0.
         24    2    5    5    0    0  0.74781847221E+02 -0.91134693339E+02  0.18468338711E+04  0.18523865115E+04  0.81502044861E+02 0.  0.
          5    1    5    5  501    0  0.15563550170E+02 -0.17390010335E+02  0.32834762508E+02  0.40556727954E+02  0.47000000000E+01 0. -1.
        -13    1    6    6    0    0  0.73332573129E+01 -0.73076271641E+02  0.97163401974E+03  0.97440576069E+03  0.00000000000E+00 0.  1.
         14    1    6    6    0    0  0.67448589908E+02 -0.18058421698E+02  0.87519985137E+03  0.87798075077E+03  0.00000000000E+00 0. -1.
         -5    1    3    3    0  503  0.82217497458E+01 -0.26956787919E+02 -0.10149615610E+02  0.30321119386E+02  0.47000000000E+01 0.  1.
         13    1    4    4    0    0  0.10526971516E+02  0.11211446160E+02  0.24581431383E+02  0.28995869070E+02  0.00000000000E+00 0. -1.
        -14    1    4    4    0    0 -0.10909411865E+03  0.12427004543E+03  0.74461289844E+02  0.18135339700E+03  0.00000000000E+00 0.  1.
<mgrwt>
<rscale>  2 0.22375211E+03</rscale>
<asrwt>0</asrwt>
<pdfrwt beam="1">  1       21 0.31555191E+00 0.22378547E+03</pdfrwt>
<pdfrwt beam="2">  1       21 0.12696300E-01 0.22378547E+03</pdfrwt>
<totfact> 0.14162081E+03</totfact>
</mgrwt>
</event>
<event>
12    1  0.1039378E-001  0.2939013E+03  0.7546771E-02  0.1088562E+00
         21   -1    0    0  501  502  0.00000000000E+00  0.00000000000E+00  0.32603612937E+03  0.32603612937E+03  0.00000000000E+00 0.  1.
         21   -1    0    0  502  503 -0.00000000000E+00 -0.00000000000E+00 -0.45386516577E+03  0.45386516577E+03  0.00000000000E+00 0.  1.
         -6    2    1    2    0  503 -0.10544111095E+03  0.21165127480E+03 -0.31670236822E+03  0.43206294229E+03  0.17453912471E+03 0.  0.
        -24    2    3    3    0    0 -0.43313218147E+02  0.20485892593E+03 -0.27441658514E+03  0.35645746287E+03  0.88962049401E+02 0.  0.
          6    2    1    2  501    0  0.10544111095E+03 -0.21165127480E+03  0.18887333183E+03  0.34783835285E+03  0.17147680378E+03 0.  0.
         24    2    5    5    0    0 -0.10119976590E+02 -0.97653420403E+02  0.13102005948E+03  0.17544645373E+03  0.63060270360E+02 0.  0.
          5    1    5    5  501    0  0.11556108754E+03 -0.11399785440E+03  0.57853272349E+02  0.17239189912E+03  0.47000000000E+01 0. -1.
        -11    1    6    6    0    0 -0.65881876261E+01 -0.29011716900E+02  0.26932978575E+01  0.29872023484E+02  0.00000000000E+00 0.  1.
         12    1    6    6    0    0 -0.35317889639E+01 -0.68641703503E+02  0.12832676162E+03  0.14557443025E+03  0.00000000000E+00 0. -1.
         -5    1    3    3    0  503 -0.62127892800E+02  0.67923488663E+01 -0.42285783083E+02  0.75605479417E+02  0.47000000000E+01 0.  1.
         13    1    4    4    0    0 -0.57134646708E+01 -0.63598816231E+01 -0.30215046861E+02  0.31401287069E+02  0.00000000000E+00 0. -1.
        -14    1    4    4    0    0 -0.37599753477E+02  0.21121880756E+03 -0.24420153828E+03  0.32505617580E+03  0.00000000000E+00 0.  1.
<mgrwt>
<rscale>  2 0.29344823E+03</rscale>
<asrwt>0</asrwt>
<pdfrwt beam="1">  1       21 0.50159405E-01 0.29390134E+03</pdfrwt>
<pdfrwt beam="2">  1       21 0.69825409E-01 0.29390134E+03</pdfrwt>
<totfact> 0.66286479E+03</totfact>
</mgrwt>
</event>
<event>
12    1  0.1039378E-001  0.1744354E+03  0.7546771E-02  0.1174700E+00
         21   -1    0    0  501  502  0.00000000000E+00  0.00000000000E+00  0.64769273929E+03  0.64769273929E+03  0.00000000000E+00 0.  1.
         21   -1    0    0  502  503 -0.00000000000E+00 -0.00000000000E+00 -0.79142760558E+02  0.79142760558E+02  0.00000000000E+00 0.  1.
         -6    2    1    2    0  503 -0.22205642896E+02  0.16199762997E+02  0.50016832432E+02  0.18146462068E+03  0.17225621072E+03 0.  0.
        -24    2    3    3    0    0 -0.11223420506E+02  0.65085215249E+02  0.74788995939E+02  0.12537409799E+03  0.75915875290E+02 0.  0.
          6    2    1    2  501    0  0.22205642896E+02 -0.16199762997E+02  0.51853314630E+03  0.54537087917E+03  0.16672507052E+03 0.  0.
         24    2    5    5    0    0 -0.12568942273E+02  0.70495347030E+01  0.12810476155E+03  0.15267988712E+03  0.81808579932E+02 0.  0.
          5    1    5    5  501    0  0.34774585169E+02 -0.23249297700E+02  0.39042838475E+03  0.39269099205E+03  0.47000000000E+01 0. -1.
        -13    1    6    6    0    0  0.26429869755E+02 -0.16059449064E+02  0.83669307893E+02  0.89202001114E+02  0.00000000000E+00 0.  1.
         14    1    6    6    0    0 -0.38998812028E+02  0.23108983767E+02  0.44435453653E+02  0.63477886005E+02  0.00000000000E+00 0. -1.
         -5    1    3    3    0  503 -0.10982222390E+02 -0.48885452252E+02 -0.24772163508E+02  0.56090522687E+02  0.47000000000E+01 0.  1.
         11    1    4    4    0    0 -0.59569480871E+01  0.10433026721E+01  0.58861650588E+02  0.59171510213E+02  0.00000000000E+00 0. -1.
        -12    1    4    4    0    0 -0.52664724192E+01  0.64041912577E+02  0.15927345351E+02  0.66202587776E+02  0.00000000000E+00 0.  1.
<mgrwt>
<rscale>  2 0.17305418E+03</rscale>
<asrwt>0</asrwt>
<pdfrwt beam="1">  1       21 0.99645033E-01 0.17443545E+03</pdfrwt>
<pdfrwt beam="2">  1       21 0.12175810E-01 0.17443545E+03</pdfrwt>
<totfact> 0.47777612E+04</totfact>
</mgrwt>
</event>
<event>
12    1  0.1039378E-001  0.2370529E+03  0.7546771E-02  0.1122256E+00
         21   -1    0    0  501  502  0.00000000000E+00  0.00000000000E+00  0.19816090949E+03  0.19816090949E+03  0.00000000000E+00 0. -1.
         21   -1    0    0  502  503 -0.00000000000E+00 -0.00000000000E+00 -0.28055562984E+03  0.28055562984E+03  0.00000000000E+00 0. -1.
         -6    2    1    2    0  503  0.74333870721E+02 -0.14318363326E+03 -0.49646329413E+02  0.23941229163E+03  0.16978342142E+03 0.  0.
        -24    2    3    3    0    0 -0.14629929409E+02 -0.11276113459E+03 -0.16519545388E+02  0.13961469657E+03  0.79311158181E+02 0.  0.
          6    2    1    2  501    0 -0.74333870721E+02  0.14318363326E+03 -0.32748390944E+02  0.23930424770E+03  0.17368646663E+03 0.  0.
         24    2    5    5    0    0  0.17345605108E+02  0.10290591439E+03 -0.42126093668E+02  0.13861933208E+03  0.80933393757E+02 0.  0.
          5    1    5    5  501    0 -0.91679475829E+02  0.40277718862E+02  0.93777027235E+01  0.10068491562E+03  0.47000000000E+01 0. -1.
        -13    1    6    6    0    0  0.28127195021E+02  0.78380733036E+02  0.60511244596E+01  0.83494278356E+02  0.00000000000E+00 0.  1.
         14    1    6    6    0    0 -0.10781589913E+02  0.24525181358E+02 -0.48177218127E+02  0.55125053725E+02  0.00000000000E+00 0. -1.
         -5    1    3    3    0  503  0.88963800129E+02 -0.30422498670E+02 -0.33126784025E+02  0.99797595054E+02  0.47000000000E+01 0.  1.
         13    1    4    4    0    0  0.21787906246E+02 -0.54775747719E+02 -0.35173726646E+02  0.68646095614E+02  0.00000000000E+00 0. -1.
        -14    1    4    4    0    0 -0.36417835655E+02 -0.57985386867E+02  0.18654181258E+02  0.70968600960E+02  0.00000000000E+00 0.  1.
<mgrwt>
<rscale>  2 0.23633849E+03</rscale>
<asrwt>0</asrwt>
<pdfrwt beam="1">  1       21 0.30486294E-01 0.23705288E+03</pdfrwt>
<pdfrwt beam="2">  1       21 0.43162404E-01 0.23705288E+03</pdfrwt>
<totfact> 0.52240027E+04</totfact>
</mgrwt>
</event>
<event>
12    1  0.1039378E-001  0.2271112E+03  0.7546771E-02  0.1129422E+00
         21   -1    0    0  501  502  0.00000000000E+00  0.00000000000E+00  0.52352614958E+03  0.52352614958E+03  0.00000000000E+00 0. -1.
         21   -1    0    0  502  503 -0.00000000000E+00 -0.00000000000E+00 -0.10537529714E+03  0.10537529714E+03  0.00000000000E+00 0. -1.
         -6    2    1    2    0  503  0.29321718465E+02  0.14441367529E+03  0.11749945886E+03  0.25211140131E+03  0.16744838923E+03 0.  0.
        -24    2    3    3    0    0  0.58287448236E+02  0.13569210606E+03  0.47171932234E+02  0.17540983501E+03  0.82058788449E+02 0.  0.
          6    2    1    2  501    0 -0.29321718465E+02 -0.14441367529E+03  0.30065139358E+03  0.37679004540E+03  0.17281320860E+03 0.  0.
         24    2    5    5    0    0 -0.29617863495E+02 -0.17382054061E+03  0.27381605986E+03  0.33670168592E+03  0.85451696812E+02 0.  0.
          5    1    5    5  501    0  0.29614503035E+00  0.29406865321E+02  0.26835333717E+02  0.40088359477E+02  0.47000000000E+01 0. -1.
        -13    1    6    6    0    0 -0.20878395190E+02 -0.26253529632E+01  0.13452847489E+02  0.24975567450E+02  0.00000000000E+00 0.  1.
         14    1    6    6    0    0 -0.87394683050E+01 -0.17119518765E+03  0.26036321237E+03  0.31172611847E+03  0.00000000000E+00 0. -1.
         -5    1    3    3    0  503 -0.28965729771E+02  0.87215692374E+01  0.70327526627E+02  0.76701566299E+02  0.47000000000E+01 0.  1.
         11    1    4    4    0    0  0.54944334624E+02  0.35403768790E+02  0.20698968989E+01  0.65395651422E+02  0.00000000000E+00 0. -1.
        -12    1    4    4    0    0  0.33431136120E+01  0.10028833727E+03  0.45102035335E+02  0.11001418359E+03  0.00000000000E+00 0.  1.
<mgrwt>
<rscale>  2 0.22609054E+03</rscale>
<asrwt>0</asrwt>
<pdfrwt beam="1">  1       21 0.80542483E-01 0.22711116E+03</pdfrwt>
<pdfrwt beam="2">  1       21 0.16211584E-01 0.22711116E+03</pdfrwt>
<totfact> 0.45334646E+04</totfact>
</mgrwt>
</event>
<event>
12    1  0.1039378E-001  0.1905680E+03  0.7546771E-02  0.1158097E+00
         21   -1    0    0  501  502  0.00000000000E+00  0.00000000000E+00  0.49535957083E+02  0.49535957083E+02  0.00000000000E+00 0. -1.
         21   -1    0    0  502  503 -0.00000000000E+00 -0.00000000000E+00 -0.73908463867E+03  0.73908463867E+03  0.00000000000E+00 0.  1.
         -6    2    1    2    0  503  0.71671448288E+02  0.34143459094E+02 -0.38640936668E+03  0.43055690081E+03  0.17252383568E+03 0.  0.
        -24    2    3    3    0    0  0.15409338003E+01 -0.36235797875E+02 -0.14407816174E+03  0.16860646320E+03  0.79713331505E+02 0.  0.
          6    2    1    2  501    0 -0.71671448288E+02 -0.34143459094E+02 -0.30313931491E+03  0.35806369494E+03  0.17324431620E+03 0.  0.
         24    2    5    5    0    0  0.18044392964E+02 -0.27036947329E+02 -0.83385710333E+02  0.12054912401E+03  0.80760869077E+02 0.  0.
          5    1    5    5  501    0 -0.89715841253E+02 -0.71065117642E+01 -0.21975360457E+03  0.23751457093E+03  0.47000000000E+01 0. -1.
        -11    1    6    6    0    0  0.60977677712E+01  0.49867769493E+01 -0.85915719376E+02  0.86276077519E+02  0.00000000000E+00 0.  1.
         12    1    6    6    0    0  0.11946625193E+02 -0.32023724279E+02  0.25300090434E+01  0.34273046494E+02  0.00000000000E+00 0. -1.
         -5    1    3    3    0  503  0.70130514488E+02  0.70379256969E+02 -0.24233120494E+03  0.26195043761E+03  0.47000000000E+01 0.  1.
         13    1    4    4    0    0  0.28318988357E+02 -0.43833583385E+02 -0.57437138473E+02  0.77603949705E+02  0.00000000000E+00 0. -1.
        -14    1    4    4    0    0 -0.26778054557E+02  0.75977855100E+01 -0.86641023267E+02  0.91002513499E+02  0.00000000000E+00 0.  1.
<mgrwt>
<rscale>  2 0.19040411E+03</rscale>
<asrwt>0</asrwt>
<pdfrwt beam="1">  1       21 0.76209168E-02 0.19056801E+03</pdfrwt>
<pdfrwt beam="2">  1       21 0.11370532E+00 0.19056801E+03</pdfrwt>
<totfact> 0.78763377E+04</totfact>
</mgrwt>
</event>
<event>
12    1  0.1039378E-001  0.1953264E+03  0.7546771E-02  0.1156648E+00
         21   -1    0    0  501  502  0.00000000000E+00  0.00000000000E+00  0.21542675143E+03  0.21542675143E+03  0.00000000000E+00 0. -1.
         21   -1    0    0  502  503 -0.00000000000E+00 -0.00000000000E+00 -0.17375007864E+03  0.17375007864E+03  0.00000000000E+00 0. -1.
         -6    2    1    2    0  503  0.83915979221E+02 -0.36733769887E+02  0.62233079441E+02  0.19277171128E+03  0.15778692936E+03 0.  0.
        -24    2    3    3    0    0  0.73103735036E+01  0.16249719289E+02  0.56960563571E+01  0.83711205454E+02  0.81594276287E+02 0.  0.
          6    2    1    2  501    0 -0.83915979221E+02  0.36733769887E+02 -0.20556406652E+02  0.19640511879E+03  0.17251418322E+03 0.  0.
         24    2    5    5    0    0 -0.11711272358E+02  0.72373342755E+02 -0.47601654059E+01  0.11421442537E+03  0.87448391324E+02 0.  0.
          5    1    5    5  501    0 -0.72204706863E+02 -0.35639572868E+02 -0.15796241246E+02  0.82190693420E+02  0.47000000000E+01 0. -1.
        -13    1    6    6    0    0  0.26207429037E+02  0.13604292153E+02  0.24530814008E+02  0.38388369822E+02  0.00000000000E+00 0.  1.
         14    1    6    6    0    0 -0.37918701395E+02  0.58769050602E+02 -0.29290979414E+02  0.75826055543E+02  0.00000000000E+00 0. -1.
         -5    1    3    3    0  503  0.76605605718E+02 -0.52983489176E+02  0.56537023084E+02  0.10906050583E+03  0.47000000000E+01 0.  1.
         13    1    4    4    0    0  0.60877899335E+01 -0.33006712032E+02  0.75601214091E+01  0.34404355264E+02  0.00000000000E+00 0. -1.
        -14    1    4    4    0    0  0.12225835701E+01  0.49256431321E+02 -0.18640650519E+01  0.49306850190E+02  0.00000000000E+00 0.  1.
<mgrwt>
<rscale>  2 0.19202450E+03</rscale>
<asrwt>0</asrwt>
<pdfrwt beam="1">  1       21 0.33142577E-01 0.19532641E+03</pdfrwt>
<pdfrwt beam="2">  1       21 0.26730781E-01 0.19532641E+03</pdfrwt>
<totfact> 0.11667803E+05</totfact>
</mgrwt>
</event>
<event>
12    1  0.1039378E-001  0.1981396E+03  0.7546771E-02  0.1151469E+00
         21   -1    0    0  501  502  0.00000000000E+00  0.00000000000E+00  0.11159178363E+03  0.11159178363E+03  0.00000000000E+00 0. -1.
         21   -1    0    0  502  503 -0.00000000000E+00 -0.00000000000E+00 -0.17514797430E+04  0.17514797430E+04  0.00000000000E+00 0. -1.
         -6    2    1    2    0  503 -0.17555729365E+02 -0.91198609108E+02 -0.16527631993E+04  0.16645140120E+04  0.17422776181E+03 0.  0.
        -24    2    3    3    0    0 -0.55110112447E+02 -0.78602130914E+02 -0.15424309308E+04  0.15471926480E+04  0.74138346250E+02 0.  0.
          6    2    1    2  501    0  0.17555729365E+02  0.91198609108E+02  0.12875240021E+02  0.19855751462E+03  0.17502549778E+03 0.  0.
         24    2    5    5    0    0  0.10858366880E+01  0.11391422070E+01 -0.41952296797E+02  0.91739380693E+02  0.81569860102E+02 0.  0.
          5    1    5    5  501    0  0.16469892677E+02  0.90059466901E+02  0.54827536818E+02  0.10681813393E+03  0.47000000000E+01 0. -1.
        -13    1    6    6    0    0 -0.33402691534E+02  0.18513632239E+02 -0.54074212023E+01  0.38571162601E+02  0.00000000000E+00 0.  1.
         14    1    6    6    0    0  0.34488528222E+02 -0.17374490032E+02 -0.36544875595E+02  0.53168218091E+02  0.00000000000E+00 0. -1.
         -5    1    3    3    0  503  0.37554383082E+02 -0.12596478194E+02 -0.11033226858E+03  0.11732136396E+03  0.47000000000E+01 0.  1.
         11    1    4    4    0    0 -0.13939714243E+02 -0.78675433578E+02 -0.10612998179E+04  0.10643032665E+04  0.00000000000E+00 0. -1.
        -12    1    4    4    0    0 -0.41170398203E+02  0.73302664826E-01 -0.48113111282E+03  0.48288938152E+03  0.00000000000E+00 0.  1.
<mgrwt>
<rscale>  2 0.19796332E+03</rscale>
<asrwt>0</asrwt>
<pdfrwt beam="1">  1       21 0.17167967E-01 0.19813963E+03</pdfrwt>
<pdfrwt beam="2">  1       21 0.26945842E+00 0.19813963E+03</pdfrwt>
<totfact> 0.15583191E+03</totfact>
</mgrwt>
</event>
<event>
12    1  0.1039378E-001  0.2391570E+03  0.7546771E-02  0.1120477E+00
         21   -1    0    0  501  502  0.00000000000E+00  0.00000000000E+00  0.87778415069E+03  0.87778415069E+03  0.00000000000E+00 0. -1.
         21   -1    0    0  502  503 -0.00000000000E+00 -0.00000000000E+00 -0.73400549669E+02  0.73400549669E+02  0.00000000000E+00 0.  1.
         -6    2    1    2    0  503 -0.15147580296E+03  0.65486882339E+02  0.24039151016E+03  0.33858113685E+03  0.17209200281E+03 0.  0.
        -24    2    3    3    0    0 -0.90140536022E+02  0.10872785477E+03  0.15890244321E+03  0.22770122569E+03  0.81552431499E+02 0.  0.
          6    2    1    2  501    0  0.15147580296E+03 -0.65486882339E+02  0.56399209086E+03  0.61260356351E+03  0.17309707344E+03 0.  0.
         24    2    5    5    0    0  0.14043266156E+03 -0.85556275941E+02  0.55975004786E+03  0.58883769596E+03  0.79802928042E+02 0.  0.
          5    1    5    5  501    0  0.11043141395E+02  0.20069393601E+02  0.42420430002E+01  0.23765867546E+02  0.47000000000E+01 0. -1.
        -11    1    6    6    0    0  0.55096725365E+02 -0.49092389509E+02  0.13287189900E+03  0.15198899104E+03  0.00000000000E+00 0.  1.
         12    1    6    6    0    0  0.85335936196E+02 -0.36463886432E+02  0.42687814886E+03  0.43684870492E+03  0.00000000000E+00 0. -1.
         -5    1    3    3    0  503 -0.61335266935E+02 -0.43240972431E+02  0.81489066948E+02  0.11087991116E+03  0.47000000000E+01 0.  1.
         11    1    4    4    0    0 -0.17387311726E+02  0.83959432860E+02  0.92607289849E+02  0.12620465565E+03  0.00000000000E+00 0. -1.
        -12    1    4    4    0    0 -0.72753224296E+02  0.24768421911E+02  0.66295153362E+02  0.10149657003E+03  0.00000000000E+00 0.  1.
<mgrwt>
<rscale>  2 0.23897513E+03</rscale>
<asrwt>0</asrwt>
<pdfrwt beam="1">  1       21 0.13504371E+00 0.23915695E+03</pdfrwt>
<pdfrwt beam="2">  1       21 0.11292393E-01 0.23915695E+03</pdfrwt>
<totfact> 0.24984139E+04</totfact>
</mgrwt>
</event>
<event>
12    1  0.1039378E-001  0.1825052E+03  0.7546771E-02  0.1165560E+00
         21   -1    0    0  501  502  0.00000000000E+00  0.00000000000E+00  0.24792075584E+03  0.24792075584E+03  0.00000000000E+00 0.  1.
         21   -1    0    0  502  503 -0.00000000000E+00 -0.00000000000E+00 -0.15851640529E+03  0.15851640529E+03  0.00000000000E+00 0.  1.
         -6    2    1    2    0  503  0.22229775502E+02 -0.52589143865E+02  0.12478787311E+03  0.22053356794E+03  0.17263620809E+03 0.  0.
        -24    2    3    3    0    0  0.57056501902E+02 -0.37915726076E+02  0.19703160577E+02  0.10876104507E+03  0.82144407567E+02 0.  0.
          6    2    1    2  501    0 -0.22229775502E+02  0.52589143865E+02 -0.35383522554E+02  0.18590359319E+03  0.17334466049E+03 0.  0.
         24    2    5    5    0    0  0.21737616737E+02  0.88426870785E+02 -0.41828767281E+02  0.12862265892E+03  0.80636884596E+02 0.  0.
          5    1    5    5  501    0 -0.43967392239E+02 -0.35837726921E+02  0.64452447266E+01  0.57280934269E+02  0.47000000000E+01 0. -1.
        -11    1    6    6    0    0 -0.91030526815E+01  0.38641611350E+02 -0.55737070625E+02  0.68429969587E+02  0.00000000000E+00 0.  1.
         12    1    6    6    0    0  0.30840669418E+02  0.49785259435E+02  0.13908303345E+02  0.60192689333E+02  0.00000000000E+00 0. -1.
         -5    1    3    3    0  503 -0.34826726400E+02 -0.14673417788E+02  0.10508471253E+03  0.11177252287E+03  0.47000000000E+01 0.  1.
         11    1    4    4    0    0  0.66679434167E+02  0.38901603903E+00  0.59731689273E+01  0.66947569196E+02  0.00000000000E+00 0. -1.
        -12    1    4    4    0    0 -0.96229322641E+01 -0.38304742115E+02  0.13729991650E+02  0.41813475873E+02  0.00000000000E+00 0.  1.
<mgrwt>
<rscale>  2 0.18233679E+03</rscale>
<asrwt>0</asrwt>
<pdfrwt beam="1">  1       21 0.38141655E-01 0.18250521E+03</pdfrwt>
<pdfrwt beam="2">  1       21 0.24387139E-01 0.18250521E+03</pdfrwt>
<totfact> 0.10566573E+05</totfact>
</mgrwt>
</event>
<event>
12    1  0.1039378E-001  0.2227372E+03  0.7546771E-02  0.1131956E+00
         21   -1    0    0  501  502  0.00000000000E+00  0.00000000000E+00  0.26447960656E+03  0.26447960656E+03  0.00000000000E+00 0. -1.
         21   -1    0    0  502  503 -0.00000000000E+00 -0.00000000000E+00 -0.38848620032E+03  0.38848620032E+03  0.00000000000E+00 0. -1.
         -6    2    1    2    0  503 -0.12214035565E+03 -0.67408610621E+02 -0.29708346204E+03  0.37130909838E+03  0.17363662015E+03 0.  0.
        -24    2    3    3    0    0 -0.14153728760E+03 -0.10770211471E+02 -0.22031916307E+03  0.27384630125E+03  0.79388046063E+02 0.  0.
          6    2    1    2  501    0  0.12214035565E+03  0.67408610621E+02  0.17307686828E+03  0.28165670850E+03  0.17295291801E+03 0.  0.
         24    2    5    5    0    0  0.19501219926E+02  0.71044686100E+02  0.10168809272E+03  0.15649097636E+03  0.93387967534E+02 0.  0.
          5    1    5    5  501    0  0.10263913572E+03 -0.36360754792E+01  0.71388775563E+02  0.12516573214E+03  0.47000000000E+01 0. -1.
        -13    1    6    6    0    0  0.38613526443E+02  0.41246867909E+02  0.89230532627E+01  0.57200781605E+02  0.00000000000E+00 0.  1.
         14    1    6    6    0    0 -0.19112306517E+02  0.29797818191E+02  0.92765039459E+02  0.99290194758E+02  0.00000000000E+00 0. -1.
         -5    1    3    3    0  503  0.19396931950E+02 -0.56638399150E+02 -0.76764298969E+02  0.97462797126E+02  0.47000000000E+01 0.  1.
         11    1    4    4    0    0 -0.89059166994E+02  0.29955346959E+02 -0.10618476785E+03  0.14178879702E+03  0.00000000000E+00 0. -1.
        -12    1    4    4    0    0 -0.52478120601E+02 -0.40725558431E+02 -0.11413439522E+03  0.13205750423E+03  0.00000000000E+00 0.  1.
<mgrwt>
<rscale>  2 0.22260394E+03</rscale>
<asrwt>0</asrwt>
<pdfrwt beam="1">  1       21 0.40689171E-01 0.22273721E+03</pdfrwt>
<pdfrwt beam="2">  1       21 0.59767107E-01 0.22273721E+03</pdfrwt>
<totfact> 0.14925788E+04</totfact>
</mgrwt>
</event>
<event>
12    1  0.1039378E-001  0.1743853E+03  0.7546771E-02  0.1174094E+00
         21   -1    0    0  503  502  0.00000000000E+00  0.00000000000E+00  0.33737622618E+02  0.33737622618E+02  0.00000000000E+00 0.  1.
         21   -1    0    0  501  503 -0.00000000000E+00 -0.00000000000E+00 -0.10770962548E+04  0.10770962548E+04  0.00000000000E+00 0.  1.
          6    2    1    2  501    0 -0.99514450148E+01 -0.26123788260E+02 -0.28432187037E+03  0.33202257296E+03  0.16917026752E+03 0.  0.
         24    2    3    3    0    0  0.27962903135E+02  0.69395913117E+01 -0.67286638740E+02  0.10918391690E+03  0.81015764380E+02 0.  0.
         -6    2    1    2    0  502  0.99514450148E+01  0.26123788260E+02 -0.75903676178E+03  0.77881130443E+03  0.17213006303E+03 0.  0.
        -24    2    5    5    0    0 -0.45048100709E+02  0.24046144650E+02 -0.64693608107E+03  0.65383963064E+03  0.79827446150E+02 0.  0.
          5    1    3    3  501    0 -0.37914348150E+02 -0.33063379571E+02 -0.21703523163E+03  0.22283865605E+03  0.47000000000E+01 0. -1.
        -11    1    4    4    0    0  0.32714583287E+02  0.39687187274E+02 -0.50494846613E+02  0.72076669789E+02  0.00000000000E+00 0.  1.
         12    1    4    4    0    0 -0.47516801519E+01 -0.32747595962E+02 -0.16791792127E+02  0.37107247114E+02  0.00000000000E+00 0. -1.
         -5    1    5    5    0  502  0.54999545724E+02  0.20776436100E+01 -0.11210068071E+03  0.12497167379E+03  0.47000000000E+01 0.  1.
         13    1    6    6    0    0  0.17227236107E+02  0.26344417049E+02 -0.26333875951E+03  0.26521332590E+03  0.00000000000E+00 0. -1.
        -14    1    6    6    0    0 -0.62275336816E+02 -0.22982723996E+01 -0.38359732156E+03  0.38862630474E+03  0.00000000000E+00 0.  1.
<mgrwt>
<rscale>  2 0.17365048E+03</rscale>
<asrwt>0</asrwt>
<pdfrwt beam="1">  1       21 0.51904045E-02 0.17438533E+03</pdfrwt>
<pdfrwt beam="2">  1       21 0.16570708E+00 0.17438533E+03</pdfrwt>
<totfact> 0.58392073E+04</totfact>
</mgrwt>
</event>
<event>
12    1  0.1039378E-001  0.2290241E+03  0.7546771E-02  0.1128787E+00
         21   -1    0    0  501  502  0.00000000000E+00  0.00000000000E+00  0.15395421922E+03  0.15395421922E+03  0.00000000000E+00 0. -1.
         21   -1    0    0  502  503 -0.00000000000E+00 -0.00000000000E+00 -0.38528852176E+03  0.38528852176E+03  0.00000000000E+00 0. -1.
         -6    2    1    2    0  503 -0.66203912992E+02 -0.12135236144E+03 -0.21714073912E+03  0.30977925903E+03  0.17234771544E+03 0.  0.
        -24    2    3    3    0    0 -0.64813486723E+01 -0.11545201233E+03 -0.20447919090E+03  0.24826500368E+03  0.80328061768E+02 0.  0.
          6    2    1    2  501    0  0.66203912992E+02  0.12135236144E+03 -0.14193563421E+02  0.22946348195E+03  0.18259977706E+03 0.  0.
         24    2    5    5    0    0  0.67809000657E+02  0.10837459208E+02  0.32121907400E+02  0.10953294889E+03  0.79057819766E+02 0.  0.
          5    1    5    5  501    0 -0.16050876654E+01  0.11051490223E+03 -0.46315470821E+02  0.11993053305E+03  0.47000000000E+01 0. -1.
        -11    1    6    6    0    0  0.85611513787E+02  0.13318424375E+02  0.24765484640E+02  0.90111269829E+02  0.00000000000E+00 0.  1.
         12    1    6    6    0    0 -0.17802513130E+02 -0.24809651671E+01  0.73564227596E+01  0.19421679065E+02  0.00000000000E+00 0. -1.
         -5    1    3    3    0  503 -0.59722564319E+02 -0.59003491053E+01 -0.12661548221E+02  0.61514255354E+02  0.47000000000E+01 0.  1.
         13    1    4    4    0    0 -0.36523986664E+02 -0.34015440531E+02 -0.47580845531E+02  0.68956425790E+02  0.00000000000E+00 0. -1.
        -14    1    4    4    0    0  0.30042637991E+02 -0.81436571801E+02 -0.15689834537E+03  0.17930857789E+03  0.00000000000E+00 0.  1.
<mgrwt>
<rscale>  2 0.22697494E+03</rscale>
<asrwt>0</asrwt>
<pdfrwt beam="1">  1       21 0.23685265E-01 0.22902409E+03</pdfrwt>
<pdfrwt beam="2">  1       21 0.59275157E-01 0.22902409E+03</pdfrwt>
<totfact> 0.43871959E+04</totfact>
</mgrwt>
</event>
<event>
12    1  0.1039378E-001  0.1764221E+03  0.7546771E-02  0.1171437E+00
         21   -1    0    0  503  502  0.00000000000E+00  0.00000000000E+00  0.22536096009E+03  0.22536096009E+03  0.00000000000E+00 0. -1.
         21   -1    0    0  501  503 -0.00000000000E+00 -0.00000000000E+00 -0.86709206580E+03  0.86709206580E+03  0.00000000000E+00 0. -1.
          6    2    1    2  501    0 -0.55092143981E+01  0.32962063163E+02 -0.82191345548E+03  0.84063458104E+03  0.17322794660E+03 0.  0.
         24    2    3    3    0    0  0.43953015664E+02 -0.33799500909E+02 -0.45270417260E+03  0.46216238496E+03  0.74690885205E+02 0.  0.
         -6    2    1    2    0  502  0.55092143981E+01 -0.32962063163E+02  0.18018234977E+03  0.25181844485E+03  0.17271363857E+03 0.  0.
        -24    2    5    5    0    0  0.28286365486E+02 -0.74736385833E+02  0.16685941966E+03  0.20218495703E+03  0.81553939700E+02 0.  0.
          5    1    3    3  501    0 -0.49462230062E+02  0.66761564072E+02 -0.36920928288E+03  0.37847219608E+03  0.47000000000E+01 0. -1.
        -11    1    4    4    0    0  0.18467440418E+02 -0.47276147794E+02 -0.15573295785E+03  0.16379509964E+03  0.00000000000E+00 0.  1.
         12    1    4    4    0    0  0.25485575246E+02  0.13476646885E+02 -0.29697121475E+03  0.29836728532E+03  0.00000000000E+00 0. -1.
         -5    1    5    5    0  502 -0.22777151088E+02  0.41774322669E+02  0.13322930104E+02  0.49633487815E+02  0.47000000000E+01 0.  1.
         11    1    6    6    0    0 -0.65305397778E+01 -0.29719186223E+01  0.93626422638E+02  0.93900943904E+02  0.00000000000E+00 0. -1.
        -12    1    6    6    0    0  0.34816905264E+02 -0.71764467210E+02  0.73232997026E+02  0.10828401313E+03  0.00000000000E+00 0.  1.
<mgrwt>
<rscale>  2 0.17629576E+03</rscale>
<asrwt>0</asrwt>
<pdfrwt beam="1">  1       21 0.34670918E-01 0.17642214E+03</pdfrwt>
<pdfrwt beam="2">  1       21 0.13339878E+00 0.17642214E+03</pdfrwt>
<totfact> 0.32946771E+03</totfact>
</mgrwt>
</event>
<event>
12    1  0.1039378E-001  0.1975401E+03  0.7546771E-02  0.1151878E+00
         21   -1    0    0  503  502  0.00000000000E+00  0.00000000000E+00  0.23124359618E+03  0.23124359618E+03  0.00000000000E+00 0.  1.
         21   -1    0    0  501  503 -0.00000000000E+00 -0.00000000000E+00 -0.21001777079E+03  0.21001777079E+03  0.00000000000E+00 0. -1.
          6    2    1    2  501    0 -0.85281677287E+02 -0.40219261156E+02 -0.87412684237E+02  0.21581864324E+03  0.17333827032E+03 0.  0.
         24    2    3    3    0    0  0.19733640963E+02  0.59376405304E+01 -0.26170948984E+02  0.85698249849E+02  0.78959478821E+02 0.  0.
         -6    2    1    2    0  502  0.85281677287E+02  0.40219261156E+02  0.10863850963E+03  0.22544272372E+03  0.17358439577E+03 0.  0.
        -24    2    5    5    0    0  0.81389028491E+02 -0.18548561386E+02  0.17503014610E+02  0.11683067037E+03  0.79842513303E+02 0.  0.
          5    1    3    3  501    0 -0.10501531825E+03 -0.46156901686E+02 -0.61241735254E+02  0.13012039340E+03  0.47000000000E+01 0. -1.
        -11    1    4    4    0    0  0.18627986371E+02  0.22584019820E+01 -0.54226276215E+02  0.57381105670E+02  0.00000000000E+00 0.  1.
         12    1    4    4    0    0  0.11056545924E+01  0.36792385484E+01  0.28055327232E+02  0.28317144179E+02  0.00000000000E+00 0. -1.
         -5    1    5    5    0  502  0.38926487962E+01  0.58767822541E+02  0.91135495018E+02  0.10861205335E+03  0.47000000000E+01 0.  1.
         13    1    6    6    0    0  0.16727991800E+02  0.21060412911E+02 -0.18745766054E+02  0.32783691778E+02  0.00000000000E+00 0. -1.
        -14    1    6    6    0    0  0.64661036692E+02 -0.39608974297E+02  0.36248780664E+02  0.84046978593E+02  0.00000000000E+00 0.  1.
<mgrwt>
<rscale>  2 0.19748603E+03</rscale>
<asrwt>0</asrwt>
<pdfrwt beam="1">  1       21 0.35575937E-01 0.19754011E+03</pdfrwt>
<pdfrwt beam="2">  1       21 0.32310427E-01 0.19754011E+03</pdfrwt>
<totfact> 0.70057036E+04</totfact>
</mgrwt>
</event>
<event>
12    1  0.1039378E-001  0.1907488E+03  0.7546771E-02  0.1158235E+00
         21   -1    0    0  503  502  0.00000000000E+00  0.00000000000E+00  0.73674862230E+03  0.73674862230E+03  0.00000000000E+00 0. -1.
         21   -1    0    0  501  503 -0.00000000000E+00 -0.00000000000E+00 -0.70560249487E+02  0.70560249487E+02  0.00000000000E+00 0. -1.
          6    2    1    2  501    0 -0.30723521337E+02 -0.67632853122E+02  0.11052309635E+03  0.22045515932E+03  0.17569002493E+03 0.  0.
         24    2    3    3    0    0  0.30894136327E+01 -0.52046839560E+02  0.14229096513E+03  0.17128681710E+03  0.79837566166E+02 0.  0.
         -6    2    1    2    0  502  0.30723521337E+02  0.67632853122E+02  0.55566527646E+03  0.58685371247E+03  0.17353743915E+03 0.  0.
        -24    2    5    5    0    0  0.34735201186E+02 -0.61549920680E+01  0.14680573871E+03  0.17134324174E+03  0.81007181429E+02 0.  0.
          5    1    3    3  501    0 -0.33812934970E+02 -0.15586013562E+02 -0.31767868775E+02  0.49168342219E+02  0.47000000000E+01 0. -1.
        -13    1    4    4    0    0  0.74547784007E+01  0.38959148298E+01 -0.75381307232E+01  0.11294923115E+02  0.00000000000E+00 0.  1.
         14    1    4    4    0    0 -0.43653647680E+01 -0.55942754390E+02  0.14982909585E+03  0.15999189399E+03  0.00000000000E+00 0. -1.
         -5    1    5    5    0  502 -0.40116798486E+01  0.73787845190E+02  0.40885953775E+03  0.41551047073E+03  0.47000000000E+01 0.  1.
         11    1    6    6    0    0  0.30765927106E+02  0.31882836148E+02  0.10857504698E+03  0.11726720914E+03  0.00000000000E+00 0. -1.
        -12    1    6    6    0    0  0.39692740794E+01 -0.38037828216E+02  0.38230691726E+02  0.54076032602E+02  0.00000000000E+00 0.  1.
<mgrwt>
<rscale>  2 0.19025171E+03</rscale>
<asrwt>0</asrwt>
<pdfrwt beam="1">  1       21 0.11334594E+00 0.19074885E+03</pdfrwt>
<pdfrwt beam="2">  1       21 0.10855424E-01 0.19074885E+03</pdfrwt>
<totfact> 0.42655444E+04</totfact>
</mgrwt>
</event>
<event>
12    1  0.1039378E-001  0.2119319E+03  0.7546771E-02  0.1140126E+00
         21   -1    0    0  503  502  0.00000000000E+00  0.00000000000E+00  0.63468428558E+03  0.63468428558E+03  0.00000000000E+00 0.  1.
         21   -1    0    0  501  503 -0.00000000000E+00 -0.00000000000E+00 -0.24384191998E+03  0.24384191998E+03  0.00000000000E+00 0.  1.
          6    2    1    2  501    0  0.23526928217E+02 -0.12033852309E+03 -0.17474286434E+03  0.27468198119E+03  0.17285903408E+03 0.  0.
         24    2    3    3    0    0  0.34066789889E+02 -0.14803564614E+03 -0.17350504580E+03  0.24465130514E+03  0.81701661483E+02 0.  0.
         -6    2    1    2    0  502 -0.23526928217E+02  0.12033852309E+03  0.56558522993E+03  0.60384422437E+03  0.17235521023E+03 0.  0.
        -24    2    5    5    0    0  0.24128483138E+02  0.13355648785E+03  0.37532943614E+03  0.40720976682E+03  0.80796592838E+02 0.  0.
          5    1    3    3  501    0 -0.10539861672E+02  0.27697123048E+02 -0.12378185342E+01  0.30030676048E+02  0.47000000000E+01 0. -1.
        -11    1    4    4    0    0  0.26060752912E+02 -0.11543823150E+02 -0.61940217229E+02  0.68183672574E+02  0.00000000000E+00 0.  1.
         12    1    4    4    0    0  0.80060369765E+01 -0.13649182299E+03 -0.11156482857E+03  0.17646763257E+03  0.00000000000E+00 0. -1.
         -5    1    5    5    0  502 -0.47655411354E+02 -0.13217964762E+02  0.19025579380E+03  0.19663445755E+03  0.47000000000E+01 0.  1.
         11    1    6    6    0    0  0.47845732722E+02  0.10887154938E+03  0.32725664980E+03  0.34819411719E+03  0.00000000000E+00 0. -1.
        -12    1    6    6    0    0 -0.23717249585E+02  0.24684938466E+02  0.48072786333E+02  0.59015649626E+02  0.00000000000E+00 0.  1.
<mgrwt>
<rscale>  2 0.21182912E+03</rscale>
<asrwt>0</asrwt>
<pdfrwt beam="1">  1       21 0.97643736E-01 0.21193188E+03</pdfrwt>
<pdfrwt beam="2">  1       21 0.37514142E-01 0.21193188E+03</pdfrwt>
<totfact> 0.58659135E+03</totfact>
</mgrwt>
</event>
<event>
12    1  0.1039378E-001  0.1779835E+03  0.7546771E-02  0.1169979E+00
         21   -1    0    0  503  502  0.00000000000E+00  0.00000000000E+00  0.35890465875E+02  0.35890465875E+02  0.00000000000E+00 0.  1.
         21   -1    0    0  501  503 -0.00000000000E+00 -0.00000000000E+00 -0.14167857883E+04  0.14167857883E+04  0.00000000000E+00 0.  1.
          6    2    1    2  501    0  0.31729789896E+02 -0.18642988987E+02 -0.11371615147E+04  0.11508745115E+04  0.17326710600E+03 0.  0.
         24    2    3    3    0    0 -0.59491042509E+01 -0.44712968672E+01 -0.10643765623E+04  0.10675661973E+04  0.82126334379E+02 0.  0.
         -6    2    1    2    0  502 -0.31729789896E+02  0.18642988987E+02 -0.24373380770E+03  0.30180174268E+03  0.17413725123E+03 0.  0.
        -24    2    5    5    0    0 -0.77236185628E+02  0.30213521143E+02 -0.22162615669E+03  0.24969082732E+03  0.79681056011E+02 0.  0.
          5    1    3    3  501    0  0.37678894146E+02 -0.14171692120E+02 -0.72784952394E+02  0.83308314211E+02  0.47000000000E+01 0. -1.
        -11    1    4    4    0    0  0.35632908728E+02  0.90049240474E+01 -0.60475697293E+03  0.60587274996E+03  0.00000000000E+00 0.  1.
         12    1    4    4    0    0 -0.41582012979E+02 -0.13476220915E+02 -0.45961958941E+03  0.46169344733E+03  0.00000000000E+00 0. -1.
         -5    1    5    5    0  502  0.45506395733E+02 -0.11570532156E+02 -0.22107651007E+02  0.52110915363E+02  0.47000000000E+01 0.  1.
         13    1    6    6    0    0 -0.59363222471E+02  0.31861013534E+02 -0.22173212797E+03  0.23174178074E+03  0.00000000000E+00 0. -1.
        -14    1    6    6    0    0 -0.17872963158E+02 -0.16474923917E+01  0.10597127943E+00  0.17949046580E+02  0.00000000000E+00 0.  1.
<mgrwt>
<rscale>  2 0.17777030E+03</rscale>
<asrwt>0</asrwt>
<pdfrwt beam="1">  1       21 0.55216109E-02 0.17798349E+03</pdfrwt>
<pdfrwt beam="2">  1       21 0.21796702E+00 0.17798349E+03</pdfrwt>
<totfact> 0.23803676E+04</totfact>
</mgrwt>
</event>
<event>
12    1  0.1039378E-001  0.2348936E+03  0.7546771E-02  0.1123281E+00
         21   -1    0    0  503  502  0.00000000000E+00  0.00000000000E+00  0.62527939493E+03  0.62527939493E+03  0.00000000000E+00 0.  1.
         21   -1    0    0  501  503 -0.00000000000E+00 -0.00000000000E+00 -0.12829317200E+03  0.12829317200E+03  0.00000000000E+00 0. -1.
          6    2    1    2  501    0 -0.15444335247E+03  0.34980457014E+02  0.37823593851E+02  0.23791936826E+03  0.17348953872E+03 0.  0.
         24    2    3    3    0    0 -0.14494819237E+03  0.17257265127E+02  0.84693812564E+02  0.18670240820E+03  0.79855843046E+02 0.  0.
         -6    2    1    2    0  502  0.15444335247E+03 -0.34980457014E+02  0.45916262908E+03  0.51565319868E+03  0.17318059898E+03 0.  0.
        -24    2    5    5    0    0  0.12988412486E+03 -0.53997733825E+02  0.21165617470E+03  0.26616101957E+03  0.79105694467E+02 0.  0.
          5    1    3    3  501    0 -0.94951601025E+01  0.17723191887E+02 -0.46870218713E+02  0.51216960064E+02  0.47000000000E+01 0. -1.
        -11    1    4    4    0    0 -0.97737158176E+02  0.77716561996E+01  0.96021297422E+02  0.13723352465E+03  0.00000000000E+00 0.  1.
         12    1    4    4    0    0 -0.47211034194E+02  0.94856089271E+01 -0.11327484858E+02  0.49468883549E+02  0.00000000000E+00 0. -1.
         -5    1    5    5    0  502  0.24559227610E+02  0.19017276811E+02  0.24750645438E+03  0.24949217911E+03  0.47000000000E+01 0.  1.
         11    1    6    6    0    0  0.42706438676E+02 -0.25588522636E+01  0.15639872774E+02  0.45552093802E+02  0.00000000000E+00 0. -1.
        -12    1    6    6    0    0  0.87177686186E+02 -0.51438881561E+02  0.19601630193E+03  0.22060892576E+03  0.00000000000E+00 0.  1.
<mgrwt>
<rscale>  2 0.23483655E+03</rscale>
<asrwt>0</asrwt>
<pdfrwt beam="1">  1       21 0.96196828E-01 0.23489360E+03</pdfrwt>
<pdfrwt beam="2">  1       21 0.19737411E-01 0.23489360E+03</pdfrwt>
<totfact> 0.20770736E+04</totfact>
</mgrwt>
</event>
<event>
12    1  0.1039378E-001  0.2245994E+03  0.7546771E-02  0.1130659E+00
         21   -1    0    0  503  502  0.00000000000E+00  0.00000000000E+00  0.63721257509E+03  0.63721257509E+03  0.00000000000E+00 0.  1.
         21   -1    0    0  501  503 -0.00000000000E+00 -0.00000000000E+00 -0.79556989237E+02  0.79556989237E+02  0.00000000000E+00 0. -1.
          6    2    1    2  501    0  0.89690332741E+02 -0.11105689467E+03  0.31193552951E+03  0.38386835191E+03  0.17225895443E+03 0.  0.
         24    2    3    3    0    0 -0.87245265864E+01 -0.52472318796E+02  0.20589324059E+03  0.22771235904E+03  0.81433594647E+02 0.  0.
         -6    2    1    2    0  502 -0.89690332741E+02  0.11105689467E+03  0.24572005634E+03  0.33290121242E+03  0.17339804353E+03 0.  0.
        -24    2    5    5    0    0 -0.13051943858E+03  0.80655310076E+02  0.18093023569E+03  0.25037192617E+03  0.80060903911E+02 0.  0.
          5    1    3    3  501    0  0.98414859328E+02 -0.58584575877E+02  0.10604228892E+03  0.15615599286E+03  0.47000000000E+01 0. -1.
        -13    1    4    4    0    0 -0.22695482422E+02 -0.70697172221E+02  0.16038097715E+03  0.17673492274E+03  0.00000000000E+00 0.  1.
         14    1    4    4    0    0  0.13970955836E+02  0.18224853425E+02  0.45512263437E+02  0.50977436308E+02  0.00000000000E+00 0. -1.
         -5    1    5    5    0  502  0.40829105837E+02  0.30401584597E+02  0.64789820654E+02  0.82529286255E+02  0.47000000000E+01 0.  1.
         11    1    6    6    0    0 -0.23198282856E+02 -0.81275937550E+01  0.35412918146E+01  0.24834630165E+02  0.00000000000E+00 0. -1.
        -12    1    6    6    0    0 -0.10732115572E+03  0.88782903831E+02  0.17738894388E+03  0.22553729600E+03  0.00000000000E+00 0.  1.
<mgrwt>
<rscale>  2 0.22437947E+03</rscale>
<asrwt>0</asrwt>
<pdfrwt beam="1">  1       21 0.98032700E-01 0.22459936E+03</pdfrwt>
<pdfrwt beam="2">  1       21 0.12239537E-01 0.22459936E+03</pdfrwt>
<totfact> 0.47968303E+04</totfact>
</mgrwt>
</event>
<event>
12    1  0.1039378E-001  0.2324791E+03  0.7546771E-02  0.1124970E+00
         21   -1    0    0  503  502  0.00000000000E+00  0.00000000000E+00  0.18271291419E+03  0.18271291419E+03  0.00000000000E+00 0. -1.
         21   -1    0    0  501  503 -0.00000000000E+00 -0.00000000000E+00 -0.34901366893E+03  0.34901366893E+03  0.00000000000E+00 0. -1.
          6    2    1    2  501    0  0.27842116633E+02  0.15257697646E+03  0.21053617581E+02  0.23343051394E+03  0.17318092511E+03 0.  0.
         24    2    3    3    0    0 -0.29365095179E+02  0.18009302984E+02  0.74673872575E+01  0.86502642239E+02  0.78995578567E+02 0.  0.
         -6    2    1    2    0  502 -0.27842116633E+02 -0.15257697646E+03 -0.18735437233E+03  0.29829606918E+03  0.17269616919E+03 0.  0.
        -24    2    5    5    0    0  0.17583599187E+02 -0.16515618036E+03 -0.14420789386E+03  0.23422235669E+03  0.80488811941E+02 0.  0.
          5    1    3    3  501    0  0.57207211812E+02  0.13456767348E+03  0.13586230323E+02  0.14692787170E+03  0.47000000000E+01 0. -1.
        -11    1    4    4    0    0 -0.12305242044E+02 -0.22737503416E+02  0.27721729131E+02  0.37906560242E+02  0.00000000000E+00 0.  1.
         12    1    4    4    0    0 -0.17059853136E+02  0.40746806400E+02 -0.20254341873E+02  0.48596081998E+02  0.00000000000E+00 0. -1.
         -5    1    5    5    0  502 -0.45425715820E+02  0.12579203903E+02 -0.43146478467E+02  0.64073712493E+02  0.47000000000E+01 0.  1.
         11    1    6    6    0    0 -0.24169260351E+02 -0.11870338475E+03 -0.83559207225E+02  0.14716245380E+03  0.00000000000E+00 0. -1.
        -12    1    6    6    0    0  0.41752859538E+02 -0.46452795618E+02 -0.60648686636E+02  0.87059902889E+02  0.00000000000E+00 0.  1.
<mgrwt>
<rscale>  2 0.23238887E+03</rscale>
<asrwt>0</asrwt>
<pdfrwt beam="1">  1       21 0.28109680E-01 0.23247914E+03</pdfrwt>
<pdfrwt beam="2">  1       21 0.53694410E-01 0.23247914E+03</pdfrwt>
<totfact> 0.38910128E+04</totfact>
</mgrwt>
</event>
<event>
12    1  0.1039378E-001  0.2456460E+03  0.7546771E-02  0.1116089E+00
         21   -1    0    0  503  502  0.00000000000E+00  0.00000000000E+00  0.14867195022E+03  0.14867195022E+03  0.00000000000E+00 0.  1.
         21   -1    0    0  501  503 -0.00000000000E+00 -0.00000000000E+00 -0.62369022635E+03  0.62369022635E+03  0.00000000000E+00 0. -1.
          6    2    1    2  501    0  0.73352708968E+02 -0.15784697936E+03 -0.46573562793E+03  0.52654688230E+03  0.17333682623E+03 0.  0.
         24    2    3    3    0    0  0.57070792450E+02 -0.20725634073E+02 -0.25972879434E+03  0.27849795643E+03  0.80096428551E+02 0.  0.
         -6    2    1    2    0  502 -0.73352708968E+02  0.15784697936E+03 -0.92826482009E+01  0.24581529427E+03  0.17332830852E+03 0.  0.
        -24    2    5    5    0    0 -0.72244837075E+02  0.23214633531E+02 -0.10209939091E+02  0.11109318847E+03  0.80493589640E+02 0.  0.
          5    1    3    3  501    0  0.16281916519E+02 -0.13712134529E+03 -0.20600683359E+03  0.24804892587E+03  0.47000000000E+01 0. -1.
        -11    1    4    4    0    0 -0.13228322345E+02 -0.22533645786E+02 -0.11024422766E+03  0.11329847059E+03  0.00000000000E+00 0.  1.
         12    1    4    4    0    0  0.70299114794E+02  0.18080117133E+01 -0.14948456668E+03  0.16519948584E+03  0.00000000000E+00 0. -1.
         -5    1    5    5    0  502 -0.11078718934E+01  0.13463234583E+03  0.92729088985E+00  0.13472210581E+03  0.47000000000E+01 0.  1.
         13    1    6    6    0    0 -0.57617886409E+02  0.38387815251E+02 -0.35799041184E+02  0.77942392469E+02  0.00000000000E+00 0. -1.
        -14    1    6    6    0    0 -0.14626950665E+02 -0.15173181720E+02  0.25589102093E+02  0.33150795997E+02  0.00000000000E+00 0.  1.
<mgrwt>
<rscale>  2 0.24564447E+03</rscale>
<asrwt>0</asrwt>
<pdfrwt beam="1">  1       21 0.22872607E-01 0.24564597E+03</pdfrwt>
<pdfrwt beam="2">  1       21 0.95952345E-01 0.24564597E+03</pdfrwt>
<totfact> 0.15729333E+04</totfact>
</mgrwt>
</event>
<event>
12    1  0.1039378E-001  0.1850508E+03  0.7546771E-02  0.1163368E+00
         21   -1    0    0  503  502  0.00000000000E+00  0.00000000000E+00  0.16926559365E+03  0.16926559365E+03  0.00000000000E+00 0.  1.
         21   -1    0    0  501  503 -0.00000000000E+00 -0.00000000000E+00 -0.27349733911E+03  0.27349733911E+03  0.00000000000E+00 0.  1.
          6    2    1    2  501    0 -0.31358127425E+02  0.52108241179E+02 -0.16624085505E+03  0.24759906913E+03  0.17312040952E+03 0.  0.
         24    2    3    3    0    0 -0.10708537846E+02 -0.24738070843E+02 -0.13931636538E+03  0.16346358693E+03  0.81145854216E+02 0.  0.
         -6    2    1    2    0  502  0.31358127425E+02 -0.52108241179E+02  0.62009109583E+02  0.19516386363E+03  0.17477185998E+03 0.  0.
        -24    2    5    5    0    0  0.37584071784E+02 -0.90407367692E+02  0.80515780687E+01  0.12853736228E+03  0.82891320458E+02 0.  0.
          5    1    3    3  501    0 -0.20649589578E+02  0.76846312022E+02 -0.26924489663E+02  0.84135482198E+02  0.47000000000E+01 0. -1.
        -13    1    4    4    0    0 -0.21797477307E+02  0.36762134035E+01 -0.12957107547E+03  0.13144317464E+03  0.00000000000E+00 0.  1.
         14    1    4    4    0    0  0.11088939461E+02 -0.28414284247E+02 -0.97452899167E+01  0.32020412289E+02  0.00000000000E+00 0. -1.
         -5    1    5    5    0  502 -0.62259443591E+01  0.38299126514E+02  0.53957531515E+02  0.66626501349E+02  0.47000000000E+01 0.  1.
         13    1    6    6    0    0  0.43157311292E+02 -0.63323787420E+01  0.76005868770E+01  0.44276646885E+02  0.00000000000E+00 0. -1.
        -14    1    6    6    0    0 -0.55732395083E+01 -0.84074988950E+02  0.45099119170E+00  0.84260715394E+02  0.00000000000E+00 0.  1.
<mgrwt>
<rscale>  2 0.18465985E+03</rscale>
<asrwt>0</asrwt>
<pdfrwt beam="1">  1       21 0.26040861E-01 0.18505081E+03</pdfrwt>
<pdfrwt beam="2">  1       21 0.42076513E-01 0.18505081E+03</pdfrwt>
<totfact> 0.76395333E+04</totfact>
</mgrwt>
</event>
<event>
12    1  0.1039378E-001  0.3042224E+03  0.7546771E-02  0.1083194E+00
         21   -1    0    0  501  502  0.00000000000E+00  0.00000000000E+00  0.99894849555E+03  0.99894849555E+03  0.00000000000E+00 0. -1.
         21   -1    0    0  502  503 -0.00000000000E+00 -0.00000000000E+00 -0.22720017955E+03  0.22720017955E+03  0.00000000000E+00 0.  1.
         -6    2    1    2    0  503 -0.23742487160E+03 -0.78095206300E+02 -0.86210963829E+02  0.31584907035E+03  0.17279720500E+03 0.  0.
        -24    2    3    3    0    0 -0.20993169547E+03 -0.92279494625E+01 -0.40236682117E+02  0.22847459824E+03  0.80157218257E+02 0.  0.
          6    2    1    2  501    0  0.23742487160E+03  0.78095206300E+02  0.85795927982E+03  0.91029960475E+03  0.17344109568E+03 0.  0.
         24    2    5    5    0    0  0.21261132252E+03  0.96879333436E+01  0.70268128680E+03  0.73875190780E+03  0.81828845417E+02 0.  0.
          5    1    5    5  501    0  0.24813549080E+02  0.68407272956E+02  0.15527799302E+03  0.17154769695E+03  0.47000000000E+01 0. -1.
        -11    1    6    6    0    0  0.13442292150E+03 -0.15547370139E+02  0.32150926184E+03  0.34882581326E+03  0.00000000000E+00 0.  1.
         12    1    6    6    0    0  0.78188401018E+02  0.25235303483E+02  0.38117202496E+03  0.38992609455E+03  0.00000000000E+00 0. -1.
         -5    1    3    3    0  503 -0.27493176133E+02 -0.68867256837E+02 -0.45974281712E+02  0.87374472113E+02  0.47000000000E+01 0.  1.
         11    1    4    4    0    0 -0.10231497278E+03  0.14079245693E+02  0.16526482178E+02  0.10459303719E+03  0.00000000000E+00 0. -1.
        -12    1    4    4    0    0 -0.10761672268E+03 -0.23307195155E+02 -0.56763164295E+02  0.12388156105E+03  0.00000000000E+00 0.  1.
<mgrwt>
<rscale>  2 0.30413066E+03</rscale>
<asrwt>0</asrwt>
<pdfrwt beam="1">  1       21 0.15368438E+00 0.30422236E+03</pdfrwt>
<pdfrwt beam="2">  1       21 0.34953874E-01 0.30422236E+03</pdfrwt>
<totfact> 0.20305212E+03</totfact>
</mgrwt>
</event>
<event>
12    1  0.1039378E-001  0.2333847E+03  0.7546771E-02  0.1124295E+00
         21   -1    0    0  501  502  0.00000000000E+00  0.00000000000E+00  0.11689078819E+03  0.11689078819E+03  0.00000000000E+00 0. -1.
         21   -1    0    0  502  503 -0.00000000000E+00 -0.00000000000E+00 -0.60070318227E+03  0.60070318227E+03  0.00000000000E+00 0.  1.
         -6    2    1    2    0  503  0.54300945855E+02  0.14706194988E+03 -0.41197548196E+03  0.47348938564E+03  0.17289473895E+03 0.  0.
        -24    2    3    3    0    0  0.87218236469E+01  0.53120844319E+02 -0.82322259754E+02  0.12766323769E+03  0.81382144835E+02 0.  0.
          6    2    1    2  501    0 -0.54300945855E+02 -0.14706194988E+03 -0.71836912116E+02  0.24410458482E+03  0.17277354127E+03 0.  0.
         24    2    5    5    0    0  0.35468276607E+02 -0.53162651916E+02 -0.30839423577E+02  0.10780170324E+03  0.81153379296E+02 0.  0.
          5    1    5    5  501    0 -0.89769222462E+02 -0.93899297966E+02 -0.40997488539E+02  0.13630288158E+03  0.47000000000E+01 0. -1.
        -11    1    6    6    0    0  0.20201067874E+02  0.57912157845E+01 -0.40989885908E+02  0.46062914262E+02  0.00000000000E+00 0.  1.
         12    1    6    6    0    0  0.15267208733E+02 -0.58953867700E+02  0.10150462331E+02  0.61738788981E+02  0.00000000000E+00 0. -1.
         -5    1    3    3    0  503  0.45579122208E+02  0.93941105562E+02 -0.32965322221E+03  0.34582614795E+03  0.47000000000E+01 0.  1.
         13    1    4    4    0    0  0.18391661497E+02 -0.13208485300E+02 -0.46361862330E+02  0.51595925956E+02  0.00000000000E+00 0. -1.
        -14    1    4    4    0    0 -0.96698378497E+01  0.66329329619E+02 -0.35960397424E+02  0.76067311736E+02  0.00000000000E+00 0.  1.
<mgrwt>
<rscale>  2 0.23336222E+03</rscale>
<asrwt>0</asrwt>
<pdfrwt beam="1">  1       21 0.17983198E-01 0.23338466E+03</pdfrwt>
<pdfrwt beam="2">  1       21 0.92415874E-01 0.23338466E+03</pdfrwt>
<totfact> 0.27173072E+04</totfact>
</mgrwt>
</event>
<event>
12    1  0.1039378E-001  0.1849171E+03  0.7546771E-02  0.1163712E+00
         21   -1    0    0  503  502  0.00000000000E+00  0.00000000000E+00  0.14172152438E+04  0.14172152438E+04  0.00000000000E+00 0.  1.
         21   -1    0    0  501  503 -0.00000000000E+00 -0.00000000000E+00 -0.55878889298E+02  0.55878889298E+02  0.00000000000E+00 0.  1.
          6    2    1    2  501    0  0.19852122112E+02 -0.62613951406E+02  0.12069001215E+03  0.21874262985E+03  0.17019884083E+03 0.  0.
         24    2    3    3    0    0  0.70591858087E+02 -0.42893039540E+02  0.41709039928E+02  0.12270347562E+03  0.80582105020E+02 0.  0.
         -6    2    1    2    0  502 -0.19852122112E+02  0.62613951406E+02  0.12406463424E+04  0.12543515033E+04  0.17285755187E+03 0.  0.
        -24    2    5    5    0    0 -0.50270576471E+02 -0.12785964914E+02  0.57043477211E+03  0.57920998576E+03  0.86010270394E+02 0.  0.
          5    1    3    3  501    0 -0.50739735975E+02 -0.19720911867E+02  0.78980972218E+02  0.96039154224E+02  0.47000000000E+01 0. -1.
        -11    1    4    4    0    0  0.51849834384E+02 -0.63940720143E+02  0.45833275237E+02  0.94220539889E+02  0.00000000000E+00 0.  1.
         12    1    4    4    0    0  0.18742023703E+02  0.21047680603E+02 -0.41242353090E+01  0.28482935736E+02  0.00000000000E+00 0. -1.
         -5    1    5    5    0  502  0.30418454359E+02  0.75399916321E+02  0.67021157029E+03  0.67514151753E+03  0.47000000000E+01 0.  1.
         13    1    6    6    0    0  0.16088375147E+02  0.10822023140E+02  0.43978838446E+02  0.48063398036E+02  0.00000000000E+00 0. -1.
        -14    1    6    6    0    0 -0.66358951617E+02 -0.23607988054E+02  0.52645593367E+03  0.53114658773E+03  0.00000000000E+00 0.  1.
<mgrwt>
<rscale>  2 0.18429327E+03</rscale>
<asrwt>0</asrwt>
<pdfrwt beam="1">  1       21 0.21803309E+00 0.18491714E+03</pdfrwt>
<pdfrwt beam="2">  1       21 0.85967533E-02 0.18491714E+03</pdfrwt>
<totfact> 0.11023463E+04</totfact>
</mgrwt>
</event>
<event>
12    1  0.1039378E-001  0.1914087E+03  0.7546771E-02  0.1157392E+00
         21   -1    0    0  503  502  0.00000000000E+00  0.00000000000E+00  0.42481799097E+02  0.42481799097E+02  0.00000000000E+00 0.  1.
         21   -1    0    0  501  503 -0.00000000000E+00 -0.00000000000E+00 -0.89822610810E+03  0.89822610810E+03  0.00000000000E+00 0.  1.
          6    2    1    2  501    0 -0.27247388809E+02  0.73641403374E+02 -0.52773014921E+03  0.56137012725E+03  0.17456183115E+03 0.  0.
         24    2    3    3    0    0 -0.67345437868E+02  0.45394417685E+01 -0.19720778473E+03  0.22129652043E+03  0.74331857651E+02 0.  0.
         -6    2    1    2    0  502  0.27247388809E+02 -0.73641403374E+02 -0.32801415979E+03  0.37933777995E+03  0.17360410647E+03 0.  0.
        -24    2    5    5    0    0  0.31603253286E+01  0.24029068331E+02 -0.10490355614E+03  0.13455187527E+03  0.80697380782E+02 0.  0.
          5    1    3    3  501    0  0.40098049059E+02  0.69101961605E+02 -0.33052236448E+03  0.34007360682E+03  0.47000000000E+01 0. -1.
        -11    1    4    4    0    0 -0.12081035551E+02  0.24013502988E+02 -0.17009195828E+02  0.31810571961E+02  0.00000000000E+00 0.  1.
         12    1    4    4    0    0 -0.55264402317E+02 -0.19474061220E+02 -0.18019858891E+03  0.18948594847E+03  0.00000000000E+00 0. -1.
         -5    1    5    5    0  502  0.24087063481E+02 -0.97670471705E+02 -0.22311060365E+03  0.24478590468E+03  0.47000000000E+01 0.  1.
         13    1    6    6    0    0  0.34224937750E+00  0.50453385437E+02 -0.92188913224E+02  0.10509261134E+03  0.00000000000E+00 0. -1.
        -14    1    6    6    0    0  0.28180759511E+01 -0.26424317106E+02 -0.12714642921E+02  0.29459263928E+02  0.00000000000E+00 0.  1.
<mgrwt>
<rscale>  2 0.19119012E+03</rscale>
<asrwt>0</asrwt>
<pdfrwt beam="1">  1       21 0.65356615E-02 0.19140875E+03</pdfrwt>
<pdfrwt beam="2">  1       21 0.13818863E+00 0.19140875E+03</pdfrwt>
<totfact> 0.63049611E+04</totfact>
</mgrwt>
</event>
<event>
12    1  0.1039378E-001  0.2458973E+03  0.7546771E-02  0.1116043E+00
         21   -1    0    0  503  502  0.00000000000E+00  0.00000000000E+00  0.14651100991E+03  0.14651100991E+03  0.00000000000E+00 0. -1.
         21   -1    0    0  501  503 -0.00000000000E+00 -0.00000000000E+00 -0.43116938813E+03  0.43116938813E+03  0.00000000000E+00 0.  1.
          6    2    1    2  501    0  0.81174173940E+02  0.15501932887E+03 -0.80411137002E+02  0.25802057070E+03  0.17172194127E+03 0.  0.
         24    2    3    3    0    0  0.36196514441E+02  0.16542657782E+03 -0.93900000125E+02  0.20969521387E+03  0.80490573295E+02 0.  0.
         -6    2    1    2    0  502 -0.81174173940E+02 -0.15501932887E+03 -0.20424724122E+03  0.31965982733E+03  0.17275772291E+03 0.  0.
        -24    2    5    5    0    0 -0.18933505162E+02 -0.11883844334E+03 -0.20108269396E+03  0.24744444333E+03  0.79457217978E+02 0.  0.
          5    1    3    3  501    0  0.44977659499E+02 -0.10407248953E+02  0.13488863124E+02  0.48325356834E+02  0.47000000000E+01 0. -1.
        -13    1    4    4    0    0 -0.17332566535E+02  0.80520202187E+01 -0.20362675814E+02  0.27926536817E+02  0.00000000000E+00 0.  1.
         14    1    4    4    0    0  0.53529080977E+02  0.15737455760E+03 -0.73537324311E+02  0.18176867705E+03  0.00000000000E+00 0. -1.
         -5    1    5    5    0  502 -0.62240668778E+02 -0.36180885525E+02 -0.31645472553E+01  0.72215384002E+02  0.47000000000E+01 0.  1.
         13    1    6    6    0    0  0.29230009313E+02 -0.62106228216E+02 -0.81013397601E+02  0.10618261448E+03  0.00000000000E+00 0. -1.
        -14    1    6    6    0    0 -0.48163514475E+02 -0.56732215126E+02 -0.12006929636E+03  0.14126182884E+03  0.00000000000E+00 0.  1.
<mgrwt>
<rscale>  2 0.24571543E+03</rscale>
<asrwt>0</asrwt>
<pdfrwt beam="1">  1       21 0.22540155E-01 0.24589727E+03</pdfrwt>
<pdfrwt beam="2">  1       21 0.66333752E-01 0.24589727E+03</pdfrwt>
<totfact> 0.37468704E+04</totfact>
</mgrwt>
</event>
<event>
12    1  0.1039378E-001  0.2322127E+03  0.7546771E-02  0.1126618E+00
         21   -1    0    0  501  502  0.00000000000E+00  0.00000000000E+00  0.66684722609E+03  0.66684722609E+03  0.00000000000E+00 0. -1.
         21   -1    0    0  502  503 -0.00000000000E+00 -0.00000000000E+00 -0.84915521028E+02  0.84915521028E+02  0.00000000000E+00 0. -1.
         -6    2    1    2    0  503 -0.13416333440E+03 -0.45349772088E+02  0.17785966469E+03  0.28571881739E+03  0.17304560140E+03 0.  0.
        -24    2    3    3    0    0 -0.11785236181E+03 -0.67709667412E+02  0.69642366002E+02  0.17391950398E+03  0.83211516483E+02 0.  0.
          6    2    1    2  501    0  0.13416333440E+03  0.45349772088E+02  0.40407204037E+03  0.46604392972E+03  0.18402806442E+03 0.  0.
         24    2    5    5    0    0  0.68888166320E+02  0.71804051597E+02  0.12068300716E+03  0.17399579907E+03  0.76215146734E+02 0.  0.
          5    1    5    5  501    0  0.65275168082E+02 -0.26454279509E+02  0.28338903321E+03  0.29204813065E+03  0.47000000000E+01 0. -1.
        -11    1    6    6    0    0  0.80002944743E+02  0.78438285473E+02  0.11192325436E+03  0.15836619166E+03  0.00000000000E+00 0.  1.
         12    1    6    6    0    0 -0.11114778423E+02 -0.66342338765E+01  0.87597528010E+01  0.15629607406E+02  0.00000000000E+00 0. -1.
         -5    1    3    3    0  503 -0.16310972588E+02  0.22359895323E+02  0.10821729869E+03  0.11179931342E+03  0.47000000000E+01 0.  1.
         13    1    4    4    0    0 -0.61770377440E+02 -0.36248420257E+00  0.59374202858E+02  0.85679676055E+02  0.00000000000E+00 0. -1.
        -14    1    4    4    0    0 -0.56081984374E+02 -0.67347183209E+02  0.10268163144E+02  0.88239827923E+02  0.00000000000E+00 0.  1.
<mgrwt>
<rscale>  2 0.23003133E+03</rscale>
<asrwt>0</asrwt>
<pdfrwt beam="1">  1       21 0.10259188E+00 0.23221268E+03</pdfrwt>
<pdfrwt beam="2">  1       21 0.13063927E-01 0.23221268E+03</pdfrwt>
<totfact> 0.38125731E+04</totfact>
</mgrwt>
</event>
<event>
12    1  0.1039378E-001  0.2287018E+03  0.7546771E-02  0.1127607E+00
         21   -1    0    0  501  502  0.00000000000E+00  0.00000000000E+00  0.10026535320E+03  0.10026535320E+03  0.00000000000E+00 0.  1.
         21   -1    0    0  502  503 -0.00000000000E+00 -0.00000000000E+00 -0.59541235308E+03  0.59541235308E+03  0.00000000000E+00 0.  1.
         -6    2    1    2    0  503  0.10772153352E+03 -0.10332932667E+03 -0.37039364942E+03  0.43516301712E+03  0.17290031062E+03 0.  0.
        -24    2    3    3    0    0  0.72388492507E+02  0.10686388295E+02 -0.19330899054E+03  0.22155338847E+03  0.79769952841E+02 0.  0.
          6    2    1    2  501    0 -0.10772153352E+03  0.10332932667E+03 -0.12475335047E+03  0.26051468916E+03  0.17327327054E+03 0.  0.
         24    2    5    5    0    0 -0.34470680614E+02  0.45022489397E+02  0.63998153362E+01  0.99304833307E+02  0.81272627055E+02 0.  0.
          5    1    5    5  501    0 -0.73250852905E+02  0.58306837269E+02 -0.13115316580E+03  0.16120985585E+03  0.47000000000E+01 0. -1.
        -13    1    6    6    0    0  0.69955536120E+01  0.52987973877E+02 -0.93102635506E+01  0.54252595821E+02  0.00000000000E+00 0.  1.
         14    1    6    6    0    0 -0.41466234226E+02 -0.79654844805E+01  0.15710078887E+02  0.45052237486E+02  0.00000000000E+00 0. -1.
         -5    1    3    3    0  503  0.35333041013E+02 -0.11401571496E+03 -0.17708465887E+03  0.21360962865E+03  0.47000000000E+01 0.  1.
         11    1    4    4    0    0  0.44931805336E+02 -0.46134472002E+01 -0.27694120638E+02  0.52982217240E+02  0.00000000000E+00 0. -1.
        -12    1    4    4    0    0  0.27456687171E+02  0.15299835495E+02 -0.16561486990E+03  0.16857117123E+03  0.00000000000E+00 0.  1.
<mgrwt>
<rscale>  2 0.22863114E+03</rscale>
<asrwt>0</asrwt>
<pdfrwt beam="1">  1       21 0.15425439E-01 0.22870178E+03</pdfrwt>
<pdfrwt beam="2">  1       21 0.91601900E-01 0.22870178E+03</pdfrwt>
<totfact> 0.36899454E+04</totfact>
</mgrwt>
</event>
<event>
12    1  0.1039378E-001  0.3559491E+03  0.7546771E-02  0.1060241E+00
         21   -1    0    0  501  502  0.00000000000E+00  0.00000000000E+00  0.22937653711E+03  0.22937653711E+03  0.00000000000E+00 0. -1.
         21   -1    0    0  502  503 -0.00000000000E+00 -0.00000000000E+00 -0.67017617014E+03  0.67017617014E+03  0.00000000000E+00 0. -1.
         -6    2    1    2    0  503  0.20448964611E+03  0.23458555478E+03 -0.40959675888E+03  0.54265023897E+03  0.17278130424E+03 0.  0.
        -24    2    3    3    0    0  0.21249175647E+03  0.19558087274E+03 -0.40150036441E+03  0.50174742007E+03  0.84518084309E+02 0.  0.
          6    2    1    2  501    0 -0.20448964611E+03 -0.23458555478E+03 -0.31202874141E+02  0.35690246828E+03  0.17192834156E+03 0.  0.
         24    2    5    5    0    0 -0.16161669694E+03 -0.10931127803E+03 -0.63501223978E+02  0.22053162247E+03  0.80826226106E+02 0.  0.
          5    1    5    5  501    0 -0.42872949165E+02 -0.12527427674E+03  0.32298349837E+02  0.13637084580E+03  0.47000000000E+01 0. -1.
        -13    1    6    6    0    0 -0.93516600743E+02 -0.10622499249E+03 -0.54990837828E+02  0.15183245993E+03  0.00000000000E+00 0.  1.
         14    1    6    6    0    0 -0.68100096201E+02 -0.30862855427E+01 -0.85103861499E+01  0.68699162538E+02  0.00000000000E+00 0. -1.
         -5    1    3    3    0  503 -0.80021103569E+01  0.39004682037E+02 -0.80963944732E+01  0.40902818906E+02  0.47000000000E+01 0.  1.
         11    1    4    4    0    0  0.12913929027E+03  0.88483762182E+02 -0.15465317056E+03  0.22005439242E+03  0.00000000000E+00 0. -1.
        -12    1    4    4    0    0  0.83352466198E+02  0.10709711056E+03 -0.24684719385E+03  0.28169302765E+03  0.00000000000E+00 0.  1.
<mgrwt>
<rscale>  2 0.35584576E+03</rscale>
<asrwt>0</asrwt>
<pdfrwt beam="1">  1       21 0.35288698E-01 0.35594912E+03</pdfrwt>
<pdfrwt beam="2">  1       21 0.10310403E+00 0.35594912E+03</pdfrwt>
<totfact> 0.53775590E+03</totfact>
</mgrwt>
</event>
<event>
12    1  0.1039378E-001  0.2080622E+03  0.7546771E-02  0.1143170E+00
         21   -1    0    0  503  502  0.00000000000E+00  0.00000000000E+00  0.11321202884E+03  0.11321202884E+03  0.00000000000E+00 0.  1.
         21   -1    0    0  501  503 -0.00000000000E+00 -0.00000000000E+00 -0.40203998572E+03  0.40203998572E+03  0.00000000000E+00 0. -1.
          6    2    1    2  501    0  0.98606555619E+02  0.61843831231E+02 -0.20228354729E+03  0.29018703640E+03  0.17245860465E+03 0.  0.
         24    2    3    3    0    0  0.87245163551E+02  0.72559955021E+02 -0.22330955984E+03  0.26357689279E+03  0.82030197256E+02 0.  0.
         -6    2    1    2    0  502 -0.98606555619E+02 -0.61843831231E+02 -0.86544409593E+02  0.22506497817E+03  0.17209415241E+03 0.  0.
        -24    2    5    5    0    0 -0.11897178246E+03 -0.31191238383E+01 -0.74608148136E+02  0.16159925466E+03  0.79899495523E+02 0.  0.
          5    1    3    3  501    0  0.11361392068E+02 -0.10716123790E+02  0.21026012554E+02  0.26610143606E+02  0.47000000000E+01 0. -1.
        -13    1    4    4    0    0  0.72794344160E+02  0.88123373687E+01 -0.99855724140E+02  0.12388639746E+03  0.00000000000E+00 0.  1.
         14    1    4    4    0    0  0.14450819391E+02  0.63747617652E+02 -0.12345383570E+03  0.13969049533E+03  0.00000000000E+00 0. -1.
         -5    1    5    5    0  502  0.20365226839E+02 -0.58724707393E+02 -0.11936261457E+02  0.63465723506E+02  0.47000000000E+01 0.  1.
         13    1    6    6    0    0 -0.75065831849E+02  0.25918369706E+01 -0.87661941762E+02  0.11543921675E+03  0.00000000000E+00 0. -1.
        -14    1    6    6    0    0 -0.43905950609E+02 -0.57109608089E+01  0.13053793627E+02  0.46160037915E+02  0.00000000000E+00 0.  1.
<mgrwt>
<rscale>  2 0.20798667E+03</rscale>
<asrwt>0</asrwt>
<pdfrwt beam="1">  1       21 0.17417236E-01 0.20806221E+03</pdfrwt>
<pdfrwt beam="2">  1       21 0.61852304E-01 0.20806221E+03</pdfrwt>
<totfact> 0.71913648E+04</totfact>
</mgrwt>
</event>
<event>
12    1  0.1039378E-001  0.1753071E+03  0.7546771E-02  0.1173099E+00
         21   -1    0    0  501  502  0.00000000000E+00  0.00000000000E+00  0.66000756335E+02  0.66000756335E+02  0.00000000000E+00 0. -1.
         21   -1    0    0  502  503 -0.00000000000E+00 -0.00000000000E+00 -0.74428265416E+03  0.74428265416E+03  0.00000000000E+00 0. -1.
         -6    2    1    2    0  503  0.21277630358E+02  0.17281351132E+02 -0.58854923532E+03  0.61334554763E+03  0.17044405463E+03 0.  0.
        -24    2    3    3    0    0 -0.29865041239E+02  0.40555427131E+02 -0.49675963578E+03  0.50562054564E+03  0.79657624078E+02 0.  0.
          6    2    1    2  501    0 -0.21277630358E+02 -0.17281351132E+02 -0.89732662503E+02  0.19693786286E+03  0.17315076799E+03 0.  0.
         24    2    5    5    0    0 -0.54301119020E+01  0.60347388175E+02 -0.52916742074E+02  0.10944576604E+03  0.74208495055E+02 0.  0.
          5    1    5    5  501    0 -0.15847518456E+02 -0.77628739307E+02 -0.36815920429E+02  0.87492096813E+02  0.47000000000E+01 0. -1.
        -13    1    6    6    0    0 -0.34353070002E+02  0.10764402466E+02 -0.32561721005E+02  0.48541440583E+02  0.00000000000E+00 0.  1.
         14    1    6    6    0    0  0.28922958100E+02  0.49582985710E+02 -0.20355021068E+02  0.60904325461E+02  0.00000000000E+00 0. -1.
         -5    1    3    3    0  503  0.51142671597E+02 -0.23274075999E+02 -0.91789599540E+02  0.10772500200E+03  0.47000000000E+01 0.  1.
         11    1    4    4    0    0 -0.51438906279E+02  0.45342299133E+01 -0.30240923524E+03  0.30678635217E+03  0.00000000000E+00 0. -1.
        -12    1    4    4    0    0  0.21573865040E+02  0.36021197218E+02 -0.19435040054E+03  0.19883419347E+03  0.00000000000E+00 0.  1.
<mgrwt>
<rscale>  2 0.17463500E+03</rscale>
<asrwt>0</asrwt>
<pdfrwt beam="1">  1       21 0.10153962E-01 0.17530708E+03</pdfrwt>
<pdfrwt beam="2">  1       21 0.11450503E+00 0.17530708E+03</pdfrwt>
<totfact> 0.47223067E+04</totfact>
</mgrwt>
</event>
<event>
12    1  0.1039378E-001  0.1836617E+03  0.7546771E-02  0.1164925E+00
         21   -1    0    0  501  502  0.00000000000E+00  0.00000000000E+00  0.21309056244E+02  0.21309056244E+02  0.00000000000E+00 0. -1.
         21   -1    0    0  502  503 -0.00000000000E+00 -0.00000000000E+00 -0.15675383388E+04  0.15675383388E+04  0.00000000000E+00 0. -1.
         -6    2    1    2    0  503  0.63842634218E+01  0.44324803838E+02 -0.82059946875E+03  0.84033538342E+03  0.17542696903E+03 0.  0.
        -24    2    3    3    0    0  0.27370583415E+02 -0.44669490622E+02 -0.39903045161E+03  0.40893888798E+03  0.72534133725E+02 0.  0.
          6    2    1    2  501    0 -0.63842634218E+01 -0.44324803838E+02 -0.72562981385E+03  0.74851201167E+03  0.17811838144E+03 0.  0.
         24    2    5    5    0    0 -0.66578845928E+02 -0.33995658088E+01 -0.52130239157E+03  0.53155568342E+03  0.79692919042E+02 0.  0.
          5    1    5    5  501    0  0.60194582506E+02 -0.40925238030E+02 -0.20432742228E+03  0.21695632825E+03  0.47000000000E+01 0. -1.
        -11    1    6    6    0    0  0.56671254311E+01  0.21237869077E+02 -0.20492045340E+03  0.20609598641E+03  0.00000000000E+00 0.  1.
         12    1    6    6    0    0 -0.72245971359E+02 -0.24637434886E+02 -0.31638193817E+03  0.32545969701E+03  0.00000000000E+00 0. -1.
         -5    1    3    3    0  503 -0.20986319993E+02  0.88994294460E+02 -0.42156901714E+03  0.43139649545E+03  0.47000000000E+01 0.  1.
         13    1    4    4    0    0  0.87416760423E+01  0.17884816695E+02 -0.49252735849E+02  0.53123587576E+02  0.00000000000E+00 0. -1.
        -14    1    4    4    0    0  0.18628907372E+02 -0.62554307317E+02 -0.34977771577E+03  0.35581530040E+03  0.00000000000E+00 0.  1.
<mgrwt>
<rscale>  2 0.18300591E+03</rscale>
<asrwt>0</asrwt>
<pdfrwt beam="1">  1       21 0.32783169E-02 0.18366166E+03</pdfrwt>
<pdfrwt beam="2">  1       21 0.24115971E+00 0.18366166E+03</pdfrwt>
<totfact> 0.41244877E+04</totfact>
</mgrwt>
</event>
<event>
12    1  0.1039378E-001  0.2724145E+03  0.7546771E-02  0.1099907E+00
         21   -1    0    0  503  502  0.00000000000E+00  0.00000000000E+00  0.49416790245E+03  0.49416790245E+03  0.00000000000E+00 0.  1.
         21   -1    0    0  501  503 -0.00000000000E+00 -0.00000000000E+00 -0.21823442959E+03  0.21823442959E+03  0.00000000000E+00 0. -1.
          6    2    1    2  501    0 -0.20981150657E+03  0.16501518122E+02 -0.60965792515E+02  0.27915318252E+03  0.17296387792E+03 0.  0.
         24    2    3    3    0    0 -0.86277955136E+02  0.11016976417E+02 -0.94569991269E+02  0.15092701241E+03  0.79184724001E+02 0.  0.
         -6    2    1    2    0  502  0.20981150657E+03 -0.16501518122E+02  0.33689926537E+03  0.43324914952E+03  0.17294664541E+03 0.  0.
        -24    2    5    5    0    0  0.68503399253E+02  0.90943170337E+00  0.59216759264E+02  0.12115815867E+03  0.80493055971E+02 0.  0.
          5    1    3    3  501    0 -0.12353355144E+03  0.54845417060E+01  0.33604198754E+02  0.12822617011E+03  0.47000000000E+01 0. -1.
        -13    1    4    4    0    0 -0.42216468107E+02 -0.29055736817E+02 -0.18884995384E+02  0.54617845728E+02  0.00000000000E+00 0.  1.
         14    1    4    4    0    0 -0.44061487029E+02  0.40072713233E+02 -0.75684995885E+02  0.96309166683E+02  0.00000000000E+00 0. -1.
         -5    1    5    5    0  502  0.14130810732E+03 -0.17410949826E+02  0.27768250611E+03  0.31209099084E+03  0.47000000000E+01 0.  1.
         13    1    6    6    0    0  0.49884369155E+02 -0.36076995486E+02  0.21681505712E+02  0.65269346398E+02  0.00000000000E+00 0. -1.
        -14    1    6    6    0    0  0.18619030098E+02  0.36986427190E+02  0.37535253552E+02  0.55888812273E+02  0.00000000000E+00 0.  1.
<mgrwt>
<rscale>  2 0.27241179E+03</rscale>
<asrwt>0</asrwt>
<pdfrwt beam="1">  1       21 0.76025831E-01 0.27241452E+03</pdfrwt>
<pdfrwt beam="2">  1       21 0.33574528E-01 0.27241452E+03</pdfrwt>
<totfact> 0.12589555E+04</totfact>
</mgrwt>
</event>
<event>
12    1  0.1039378E-001  0.1897948E+03  0.7546771E-02  0.1164331E+00
         21   -1    0    0  503  502  0.00000000000E+00  0.00000000000E+00  0.15574142349E+03  0.15574142349E+03  0.00000000000E+00 0.  1.
         21   -1    0    0  501  503 -0.00000000000E+00 -0.00000000000E+00 -0.34968271754E+03  0.34968271754E+03  0.00000000000E+00 0.  1.
          6    2    1    2  501    0  0.81013192738E+00 -0.36789310613E+02 -0.26383496075E+03  0.32500918614E+03  0.18619338031E+03 0.  0.
         24    2    3    3    0    0  0.35806098704E+02 -0.89537532547E+02 -0.19204747958E+03  0.22918317161E+03  0.79647004314E+02 0.  0.
         -6    2    1    2    0  502 -0.81013192738E+00  0.36789310613E+02  0.69893666694E+02  0.18041495489E+03  0.16220456718E+03 0.  0.
        -24    2    5    5    0    0 -0.55945017817E+02  0.41310667520E+02  0.51826959583E+02  0.12203007486E+03  0.85842234135E+02 0.  0.
          5    1    3    3  501    0 -0.34995966777E+02  0.52748221934E+02 -0.71787481174E+02  0.95826014533E+02  0.47000000000E+01 0. -1.
        -11    1    4    4    0    0  0.45197138088E+02 -0.33094879395E+02 -0.46536490427E+02  0.72826487453E+02  0.00000000000E+00 0.  1.
         12    1    4    4    0    0 -0.93910393841E+01 -0.56442653152E+02 -0.14551098915E+03  0.15635668415E+03  0.00000000000E+00 0. -1.
         -5    1    5    5    0  502  0.55134885889E+02 -0.45213569070E+01  0.18066707111E+02  0.58384880030E+02  0.47000000000E+01 0.  1.
         11    1    6    6    0    0 -0.72395904010E+02  0.27784084604E+02  0.61175999283E+02  0.98770568304E+02  0.00000000000E+00 0. -1.
        -12    1    6    6    0    0  0.16450886193E+02  0.13526582916E+02 -0.93490397008E+01  0.23259506556E+02  0.00000000000E+00 0.  1.
<mgrwt>
<rscale>  2 0.18363419E+03</rscale>
<asrwt>0</asrwt>
<pdfrwt beam="1">  1       21 0.23960219E-01 0.18979485E+03</pdfrwt>
<pdfrwt beam="2">  1       21 0.53797341E-01 0.18979485E+03</pdfrwt>
<totfact> 0.53748378E+04</totfact>
</mgrwt>
</event>
<event>
12    1  0.1039378E-001  0.1901652E+03  0.7546771E-02  0.1158914E+00
         21   -1    0    0  503  502  0.00000000000E+00  0.00000000000E+00  0.20322459740E+03  0.20322459740E+03  0.00000000000E+00 0.  1.
         21   -1    0    0  501  503 -0.00000000000E+00 -0.00000000000E+00 -0.17554972813E+03  0.17554972813E+03  0.00000000000E+00 0. -1.
          6    2    1    2  501    0 -0.72767821078E+02  0.25207062748E+02  0.97581659205E+01  0.18776700679E+03  0.17096980798E+03 0.  0.
         24    2    3    3    0    0 -0.93264493275E+02  0.56933577103E+02  0.38171330444E+02  0.14026876259E+03  0.79237474611E+02 0.  0.
         -6    2    1    2    0  502  0.72767821078E+02 -0.25207062748E+02  0.17916703346E+02  0.19100731873E+03  0.17387419519E+03 0.  0.
        -24    2    5    5    0    0 -0.33838024325E+02 -0.10370969341E+01 -0.19599995296E+02  0.75341480221E+02  0.64390149604E+02 0.  0.
          5    1    3    3  501    0  0.20496672197E+02 -0.31726514354E+02 -0.28413164523E+02  0.47498244204E+02  0.47000000000E+01 0. -1.
        -11    1    4    4    0    0 -0.55677011328E+02 -0.17009591768E+01  0.43123969348E+02  0.70445011072E+02  0.00000000000E+00 0.  1.
         12    1    4    4    0    0 -0.37587481947E+02  0.58634536279E+02 -0.49526389039E+01  0.69823751517E+02  0.00000000000E+00 0. -1.
         -5    1    5    5    0  502  0.10660584540E+03 -0.24169965814E+02  0.37516698642E+02  0.11566583851E+03  0.47000000000E+01 0.  1.
         11    1    6    6    0    0 -0.47862280617E+01 -0.33786687855E+01 -0.39575767829E+02  0.40007059140E+02  0.00000000000E+00 0. -1.
        -12    1    6    6    0    0 -0.29051796264E+02  0.23415718514E+01  0.19975772533E+02  0.35334421081E+02  0.00000000000E+00 0.  1.
<mgrwt>
<rscale>  2 0.18949869E+03</rscale>
<asrwt>0</asrwt>
<pdfrwt beam="1">  1       21 0.31265322E-01 0.19016516E+03</pdfrwt>
<pdfrwt beam="2">  1       21 0.27007651E-01 0.19016516E+03</pdfrwt>
<totfact> 0.12851303E+05</totfact>
</mgrwt>
</event>
<event>
12    1  0.1039378E-001  0.2265461E+03  0.7546771E-02  0.1129404E+00
         21   -1    0    0  501  502  0.00000000000E+00  0.00000000000E+00  0.34059713858E+03  0.34059713858E+03  0.00000000000E+00 0.  1.
         21   -1    0    0  502  503 -0.00000000000E+00 -0.00000000000E+00 -0.27976616817E+03  0.27976616817E+03  0.00000000000E+00 0.  1.
         -6    2    1    2    0  503  0.19327357956E+02 -0.14240235815E+03 -0.18114116460E+03  0.29006075933E+03  0.17513179101E+03 0.  0.
        -24    2    3    3    0    0 -0.37506293483E+02 -0.61346377927E+02 -0.15398934241E+03  0.18730158790E+03  0.78734154709E+02 0.  0.
          6    2    1    2  501    0 -0.19327357956E+02  0.14240235815E+03  0.24197213501E+03  0.33030254742E+03  0.17290830037E+03 0.  0.
         24    2    5    5    0    0 -0.45029041072E+02  0.54844304020E+02  0.20487276858E+03  0.23168489004E+03  0.81667158292E+02 0.  0.
          5    1    5    5  501    0  0.25701683116E+02  0.87558054126E+02  0.37099366438E+02  0.98617657381E+02  0.47000000000E+01 0. -1.
        -13    1    6    6    0    0 -0.56465209378E+01  0.54714569017E+02  0.59317373169E+02  0.80895723132E+02  0.00000000000E+00 0.  1.
         14    1    6    6    0    0 -0.39382520134E+02  0.12973500304E+00  0.14555539541E+03  0.15078916690E+03  0.00000000000E+00 0. -1.
         -5    1    3    3    0  503  0.56833651439E+02 -0.81055980218E+02 -0.27151822184E+02  0.10275917143E+03  0.47000000000E+01 0.  1.
         11    1    4    4    0    0 -0.24664297561E+02  0.77656874847E+01 -0.11264835462E+02  0.28205141274E+02  0.00000000000E+00 0. -1.
        -12    1    4    4    0    0 -0.12841995921E+02 -0.69112065412E+02 -0.14272450695E+03  0.15909644663E+03  0.00000000000E+00 0.  1.
<mgrwt>
<rscale>  2 0.22611624E+03</rscale>
<asrwt>0</asrwt>
<pdfrwt beam="1">  1       21 0.52399560E-01 0.22654607E+03</pdfrwt>
<pdfrwt beam="2">  1       21 0.43040949E-01 0.22654607E+03</pdfrwt>
<totfact> 0.17576185E+04</totfact>
</mgrwt>
</event>
<event>
12    1  0.1039378E-001  0.2711706E+03  0.7546771E-02  0.1100711E+00
         21   -1    0    0  501  502  0.00000000000E+00  0.00000000000E+00  0.26762303807E+03  0.26762303807E+03  0.00000000000E+00 0. -1.
         21   -1    0    0  502  503 -0.00000000000E+00 -0.00000000000E+00 -0.27569718577E+03  0.27569718577E+03  0.00000000000E+00 0. -1.
         -6    2    1    2    0  503 -0.33037458171E+02  0.20594586133E+03 -0.24958273941E+02  0.27162445147E+03  0.17219685177E+03 0.  0.
        -24    2    3    3    0    0 -0.63978665575E+02  0.16282720253E+03  0.30341229818E+02  0.19483446405E+03  0.80211661388E+02 0.  0.
          6    2    1    2  501    0  0.33037458171E+02 -0.20594586133E+03  0.16884126241E+02  0.27169577237E+03  0.17328689380E+03 0.  0.
         24    2    5    5    0    0  0.55099888277E+02 -0.18885118433E+03  0.59354840081E+02  0.22065823385E+03  0.80413255228E+02 0.  0.
          5    1    5    5  501    0 -0.22062430105E+02 -0.17094677004E+02 -0.42470713840E+02  0.51037538519E+02  0.47000000000E+01 0. -1.
        -13    1    6    6    0    0  0.32524371005E+02 -0.92840479274E+02 -0.11747755155E+02  0.99071686431E+02  0.00000000000E+00 0.  1.
         14    1    6    6    0    0  0.22575517272E+02 -0.96010705054E+02  0.71102595236E+02  0.12158654742E+03  0.00000000000E+00 0. -1.
         -5    1    3    3    0  503  0.30941207404E+02  0.43118658804E+02 -0.55299503759E+02  0.76789987425E+02  0.47000000000E+01 0.  1.
         11    1    4    4    0    0 -0.64404590591E+01  0.10271173576E+03  0.41321938821E+02  0.11089942653E+03  0.00000000000E+00 0. -1.
        -12    1    4    4    0    0 -0.57538206516E+02  0.60115466764E+02 -0.10980709003E+02  0.83935037520E+02  0.00000000000E+00 0.  1.
<mgrwt>
<rscale>  2 0.27099666E+03</rscale>
<asrwt>0</asrwt>
<pdfrwt beam="1">  1       21 0.41172775E-01 0.27117065E+03</pdfrwt>
<pdfrwt beam="2">  1       21 0.42414952E-01 0.27117065E+03</pdfrwt>
<totfact> 0.29257836E+04</totfact>
</mgrwt>
</event>
<event>
12    1  0.1039378E-001  0.2691784E+03  0.7546771E-02  0.1101779E+00
         21   -1    0    0  503  502  0.00000000000E+00  0.00000000000E+00  0.13389829718E+04  0.13389829718E+04  0.00000000000E+00 0. -1.
         21   -1    0    0  501  503 -0.00000000000E+00 -0.00000000000E+00 -0.66830560185E+02  0.66830560185E+02  0.00000000000E+00 0. -1.
          6    2    1    2  501    0  0.36275518074E+02 -0.20305701848E+03  0.32879335569E+03  0.42480214322E+03  0.17263755146E+03 0.  0.
         24    2    3    3    0    0 -0.35430014520E+02 -0.55782286157E+02  0.15143645902E+03  0.18332939325E+03  0.79433720352E+02 0.  0.
         -6    2    1    2    0  502 -0.36275518074E+02  0.20305701848E+03  0.94335905591E+03  0.98101138876E+03  0.17294210167E+03 0.  0.
        -24    2    5    5    0    0 -0.62663633095E+01  0.21648524307E+03  0.87485748887E+03  0.90488372445E+03  0.80831931580E+02 0.  0.
          5    1    3    3  501    0  0.71705532594E+02 -0.14727473232E+03  0.17735689667E+03  0.24147274998E+03  0.47000000000E+01 0. -1.
        -13    1    4    4    0    0 -0.21165266122E+02 -0.86774122893E+01 -0.12473742169E+01  0.22908992045E+02  0.00000000000E+00 0.  1.
         14    1    4    4    0    0 -0.14264748398E+02 -0.47104873867E+02  0.15268383324E+03  0.16042040120E+03  0.00000000000E+00 0. -1.
         -5    1    5    5    0  502 -0.30009154764E+02 -0.13428224596E+02  0.68501567039E+02  0.76127664303E+02  0.47000000000E+01 0.  1.
         13    1    6    6    0    0 -0.33151878246E+02  0.15839004111E+03  0.53069946479E+03  0.55482283125E+03  0.00000000000E+00 0. -1.
        -14    1    6    6    0    0  0.26885514937E+02  0.58095201963E+02  0.34415802409E+03  0.35006089320E+03  0.00000000000E+00 0.  1.
<mgrwt>
<rscale>  2 0.26912954E+03</rscale>
<asrwt>0</asrwt>
<pdfrwt beam="1">  1       21 0.20599736E+00 0.26917845E+03</pdfrwt>
<pdfrwt beam="2">  1       21 0.10281626E-01 0.26917845E+03</pdfrwt>
<totfact> 0.89718843E+03</totfact>
</mgrwt>
</event>
<event>
12    1  0.1039378E-001  0.1975809E+03  0.7546771E-02  0.1153995E+00
         21   -1    0    0  503  502  0.00000000000E+00  0.00000000000E+00  0.56898214432E+03  0.56898214432E+03  0.00000000000E+00 0.  1.
         21   -1    0    0  501  503 -0.00000000000E+00 -0.00000000000E+00 -0.65336832813E+02  0.65336832813E+02  0.00000000000E+00 0.  1.
          6    2    1    2  501    0  0.42226491441E+02  0.57287096921E+02  0.26042862741E+03  0.32096202554E+03  0.17357610381E+03 0.  0.
         24    2    3    3    0    0 -0.17043624007E+02  0.69149324339E+02  0.22921374472E+03  0.25277025239E+03  0.79257463678E+02 0.  0.
         -6    2    1    2    0  502 -0.42226491441E+02 -0.57287096921E+02  0.24321668410E+03  0.31335695159E+03  0.18431857105E+03 0.  0.
        -24    2    5    5    0    0  0.25065612645E+02 -0.83529167307E+01  0.20564341464E+03  0.22194239126E+03  0.79190623801E+02 0.  0.
          5    1    3    3  501    0  0.59270115448E+02 -0.11862227418E+02  0.31214882688E+02  0.68191773153E+02  0.47000000000E+01 0. -1.
        -13    1    4    4    0    0  0.13331230698E+02  0.42367186072E+02  0.41663392584E+02  0.60897770478E+02  0.00000000000E+00 0.  1.
         14    1    4    4    0    0 -0.30374854705E+02  0.26782138267E+02  0.18755035214E+03  0.19187248191E+03  0.00000000000E+00 0. -1.
         -5    1    5    5    0  502 -0.67292104086E+02 -0.48934180190E+02  0.37573269465E+02  0.91414560336E+02  0.47000000000E+01 0.  1.
         11    1    6    6    0    0 -0.50555276147E+01 -0.13108777191E+02 -0.46619226306E-03  0.14049854061E+02  0.00000000000E+00 0. -1.
        -12    1    6    6    0    0  0.30121140260E+02  0.47558604604E+01  0.20564388083E+03  0.20789253720E+03  0.00000000000E+00 0.  1.
<mgrwt>
<rscale>  2 0.19503684E+03</rscale>
<asrwt>0</asrwt>
<pdfrwt beam="1">  1       21 0.87535711E-01 0.19758093E+03</pdfrwt>
<pdfrwt beam="2">  1       21 0.10051821E-01 0.19758093E+03</pdfrwt>
<totfact> 0.89872359E+04</totfact>
</mgrwt>
</event>
<event>
12    1  0.1039378E-001  0.3372310E+03  0.7546771E-02  0.1068442E+00
         21   -1    0    0  503  502  0.00000000000E+00  0.00000000000E+00  0.67486649540E+03  0.67486649540E+03  0.00000000000E+00 0. -1.
         21   -1    0    0  501  503 -0.00000000000E+00 -0.00000000000E+00 -0.17143282410E+03  0.17143282410E+03  0.00000000000E+00 0. -1.
          6    2    1    2  501    0 -0.23776618138E+03  0.16073142979E+03  0.17764784288E+03  0.37740577390E+03  0.16884612096E+03 0.  0.
         24    2    3    3    0    0 -0.19055049002E+03  0.51970813645E+02  0.12804953913E+03  0.24879677394E+03  0.80577264388E+02 0.  0.
         -6    2    1    2    0  502  0.23776618138E+03 -0.16073142979E+03  0.32578582841E+03  0.46889354560E+03  0.17708021229E+03 0.  0.
        -24    2    5    5    0    0  0.70820227105E+02 -0.36911424235E+01  0.87185127541E+02  0.13800838734E+03  0.80099559373E+02 0.  0.
          5    1    3    3  501    0 -0.47215691361E+02  0.10876061614E+03  0.49598303750E+02  0.12860899996E+03  0.47000000000E+01 0. -1.
        -11    1    4    4    0    0 -0.31060031570E+02  0.43471556399E+02  0.36458233351E+02  0.64681562720E+02  0.00000000000E+00 0.  1.
         12    1    4    4    0    0 -0.15949045845E+03  0.84992572467E+01  0.91591305783E+02  0.18411521122E+03  0.00000000000E+00 0. -1.
         -5    1    5    5    0  502  0.16694595427E+03 -0.15704028737E+03  0.23860070087E+03  0.33088515826E+03  0.47000000000E+01 0.  1.
         11    1    6    6    0    0  0.87225449545E+02 -0.12589741479E+02  0.68729953835E+02  0.11176129559E+03  0.00000000000E+00 0. -1.
        -12    1    6    6    0    0 -0.16405222440E+02  0.88985990560E+01  0.18455173707E+02  0.26247091744E+02  0.00000000000E+00 0.  1.
<mgrwt>
<rscale>  2 0.33616345E+03</rscale>
<asrwt>0</asrwt>
<pdfrwt beam="1">  1       21 0.10382561E+00 0.33723101E+03</pdfrwt>
<pdfrwt beam="2">  1       21 0.26374281E-01 0.33723101E+03</pdfrwt>
<totfact> 0.94834769E+03</totfact>
</mgrwt>
</event>
<event>
12    1  0.1039378E-001  0.2026615E+03  0.7546771E-02  0.1147881E+00
         21   -1    0    0  503  502  0.00000000000E+00  0.00000000000E+00  0.68446360541E+02  0.68446360541E+02  0.00000000000E+00 0.  1.
         21   -1    0    0  501  503 -0.00000000000E+00 -0.00000000000E+00 -0.12211892000E+04  0.12211892000E+04  0.00000000000E+00 0.  1.
          6    2    1    2  501    0  0.70750085480E+02 -0.72326262863E+02 -0.10369411994E+04  0.10562223680E+04  0.17355684025E+03 0.  0.
         24    2    3    3    0    0  0.84810944489E+02 -0.26852203769E+02 -0.94605935960E+03  0.95352282268E+03  0.79142430697E+02 0.  0.
         -6    2    1    2    0  502 -0.70750085480E+02  0.72326262863E+02 -0.11580164010E+03  0.23341319256E+03  0.17559907664E+03 0.  0.
        -24    2    5    5    0    0 -0.15461919397E+02  0.43039197284E+02  0.11072164396E+02  0.91873213099E+02  0.78909131325E+02 0.  0.
          5    1    3    3  501    0 -0.14060859009E+02 -0.45474059094E+02 -0.90881839772E+02  0.10269954531E+03  0.47000000000E+01 0. -1.
        -13    1    4    4    0    0  0.44780670717E+02 -0.28292227868E+02 -0.80894351994E+03  0.81067587671E+03  0.00000000000E+00 0.  1.
         14    1    4    4    0    0  0.40030273772E+02  0.14400240994E+01 -0.13711583965E+03  0.14284694596E+03  0.00000000000E+00 0. -1.
         -5    1    5    5    0  502 -0.55288166083E+02  0.29287065579E+02 -0.12687380450E+03  0.14153997947E+03  0.47000000000E+01 0.  1.
         11    1    6    6    0    0 -0.40088428254E+02 -0.32956662317E+00  0.12458367850E+02  0.41980967396E+02  0.00000000000E+00 0. -1.
        -12    1    6    6    0    0  0.24626508857E+02  0.43368763907E+02 -0.13862034538E+01  0.49892245703E+02  0.00000000000E+00 0.  1.
<mgrwt>
<rscale>  2 0.20221835E+03</rscale>
<asrwt>0</asrwt>
<pdfrwt beam="1">  1       21 0.10530211E-01 0.20266154E+03</pdfrwt>
<pdfrwt beam="2">  1       21 0.18787523E+00 0.20266154E+03</pdfrwt>
<totfact> 0.11835403E+04</totfact>
</mgrwt>
</event>
<event>
12    1  0.1039378E-001  0.1745188E+03  0.7546771E-02  0.1173494E+00
         21   -1    0    0  503  502  0.00000000000E+00  0.00000000000E+00  0.57429199242E+02  0.57429199242E+02  0.00000000000E+00 0. -1.
         21   -1    0    0  501  503 -0.00000000000E+00 -0.00000000000E+00 -0.11424410270E+04  0.11424410270E+04  0.00000000000E+00 0. -1.
          6    2    1    2  501    0 -0.15410363618E+02  0.13258922148E+02 -0.98362887787E+03  0.99899078691E+03  0.17333073766E+03 0.  0.
         24    2    3    3    0    0  0.24816681511E+02  0.10717313771E+02 -0.91778148408E+03  0.92164323231E+03  0.79828983758E+02 0.  0.
         -6    2    1    2    0  502  0.15410363618E+02 -0.13258922148E+02 -0.10138294987E+03  0.20087943931E+03  0.17222301905E+03 0.  0.
        -24    2    5    5    0    0  0.59234678507E+02 -0.47156499557E+01 -0.11639020528E+03  0.15354165535E+03  0.80606299708E+02 0.  0.
          5    1    3    3  501    0 -0.40227045129E+02  0.25416083767E+01 -0.65847393796E+02  0.77347554600E+02  0.47000000000E+01 0. -1.
        -13    1    4    4    0    0 -0.58398604266E+01  0.37187938443E+02 -0.27195929740E+03  0.27455219208E+03  0.00000000000E+00 0.  1.
         14    1    4    4    0    0  0.30656541937E+02 -0.26470624672E+02 -0.64582218668E+03  0.64709104023E+03  0.00000000000E+00 0. -1.
         -5    1    5    5    0  502 -0.43824314889E+02 -0.85432721921E+01  0.15007255411E+02  0.47337783959E+02  0.47000000000E+01 0.  1.
         11    1    6    6    0    0 -0.92041516635E+01 -0.76751098996E+01  0.59107368872E+01  0.13362654316E+02  0.00000000000E+00 0. -1.
        -12    1    6    6    0    0  0.68438830170E+02  0.29594599439E+01 -0.12230094216E+03  0.14017900104E+03  0.00000000000E+00 0.  1.
<mgrwt>
<rscale>  2 0.17424315E+03</rscale>
<asrwt>0</asrwt>
<pdfrwt beam="1">  1       21 0.88352617E-02 0.17451883E+03</pdfrwt>
<pdfrwt beam="2">  1       21 0.17576015E+00 0.17451883E+03</pdfrwt>
<totfact> 0.19892452E+04</totfact>
</mgrwt>
</event>
<event>
12    1  0.1039378E-001  0.2398018E+03  0.7546771E-02  0.1120110E+00
         21   -1    0    0  503  502  0.00000000000E+00  0.00000000000E+00  0.34681371375E+03  0.34681371375E+03  0.00000000000E+00 0. -1.
         21   -1    0    0  501  503 -0.00000000000E+00 -0.00000000000E+00 -0.24577837232E+03  0.24577837232E+03  0.00000000000E+00 0.  1.
          6    2    1    2  501    0  0.80579520843E+02 -0.14324433698E+03 -0.11921988614E+03  0.26780266599E+03  0.17462212748E+03 0.  0.
         24    2    3    3    0    0  0.33799160096E+02 -0.10335476586E+02 -0.85879225926E+02  0.12293425347E+03  0.80550505472E+02 0.  0.
         -6    2    1    2    0  502 -0.80579520843E+02  0.14324433698E+03  0.22025522758E+03  0.32478942008E+03  0.17310055709E+03 0.  0.
        -24    2    5    5    0    0 -0.86176325186E+01  0.91409072460E+02  0.19828330567E+03  0.23330027662E+03  0.81748808214E+02 0.  0.
          5    1    3    3  501    0  0.46780360748E+02 -0.13290886039E+03 -0.33340660213E+02  0.14486841252E+03  0.47000000000E+01 0. -1.
        -13    1    4    4    0    0  0.41515933352E+02  0.24592550017E+02 -0.30753906373E+02  0.57220354732E+02  0.00000000000E+00 0.  1.
         14    1    4    4    0    0 -0.77167732564E+01 -0.34928026603E+02 -0.55125319554E+02  0.65713898741E+02  0.00000000000E+00 0. -1.
         -5    1    5    5    0  502 -0.71961888325E+02  0.51835264516E+02  0.21971921905E+02  0.91489143459E+02  0.47000000000E+01 0.  1.
         13    1    6    6    0    0  0.19608684538E+02  0.44018378995E+02  0.15748323682E+03  0.16469088645E+03  0.00000000000E+00 0. -1.
        -14    1    6    6    0    0 -0.28226317057E+02  0.47390693465E+02  0.40800068849E+02  0.68609390172E+02  0.00000000000E+00 0.  1.
<mgrwt>
<rscale>  2 0.23952486E+03</rscale>
<asrwt>0</asrwt>
<pdfrwt beam="1">  1       21 0.53355956E-01 0.23980177E+03</pdfrwt>
<pdfrwt beam="2">  1       21 0.37812057E-01 0.23980177E+03</pdfrwt>
<totfact> 0.21859742E+04</totfact>
</mgrwt>
</event>
<event>
12    1  0.1039378E-001  0.1981121E+03  0.7546771E-02  0.1152781E+00
         21   -1    0    0  503  502  0.00000000000E+00  0.00000000000E+00  0.22933726213E+03  0.22933726213E+03  0.00000000000E+00 0. -1.
         21   -1    0    0  501  503 -0.00000000000E+00 -0.00000000000E+00 -0.30202253938E+03  0.30202253938E+03  0.00000000000E+00 0. -1.
          6    2    1    2  501    0 -0.49347326532E+02 -0.64473698815E+02 -0.21463488157E+03  0.28764257118E+03  0.17343038919E+03 0.  0.
         24    2    3    3    0    0  0.16402664596E+02 -0.34780300236E+02 -0.34763850758E+02  0.93785827742E+02  0.78157146028E+02 0.  0.
         -6    2    1    2    0  502  0.49347326532E+02  0.64473698815E+02  0.14194960432E+03  0.24371723032E+03  0.18071076812E+03 0.  0.
        -24    2    5    5    0    0  0.12272568848E+02  0.99162822782E+02  0.14370047970E+03  0.19269734651E+03  0.80613634817E+02 0.  0.
          5    1    3    3  501    0 -0.65749991128E+02 -0.29693398579E+02 -0.17987103081E+03  0.19385674344E+03  0.47000000000E+01 0. -1.
        -11    1    4    4    0    0  0.14982250376E+02 -0.50139488588E+02  0.35834064430E+01  0.52452616178E+02  0.00000000000E+00 0.  1.
         12    1    4    4    0    0  0.14204142203E+01  0.15359188351E+02 -0.38347257201E+02  0.41333211564E+02  0.00000000000E+00 0. -1.
         -5    1    5    5    0  502  0.37074757683E+02 -0.34689123968E+02 -0.17508753844E+01  0.51019883806E+02  0.47000000000E+01 0.  1.
         11    1    6    6    0    0  0.37902970581E+02  0.65158975164E+02  0.12547972434E+03  0.14638131180E+03  0.00000000000E+00 0. -1.
        -12    1    6    6    0    0 -0.25630401733E+02  0.34003847619E+02  0.18220755363E+02  0.46316034716E+02  0.00000000000E+00 0.  1.
<mgrwt>
<rscale>  2 0.19643653E+03</rscale>
<asrwt>0</asrwt>
<pdfrwt beam="1">  1       21 0.35282656E-01 0.19811208E+03</pdfrwt>
<pdfrwt beam="2">  1       21 0.46465006E-01 0.19811208E+03</pdfrwt>
<totfact> 0.34257546E+04</totfact>
</mgrwt>
</event>
<event>
12    1  0.1039378E-001  0.1783792E+03  0.7546771E-02  0.1169832E+00
         21   -1    0    0  503  502  0.00000000000E+00  0.00000000000E+00  0.13272935083E+03  0.13272935083E+03  0.00000000000E+00 0.  1.
         21   -1    0    0  501  503 -0.00000000000E+00 -0.00000000000E+00 -0.23808801559E+03  0.23808801559E+03  0.00000000000E+00 0.  1.
          6    2    1    2  501    0  0.41696921338E+02  0.15897539787E+02 -0.42098219500E+02  0.18327957701E+03  0.17270720380E+03 0.  0.
         24    2    3    3    0    0 -0.52874616955E+02  0.28913635248E+02 -0.25518424147E+02  0.86273524567E+02  0.56215724214E+02 0.  0.
         -6    2    1    2    0  502 -0.41696921338E+02 -0.15897539787E+02 -0.63260445268E+02  0.18753778941E+03  0.17081327086E+03 0.  0.
        -24    2    5    5    0    0 -0.14713532342E+02  0.56638808523E+01  0.28808800292E+02  0.89090676101E+02  0.82816870344E+02 0.  0.
          5    1    3    3  501    0  0.94571538293E+02 -0.13016095461E+02 -0.16579795353E+02  0.97006052441E+02  0.47000000000E+01 0. -1.
        -11    1    4    4    0    0 -0.64969721428E+01 -0.50947892203E+01  0.14168474850E+02  0.16398573224E+02  0.00000000000E+00 0.  1.
         12    1    4    4    0    0 -0.46377644813E+02  0.34008424469E+02 -0.39686898997E+02  0.69874951343E+02  0.00000000000E+00 0. -1.
         -5    1    5    5    0  502 -0.26983388996E+02 -0.21561420639E+02 -0.92069245560E+02  0.98447113313E+02  0.47000000000E+01 0.  1.
         11    1    6    6    0    0 -0.46791411047E+02 -0.96481673083E+01  0.23182147132E+02  0.53103062302E+02  0.00000000000E+00 0. -1.
        -12    1    6    6    0    0  0.32077878706E+02  0.15312048161E+02  0.56266531597E+01  0.35987613799E+02  0.00000000000E+00 0.  1.
<mgrwt>
<rscale>  2 0.17791917E+03</rscale>
<asrwt>0</asrwt>
<pdfrwt beam="1">  1       21 0.20419900E-01 0.17837921E+03</pdfrwt>
<pdfrwt beam="2">  1       21 0.36628925E-01 0.17837921E+03</pdfrwt>
<totfact> 0.16031784E+05</totfact>
</mgrwt>
</event>
<event>
12    1  0.1039378E-001  0.3536888E+03  0.7546771E-02  0.1061116E+00
         21   -1    0    0  501  502  0.00000000000E+00  0.00000000000E+00  0.15613482009E+03  0.15613482009E+03  0.00000000000E+00 0. -1.
         21   -1    0    0  502  503 -0.00000000000E+00 -0.00000000000E+00 -0.84920790123E+03  0.84920790123E+03  0.00000000000E+00 0.  1.
         -6    2    1    2    0  503 -0.18326900441E+03  0.24901287904E+03 -0.46622389594E+03  0.58520126744E+03  0.17175814496E+03 0.  0.
        -24    2    3    3    0    0 -0.21678301864E+02  0.54089246491E+02 -0.15832269246E+03  0.18653847913E+03  0.79592297938E+02 0.  0.
          6    2    1    2  501    0  0.18326900441E+03 -0.24901287904E+03 -0.22684918521E+03  0.42014145388E+03  0.17164890485E+03 0.  0.
         24    2    5    5    0    0  0.16325923017E+03 -0.26456141935E+03 -0.22945933763E+03  0.39423680050E+03  0.78260759015E+02 0.  0.
          5    1    5    5  501    0  0.20009774246E+02  0.15548540307E+02  0.26101524269E+01  0.25904653380E+02  0.47000000000E+01 0. -1.
        -13    1    6    6    0    0  0.74684143116E+02 -0.54103814304E+02 -0.64043171423E+02  0.11227854542E+03  0.00000000000E+00 0.  1.
         14    1    6    6    0    0  0.88575087049E+02 -0.21045760504E+03 -0.16541616621E+03  0.28195825508E+03  0.00000000000E+00 0. -1.
         -5    1    3    3    0  503 -0.16159070255E+03  0.19492363255E+03 -0.30790120347E+03  0.39866278830E+03  0.47000000000E+01 0.  1.
         11    1    4    4    0    0  0.23775782502E+02  0.24651144361E+02 -0.24315052937E+02  0.42002244598E+02  0.00000000000E+00 0. -1.
        -12    1    4    4    0    0 -0.45454084366E+02  0.29438102130E+02 -0.13400763953E+03  0.14453623454E+03  0.00000000000E+00 0.  1.
<mgrwt>
<rscale>  2 0.35367559E+03</rscale>
<asrwt>0</asrwt>
<pdfrwt beam="1">  1       21 0.24020741E-01 0.35368885E+03</pdfrwt>
<pdfrwt beam="2">  1       21 0.13064737E+00 0.35368885E+03</pdfrwt>
<totfact> 0.63522993E+03</totfact>
</mgrwt>
</event>
<event>
12    1  0.1039378E-001  0.2230305E+03  0.7546771E-02  0.1131704E+00
         21   -1    0    0  501  502  0.00000000000E+00  0.00000000000E+00  0.20466075736E+03  0.20466075736E+03  0.00000000000E+00 0.  1.
         21   -1    0    0  502  503 -0.00000000000E+00 -0.00000000000E+00 -0.34133782836E+03  0.34133782836E+03  0.00000000000E+00 0.  1.
         -6    2    1    2    0  503 -0.12507083946E+03  0.63820459181E+02  0.78456749127E+02  0.23611929425E+03  0.17286148716E+03 0.  0.
        -24    2    3    3    0    0 -0.89262155887E+02 -0.27635295557E+02  0.44170474836E+02  0.13198449940E+03  0.82081881079E+02 0.  0.
          6    2    1    2  501    0  0.12507083946E+03 -0.63820459181E+02 -0.21513382013E+03  0.30987929146E+03  0.17328256930E+03 0.  0.
         24    2    5    5    0    0  0.57217139355E+02 -0.43665989910E+02 -0.21255351261E+03  0.23889284743E+03  0.81916281168E+02 0.  0.
          5    1    5    5  501    0  0.67853700101E+02 -0.20154469272E+02 -0.25803075118E+01  0.70986444029E+02  0.47000000000E+01 0. -1.
        -11    1    6    6    0    0  0.52563621729E+02 -0.34246201645E+02 -0.62785374002E+02  0.88756632682E+02  0.00000000000E+00 0.  1.
         12    1    6    6    0    0  0.46535176257E+01 -0.94197882641E+01 -0.14976813861E+03  0.15013621475E+03  0.00000000000E+00 0. -1.
         -5    1    3    3    0  503 -0.35808683569E+02  0.91455754738E+02  0.34286274291E+02  0.10413479485E+03  0.47000000000E+01 0.  1.
         11    1    4    4    0    0 -0.88611179669E+02 -0.45394891510E+01  0.80305628527E+01  0.89090055920E+02  0.00000000000E+00 0. -1.
        -12    1    4    4    0    0 -0.65097621780E+00 -0.23095806406E+02  0.36139911984E+02  0.42894443483E+02  0.00000000000E+00 0.  1.
<mgrwt>
<rscale>  2 0.22294873E+03</rscale>
<asrwt>0</asrwt>
<pdfrwt beam="1">  1       21 0.31486271E-01 0.22303052E+03</pdfrwt>
<pdfrwt beam="2">  1       21 0.52513511E-01 0.22303052E+03</pdfrwt>
<totfact> 0.32815808E+04</totfact>
</mgrwt>
</event>
<event>
12    1  0.1039378E-001  0.1887597E+03  0.7546771E-02  0.1159921E+00
         21   -1    0    0  503  502  0.00000000000E+00  0.00000000000E+00  0.87562090304E+03  0.87562090304E+03  0.00000000000E+00 0.  1.
         21   -1    0    0  501  503 -0.00000000000E+00 -0.00000000000E+00 -0.65926686027E+02  0.65926686027E+02  0.00000000000E+00 0.  1.
          6    2    1    2  501    0  0.25871352518E+02  0.70327840799E+02  0.11273395749E+03  0.21986167638E+03  0.17324802884E+03 0.  0.
         24    2    3    3    0    0  0.43781989055E+02 -0.22371856260E+02  0.53396580969E+02  0.10825057035E+03  0.80309579778E+02 0.  0.
         -6    2    1    2    0  502 -0.25871352518E+02 -0.70327840799E+02  0.69696025952E+03  0.72168591269E+03  0.17164387886E+03 0.  0.
        -24    2    5    5    0    0 -0.10535931075E+01 -0.93401219730E+02  0.31233212998E+03  0.33553932131E+03  0.79437892869E+02 0.  0.
          5    1    3    3  501    0 -0.17910636537E+02  0.92699697059E+02  0.59337376525E+02  0.11161110603E+03  0.47000000000E+01 0. -1.
        -13    1    4    4    0    0 -0.14500942554E+01 -0.13895055556E+01 -0.19680817559E+02  0.19783025018E+02  0.00000000000E+00 0.  1.
         14    1    4    4    0    0  0.45232083311E+02 -0.20982350705E+02  0.73077398529E+02  0.88467545334E+02  0.00000000000E+00 0. -1.
         -5    1    5    5    0  502 -0.24817759410E+02  0.23073378932E+02  0.38462812955E+03  0.38614659138E+03  0.47000000000E+01 0.  1.
         11    1    6    6    0    0  0.15872323678E+02  0.54031275203E+01  0.91452022045E+02  0.92976323772E+02  0.00000000000E+00 0. -1.
        -12    1    6    6    0    0 -0.16925916786E+02 -0.98804347251E+02  0.22088010793E+03  0.24256299754E+03  0.00000000000E+00 0.  1.
<mgrwt>
<rscale>  2 0.18839078E+03</rscale>
<asrwt>0</asrwt>
<pdfrwt beam="1">  1       21 0.13471090E+00 0.18875967E+03</pdfrwt>
<pdfrwt beam="2">  1       21 0.10142568E-01 0.18875967E+03</pdfrwt>
<totfact> 0.31331472E+04</totfact>
</mgrwt>
</event>
<event>
12    1  0.1039378E-001  0.1894123E+03  0.7546771E-02  0.1159160E+00
         21   -1    0    0  503  502  0.00000000000E+00  0.00000000000E+00  0.13602947062E+03  0.13602947062E+03  0.00000000000E+00 0.  1.
         21   -1    0    0  501  503 -0.00000000000E+00 -0.00000000000E+00 -0.27084546388E+03  0.27084546388E+03  0.00000000000E+00 0.  1.
          6    2    1    2  501    0 -0.22153866102E+02 -0.73747359670E+02 -0.32289987981E+02  0.19214488018E+03  0.17305358943E+03 0.  0.
         24    2    3    3    0    0  0.31098391378E+02 -0.41014525392E+02 -0.68948284006E+02  0.11952833913E+03  0.82969010776E+02 0.  0.
         -6    2    1    2    0  502  0.22153866102E+02  0.73747359670E+02 -0.10252600527E+03  0.21473005432E+03  0.17224386093E+03 0.  0.
        -24    2    5    5    0    0  0.48666733766E+02  0.66927732470E+02 -0.72025350326E+01  0.11544212229E+03  0.80170036422E+02 0.  0.
          5    1    3    3  501    0 -0.53252257480E+02 -0.32732834278E+02  0.36658296025E+02  0.72616541050E+02  0.47000000000E+01 0. -1.
        -11    1    4    4    0    0  0.26490479477E+02 -0.38288523728E+02  0.36787092208E+01  0.46704276610E+02  0.00000000000E+00 0.  1.
         12    1    4    4    0    0  0.46079119012E+01 -0.27260016641E+01 -0.72626993227E+02  0.72824062523E+02  0.00000000000E+00 0. -1.
         -5    1    5    5    0  502 -0.26512867664E+02  0.68196271999E+01 -0.95323470241E+02  0.99287932024E+02  0.47000000000E+01 0.  1.
         11    1    6    6    0    0  0.56405448188E+02  0.27030161770E+02 -0.29423672489E+02  0.69122765666E+02  0.00000000000E+00 0. -1.
        -12    1    6    6    0    0 -0.77387144219E+01  0.39897570699E+02  0.22221137456E+02  0.46319356628E+02  0.00000000000E+00 0.  1.
<mgrwt>
<rscale>  2 0.18922713E+03</rscale>
<asrwt>0</asrwt>
<pdfrwt beam="1">  1       21 0.20927611E-01 0.18941228E+03</pdfrwt>
<pdfrwt beam="2">  1       21 0.41668532E-01 0.18941228E+03</pdfrwt>
<totfact> 0.11771538E+05</totfact>
</mgrwt>
</event>
<event>
12    1  0.1039378E-001  0.2867758E+03  0.7546771E-02  0.1092110E+00
         21   -1    0    0  501  502  0.00000000000E+00  0.00000000000E+00  0.19311743727E+03  0.19311743727E+03  0.00000000000E+00 0.  1.
         21   -1    0    0  502  503 -0.00000000000E+00 -0.00000000000E+00 -0.53352412578E+03  0.53352412578E+03  0.00000000000E+00 0.  1.
         -6    2    1    2    0  503  0.20575861259E+03 -0.97745392073E+02 -0.33385630240E+03  0.43979098171E+03  0.17339350801E+03 0.  0.
        -24    2    3    3    0    0  0.16049792153E+03 -0.10995177126E+03 -0.17471857853E+03  0.27382583174E+03  0.81271333360E+02 0.  0.
          6    2    1    2  501    0 -0.20575861259E+03  0.97745392073E+02 -0.65503861135E+01  0.28685058134E+03  0.17421130884E+03 0.  0.
         24    2    5    5    0    0 -0.20924730113E+03  0.63282651238E+02 -0.41804696420E+02  0.23720375013E+03  0.82029625474E+02 0.  0.
          5    1    5    5  501    0  0.34886885385E+01  0.34462740835E+02  0.35254310306E+02  0.49646831206E+02  0.47000000000E+01 0. -1.
        -13    1    6    6    0    0 -0.15262288328E+03  0.36774293884E+02 -0.65816857854E+02  0.17022911610E+03  0.00000000000E+00 0.  1.
         14    1    6    6    0    0 -0.56624417848E+02  0.26508357354E+02  0.24012161434E+02  0.66974634027E+02  0.00000000000E+00 0. -1.
         -5    1    3    3    0  503  0.45260691062E+02  0.12206379187E+02 -0.15913772387E+03  0.16596514997E+03  0.47000000000E+01 0.  1.
         11    1    4    4    0    0  0.94519276843E+02 -0.31137543965E+02 -0.47493334108E+02  0.11026811472E+03  0.00000000000E+00 0. -1.
        -12    1    4    4    0    0  0.65978644685E+02 -0.78814227294E+02 -0.12722524442E+03  0.16355771702E+03  0.00000000000E+00 0.  1.
<mgrwt>
<rscale>  2 0.28665168E+03</rscale>
<asrwt>0</asrwt>
<pdfrwt beam="1">  1       21 0.29710375E-01 0.28677578E+03</pdfrwt>
<pdfrwt beam="2">  1       21 0.82080634E-01 0.28677578E+03</pdfrwt>
<totfact> 0.13376269E+04</totfact>
</mgrwt>
</event>
<event>
12    1  0.1039378E-001  0.2429662E+03  0.7546771E-02  0.1118307E+00
         21   -1    0    0  503  502  0.00000000000E+00  0.00000000000E+00  0.32955724777E+03  0.32955724777E+03  0.00000000000E+00 0. -1.
         21   -1    0    0  501  503 -0.00000000000E+00 -0.00000000000E+00 -0.29506940361E+03  0.29506940361E+03  0.00000000000E+00 0.  1.
          6    2    1    2  501    0 -0.14207844257E+03  0.86868015535E+02 -0.18036497259E+03  0.30028996586E+03  0.17294566861E+03 0.  0.
         24    2    3    3    0    0 -0.79581123216E+02  0.10739550346E+03 -0.68929874030E+02  0.17080188193E+03  0.80962991554E+02 0.  0.
         -6    2    1    2    0  502  0.14207844257E+03 -0.86868015535E+02  0.21485281675E+03  0.32433668551E+03  0.17691867265E+03 0.  0.
        -24    2    5    5    0    0  0.96039103720E+02 -0.10830260806E+03  0.21778113096E+03  0.27325119341E+03  0.79275654180E+02 0.  0.
          5    1    3    3  501    0 -0.62497319359E+02 -0.20527487929E+02 -0.11143509856E+03  0.12948808393E+03  0.47000000000E+01 0. -1.
        -11    1    4    4    0    0 -0.43645138276E+02  0.31398150668E+02 -0.68056499724E+02  0.86731938265E+02  0.00000000000E+00 0.  1.
         12    1    4    4    0    0 -0.35935984939E+02  0.75997352796E+02 -0.87337430530E+00  0.84069943667E+02  0.00000000000E+00 0. -1.
         -5    1    5    5    0  502  0.46039338854E+02  0.21434592522E+02 -0.29283142038E+01  0.51085492097E+02  0.47000000000E+01 0.  1.
         11    1    6    6    0    0  0.39994256474E+02 -0.85521459300E+01  0.10460660053E+03  0.11231749920E+03  0.00000000000E+00 0. -1.
        -12    1    6    6    0    0  0.56044847246E+02 -0.99750462127E+02  0.11317453043E+03  0.16093369422E+03  0.00000000000E+00 0.  1.
<mgrwt>
<rscale>  2 0.24224355E+03</rscale>
<asrwt>0</asrwt>
<pdfrwt beam="1">  1       21 0.50701115E-01 0.24296616E+03</pdfrwt>
<pdfrwt beam="2">  1       21 0.45395293E-01 0.24296616E+03</pdfrwt>
<totfact> 0.16736513E+04</totfact>
</mgrwt>
</event>
<event>
12    1  0.1039378E-001  0.1922312E+03  0.7546771E-02  0.1156544E+00
         21   -1    0    0  503  502  0.00000000000E+00  0.00000000000E+00  0.69730276134E+02  0.69730276134E+02  0.00000000000E+00 0.  1.
         21   -1    0    0  501  503 -0.00000000000E+00 -0.00000000000E+00 -0.53365793899E+03  0.53365793899E+03  0.00000000000E+00 0. -1.
          6    2    1    2  501    0  0.39435403543E+02  0.70965975158E+02 -0.20342584510E+03  0.27963829181E+03  0.17385102562E+03 0.  0.
         24    2    3    3    0    0  0.80696253746E+02  0.63544218146E+02 -0.92942103515E+02  0.16137465669E+03  0.82787633061E+02 0.  0.
         -6    2    1    2    0  502 -0.39435403543E+02 -0.70965975158E+02 -0.26050181775E+03  0.32374992331E+03  0.17424550241E+03 0.  0.
        -24    2    5    5    0    0 -0.84917218226E+02 -0.82918017556E+02 -0.21609207975E+03  0.25889807974E+03  0.79032254047E+02 0.  0.
          5    1    3    3  501    0 -0.41260850203E+02  0.74217570114E+01 -0.11048374159E+03  0.11826363512E+03  0.47000000000E+01 0. -1.
        -13    1    4    4    0    0  0.14039722855E+02  0.32212360664E+02  0.83672358400E+01  0.36121470527E+02  0.00000000000E+00 0.  1.
         14    1    4    4    0    0  0.66656530892E+02  0.31331857482E+02 -0.10130933935E+03  0.12525318616E+03  0.00000000000E+00 0. -1.
         -5    1    5    5    0  502  0.45481814683E+02  0.11952042399E+02 -0.44409738007E+02  0.64851843568E+02  0.47000000000E+01 0.  1.
         13    1    6    6    0    0 -0.24161842475E+02 -0.69519694010E+02 -0.15557148667E+03  0.17210249839E+03  0.00000000000E+00 0. -1.
        -14    1    6    6    0    0 -0.60755375752E+02 -0.13398323547E+02 -0.60520593075E+02  0.86795581355E+02  0.00000000000E+00 0.  1.
<mgrwt>
<rscale>  2 0.19214172E+03</rscale>
<asrwt>0</asrwt>
<pdfrwt beam="1">  1       21 0.10727735E-01 0.19223115E+03</pdfrwt>
<pdfrwt beam="2">  1       21 0.82101220E-01 0.19223115E+03</pdfrwt>
<totfact> 0.92947327E+04</totfact>
</mgrwt>
</event>
<event>
12    1  0.1039378E-001  0.2680874E+03  0.7546771E-02  0.1102720E+00
         21   -1    0    0  501  502  0.00000000000E+00  0.00000000000E+00  0.18414856004E+03  0.18414856004E+03  0.00000000000E+00 0. -1.
         21   -1    0    0  502  503 -0.00000000000E+00 -0.00000000000E+00 -0.38793631716E+03  0.38793631716E+03  0.00000000000E+00 0.  1.
         -6    2    1    2    0  503 -0.38238042638E+02  0.20130678224E+03 -0.87357921173E+02  0.28196147980E+03  0.17287076450E+03 0.  0.
        -24    2    3    3    0    0 -0.67069718230E+01  0.21710735788E+03 -0.84768667231E+02  0.24628710730E+03  0.79315975441E+02 0.  0.
          6    2    1    2  501    0  0.38238042638E+02 -0.20130678224E+03 -0.11642983595E+03  0.29012339741E+03  0.16920139048E+03 0.  0.
         24    2    5    5    0    0  0.66652717449E+02 -0.79847416739E+02 -0.97238579645E+02  0.16382943266E+03  0.81034233075E+02 0.  0.
          5    1    5    5  501    0 -0.28414674811E+02 -0.12145936551E+03 -0.19191256301E+02  0.12629396475E+03  0.47000000000E+01 0. -1.
        -13    1    6    6    0    0  0.22969220552E+01 -0.65688524699E+02 -0.43747074413E+02  0.78956093165E+02  0.00000000000E+00 0.  1.
         14    1    6    6    0    0  0.64355795394E+02 -0.14158892039E+02 -0.53491505232E+02  0.84873339492E+02  0.00000000000E+00 0. -1.
         -5    1    3    3    0  503 -0.31531070815E+02 -0.15800575639E+02 -0.25892539414E+01  0.35674372500E+02  0.47000000000E+01 0.  1.
         11    1    4    4    0    0 -0.61609214587E+01  0.22826366426E+02  0.14884612311E+02  0.27938354302E+02  0.00000000000E+00 0. -1.
        -12    1    4    4    0    0 -0.54605036429E+00  0.19428099146E+03 -0.99653279542E+02  0.21834875300E+03  0.00000000000E+00 0.  1.
<mgrwt>
<rscale>  2 0.26749766E+03</rscale>
<asrwt>0</asrwt>
<pdfrwt beam="1">  1       21 0.28330548E-01 0.26808743E+03</pdfrwt>
<pdfrwt beam="2">  1       21 0.59682510E-01 0.26808743E+03</pdfrwt>
<totfact> 0.30096906E+04</totfact>
</mgrwt>
</event>
<event>
12    1  0.1039378E-001  0.9359720E+03  0.7546771E-02  0.9381843E-01
         21   -1    0    0  501  502  0.00000000000E+00  0.00000000000E+00  0.91102136906E+03  0.91102136906E+03  0.00000000000E+00 0. -1.
         21   -1    0    0  502  503 -0.00000000000E+00 -0.00000000000E+00 -0.99282464832E+03  0.99282464832E+03  0.00000000000E+00 0.  1.
         -6    2    1    2    0  503  0.67574017073E+03 -0.62352587616E+03  0.12924594437E+03  0.94437462583E+03  0.17242280361E+03 0.  0.
        -24    2    3    3    0    0  0.47590953732E+03 -0.38015890951E+03  0.13390895192E+03  0.62940860205E+03  0.84928774425E+02 0.  0.
          6    2    1    2  501    0 -0.67574017073E+03  0.62352587616E+03 -0.21104922363E+03  0.95947139154E+03  0.17502651176E+03 0.  0.
         24    2    5    5    0    0 -0.66039785319E+03  0.56838497819E+03 -0.21743442411E+03  0.90168933445E+03  0.81111769452E+02 0.  0.
          5    1    5    5  501    0 -0.15342317537E+02  0.55140897974E+02  0.63852004816E+01  0.57782057093E+02  0.47000000000E+01 0. -1.
        -11    1    6    6    0    0 -0.42578011221E+03  0.32799945487E+03 -0.10630239469E+03  0.54788004660E+03  0.00000000000E+00 0.  1.
         12    1    6    6    0    0 -0.23461774098E+03  0.24038552332E+03 -0.11113202942E+03  0.35380928785E+03  0.00000000000E+00 0. -1.
         -5    1    3    3    0  503  0.19983063340E+03 -0.24336696665E+03 -0.46630075484E+01  0.31496602379E+03  0.47000000000E+01 0.  1.
         11    1    4    4    0    0  0.25241113942E+01 -0.12461672925E+02  0.12488679781E+02  0.17822220768E+02  0.00000000000E+00 0. -1.
        -12    1    4    4    0    0  0.47338542593E+03 -0.36769723659E+03  0.12142027214E+03  0.61158638128E+03  0.00000000000E+00 0.  1.
<mgrwt>
<rscale>  2 0.93585112E+03</rscale>
<asrwt>0</asrwt>
<pdfrwt beam="1">  1       21 0.14015713E+00 0.93597200E+03</pdfrwt>
<pdfrwt beam="2">  1       21 0.15274225E+00 0.93597200E+03</pdfrwt>
<totfact> 0.67477169E+01</totfact>
</mgrwt>
</event>
<event>
12    1  0.1039378E-001  0.1859679E+03  0.7546771E-02  0.1162308E+00
         21   -1    0    0  503  502  0.00000000000E+00  0.00000000000E+00  0.97655511737E+02  0.97655511737E+02  0.00000000000E+00 0. -1.
         21   -1    0    0  501  503 -0.00000000000E+00 -0.00000000000E+00 -0.41891240023E+03  0.41891240023E+03  0.00000000000E+00 0. -1.
          6    2    1    2  501    0  0.25254123809E+02  0.63077999782E+02 -0.26295123318E+03  0.32167406902E+03  0.17237822028E+03 0.  0.
         24    2    3    3    0    0  0.77755886962E+02  0.60099971218E+02 -0.21662638249E+03  0.25143600541E+03  0.81456066256E+02 0.  0.
         -6    2    1    2    0  502 -0.25254123809E+02 -0.63077999782E+02 -0.58305655315E+02  0.19489384295E+03  0.17311110811E+03 0.  0.
        -24    2    5    5    0    0 -0.31504248826E+02  0.22856773078E+02 -0.61332140272E+02  0.10855092858E+03  0.80664260341E+02 0.  0.
          5    1    3    3  501    0 -0.52501763153E+02  0.29780285640E+01 -0.46324850694E+02  0.70238063613E+02  0.47000000000E+01 0. -1.
        -11    1    4    4    0    0  0.21698086356E+02  0.54346984282E+01 -0.14030422496E+01  0.22412305238E+02  0.00000000000E+00 0.  1.
         12    1    4    4    0    0  0.56057800606E+02  0.54665272790E+02 -0.21522334024E+03  0.22902370017E+03  0.00000000000E+00 0. -1.
         -5    1    5    5    0  502  0.62501250178E+01 -0.85934772860E+02  0.30264849571E+01  0.86342914362E+02  0.47000000000E+01 0.  1.
         11    1    6    6    0    0  0.96210461743E+01 -0.15046532726E+02  0.79185483469E+01  0.19536276116E+02  0.00000000000E+00 0. -1.
        -12    1    6    6    0    0 -0.41125295001E+02  0.37903305804E+02 -0.69250688619E+02  0.89014652468E+02  0.00000000000E+00 0.  1.
<mgrwt>
<rscale>  2 0.18579716E+03</rscale>
<asrwt>0</asrwt>
<pdfrwt beam="1">  1       21 0.15023925E-01 0.18596790E+03</pdfrwt>
<pdfrwt beam="2">  1       21 0.64448061E-01 0.18596790E+03</pdfrwt>
<totfact> 0.87079044E+04</totfact>
</mgrwt>
</event>
<event>
12    1  0.1039378E-001  0.2492929E+03  0.7546771E-02  0.1114998E+00
         21   -1    0    0  501  502  0.00000000000E+00  0.00000000000E+00  0.13467567347E+03  0.13467567347E+03  0.00000000000E+00 0.  1.
         21   -1    0    0  502  503 -0.00000000000E+00 -0.00000000000E+00 -0.44810650386E+03  0.44810650386E+03  0.00000000000E+00 0. -1.
         -6    2    1    2    0  503 -0.15220844246E+03 -0.74609840018E+02 -0.17176586567E+03  0.30273830002E+03  0.18279203349E+03 0.  0.
        -24    2    3    3    0    0 -0.17659150220E+03 -0.29415187921E+02 -0.11915051028E+03  0.22906635283E+03  0.78897008606E+02 0.  0.
          6    2    1    2  501    0  0.15220844246E+03  0.74609840018E+02 -0.14166496472E+03  0.28004387731E+03  0.17210918862E+03 0.  0.
         24    2    5    5    0    0  0.85639454473E+02 -0.17675930188E+02 -0.35066708203E+02  0.12405230114E+03  0.80701578199E+02 0.  0.
          5    1    5    5  501    0  0.66568987989E+02  0.92285770206E+02 -0.10659825651E+03  0.15599157617E+03  0.47000000000E+01 0. -1.
        -11    1    6    6    0    0  0.71946625123E+01  0.27475019191E+02 -0.10336181274E+02  0.30223773615E+02  0.00000000000E+00 0.  1.
         12    1    6    6    0    0  0.78444791961E+02 -0.45150949378E+02 -0.24730526929E+02  0.93828527526E+02  0.00000000000E+00 0. -1.
         -5    1    3    3    0  503  0.24383059741E+02 -0.45194652097E+02 -0.52615355388E+02  0.73671947193E+02  0.47000000000E+01 0.  1.
         11    1    4    4    0    0 -0.56504632663E+02  0.16358009861E+02 -0.84135505000E+01  0.59423445129E+02  0.00000000000E+00 0. -1.
        -12    1    4    4    0    0 -0.12008686954E+03 -0.45773197782E+02 -0.11073695978E+03  0.16964290770E+03  0.00000000000E+00 0.  1.
<mgrwt>
<rscale>  2 0.24733911E+03</rscale>
<asrwt>0</asrwt>
<pdfrwt beam="1">  1       21 0.20719335E-01 0.24929293E+03</pdfrwt>
<pdfrwt beam="2">  1       21 0.68939461E-01 0.24929293E+03</pdfrwt>
<totfact> 0.40306422E+04</totfact>
</mgrwt>
</event>
<event>
12    1  0.1039378E-001  0.2362394E+03  0.7546771E-02  0.1122366E+00
         21   -1    0    0  501  502  0.00000000000E+00  0.00000000000E+00  0.40181740223E+03  0.40181740223E+03  0.00000000000E+00 0. -1.
         21   -1    0    0  502  503 -0.00000000000E+00 -0.00000000000E+00 -0.15193231645E+03  0.15193231645E+03  0.00000000000E+00 0.  1.
         -6    2    1    2    0  503  0.88411651640E+02  0.13267434536E+03  0.43432311194E+02  0.24019874783E+03  0.17432719450E+03 0.  0.
        -24    2    3    3    0    0  0.37379978616E+02  0.15661772212E+03  0.37230651277E+02  0.18329472751E+03  0.79274599053E+02 0.  0.
          6    2    1    2  501    0 -0.88411651640E+02 -0.13267434536E+03  0.20645277459E+03  0.31355097085E+03  0.17398954314E+03 0.  0.
         24    2    5    5    0    0 -0.74944454968E+02 -0.10937725715E+03  0.63271700060E+02  0.16778736151E+03  0.81050817021E+02 0.  0.
          5    1    5    5  501    0 -0.13467196672E+02 -0.23297088203E+02  0.14318107453E+03  0.14576360934E+03  0.47000000000E+01 0. -1.
        -13    1    6    6    0    0 -0.77296499025E+02 -0.11079943594E+03  0.75835300411E+02  0.15492661668E+03  0.00000000000E+00 0.  1.
         14    1    6    6    0    0  0.23520440570E+01  0.14221787889E+01 -0.12563600351E+02  0.12860744828E+02  0.00000000000E+00 0. -1.
         -5    1    3    3    0  503  0.51031673024E+02 -0.23943376768E+02  0.62016599171E+01  0.56904020319E+02  0.47000000000E+01 0.  1.
         11    1    4    4    0    0  0.58315207599E+00 -0.86251063835E+00  0.20704266329E+02  0.20730427761E+02  0.00000000000E+00 0. -1.
        -12    1    4    4    0    0  0.36796826540E+02  0.15748023276E+03  0.16526384948E+02  0.16256429975E+03  0.00000000000E+00 0.  1.
<mgrwt>
<rscale>  2 0.23617715E+03</rscale>
<asrwt>0</asrwt>
<pdfrwt beam="1">  1       21 0.61818061E-01 0.23623944E+03</pdfrwt>
<pdfrwt beam="2">  1       21 0.23374203E-01 0.23623944E+03</pdfrwt>
<totfact> 0.40956358E+04</totfact>
</mgrwt>
</event>
<event>
12    1  0.1039378E-001  0.2374842E+03  0.7546771E-02  0.1121612E+00
         21   -1    0    0  501  502  0.00000000000E+00  0.00000000000E+00  0.54542822040E+02  0.54542822040E+02  0.00000000000E+00 0.  1.
         21   -1    0    0  502  503 -0.00000000000E+00 -0.00000000000E+00 -0.16285074096E+04  0.16285074096E+04  0.00000000000E+00 0.  1.
         -6    2    1    2    0  503  0.12045182580E+03 -0.10574825020E+03 -0.12976914362E+04  0.13192428967E+04  0.17523533337E+03 0.  0.
        -24    2    3    3    0    0  0.44049651467E+02  0.40769257012E+00 -0.77815060244E+03  0.78347135545E+03  0.79802673727E+02 0.  0.
          6    2    1    2  501    0 -0.12045182580E+03  0.10574825020E+03 -0.27627315133E+03  0.36380733495E+03  0.17417688725E+03 0.  0.
         24    2    5    5    0    0 -0.43150199721E+02  0.44029989667E+02 -0.23576243977E+03  0.25681250876E+03  0.81044166505E+02 0.  0.
          5    1    5    5  501    0 -0.77301626084E+02  0.61718260534E+02 -0.40510711559E+02  0.10699482618E+03  0.47000000000E+01 0. -1.
        -13    1    6    6    0    0 -0.31472737908E+02  0.49238149442E+02 -0.72817040834E+02  0.93366214595E+02  0.00000000000E+00 0.  1.
         14    1    6    6    0    0 -0.11677461813E+02 -0.52081597753E+01 -0.16294539894E+03  0.16344629417E+03  0.00000000000E+00 0. -1.
         -5    1    3    3    0  503  0.76402174338E+02 -0.10615594277E+03 -0.51954083381E+03  0.53577154126E+03  0.47000000000E+01 0.  1.
         11    1    4    4    0    0  0.89373317382E+01  0.15764545371E+02 -0.35735106405E+02  0.40067375995E+02  0.00000000000E+00 0. -1.
        -12    1    4    4    0    0  0.35112319729E+02 -0.15356852801E+02 -0.74241549603E+03  0.74340397946E+03  0.00000000000E+00 0.  1.
<mgrwt>
<rscale>  2 0.23728900E+03</rscale>
<asrwt>0</asrwt>
<pdfrwt beam="1">  1       21 0.83912050E-02 0.23748422E+03</pdfrwt>
<pdfrwt beam="2">  1       21 0.25053955E+00 0.23748422E+03</pdfrwt>
<totfact> 0.69951960E+03</totfact>
</mgrwt>
</event>
<event>
12    1  0.1039378E-001  0.2931219E+03  0.7546771E-02  0.1089155E+00
         21   -1    0    0  501  502  0.00000000000E+00  0.00000000000E+00  0.42546124556E+03  0.42546124556E+03  0.00000000000E+00 0.  1.
         21   -1    0    0  502  503 -0.00000000000E+00 -0.00000000000E+00 -0.51936911378E+03  0.51936911378E+03  0.00000000000E+00 0. -1.
         -6    2    1    2    0  503  0.37854414520E+02  0.22925080306E+03 -0.41768194853E+03  0.51027311269E+03  0.17869401782E+03 0.  0.
        -24    2    3    3    0    0  0.48926601438E+02  0.14623109416E+03 -0.14872833156E+03  0.22854096424E+03  0.79583355665E+02 0.  0.
          6    2    1    2  501    0 -0.37854414520E+02 -0.22925080306E+03  0.32377408031E+03  0.43455724665E+03  0.17326701397E+03 0.  0.
         24    2    5    5    0    0  0.30884801527E+02 -0.19332006853E+03  0.24969473688E+03  0.32719833165E+03  0.79904735435E+02 0.  0.
          5    1    5    5  501    0 -0.68739216048E+02 -0.35930734522E+02  0.74079343433E+02  0.10735891500E+03  0.47000000000E+01 0. -1.
        -13    1    6    6    0    0 -0.18596296501E+02 -0.83151910475E+02  0.67934265988E+02  0.10897305609E+03  0.00000000000E+00 0.  1.
         14    1    6    6    0    0  0.49481098028E+02 -0.11016815806E+03  0.18176047089E+03  0.21822527555E+03  0.00000000000E+00 0. -1.
         -5    1    3    3    0  503 -0.11072186918E+02  0.83019708894E+02 -0.26895361697E+03  0.28173214845E+03  0.47000000000E+01 0.  1.
         11    1    4    4    0    0  0.36569478006E+02  0.79232390520E+02 -0.13225276365E+03  0.15844838883E+03  0.00000000000E+00 0. -1.
        -12    1    4    4    0    0  0.12357123432E+02  0.66998703642E+02 -0.16475567900E+02  0.70092575404E+02  0.00000000000E+00 0.  1.
<mgrwt>
<rscale>  2 0.29229930E+03</rscale>
<asrwt>0</asrwt>
<pdfrwt beam="1">  1       21 0.65455577E-01 0.29312188E+03</pdfrwt>
<pdfrwt beam="2">  1       21 0.79902940E-01 0.29312188E+03</pdfrwt>
<totfact> 0.27579026E+03</totfact>
</mgrwt>
</event>
<event>
12    1  0.1039378E-001  0.2232880E+03  0.7546771E-02  0.1131682E+00
         21   -1    0    0  503  502  0.00000000000E+00  0.00000000000E+00  0.86180281430E+02  0.86180281430E+02  0.00000000000E+00 0. -1.
         21   -1    0    0  501  503 -0.00000000000E+00 -0.00000000000E+00 -0.60188795309E+03  0.60188795309E+03  0.00000000000E+00 0. -1.
          6    2    1    2  501    0 -0.34066499946E+02 -0.13637628523E+03 -0.32943808411E+03  0.39728673516E+03  0.17189613457E+03 0.  0.
         24    2    3    3    0    0  0.65207881116E+00 -0.13147486450E+03 -0.32706406773E+03  0.36183071184E+03  0.81636354820E+02 0.  0.
         -6    2    1    2    0  502  0.34066499946E+02  0.13637628523E+03 -0.18626958755E+03  0.29078149936E+03  0.17348920294E+03 0.  0.
        -24    2    5    5    0    0 -0.82720355699E+01  0.77928696051E+02 -0.24796132992E+02  0.11385089490E+03  0.78777343296E+02 0.  0.
          5    1    3    3  501    0 -0.34718578757E+02 -0.49014207224E+01 -0.23740163877E+01  0.35456023322E+02  0.47000000000E+01 0. -1.
        -11    1    4    4    0    0 -0.69584982371E+01  0.10061419146E+02 -0.17410892215E+02  0.21278910233E+02  0.00000000000E+00 0.  1.
         12    1    4    4    0    0  0.76105770482E+01 -0.14153628365E+03 -0.30965317551E+03  0.34055180160E+03  0.00000000000E+00 0. -1.
         -5    1    5    5    0  502  0.42338535516E+02  0.58447589174E+02 -0.16147345456E+03  0.17693060446E+03  0.47000000000E+01 0.  1.
         11    1    6    6    0    0 -0.21412971393E+02  0.14459586495E+01 -0.29065101128E+02  0.36130129308E+02  0.00000000000E+00 0. -1.
        -12    1    6    6    0    0  0.13140935823E+02  0.76482737402E+02  0.42689681357E+01  0.77720765589E+02  0.00000000000E+00 0.  1.
<mgrwt>
<rscale>  2 0.22297846E+03</rscale>
<asrwt>0</asrwt>
<pdfrwt beam="1">  1       21 0.13258505E-01 0.22328798E+03</pdfrwt>
<pdfrwt beam="2">  1       21 0.92598144E-01 0.22328798E+03</pdfrwt>
<totfact> 0.47518752E+04</totfact>
</mgrwt>
</event>
<event>
12    1  0.1039378E-001  0.2055932E+03  0.7546771E-02  0.1145335E+00
         21   -1    0    0  501  502  0.00000000000E+00  0.00000000000E+00  0.73794107291E+02  0.73794107291E+02  0.00000000000E+00 0. -1.
         21   -1    0    0  502  503 -0.00000000000E+00 -0.00000000000E+00 -0.73977689235E+03  0.73977689235E+03  0.00000000000E+00 0. -1.
         -6    2    1    2    0  503  0.82076375427E+02 -0.72029953938E+02 -0.52736318617E+03  0.56561140752E+03  0.17285684402E+03 0.  0.
        -24    2    3    3    0    0  0.65308049190E+02 -0.51009450321E+02 -0.52558071329E+03  0.53825623349E+03  0.81348518088E+02 0.  0.
          6    2    1    2  501    0 -0.82076375427E+02  0.72029953938E+02 -0.13861959889E+03  0.24795959212E+03  0.17419449033E+03 0.  0.
         24    2    5    5    0    0  0.20681059887E+02  0.46325631431E+02 -0.33424109419E+02  0.98601017834E+02  0.77660924936E+02 0.  0.
          5    1    5    5  501    0 -0.10275743531E+03  0.25704322507E+02 -0.10519548947E+03  0.14935857429E+03  0.47000000000E+01 0. -1.
        -13    1    6    6    0    0  0.38481338374E+02 -0.75310976895E+00 -0.28773529176E+02  0.48055140814E+02  0.00000000000E+00 0.  1.
         14    1    6    6    0    0 -0.17800278487E+02  0.47078741200E+02 -0.46505802435E+01  0.50545877020E+02  0.00000000000E+00 0. -1.
         -5    1    3    3    0  503  0.16768326237E+02 -0.21020503617E+02 -0.17824728834E+01  0.27355174038E+02  0.47000000000E+01 0.  1.
         13    1    4    4    0    0 -0.16393236806E+02  0.31111601240E+01 -0.11118272779E+03  0.11242782792E+03  0.00000000000E+00 0. -1.
        -14    1    4    4    0    0  0.81701285996E+02 -0.54120610445E+02 -0.41439798549E+03  0.42582840557E+03  0.00000000000E+00 0.  1.
<mgrwt>
<rscale>  2 0.20530959E+03</rscale>
<asrwt>0</asrwt>
<pdfrwt beam="1">  1       21 0.11352939E-01 0.20559321E+03</pdfrwt>
<pdfrwt beam="2">  1       21 0.11381183E+00 0.20559321E+03</pdfrwt>
<totfact> 0.38677140E+04</totfact>
</mgrwt>
</event>
<event>
12    1  0.1039378E-001  0.1906804E+03  0.7546771E-02  0.1157923E+00
         21   -1    0    0  503  502  0.00000000000E+00  0.00000000000E+00  0.22945159215E+03  0.22945159215E+03  0.00000000000E+00 0.  1.
         21   -1    0    0  501  503 -0.00000000000E+00 -0.00000000000E+00 -0.33219854888E+03  0.33219854888E+03  0.00000000000E+00 0.  1.
          6    2    1    2  501    0  0.70012510990E+02 -0.37665893960E+02 -0.25460094146E+03  0.31789074122E+03  0.17295205317E+03 0.  0.
         24    2    3    3    0    0  0.79934385592E+02 -0.85722710460E+02 -0.19378411676E+03  0.23960487165E+03  0.78232483779E+02 0.  0.
         -6    2    1    2    0  502 -0.70012510990E+02  0.37665893960E+02  0.15185398474E+03  0.24375939981E+03  0.17331630348E+03 0.  0.
        -24    2    5    5    0    0 -0.28631835981E+02  0.85129607102E+02  0.12836198171E+03  0.17638634484E+03  0.81046358717E+02 0.  0.
          5    1    3    3  501    0 -0.99218746024E+01  0.48056816500E+02 -0.60816824698E+02  0.78285869568E+02  0.47000000000E+01 0. -1.
        -13    1    4    4    0    0  0.51807957877E+02 -0.36563143339E+01 -0.93902662500E+02  0.10730863506E+03  0.00000000000E+00 0.  1.
         14    1    4    4    0    0  0.28126427715E+02 -0.82066396126E+02 -0.99881454265E+02  0.13229623659E+03  0.00000000000E+00 0. -1.
         -5    1    5    5    0  502 -0.41380675009E+02 -0.47463713143E+02  0.23492003024E+02  0.67373054967E+02  0.47000000000E+01 0.  1.
         11    1    6    6    0    0  0.25999818804E+02  0.43895758529E+02  0.68809022356E+02  0.85659265420E+02  0.00000000000E+00 0. -1.
        -12    1    6    6    0    0 -0.54631654785E+02  0.41233848573E+02  0.59552959357E+02  0.90727079424E+02  0.00000000000E+00 0.  1.
<mgrwt>
<rscale>  2 0.19059758E+03</rscale>
<asrwt>0</asrwt>
<pdfrwt beam="1">  1       21 0.35300245E-01 0.19068039E+03</pdfrwt>
<pdfrwt beam="2">  1       21 0.51107469E-01 0.19068039E+03</pdfrwt>
<totfact> 0.28194041E+04</totfact>
</mgrwt>
</event>
<event>
12    1  0.1039378E-001  0.1936025E+03  0.7546771E-02  0.1155665E+00
         21   -1    0    0  503  502  0.00000000000E+00  0.00000000000E+00  0.12032094066E+03  0.12032094066E+03  0.00000000000E+00 0.  1.
         21   -1    0    0  501  503 -0.00000000000E+00 -0.00000000000E+00 -0.67934908271E+03  0.67934908271E+03  0.00000000000E+00 0.  1.
          6    2    1    2  501    0 -0.47181653817E+00 -0.82213135706E+02 -0.57553536667E+03  0.60722556781E+03  0.17527894803E+03 0.  0.
         24    2    3    3    0    0  0.47398030757E+02 -0.84760165058E+02 -0.51387874711E+03  0.52898466818E+03  0.79514486382E+02 0.  0.
         -6    2    1    2    0  502  0.47181653817E+00  0.82213135706E+02  0.16507224618E+02  0.19244445556E+03  0.17321419607E+03 0.  0.
        -24    2    5    5    0    0  0.21210337170E+02  0.96852434798E+01 -0.45865583859E+02  0.94450381119E+02  0.79205683929E+02 0.  0.
          5    1    3    3  501    0 -0.47869847295E+02  0.25470293512E+01 -0.61656619562E+02  0.78240899627E+02  0.47000000000E+01 0. -1.
        -11    1    4    4    0    0  0.57691430414E+02 -0.22825963986E+02 -0.22781788736E+03  0.23611504733E+03  0.00000000000E+00 0.  1.
         12    1    4    4    0    0 -0.10293399657E+02 -0.61934201072E+02 -0.28606085974E+03  0.29286962085E+03  0.00000000000E+00 0. -1.
         -5    1    5    5    0  502 -0.20738520632E+02  0.72527892227E+02  0.62372808477E+02  0.97994074444E+02  0.47000000000E+01 0.  1.
         11    1    6    6    0    0  0.50263900350E+02  0.15312826047E+02 -0.33888656737E+02  0.62525061978E+02  0.00000000000E+00 0. -1.
        -12    1    6    6    0    0 -0.29053563180E+02 -0.56275825670E+01 -0.11976927122E+02  0.31925319141E+02  0.00000000000E+00 0.  1.
<mgrwt>
<rscale>  2 0.19313398E+03</rscale>
<asrwt>0</asrwt>
<pdfrwt beam="1">  1       21 0.18510914E-01 0.19360251E+03</pdfrwt>
<pdfrwt beam="2">  1       21 0.10451524E+00 0.19360251E+03</pdfrwt>
<totfact> 0.19683659E+04</totfact>
</mgrwt>
</event>
<event>
12    1  0.1039378E-001  0.3369467E+03  0.7546771E-02  0.1068363E+00
         21   -1    0    0  503  502  0.00000000000E+00  0.00000000000E+00  0.21164157726E+03  0.21164157726E+03  0.00000000000E+00 0.  1.
         21   -1    0    0  501  503 -0.00000000000E+00 -0.00000000000E+00 -0.60204360480E+03  0.60204360480E+03  0.00000000000E+00 0. -1.
          6    2    1    2  501    0  0.10140214245E+02  0.28779862492E+03 -0.33272341085E+03  0.47183744548E+03  0.17027869619E+03 0.  0.
         24    2    3    3    0    0 -0.38981343295E+02  0.12975028754E+03 -0.23591358687E+03  0.28003954042E+03  0.66424705402E+02 0.  0.
         -6    2    1    2    0  502 -0.10140214245E+02 -0.28779862492E+03 -0.57678616698E+02  0.34184773659E+03  0.17493478708E+03 0.  0.
        -24    2    5    5    0    0 -0.32912433426E+01 -0.29453334790E+03 -0.23951439164E+02  0.30646585704E+03  0.81159871765E+02 0.  0.
          5    1    3    3  501    0  0.49121557539E+02  0.15804833739E+03 -0.96809823971E+02  0.19179790505E+03  0.47000000000E+01 0. -1.
        -13    1    4    4    0    0 -0.68724942368E+01  0.13764379410E+02 -0.20670330600E+00  0.15386099045E+02  0.00000000000E+00 0.  1.
         14    1    4    4    0    0 -0.32108849058E+02  0.11598590813E+03 -0.23570688357E+03  0.26465344138E+03  0.00000000000E+00 0. -1.
         -5    1    5    5    0  502 -0.68489709020E+01  0.67347229744E+01 -0.33727177534E+02  0.35381879548E+02  0.47000000000E+01 0.  1.
         13    1    6    6    0    0  0.38664955326E+02 -0.15927351537E+03 -0.14170419040E+02  0.16451088792E+03  0.00000000000E+00 0. -1.
        -14    1    6    6    0    0 -0.41956198669E+02 -0.13525983253E+03 -0.97810201239E+01  0.14195496912E+03  0.00000000000E+00 0.  1.
<mgrwt>
<rscale>  2 0.33634664E+03</rscale>
<asrwt>0</asrwt>
<pdfrwt beam="1">  1       21 0.32560243E-01 0.33694666E+03</pdfrwt>
<pdfrwt beam="2">  1       21 0.92622091E-01 0.33694666E+03</pdfrwt>
<totfact> 0.82374465E+03</totfact>
</mgrwt>
</event>
<event>
12    1  0.1039378E-001  0.1787352E+03  0.7546771E-02  0.1169434E+00
         21   -1    0    0  503  502  0.00000000000E+00  0.00000000000E+00  0.26528079286E+03  0.26528079286E+03  0.00000000000E+00 0. -1.
         21   -1    0    0  501  503 -0.00000000000E+00 -0.00000000000E+00 -0.12251111730E+03  0.12251111730E+03  0.00000000000E+00 0. -1.
          6    2    1    2  501    0 -0.36605501439E+02  0.14420904363E+02  0.39802620972E+02  0.18151906023E+03  0.17267598377E+03 0.  0.
         24    2    3    3    0    0  0.40035786720E+02  0.74374404168E+01  0.48902965977E+02  0.10388168458E+03  0.82108005522E+02 0.  0.
         -6    2    1    2    0  502  0.36605501439E+02 -0.14420904363E+02  0.10296705459E+03  0.20627284993E+03  0.17435122330E+03 0.  0.
        -24    2    5    5    0    0 -0.97844325508E+01  0.51962960755E+01  0.12654633841E+03  0.15046126373E+03  0.80634232824E+02 0.  0.
          5    1    3    3  501    0 -0.76641288159E+02  0.69834639458E+01 -0.91003450054E+01  0.77637375654E+02  0.47000000000E+01 0. -1.
        -13    1    4    4    0    0  0.28162411967E+02  0.43994696972E+02  0.20614733480E+02  0.56157119280E+02  0.00000000000E+00 0.  1.
         14    1    4    4    0    0  0.11873374753E+02 -0.36557256555E+02  0.28288232498E+02  0.47724565296E+02  0.00000000000E+00 0. -1.
         -5    1    5    5    0  502  0.46389933990E+02 -0.19617200438E+02 -0.23579283823E+02  0.55811586200E+02  0.47000000000E+01 0.  1.
         11    1    6    6    0    0  0.33090264555E+02 -0.44361789618E+01  0.32204550213E+02  0.46387264918E+02  0.00000000000E+00 0. -1.
        -12    1    6    6    0    0 -0.42874697106E+02  0.96324750373E+01  0.94341788200E+02  0.10407399881E+03  0.00000000000E+00 0.  1.
<mgrwt>
<rscale>  2 0.17832536E+03</rscale>
<asrwt>0</asrwt>
<pdfrwt beam="1">  1       21 0.40812429E-01 0.17873521E+03</pdfrwt>
<pdfrwt beam="2">  1       21 0.18847864E-01 0.17873521E+03</pdfrwt>
<totfact> 0.14977125E+05</totfact>
</mgrwt>
</event>
<event>
12    1  0.1039378E-001  0.1908566E+03  0.7546771E-02  0.1157855E+00
         21   -1    0    0  503  502  0.00000000000E+00  0.00000000000E+00  0.38918839111E+03  0.38918839111E+03  0.00000000000E+00 0.  1.
         21   -1    0    0  501  503 -0.00000000000E+00 -0.00000000000E+00 -0.93404272914E+02  0.93404272914E+02  0.00000000000E+00 0.  1.
          6    2    1    2  501    0  0.28304918172E+02  0.73497116486E+02  0.13741576552E+03  0.23458705388E+03  0.17304623288E+03 0.  0.
         24    2    3    3    0    0  0.99776664219E+01  0.33996203289E+02 -0.13651553825E+01  0.89058897481E+02  0.81696559940E+02 0.  0.
         -6    2    1    2    0  502 -0.28304918172E+02 -0.73497116486E+02  0.15836835268E+03  0.24800561014E+03  0.17384836211E+03 0.  0.
        -24    2    5    5    0    0  0.18599186100E+02 -0.82626185207E+02  0.16244982615E+03  0.19981761040E+03  0.79775404761E+02 0.  0.
          5    1    3    3  501    0  0.18327251750E+02  0.39500913197E+02  0.13878092090E+03  0.14552815640E+03  0.47000000000E+01 0. -1.
        -11    1    4    4    0    0  0.31089413128E+02  0.12648838071E+02  0.30446903512E+02  0.45316207328E+02  0.00000000000E+00 0.  1.
         12    1    4    4    0    0 -0.21111746706E+02  0.21347365218E+02 -0.31812058894E+02  0.43742690153E+02  0.00000000000E+00 0. -1.
         -5    1    5    5    0  502 -0.46904104272E+02  0.91290687209E+01 -0.40814734715E+01  0.48187999740E+02  0.47000000000E+01 0.  1.
         11    1    6    6    0    0  0.43177419252E+02 -0.45108622725E+02  0.13074796274E+03  0.14489343373E+03  0.00000000000E+00 0. -1.
        -12    1    6    6    0    0 -0.24578233152E+02 -0.37517562482E+02  0.31701863413E+02  0.54924176674E+02  0.00000000000E+00 0.  1.
<mgrwt>
<rscale>  2 0.19067376E+03</rscale>
<asrwt>0</asrwt>
<pdfrwt beam="1">  1       21 0.59875136E-01 0.19085662E+03</pdfrwt>
<pdfrwt beam="2">  1       21 0.14369888E-01 0.19085662E+03</pdfrwt>
<totfact> 0.11046526E+05</totfact>
</mgrwt>
</event>
<event>
12    1  0.1039378E-001  0.2478976E+03  0.7546771E-02  0.1114764E+00
         21   -1    0    0  503  502  0.00000000000E+00  0.00000000000E+00  0.58550339433E+03  0.58550339433E+03  0.00000000000E+00 0. -1.
         21   -1    0    0  501  503 -0.00000000000E+00 -0.00000000000E+00 -0.11139401397E+03  0.11139401397E+03  0.00000000000E+00 0.  1.
          6    2    1    2  501    0 -0.16764513170E+03  0.57735507292E+02  0.32256264100E+03  0.40634682134E+03  0.17214181031E+03 0.  0.
         24    2    3    3    0    0 -0.12101853876E+03  0.66861668651E+02  0.32125828003E+03  0.35858577709E+03  0.79125897041E+02 0.  0.
         -6    2    1    2    0  502  0.16764513170E+03 -0.57735507292E+02  0.15154673936E+03  0.29055058696E+03  0.17324823343E+03 0.  0.
        -24    2    5    5    0    0  0.12380329771E+03 -0.69208352756E+02  0.38660078522E+02  0.16881636505E+03  0.82989823598E+02 0.  0.
          5    1    3    3  501    0 -0.46626592940E+02 -0.91261613592E+01  0.13043609713E+01  0.47761044250E+02  0.47000000000E+01 0. -1.
        -13    1    4    4    0    0 -0.96674764705E+02  0.85099711356E+02  0.25505513554E+03  0.28572905552E+03  0.00000000000E+00 0.  1.
         14    1    4    4    0    0 -0.24343774059E+02 -0.18238042704E+02  0.66203144488E+02  0.72856721566E+02  0.00000000000E+00 0. -1.
         -5    1    5    5    0  502  0.43841833991E+02  0.11472845464E+02  0.11288666083E+03  0.12173422191E+03  0.47000000000E+01 0.  1.
         13    1    6    6    0    0  0.85498029194E+02 -0.34896885797E+01  0.52349241306E+01  0.85729197787E+02  0.00000000000E+00 0. -1.
        -14    1    6    6    0    0  0.38305268519E+02 -0.65718664176E+02  0.33425154392E+02  0.83087167261E+02  0.00000000000E+00 0.  1.
<mgrwt>
<rscale>  2 0.24770440E+03</rscale>
<asrwt>0</asrwt>
<pdfrwt beam="1">  1       21 0.90077443E-01 0.24789762E+03</pdfrwt>
<pdfrwt beam="2">  1       21 0.17137541E-01 0.24789762E+03</pdfrwt>
<totfact> 0.31328918E+04</totfact>
</mgrwt>
</event>
<event>
12    1  0.1039378E-001  0.1907628E+03  0.7546771E-02  0.1158263E+00
         21   -1    0    0  501  502  0.00000000000E+00  0.00000000000E+00  0.73936965306E+02  0.73936965306E+02  0.00000000000E+00 0.  1.
         21   -1    0    0  502  503 -0.00000000000E+00 -0.00000000000E+00 -0.75232756211E+03  0.75232756211E+03  0.00000000000E+00 0. -1.
         -6    2    1    2    0  503  0.47668098094E+02  0.59802563988E+02 -0.58346240579E+03  0.61318755024E+03  0.17240069188E+03 0.  0.
        -24    2    3    3    0    0 -0.10565757451E+02  0.90917495322E+02 -0.36390219022E+03  0.38386659798E+03  0.80939080865E+02 0.  0.
          6    2    1    2  501    0 -0.47668098094E+02 -0.59802563988E+02 -0.94928191016E+02  0.21307697718E+03  0.17476224569E+03 0.  0.
         24    2    5    5    0    0  0.33721355542E+02 -0.60565378229E+02 -0.30642350126E+02  0.10925219985E+03  0.78687957726E+02 0.  0.
          5    1    5    5  501    0 -0.81389453636E+02  0.76281424090E+00 -0.64285840890E+02  0.10382477733E+03  0.47000000000E+01 0. -1.
        -11    1    6    6    0    0 -0.50332744186E+01 -0.26636026041E+02 -0.47808340898E+02  0.54958613465E+02  0.00000000000E+00 0.  1.
         12    1    6    6    0    0  0.38754629961E+02 -0.33929352188E+02  0.17165990772E+02  0.54293586384E+02  0.00000000000E+00 0. -1.
         -5    1    3    3    0  503  0.58233855545E+02 -0.31114931334E+02 -0.21956021557E+03  0.22932095225E+03  0.47000000000E+01 0.  1.
         13    1    4    4    0    0 -0.35767513532E+02  0.40249554778E+02 -0.26035690449E+03  0.26586661957E+03  0.00000000000E+00 0. -1.
        -14    1    4    4    0    0  0.25201756081E+02  0.50667940544E+02 -0.10354528573E+03  0.11799997841E+03  0.00000000000E+00 0.  1.
<mgrwt>
<rscale>  2 0.19022019E+03</rscale>
<asrwt>0</asrwt>
<pdfrwt beam="1">  1       21 0.11374918E-01 0.19076278E+03</pdfrwt>
<pdfrwt beam="2">  1       21 0.11574270E+00 0.19076278E+03</pdfrwt>
<totfact> 0.37301142E+04</totfact>
</mgrwt>
</event>
<event>
12    1  0.1039378E-001  0.2115165E+03  0.7546771E-02  0.1140491E+00
         21   -1    0    0  501  502  0.00000000000E+00  0.00000000000E+00  0.19838442713E+04  0.19838442713E+04  0.00000000000E+00 0. -1.
         21   -1    0    0  502  503 -0.00000000000E+00 -0.00000000000E+00 -0.24887321556E+02  0.24887321556E+02  0.00000000000E+00 0.  1.
         -6    2    1    2    0  503 -0.98754030695E+02  0.71472512521E+02  0.12901453902E+04  0.13072701760E+04  0.17210318593E+03 0.  0.
        -24    2    3    3    0    0 -0.12133723826E+03  0.34793705309E+02  0.11714138266E+04  0.11808794709E+04  0.79577912434E+02 0.  0.
          6    2    1    2  501    0  0.98754030695E+02 -0.71472512521E+02  0.66881155953E+03  0.70146141684E+03  0.17285409604E+03 0.  0.
         24    2    5    5    0    0  0.77929335841E+02 -0.11636633548E+03  0.54455939731E+03  0.56763386708E+03  0.77776374578E+02 0.  0.
          5    1    5    5  501    0  0.20824694854E+02  0.44893822959E+02  0.12425216222E+03  0.13382754975E+03  0.47000000000E+01 0. -1.
        -11    1    6    6    0    0 -0.12219696582E+02 -0.12527994763E+02  0.12235689580E+03  0.12360210996E+03  0.00000000000E+00 0.  1.
         12    1    6    6    0    0  0.90149032423E+02 -0.10383834072E+03  0.42220250151E+03  0.44403175712E+03  0.00000000000E+00 0. -1.
         -5    1    3    3    0  503  0.22583207561E+02  0.36678807212E+02  0.11873156358E+03  0.12639070516E+03  0.47000000000E+01 0.  1.
         13    1    4    4    0    0 -0.80017868309E+02  0.34347455558E+02  0.45393033719E+03  0.46220705097E+03  0.00000000000E+00 0. -1.
        -14    1    4    4    0    0 -0.41319369948E+02  0.44624975081E+00  0.71748348945E+03  0.71867241988E+03  0.00000000000E+00 0.  1.
<mgrwt>
<rscale>  2 0.21136300E+03</rscale>
<asrwt>0</asrwt>
<pdfrwt beam="1">  1       21 0.30520669E+00 0.21151647E+03</pdfrwt>
<pdfrwt beam="2">  1       21 0.38288203E-02 0.21151647E+03</pdfrwt>
<totfact> 0.13177013E+04</totfact>
</mgrwt>
</event>
<event>
12    1  0.1039378E-001  0.1962111E+03  0.7546771E-02  0.1153738E+00
         21   -1    0    0  503  502  0.00000000000E+00  0.00000000000E+00  0.15513959703E+03  0.15513959703E+03  0.00000000000E+00 0. -1.
         21   -1    0    0  501  503 -0.00000000000E+00 -0.00000000000E+00 -0.24469501461E+03  0.24469501461E+03  0.00000000000E+00 0. -1.
          6    2    1    2  501    0 -0.90227355489E+02 -0.12622132468E+02 -0.56732581844E+02  0.20089713583E+03  0.16982573255E+03 0.  0.
         24    2    3    3    0    0 -0.35447784965E+02 -0.65992624273E+02 -0.37331218539E+01  0.10772931144E+03  0.77331083195E+02 0.  0.
         -6    2    1    2    0  502  0.90227355489E+02  0.12622132468E+02 -0.32822835728E+02  0.19893747580E+03  0.17377711825E+03 0.  0.
        -24    2    5    5    0    0  0.63862326024E+02  0.50439239467E+02  0.35196415706E+02  0.11663342411E+03  0.75776344441E+02 0.  0.
          5    1    3    3  501    0 -0.54779570524E+02  0.53370491806E+02 -0.52999459990E+02  0.93167824390E+02  0.47000000000E+01 0. -1.
        -13    1    4    4    0    0  0.10034376698E+02 -0.46951299579E+02 -0.24884077051E+02  0.54077079604E+02  0.00000000000E+00 0.  1.
         14    1    4    4    0    0 -0.45482161663E+02 -0.19041324695E+02  0.21150955197E+02  0.53652231840E+02  0.00000000000E+00 0. -1.
         -5    1    5    5    0  502  0.26365029465E+02 -0.37817106999E+02 -0.68019251434E+02  0.82304051699E+02  0.47000000000E+01 0.  1.
         13    1    6    6    0    0  0.23006522669E+02  0.60967718487E+01  0.49270473550E+02  0.54717915495E+02  0.00000000000E+00 0. -1.
        -14    1    6    6    0    0  0.40855803355E+02  0.44342467618E+02 -0.14074057844E+02  0.61915508610E+02  0.00000000000E+00 0.  1.
<mgrwt>
<rscale>  2 0.19533246E+03</rscale>
<asrwt>0</asrwt>
<pdfrwt beam="1">  1       21 0.23867630E-01 0.19621106E+03</pdfrwt>
<pdfrwt beam="2">  1       21 0.37645387E-01 0.19621106E+03</pdfrwt>
<totfact> 0.11244024E+05</totfact>
</mgrwt>
</event>
<event>
12    1  0.1039378E-001  0.2904001E+03  0.7546771E-02  0.1090143E+00
         21   -1    0    0  503  502  0.00000000000E+00  0.00000000000E+00  0.45798799866E+03  0.45798799866E+03  0.00000000000E+00 0. -1.
         21   -1    0    0  501  503 -0.00000000000E+00 -0.00000000000E+00 -0.24780261631E+03  0.24780261631E+03  0.00000000000E+00 0. -1.
          6    2    1    2  501    0  0.16393174097E+03 -0.16636750262E+03 -0.73800171083E+02  0.29961328355E+03  0.17253953983E+03 0.  0.
         24    2    3    3    0    0  0.13372629051E+03 -0.41639933700E+02 -0.56976619489E+02  0.17009703911E+03  0.77910607071E+02 0.  0.
         -6    2    1    2    0  502 -0.16393174097E+03  0.16636750262E+03  0.28398555343E+03  0.40617733142E+03  0.17257018392E+03 0.  0.
        -24    2    5    5    0    0 -0.78362989761E+02  0.12544069660E+02  0.12762035576E+03  0.17068672704E+03  0.80925223108E+02 0.  0.
          5    1    3    3  501    0  0.30205450464E+02 -0.12472756892E+03 -0.16823551594E+02  0.12951624444E+03  0.47000000000E+01 0. -1.
        -11    1    4    4    0    0  0.45919600915E+02 -0.39312277374E+02 -0.55778277669E+02  0.82251329230E+02  0.00000000000E+00 0.  1.
         12    1    4    4    0    0  0.87806689591E+02 -0.23276563262E+01 -0.11983418198E+01  0.87845709878E+02  0.00000000000E+00 0. -1.
         -5    1    5    5    0  502 -0.85568751209E+02  0.15382343296E+03  0.15636519767E+03  0.23549060438E+03  0.47000000000E+01 0.  1.
         11    1    6    6    0    0 -0.40645731646E+02  0.18196946413E+02  0.12472681617E+03  0.13243860098E+03  0.00000000000E+00 0. -1.
        -12    1    6    6    0    0 -0.37717258115E+02 -0.56528767534E+01  0.28935395937E+01  0.38248126054E+02  0.00000000000E+00 0.  1.
<mgrwt>
<rscale>  2 0.29039557E+03</rscale>
<asrwt>0</asrwt>
<pdfrwt beam="1">  1       21 0.70459692E-01 0.29040012E+03</pdfrwt>
<pdfrwt beam="2">  1       21 0.38123479E-01 0.29040012E+03</pdfrwt>
<totfact> 0.11471778E+04</totfact>
</mgrwt>
</event>
<event>
12    1  0.1039378E-001  0.2650579E+03  0.7546771E-02  0.1104471E+00
         21   -1    0    0  501  502  0.00000000000E+00  0.00000000000E+00  0.36081790063E+02  0.36081790063E+02  0.00000000000E+00 0. -1.
         21   -1    0    0  502  503 -0.00000000000E+00 -0.00000000000E+00 -0.19976749509E+04  0.19976749509E+04  0.00000000000E+00 0.  1.
         -6    2    1    2    0  503 -0.86089473309E+02  0.17702830844E+03 -0.79866391036E+03  0.84149851728E+03  0.17749730555E+03 0.  0.
        -24    2    3    3    0    0 -0.67297766995E+02  0.36609886044E+02 -0.22346899597E+03  0.24909515713E+03  0.78998303465E+02 0.  0.
          6    2    1    2  501    0  0.86089473309E+02 -0.17702830844E+03 -0.11629292505E+04  0.11922582237E+04  0.17414020476E+03 0.  0.
         24    2    5    5    0    0  0.93596991685E+02 -0.86650949814E+02 -0.93225441372E+03  0.94435219290E+03  0.80212146086E+02 0.  0.
          5    1    5    5  501    0 -0.75075183762E+01 -0.90377358623E+02 -0.23067483678E+03  0.24790603080E+03  0.47000000000E+01 0. -1.
        -13    1    6    6    0    0  0.22289244209E+02  0.11088296455E+02 -0.26931405927E+03  0.27046223996E+03  0.00000000000E+00 0.  1.
         14    1    6    6    0    0  0.71307747476E+02 -0.97739246269E+02 -0.66294035445E+03  0.67388995294E+03  0.00000000000E+00 0. -1.
         -5    1    3    3    0  503 -0.18791706314E+02  0.14041842239E+03 -0.57519491439E+03  0.59240336015E+03  0.47000000000E+01 0.  1.
         11    1    4    4    0    0 -0.30037865793E+02  0.57887074638E+02 -0.11129656092E+03  0.12899655524E+03  0.00000000000E+00 0. -1.
        -12    1    4    4    0    0 -0.37259901202E+02 -0.21277188595E+02 -0.11217243505E+03  0.12009860189E+03  0.00000000000E+00 0.  1.
<mgrwt>
<rscale>  2 0.26449710E+03</rscale>
<asrwt>0</asrwt>
<pdfrwt beam="1">  1       21 0.55510434E-02 0.26505794E+03</pdfrwt>
<pdfrwt beam="2">  1       21 0.30733468E+00 0.26505794E+03</pdfrwt>
<totfact> 0.64978932E+03</totfact>
</mgrwt>
</event>
<event>
11    1  0.1039378E-001  0.1747771E+03  0.7546771E-02  0.1173067E+00
         21   -1    0    0  501  502  0.00000000000E+00  0.00000000000E+00  0.18107686603E+03  0.18107686603E+03  0.00000000000E+00 0.  1.
         21   -1    0    0  502  503 -0.00000000000E+00 -0.00000000000E+00 -0.55308751535E+03  0.55308751535E+03  0.00000000000E+00 0.  1.
         -6    2    1    2    0  503  0.21567194740E+02 -0.21233162943E+02 -0.49212516209E+03  0.52209238794E+03  0.17168953166E+03 0.  0.
          6    2    1    2  501    0 -0.21567194740E+02  0.21233162943E+02  0.12011451278E+03  0.21207199344E+03  0.17213669894E+03 0.  0.
         24    2    4    4    0    0 -0.38013049469E+02  0.44909582600E+02  0.14471677282E+03  0.17388298737E+03  0.76357621893E+02 0.  0.
          5    1    4    4  501    0  0.16445854730E+02 -0.23676419657E+02 -0.24602260041E+02  0.38189006071E+02  0.47000000000E+01 0. -1.
        -11    1    5    5    0    0  0.82300966929E+01  0.46995460074E+02  0.54136606974E+02  0.72160099596E+02  0.00000000000E+00 0.  1.
         12    1    5    5    0    0 -0.46243146162E+02 -0.20858774738E+01  0.90580165844E+02  0.10172288777E+03  0.00000000000E+00 0. -1.
         -5    1    3    3    0  503  0.77648966159E+02 -0.95058464531E+01 -0.38317108595E+03  0.39110343155E+03  0.47000000000E+01 0.  1.
         11    1    3    3    0    0 -0.57576640189E+02 -0.19860213506E+02 -0.10591682632E+03  0.12217966964E+03  0.00000000000E+00 0. -1.
        -12    1    3    3    0    0  0.14948687691E+01  0.81328970164E+01 -0.30372498260E+01  0.88092867487E+01  0.00000000000E+00 0.  1.
<mgrwt>
<rscale>  2 0.17466690E+03</rscale>
<asrwt>0</asrwt>
<pdfrwt beam="1">  1       21 0.27857980E-01 0.17477710E+03</pdfrwt>
<pdfrwt beam="2">  1       21 0.85090386E-01 0.17477710E+03</pdfrwt>
<totfact> 0.14880811E+04</totfact>
</mgrwt>
</event>
<event>
12    1  0.1039378E-001  0.4148606E+03  0.7546771E-02  0.1038883E+00
         21   -1    0    0  503  502  0.00000000000E+00  0.00000000000E+00  0.29237768500E+03  0.29237768500E+03  0.00000000000E+00 0.  1.
         21   -1    0    0  501  503 -0.00000000000E+00 -0.00000000000E+00 -0.91471680708E+03  0.91471680708E+03  0.00000000000E+00 0.  1.
          6    2    1    2  501    0  0.51142798909E+02  0.37195231978E+03 -0.67313066361E+03  0.79070486694E+03  0.17647997686E+03 0.  0.
         24    2    3    3    0    0  0.89798662737E+02  0.20736353219E+03 -0.46019865312E+03  0.51877495703E+03  0.79254156972E+02 0.  0.
         -6    2    1    2    0  502 -0.51142798909E+02 -0.37195231978E+03  0.50791541533E+02  0.41638962514E+03  0.17273223545E+03 0.  0.
        -24    2    5    5    0    0 -0.27538397589E+02 -0.20431734012E+03 -0.40329498970E+02  0.22407792974E+03  0.77977633284E+02 0.  0.
          5    1    3    3  501    0 -0.38655863829E+02  0.16458878759E+03 -0.21293201050E+03  0.27192990991E+03  0.47000000000E+01 0. -1.
        -13    1    4    4    0    0  0.27537173628E+02  0.14856659983E+03 -0.32987679960E+03  0.36283471917E+03  0.00000000000E+00 0.  1.
         14    1    4    4    0    0  0.62261489109E+02  0.58796932355E+02 -0.13032185352E+03  0.15594023786E+03  0.00000000000E+00 0. -1.
         -5    1    5    5    0  502 -0.23604401320E+02 -0.16763497966E+03  0.91121040503E+02  0.19231169540E+03  0.47000000000E+01 0.  1.
         11    1    6    6    0    0  0.45708968285E+01 -0.24075931171E+01  0.11978875797E+02  0.13045423251E+02  0.00000000000E+00 0. -1.
        -12    1    6    6    0    0 -0.32109294417E+02 -0.20190974701E+03 -0.52308374767E+02  0.21103250649E+03  0.00000000000E+00 0.  1.
<mgrwt>
<rscale>  2 0.41446492E+03</rscale>
<asrwt>0</asrwt>
<pdfrwt beam="1">  1       21 0.44981183E-01 0.41486057E+03</pdfrwt>
<pdfrwt beam="2">  1       21 0.14072566E+00 0.41486057E+03</pdfrwt>
<totfact> 0.14482410E+03</totfact>
</mgrwt>
</event>
<event>
12    1  0.1039378E-001  0.1869168E+03  0.7546771E-02  0.1161698E+00
         21   -1    0    0  501  502  0.00000000000E+00  0.00000000000E+00  0.19618824564E+03  0.19618824564E+03  0.00000000000E+00 0.  1.
         21   -1    0    0  502  503 -0.00000000000E+00 -0.00000000000E+00 -0.18178372400E+03  0.18178372400E+03  0.00000000000E+00 0. -1.
         -6    2    1    2    0  503  0.27980807292E+02  0.57849811645E+02 -0.25485250490E+02  0.18864618229E+03  0.17552309767E+03 0.  0.
        -24    2    3    3    0    0 -0.22425637239E+02 -0.23680090493E+02 -0.30369119453E+02  0.92553119227E+02  0.81118065626E+02 0.  0.
          6    2    1    2  501    0 -0.27980807292E+02 -0.57849811645E+02  0.39889772134E+02  0.18932578735E+03  0.17356132505E+03 0.  0.
         24    2    5    5    0    0 -0.77594733289E+02 -0.52384372099E+02  0.57519161399E+02  0.13618166211E+03  0.80448282097E+02 0.  0.
          5    1    5    5  501    0  0.49613925997E+02 -0.54654395463E+01 -0.17629389265E+02  0.53144125246E+02  0.47000000000E+01 0. -1.
        -13    1    6    6    0    0 -0.64045619208E+02 -0.34319867866E+02  0.77352143051E+02  0.10612751154E+03  0.00000000000E+00 0.  1.
         14    1    6    6    0    0 -0.13549114080E+02 -0.18064504233E+02 -0.19832981651E+02  0.30054150574E+02  0.00000000000E+00 0. -1.
         -5    1    3    3    0  503  0.50406444531E+02  0.81529902138E+02  0.48838689636E+01  0.96093063063E+02  0.47000000000E+01 0.  1.
         11    1    4    4    0    0 -0.41671078572E+02 -0.20252444271E+02 -0.47649937537E+02  0.66461694498E+02  0.00000000000E+00 0. -1.
        -12    1    4    4    0    0  0.19245441333E+02 -0.34276462217E+01  0.17280818084E+02  0.26091424729E+02  0.00000000000E+00 0.  1.
<mgrwt>
<rscale>  2 0.18645483E+03</rscale>
<asrwt>0</asrwt>
<pdfrwt beam="1">  1       21 0.30182807E-01 0.18691678E+03</pdfrwt>
<pdfrwt beam="2">  1       21 0.27966727E-01 0.18691678E+03</pdfrwt>
<totfact> 0.12884828E+05</totfact>
</mgrwt>
</event>
<event>
12    1  0.1039378E-001  0.1892245E+03  0.7546771E-02  0.1159416E+00
         21   -1    0    0  501  502  0.00000000000E+00  0.00000000000E+00  0.12190381470E+03  0.12190381470E+03  0.00000000000E+00 0. -1.
         21   -1    0    0  502  503 -0.00000000000E+00 -0.00000000000E+00 -0.67746974694E+03  0.67746974694E+03  0.00000000000E+00 0. -1.
         -6    2    1    2    0  503  0.68834649117E+02  0.24720572424E+02 -0.57962446754E+03  0.60972979624E+03  0.17451815214E+03 0.  0.
        -24    2    3    3    0    0  0.77579183506E+02 -0.35120121362E+02 -0.27352887416E+03  0.29768175859E+03  0.80897662248E+02 0.  0.
          6    2    1    2  501    0 -0.68834649117E+02 -0.24720572424E+02  0.24058535297E+02  0.18964376540E+03  0.17331078736E+03 0.  0.
         24    2    5    5    0    0 -0.16917983645E+02 -0.76493486704E+02  0.28329444134E+02  0.11604957087E+03  0.80792783184E+02 0.  0.
          5    1    5    5  501    0 -0.51916665473E+02  0.51772914280E+02 -0.42709088374E+01  0.73594194535E+02  0.47000000000E+01 0. -1.
        -13    1    6    6    0    0  0.15631386127E+02 -0.20417635658E+01  0.30969484592E+02  0.34750798647E+02  0.00000000000E+00 0.  1.
         14    1    6    6    0    0 -0.32549369772E+02 -0.74451723139E+02 -0.26400404574E+01  0.81298772220E+02  0.00000000000E+00 0. -1.
         -5    1    3    3    0  503 -0.87445343886E+01  0.59840693786E+02 -0.30609559338E+03  0.31204803765E+03  0.47000000000E+01 0.  1.
         11    1    4    4    0    0 -0.18614891455E+01  0.20321425223E+02 -0.41654836069E+02  0.46384812524E+02  0.00000000000E+00 0. -1.
        -12    1    4    4    0    0  0.79440672652E+02 -0.55441546585E+02 -0.23187403809E+03  0.25129694606E+03  0.00000000000E+00 0.  1.
<mgrwt>
<rscale>  2 0.18894562E+03</rscale>
<asrwt>0</asrwt>
<pdfrwt beam="1">  1       21 0.18754433E-01 0.18922447E+03</pdfrwt>
<pdfrwt beam="2">  1       21 0.10422612E+00 0.18922447E+03</pdfrwt>
<totfact> 0.19392246E+04</totfact>
</mgrwt>
</event>
<event>
12    1  0.1039378E-001  0.1988817E+03  0.7546771E-02  0.1150733E+00
         21   -1    0    0  503  502  0.00000000000E+00  0.00000000000E+00  0.78051937303E+02  0.78051937303E+02  0.00000000000E+00 0.  1.
         21   -1    0    0  501  503 -0.00000000000E+00 -0.00000000000E+00 -0.64544218148E+03  0.64544218148E+03  0.00000000000E+00 0.  1.
          6    2    1    2  501    0  0.14878079749E+02  0.97170207200E+02 -0.45159057476E+03  0.49335611626E+03  0.17263488586E+03 0.  0.
         24    2    3    3    0    0  0.20758737239E+02  0.84074964833E+02 -0.14665627307E+03  0.18804793450E+03  0.79714731103E+02 0.  0.
         -6    2    1    2    0  502 -0.14878079749E+02 -0.97170207200E+02 -0.11579966942E+03  0.23013800252E+03  0.17288878027E+03 0.  0.
        -24    2    5    5    0    0 -0.56753250949E+02 -0.11365645704E+03 -0.62528629055E+02  0.16024365269E+03  0.75029841102E+02 0.  0.
          5    1    3    3  501    0 -0.58806574900E+01  0.13095242367E+02 -0.30493430168E+03  0.30530818176E+03  0.47000000000E+01 0. -1.
        -11    1    4    4    0    0  0.50180444871E+02  0.66620821583E+02 -0.10064488946E+03  0.13071267991E+03  0.00000000000E+00 0.  1.
         12    1    4    4    0    0 -0.29421707631E+02  0.17454143250E+02 -0.46011383613E+02  0.57335254587E+02  0.00000000000E+00 0. -1.
         -5    1    5    5    0  502  0.41875171200E+02  0.16486249842E+02 -0.53271040363E+02  0.69894349831E+02  0.47000000000E+01 0.  1.
         13    1    6    6    0    0 -0.20561062290E+02 -0.35295046087E+02  0.15692520067E+02  0.43757887824E+02  0.00000000000E+00 0. -1.
        -14    1    6    6    0    0 -0.36192188660E+02 -0.78361410955E+02 -0.78221149122E+02  0.11648576487E+03  0.00000000000E+00 0.  1.
<mgrwt>
<rscale>  2 0.19882652E+03</rscale>
<asrwt>0</asrwt>
<pdfrwt beam="1">  1       21 0.12007990E-01 0.19888172E+03</pdfrwt>
<pdfrwt beam="2">  1       21 0.99298804E-01 0.19888172E+03</pdfrwt>
<totfact> 0.48769782E+04</totfact>
</mgrwt>
</event>
<event>
12    1  0.1039378E-001  0.2705425E+03  0.7546771E-02  0.1101187E+00
         21   -1    0    0  501  502  0.00000000000E+00  0.00000000000E+00  0.13873955622E+04  0.13873955622E+04  0.00000000000E+00 0.  1.
         21   -1    0    0  502  503 -0.00000000000E+00 -0.00000000000E+00 -0.18431926436E+03  0.18431926436E+03  0.00000000000E+00 0. -1.
         -6    2    1    2    0  503  0.20602000883E+03  0.11289555963E+02 -0.62661281105E+02  0.27770426319E+03  0.17499006696E+03 0.  0.
        -24    2    3    3    0    0  0.15585475351E+03 -0.47352992320E+02 -0.79745284513E+02  0.19852437633E+03  0.80744086615E+02 0.  0.
          6    2    1    2  501    0 -0.20602000883E+03 -0.11289555963E+02  0.12657375790E+04  0.12940105634E+04  0.17262682656E+03 0.  0.
         24    2    5    5    0    0 -0.12539226710E+03 -0.20237061614E+02  0.45244093196E+03  0.47666460443E+03  0.79834759950E+02 0.  0.
          5    1    5    5  501    0 -0.80627741738E+02  0.89475056513E+01  0.81329664700E+03  0.81734595896E+03  0.47000000000E+01 0. -1.
        -11    1    6    6    0    0 -0.13683888822E+03 -0.20109136147E+02  0.42474114933E+03  0.44669262656E+03  0.00000000000E+00 0.  1.
         12    1    6    6    0    0  0.11446621124E+02 -0.12792546716E+00  0.27699782633E+02  0.29971977879E+02  0.00000000000E+00 0. -1.
         -5    1    3    3    0  503  0.50165255322E+02  0.58642548283E+02  0.17084003409E+02  0.79179886860E+02  0.47000000000E+01 0.  1.
         11    1    4    4    0    0  0.26402514273E+02  0.13801036621E+02  0.76877758321E+01  0.30767893477E+02  0.00000000000E+00 0. -1.
        -12    1    4    4    0    0  0.12945223924E+03 -0.61154028941E+02 -0.87433060346E+02  0.16775648286E+03  0.00000000000E+00 0.  1.
<mgrwt>
<rscale>  2 0.27016102E+03</rscale>
<asrwt>0</asrwt>
<pdfrwt beam="1">  1       21 0.21344546E+00 0.27054246E+03</pdfrwt>
<pdfrwt beam="2">  1       21 0.28356811E-01 0.27054246E+03</pdfrwt>
<totfact> 0.12184534E+03</totfact>
</mgrwt>
</event>
<event>
12    1  0.1039378E-001  0.2150632E+03  0.7546771E-02  0.1138574E+00
         21   -1    0    0  503  502  0.00000000000E+00  0.00000000000E+00  0.16332466975E+03  0.16332466975E+03  0.00000000000E+00 0.  1.
         21   -1    0    0  501  503 -0.00000000000E+00 -0.00000000000E+00 -0.31300174728E+03  0.31300174728E+03  0.00000000000E+00 0.  1.
          6    2    1    2  501    0 -0.11356152744E+03  0.56675127372E+02 -0.15512075055E+03  0.26119434443E+03  0.16748655986E+03 0.  0.
         24    2    3    3    0    0 -0.52472301660E+02  0.85014949908E+02 -0.13180458236E+03  0.18977465004E+03  0.93064954296E+02 0.  0.
         -6    2    1    2    0  502  0.11356152744E+03 -0.56675127372E+02  0.54436730212E+01  0.21513207260E+03  0.17361994271E+03 0.  0.
        -24    2    5    5    0    0  0.14576007877E+02 -0.30995969764E+01 -0.42674081384E+02  0.92633587591E+02  0.80856890992E+02 0.  0.
          5    1    3    3  501    0 -0.61089225778E+02 -0.28339822536E+02 -0.23316168191E+02  0.71419694389E+02  0.47000000000E+01 0. -1.
        -13    1    4    4    0    0 -0.66816123363E+02  0.88476865969E+02 -0.13498395344E+03  0.17468033043E+03  0.00000000000E+00 0.  1.
         14    1    4    4    0    0  0.14343821703E+02 -0.34619160611E+01  0.31793710877E+01  0.15094319606E+02  0.00000000000E+00 0. -1.
         -5    1    5    5    0  502  0.98985519560E+02 -0.53575530396E+02  0.48117754405E+02  0.12249848501E+03  0.47000000000E+01 0.  1.
         11    1    6    6    0    0  0.11401293379E+02 -0.15719921636E+02 -0.64424356327E+02  0.67287466255E+02  0.00000000000E+00 0. -1.
        -12    1    6    6    0    0  0.31747144984E+01  0.12620324659E+02  0.21750274943E+02  0.25346121335E+02  0.00000000000E+00 0.  1.
<mgrwt>
<rscale>  2 0.21382242E+03</rscale>
<asrwt>0</asrwt>
<pdfrwt beam="1">  1       21 0.25126872E-01 0.21506319E+03</pdfrwt>
<pdfrwt beam="2">  1       21 0.48154115E-01 0.21506319E+03</pdfrwt>
<totfact> 0.61183453E+04</totfact>
</mgrwt>
</event>
<event>
12    1  0.1039378E-001  0.1849616E+03  0.7546771E-02  0.1163694E+00
         21   -1    0    0  501  502  0.00000000000E+00  0.00000000000E+00  0.34541049658E+02  0.34541049658E+02  0.00000000000E+00 0. -1.
         21   -1    0    0  502  503 -0.00000000000E+00 -0.00000000000E+00 -0.13384614974E+04  0.13384614974E+04  0.00000000000E+00 0. -1.
         -6    2    1    2    0  503  0.47972447009E+02 -0.31729281674E+02 -0.10122355639E+04  0.10289954409E+04  0.17579157437E+03 0.  0.
        -24    2    3    3    0    0  0.55088566337E+02  0.36376140917E+02 -0.45317314476E+03  0.46573540662E+03  0.84767895346E+02 0.  0.
          6    2    1    2  501    0 -0.47972447009E+02  0.31729281674E+02 -0.29168488386E+03  0.34400710616E+03  0.17306852581E+03 0.  0.
         24    2    5    5    0    0  0.32201838995E+01  0.37945471207E+02 -0.27602948370E+03  0.28990989712E+03  0.80032769561E+02 0.  0.
          5    1    5    5  501    0 -0.51192630909E+02 -0.62161895328E+01 -0.15655400153E+02  0.54097209037E+02  0.47000000000E+01 0. -1.
        -13    1    6    6    0    0  0.28479088106E+02 -0.10611106465E+02 -0.62795342315E+02  0.69763235706E+02  0.00000000000E+00 0.  1.
         14    1    6    6    0    0 -0.25258904206E+02  0.48556577672E+02 -0.21323414139E+03  0.22014666141E+03  0.00000000000E+00 0. -1.
         -5    1    3    3    0  503 -0.71161193275E+01 -0.68105422591E+02 -0.55906241914E+03  0.56326003430E+03  0.47000000000E+01 0.  1.
         11    1    4    4    0    0  0.74799719780E+02  0.12897997393E+02 -0.34823673001E+03  0.35641292982E+03  0.00000000000E+00 0. -1.
        -12    1    4    4    0    0 -0.19711153443E+02  0.23478143523E+02 -0.10493641475E+03  0.10932247680E+03  0.00000000000E+00 0.  1.
<mgrwt>
<rscale>  2 0.18431163E+03</rscale>
<asrwt>0</asrwt>
<pdfrwt beam="1">  1       21 0.53140083E-02 0.18496157E+03</pdfrwt>
<pdfrwt beam="2">  1       21 0.20591713E+00 0.18496157E+03</pdfrwt>
<totfact> 0.30029096E+04</totfact>
</mgrwt>
</event>
<event>
12    1  0.1039378E-001  0.1914668E+03  0.7546771E-02  0.1157334E+00
         21   -1    0    0  501  502  0.00000000000E+00  0.00000000000E+00  0.21201298225E+03  0.21201298225E+03  0.00000000000E+00 0.  1.
         21   -1    0    0  502  503 -0.00000000000E+00 -0.00000000000E+00 -0.22765097563E+03  0.22765097563E+03  0.00000000000E+00 0.  1.
         -6    2    1    2    0  503 -0.78796157704E+02  0.13988362594E+02 -0.11637737765E+03  0.22406075052E+03  0.17393969397E+03 0.  0.
        -24    2    3    3    0    0 -0.22136883997E+02 -0.45075434789E+02 -0.20109762031E+02  0.97615706038E+02  0.81256304875E+02 0.  0.
          6    2    1    2  501    0  0.78796157704E+02 -0.13988362594E+02  0.10073938427E+03  0.21560320736E+03  0.17300812330E+03 0.  0.
         24    2    5    5    0    0 -0.15184589681E+02  0.12855908387E+02  0.81085356653E+02  0.11579656147E+03  0.80238160746E+02 0.  0.
          5    1    5    5  501    0  0.93980747385E+02 -0.26844270981E+02  0.19654027614E+02  0.99806645896E+02  0.47000000000E+01 0. -1.
        -13    1    6    6    0    0  0.12371538075E+02 -0.29541620282E+02  0.29059029990E+02  0.43245687730E+02  0.00000000000E+00 0.  1.
         14    1    6    6    0    0 -0.27556127756E+02  0.42397528669E+02  0.52026326662E+02  0.72550873738E+02  0.00000000000E+00 0. -1.
         -5    1    3    3    0  503 -0.56659273707E+02  0.59063797383E+02 -0.96267615618E+02  0.12644504449E+03  0.47000000000E+01 0.  1.
         11    1    4    4    0    0  0.30984346793E+02 -0.16297778994E+02 -0.52610967711E+01  0.35402351413E+02  0.00000000000E+00 0. -1.
        -12    1    4    4    0    0 -0.53121230790E+02 -0.28777655795E+02 -0.14848665260E+02  0.62213354625E+02  0.00000000000E+00 0.  1.
<mgrwt>
<rscale>  2 0.19125495E+03</rscale>
<asrwt>0</asrwt>
<pdfrwt beam="1">  1       21 0.32617382E-01 0.19146677E+03</pdfrwt>
<pdfrwt beam="2">  1       21 0.35023227E-01 0.19146677E+03</pdfrwt>
<totfact> 0.71131464E+04</totfact>
</mgrwt>
</event>
<event>
12    1  0.1039378E-001  0.2098951E+03  0.7546771E-02  0.1141963E+00
         21   -1    0    0  501  502  0.00000000000E+00  0.00000000000E+00  0.81167352982E+02  0.81167352982E+02  0.00000000000E+00 0.  1.
         21   -1    0    0  502  503 -0.00000000000E+00 -0.00000000000E+00 -0.14389968349E+04  0.14389968349E+04  0.00000000000E+00 0.  1.
         -6    2    1    2    0  503  0.11602084414E+03 -0.14625742533E+02 -0.12810798730E+04  0.12981608511E+04  0.17430205314E+03 0.  0.
        -24    2    3    3    0    0  0.41842044949E+02 -0.45812952859E+02 -0.36434780284E+03  0.37789191498E+03  0.78761631527E+02 0.  0.
          6    2    1    2  501    0 -0.11602084414E+03  0.14625742533E+02 -0.76749608886E+02  0.22200333674E+03  0.17239556387E+03 0.  0.
         24    2    5    5    0    0 -0.65250724545E+02 -0.58841785806E+02 -0.50036041560E+02  0.12867173736E+03  0.79578877409E+02 0.  0.
          5    1    5    5  501    0 -0.50770119593E+02  0.73467528339E+02 -0.26713567326E+02  0.93331599381E+02  0.47000000000E+01 0. -1.
        -13    1    6    6    0    0 -0.64881005672E+02 -0.10193094522E+02 -0.45315628936E+02  0.79793172006E+02  0.00000000000E+00 0.  1.
         14    1    6    6    0    0 -0.36971887345E+00 -0.48648691284E+02 -0.47204126238E+01  0.48878565354E+02  0.00000000000E+00 0. -1.
         -5    1    3    3    0  503  0.74178799190E+02  0.31187210326E+02 -0.91673207020E+03  0.92026893616E+03  0.47000000000E+01 0.  1.
         11    1    4    4    0    0 -0.59615379011E+01 -0.50349720842E+02 -0.15394653142E+03  0.16208074796E+03  0.00000000000E+00 0. -1.
        -12    1    4    4    0    0  0.47803582850E+02  0.45367679834E+01 -0.21040127142E+03  0.21581116702E+03  0.00000000000E+00 0.  1.
<mgrwt>
<rscale>  2 0.20949886E+03</rscale>
<asrwt>0</asrwt>
<pdfrwt beam="1">  1       21 0.12487284E-01 0.20989510E+03</pdfrwt>
<pdfrwt beam="2">  1       21 0.22138415E+00 0.20989510E+03</pdfrwt>
<totfact> 0.53039637E+03</totfact>
</mgrwt>
</event>
<event>
12    1  0.1039378E-001  0.1791447E+03  0.7546771E-02  0.1169581E+00
         21   -1    0    0  503  502  0.00000000000E+00  0.00000000000E+00  0.31125635852E+03  0.31125635852E+03  0.00000000000E+00 0.  1.
         21   -1    0    0  501  503 -0.00000000000E+00 -0.00000000000E+00 -0.13224342285E+03  0.13224342285E+03  0.00000000000E+00 0.  1.
          6    2    1    2  501    0 -0.12627400548E+01  0.31484323009E+02 -0.19176138825E+02  0.17634490799E+03  0.17244403488E+03 0.  0.
         24    2    3    3    0    0 -0.40418269058E+02  0.89257250894E+01 -0.64451369263E+02  0.11220457526E+03  0.81991357267E+02 0.  0.
         -6    2    1    2    0  502  0.12627400548E+01 -0.31484323009E+02  0.19818907449E+03  0.26715487338E+03  0.17635180753E+03 0.  0.
        -24    2    5    5    0    0 -0.13985695652E+02  0.12306780652E+02  0.22139042270E+02  0.85039856441E+02  0.79966139446E+02 0.  0.
          5    1    3    3  501    0  0.39155529003E+02  0.22558597920E+02  0.45275230437E+02  0.64140332731E+02  0.47000000000E+01 0. -1.
        -11    1    4    4    0    0 -0.18183428345E+02  0.44996846645E+02 -0.26369613072E+02  0.55233230649E+02  0.00000000000E+00 0.  1.
         12    1    4    4    0    0 -0.22234840714E+02 -0.36071121555E+02 -0.38081756191E+02  0.56971344607E+02  0.00000000000E+00 0. -1.
         -5    1    5    5    0  502  0.15248435707E+02 -0.43791103661E+02  0.17605003222E+03  0.18211501694E+03  0.47000000000E+01 0.  1.
         11    1    6    6    0    0  0.22652578480E+01  0.29220381414E+02  0.44071956123E+02  0.52927302969E+02  0.00000000000E+00 0. -1.
        -12    1    6    6    0    0 -0.16250953500E+02 -0.16913600762E+02 -0.21932913853E+02  0.32112553472E+02  0.00000000000E+00 0.  1.
<mgrwt>
<rscale>  2 0.17817547E+03</rscale>
<asrwt>0</asrwt>
<pdfrwt beam="1">  1       21 0.47885593E-01 0.17914468E+03</pdfrwt>
<pdfrwt beam="2">  1       21 0.20345142E-01 0.17914468E+03</pdfrwt>
<totfact> 0.93681214E+04</totfact>
</mgrwt>
</event>
<event>
12    1  0.1039378E-001  0.2508106E+03  0.7546771E-02  0.1112896E+00
         21   -1    0    0  501  502  0.00000000000E+00  0.00000000000E+00  0.84973563952E+02  0.84973563952E+02  0.00000000000E+00 0.  1.
         21   -1    0    0  502  503 -0.00000000000E+00 -0.00000000000E+00 -0.85178841335E+03  0.85178841335E+03  0.00000000000E+00 0.  1.
         -6    2    1    2    0  503 -0.12700271626E+03 -0.12877716477E+03 -0.55388214669E+03  0.60775390580E+03  0.17281819780E+03 0.  0.
        -24    2    3    3    0    0 -0.13398418881E+03 -0.53462729445E+02 -0.29301806715E+03  0.33610493540E+03  0.79353094660E+02 0.  0.
          6    2    1    2  501    0  0.12700271626E+03  0.12877716477E+03 -0.21293270270E+03  0.32900807150E+03  0.17376054536E+03 0.  0.
         24    2    5    5    0    0  0.86020520582E+02  0.12342294070E+03 -0.77818710979E+02  0.18763590720E+03  0.80738650220E+02 0.  0.
          5    1    5    5  501    0  0.40982195680E+02  0.53542240674E+01 -0.13511399172E+03  0.14137216430E+03  0.47000000000E+01 0. -1.
        -13    1    6    6    0    0 -0.37173504737E+01  0.23280066179E+02  0.11476400966E+02  0.26219991514E+02  0.00000000000E+00 0.  1.
         14    1    6    6    0    0  0.89737871056E+02  0.10014287453E+03 -0.89295111945E+02  0.16141591569E+03  0.00000000000E+00 0. -1.
         -5    1    3    3    0  503  0.69814725435E+01 -0.75314435326E+02 -0.26086407954E+03  0.27164897041E+03  0.47000000000E+01 0.  1.
         11    1    4    4    0    0 -0.39314328753E+00  0.77214724388E+01  0.61912737597E+00  0.77562244021E+01  0.00000000000E+00 0. -1.
        -12    1    4    4    0    0 -0.13359104552E+03 -0.61184201884E+02 -0.29363719453E+03  0.32834871099E+03  0.00000000000E+00 0.  1.
<mgrwt>
<rscale>  2 0.25064749E+03</rscale>
<asrwt>0</asrwt>
<pdfrwt beam="1">  1       21 0.13072856E-01 0.25081064E+03</pdfrwt>
<pdfrwt beam="2">  1       21 0.13104437E+00 0.25081064E+03</pdfrwt>
<totfact> 0.20602982E+04</totfact>
</mgrwt>
</event>
<event>
12    1  0.1039378E-001  0.1862031E+03  0.7546771E-02  0.1162047E+00
         21   -1    0    0  501  502  0.00000000000E+00  0.00000000000E+00  0.62411218408E+02  0.62411218408E+02  0.00000000000E+00 0. -1.
         21   -1    0    0  502  503 -0.00000000000E+00 -0.00000000000E+00 -0.93568859356E+03  0.93568859356E+03  0.00000000000E+00 0. -1.
         -6    2    1    2    0  503  0.10542190253E+02  0.67966209634E+02 -0.75570063652E+03  0.77830266843E+03  0.17303481793E+03 0.  0.
        -24    2    3    3    0    0 -0.32139520811E+02  0.98904836002E+02 -0.58339218683E+03  0.59804946070E+03  0.80632489780E+02 0.  0.
          6    2    1    2  501    0 -0.10542190253E+02 -0.67966209634E+02 -0.11757673862E+03  0.21979714353E+03  0.17249913453E+03 0.  0.
         24    2    5    5    0    0 -0.45638428149E+02  0.29435480819E+00 -0.18356830882E+02  0.94266547005E+02  0.80413032995E+02 0.  0.
          5    1    5    5  501    0  0.35096237896E+02 -0.68260564443E+02 -0.99219907743E+02  0.12553059653E+03  0.47000000000E+01 0. -1.
        -11    1    6    6    0    0  0.21890197015E+02 -0.63869096427E+01 -0.12876281507E+02  0.26187248149E+02  0.00000000000E+00 0.  1.
         12    1    6    6    0    0 -0.67528625165E+02  0.66812644508E+01 -0.54805493748E+01  0.68079298856E+02  0.00000000000E+00 0. -1.
         -5    1    3    3    0  503  0.42681711064E+02 -0.30938626368E+02 -0.17230844970E+03  0.18025320773E+03  0.47000000000E+01 0.  1.
         11    1    4    4    0    0 -0.40811425047E+02  0.54277644702E+02 -0.48415656657E+03  0.48889591538E+03  0.00000000000E+00 0. -1.
        -12    1    4    4    0    0  0.86719042358E+01  0.44627191300E+02 -0.99235620261E+02  0.10915354532E+03  0.00000000000E+00 0.  1.
<mgrwt>
<rscale>  2 0.18607854E+03</rscale>
<asrwt>0</asrwt>
<pdfrwt beam="1">  1       21 0.96017275E-02 0.18620309E+03</pdfrwt>
<pdfrwt beam="2">  1       21 0.14395207E+00 0.18620309E+03</pdfrwt>
<totfact> 0.29136607E+04</totfact>
</mgrwt>
</event>
<event>
12    1  0.1039378E-001  0.3228941E+03  0.7546771E-02  0.1074382E+00
         21   -1    0    0  501  502  0.00000000000E+00  0.00000000000E+00  0.61050831328E+03  0.61050831328E+03  0.00000000000E+00 0.  1.
         21   -1    0    0  502  503 -0.00000000000E+00 -0.00000000000E+00 -0.17083725353E+03  0.17083725353E+03  0.00000000000E+00 0. -1.
         -6    2    1    2    0  503  0.14425086018E+03  0.23251230006E+03  0.20295037012E+03  0.38137838814E+03  0.17143611600E+03 0.  0.
        -24    2    3    3    0    0  0.69557620424E+01  0.12037242610E+03  0.10599549664E+03  0.17927041503E+03  0.79780528994E+02 0.  0.
          6    2    1    2  501    0 -0.14425086018E+03 -0.23251230006E+03  0.23672068963E+03  0.39996717866E+03  0.17048982012E+03 0.  0.
         24    2    5    5    0    0 -0.82765225900E+02 -0.11019842315E+03  0.20559675278E+03  0.25949669368E+03  0.77940581161E+02 0.  0.
          5    1    5    5  501    0 -0.61485634279E+02 -0.12231387691E+03  0.31123936850E+02  0.14047048498E+03  0.47000000000E+01 0. -1.
        -11    1    6    6    0    0 -0.34211549346E+01 -0.62108722910E+02  0.57325417871E+02  0.84589605134E+02  0.00000000000E+00 0.  1.
         12    1    6    6    0    0 -0.79344070965E+02 -0.48089700241E+02  0.14827133491E+03  0.17490708854E+03  0.00000000000E+00 0. -1.
         -5    1    3    3    0  503  0.13729509814E+03  0.11213987396E+03  0.96954873480E+02  0.20210797311E+03  0.47000000000E+01 0.  1.
         13    1    4    4    0    0  0.28099867932E+02  0.90639692636E+02  0.38228451459E+02  0.10230626061E+03  0.00000000000E+00 0. -1.
        -14    1    4    4    0    0 -0.21144105890E+02  0.29732733466E+02  0.67767045185E+02  0.76964154425E+02  0.00000000000E+00 0.  1.
<mgrwt>
<rscale>  2 0.32276871E+03</rscale>
<asrwt>0</asrwt>
<pdfrwt beam="1">  1       21 0.93924355E-01 0.32289413E+03</pdfrwt>
<pdfrwt beam="2">  1       21 0.26282655E-01 0.32289413E+03</pdfrwt>
<totfact> 0.12219431E+04</totfact>
</mgrwt>
</event>
<event>
12    1  0.1039378E-001  0.1759048E+03  0.7546771E-02  0.1172030E+00
         21   -1    0    0  501  502  0.00000000000E+00  0.00000000000E+00  0.27935905133E+04  0.27935905133E+04  0.00000000000E+00 0. -1.
         21   -1    0    0  502  503 -0.00000000000E+00 -0.00000000000E+00 -0.11757350677E+02  0.11757350677E+02  0.00000000000E+00 0. -1.
         -6    2    1    2    0  503 -0.11079655597E+02 -0.19394794870E+02  0.10377784180E+04  0.10524447190E+04  0.17365749317E+03 0.  0.
        -24    2    3    3    0    0 -0.49037803046E+02 -0.18175713000E+02  0.34445342999E+03  0.35806446578E+03  0.82625259770E+02 0.  0.
          6    2    1    2  501    0  0.11079655597E+02  0.19394794870E+02  0.17440547446E+04  0.17529031449E+04  0.17448084838E+03 0.  0.
         24    2    5    5    0    0  0.48597924355E+02  0.52358344568E+02  0.74135686973E+03  0.74895128633E+03  0.78834424531E+02 0.  0.
          5    1    5    5  501    0 -0.37518268758E+02 -0.32963549699E+02  0.10026978749E+04  0.10039518586E+04  0.47000000000E+01 0. -1.
        -11    1    6    6    0    0  0.39386235214E+02 -0.74753558523E+01  0.18402085475E+03  0.18833701562E+03  0.00000000000E+00 0.  1.
         12    1    6    6    0    0  0.92116891414E+01  0.59833700421E+02  0.55733601498E+03  0.56061427070E+03  0.00000000000E+00 0. -1.
         -5    1    3    3    0  503  0.37958147449E+02 -0.12190818699E+01  0.69332498800E+03  0.69438025325E+03  0.47000000000E+01 0.  1.
         13    1    4    4    0    0 -0.60946592102E+02  0.13256465699E+02  0.25463881296E+03  0.26216625648E+03  0.00000000000E+00 0. -1.
        -14    1    4    4    0    0  0.11908789056E+02 -0.31432178699E+02  0.89814617029E+02  0.95898209298E+02  0.00000000000E+00 0.  1.
<mgrwt>
<rscale>  2 0.17570024E+03</rscale>
<asrwt>0</asrwt>
<pdfrwt beam="1">  1       21 0.42978263E+00 0.17590476E+03</pdfrwt>
<pdfrwt beam="2">  1       21 0.18088254E-02 0.17590476E+03</pdfrwt>
<totfact> 0.83722971E+03</totfact>
</mgrwt>
</event>
<event>
12    1  0.1039378E-001  0.1824966E+03  0.7546771E-02  0.1166526E+00
         21   -1    0    0  501  502  0.00000000000E+00  0.00000000000E+00  0.13517385749E+04  0.13517385749E+04  0.00000000000E+00 0. -1.
         21   -1    0    0  502  503 -0.00000000000E+00 -0.00000000000E+00 -0.14165420498E+03  0.14165420498E+03  0.00000000000E+00 0. -1.
         -6    2    1    2    0  503 -0.83540806685E+01  0.44520570869E+02 -0.74088202848E+02  0.19696214516E+03  0.17678561291E+03 0.  0.
        -24    2    3    3    0    0 -0.68051794222E+02  0.20838128014E+02 -0.20169381564E+02  0.11297402462E+03  0.85387657250E+02 0.  0.
          6    2    1    2  501    0  0.83540806685E+01 -0.44520570869E+02  0.12841725728E+04  0.12964306348E+04  0.17199221522E+03 0.  0.
         24    2    5    5    0    0 -0.24148348323E+02 -0.58408144333E+02  0.12087231450E+04  0.12129801779E+04  0.79464562994E+02 0.  0.
          5    1    5    5  501    0  0.32502428991E+02  0.13887573464E+02  0.75449427852E+02  0.83450456860E+02  0.47000000000E+01 0. -1.
        -13    1    6    6    0    0 -0.17487257290E+02 -0.25998788190E+01  0.52599773928E+02  0.55491438571E+02  0.00000000000E+00 0.  1.
         14    1    6    6    0    0 -0.66610910329E+01 -0.55808265514E+02  0.11561233710E+04  0.11574887393E+04  0.00000000000E+00 0. -1.
         -5    1    3    3    0  503  0.59697713554E+02  0.23682442855E+02 -0.53918821284E+02  0.83988120540E+02  0.47000000000E+01 0.  1.
         13    1    4    4    0    0 -0.12566088037E+02  0.88030279256E+01 -0.47533149247E+02  0.49947974399E+02  0.00000000000E+00 0. -1.
        -14    1    4    4    0    0 -0.55485706185E+02  0.12035100088E+02  0.27363767683E+02  0.63026050223E+02  0.00000000000E+00 0.  1.
<mgrwt>
<rscale>  2 0.18132557E+03</rscale>
<asrwt>0</asrwt>
<pdfrwt beam="1">  1       21 0.20795977E+00 0.18249664E+03</pdfrwt>
<pdfrwt beam="2">  1       21 0.21792955E-01 0.18249664E+03</pdfrwt>
<totfact> 0.23738223E+03</totfact>
</mgrwt>
</event>
<event>
12    1  0.1039378E-001  0.1992590E+03  0.7546771E-02  0.1150410E+00
         21   -1    0    0  503  502  0.00000000000E+00  0.00000000000E+00  0.13028214032E+03  0.13028214032E+03  0.00000000000E+00 0. -1.
         21   -1    0    0  501  503 -0.00000000000E+00 -0.00000000000E+00 -0.42507645356E+03  0.42507645356E+03  0.00000000000E+00 0. -1.
          6    2    1    2  501    0  0.61821823154E+02 -0.77061263734E+02 -0.29527204637E+03  0.35609898172E+03  0.17280198849E+03 0.  0.
         24    2    3    3    0    0  0.13995459022E+02  0.38093778409E+02 -0.11677463027E+03  0.13831132735E+03  0.62021771776E+02 0.  0.
         -6    2    1    2    0  502 -0.61821823154E+02  0.77061263734E+02  0.47773312960E+00  0.19925961216E+03  0.17304273641E+03 0.  0.
        -24    2    5    5    0    0 -0.78835606569E+02  0.88047052549E+01 -0.38062882717E+02  0.11891102368E+03  0.79990454517E+02 0.  0.
          5    1    3    3  501    0  0.47826364132E+02 -0.11515504214E+03 -0.17849741610E+03  0.21778765436E+03  0.47000000000E+01 0. -1.
        -11    1    4    4    0    0 -0.68165783028E+01  0.12732929652E+02 -0.10078575656E+03  0.10181533265E+03  0.00000000000E+00 0.  1.
         12    1    4    4    0    0  0.20812037324E+02  0.25360848757E+02 -0.15988873710E+02  0.36495994709E+02  0.00000000000E+00 0. -1.
         -5    1    5    5    0  502  0.17013783416E+02  0.68256558480E+02  0.38540615846E+02  0.80348588484E+02  0.47000000000E+01 0.  1.
         13    1    6    6    0    0 -0.66586806770E+02 -0.12417874259E+02  0.65098158141E+01  0.68046926006E+02  0.00000000000E+00 0. -1.
        -14    1    6    6    0    0 -0.12248799799E+02  0.21222579514E+02 -0.44572698531E+02  0.50864097673E+02  0.00000000000E+00 0.  1.
<mgrwt>
<rscale>  2 0.19920676E+03</rscale>
<asrwt>0</asrwt>
<pdfrwt beam="1">  1       21 0.20043406E-01 0.19925904E+03</pdfrwt>
<pdfrwt beam="2">  1       21 0.65396378E-01 0.19925904E+03</pdfrwt>
<totfact> 0.49285722E+04</totfact>
</mgrwt>
</event>
<event>
12    1  0.1039378E-001  0.1787497E+03  0.7546771E-02  0.1169546E+00
         21   -1    0    0  503  502  0.00000000000E+00  0.00000000000E+00  0.68188731410E+02  0.68188731410E+02  0.00000000000E+00 0.  1.
         21   -1    0    0  501  503 -0.00000000000E+00 -0.00000000000E+00 -0.58594559655E+03  0.58594559655E+03  0.00000000000E+00 0.  1.
          6    2    1    2  501    0 -0.40336903310E+02  0.14499303440E+02 -0.40748095410E+03  0.44410523682E+03  0.17132261335E+03 0.  0.
         24    2    3    3    0    0 -0.64745811136E+02 -0.46039262406E+01 -0.13927109469E+03  0.17406941169E+03  0.81795513783E+02 0.  0.
         -6    2    1    2    0  502  0.40336903310E+02 -0.14499303440E+02 -0.11027591104E+03  0.21002909115E+03  0.17353428192E+03 0.  0.
        -24    2    5    5    0    0 -0.34643325248E+02  0.27504110346E+02 -0.69083466865E+02  0.11460776805E+03  0.80036110805E+02 0.  0.
          5    1    3    3  501    0  0.24408907826E+02  0.19103229680E+02 -0.26820985941E+03  0.27003582512E+03  0.47000000000E+01 0. -1.
        -13    1    4    4    0    0  0.64002901393E+01 -0.26606023825E+02 -0.21822374669E+02  0.35000860759E+02  0.00000000000E+00 0.  1.
         14    1    4    4    0    0 -0.71146101275E+02  0.22002097585E+02 -0.11744872002E+03  0.13906855094E+03  0.00000000000E+00 0. -1.
         -5    1    5    5    0  502  0.74980228558E+02 -0.42003413785E+02 -0.41192444178E+02  0.95421323097E+02  0.47000000000E+01 0.  1.
         11    1    6    6    0    0 -0.49395055171E+02 -0.99816004281E+01 -0.30958520786E+02  0.59143332944E+02  0.00000000000E+00 0. -1.
        -12    1    6    6    0    0  0.14751729923E+02  0.37485710774E+02 -0.38124946079E+02  0.55464435105E+02  0.00000000000E+00 0.  1.
<mgrwt>
<rscale>  2 0.17821065E+03</rscale>
<asrwt>0</asrwt>
<pdfrwt beam="1">  1       21 0.10490574E-01 0.17874966E+03</pdfrwt>
<pdfrwt beam="2">  1       21 0.90145479E-01 0.17874966E+03</pdfrwt>
<totfact> 0.78503031E+04</totfact>
</mgrwt>
</event>
<event>
12    1  0.1039378E-001  0.1747977E+03  0.7546771E-02  0.1172962E+00
         21   -1    0    0  503  502  0.00000000000E+00  0.00000000000E+00  0.33627179387E+03  0.33627179387E+03  0.00000000000E+00 0. -1.
         21   -1    0    0  501  503 -0.00000000000E+00 -0.00000000000E+00 -0.15131625138E+03  0.15131625138E+03  0.00000000000E+00 0. -1.
          6    2    1    2  501    0 -0.46522454530E+01  0.26425304510E+02 -0.61707061608E+02  0.18526920426E+03  0.17261800743E+03 0.  0.
         24    2    3    3    0    0 -0.48435768963E+02  0.63388422403E+02 -0.59477491427E+02  0.12773373695E+03  0.80088824184E+02 0.  0.
         -6    2    1    2    0  502  0.46522454530E+01 -0.26425304510E+02  0.24666260410E+03  0.30231884099E+03  0.17272608734E+03 0.  0.
        -24    2    5    5    0    0 -0.66499486070E+01 -0.26630857234E+02  0.38072029478E+02  0.93369326354E+02  0.80715099590E+02 0.  0.
          5    1    3    3  501    0  0.43783523510E+02 -0.36963117893E+02 -0.22295701803E+01  0.57535467310E+02  0.47000000000E+01 0. -1.
        -11    1    4    4    0    0 -0.19004432831E+02  0.18313380831E+02  0.19033477537E+02  0.32539539822E+02  0.00000000000E+00 0.  1.
         12    1    4    4    0    0 -0.29431336132E+02  0.45075041572E+02 -0.78510968964E+02  0.95194197129E+02  0.00000000000E+00 0. -1.
         -5    1    5    5    0  502  0.11302194060E+02  0.20555272421E+00  0.20859057462E+03  0.20894951463E+03  0.47000000000E+01 0.  1.
         11    1    6    6    0    0 -0.93781051450E+01  0.28427036083E+02  0.16440175177E+02  0.34151494791E+02  0.00000000000E+00 0. -1.
        -12    1    6    6    0    0  0.27281565380E+01 -0.55057893317E+02  0.21631854300E+02  0.59217831564E+02  0.00000000000E+00 0.  1.
<mgrwt>
<rscale>  2 0.17477101E+03</rscale>
<asrwt>0</asrwt>
<pdfrwt beam="1">  1       21 0.51734122E-01 0.17479772E+03</pdfrwt>
<pdfrwt beam="2">  1       21 0.23279423E-01 0.17479772E+03</pdfrwt>
<totfact> 0.62046668E+04</totfact>
</mgrwt>
</event>
<event>
12    1  0.1039378E-001  0.2139612E+03  0.7546771E-02  0.1138704E+00
         21   -1    0    0  503  502  0.00000000000E+00  0.00000000000E+00  0.25025013745E+03  0.25025013745E+03  0.00000000000E+00 0. -1.
         21   -1    0    0  501  503 -0.00000000000E+00 -0.00000000000E+00 -0.23878876973E+03  0.23878876973E+03  0.00000000000E+00 0. -1.
          6    2    1    2  501    0  0.52721983346E+02 -0.11120204606E+03  0.12507538118E+03  0.24678378291E+03  0.17353063694E+03 0.  0.
         24    2    3    3    0    0  0.16845069845E+01 -0.82594059575E+02  0.74480890788E+01  0.11532462298E+03  0.80122895562E+02 0.  0.
         -6    2    1    2    0  502 -0.52721983346E+02  0.11120204606E+03 -0.11361401346E+03  0.24225512427E+03  0.17502542274E+03 0.  0.
        -24    2    5    5    0    0 -0.91901934580E+02  0.49661617620E+02 -0.34350016082E+02  0.13442579528E+03  0.77318361252E+02 0.  0.
          5    1    3    3  501    0  0.51037476362E+02 -0.28607986482E+02  0.11762729210E+03  0.13145915993E+03  0.47000000000E+01 0. -1.
        -11    1    4    4    0    0 -0.29496116586E+02 -0.25200054707E+02 -0.20962492214E+02  0.44096368680E+02  0.00000000000E+00 0.  1.
         12    1    4    4    0    0  0.31180623570E+02 -0.57394004868E+02  0.28410581293E+02  0.71228254298E+02  0.00000000000E+00 0. -1.
         -5    1    5    5    0  502  0.39179951233E+02  0.61540428436E+02 -0.79263997382E+02  0.10782932900E+03  0.47000000000E+01 0.  1.
         11    1    6    6    0    0 -0.63263502719E+02 -0.62688401553E+01 -0.16601988777E+01  0.63595010759E+02  0.00000000000E+00 0. -1.
        -12    1    6    6    0    0 -0.28638431861E+02  0.55930457776E+02 -0.32689817204E+02  0.70830784517E+02  0.00000000000E+00 0.  1.
<mgrwt>
<rscale>  2 0.21365530E+03</rscale>
<asrwt>0</asrwt>
<pdfrwt beam="1">  1       21 0.38500021E-01 0.21396121E+03</pdfrwt>
<pdfrwt beam="2">  1       21 0.36736734E-01 0.21396121E+03</pdfrwt>
<totfact> 0.46008210E+04</totfact>
</mgrwt>
</event>
<event>
12    1  0.1039378E-001  0.2670284E+03  0.7546771E-02  0.1103132E+00
         21   -1    0    0  501  502  0.00000000000E+00  0.00000000000E+00  0.10776240960E+03  0.10776240960E+03  0.00000000000E+00 0.  1.
         21   -1    0    0  502  503 -0.00000000000E+00 -0.00000000000E+00 -0.17450440130E+04  0.17450440130E+04  0.00000000000E+00 0. -1.
         -6    2    1    2    0  503 -0.18641472679E+03  0.80978033958E+02 -0.15499305757E+04  0.15727647522E+04  0.17319435309E+03 0.  0.
        -24    2    3    3    0    0 -0.14161420015E+03  0.41243252884E+02 -0.14169977934E+04  0.14268909896E+04  0.79872160510E+02 0.  0.
          6    2    1    2  501    0  0.18641472679E+03 -0.80978033958E+02 -0.87351027654E+02  0.28004167035E+03  0.17171267499E+03 0.  0.
         24    2    5    5    0    0  0.95588113768E+02 -0.71260655162E+02  0.14076041773E+02  0.14346406788E+03  0.78540660507E+02 0.  0.
          5    1    5    5  501    0  0.90826613026E+02 -0.97173787964E+01 -0.10142706943E+03  0.13657760247E+03  0.47000000000E+01 0. -1.
        -13    1    6    6    0    0  0.49712420185E+01 -0.34603585022E+02 -0.19596165585E+02  0.40076564838E+02  0.00000000000E+00 0.  1.
         14    1    6    6    0    0  0.90616871749E+02 -0.36657070140E+02  0.33672207358E+02  0.10338750304E+03  0.00000000000E+00 0. -1.
         -5    1    3    3    0  503 -0.44800526644E+02  0.39734781074E+02 -0.13293278226E+03  0.14587376260E+03  0.47000000000E+01 0.  1.
         13    1    4    4    0    0 -0.57185688672E+02  0.55364271955E+02 -0.55993297374E+03  0.56556196891E+03  0.00000000000E+00 0. -1.
        -14    1    4    4    0    0 -0.84428511478E+02 -0.14121019071E+02 -0.85706481971E+03  0.86132902071E+03  0.00000000000E+00 0.  1.
<mgrwt>
<rscale>  2 0.26678844E+03</rscale>
<asrwt>0</asrwt>
<pdfrwt beam="1">  1       21 0.16578835E-01 0.26702842E+03</pdfrwt>
<pdfrwt beam="2">  1       21 0.26846827E+00 0.26702842E+03</pdfrwt>
<totfact> 0.15689273E+03</totfact>
</mgrwt>
</event>
<event>
12    1  0.1039378E-001  0.3293283E+03  0.7546771E-02  0.1071528E+00
         21   -1    0    0  503  502  0.00000000000E+00  0.00000000000E+00  0.12152589681E+04  0.12152589681E+04  0.00000000000E+00 0. -1.
         21   -1    0    0  501  503 -0.00000000000E+00 -0.00000000000E+00 -0.12766696965E+03  0.12766696965E+03  0.00000000000E+00 0.  1.
          6    2    1    2  501    0 -0.17433294455E+03 -0.21813569654E+03  0.17387177831E+03  0.37166812085E+03  0.17300473723E+03 0.  0.
         24    2    3    3    0    0 -0.21384623842E+02 -0.10742075873E+03  0.48057131684E+02  0.14472671527E+03  0.81485045646E+02 0.  0.
         -6    2    1    2    0  502  0.17433294455E+03  0.21813569654E+03  0.91372022014E+03  0.97125781691E+03  0.17459080316E+03 0.  0.
        -24    2    5    5    0    0  0.39614857177E+02  0.88485386823E+02  0.52069786498E+03  0.53600291741E+03  0.82303464654E+02 0.  0.
          5    1    3    3  501    0 -0.15294832070E+03 -0.11071493781E+03  0.12581464663E+03  0.22694140558E+03  0.47000000000E+01 0. -1.
        -11    1    4    4    0    0 -0.45780373711E+02 -0.10086145031E+03  0.43789277544E+02  0.11910657246E+03  0.00000000000E+00 0.  1.
         12    1    4    4    0    0  0.24395749869E+02 -0.65593084231E+01  0.42678541405E+01  0.25620142810E+02  0.00000000000E+00 0. -1.
         -5    1    5    5    0  502  0.13471808737E+03  0.12965030972E+03  0.39302235517E+03  0.43525489950E+03  0.47000000000E+01 0.  1.
         13    1    6    6    0    0  0.60774159541E+02  0.37081787750E+02  0.31302840174E+03  0.32102233217E+03  0.00000000000E+00 0. -1.
        -14    1    6    6    0    0 -0.21159302364E+02  0.51403599073E+02  0.20766946323E+03  0.21498058525E+03  0.00000000000E+00 0.  1.
<mgrwt>
<rscale>  2 0.32911854E+03</rscale>
<asrwt>0</asrwt>
<pdfrwt beam="1">  1       21 0.18696291E+00 0.32932827E+03</pdfrwt>
<pdfrwt beam="2">  1       21 0.19641073E-01 0.32932827E+03</pdfrwt>
<totfact> 0.35345315E+03</totfact>
</mgrwt>
</event>
<event>
12    1  0.1039378E-001  0.2011648E+03  0.7546771E-02  0.1149155E+00
         21   -1    0    0  503  502  0.00000000000E+00  0.00000000000E+00  0.15532542371E+04  0.15532542371E+04  0.00000000000E+00 0.  1.
         21   -1    0    0  501  503 -0.00000000000E+00 -0.00000000000E+00 -0.60613069211E+02  0.60613069211E+02  0.00000000000E+00 0.  1.
          6    2    1    2  501    0 -0.93551774189E+02  0.39187615446E+02  0.13636522269E+03  0.24302826567E+03  0.17372294120E+03 0.  0.
         24    2    3    3    0    0 -0.68692336811E+02  0.86820170055E+02  0.55621023925E+02  0.14592745455E+03  0.77102170043E+02 0.  0.
         -6    2    1    2    0  502  0.93551774189E+02 -0.39187615446E+02  0.13562759452E+04  0.13708390407E+04  0.17154484008E+03 0.  0.
        -24    2    5    5    0    0  0.94511603729E+02  0.22181233266E+01  0.12605879585E+04  0.12664664519E+04  0.76927949671E+02 0.  0.
          5    1    3    3  501    0 -0.24859437378E+02 -0.47632554609E+02  0.80744198767E+02  0.97100811119E+02  0.47000000000E+01 0. -1.
        -13    1    4    4    0    0 -0.76986911947E+02  0.75236622389E+02  0.67771641720E+02  0.12720270980E+03  0.00000000000E+00 0.  1.
         14    1    4    4    0    0  0.82945751357E+01  0.11583547667E+02 -0.12150617796E+02  0.18724744752E+02  0.00000000000E+00 0. -1.
         -5    1    5    5    0  502 -0.95982953998E+00 -0.41405738773E+02  0.95687986747E+02  0.10437258876E+03  0.47000000000E+01 0.  1.
         13    1    6    6    0    0  0.26211789529E+02  0.12164979397E+02  0.10754693258E+03  0.11136151643E+03  0.00000000000E+00 0. -1.
        -14    1    6    6    0    0  0.68299814200E+02 -0.99468560706E+01  0.11530410259E+04  0.11551049355E+04  0.00000000000E+00 0.  1.
<mgrwt>
<rscale>  2 0.20069363E+03</rscale>
<asrwt>0</asrwt>
<pdfrwt beam="1">  1       21 0.23896216E+00 0.20116477E+03</pdfrwt>
<pdfrwt beam="2">  1       21 0.93250887E-02 0.20116477E+03</pdfrwt>
<totfact> 0.70349244E+03</totfact>
</mgrwt>
</event>
<event>
12    1  0.1039378E-001  0.2281434E+03  0.7546771E-02  0.1128135E+00
         21   -1    0    0  503  502  0.00000000000E+00  0.00000000000E+00  0.38354205818E+03  0.38354205818E+03  0.00000000000E+00 0.  1.
         21   -1    0    0  501  503 -0.00000000000E+00 -0.00000000000E+00 -0.21382530003E+03  0.21382530003E+03  0.00000000000E+00 0.  1.
          6    2    1    2  501    0 -0.11641209636E+03 -0.88530992019E+02 -0.96252637951E+02  0.24761660361E+03  0.17509968402E+03 0.  0.
         24    2    3    3    0    0 -0.13462092618E+03 -0.40676940011E+02 -0.33401901851E+02  0.16641391397E+03  0.82465122927E+02 0.  0.
         -6    2    1    2    0  502  0.11641209636E+03  0.88530992019E+02  0.26596939610E+03  0.34975075461E+03  0.17377099286E+03 0.  0.
        -24    2    5    5    0    0  0.10243790739E+03  0.11348229086E+03  0.14545380071E+03  0.22579937703E+03  0.80354186689E+02 0.  0.
          5    1    3    3  501    0  0.18208829825E+02 -0.47854052008E+02 -0.62850736101E+02  0.81202689645E+02  0.47000000000E+01 0. -1.
        -13    1    4    4    0    0 -0.37245862653E+02 -0.41451899247E+02 -0.40329880068E+02  0.68789631938E+02  0.00000000000E+00 0.  1.
         14    1    4    4    0    0 -0.97375063530E+02  0.77495923600E+00  0.69279782176E+01  0.97624282028E+02  0.00000000000E+00 0. -1.
         -5    1    5    5    0  502  0.13974188971E+02 -0.24951298839E+02  0.12051559539E+03  0.12395137758E+03  0.47000000000E+01 0.  1.
         13    1    6    6    0    0  0.63672983290E+02  0.66804493415E+02  0.32981545310E+02  0.98004446187E+02  0.00000000000E+00 0. -1.
        -14    1    6    6    0    0  0.38764924097E+02  0.46677797443E+02  0.11247225540E+03  0.12779493085E+03  0.00000000000E+00 0.  1.
<mgrwt>
<rscale>  2 0.22788843E+03</rscale>
<asrwt>0</asrwt>
<pdfrwt beam="1">  1       21 0.59006470E-01 0.22814340E+03</pdfrwt>
<pdfrwt beam="2">  1       21 0.32896200E-01 0.22814340E+03</pdfrwt>
<totfact> 0.23424409E+04</totfact>
</mgrwt>
</event>
<event>
12    1  0.1039378E-001  0.2064593E+03  0.7546771E-02  0.1144590E+00
         21   -1    0    0  501  502  0.00000000000E+00  0.00000000000E+00  0.14975547038E+03  0.14975547038E+03  0.00000000000E+00 0. -1.
         21   -1    0    0  502  503 -0.00000000000E+00 -0.00000000000E+00 -0.28336192954E+03  0.28336192954E+03  0.00000000000E+00 0. -1.
         -6    2    1    2    0  503  0.79181490654E+02  0.78961795620E+02 -0.67969802810E+02  0.21647577690E+03  0.17244475712E+03 0.  0.
        -24    2    3    3    0    0  0.11561900044E+03  0.70750533441E+02 -0.79033456466E+02  0.17723789497E+03  0.82423254784E+02 0.  0.
          6    2    1    2  501    0 -0.79181490654E+02 -0.78961795620E+02 -0.65636656350E+02  0.21664162303E+03  0.17355330174E+03 0.  0.
         24    2    5    5    0    0 -0.55227836798E+02 -0.40592762094E+02 -0.11048666698E+03  0.15277008227E+03  0.80209152622E+02 0.  0.
          5    1    5    5  501    0 -0.23953653856E+02 -0.38369033526E+02  0.44850010625E+02  0.63871540767E+02  0.47000000000E+01 0. -1.
        -13    1    6    6    0    0 -0.39625448210E+02 -0.57351947217E+02 -0.43959725595E+02  0.82412859857E+02  0.00000000000E+00 0.  1.
         14    1    6    6    0    0 -0.15602388588E+02  0.16759185123E+02 -0.66526941381E+02  0.70357222409E+02  0.00000000000E+00 0. -1.
         -5    1    3    3    0  503 -0.36437509782E+02  0.82112621790E+01  0.11063653656E+02  0.39237881924E+02  0.47000000000E+01 0.  1.
         13    1    4    4    0    0  0.92719087384E+02  0.96297209969E+01 -0.50306232569E+02  0.10592581237E+03  0.00000000000E+00 0. -1.
        -14    1    4    4    0    0  0.22899913052E+02  0.61120812444E+02 -0.28727223897E+02  0.71312082598E+02  0.00000000000E+00 0.  1.
<mgrwt>
<rscale>  2 0.20622611E+03</rscale>
<asrwt>0</asrwt>
<pdfrwt beam="1">  1       21 0.23039303E-01 0.20645925E+03</pdfrwt>
<pdfrwt beam="2">  1       21 0.43594143E-01 0.20645925E+03</pdfrwt>
<totfact> 0.88952558E+04</totfact>
</mgrwt>
</event>
<event>
12    1  0.1039378E-001  0.2124028E+03  0.7546771E-02  0.1141966E+00
         21   -1    0    0  503  502  0.00000000000E+00  0.00000000000E+00  0.13949754651E+03  0.13949754651E+03  0.00000000000E+00 0.  1.
         21   -1    0    0  501  503 -0.00000000000E+00 -0.00000000000E+00 -0.32574278191E+03  0.32574278191E+03  0.00000000000E+00 0.  1.
          6    2    1    2  501    0 -0.11018814969E+03 -0.53993829177E+02 -0.33896782169E+02  0.20384981269E+03  0.15921366892E+03 0.  0.
         24    2    3    3    0    0 -0.16006162190E+02 -0.66800444142E+02 -0.83397980312E+01  0.10531298915E+03  0.79390030144E+02 0.  0.
         -6    2    1    2    0  502  0.11018814969E+03  0.53993829177E+02 -0.15234845323E+03  0.26139051573E+03  0.17337297538E+03 0.  0.
        -24    2    5    5    0    0  0.11560941128E+03  0.17473645456E+02 -0.16917578904E+03  0.22054491466E+03  0.79679028126E+02 0.  0.
          5    1    3    3  501    0 -0.94181987496E+02  0.12806614964E+02 -0.25556984138E+02  0.98536823542E+02  0.47000000000E+01 0. -1.
        -13    1    4    4    0    0 -0.35406823598E+02 -0.47611100209E+02  0.23109983191E+02  0.63675201951E+02  0.00000000000E+00 0.  1.
         14    1    4    4    0    0  0.19400661407E+02 -0.19189343933E+02 -0.31449781223E+02  0.41637787196E+02  0.00000000000E+00 0. -1.
         -5    1    5    5    0  502 -0.54212615906E+01  0.36520183721E+02  0.16827335814E+02  0.40845601071E+02  0.47000000000E+01 0.  1.
         13    1    6    6    0    0  0.11785159079E+03  0.39330417057E+01 -0.11519442517E+03  0.16484605503E+03  0.00000000000E+00 0. -1.
        -14    1    6    6    0    0 -0.22421795091E+01  0.13540603750E+02 -0.53981363873E+02  0.55698859633E+02  0.00000000000E+00 0.  1.
<mgrwt>
<rscale>  2 0.20949593E+03</rscale>
<asrwt>0</asrwt>
<pdfrwt beam="1">  1       21 0.21461161E-01 0.21240280E+03</pdfrwt>
<pdfrwt beam="2">  1       21 0.50114274E-01 0.21240280E+03</pdfrwt>
<totfact> 0.76049968E+04</totfact>
</mgrwt>
</event>
<event>
12    1  0.1039378E-001  0.1781116E+03  0.7546771E-02  0.1169986E+00
         21   -1    0    0  501  502  0.00000000000E+00  0.00000000000E+00  0.16681472455E+03  0.16681472455E+03  0.00000000000E+00 0. -1.
         21   -1    0    0  502  503 -0.00000000000E+00 -0.00000000000E+00 -0.18931911943E+03  0.18931911943E+03  0.00000000000E+00 0. -1.
         -6    2    1    2    0  503  0.35611465927E+02 -0.30256586630E+02 -0.21541679888E+02  0.17940952604E+03  0.17187232623E+03 0.  0.
        -24    2    3    3    0    0  0.75084999527E+02  0.48104406594E+00 -0.55865716772E+02  0.11855567404E+03  0.72776926147E+02 0.  0.
          6    2    1    2  501    0 -0.35611465927E+02  0.30256586630E+02 -0.96271498713E+00  0.17672431794E+03  0.17043157041E+03 0.  0.
         24    2    5    5    0    0 -0.29307706156E+02 -0.38557914413E+02 -0.34241965288E+02  0.99881807300E+02  0.80362981768E+02 0.  0.
          5    1    5    5  501    0 -0.63037597712E+01  0.68814501043E+02  0.33279250301E+02  0.76842510641E+02  0.47000000000E+01 0. -1.
        -13    1    6    6    0    0 -0.45262758845E+02 -0.92020372053E+01 -0.45292677928E+02  0.64690196328E+02  0.00000000000E+00 0.  1.
         14    1    6    6    0    0  0.15955052689E+02 -0.29355877208E+02  0.11050712640E+02  0.35191610972E+02  0.00000000000E+00 0. -1.
         -5    1    3    3    0  503 -0.39473533599E+02 -0.30737630696E+02  0.34324036884E+02  0.60853852003E+02  0.47000000000E+01 0.  1.
         11    1    4    4    0    0  0.37807397474E+02 -0.13646258977E+02 -0.66133057955E+02  0.77389928559E+02  0.00000000000E+00 0. -1.
        -12    1    4    4    0    0  0.37277602052E+02  0.14127303043E+02  0.10267341184E+02  0.41165745481E+02  0.00000000000E+00 0.  1.
<mgrwt>
<rscale>  2 0.17776309E+03</rscale>
<asrwt>0</asrwt>
<pdfrwt beam="1">  1       21 0.25663804E-01 0.17811158E+03</pdfrwt>
<pdfrwt beam="2">  1       21 0.29126018E-01 0.17811158E+03</pdfrwt>
<totfact> 0.16334476E+05</totfact>
</mgrwt>
</event>
<event>
12    1  0.1039378E-001  0.3644938E+03  0.7546771E-02  0.1056943E+00
         21   -1    0    0  503  502  0.00000000000E+00  0.00000000000E+00  0.15637892418E+03  0.15637892418E+03  0.00000000000E+00 0.  1.
         21   -1    0    0  501  503 -0.00000000000E+00 -0.00000000000E+00 -0.11546261576E+04  0.11546261576E+04  0.00000000000E+00 0. -1.
          6    2    1    2  501    0 -0.22249200264E+03  0.22947996044E+03 -0.83832813948E+03  0.91413883940E+03  0.17519133760E+03 0.  0.
         24    2    3    3    0    0 -0.13018635722E+03  0.51493693464E+02 -0.31433627721E+03  0.35307823204E+03  0.79100282521E+02 0.  0.
         -6    2    1    2    0  502  0.22249200264E+03 -0.22947996044E+03 -0.15991909394E+03  0.39686624239E+03  0.17252522789E+03 0.  0.
        -24    2    5    5    0    0  0.18514965205E+03 -0.10452228112E+03 -0.59478459760E+02  0.23218690622E+03  0.71887212615E+02 0.  0.
          5    1    3    3  501    0 -0.92305645424E+02  0.17798626698E+03 -0.52399186227E+03  0.56106060736E+03  0.47000000000E+01 0. -1.
        -13    1    4    4    0    0 -0.93706079548E+02  0.19453465966E+02 -0.12394654398E+03  0.15659505882E+03  0.00000000000E+00 0.  1.
         14    1    4    4    0    0 -0.36480277668E+02  0.32040227498E+02 -0.19038973323E+03  0.19648317322E+03  0.00000000000E+00 0. -1.
         -5    1    5    5    0  502  0.37342350592E+02 -0.12495767932E+03 -0.10044063418E+03  0.16467933617E+03  0.47000000000E+01 0.  1.
         13    1    6    6    0    0 -0.47371205427E+01  0.14598649677E+01 -0.68376497662E+01  0.84454112443E+01  0.00000000000E+00 0. -1.
        -14    1    6    6    0    0  0.18988677259E+03 -0.10598214609E+03 -0.52640809994E+02  0.22374149497E+03  0.00000000000E+00 0.  1.
<mgrwt>
<rscale>  2 0.36417493E+03</rscale>
<asrwt>0</asrwt>
<pdfrwt beam="1">  1       21 0.24058297E-01 0.36449382E+03</pdfrwt>
<pdfrwt beam="2">  1       21 0.17763479E+00 0.36449382E+03</pdfrwt>
<totfact> 0.27342896E+03</totfact>
</mgrwt>
</event>
<event>
12    1  0.1039378E-001  0.2057621E+03  0.7546771E-02  0.1145266E+00
         21   -1    0    0  503  502  0.00000000000E+00  0.00000000000E+00  0.17896312822E+03  0.17896312822E+03  0.00000000000E+00 0. -1.
         21   -1    0    0  501  503 -0.00000000000E+00 -0.00000000000E+00 -0.58309258242E+03  0.58309258242E+03  0.00000000000E+00 0. -1.
          6    2    1    2  501    0 -0.10377273886E+03 -0.34696468116E+02 -0.49621749743E+03  0.53662670598E+03  0.17252185540E+03 0.  0.
         24    2    3    3    0    0 -0.13081857566E+02  0.31644830982E+02 -0.27197303382E+03  0.28576085862E+03  0.80730458109E+02 0.  0.
         -6    2    1    2    0  502  0.10377273886E+03  0.34696468116E+02  0.92088043234E+02  0.22542900466E+03  0.17425671351E+03 0.  0.
        -24    2    5    5    0    0  0.51092477317E+01 -0.29187930797E+02  0.56649658046E+02  0.10257270628E+03  0.80211823323E+02 0.  0.
          5    1    3    3  501    0 -0.90690881290E+02 -0.66341299098E+02 -0.22424446360E+03  0.25086584736E+03  0.47000000000E+01 0. -1.
        -11    1    4    4    0    0 -0.32976023961E+02  0.49946959710E+02 -0.16845114544E+03  0.17876774133E+03  0.00000000000E+00 0.  1.
         12    1    4    4    0    0  0.19894166396E+02 -0.18302128728E+02 -0.10352188839E+03  0.10699311729E+03  0.00000000000E+00 0. -1.
         -5    1    5    5    0  502  0.98663491124E+02  0.63884398913E+02  0.35438385188E+02  0.12285629837E+03  0.47000000000E+01 0.  1.
         11    1    6    6    0    0  0.34804027329E+02 -0.40669237260E+02  0.32615684390E+02  0.62682454051E+02  0.00000000000E+00 0. -1.
        -12    1    6    6    0    0 -0.29694779597E+02  0.11481306463E+02  0.24033973656E+02  0.39890252232E+02  0.00000000000E+00 0.  1.
<mgrwt>
<rscale>  2 0.20539430E+03</rscale>
<asrwt>0</asrwt>
<pdfrwt beam="1">  1       21 0.27532789E-01 0.20576207E+03</pdfrwt>
<pdfrwt beam="2">  1       21 0.89706550E-01 0.20576207E+03</pdfrwt>
<totfact> 0.13207959E+04</totfact>
</mgrwt>
</event>
<event>
12    1  0.1039378E-001  0.2270291E+03  0.7546771E-02  0.1129028E+00
         21   -1    0    0  501  502  0.00000000000E+00  0.00000000000E+00  0.53027390043E+03  0.53027390043E+03  0.00000000000E+00 0. -1.
         21   -1    0    0  502  503 -0.00000000000E+00 -0.00000000000E+00 -0.10062181179E+03  0.10062181179E+03  0.00000000000E+00 0.  1.
         -6    2    1    2    0  503  0.18361426350E+02  0.14320162987E+03  0.15054490223E+03  0.27111381244E+03  0.17319088583E+03 0.  0.
        -24    2    3    3    0    0  0.73287430930E+02  0.56851387630E+02  0.81968432419E+02  0.14783343069E+03  0.80825562222E+02 0.  0.
          6    2    1    2  501    0 -0.18361426350E+02 -0.14320162987E+03  0.27910718641E+03  0.35978189979E+03  0.17520943220E+03 0.  0.
         24    2    5    5    0    0 -0.71080542222E+02 -0.13580757168E+03  0.20336545582E+03  0.26708412727E+03  0.80500201326E+02 0.  0.
          5    1    5    5  501    0  0.52719115872E+02 -0.73940581835E+01  0.75741730597E+02  0.92697772511E+02  0.47000000000E+01 0. -1.
        -13    1    6    6    0    0 -0.72142660191E+02 -0.11202105854E+03  0.11642060784E+03  0.17693795214E+03  0.00000000000E+00 0.  1.
         14    1    6    6    0    0  0.10621179697E+01 -0.23786513137E+02  0.86944847979E+02  0.90146175138E+02  0.00000000000E+00 0. -1.
         -5    1    3    3    0  503 -0.54926004580E+02  0.86350242236E+02  0.68576469806E+02  0.12328038175E+03  0.47000000000E+01 0.  1.
         11    1    4    4    0    0 -0.11298254077E+02  0.26683294079E+02  0.38155651651E+02  0.47911402412E+02  0.00000000000E+00 0. -1.
        -12    1    4    4    0    0  0.84585685007E+02  0.30168093551E+02  0.43812780767E+02  0.99922028278E+02  0.00000000000E+00 0.  1.
<mgrwt>
<rscale>  2 0.22663952E+03</rscale>
<asrwt>0</asrwt>
<pdfrwt beam="1">  1       21 0.81580598E-01 0.22702906E+03</pdfrwt>
<pdfrwt beam="2">  1       21 0.15480279E-01 0.22702906E+03</pdfrwt>
<totfact> 0.47928416E+04</totfact>
</mgrwt>
</event>
<event>
12    1  0.1039378E-001  0.1998799E+03  0.7546771E-02  0.1150235E+00
         21   -1    0    0  501  502  0.00000000000E+00  0.00000000000E+00  0.44481476820E+03  0.44481476820E+03  0.00000000000E+00 0. -1.
         21   -1    0    0  502  503 -0.00000000000E+00 -0.00000000000E+00 -0.10939749115E+04  0.10939749115E+04  0.00000000000E+00 0. -1.
         -6    2    1    2    0  503  0.26013681219E+02 -0.98573181999E+02 -0.10618963902E+04  0.10802014422E+04  0.16975814699E+03 0.  0.
        -24    2    3    3    0    0  0.48907155984E+02 -0.58025107780E+02 -0.35817811843E+03  0.37492862018E+03  0.80753220793E+02 0.  0.
          6    2    1    2  501    0 -0.26013681219E+02  0.98573181999E+02  0.41273624693E+03  0.45858823744E+03  0.17192608345E+03 0.  0.
         24    2    5    5    0    0 -0.76252435203E+02  0.30284625399E+02  0.21180334598E+03  0.24045208719E+03  0.78898393222E+02 0.  0.
          5    1    5    5  501    0  0.50238753984E+02  0.68288556601E+02  0.20093290095E+03  0.21813615025E+03  0.47000000000E+01 0. -1.
        -13    1    6    6    0    0 -0.28039280353E+02 -0.26993386346E+02  0.75393160801E+02  0.84846760956E+02  0.00000000000E+00 0.  1.
         14    1    6    6    0    0 -0.48213154850E+02  0.57278011745E+02  0.13641018518E+03  0.15560532623E+03  0.00000000000E+00 0. -1.
         -5    1    3    3    0  503 -0.22893474765E+02 -0.40548074220E+02 -0.70371827176E+03  0.70527282205E+03  0.47000000000E+01 0.  1.
         13    1    4    4    0    0  0.28639716291E+02 -0.64117699329E+02 -0.33954753774E+03  0.34673310067E+03  0.00000000000E+00 0. -1.
        -14    1    4    4    0    0  0.20267439693E+02  0.60925915491E+01 -0.18630580692E+02  0.28195519509E+02  0.00000000000E+00 0.  1.
<mgrwt>
<rscale>  2 0.19941282E+03</rscale>
<asrwt>0</asrwt>
<pdfrwt beam="1">  1       21 0.68433041E-01 0.19987987E+03</pdfrwt>
<pdfrwt beam="2">  1       21 0.16830383E+00 0.19987987E+03</pdfrwt>
<totfact> 0.42355859E+02</totfact>
</mgrwt>
</event>
<event>
11    1  0.1039378E-001  0.1942135E+03  0.7546771E-02  0.1156110E+00
         21   -1    0    0  501  502  0.00000000000E+00  0.00000000000E+00  0.55062709320E+02  0.55062709320E+02  0.00000000000E+00 0. -1.
         21   -1    0    0  502  503 -0.00000000000E+00 -0.00000000000E+00 -0.66528857351E+03  0.66528857351E+03  0.00000000000E+00 0. -1.
         -6    2    1    2    0  503 -0.60021993469E+02  0.71761855945E+02 -0.32067137367E+03  0.37169575529E+03  0.16301902018E+03 0.  0.
        -24    2    3    3    0    0 -0.82261202434E+02  0.54926574198E+01 -0.16860401508E+03  0.20426588748E+03  0.80623595633E+02 0.  0.
          6    2    1    2  501    0  0.60021993469E+02 -0.71761855945E+02 -0.28955449052E+03  0.34865552754E+03  0.17019538841E+03 0.  0.
          5    1    5    5  501    0  0.10071415262E+02 -0.10762076381E+03 -0.10850392838E+03  0.15322811322E+03  0.47000000000E+01 0. -1.
        -11    1    5    5    0    0  0.38685481029E+02  0.26882804517E+02 -0.17218654971E+03  0.17851459190E+03  0.00000000000E+00 0.  1.
         12    1    5    5    0    0  0.11265097178E+02  0.89761033480E+01 -0.88640124340E+01  0.16912822419E+02  0.00000000000E+00 0. -1.
         -5    1    3    3    0  503  0.22239208964E+02  0.66269198525E+02 -0.15206735859E+03  0.16742986781E+03  0.47000000000E+01 0.  1.
         13    1    4    4    0    0 -0.36528857454E+02  0.14655102915E+02 -0.14823444684E+03  0.15337072960E+03  0.00000000000E+00 0. -1.
        -14    1    4    4    0    0 -0.45732344979E+02 -0.91624454948E+01 -0.20369568244E+02  0.50895157876E+02  0.00000000000E+00 0.  1.
<mgrwt>
<rscale>  2 0.19262994E+03</rscale>
<asrwt>0</asrwt>
<pdfrwt beam="1">  1       21 0.84711861E-02 0.19421348E+03</pdfrwt>
<pdfrwt beam="2">  1       21 0.10235209E+00 0.19421348E+03</pdfrwt>
<totfact> 0.84298509E+04</totfact>
</mgrwt>
</event>
<event>
12    1  0.1039378E-001  0.2510999E+03  0.7546771E-02  0.1113028E+00
         21   -1    0    0  501  502  0.00000000000E+00  0.00000000000E+00  0.75866085582E+02  0.75866085582E+02  0.00000000000E+00 0.  1.
         21   -1    0    0  502  503 -0.00000000000E+00 -0.00000000000E+00 -0.15244545686E+04  0.15244545686E+04  0.00000000000E+00 0.  1.
         -6    2    1    2    0  503  0.16885663573E+03  0.61641904746E+02 -0.12652426683E+04  0.12894077537E+04  0.17152567634E+03 0.  0.
        -24    2    3    3    0    0  0.88800441299E+02  0.58108499286E+02 -0.42897519720E+03  0.44929653933E+03  0.81151367035E+02 0.  0.
          6    2    1    2  501    0 -0.16885663573E+03 -0.61641904746E+02 -0.18334581469E+03  0.31091290050E+03  0.17532500130E+03 0.  0.
         24    2    5    5    0    0 -0.18435469512E+03 -0.85583486598E+02 -0.14267261856E+03  0.26101512430E+03  0.80388010520E+02 0.  0.
          5    1    5    5  501    0  0.15498059387E+02  0.23941581852E+02 -0.40673196124E+02  0.49897776196E+02  0.47000000000E+01 0. -1.
        -11    1    6    6    0    0 -0.81837430216E+02 -0.71931418607E+01 -0.23734736664E+02  0.85512829439E+02  0.00000000000E+00 0.  1.
         12    1    6    6    0    0 -0.10251726490E+03 -0.78390344737E+02 -0.11893788190E+03  0.17550229486E+03  0.00000000000E+00 0. -1.
         -5    1    3    3    0  503  0.80056194434E+02  0.35334054591E+01 -0.83626747115E+03  0.84011121438E+03  0.47000000000E+01 0.  1.
         13    1    4    4    0    0  0.17874574823E+02  0.31997312422E+02 -0.45409069049E+02  0.58355051018E+02  0.00000000000E+00 0. -1.
        -14    1    4    4    0    0  0.70925866476E+02  0.26111186864E+02 -0.38356612815E+03  0.39094148831E+03  0.00000000000E+00 0.  1.
<mgrwt>
<rscale>  2 0.25043778E+03</rscale>
<asrwt>0</asrwt>
<pdfrwt beam="1">  1       21 0.11671707E-01 0.25109987E+03</pdfrwt>
<pdfrwt beam="2">  1       21 0.23453145E+00 0.25109987E+03</pdfrwt>
<totfact> 0.48072729E+03</totfact>
</mgrwt>
</event>
<event>
12    1  0.1039378E-001  0.2203432E+03  0.7546771E-02  0.1133994E+00
         21   -1    0    0  503  502  0.00000000000E+00  0.00000000000E+00  0.22519370764E+02  0.22519370764E+02  0.00000000000E+00 0. -1.
         21   -1    0    0  501  503 -0.00000000000E+00 -0.00000000000E+00 -0.21640668986E+04  0.21640668986E+04  0.00000000000E+00 0.  1.
          6    2    1    2  501    0  0.13051540691E+03 -0.37777154787E+02 -0.11981499177E+04  0.12182423124E+04  0.17346389114E+03 0.  0.
         24    2    3    3    0    0  0.12862282201E+03  0.86195157258E+01 -0.10609398835E+04  0.10733115827E+04  0.98925177960E+02 0.  0.
         -6    2    1    2    0  502 -0.13051540691E+03  0.37777154787E+02 -0.94339761006E+03  0.96834395690E+03  0.17096661470E+03 0.  0.
        -24    2    5    5    0    0 -0.62603706740E+02  0.25511084453E+02 -0.82231248955E+03  0.82889449684E+03  0.79361306078E+02 0.  0.
          5    1    3    3  501    0  0.18925849080E+01 -0.46396670513E+02 -0.13721003424E+03  0.14493072969E+03  0.47000000000E+01 0. -1.
        -13    1    4    4    0    0  0.41117562926E+02  0.19635144787E+02 -0.70994165980E+03  0.71140238488E+03  0.00000000000E+00 0.  1.
         14    1    4    4    0    0  0.87505259081E+02 -0.11015629061E+02 -0.35099822369E+03  0.36190919785E+03  0.00000000000E+00 0. -1.
         -5    1    5    5    0  502 -0.67911700175E+02  0.12266070335E+02 -0.12108512051E+03  0.13944946006E+03  0.47000000000E+01 0.  1.
         13    1    6    6    0    0  0.84156685795E+01  0.20266785060E+02 -0.73569905332E+02  0.76773022768E+02  0.00000000000E+00 0. -1.
        -14    1    6    6    0    0 -0.71019375319E+02  0.52442993926E+01 -0.74874258422E+03  0.75212147408E+03  0.00000000000E+00 0.  1.
<mgrwt>
<rscale>  2 0.21985138E+03</rscale>
<asrwt>0</asrwt>
<pdfrwt beam="1">  1       21 0.34645179E-02 0.22034316E+03</pdfrwt>
<pdfrwt beam="2">  1       21 0.33293343E+00 0.22034316E+03</pdfrwt>
<totfact> 0.10644956E+04</totfact>
</mgrwt>
</event>
<event>
12    1  0.1039378E-001  0.1980877E+03  0.7546771E-02  0.1151760E+00
         21   -1    0    0  503  502  0.00000000000E+00  0.00000000000E+00  0.34156617775E+03  0.34156617775E+03  0.00000000000E+00 0.  1.
         21   -1    0    0  501  503 -0.00000000000E+00 -0.00000000000E+00 -0.12240712559E+03  0.12240712559E+03  0.00000000000E+00 0.  1.
          6    2    1    2  501    0 -0.91256467165E+02 -0.27867964182E+02  0.17059018494E+03  0.26001821607E+03  0.17147622361E+03 0.  0.
         24    2    3    3    0    0 -0.66444693034E+01 -0.51768376895E+02  0.41289028388E+02  0.10358516651E+03  0.79378769431E+02 0.  0.
         -6    2    1    2    0  502  0.91256467165E+02  0.27867964182E+02  0.48568867223E+02  0.20395508727E+03  0.17359255898E+03 0.  0.
        -24    2    5    5    0    0 -0.15760204517E+02 -0.14481099165E+02  0.25916001930E+02  0.86561503586E+02  0.79769470774E+02 0.  0.
          5    1    3    3  501    0 -0.84611997862E+02  0.23900412713E+02  0.12930115655E+03  0.15643304957E+03  0.47000000000E+01 0. -1.
        -13    1    4    4    0    0 -0.16890007282E+02 -0.70865634885E+02  0.27338832605E+02  0.77811453667E+02  0.00000000000E+00 0.  1.
         14    1    4    4    0    0  0.10245537979E+02  0.19097257989E+02  0.13950195783E+02  0.25773712840E+02  0.00000000000E+00 0. -1.
         -5    1    5    5    0  502  0.10701667168E+03  0.42349063347E+02  0.22652865293E+02  0.11739358368E+03  0.47000000000E+01 0.  1.
         13    1    6    6    0    0  0.28640577381E+02 -0.63979584150E+01  0.29087727707E+02  0.41319637555E+02  0.00000000000E+00 0. -1.
        -14    1    6    6    0    0 -0.44400781898E+02 -0.80831407497E+01 -0.31717257769E+01  0.45241866030E+02  0.00000000000E+00 0.  1.
<mgrwt>
<rscale>  2 0.19762309E+03</rscale>
<asrwt>0</asrwt>
<pdfrwt beam="1">  1       21 0.52548642E-01 0.19808771E+03</pdfrwt>
<pdfrwt beam="2">  1       21 0.18831866E-01 0.19808771E+03</pdfrwt>
<totfact> 0.88465812E+04</totfact>
</mgrwt>
</event>
<event>
12    1  0.1039378E-001  0.1791305E+03  0.7546771E-02  0.1169946E+00
         21   -1    0    0  503  502  0.00000000000E+00  0.00000000000E+00  0.24914298566E+03  0.24914298566E+03  0.00000000000E+00 0. -1.
         21   -1    0    0  501  503 -0.00000000000E+00 -0.00000000000E+00 -0.40102406820E+03  0.40102406820E+03  0.00000000000E+00 0. -1.
          6    2    1    2  501    0  0.39530533829E+02  0.46851958981E-01 -0.34596299220E+03  0.38958713111E+03  0.17471426804E+03 0.  0.
         24    2    3    3    0    0 -0.32362316465E+02  0.14792670817E+02 -0.22905732135E+03  0.25147468788E+03  0.97499331007E+02 0.  0.
         -6    2    1    2    0  502 -0.39530533829E+02 -0.46851958981E-01  0.19408190965E+03  0.26057992275E+03  0.16932643971E+03 0.  0.
        -24    2    5    5    0    0 -0.50676672972E+02 -0.32310043578E+02  0.49261119915E+02  0.11171655891E+03  0.80261245321E+02 0.  0.
          5    1    3    3  501    0  0.71892850294E+02 -0.14745818858E+02 -0.11690567085E+03  0.13811244323E+03  0.47000000000E+01 0. -1.
        -11    1    4    4    0    0  0.33314712622E+02 -0.62886837503E+01 -0.60536632007E+02  0.69383726011E+02  0.00000000000E+00 0.  1.
         12    1    4    4    0    0 -0.65677029087E+02  0.21081354567E+02 -0.16852068934E+03  0.18209096187E+03  0.00000000000E+00 0. -1.
         -5    1    5    5    0  502  0.11146139143E+02  0.32263191619E+02  0.14482078974E+03  0.14886336383E+03  0.47000000000E+01 0.  1.
         11    1    6    6    0    0 -0.22225708020E+02 -0.54152227832E+02  0.48209624266E+02  0.75832801267E+02  0.00000000000E+00 0. -1.
        -12    1    6    6    0    0 -0.28450964952E+02  0.21842184254E+02  0.10514956498E+01  0.35883757646E+02  0.00000000000E+00 0.  1.
<mgrwt>
<rscale>  2 0.17780310E+03</rscale>
<asrwt>0</asrwt>
<pdfrwt beam="1">  1       21 0.38329690E-01 0.17913051E+03</pdfrwt>
<pdfrwt beam="2">  1       21 0.61696010E-01 0.17913051E+03</pdfrwt>
<totfact> 0.16154554E+04</totfact>
</mgrwt>
</event>
<event>
12    1  0.1039378E-001  0.2653848E+03  0.7546771E-02  0.1104031E+00
         21   -1    0    0  503  502  0.00000000000E+00  0.00000000000E+00  0.24186549243E+03  0.24186549243E+03  0.00000000000E+00 0.  1.
         21   -1    0    0  501  503 -0.00000000000E+00 -0.00000000000E+00 -0.30042551344E+03  0.30042551344E+03  0.00000000000E+00 0.  1.
          6    2    1    2  501    0  0.62337064269E+02  0.19105661162E+03 -0.78323714588E+02  0.27617130374E+03  0.17247448018E+03 0.  0.
         24    2    3    3    0    0  0.21664958835E+02  0.81675539280E+02  0.26184854187E+02  0.11944679992E+03  0.80259748725E+02 0.  0.
         -6    2    1    2    0  502 -0.62337064269E+02 -0.19105661162E+03  0.19763693581E+02  0.26611970213E+03  0.17332211011E+03 0.  0.
        -24    2    5    5    0    0 -0.94184417801E+02 -0.74345965393E+02  0.12087887803E+02  0.14480755573E+03  0.80156621926E+02 0.  0.
          5    1    3    3  501    0  0.40672105434E+02  0.10938107234E+03 -0.10450856877E+03  0.15672450381E+03  0.47000000000E+01 0. -1.
        -13    1    4    4    0    0  0.18668207279E+02  0.94443627132E+02  0.74246568816E+01  0.96556854747E+02  0.00000000000E+00 0.  1.
         14    1    4    4    0    0  0.29967515562E+01 -0.12768087852E+02  0.18760197305E+02  0.22889945177E+02  0.00000000000E+00 0. -1.
         -5    1    5    5    0  502  0.31847353532E+02 -0.11671064623E+03  0.76758057776E+01  0.12131214640E+03  0.47000000000E+01 0.  1.
         13    1    6    6    0    0 -0.65072885377E+01  0.11452117015E+02  0.17633106433E+02  0.22009594061E+02  0.00000000000E+00 0. -1.
        -14    1    6    6    0    0 -0.87677129263E+02 -0.85798082408E+02 -0.55452186299E+01  0.12279796167E+03  0.00000000000E+00 0.  1.
<mgrwt>
<rscale>  2 0.26524649E+03</rscale>
<asrwt>0</asrwt>
<pdfrwt beam="1">  1       21 0.37210076E-01 0.26538480E+03</pdfrwt>
<pdfrwt beam="2">  1       21 0.46219310E-01 0.26538480E+03</pdfrwt>
<totfact> 0.30161051E+04</totfact>
</mgrwt>
</event>
<event>
12    1  0.1039378E-001  0.2055428E+03  0.7546771E-02  0.1145584E+00
         21   -1    0    0  503  502  0.00000000000E+00  0.00000000000E+00  0.31573595866E+03  0.31573595866E+03  0.00000000000E+00 0.  1.
         21   -1    0    0  501  503 -0.00000000000E+00 -0.00000000000E+00 -0.16655370884E+03  0.16655370884E+03  0.00000000000E+00 0.  1.
          6    2    1    2  501    0 -0.91504460958E+02 -0.60401903187E+02 -0.34891565467E+02  0.20637116621E+03  0.17131894413E+03 0.  0.
         24    2    3    3    0    0 -0.75656888273E+02 -0.59436141366E+01  0.36323951537E+02  0.11520872510E+03  0.78704063375E+02 0.  0.
         -6    2    1    2    0  502  0.91504460958E+02  0.60401903187E+02  0.18407381529E+03  0.27591850130E+03  0.17385739445E+03 0.  0.
        -24    2    5    5    0    0  0.46118267957E+02  0.33665947143E+02  0.19044675825E+02  0.10262272890E+03  0.83116990884E+02 0.  0.
          5    1    3    3  501    0 -0.15847572685E+02 -0.54458289051E+02 -0.71215517004E+02  0.91162441107E+02  0.47000000000E+01 0. -1.
        -11    1    4    4    0    0 -0.32312766335E+02  0.24505533270E+02  0.46040623870E+02  0.61354503301E+02  0.00000000000E+00 0.  1.
         12    1    4    4    0    0 -0.43344121938E+02 -0.30449147406E+02 -0.97166723322E+01  0.53854221799E+02  0.00000000000E+00 0. -1.
         -5    1    5    5    0  502  0.45386193000E+02  0.26735956045E+02  0.16502913946E+03  0.17329577240E+03  0.47000000000E+01 0.  1.
         13    1    6    6    0    0  0.36341031784E+01 -0.24406653453E+02 -0.77157624011E+01  0.25853905471E+02  0.00000000000E+00 0. -1.
        -14    1    6    6    0    0  0.42484164779E+02  0.58072600596E+02  0.26760438226E+02  0.76768823431E+02  0.00000000000E+00 0.  1.
<mgrwt>
<rscale>  2 0.20500505E+03</rscale>
<asrwt>0</asrwt>
<pdfrwt beam="1">  1       21 0.48574763E-01 0.20554282E+03</pdfrwt>
<pdfrwt beam="2">  1       21 0.25623647E-01 0.20554282E+03</pdfrwt>
<totfact> 0.58122364E+04</totfact>
</mgrwt>
</event>
<event>
12    1  0.1039378E-001  0.2097586E+03  0.7546771E-02  0.1142161E+00
         21   -1    0    0  503  502  0.00000000000E+00  0.00000000000E+00  0.20314768107E+03  0.20314768107E+03  0.00000000000E+00 0. -1.
         21   -1    0    0  501  503 -0.00000000000E+00 -0.00000000000E+00 -0.53071060778E+03  0.53071060778E+03  0.00000000000E+00 0.  1.
          6    2    1    2  501    0 -0.10917436788E+03 -0.50642604337E+02 -0.44733517293E+03  0.49407231007E+03  0.17179922776E+03 0.  0.
         24    2    3    3    0    0 -0.46203808495E+01 -0.48109064329E+02 -0.13586991341E+03  0.16548342876E+03  0.81168354890E+02 0.  0.
         -6    2    1    2    0  502  0.10917436788E+03  0.50642604337E+02  0.11977224622E+03  0.23978597877E+03  0.16931688833E+03 0.  0.
        -24    2    5    5    0    0  0.47370730914E+02  0.82306874576E+02  0.11128494926E+03  0.16966865023E+03  0.85934295767E+02 0.  0.
          5    1    3    3  501    0 -0.10455398703E+03 -0.25335400078E+01 -0.31146525952E+03  0.32858888131E+03  0.47000000000E+01 0. -1.
        -13    1    4    4    0    0  0.37132867537E+02 -0.17995760851E+02 -0.76366983280E+02  0.86802150868E+02  0.00000000000E+00 0.  1.
         14    1    4    4    0    0 -0.41753248386E+02 -0.30113303479E+02 -0.59502930132E+02  0.78681277897E+02  0.00000000000E+00 0. -1.
         -5    1    5    5    0  502  0.61803636969E+02 -0.31664270239E+02  0.84872969555E+01  0.70117328543E+02  0.47000000000E+01 0.  1.
         13    1    6    6    0    0  0.42747599467E+02  0.27089187526E+02  0.10147693063E+03  0.11339642318E+03  0.00000000000E+00 0. -1.
        -14    1    6    6    0    0  0.46231314474E+01  0.55217687050E+02  0.98080186368E+01  0.56272227050E+02  0.00000000000E+00 0.  1.
<mgrwt>
<rscale>  2 0.20924974E+03</rscale>
<asrwt>0</asrwt>
<pdfrwt beam="1">  1       21 0.31253490E-01 0.20975865E+03</pdfrwt>
<pdfrwt beam="2">  1       21 0.81647784E-01 0.20975865E+03</pdfrwt>
<totfact> 0.12774820E+04</totfact>
</mgrwt>
</event>
<event>
12    1  0.1039378E-001  0.2073787E+03  0.7546771E-02  0.1143686E+00
         21   -1    0    0  501  502  0.00000000000E+00  0.00000000000E+00  0.11864529109E+03  0.11864529109E+03  0.00000000000E+00 0. -1.
         21   -1    0    0  502  503 -0.00000000000E+00 -0.00000000000E+00 -0.49290790942E+03  0.49290790942E+03  0.00000000000E+00 0. -1.
         -6    2    1    2    0  503 -0.10835932814E+03  0.35096052187E+02 -0.34452554635E+03  0.40205331325E+03  0.17313444989E+03 0.  0.
        -24    2    3    3    0    0 -0.14322314341E+03  0.32462640048E+02 -0.30699687438E+03  0.35054688943E+03  0.84079420823E+02 0.  0.
          6    2    1    2  501    0  0.10835932814E+03 -0.35096052187E+02 -0.29737071987E+02  0.20949988726E+03  0.17329867985E+03 0.  0.
         24    2    5    5    0    0  0.35272315576E+02 -0.33588555031E+02  0.45281635910E+02  0.10464818013E+03  0.80799058029E+02 0.  0.
          5    1    5    5  501    0  0.73087012566E+02 -0.15074971567E+01 -0.75018707898E+02  0.10485170713E+03  0.47000000000E+01 0. -1.
        -11    1    6    6    0    0  0.76326787923E+01  0.26042910522E+02  0.51013646542E+01  0.27613672253E+02  0.00000000000E+00 0.  1.
         12    1    6    6    0    0  0.27639636783E+02 -0.59631465552E+02  0.40180271256E+02  0.77034507875E+02  0.00000000000E+00 0. -1.
         -5    1    3    3    0  503  0.34863815273E+02  0.26334121392E+01 -0.37528671971E+02  0.51506423821E+02  0.47000000000E+01 0.  1.
         11    1    4    4    0    0 -0.71902888443E+02  0.11959518723E+02 -0.65817597233E+02  0.98209019749E+02  0.00000000000E+00 0. -1.
        -12    1    4    4    0    0 -0.71320254972E+02  0.20503121325E+02 -0.24117927714E+03  0.25233786968E+03  0.00000000000E+00 0.  1.
<mgrwt>
<rscale>  2 0.20734435E+03</rscale>
<asrwt>0</asrwt>
<pdfrwt beam="1">  1       21 0.18253122E-01 0.20737866E+03</pdfrwt>
<pdfrwt beam="2">  1       21 0.75831986E-01 0.20737866E+03</pdfrwt>
<totfact> 0.42119644E+04</totfact>
</mgrwt>
</event>
<event>
12    1  0.1039378E-001  0.1859459E+03  0.7546771E-02  0.1162404E+00
         21   -1    0    0  503  502  0.00000000000E+00  0.00000000000E+00  0.44811213047E+03  0.44811213047E+03  0.00000000000E+00 0.  1.
         21   -1    0    0  501  503 -0.00000000000E+00 -0.00000000000E+00 -0.77343249350E+02  0.77343249350E+02  0.00000000000E+00 0.  1.
          6    2    1    2  501    0 -0.58014834141E+02 -0.33399955634E+02  0.16172159035E+03  0.24567573969E+03  0.17239900889E+03 0.  0.
         24    2    3    3    0    0  0.10935144592E+02 -0.30308588792E+00  0.14681456142E+03  0.16761286845E+03  0.80124209668E+02 0.  0.
         -6    2    1    2    0  502  0.58014834141E+02  0.33399955634E+02  0.20904729076E+03  0.27977964013E+03  0.17347795030E+03 0.  0.
        -24    2    5    5    0    0 -0.18440667536E+02 -0.24054407786E+02  0.70447922497E+02  0.11132097311E+03  0.80689382920E+02 0.  0.
          5    1    3    3  501    0 -0.68949978733E+02 -0.33096869746E+02  0.14907028930E+02  0.78062871237E+02  0.47000000000E+01 0. -1.
        -11    1    4    4    0    0 -0.26511336521E+01  0.62369971222E-01 -0.99311053165E+01  0.10279068657E+02  0.00000000000E+00 0.  1.
         12    1    4    4    0    0  0.13586278244E+02 -0.36545585914E+00  0.15674566674E+03  0.15733379979E+03  0.00000000000E+00 0. -1.
         -5    1    5    5    0  502  0.76455501677E+02  0.57454363419E+02  0.13859936827E+03  0.16845866703E+03  0.47000000000E+01 0.  1.
         11    1    6    6    0    0 -0.17282512906E+02 -0.52208370110E+02  0.59682755996E+02  0.81156826732E+02  0.00000000000E+00 0. -1.
        -12    1    6    6    0    0 -0.11581546301E+01  0.28153962324E+02  0.10765166501E+02  0.30164146374E+02  0.00000000000E+00 0.  1.
<mgrwt>
<rscale>  2 0.18569384E+03</rscale>
<asrwt>0</asrwt>
<pdfrwt beam="1">  1       21 0.68940326E-01 0.18594590E+03</pdfrwt>
<pdfrwt beam="2">  1       21 0.11898962E-01 0.18594590E+03</pdfrwt>
<totfact> 0.11444240E+05</totfact>
</mgrwt>
</event>
<event>
12    1  0.1039378E-001  0.2291441E+03  0.7546771E-02  0.1127497E+00
         21   -1    0    0  501  502  0.00000000000E+00  0.00000000000E+00  0.41799335834E+03  0.41799335834E+03  0.00000000000E+00 0. -1.
         21   -1    0    0  502  503 -0.00000000000E+00 -0.00000000000E+00 -0.14782085376E+03  0.14782085376E+03  0.00000000000E+00 0. -1.
         -6    2    1    2    0  503  0.79196972228E+02  0.12598924807E+03  0.24699828701E+03  0.33692010047E+03  0.17424565784E+03 0.  0.
        -24    2    3    3    0    0 -0.16390043653E+02  0.98042796283E+02  0.15879512855E+03  0.20380447804E+03  0.80245554299E+02 0.  0.
          6    2    1    2  501    0 -0.79196972228E+02 -0.12598924807E+03  0.23174217575E+02  0.22889411163E+03  0.17236594483E+03 0.  0.
         24    2    5    5    0    0  0.18805134637E+02 -0.62824569184E+02  0.38762115811E+02  0.11116874401E+03  0.80965600359E+02 0.  0.
          5    1    5    5  501    0 -0.98002106865E+02 -0.63164678886E+02 -0.15587898236E+02  0.11772536761E+03  0.47000000000E+01 0. -1.
        -13    1    6    6    0    0  0.29341849249E+02 -0.36734461680E+02 -0.15949089192E+02  0.49646130145E+02  0.00000000000E+00 0.  1.
         14    1    6    6    0    0 -0.10536714612E+02 -0.26090107504E+02  0.54711205003E+02  0.61522613869E+02  0.00000000000E+00 0. -1.
         -5    1    3    3    0  503  0.95587015881E+02  0.27946451787E+02  0.88203158457E+02  0.13311562243E+03  0.47000000000E+01 0.  1.
         11    1    4    4    0    0  0.32677972906E+02  0.41888153547E+02  0.68943595756E+02  0.87038420922E+02  0.00000000000E+00 0. -1.
        -12    1    4    4    0    0 -0.49068016559E+02  0.56154642736E+02  0.89851532793E+02  0.11676605712E+03  0.00000000000E+00 0.  1.
<mgrwt>
<rscale>  2 0.22878670E+03</rscale>
<asrwt>0</asrwt>
<pdfrwt beam="1">  1       21 0.64306670E-01 0.22914406E+03</pdfrwt>
<pdfrwt beam="2">  1       21 0.22741670E-01 0.22914406E+03</pdfrwt>
<totfact> 0.39725837E+04</totfact>
</mgrwt>
</event>
<event>
11    1  0.1039378E-001  0.1781752E+03  0.7546771E-02  0.1170152E+00
         21   -1    0    0  501  502  0.00000000000E+00  0.00000000000E+00  0.25227223140E+03  0.25227223140E+03  0.00000000000E+00 0.  1.
         21   -1    0    0  502  503 -0.00000000000E+00 -0.00000000000E+00 -0.12579580499E+04  0.12579580499E+04  0.00000000000E+00 0.  1.
         -6    2    1    2    0  503 -0.23137581609E+02 -0.18719592354E+02 -0.12200317177E+04  0.12329735618E+04  0.17567196978E+03 0.  0.
        -24    2    3    3    0    0 -0.52008795669E+02  0.46706564523E+02 -0.75025396769E+03  0.75776060590E+03  0.80210359828E+02 0.  0.
          6    2    1    2  501    0  0.23137581609E+02  0.18719592354E+02  0.21434589921E+03  0.27725671953E+03  0.17332441603E+03 0.  0.
          5    1    5    5  501    0 -0.21390790911E+01  0.68554298604E+02  0.19496923276E+02  0.71459691671E+02  0.47000000000E+01 0. -1.
        -11    1    5    5    0    0  0.12237268290E+02 -0.30456143536E+02  0.55302878743E+02  0.64309686763E+02  0.00000000000E+00 0.  1.
         12    1    5    5    0    0  0.13039392410E+02 -0.19378562714E+02  0.13954609719E+03  0.14148734109E+03  0.00000000000E+00 0. -1.
         -5    1    3    3    0  503  0.28871214060E+02 -0.65426156877E+02 -0.46977775004E+03  0.47521295588E+03  0.47000000000E+01 0.  1.
         11    1    4    4    0    0 -0.35690717943E+02  0.21680094869E+02 -0.12495427955E+03  0.13174758380E+03  0.00000000000E+00 0. -1.
        -12    1    4    4    0    0 -0.16318077726E+02  0.25026469653E+02 -0.62529968814E+03  0.62601302210E+03  0.00000000000E+00 0.  1.
<mgrwt>
<rscale>  2 0.17759385E+03</rscale>
<asrwt>0</asrwt>
<pdfrwt beam="1">  1       21 0.38811113E-01 0.17817523E+03</pdfrwt>
<pdfrwt beam="2">  1       21 0.19353200E+00 0.17817523E+03</pdfrwt>
<totfact> 0.96258783E+02</totfact>
</mgrwt>
</event>
<event>
12    1  0.1039378E-001  0.1977870E+03  0.7546771E-02  0.1151620E+00
         21   -1    0    0  501  502  0.00000000000E+00  0.00000000000E+00  0.14777627627E+03  0.14777627627E+03  0.00000000000E+00 0.  1.
         21   -1    0    0  502  503 -0.00000000000E+00 -0.00000000000E+00 -0.37624196124E+03  0.37624196124E+03  0.00000000000E+00 0. -1.
         -6    2    1    2    0  503  0.64600524761E+02 -0.72491617157E+02 -0.25687970078E+03  0.32420066761E+03  0.17230969169E+03 0.  0.
        -24    2    3    3    0    0  0.38475642797E+02 -0.68442309596E+02 -0.27145581406E+03  0.29364809935E+03  0.79851251893E+02 0.  0.
          6    2    1    2  501    0 -0.64600524761E+02  0.72491617157E+02  0.28414015813E+02  0.19981756989E+03  0.17231205003E+03 0.  0.
         24    2    5    5    0    0  0.18516694473E+02 -0.48141785481E+01  0.39271974321E+02  0.85692009889E+02  0.73721016695E+02 0.  0.
          5    1    5    5  501    0 -0.83117219234E+02  0.77305795705E+02 -0.10857958508E+02  0.11412556000E+03  0.47000000000E+01 0. -1.
        -13    1    6    6    0    0  0.18422913779E+02  0.25909466304E+02  0.44333359784E+02  0.54554110625E+02  0.00000000000E+00 0.  1.
         14    1    6    6    0    0  0.93780693742E-01 -0.30723644852E+02 -0.50613854634E+01  0.31137899265E+02  0.00000000000E+00 0. -1.
         -5    1    3    3    0  503  0.26124881963E+02 -0.40493075610E+01  0.14576113283E+02  0.30552568268E+02  0.47000000000E+01 0.  1.
         13    1    4    4    0    0  0.43842014507E+02 -0.14520517266E+01 -0.89348532643E+02  0.99535877832E+02  0.00000000000E+00 0. -1.
        -14    1    4    4    0    0 -0.53663717096E+01 -0.66990257869E+02 -0.18210728142E+03  0.19411222151E+03  0.00000000000E+00 0.  1.
<mgrwt>
<rscale>  2 0.19778651E+03</rscale>
<asrwt>0</asrwt>
<pdfrwt beam="1">  1       21 0.22734812E-01 0.19778702E+03</pdfrwt>
<pdfrwt beam="2">  1       21 0.57883377E-01 0.19778702E+03</pdfrwt>
<totfact> 0.50640462E+04</totfact>
</mgrwt>
</event>
<event>
12    1  0.1039378E-001  0.1789696E+03  0.7546771E-02  0.1169196E+00
         21   -1    0    0  503  502  0.00000000000E+00  0.00000000000E+00  0.52079793615E+03  0.52079793615E+03  0.00000000000E+00 0. -1.
         21   -1    0    0  501  503 -0.00000000000E+00 -0.00000000000E+00 -0.10055225086E+03  0.10055225086E+03  0.00000000000E+00 0. -1.
          6    2    1    2  501    0  0.22867844374E+02 -0.32972099604E+02  0.14591007273E+02  0.17797018367E+03  0.17277265734E+03 0.  0.
         24    2    3    3    0    0  0.30456589019E+02  0.39888154686E+02  0.36720164450E+02  0.10130209841E+03  0.79969218868E+02 0.  0.
         -6    2    1    2    0  502 -0.22867844374E+02  0.32972099604E+02  0.40565467802E+03  0.44338000334E+03  0.17441333636E+03 0.  0.
        -24    2    5    5    0    0  0.12123890545E+02 -0.24849201553E+02  0.33479258578E+03  0.34534301799E+03  0.80070300591E+02 0.  0.
          5    1    3    3  501    0 -0.75887446455E+01 -0.72860254290E+02 -0.22129157177E+02  0.76668085263E+02  0.47000000000E+01 0. -1.
        -11    1    4    4    0    0 -0.10065328584E+02  0.24965160513E+02  0.49433470533E+02  0.56287104099E+02  0.00000000000E+00 0.  1.
         12    1    4    4    0    0  0.40521917603E+02  0.14922994173E+02 -0.12713306083E+02  0.45014994312E+02  0.00000000000E+00 0. -1.
         -5    1    5    5    0  502 -0.34991734919E+02  0.57821301157E+02  0.70862092240E+02  0.98036985352E+02  0.47000000000E+01 0.  1.
         11    1    6    6    0    0 -0.69722326015E+00 -0.22279508348E+02  0.33096982270E+03  0.33171958964E+03  0.00000000000E+00 0. -1.
        -12    1    6    6    0    0  0.12821113806E+02 -0.25696932048E+01  0.38227630858E+01  0.13623428349E+02  0.00000000000E+00 0.  1.
<mgrwt>
<rscale>  2 0.17856860E+03</rscale>
<asrwt>0</asrwt>
<pdfrwt beam="1">  1       21 0.80122757E-01 0.17896958E+03</pdfrwt>
<pdfrwt beam="2">  1       21 0.15469577E-01 0.17896958E+03</pdfrwt>
<totfact> 0.51164277E+04</totfact>
</mgrwt>
</event>
<event>
12    1  0.1039378E-001  0.1886243E+03  0.7546771E-02  0.1159771E+00
         21   -1    0    0  501  502  0.00000000000E+00  0.00000000000E+00  0.79304042398E+02  0.79304042398E+02  0.00000000000E+00 0.  1.
         21   -1    0    0  502  503 -0.00000000000E+00 -0.00000000000E+00 -0.44895738208E+03  0.44895738208E+03  0.00000000000E+00 0.  1.
         -6    2    1    2    0  503 -0.70597685489E+02  0.26360092628E+02 -0.19696943089E+03  0.27252939998E+03  0.17261642293E+03 0.  0.
        -24    2    3    3    0    0 -0.11066846483E+03 -0.48919419388E+01 -0.15116965884E+03  0.20395778675E+03  0.80467837161E+02 0.  0.
          6    2    1    2  501    0  0.70597685489E+02 -0.26360092628E+02 -0.17268390879E+03  0.25573202450E+03  0.17291688269E+03 0.  0.
         24    2    5    5    0    0  0.99204028874E+02  0.16678061364E+02 -0.87295142756E+02  0.15581237205E+03  0.80854537655E+02 0.  0.
          5    1    5    5  501    0 -0.28606343385E+02 -0.43038153992E+02 -0.85388766034E+02  0.99919652450E+02  0.47000000000E+01 0. -1.
        -11    1    6    6    0    0  0.38541024190E+02  0.10864938579E+01  0.10244351463E+02  0.39894081659E+02  0.00000000000E+00 0.  1.
         12    1    6    6    0    0  0.60663004684E+02  0.15591567506E+02 -0.97539494219E+02  0.11591829039E+03  0.00000000000E+00 0. -1.
         -5    1    3    3    0  503  0.40070779337E+02  0.31252034567E+02 -0.45799772045E+02  0.68571613228E+02  0.47000000000E+01 0.  1.
         11    1    4    4    0    0 -0.40263666895E+02  0.25806060427E+02 -0.19753532076E+02  0.51742802940E+02  0.00000000000E+00 0. -1.
        -12    1    4    4    0    0 -0.70404797930E+02 -0.30698002366E+02 -0.13141612677E+03  0.15221498381E+03  0.00000000000E+00 0.  1.
<mgrwt>
<rscale>  2 0.18855544E+03</rscale>
<asrwt>0</asrwt>
<pdfrwt beam="1">  1       21 0.12200622E-01 0.18862433E+03</pdfrwt>
<pdfrwt beam="2">  1       21 0.69070367E-01 0.18862433E+03</pdfrwt>
<totfact> 0.10887239E+05</totfact>
</mgrwt>
</event>
<event>
12    1  0.1039378E-001  0.1800635E+03  0.7546771E-02  0.1168247E+00
         21   -1    0    0  503  502  0.00000000000E+00  0.00000000000E+00  0.22097821989E+03  0.22097821989E+03  0.00000000000E+00 0. -1.
         21   -1    0    0  501  503 -0.00000000000E+00 -0.00000000000E+00 -0.18378245795E+03  0.18378245795E+03  0.00000000000E+00 0. -1.
          6    2    1    2  501    0 -0.19727197881E+02  0.38252502241E+02 -0.74238145128E+02  0.19476697844E+03  0.17484409465E+03 0.  0.
         24    2    3    3    0    0 -0.21774656844E+00  0.46482974714E+02  0.24623763491E+02  0.93553706864E+02  0.77364410343E+02 0.  0.
         -6    2    1    2    0  502  0.19727197881E+02 -0.38252502241E+02  0.11143390707E+03  0.20999369940E+03  0.17270617209E+03 0.  0.
        -24    2    5    5    0    0  0.21957071037E+02 -0.12386326819E+02  0.14469027444E+03  0.16754246460E+03  0.80620517651E+02 0.  0.
          5    1    3    3  501    0 -0.19509451313E+02 -0.82304724729E+01 -0.98861908619E+02  0.10121327158E+03  0.47000000000E+01 0. -1.
        -13    1    4    4    0    0 -0.13763140347E+02 -0.18919413456E+02  0.79975788940E+01  0.24725078481E+02  0.00000000000E+00 0.  1.
         14    1    4    4    0    0  0.13545393778E+02  0.65402388169E+02  0.16626184597E+02  0.68828628383E+02  0.00000000000E+00 0. -1.
         -5    1    5    5    0  502 -0.22298731558E+01 -0.25866175421E+02 -0.33256367370E+02  0.42451234798E+02  0.47000000000E+01 0.  1.
         11    1    6    6    0    0 -0.46013606551E+01  0.22673209524E+02  0.10744627456E+03  0.10990882070E+03  0.00000000000E+00 0. -1.
        -12    1    6    6    0    0  0.26558431692E+02 -0.35059536343E+02  0.37243999878E+02  0.57633643902E+02  0.00000000000E+00 0.  1.
<mgrwt>
<rscale>  2 0.17954246E+03</rscale>
<asrwt>0</asrwt>
<pdfrwt beam="1">  1       21 0.33996649E-01 0.18006353E+03</pdfrwt>
<pdfrwt beam="2">  1       21 0.28274224E-01 0.18006353E+03</pdfrwt>
<totfact> 0.10013893E+05</totfact>
</mgrwt>
</event>
<event>
12    1  0.1039378E-001  0.4270277E+03  0.7546771E-02  0.1034823E+00
         21   -1    0    0  503  502  0.00000000000E+00  0.00000000000E+00  0.50414916217E+03  0.50414916217E+03  0.00000000000E+00 0.  1.
         21   -1    0    0  501  503 -0.00000000000E+00 -0.00000000000E+00 -0.40139292086E+03  0.40139292086E+03  0.00000000000E+00 0. -1.
          6    2    1    2  501    0  0.64127905368E+02 -0.38515511919E+03 -0.91353334659E+02  0.43668996302E+03  0.17290412940E+03 0.  0.
         24    2    3    3    0    0  0.55774529332E+02 -0.37420584292E+03 -0.47679296596E+02  0.39065544181E+03  0.84838363369E+02 0.  0.
         -6    2    1    2    0  502 -0.64127905368E+02  0.38515511919E+03  0.19410957596E+03  0.46885212001E+03  0.17229895203E+03 0.  0.
        -24    2    5    5    0    0  0.13817870618E+02  0.13397678836E+03  0.11368113102E+03  0.19379408499E+03  0.80573162146E+02 0.  0.
          5    1    3    3  501    0  0.83533760361E+01 -0.10949276276E+02 -0.43674038063E+02  0.46034521208E+02  0.47000000000E+01 0. -1.
        -13    1    4    4    0    0  0.23460424969E+02 -0.48995713345E+02  0.18159845894E+02  0.57277844485E+02  0.00000000000E+00 0.  1.
         14    1    4    4    0    0  0.32314104363E+02 -0.32521012957E+03 -0.65839142490E+02  0.33337759733E+03  0.00000000000E+00 0. -1.
         -5    1    5    5    0  502 -0.77945775986E+02  0.25117833083E+03  0.80428444939E+02  0.27505803502E+03  0.47000000000E+01 0.  1.
         11    1    6    6    0    0  0.16571183628E+01 -0.17033502464E+01 -0.97086237596E+01  0.99952397988E+01  0.00000000000E+00 0. -1.
        -12    1    6    6    0    0  0.12160752255E+02  0.13568013861E+03  0.12338975478E+03  0.18379884519E+03  0.00000000000E+00 0.  1.
<mgrwt>
<rscale>  2 0.42696656E+03</rscale>
<asrwt>0</asrwt>
<pdfrwt beam="1">  1       21 0.77561410E-01 0.42702774E+03</pdfrwt>
<pdfrwt beam="2">  1       21 0.61752757E-01 0.42702774E+03</pdfrwt>
<totfact> 0.31564124E+03</totfact>
</mgrwt>
</event>
<event>
12    1  0.1039378E-001  0.1843759E+03  0.7546771E-02  0.1163711E+00
         21   -1    0    0  503  502  0.00000000000E+00  0.00000000000E+00  0.18270417985E+03  0.18270417985E+03  0.00000000000E+00 0.  1.
         21   -1    0    0  501  503 -0.00000000000E+00 -0.00000000000E+00 -0.19715992532E+03  0.19715992532E+03  0.00000000000E+00 0.  1.
          6    2    1    2  501    0 -0.46142195522E+02 -0.53272813890E+02  0.38505316783E+02  0.18803252165E+03  0.17001904267E+03 0.  0.
         24    2    3    3    0    0  0.12869191546E+02  0.21711843987E+02  0.36168199153E+02  0.92467910837E+02  0.81272108649E+02 0.  0.
         -6    2    1    2    0  502  0.46142195522E+02  0.53272813890E+02 -0.52961062256E+02  0.19183158352E+03  0.17037425690E+03 0.  0.
        -24    2    5    5    0    0  0.25166209497E+02  0.42810618131E+01  0.31868308253E+02  0.91540527776E+02  0.81929320539E+02 0.  0.
          5    1    3    3  501    0 -0.59011387067E+02 -0.74984657878E+02  0.23371176298E+01  0.95564610811E+02  0.47000000000E+01 0. -1.
        -11    1    4    4    0    0 -0.10521121747E+02  0.48215381989E+02  0.25473444033E+02  0.55536595269E+02  0.00000000000E+00 0.  1.
         12    1    4    4    0    0  0.23390313292E+02 -0.26503538002E+02  0.10694755120E+02  0.36931315568E+02  0.00000000000E+00 0. -1.
         -5    1    5    5    0  502  0.20975986025E+02  0.48991752077E+02 -0.84829370509E+02  0.10029105574E+03  0.47000000000E+01 0.  1.
         11    1    6    6    0    0 -0.25742880628E+02  0.88600255019E+01  0.29829075272E+02  0.40385265711E+02  0.00000000000E+00 0. -1.
        -12    1    6    6    0    0  0.50909090125E+02 -0.45789636889E+01  0.20392329804E+01  0.51155262066E+02  0.00000000000E+00 0.  1.
<mgrwt>
<rscale>  2 0.18429382E+03</rscale>
<asrwt>0</asrwt>
<pdfrwt beam="1">  1       21 0.28108335E-01 0.18437593E+03</pdfrwt>
<pdfrwt beam="2">  1       21 0.30332296E-01 0.18437593E+03</pdfrwt>
<totfact> 0.12648261E+05</totfact>
</mgrwt>
</event>
<event>
12    1  0.1039378E-001  0.1786041E+03  0.7546771E-02  0.1169477E+00
         21   -1    0    0  503  502  0.00000000000E+00  0.00000000000E+00  0.39160310957E+03  0.39160310957E+03  0.00000000000E+00 0. -1.
         21   -1    0    0  501  503 -0.00000000000E+00 -0.00000000000E+00 -0.24130873062E+03  0.24130873062E+03  0.00000000000E+00 0. -1.
          6    2    1    2  501    0  0.95341994648E+01 -0.41192259655E+02 -0.18279574641E+03  0.25556545366E+03  0.17352726870E+03 0.  0.
         24    2    3    3    0    0  0.56887744143E+01  0.47903273487E+02 -0.12322216889E+03  0.14821601277E+03  0.66762248105E+02 0.  0.
         -6    2    1    2    0  502 -0.95341994648E+01  0.41192259655E+02  0.33309012536E+03  0.37734638653E+03  0.17220209233E+03 0.  0.
        -24    2    5    5    0    0 -0.13661964721E+02  0.84381206254E+02  0.29929503886E+03  0.32215108396E+03  0.83047958206E+02 0.  0.
          5    1    3    3  501    0  0.38454250505E+01 -0.89095533142E+02 -0.59573577521E+02  0.10734944089E+03  0.47000000000E+01 0. -1.
        -11    1    4    4    0    0  0.46215881040E+01  0.54939693676E+02 -0.49327030423E+02  0.73978949359E+02  0.00000000000E+00 0.  1.
         12    1    4    4    0    0  0.10671863103E+01 -0.70364201897E+01 -0.73895138466E+02  0.74237063416E+02  0.00000000000E+00 0. -1.
         -5    1    5    5    0  502  0.41277652566E+01 -0.43188946599E+02  0.33795086497E+02  0.55195302569E+02  0.47000000000E+01 0.  1.
         13    1    6    6    0    0  0.60775603881E+01  0.93264909869E+02  0.20343457076E+03  0.22387698572E+03  0.00000000000E+00 0. -1.
        -14    1    6    6    0    0 -0.19739525109E+02 -0.88837036154E+01  0.95860468097E+02  0.98274098242E+02  0.00000000000E+00 0.  1.
<mgrwt>
<rscale>  2 0.17828140E+03</rscale>
<asrwt>0</asrwt>
<pdfrwt beam="1">  1       21 0.60246632E-01 0.17860408E+03</pdfrwt>
<pdfrwt beam="2">  1       21 0.37124420E-01 0.17860408E+03</pdfrwt>
<totfact> 0.18128989E+04</totfact>
</mgrwt>
</event>
<event>
12    1  0.1039378E-001  0.4431283E+03  0.7546771E-02  0.1029855E+00
         21   -1    0    0  501  502  0.00000000000E+00  0.00000000000E+00  0.29148596206E+03  0.29148596206E+03  0.00000000000E+00 0.  1.
         21   -1    0    0  502  503 -0.00000000000E+00 -0.00000000000E+00 -0.11255007700E+04  0.11255007700E+04  0.00000000000E+00 0.  1.
         -6    2    1    2    0  503 -0.15013987986E+02 -0.40627598435E+03 -0.86678580389E+03  0.97348874880E+03  0.17628703562E+03 0.  0.
        -24    2    3    3    0    0 -0.14847280841E+02 -0.74843654295E+02 -0.19327440291E+03  0.22283096096E+03  0.80477500000E+02 0.  0.
          6    2    1    2  501    0  0.15013987986E+02  0.40627598435E+03  0.32770995934E+02  0.44349798328E+03  0.17415776670E+03 0.  0.
         24    2    5    5    0    0  0.70191714390E+02  0.21389755793E+03  0.43229538216E+02  0.24303474089E+03  0.80734442749E+02 0.  0.
          5    1    5    5  501    0 -0.55177726404E+02  0.19237842642E+03 -0.10458542282E+02  0.20046324239E+03  0.47000000000E+01 0. -1.
        -13    1    6    6    0    0  0.10135661046E+02  0.17126116360E+02 -0.19590449609E+02  0.27925278912E+02  0.00000000000E+00 0.  1.
         14    1    6    6    0    0  0.60056053343E+02  0.19677144157E+03  0.62819987825E+02  0.21510946198E+03  0.00000000000E+00 0. -1.
         -5    1    3    3    0  503 -0.16670714438E+00 -0.33143233006E+03 -0.67351140098E+03  0.75065778784E+03  0.47000000000E+01 0.  1.
         13    1    4    4    0    0 -0.45059594950E+02 -0.35362137992E+02 -0.73756505136E+02  0.93385598195E+02  0.00000000000E+00 0. -1.
        -14    1    4    4    0    0  0.30212314109E+02 -0.39481516303E+02 -0.11951789777E+03  0.12944536277E+03  0.00000000000E+00 0.  1.
<mgrwt>
<rscale>  2 0.44291749E+03</rscale>
<asrwt>0</asrwt>
<pdfrwt beam="1">  1       21 0.44843995E-01 0.44312833E+03</pdfrwt>
<pdfrwt beam="2">  1       21 0.17315396E+00 0.44312833E+03</pdfrwt>
<totfact> 0.81270202E+02</totfact>
</mgrwt>
</event>
<event>
12    1  0.1039378E-001  0.1739805E+03  0.7546771E-02  0.1173794E+00
         21   -1    0    0  503  502  0.00000000000E+00  0.00000000000E+00  0.45728523968E+02  0.45728523968E+02  0.00000000000E+00 0. -1.
         21   -1    0    0  501  503 -0.00000000000E+00 -0.00000000000E+00 -0.79237265747E+03  0.79237265747E+03  0.00000000000E+00 0. -1.
          6    2    1    2  501    0 -0.48308592800E+01 -0.12811907782E+02 -0.54356405317E+03  0.57068630097E+03  0.17330173696E+03 0.  0.
         24    2    3    3    0    0  0.91305846545E+01 -0.59643297958E+01 -0.10752668299E+03  0.13434642262E+03  0.79799955583E+02 0.  0.
         -6    2    1    2    0  502  0.48308592800E+01  0.12811907782E+02 -0.20308008033E+03  0.26741488046E+03  0.17344081724E+03 0.  0.
        -24    2    5    5    0    0  0.69717969070E+02 -0.97250618306E+00 -0.13804575570E+03  0.17439928787E+03  0.80603597713E+02 0.  0.
          5    1    3    3  501    0 -0.13961443935E+02 -0.68475779865E+01 -0.43603737019E+03  0.43633987835E+03  0.47000000000E+01 0. -1.
        -13    1    4    4    0    0 -0.20912857611E+02 -0.11859292361E+01 -0.10110882295E+03  0.10325574134E+03  0.00000000000E+00 0.  1.
         14    1    4    4    0    0  0.30043442266E+02 -0.47784005597E+01 -0.64178600387E+01  0.31090681282E+02  0.00000000000E+00 0. -1.
         -5    1    5    5    0  502 -0.64887109790E+02  0.13784413965E+02 -0.65034324633E+02  0.93015592595E+02  0.47000000000E+01 0.  1.
         11    1    6    6    0    0 -0.76399060916E+01  0.22876005990E+02 -0.20372986781E+02  0.31571164146E+02  0.00000000000E+00 0. -1.
        -12    1    6    6    0    0  0.77357875162E+02 -0.23848512173E+02 -0.11767276891E+03  0.14282812372E+03  0.00000000000E+00 0.  1.
<mgrwt>
<rscale>  2 0.17394578E+03</rscale>
<asrwt>0</asrwt>
<pdfrwt beam="1">  1       21 0.70351578E-02 0.17398046E+03</pdfrwt>
<pdfrwt beam="2">  1       21 0.12190348E+00 0.17398046E+03</pdfrwt>
<totfact> 0.76834647E+04</totfact>
</mgrwt>
</event>
<event>
12    1  0.1039378E-001  0.1760114E+03  0.7546771E-02  0.1172106E+00
         21   -1    0    0  501  502  0.00000000000E+00  0.00000000000E+00  0.39721740144E+03  0.39721740144E+03  0.00000000000E+00 0. -1.
         21   -1    0    0  502  503 -0.00000000000E+00 -0.00000000000E+00 -0.77313921597E+02  0.77313921597E+02  0.00000000000E+00 0. -1.
         -6    2    1    2    0  503 -0.15265246048E+02  0.23677479581E+02  0.16053249011E+03  0.23708846844E+03  0.17218191168E+03 0.  0.
        -24    2    3    3    0    0  0.45682013617E+02  0.50466567619E+01  0.14365960976E+03  0.17099414107E+03  0.80551832331E+02 0.  0.
          6    2    1    2  501    0  0.15265246048E+02 -0.23677479581E+02  0.15937098974E+03  0.23744285460E+03  0.17374218271E+03 0.  0.
         24    2    5    5    0    0  0.49217984529E+02  0.36992592517E+02  0.60836855114E+02  0.11675850688E+03  0.78361751424E+02 0.  0.
          5    1    5    5  501    0 -0.33952738482E+02 -0.60670072098E+02  0.98534134622E+02  0.12068434772E+03  0.47000000000E+01 0. -1.
        -13    1    6    6    0    0  0.34463016353E+02  0.27610051876E+02  0.79651371501E+02  0.91073351991E+02  0.00000000000E+00 0.  1.
         14    1    6    6    0    0  0.14754968176E+02  0.93825406406E+01 -0.18814516387E+02  0.25685154888E+02  0.00000000000E+00 0. -1.
         -5    1    3    3    0  503 -0.60947259664E+02  0.18630822819E+02  0.16872880355E+02  0.66094327373E+02  0.47000000000E+01 0.  1.
         13    1    4    4    0    0  0.11548154903E+02  0.26736453474E+02  0.12137188576E+03  0.12481719625E+03  0.00000000000E+00 0. -1.
        -14    1    4    4    0    0  0.34133858713E+02 -0.21689796712E+02  0.22287723995E+02  0.46176944821E+02  0.00000000000E+00 0.  1.
<mgrwt>
<rscale>  2 0.17562509E+03</rscale>
<asrwt>0</asrwt>
<pdfrwt beam="1">  1       21 0.61110368E-01 0.17601135E+03</pdfrwt>
<pdfrwt beam="2">  1       21 0.11894450E-01 0.17601135E+03</pdfrwt>
<totfact> 0.14933217E+05</totfact>
</mgrwt>
</event>
<event>
12    1  0.1039378E-001  0.1988626E+03  0.7546771E-02  0.1150872E+00
         21   -1    0    0  503  502  0.00000000000E+00  0.00000000000E+00  0.97734346412E+02  0.97734346412E+02  0.00000000000E+00 0. -1.
         21   -1    0    0  501  503 -0.00000000000E+00 -0.00000000000E+00 -0.66466767050E+03  0.66466767050E+03  0.00000000000E+00 0. -1.
          6    2    1    2  501    0  0.63888175862E+02  0.73258658016E+02 -0.52229704626E+03  0.55859145856E+03  0.17257370325E+03 0.  0.
         24    2    3    3    0    0  0.82228942806E+02  0.79122291574E+02 -0.52011842783E+03  0.53865149093E+03  0.81242314446E+02 0.  0.
         -6    2    1    2    0  502 -0.63888175862E+02 -0.73258658016E+02 -0.44636277834E+02  0.20381055836E+03  0.17348722261E+03 0.  0.
        -24    2    5    5    0    0 -0.57418294497E+02  0.19106800091E+02 -0.28501953373E+01  0.10211786488E+03  0.82207082186E+02 0.  0.
          5    1    3    3  501    0 -0.18340766944E+02 -0.58636335578E+01 -0.21786184262E+01  0.19939967624E+02  0.47000000000E+01 0. -1.
        -13    1    4    4    0    0  0.23871274877E+02 -0.15803778915E+02 -0.10258713572E+03  0.10650688996E+03  0.00000000000E+00 0.  1.
         14    1    4    4    0    0  0.58357667929E+02  0.94926070489E+02 -0.41753129211E+03  0.43214460098E+03  0.00000000000E+00 0. -1.
         -5    1    5    5    0  502 -0.64698813657E+01 -0.92365458107E+02 -0.41786082496E+02  0.10169269348E+03  0.47000000000E+01 0.  1.
         11    1    6    6    0    0 -0.48121496956E+02 -0.22186005585E+02  0.16610430864E+02  0.55532006326E+02  0.00000000000E+00 0. -1.
        -12    1    6    6    0    0 -0.92967975408E+01  0.41292805676E+02 -0.19460626201E+02  0.46585858554E+02  0.00000000000E+00 0.  1.
<mgrwt>
<rscale>  2 0.19866322E+03</rscale>
<asrwt>0</asrwt>
<pdfrwt beam="1">  1       21 0.15036053E-01 0.19886263E+03</pdfrwt>
<pdfrwt beam="2">  1       21 0.10225657E+00 0.19886263E+03</pdfrwt>
<totfact> 0.30295479E+04</totfact>
</mgrwt>
</event>
<event>
12    1  0.1039378E-001  0.2193159E+03  0.7546771E-02  0.1134729E+00
         21   -1    0    0  501  502  0.00000000000E+00  0.00000000000E+00  0.69154000895E+03  0.69154000895E+03  0.00000000000E+00 0.  1.
         21   -1    0    0  502  503 -0.00000000000E+00 -0.00000000000E+00 -0.33822628624E+03  0.33822628624E+03  0.00000000000E+00 0. -1.
         -6    2    1    2    0  503  0.10007740184E+03 -0.89824686461E+02 -0.28257441574E+03  0.35769787468E+03  0.17324984405E+03 0.  0.
        -24    2    3    3    0    0  0.53017474459E+02 -0.23972166527E+02 -0.52701616282E+02  0.11394639247E+03  0.82588150683E+02 0.  0.
          6    2    1    2  501    0 -0.10007740184E+03  0.89824686461E+02  0.63588813846E+03  0.67206842051E+03  0.17099203654E+03 0.  0.
         24    2    5    5    0    0 -0.13162813257E+03  0.10067634673E+03  0.54878692049E+03  0.57867720405E+03  0.78984367551E+02 0.  0.
          5    1    5    5  501    0  0.31550730725E+02 -0.10851660267E+02  0.87101217967E+02  0.93391216456E+02  0.47000000000E+01 0. -1.
        -11    1    6    6    0    0 -0.63937949806E+02  0.91362766483E+02  0.39406831786E+03  0.40954249556E+03  0.00000000000E+00 0.  1.
         12    1    6    6    0    0 -0.67690182760E+02  0.93135802448E+01  0.15471860263E+03  0.16913470850E+03  0.00000000000E+00 0. -1.
         -5    1    3    3    0  503  0.47059927382E+02 -0.65852519934E+02 -0.22987279946E+03  0.24375148221E+03  0.47000000000E+01 0.  1.
         11    1    4    4    0    0  0.72147881860E+02 -0.40593046239E+01 -0.30171081965E+02  0.78307656062E+02  0.00000000000E+00 0. -1.
        -12    1    4    4    0    0 -0.19130407401E+02 -0.19912861903E+02 -0.22530534317E+02  0.35638736412E+02  0.00000000000E+00 0.  1.
<mgrwt>
<rscale>  2 0.21886976E+03</rscale>
<asrwt>0</asrwt>
<pdfrwt beam="1">  1       21 0.10639077E+00 0.21931591E+03</pdfrwt>
<pdfrwt beam="2">  1       21 0.52034813E-01 0.21931591E+03</pdfrwt>
<totfact> 0.24253763E+03</totfact>
</mgrwt>
</event>
<event>
12    1  0.1039378E-001  0.2019307E+03  0.7546771E-02  0.1148156E+00
         21   -1    0    0  503  502  0.00000000000E+00  0.00000000000E+00  0.35735985776E+03  0.35735985776E+03  0.00000000000E+00 0. -1.
         21   -1    0    0  501  503 -0.00000000000E+00 -0.00000000000E+00 -0.11998427765E+03  0.11998427765E+03  0.00000000000E+00 0.  1.
          6    2    1    2  501    0  0.18697796061E+02  0.10243515391E+03  0.65458177531E+02  0.21227520134E+03  0.17301277341E+03 0.  0.
         24    2    3    3    0    0 -0.41667549833E+02  0.10868159884E+02  0.16171783457E+02  0.91943459800E+02  0.79610122544E+02 0.  0.
         -6    2    1    2    0  502 -0.18697796061E+02 -0.10243515391E+03  0.17191740258E+03  0.26506893407E+03  0.17281023744E+03 0.  0.
        -24    2    5    5    0    0 -0.70057283157E+02 -0.83849608742E+02  0.73175373021E+02  0.15212957952E+03  0.76485253084E+02 0.  0.
          5    1    3    3  501    0  0.60365345894E+02  0.91566994030E+02  0.49286394074E+02  0.12033174154E+03  0.47000000000E+01 0. -1.
        -11    1    4    4    0    0 -0.18183038867E+02 -0.98778507372E+01 -0.29816914552E+02  0.36293845636E+02  0.00000000000E+00 0.  1.
         12    1    4    4    0    0 -0.23484510966E+02  0.20746010621E+02  0.45988698009E+02  0.55649614164E+02  0.00000000000E+00 0. -1.
         -5    1    5    5    0  502  0.51359487096E+02 -0.18585545173E+02  0.98742029560E+02  0.11293935455E+03  0.47000000000E+01 0.  1.
         13    1    6    6    0    0 -0.28949408956E+02 -0.35705975693E+02  0.75933863312E+02  0.88763374072E+02  0.00000000000E+00 0. -1.
        -14    1    6    6    0    0 -0.41107874201E+02 -0.48143633049E+02 -0.27584902911E+01  0.63366205450E+02  0.00000000000E+00 0.  1.
<mgrwt>
<rscale>  2 0.20188726E+03</rscale>
<asrwt>0</asrwt>
<pdfrwt beam="1">  1       21 0.54978439E-01 0.20193065E+03</pdfrwt>
<pdfrwt beam="2">  1       21 0.18459120E-01 0.20193065E+03</pdfrwt>
<totfact> 0.83321438E+04</totfact>
</mgrwt>
</event>
<event>
12    1  0.1039378E-001  0.1750855E+03  0.7546771E-02  0.1173041E+00
         21   -1    0    0  501  502  0.00000000000E+00  0.00000000000E+00  0.41194247497E+03  0.41194247497E+03  0.00000000000E+00 0. -1.
         21   -1    0    0  502  503 -0.00000000000E+00 -0.00000000000E+00 -0.94276904579E+02  0.94276904579E+02  0.00000000000E+00 0. -1.
         -6    2    1    2    0  503 -0.25138982952E+02  0.92160212617E+01  0.40171480828E+02  0.17810675668E+03  0.17143910112E+03 0.  0.
        -24    2    3    3    0    0 -0.58271405895E+01 -0.49239772854E+01 -0.44864573618E+02  0.89641467613E+02  0.77230574452E+02 0.  0.
          6    2    1    2  501    0  0.25138982952E+02 -0.92160212617E+01  0.27749408956E+03  0.32811262286E+03  0.17302606749E+03 0.  0.
         24    2    5    5    0    0 -0.41485545444E+02  0.19268886084E+02  0.20823410231E+03  0.22776695248E+03  0.80149877267E+02 0.  0.
          5    1    5    5  501    0  0.66624528396E+02 -0.28484907346E+02  0.69259987248E+02  0.10034567038E+03  0.47000000000E+01 0. -1.
        -11    1    6    6    0    0 -0.21646543500E+02  0.59381434172E+01  0.48257928386E+01  0.22959152189E+02  0.00000000000E+00 0.  1.
         12    1    6    6    0    0 -0.19839001944E+02  0.13330742667E+02  0.20340830948E+03  0.20480780029E+03  0.00000000000E+00 0. -1.
         -5    1    3    3    0  503 -0.19311842362E+02  0.14139998547E+02  0.85036054446E+02  0.88465289069E+02  0.47000000000E+01 0.  1.
         13    1    4    4    0    0 -0.50397317031E+01 -0.41068799466E+02 -0.25921800616E+02  0.48826068164E+02  0.00000000000E+00 0. -1.
        -14    1    4    4    0    0 -0.78740888641E+00  0.36144822180E+02 -0.18942773002E+02  0.40815399449E+02  0.00000000000E+00 0.  1.
<mgrwt>
<rscale>  2 0.17469212E+03</rscale>
<asrwt>0</asrwt>
<pdfrwt beam="1">  1       21 0.63375764E-01 0.17508547E+03</pdfrwt>
<pdfrwt beam="2">  1       21 0.14504139E-01 0.17508547E+03</pdfrwt>
<totfact> 0.96686491E+04</totfact>
</mgrwt>
</event>
<event>
12    1  0.1039378E-001  0.1922444E+03  0.7546771E-02  0.1156654E+00
         21   -1    0    0  503  502  0.00000000000E+00  0.00000000000E+00  0.12144197078E+03  0.12144197078E+03  0.00000000000E+00 0.  1.
         21   -1    0    0  501  503 -0.00000000000E+00 -0.00000000000E+00 -0.35079592346E+03  0.35079592346E+03  0.00000000000E+00 0. -1.
          6    2    1    2  501    0  0.55660526241E+02 -0.64334890602E+02 -0.20216624264E+03  0.27897864480E+03  0.17239728031E+03 0.  0.
         24    2    3    3    0    0  0.60533782296E+02 -0.83449918025E+01 -0.41519124481E+02  0.10871941901E+03  0.79762752494E+02 0.  0.
         -6    2    1    2    0  502 -0.55660526241E+02  0.64334890602E+02 -0.27187710044E+02  0.19325924944E+03  0.17138521986E+03 0.  0.
        -24    2    5    5    0    0 -0.61181845840E+02  0.53293876308E+02 -0.78780296135E+02  0.14000256999E+03  0.82528352892E+02 0.  0.
          5    1    3    3  501    0 -0.48732560557E+01 -0.55989898800E+02 -0.16064711816E+03  0.17025922579E+03  0.47000000000E+01 0. -1.
        -13    1    4    4    0    0 -0.13410118921E+02  0.13608349667E+02  0.34787698630E+01  0.19419585730E+02  0.00000000000E+00 0.  1.
         14    1    4    4    0    0  0.73943901217E+02 -0.21953341470E+02 -0.44997894344E+02  0.89299833283E+02  0.00000000000E+00 0. -1.
         -5    1    5    5    0  502  0.55213195993E+01  0.11041014295E+02  0.51592586091E+02  0.53256679453E+02  0.47000000000E+01 0.  1.
         13    1    6    6    0    0  0.16634621875E+02  0.45561432123E+01 -0.33379573288E+02  0.37572130613E+02  0.00000000000E+00 0. -1.
        -14    1    6    6    0    0 -0.77816467715E+02  0.48737733095E+02 -0.45400722847E+02  0.10243043937E+03  0.00000000000E+00 0.  1.
<mgrwt>
<rscale>  2 0.19201720E+03</rscale>
<asrwt>0</asrwt>
<pdfrwt beam="1">  1       21 0.18683380E-01 0.19224436E+03</pdfrwt>
<pdfrwt beam="2">  1       21 0.53968604E-01 0.19224436E+03</pdfrwt>
<totfact> 0.85087287E+04</totfact>
</mgrwt>
</event>
<event>
11    1  0.1039378E-001  0.1892590E+03  0.7546771E-02  0.1160184E+00
         21   -1    0    0  503  502  0.00000000000E+00  0.00000000000E+00  0.49316638483E+02  0.49316638483E+02  0.00000000000E+00 0. -1.
         21   -1    0    0  501  503 -0.00000000000E+00 -0.00000000000E+00 -0.11230465677E+04  0.11230465677E+04  0.00000000000E+00 0. -1.
          6    2    1    2  501    0  0.13139172783E+01  0.63079995962E+02 -0.88869606188E+03  0.90768133269E+03  0.17356237796E+03 0.  0.
         -6    2    1    2    0  502 -0.13139172783E+01 -0.63079995962E+02 -0.18503386734E+03  0.26468187350E+03  0.17843247974E+03 0.  0.
        -24    2    4    4    0    0  0.95441527227E+01 -0.10998671616E+03 -0.15633572059E+03  0.20843410278E+03  0.82557550163E+02 0.  0.
          5    1    3    3  501    0 -0.76890778221E+02  0.66323638803E+02 -0.42403366952E+03  0.43604777229E+03  0.47000000000E+01 0. -1.
        -11    1    3    3    0    0  0.59735134662E+02  0.50287643850E+01 -0.32055220273E+03  0.32610932133E+03  0.00000000000E+00 0.  1.
         12    1    3    3    0    0  0.18469560837E+02 -0.82724072253E+01 -0.14411018964E+03  0.14552423907E+03  0.00000000000E+00 0. -1.
         -5    1    4    4    0  502 -0.10858070001E+02  0.46906720193E+02 -0.28698146756E+02  0.56247770718E+02  0.47000000000E+01 0.  1.
         13    1    5    5    0    0  0.40676137783E+02 -0.27545875795E+02 -0.65514222081E+02  0.81886731240E+02  0.00000000000E+00 0. -1.
        -14    1    5    5    0    0 -0.31131985061E+02 -0.82440840361E+02 -0.90821498508E+02  0.12654737154E+03  0.00000000000E+00 0.  1.
<mgrwt>
<rscale>  2 0.18810233E+03</rscale>
<asrwt>0</asrwt>
<pdfrwt beam="1">  1       21 0.75871761E-02 0.18925898E+03</pdfrwt>
<pdfrwt beam="2">  1       21 0.17277637E+00 0.18925898E+03</pdfrwt>
<totfact> 0.26910024E+04</totfact>
</mgrwt>
</event>
<event>
12    1  0.1039378E-001  0.1835249E+03  0.7546771E-02  0.1164706E+00
         21   -1    0    0  503  502  0.00000000000E+00  0.00000000000E+00  0.52202388662E+03  0.52202388662E+03  0.00000000000E+00 0.  1.
         21   -1    0    0  501  503 -0.00000000000E+00 -0.00000000000E+00 -0.20932364746E+03  0.20932364746E+03  0.00000000000E+00 0.  1.
          6    2    1    2  501    0 -0.14660227719E+02 -0.59374832192E+02 -0.14836251939E+03  0.23510138109E+03  0.17181655699E+03 0.  0.
         24    2    3    3    0    0  0.36402868942E+02 -0.44081536635E+02 -0.15163270837E+03  0.18149066513E+03  0.81719229945E+02 0.  0.
         -6    2    1    2    0  502  0.14660227719E+02  0.59374832192E+02  0.46106275855E+03  0.49624615299E+03  0.17303492151E+03 0.  0.
        -24    2    5    5    0    0 -0.53181274836E+02  0.19723451703E+02  0.31680339640E+03  0.33190639818E+03  0.81118448224E+02 0.  0.
          5    1    3    3  501    0 -0.51063096662E+02 -0.15293295557E+02  0.32701889791E+01  0.53610715959E+02  0.47000000000E+01 0. -1.
        -13    1    4    4    0    0  0.48892752611E+02 -0.52430242782E+02 -0.76382724936E+02  0.10475567901E+03  0.00000000000E+00 0.  1.
         14    1    4    4    0    0 -0.12489883669E+02  0.83487061470E+01 -0.75249983431E+02  0.76734986119E+02  0.00000000000E+00 0. -1.
         -5    1    5    5    0  502  0.67841502555E+02  0.39651380490E+02  0.14425936215E+03  0.16433975481E+03  0.47000000000E+01 0.  1.
         11    1    6    6    0    0 -0.54581584497E+02  0.15083616716E+01  0.96738317395E+02  0.11108432191E+03  0.00000000000E+00 0. -1.
        -12    1    6    6    0    0  0.14003096618E+01  0.18215090031E+02  0.22006507901E+03  0.22082207627E+03  0.00000000000E+00 0.  1.
<mgrwt>
<rscale>  2 0.18323712E+03</rscale>
<asrwt>0</asrwt>
<pdfrwt beam="1">  1       21 0.80311367E-01 0.18352487E+03</pdfrwt>
<pdfrwt beam="2">  1       21 0.32203638E-01 0.18352487E+03</pdfrwt>
<totfact> 0.12722896E+04</totfact>
</mgrwt>
</event>
<event>
12    1  0.1039378E-001  0.1878910E+03  0.7546771E-02  0.1160554E+00
         21   -1    0    0  503  502  0.00000000000E+00  0.00000000000E+00  0.60188199350E+02  0.60188199350E+02  0.00000000000E+00 0.  1.
         21   -1    0    0  501  503 -0.00000000000E+00 -0.00000000000E+00 -0.15436065304E+04  0.15436065304E+04  0.00000000000E+00 0.  1.
          6    2    1    2  501    0  0.55859860219E+02  0.50039302744E+02 -0.13745029826E+04  0.13872856516E+04  0.17227528648E+03 0.  0.
         24    2    3    3    0    0  0.29201088333E+02 -0.16640283301E+02 -0.11016400228E+04  0.11050922036E+04  0.80550828528E+02 0.  0.
         -6    2    1    2    0  502 -0.55859860219E+02 -0.50039302744E+02 -0.10891534846E+03  0.21650907810E+03  0.17143328722E+03 0.  0.
        -24    2    5    5    0    0 -0.33220956092E+02 -0.33397665251E+02 -0.14413754291E+03  0.17120833793E+03  0.79483506027E+02 0.  0.
          5    1    3    3  501    0  0.26658771886E+02  0.66679586044E+02 -0.27286295978E+03  0.28219344807E+03  0.47000000000E+01 0. -1.
        -13    1    4    4    0    0  0.44600521365E+02  0.18977420360E+02 -0.60479828148E+03  0.60673743108E+03  0.00000000000E+00 0.  1.
         14    1    4    4    0    0 -0.15399433031E+02 -0.35617703661E+02 -0.49684174133E+03  0.49835477250E+03  0.00000000000E+00 0. -1.
         -5    1    5    5    0  502 -0.22638904128E+02 -0.16641637493E+02  0.35222194449E+02  0.45300740175E+02  0.47000000000E+01 0.  1.
         13    1    6    6    0    0  0.17109101684E+02  0.14858635738E+02 -0.34451584806E+02  0.41236053546E+02  0.00000000000E+00 0. -1.
        -14    1    6    6    0    0 -0.50330057776E+02 -0.48256300989E+02 -0.10968595811E+03  0.12997228438E+03  0.00000000000E+00 0.  1.
<mgrwt>
<rscale>  2 0.18769778E+03</rscale>
<asrwt>0</asrwt>
<pdfrwt beam="1">  1       21 0.92597234E-02 0.18789101E+03</pdfrwt>
<pdfrwt beam="2">  1       21 0.23747792E+00 0.18789101E+03</pdfrwt>
<totfact> 0.73626908E+03</totfact>
</mgrwt>
</event>
<event>
12    1  0.1039378E-001  0.2658533E+03  0.7546771E-02  0.1103727E+00
         21   -1    0    0  503  502  0.00000000000E+00  0.00000000000E+00  0.18871777562E+03  0.18871777562E+03  0.00000000000E+00 0. -1.
         21   -1    0    0  501  503 -0.00000000000E+00 -0.00000000000E+00 -0.47947427392E+03  0.47947427392E+03  0.00000000000E+00 0.  1.
          6    2    1    2  501    0  0.19534206003E+03  0.50498935383E+02 -0.30197959737E+03  0.40210198243E+03  0.17258523734E+03 0.  0.
         24    2    3    3    0    0  0.93557102369E+02 -0.37389300991E+02 -0.16978039523E+03  0.21346678224E+03  0.81189859503E+02 0.  0.
         -6    2    1    2    0  502 -0.19534206003E+03 -0.50498935383E+02  0.11223099078E+02  0.26609006711E+03  0.17311644338E+03 0.  0.
        -24    2    5    5    0    0 -0.72626636897E+02 -0.16305829618E+02 -0.47441935245E+02  0.12576216607E+03  0.89581676303E+02 0.  0.
          5    1    3    3  501    0  0.10178495766E+03  0.87888236375E+02 -0.13219920215E+03  0.18863520018E+03  0.47000000000E+01 0. -1.
        -13    1    4    4    0    0  0.32999666389E+02  0.15140381501E+02 -0.10272897892E+03  0.10895619415E+03  0.00000000000E+00 0.  1.
         14    1    4    4    0    0  0.60557435980E+02 -0.52529682492E+02 -0.67051416308E+02  0.10451058810E+03  0.00000000000E+00 0. -1.
         -5    1    5    5    0  502 -0.12271542313E+03 -0.34193105765E+02  0.58665034323E+02  0.14032790104E+03  0.47000000000E+01 0.  1.
         11    1    6    6    0    0  0.52398007644E+01  0.19775412401E+02  0.97184832885E+01  0.22648871166E+02  0.00000000000E+00 0. -1.
        -12    1    6    6    0    0 -0.77866437661E+02 -0.36081242019E+02 -0.57160418534E+02  0.10311329491E+03  0.00000000000E+00 0.  1.
<mgrwt>
<rscale>  2 0.26576684E+03</rscale>
<asrwt>0</asrwt>
<pdfrwt beam="1">  1       21 0.29033504E-01 0.26585328E+03</pdfrwt>
<pdfrwt beam="2">  1       21 0.73765273E-01 0.26585328E+03</pdfrwt>
<totfact> 0.18007488E+04</totfact>
</mgrwt>
</event>
<event>
12    1  0.1039378E-001  0.1966141E+03  0.7546771E-02  0.1152713E+00
         21   -1    0    0  501  502  0.00000000000E+00  0.00000000000E+00  0.24335646789E+03  0.24335646789E+03  0.00000000000E+00 0.  1.
         21   -1    0    0  502  503 -0.00000000000E+00 -0.00000000000E+00 -0.24973167630E+03  0.24973167630E+03  0.00000000000E+00 0. -1.
         -6    2    1    2    0  503  0.88733612546E+02  0.27798664365E+02 -0.15217732242E+03  0.24831202646E+03  0.17278456323E+03 0.  0.
        -24    2    3    3    0    0  0.64996572416E+02  0.73163083506E+02 -0.15181632985E+03  0.19689609592E+03  0.78373996740E+02 0.  0.
          6    2    1    2  501    0 -0.88733612546E+02 -0.27798664365E+02  0.14580211400E+03  0.24477611773E+03  0.17323588436E+03 0.  0.
         24    2    5    5    0    0 -0.83046244439E+02  0.27471483858E+02  0.14198661392E+03  0.18888530023E+03  0.88691019661E+02 0.  0.
          5    1    5    5  501    0 -0.56873681068E+01 -0.55270148223E+02  0.38155000810E+01  0.55890817506E+02  0.47000000000E+01 0. -1.
        -13    1    6    6    0    0 -0.77490971182E+02  0.49633932377E+02  0.76966453922E+02  0.11996754931E+03  0.00000000000E+00 0.  1.
         14    1    6    6    0    0 -0.55552732567E+01 -0.22162448519E+02  0.65020160001E+02  0.68917750920E+02  0.00000000000E+00 0. -1.
         -5    1    3    3    0  503  0.23737040130E+02 -0.45364419141E+02 -0.36099256744E+00  0.51415930544E+02  0.47000000000E+01 0.  1.
         13    1    4    4    0    0  0.44677937641E+02  0.48199541910E+02 -0.15101786675E+03  0.16469884648E+03  0.00000000000E+00 0. -1.
        -14    1    4    4    0    0  0.20318634775E+02  0.24963541596E+02 -0.79846309353E+00  0.32197249439E+02  0.00000000000E+00 0.  1.
<mgrwt>
<rscale>  2 0.19651461E+03</rscale>
<asrwt>0</asrwt>
<pdfrwt beam="1">  1       21 0.37439457E-01 0.19661407E+03</pdfrwt>
<pdfrwt beam="2">  1       21 0.38420258E-01 0.19661407E+03</pdfrwt>
<totfact> 0.44860528E+04</totfact>
</mgrwt>
</event>
<event>
12    1  0.1039378E-001  0.2129522E+03  0.7546771E-02  0.1139412E+00
         21   -1    0    0  501  502  0.00000000000E+00  0.00000000000E+00  0.83162227195E+02  0.83162227195E+02  0.00000000000E+00 0. -1.
         21   -1    0    0  502  503 -0.00000000000E+00 -0.00000000000E+00 -0.88425269070E+03  0.88425269070E+03  0.00000000000E+00 0.  1.
         -6    2    1    2    0  503  0.11646244487E+03  0.41665528223E+02 -0.70144702083E+03  0.73305972677E+03  0.17334682766E+03 0.  0.
        -24    2    3    3    0    0  0.13888689709E+03  0.55255020128E+02 -0.67317955868E+03  0.69421812839E+03  0.80158618562E+02 0.  0.
          6    2    1    2  501    0 -0.11646244487E+03 -0.41665528223E+02 -0.99643442670E+02  0.23435519113E+03  0.17231953643E+03 0.  0.
         24    2    5    5    0    0 -0.92813631341E+02 -0.10158144863E+02 -0.13394199283E+03  0.18191034266E+03  0.80208211877E+02 0.  0.
          5    1    5    5  501    0 -0.23648813527E+02 -0.31507383360E+02  0.34298550165E+02  0.52444848468E+02  0.47000000000E+01 0. -1.
        -11    1    6    6    0    0 -0.28630018032E+02 -0.48004829705E+01 -0.10907130693E+03  0.11286838603E+03  0.00000000000E+00 0.  1.
         12    1    6    6    0    0 -0.64183613308E+02 -0.53576618928E+01 -0.24870685906E+02  0.69041956633E+02  0.00000000000E+00 0. -1.
         -5    1    3    3    0  503 -0.22424452221E+02 -0.13589491905E+02 -0.28267462155E+02  0.38841598375E+02  0.47000000000E+01 0.  1.
         13    1    4    4    0    0  0.56364527786E+02  0.11752389091E+01 -0.12357128179E+03  0.13582416155E+03  0.00000000000E+00 0. -1.
        -14    1    4    4    0    0  0.82522369303E+02  0.54079781219E+02 -0.54960827689E+03  0.55839396684E+03  0.00000000000E+00 0.  1.
<mgrwt>
<rscale>  2 0.21274304E+03</rscale>
<asrwt>0</asrwt>
<pdfrwt beam="1">  1       21 0.12794189E-01 0.21295220E+03</pdfrwt>
<pdfrwt beam="2">  1       21 0.13603887E+00 0.21295220E+03</pdfrwt>
<totfact> 0.19890423E+04</totfact>
</mgrwt>
</event>
<event>
12    1  0.1039378E-001  0.3613302E+03  0.7546771E-02  0.1058144E+00
         21   -1    0    0  501  502  0.00000000000E+00  0.00000000000E+00  0.78642323370E+03  0.78642323370E+03  0.00000000000E+00 0. -1.
         21   -1    0    0  502  503 -0.00000000000E+00 -0.00000000000E+00 -0.28108412812E+03  0.28108412812E+03  0.00000000000E+00 0.  1.
         -6    2    1    2    0  503 -0.28000773402E+03  0.14745024656E+03 -0.89247175268E+02  0.37218887079E+03  0.17439492804E+03 0.  0.
        -24    2    3    3    0    0 -0.27111349237E+03  0.16482109984E+03 -0.10651733840E+03  0.34570864019E+03  0.86602539377E+02 0.  0.
          6    2    1    2  501    0  0.28000773402E+03 -0.14745024656E+03  0.59458628084E+03  0.69531849103E+03  0.17259505286E+03 0.  0.
         24    2    5    5    0    0  0.10395342791E+03 -0.60030101826E+02  0.14505781813E+03  0.20467062423E+03  0.80239426227E+02 0.  0.
          5    1    5    5  501    0  0.17605430611E+03 -0.87420144739E+02  0.44952846271E+03  0.49064786680E+03  0.47000000000E+01 0. -1.
        -13    1    6    6    0    0 -0.13200115969E+02 -0.10276881233E+02  0.12371216829E+02  0.20806353724E+02  0.00000000000E+00 0.  1.
         14    1    6    6    0    0  0.11715354388E+03 -0.49753220593E+02  0.13268660131E+03  0.18386427050E+03  0.00000000000E+00 0. -1.
         -5    1    3    3    0  503 -0.88942416473E+01 -0.17370853277E+02  0.17270163127E+02  0.26480230597E+02  0.47000000000E+01 0.  1.
         11    1    4    4    0    0 -0.13939591657E+02 -0.58858397654E+01 -0.20114635944E+02  0.25170496707E+02  0.00000000000E+00 0. -1.
        -12    1    4    4    0    0 -0.25717390071E+03  0.17070693961E+03 -0.86402702451E+02  0.32053814349E+03  0.00000000000E+00 0.  1.
<mgrwt>
<rscale>  2 0.36111367E+03</rscale>
<asrwt>0</asrwt>
<pdfrwt beam="1">  1       21 0.12098819E+00 0.36133018E+03</pdfrwt>
<pdfrwt beam="2">  1       21 0.43243712E-01 0.36133018E+03</pdfrwt>
<totfact> 0.23830080E+03</totfact>
</mgrwt>
</event>
<event>
12    1  0.1039378E-001  0.2095896E+03  0.7546771E-02  0.1142463E+00
         21   -1    0    0  503  502  0.00000000000E+00  0.00000000000E+00  0.26318686293E+03  0.26318686293E+03  0.00000000000E+00 0.  1.
         21   -1    0    0  501  503 -0.00000000000E+00 -0.00000000000E+00 -0.17134994881E+03  0.17134994881E+03  0.00000000000E+00 0. -1.
          6    2    1    2  501    0  0.94263367646E+02  0.69859576049E+02  0.89226788280E+02  0.22779205810E+03  0.17367169930E+03 0.  0.
         24    2    3    3    0    0  0.12150269728E+03  0.84389603903E+02  0.44322883084E+02  0.17309696243E+03  0.78189064098E+02 0.  0.
         -6    2    1    2    0  502 -0.94263367646E+02 -0.69859576049E+02  0.26101258387E+01  0.20674475365E+03  0.17020763073E+03 0.  0.
        -24    2    5    5    0    0 -0.80314573429E+02 -0.80969444130E+02 -0.51879630583E+02  0.14921891959E+03  0.81045100452E+02 0.  0.
          5    1    3    3  501    0 -0.27239329631E+02 -0.14530027854E+02  0.44903905195E+02  0.54695095667E+02  0.47000000000E+01 0. -1.
        -13    1    4    4    0    0  0.11469111102E+03  0.43128682667E+02  0.46893032698E+02  0.13119866893E+03  0.00000000000E+00 0.  1.
         14    1    4    4    0    0  0.68115862610E+01  0.41260921236E+02 -0.25701496135E+01  0.41898293494E+02  0.00000000000E+00 0. -1.
         -5    1    5    5    0  502 -0.13948794218E+02  0.11109868082E+02  0.54489756422E+02  0.57525834056E+02  0.47000000000E+01 0.  1.
         13    1    6    6    0    0 -0.23802177455E+02 -0.26359627200E+01 -0.46708516308E+02  0.52489784213E+02  0.00000000000E+00 0. -1.
        -14    1    6    6    0    0 -0.56512395973E+02 -0.78333481410E+02 -0.51711142754E+01  0.96729135380E+02  0.00000000000E+00 0.  1.
<mgrwt>
<rscale>  2 0.20887058E+03</rscale>
<asrwt>0</asrwt>
<pdfrwt beam="1">  1       21 0.40490287E-01 0.20958960E+03</pdfrwt>
<pdfrwt beam="2">  1       21 0.26361531E-01 0.20958960E+03</pdfrwt>
<totfact> 0.79843720E+04</totfact>
</mgrwt>
</event>
<event>
12    1  0.1039378E-001  0.2745041E+03  0.7546771E-02  0.1098993E+00
         21   -1    0    0  501  502  0.00000000000E+00  0.00000000000E+00  0.11448081203E+03  0.11448081203E+03  0.00000000000E+00 0.  1.
         21   -1    0    0  502  503 -0.00000000000E+00 -0.00000000000E+00 -0.65643871580E+03  0.65643871580E+03  0.00000000000E+00 0. -1.
         -6    2    1    2    0  503  0.93783342197E+02 -0.18954331133E+03 -0.29484448542E+03  0.40157206361E+03  0.17206065659E+03 0.  0.
        -24    2    3    3    0    0  0.12958509695E+03 -0.12964147028E+03 -0.24240197131E+03  0.31415179427E+03  0.79582824670E+02 0.  0.
          6    2    1    2  501    0 -0.93783342197E+02  0.18954331133E+03 -0.24711341835E+03  0.36934746422E+03  0.17501578687E+03 0.  0.
         24    2    5    5    0    0  0.10816230514E+02  0.45828280240E+02 -0.11271874826E+03  0.14645937993E+03  0.80793636179E+02 0.  0.
          5    1    5    5  501    0 -0.10459957271E+03  0.14371503109E+03 -0.13439467009E+03  0.22288808430E+03  0.47000000000E+01 0. -1.
        -13    1    6    6    0    0 -0.16680573890E+02 -0.17454015501E+02 -0.23701684953E+02  0.33832736691E+02  0.00000000000E+00 0.  1.
         14    1    6    6    0    0  0.27496804405E+02  0.63282295741E+02 -0.89017063305E+02  0.11262664323E+03  0.00000000000E+00 0. -1.
         -5    1    3    3    0  503 -0.35801754754E+02 -0.59901841051E+02 -0.52442514116E+02  0.87420269340E+02  0.47000000000E+01 0.  1.
         11    1    4    4    0    0  0.28680282251E+02 -0.70096961865E+02 -0.56828791872E+02  0.94687138717E+02  0.00000000000E+00 0. -1.
        -12    1    4    4    0    0  0.10090481470E+03 -0.59544508412E+02 -0.18557317944E+03  0.21946465555E+03  0.00000000000E+00 0.  1.
<mgrwt>
<rscale>  2 0.27403426E+03</rscale>
<asrwt>0</asrwt>
<pdfrwt beam="1">  1       21 0.17612433E-01 0.27450411E+03</pdfrwt>
<pdfrwt beam="2">  1       21 0.10099057E+00 0.27450411E+03</pdfrwt>
<totfact> 0.22452119E+04</totfact>
</mgrwt>
</event>
<event>
12    1  0.1039378E-001  0.2181047E+03  0.7546771E-02  0.1135655E+00
         21   -1    0    0  501  502  0.00000000000E+00  0.00000000000E+00  0.11223579407E+04  0.11223579407E+04  0.00000000000E+00 0.  1.
         21   -1    0    0  502  503 -0.00000000000E+00 -0.00000000000E+00 -0.76423514430E+02  0.76423514430E+02  0.00000000000E+00 0. -1.
         -6    2    1    2    0  503  0.11486746739E+03 -0.63176009642E+02  0.92632355506E+03  0.95165382668E+03  0.17430987902E+03 0.  0.
        -24    2    3    3    0    0  0.13133534717E+02  0.14789437294E+02  0.36537323528E+03  0.37622724124E+03  0.87510678220E+02 0.  0.
          6    2    1    2  501    0 -0.11486746739E+03  0.63176009642E+02  0.11961087117E+03  0.24712762841E+03  0.17198709533E+03 0.  0.
         24    2    5    5    0    0 -0.27127853248E+01  0.63450568816E+02  0.72339995119E+02  0.12532707909E+03  0.80252526261E+02 0.  0.
          5    1    5    5  501    0 -0.11215468207E+03 -0.27455917359E+00  0.47270876049E+02  0.12180054932E+03  0.47000000000E+01 0. -1.
        -13    1    6    6    0    0  0.47521176910E+01 -0.23006896403E+01  0.57200526531E+02  0.57443677031E+02  0.00000000000E+00 0.  1.
         14    1    6    6    0    0 -0.74649030158E+01  0.65751258456E+02  0.15139468588E+02  0.67883402056E+02  0.00000000000E+00 0. -1.
         -5    1    3    3    0  503  0.10173393267E+03 -0.77965446936E+02  0.56095031978E+03  0.57542658544E+03  0.47000000000E+01 0.  1.
         11    1    4    4    0    0  0.33771775505E+02  0.17560904375E+02  0.66454425924E+02  0.76583999035E+02  0.00000000000E+00 0. -1.
        -12    1    4    4    0    0 -0.20638240788E+02 -0.27714670815E+01  0.29891880935E+03  0.29964324220E+03  0.00000000000E+00 0.  1.
<mgrwt>
<rscale>  2 0.21764029E+03</rscale>
<asrwt>0</asrwt>
<pdfrwt beam="1">  1       21 0.17267044E+00 0.21810474E+03</pdfrwt>
<pdfrwt beam="2">  1       21 0.11757465E-01 0.21810474E+03</pdfrwt>
<totfact> 0.12207149E+04</totfact>
</mgrwt>
</event>
<event>
12    1  0.1039378E-001  0.1733209E+03  0.7546771E-02  0.1177422E+00
         21   -1    0    0  501  502  0.00000000000E+00  0.00000000000E+00  0.35268126096E+02  0.35268126096E+02  0.00000000000E+00 0. -1.
         21   -1    0    0  502  503 -0.00000000000E+00 -0.00000000000E+00 -0.11359235845E+04  0.11359235845E+04  0.00000000000E+00 0. -1.
         -6    2    1    2    0  503  0.55584519255E+01  0.97346896668E+01 -0.88320747370E+03  0.90005310040E+03  0.17295803354E+03 0.  0.
        -24    2    3    3    0    0  0.51639258057E+01 -0.52521961813E+02 -0.69751238445E+03  0.70414291058E+03  0.80675209650E+02 0.  0.
          6    2    1    2  501    0 -0.55584519255E+01 -0.97346896668E+01 -0.21744798468E+03  0.27113861018E+03  0.16157617187E+03 0.  0.
         24    2    5    5    0    0  0.14237166593E+01  0.45749389495E+02 -0.94868854842E+02  0.13632404571E+03  0.86539656878E+02 0.  0.
          5    1    5    5  501    0 -0.69821685847E+01 -0.55484079162E+02 -0.12257912984E+03  0.13481456446E+03  0.47000000000E+01 0. -1.
        -11    1    6    6    0    0  0.37798505002E+02  0.11601737627E+02 -0.70427136305E+02  0.80767003315E+02  0.00000000000E+00 0.  1.
         12    1    6    6    0    0 -0.36374788342E+02  0.34147651869E+02 -0.24441718537E+02  0.55557042399E+02  0.00000000000E+00 0. -1.
         -5    1    3    3    0  503  0.39452611977E+00  0.62256651480E+02 -0.18569508925E+03  0.19591018982E+03  0.47000000000E+01 0.  1.
         11    1    4    4    0    0  0.13966408298E+02  0.18161792926E+02 -0.11243302858E+03  0.11474361507E+03  0.00000000000E+00 0. -1.
        -12    1    4    4    0    0 -0.88024824918E+01 -0.70683754739E+02 -0.58507935587E+03  0.58939929551E+03  0.00000000000E+00 0.  1.
<mgrwt>
<rscale>  2 0.17040928E+03</rscale>
<asrwt>0</asrwt>
<pdfrwt beam="1">  1       21 0.54258658E-02 0.17332092E+03</pdfrwt>
<pdfrwt beam="2">  1       21 0.17475747E+00 0.17332092E+03</pdfrwt>
<totfact> 0.46841998E+04</totfact>
</mgrwt>
</event>
<event>
12    1  0.1039378E-001  0.2127718E+03  0.7546771E-02  0.1140453E+00
         21   -1    0    0  501  502  0.00000000000E+00  0.00000000000E+00  0.73141693259E+03  0.73141693259E+03  0.00000000000E+00 0.  1.
         21   -1    0    0  502  503 -0.00000000000E+00 -0.00000000000E+00 -0.15317589132E+03  0.15317589132E+03  0.00000000000E+00 0.  1.
         -6    2    1    2    0  503  0.17030523718E+02 -0.11364697389E+03 -0.56664457887E+02  0.21498334603E+03  0.17263054443E+03 0.  0.
        -24    2    3    3    0    0 -0.20259807133E+02 -0.12659420817E+02 -0.39679861287E+01  0.95033094727E+02  0.91895720569E+02 0.  0.
          6    2    1    2  501    0 -0.17030523718E+02  0.11364697389E+03  0.63490549916E+03  0.66960947788E+03  0.17907033979E+03 0.  0.
         24    2    5    5    0    0 -0.23553864558E+02  0.13516627822E+03  0.62473742666E+03  0.64448749284E+03  0.79009928828E+02 0.  0.
          5    1    5    5  501    0  0.65233408402E+01 -0.21519304321E+02  0.10168072499E+02  0.25121985043E+02  0.47000000000E+01 0. -1.
        -11    1    6    6    0    0 -0.27545081469E+02  0.12532735406E+03  0.41279539736E+03  0.43227967483E+03  0.00000000000E+00 0.  1.
         12    1    6    6    0    0  0.39912169109E+01  0.98389241603E+01  0.21194202930E+03  0.21220781801E+03  0.00000000000E+00 0. -1.
         -5    1    3    3    0  503  0.37290330851E+02 -0.10098755308E+03 -0.52696471758E+02  0.11995025130E+03  0.47000000000E+01 0.  1.
         13    1    4    4    0    0 -0.53028930532E+02 -0.19600839954E+02 -0.17084227457E+02  0.59060403216E+02  0.00000000000E+00 0. -1.
        -14    1    4    4    0    0  0.32769123398E+02  0.69414191369E+01  0.13116241328E+02  0.35972691511E+02  0.00000000000E+00 0.  1.
<mgrwt>
<rscale>  2 0.21141120E+03</rscale>
<asrwt>0</asrwt>
<pdfrwt beam="1">  1       21 0.11252568E+00 0.21277185E+03</pdfrwt>
<pdfrwt beam="2">  1       21 0.23565522E-01 0.21277185E+03</pdfrwt>
<totfact> 0.10331023E+04</totfact>
</mgrwt>
</event>
<event>
12    1  0.1039378E-001  0.2482857E+03  0.7546771E-02  0.1114580E+00
         21   -1    0    0  501  502  0.00000000000E+00  0.00000000000E+00  0.12726089141E+04  0.12726089141E+04  0.00000000000E+00 0. -1.
         21   -1    0    0  502  503 -0.00000000000E+00 -0.00000000000E+00 -0.69914561036E+02  0.69914561036E+02  0.00000000000E+00 0.  1.
         -6    2    1    2    0  503  0.14927107017E+03 -0.97888539490E+02  0.22833868221E+03  0.33731932131E+03  0.17257390355E+03 0.  0.
        -24    2    3    3    0    0  0.29444710229E+02 -0.65110690428E+01  0.36518663234E+02  0.93341436413E+02  0.80433985396E+02 0.  0.
          6    2    1    2  501    0 -0.14927107017E+03  0.97888539490E+02  0.97435567084E+03  0.10052041538E+04  0.17088709426E+03 0.  0.
         24    2    5    5    0    0 -0.10639139838E+03  0.12190700263E+03  0.88379979229E+03  0.90206342488E+03  0.80224078145E+02 0.  0.
          5    1    5    5  501    0 -0.42879671783E+02 -0.24018463140E+02  0.90555878550E+02  0.10314072893E+03  0.47000000000E+01 0. -1.
        -11    1    6    6    0    0 -0.43672286472E+02  0.10092694288E+03  0.64349389063E+03  0.65282302631E+03  0.00000000000E+00 0.  1.
         12    1    6    6    0    0 -0.62719111910E+02  0.20980059754E+02  0.24030590166E+03  0.24924039857E+03  0.00000000000E+00 0. -1.
         -5    1    3    3    0  503  0.11982635994E+03 -0.91377470447E+02  0.19182001897E+03  0.24397788490E+03  0.47000000000E+01 0.  1.
         11    1    4    4    0    0  0.58511202507E+01 -0.38432674006E+02  0.36965222626E+02  0.53644512517E+02  0.00000000000E+00 0. -1.
        -12    1    4    4    0    0  0.23593589978E+02  0.31921604963E+02 -0.44655939215E+00  0.39696923895E+02  0.00000000000E+00 0.  1.
<mgrwt>
<rscale>  2 0.24799278E+03</rscale>
<asrwt>0</asrwt>
<pdfrwt beam="1">  1       21 0.19578597E+00 0.24828566E+03</pdfrwt>
<pdfrwt beam="2">  1       21 0.10756087E-01 0.24828566E+03</pdfrwt>
<totfact> 0.97757762E+03</totfact>
</mgrwt>
</event>
<event>
12    1  0.1039378E-001  0.2055369E+03  0.7546771E-02  0.1145569E+00
         21   -1    0    0  501  502  0.00000000000E+00  0.00000000000E+00  0.37267790061E+03  0.37267790061E+03  0.00000000000E+00 0.  1.
         21   -1    0    0  502  503 -0.00000000000E+00 -0.00000000000E+00 -0.12331187531E+03  0.12331187531E+03  0.00000000000E+00 0. -1.
         -6    2    1    2    0  503  0.80589763018E+01  0.11145104705E+03  0.50906441629E+02  0.21174718159E+03  0.17250831900E+03 0.  0.
        -24    2    3    3    0    0 -0.52710426030E+02  0.54405773350E+02 -0.64938007452E+01  0.11043597127E+03  0.80097172964E+02 0.  0.
          6    2    1    2  501    0 -0.80589763018E+01 -0.11145104705E+03  0.19845958366E+03  0.28424259433E+03  0.17006282103E+03 0.  0.
         24    2    5    5    0    0 -0.30745852610E+02 -0.88109481105E+02  0.53668017963E+02  0.13576293055E+03  0.82720789687E+02 0.  0.
          5    1    5    5  501    0  0.22686876309E+02 -0.23341565944E+02  0.14479156570E+03  0.14847966378E+03  0.47000000000E+01 0. -1.
        -13    1    6    6    0    0  0.56790212151E+01 -0.37550406105E+01 -0.17993888022E+02  0.19238805007E+02  0.00000000000E+00 0.  1.
         14    1    6    6    0    0 -0.36424873826E+02 -0.84354440495E+02  0.71661905986E+02  0.11652412554E+03  0.00000000000E+00 0. -1.
         -5    1    3    3    0  503  0.60769402332E+02  0.57045273699E+02  0.57400242374E+02  0.10131121032E+03  0.47000000000E+01 0.  1.
         11    1    4    4    0    0  0.97745185716E+01  0.13066640959E+02 -0.28070577024E+02  0.32468994652E+02  0.00000000000E+00 0. -1.
        -12    1    4    4    0    0 -0.62484944602E+02  0.41339132391E+02  0.21576776279E+02  0.77966976620E+02  0.00000000000E+00 0.  1.
<mgrwt>
<rscale>  2 0.20502290E+03</rscale>
<asrwt>0</asrwt>
<pdfrwt beam="1">  1       21 0.57335061E-01 0.20553687E+03</pdfrwt>
<pdfrwt beam="2">  1       21 0.18971058E-01 0.20553687E+03</pdfrwt>
<totfact> 0.72319493E+04</totfact>
</mgrwt>
</event>
<event>
12    1  0.1039378E-001  0.1925122E+03  0.7546771E-02  0.1156393E+00
         21   -1    0    0  501  502  0.00000000000E+00  0.00000000000E+00  0.59411792190E+03  0.59411792190E+03  0.00000000000E+00 0. -1.
         21   -1    0    0  502  503 -0.00000000000E+00 -0.00000000000E+00 -0.63992958954E+02  0.63992958954E+02  0.00000000000E+00 0. -1.
         -6    2    1    2    0  503 -0.53890649662E+02 -0.63645032238E+02  0.20823399430E+03  0.28304458058E+03  0.17262081556E+03 0.  0.
        -24    2    3    3    0    0 -0.82153725358E+02 -0.45205147250E+01  0.83350082012E+02  0.14193259822E+03  0.80174538485E+02 0.  0.
          6    2    1    2  501    0  0.53890649662E+02  0.63645032238E+02  0.32189096865E+03  0.37506630027E+03  0.17351092662E+03 0.  0.
         24    2    5    5    0    0 -0.32565715739E+02  0.47575790233E+02  0.21332957740E+03  0.23527864229E+03  0.80762301002E+02 0.  0.
          5    1    5    5  501    0  0.86456365400E+02  0.16069242005E+02  0.10856139124E+03  0.13978765799E+03  0.47000000000E+01 0. -1.
        -13    1    6    6    0    0  0.15903285065E+02  0.45724581777E+02  0.81309733111E+02  0.94630463135E+02  0.00000000000E+00 0.  1.
         14    1    6    6    0    0 -0.48469000804E+02  0.18512084564E+01  0.13201984429E+03  0.14064817915E+03  0.00000000000E+00 0. -1.
         -5    1    3    3    0  503  0.28263075696E+02 -0.59124517514E+02  0.12488391229E+03  0.14111198237E+03  0.47000000000E+01 0.  1.
         13    1    4    4    0    0 -0.73364925249E+02  0.63993608822E+01  0.18974566441E+02  0.76048657109E+02  0.00000000000E+00 0. -1.
        -14    1    4    4    0    0 -0.87888001086E+01 -0.10919875607E+02  0.64375515571E+02  0.65883941106E+02  0.00000000000E+00 0.  1.
<mgrwt>
<rscale>  2 0.19231138E+03</rscale>
<asrwt>0</asrwt>
<pdfrwt beam="1">  1       21 0.91402754E-01 0.19251217E+03</pdfrwt>
<pdfrwt beam="2">  1       21 0.98450710E-02 0.19251217E+03</pdfrwt>
<totfact> 0.84556008E+04</totfact>
</mgrwt>
</event>
<event>
12    1  0.1039378E-001  0.1972401E+03  0.7546771E-02  0.1152119E+00
         21   -1    0    0  501  502  0.00000000000E+00  0.00000000000E+00  0.30950690569E+03  0.30950690569E+03  0.00000000000E+00 0. -1.
         21   -1    0    0  502  503 -0.00000000000E+00 -0.00000000000E+00 -0.14083255773E+03  0.14083255773E+03  0.00000000000E+00 0.  1.
         -6    2    1    2    0  503  0.63174439834E+02  0.70598097949E+02  0.15840416545E+03  0.25297337600E+03  0.17299869379E+03 0.  0.
        -24    2    3    3    0    0  0.23594257049E+02  0.60974145496E+02  0.17892744676E+03  0.20712028008E+03  0.81297255994E+02 0.  0.
          6    2    1    2  501    0 -0.63174439834E+02 -0.70598097949E+02  0.10270182514E+02  0.19736608741E+03  0.17283748011E+03 0.  0.
         24    2    5    5    0    0 -0.27505371031E+02 -0.67672473098E+02 -0.52994042918E+02  0.12452863846E+03  0.85807366596E+02 0.  0.
          5    1    5    5  501    0 -0.35669068804E+02 -0.29256248506E+01  0.63264225432E+02  0.72837448950E+02  0.47000000000E+01 0. -1.
        -11    1    6    6    0    0 -0.31652167943E+02 -0.87141782505E+02 -0.45300039152E+02  0.10318741949E+03  0.00000000000E+00 0.  1.
         12    1    6    6    0    0  0.41467969124E+01  0.19469309406E+02 -0.76940037657E+01  0.21341218975E+02  0.00000000000E+00 0. -1.
         -5    1    3    3    0  503  0.39580182785E+02  0.96239524534E+01 -0.20523281308E+02  0.45853095924E+02  0.47000000000E+01 0.  1.
         13    1    4    4    0    0 -0.73960199240E+01 -0.66219029817E+01 -0.31730148128E+01  0.10422031127E+02  0.00000000000E+00 0. -1.
        -14    1    4    4    0    0  0.30990276973E+02  0.67596048477E+02  0.18210046157E+03  0.19669824895E+03  0.00000000000E+00 0.  1.
<mgrwt>
<rscale>  2 0.19720472E+03</rscale>
<asrwt>0</asrwt>
<pdfrwt beam="1">  1       21 0.47616447E-01 0.19724008E+03</pdfrwt>
<pdfrwt beam="2">  1       21 0.21666547E-01 0.19724008E+03</pdfrwt>
<totfact> 0.83623286E+04</totfact>
</mgrwt>
</event>
<event>
12    1  0.1039378E-001  0.1718882E+03  0.7546771E-02  0.1178018E+00
         21   -1    0    0  501  502  0.00000000000E+00  0.00000000000E+00  0.15006887410E+03  0.15006887410E+03  0.00000000000E+00 0.  1.
         21   -1    0    0  502  503 -0.00000000000E+00 -0.00000000000E+00 -0.18863425671E+03  0.18863425671E+03  0.00000000000E+00 0.  1.
         -6    2    1    2    0  503 -0.25496604823E+02 -0.11271915551E+01 -0.30361789474E+02  0.16661930413E+03  0.16182956106E+03 0.  0.
        -24    2    3    3    0    0 -0.35710088606E+02 -0.57904709622E+02 -0.22461043231E+02  0.10820258050E+03  0.81087200836E+02 0.  0.
          6    2    1    2  501    0  0.25496604823E+02  0.11271915551E+01 -0.82035931426E+01  0.17208382668E+03  0.16998293163E+03 0.  0.
         24    2    5    5    0    0  0.43491656466E+02 -0.57162502811E+02  0.34697715381E+01  0.10979524188E+03  0.82969150388E+02 0.  0.
          5    1    5    5  501    0 -0.17995051642E+02  0.58289694366E+02 -0.11673364681E+02  0.62288584796E+02  0.47000000000E+01 0. -1.
        -11    1    6    6    0    0  0.59436492251E+02 -0.19693068959E+02 -0.16048817047E+02  0.64638054618E+02  0.00000000000E+00 0.  1.
         12    1    6    6    0    0 -0.15944835786E+02 -0.37469433852E+02  0.19518588585E+02  0.45157187266E+02  0.00000000000E+00 0. -1.
         -5    1    3    3    0  503  0.10213483783E+02  0.56777518067E+02 -0.79007462429E+01  0.58416723633E+02  0.47000000000E+01 0.  1.
         13    1    4    4    0    0  0.65898290185E+01 -0.28077867298E+02  0.24857190222E+02  0.38074563481E+02  0.00000000000E+00 0. -1.
        -14    1    4    4    0    0 -0.42299917625E+02 -0.29826842324E+02 -0.47318233453E+02  0.70128017020E+02  0.00000000000E+00 0.  1.
<mgrwt>
<rscale>  2 0.16983712E+03</rscale>
<asrwt>0</asrwt>
<pdfrwt beam="1">  1       21 0.23087519E-01 0.17188817E+03</pdfrwt>
<pdfrwt beam="2">  1       21 0.29020655E-01 0.17188817E+03</pdfrwt>
<totfact> 0.20149007E+05</totfact>
</mgrwt>
</event>
<event>
12    1  0.1039378E-001  0.2129717E+03  0.7546771E-02  0.1139671E+00
         21   -1    0    0  503  502  0.00000000000E+00  0.00000000000E+00  0.23277918295E+04  0.23277918295E+04  0.00000000000E+00 0.  1.
         21   -1    0    0  501  503 -0.00000000000E+00 -0.00000000000E+00 -0.52933924312E+02  0.52933924312E+02  0.00000000000E+00 0.  1.
          6    2    1    2  501    0  0.58855190206E+02 -0.10692548178E+03  0.18611920168E+03  0.28115762345E+03  0.17179132668E+03 0.  0.
         24    2    3    3    0    0  0.85577387422E+02 -0.61747511958E+02  0.61835093653E+02  0.14616223727E+03  0.80022348919E+02 0.  0.
         -6    2    1    2    0  502 -0.58855190206E+02  0.10692548178E+03  0.20887387036E+04  0.20995681304E+04  0.17452785001E+03 0.  0.
        -24    2    5    5    0    0 -0.24709259050E+02  0.64155547526E+01  0.50898641745E+03  0.51624644310E+03  0.82410618488E+02 0.  0.
          5    1    3    3  501    0 -0.26722197216E+02 -0.45177969821E+02  0.12428410803E+03  0.13499538618E+03  0.47000000000E+01 0. -1.
        -13    1    4    4    0    0  0.11578617425E+02  0.19322336854E+02  0.79753673019E+01  0.23896099401E+02  0.00000000000E+00 0.  1.
         14    1    4    4    0    0  0.73998769997E+02 -0.81069848812E+02  0.53859726351E+02  0.12226613787E+03  0.00000000000E+00 0. -1.
         -5    1    5    5    0  502 -0.34145931156E+02  0.10050992703E+03  0.15797522861E+04  0.15833216873E+04  0.47000000000E+01 0.  1.
         11    1    6    6    0    0  0.47318443701E+01  0.38997199788E+02  0.30955740160E+03  0.31203999235E+03  0.00000000000E+00 0. -1.
        -12    1    6    6    0    0 -0.29441103420E+02 -0.32581645036E+02  0.19942901585E+03  0.20420645075E+03  0.00000000000E+00 0.  1.
<mgrwt>
<rscale>  2 0.21241035E+03</rscale>
<asrwt>0</asrwt>
<pdfrwt beam="1">  1       21 0.35812174E+00 0.21297174E+03</pdfrwt>
<pdfrwt beam="2">  1       21 0.81436825E-02 0.21297174E+03</pdfrwt>
<totfact> 0.17721034E+03</totfact>
</mgrwt>
</event>
<event>
12    1  0.1039378E-001  0.1892893E+03  0.7546771E-02  0.1161698E+00
         21   -1    0    0  501  502  0.00000000000E+00  0.00000000000E+00  0.61298163370E+03  0.61298163370E+03  0.00000000000E+00 0. -1.
         21   -1    0    0  502  503 -0.00000000000E+00 -0.00000000000E+00 -0.59829343140E+02  0.59829343140E+02  0.00000000000E+00 0. -1.
         -6    2    1    2    0  503  0.40620766175E+02 -0.18337527471E+02  0.17414749049E+03  0.24916599064E+03  0.17253993999E+03 0.  0.
        -24    2    3    3    0    0  0.77121060433E+02  0.24543866289E+02  0.14965056003E+03  0.18757642161E+03  0.78990913979E+02 0.  0.
          6    2    1    2  501    0 -0.40620766175E+02  0.18337527471E+02  0.37900480007E+03  0.42364498619E+03  0.18396772623E+03 0.  0.
         24    2    5    5    0    0 -0.92486390668E+02 -0.10035476362E+02  0.19480124489E+03  0.23012984443E+03  0.79735669830E+02 0.  0.
          5    1    5    5  501    0  0.51865624493E+02  0.28373003833E+02  0.18420355518E+03  0.19351514176E+03  0.47000000000E+01 0. -1.
        -11    1    6    6    0    0 -0.47708573488E+02 -0.41118529639E+02  0.13642154230E+03  0.15025870580E+03  0.00000000000E+00 0.  1.
         12    1    6    6    0    0 -0.44777817180E+02  0.31083053277E+02  0.58379702582E+02  0.79871138630E+02  0.00000000000E+00 0. -1.
         -5    1    3    3    0  503 -0.36500294258E+02 -0.42881393759E+02  0.24496930455E+02  0.61589569031E+02  0.47000000000E+01 0.  1.
         11    1    4    4    0    0 -0.64446524710E+01 -0.16950507628E+02  0.13871987513E+02  0.22831672998E+02  0.00000000000E+00 0. -1.
        -12    1    4    4    0    0  0.83565712904E+02  0.41494373916E+02  0.13577857252E+03  0.16474474861E+03  0.00000000000E+00 0.  1.
<mgrwt>
<rscale>  2 0.18645470E+03</rscale>
<asrwt>0</asrwt>
<pdfrwt beam="1">  1       21 0.94304862E-01 0.18928929E+03</pdfrwt>
<pdfrwt beam="2">  1       21 0.92045148E-02 0.18928929E+03</pdfrwt>
<totfact> 0.88621330E+04</totfact>
</mgrwt>
</event>
<event>
12    1  0.1039378E-001  0.1855976E+03  0.7546771E-02  0.1162815E+00
         21   -1    0    0  503  502  0.00000000000E+00  0.00000000000E+00  0.49120051986E+03  0.49120051986E+03  0.00000000000E+00 0.  1.
         21   -1    0    0  501  503 -0.00000000000E+00 -0.00000000000E+00 -0.29340932600E+03  0.29340932600E+03  0.00000000000E+00 0.  1.
          6    2    1    2  501    0  0.60711170739E+02 -0.19229513772E+01 -0.24364127368E+03  0.30628018881E+03  0.17537656577E+03 0.  0.
         24    2    3    3    0    0  0.29950120409E+01  0.84688391259E+01 -0.23100150902E+03  0.24610546043E+03  0.84412730977E+02 0.  0.
         -6    2    1    2    0  502 -0.60711170739E+02  0.19229513772E+01  0.44143246755E+03  0.47832965706E+03  0.17391691528E+03 0.  0.
        -24    2    5    5    0    0 -0.86171350380E+01 -0.11974662251E+02  0.81172621494E+02  0.11402733906E+03  0.78712083066E+02 0.  0.
          5    1    3    3  501    0  0.57716158698E+02 -0.10391790503E+02 -0.12639764663E+02  0.60174728379E+02  0.47000000000E+01 0. -1.
        -13    1    4    4    0    0 -0.84292483636E+01 -0.26195285274E+02 -0.25926121999E+02  0.37807525711E+02  0.00000000000E+00 0.  1.
         14    1    4    4    0    0  0.11424260404E+02  0.34664124400E+02 -0.20507538702E+03  0.20829793472E+03  0.00000000000E+00 0. -1.
         -5    1    5    5    0  502 -0.52094035701E+02  0.13897613628E+02  0.36025984605E+03  0.36430231800E+03  0.47000000000E+01 0.  1.
         13    1    6    6    0    0  0.30093884129E+02 -0.22084136659E+02  0.24480717011E+02  0.44639180764E+02  0.00000000000E+00 0. -1.
        -14    1    6    6    0    0 -0.38711019167E+02  0.10109474408E+02  0.56691904482E+02  0.69388158295E+02  0.00000000000E+00 0.  1.
<mgrwt>
<rscale>  2 0.18525201E+03</rscale>
<asrwt>0</asrwt>
<pdfrwt beam="1">  1       21 0.75569311E-01 0.18559764E+03</pdfrwt>
<pdfrwt beam="2">  1       21 0.45139896E-01 0.18559764E+03</pdfrwt>
<totfact> 0.73989157E+03</totfact>
</mgrwt>
</event>
<event>
12    1  0.1039378E-001  0.2741381E+03  0.7546771E-02  0.1099070E+00
         21   -1    0    0  503  502  0.00000000000E+00  0.00000000000E+00  0.77773101223E+03  0.77773101223E+03  0.00000000000E+00 0. -1.
         21   -1    0    0  501  503 -0.00000000000E+00 -0.00000000000E+00 -0.98206577102E+02  0.98206577102E+02  0.00000000000E+00 0.  1.
          6    2    1    2  501    0 -0.55485498392E+02 -0.20385796450E+03  0.27798940744E+03  0.38974617064E+03  0.17316829000E+03 0.  0.
         24    2    3    3    0    0 -0.50115679240E+02 -0.30783653032E+02  0.11182282061E+03  0.14971080486E+03  0.80310443179E+02 0.  0.
         -6    2    1    2    0  502  0.55485498392E+02  0.20385796450E+03  0.40153502769E+03  0.48619141869E+03  0.17468545139E+03 0.  0.
        -24    2    5    5    0    0  0.83538211899E+02  0.11748559924E+03  0.33482528699E+03  0.37341101384E+03  0.80909292229E+02 0.  0.
          5    1    3    3  501    0 -0.53698191526E+01 -0.17307431146E+03  0.16616658683E+03  0.24003536578E+03  0.47000000000E+01 0. -1.
        -13    1    4    4    0    0  0.92024123220E+01  0.39361744851E+01 -0.71574897544E+01  0.12304776378E+02  0.00000000000E+00 0.  1.
         14    1    4    4    0    0 -0.59318091562E+02 -0.34719827517E+02  0.11898031037E+03  0.13740602849E+03  0.00000000000E+00 0. -1.
         -5    1    5    5    0  502 -0.28052713506E+02  0.86372365257E+02  0.66709740697E+02  0.11278040485E+03  0.47000000000E+01 0.  1.
         11    1    6    6    0    0  0.68162077979E+02  0.38267094995E+02  0.21657139565E+03  0.23024684329E+03  0.00000000000E+00 0. -1.
        -12    1    6    6    0    0  0.15376133919E+02  0.79218504244E+02  0.11825389134E+03  0.14316417054E+03  0.00000000000E+00 0.  1.
<mgrwt>
<rscale>  2 0.27389675E+03</rscale>
<asrwt>0</asrwt>
<pdfrwt beam="1">  1       21 0.11965092E+00 0.27413814E+03</pdfrwt>
<pdfrwt beam="2">  1       21 0.15108705E-01 0.27413814E+03</pdfrwt>
<totfact> 0.19687486E+04</totfact>
</mgrwt>
</event>
<event>
12    1  0.1039378E-001  0.2077566E+03  0.7546771E-02  0.1144750E+00
         21   -1    0    0  501  502  0.00000000000E+00  0.00000000000E+00  0.58730116692E+03  0.58730116692E+03  0.00000000000E+00 0. -1.
         21   -1    0    0  502  503 -0.00000000000E+00 -0.00000000000E+00 -0.72140185398E+02  0.72140185398E+02  0.00000000000E+00 0.  1.
         -6    2    1    2    0  503  0.40977950847E+02 -0.93134807018E+02  0.29294995772E+03  0.35523656930E+03  0.17326297269E+03 0.  0.
        -24    2    3    3    0    0  0.76285240422E+02 -0.79532462702E+02  0.13304484958E+03  0.19084872888E+03  0.81101509147E+02 0.  0.
          6    2    1    2  501    0 -0.40977950847E+02  0.93134807018E+02  0.22221102380E+03  0.30420478302E+03  0.18113400061E+03 0.  0.
         24    2    5    5    0    0 -0.86784393660E+02  0.54078954578E+02  0.91385209549E+02  0.16011774860E+03  0.82646068152E+02 0.  0.
          5    1    5    5  501    0  0.45806442813E+02  0.39055852440E+02  0.13082581425E+03  0.14408703442E+03  0.47000000000E+01 0. -1.
        -13    1    6    6    0    0 -0.15019585149E+02  0.15474596389E+01 -0.15115972583E+02  0.21365280165E+02  0.00000000000E+00 0.  1.
         14    1    6    6    0    0 -0.71764808511E+02  0.52531494939E+02  0.10650118213E+03  0.13875246843E+03  0.00000000000E+00 0. -1.
         -5    1    3    3    0  503 -0.35307289575E+02 -0.13602344316E+02  0.15990510814E+03  0.16438784042E+03  0.47000000000E+01 0.  1.
         11    1    4    4    0    0  0.97201101166E+01 -0.60296102412E+02  0.91652745971E+02  0.11013776078E+03  0.00000000000E+00 0. -1.
        -12    1    4    4    0    0  0.66565130305E+02 -0.19236360290E+02  0.41392103610E+02  0.80710968096E+02  0.00000000000E+00 0.  1.
<mgrwt>
<rscale>  2 0.20602882E+03</rscale>
<asrwt>0</asrwt>
<pdfrwt beam="1">  1       21 0.90354023E-01 0.20775661E+03</pdfrwt>
<pdfrwt beam="2">  1       21 0.11098490E-01 0.20775661E+03</pdfrwt>
<totfact> 0.69735045E+04</totfact>
</mgrwt>
</event>
<event>
12    1  0.1039378E-001  0.1978096E+03  0.7546771E-02  0.1151716E+00
         21   -1    0    0  503  502  0.00000000000E+00  0.00000000000E+00  0.95662333278E+03  0.95662333278E+03  0.00000000000E+00 0. -1.
         21   -1    0    0  501  503 -0.00000000000E+00 -0.00000000000E+00 -0.53910856828E+02  0.53910856828E+02  0.00000000000E+00 0. -1.
          6    2    1    2  501    0  0.23822839171E+02  0.92106054179E+02  0.70107244061E+03  0.72844436680E+03  0.17342887778E+03 0.  0.
         24    2    3    3    0    0 -0.22489030800E+02  0.86301473659E+02  0.64158385398E+03  0.65268511393E+03  0.80089421246E+02 0.  0.
         -6    2    1    2    0  502 -0.23822839171E+02 -0.92106054179E+02  0.20164003534E+03  0.28208982281E+03  0.17281467357E+03 0.  0.
        -24    2    5    5    0    0 -0.18991954245E+02 -0.97921366162E+01  0.17700921596E+03  0.19590580030E+03  0.81180291876E+02 0.  0.
          5    1    3    3  501    0  0.46311869971E+02  0.58045805193E+01  0.59488586632E+02  0.75759252866E+02  0.47000000000E+01 0. -1.
        -13    1    4    4    0    0 -0.22928471171E+02 -0.47557997906E+01  0.22780382735E+03  0.22900418376E+03  0.00000000000E+00 0.  1.
         14    1    4    4    0    0  0.43944037117E+00  0.91057273450E+02  0.41378002663E+03  0.42368093017E+03  0.00000000000E+00 0. -1.
         -5    1    5    5    0  502 -0.48308849256E+01 -0.82313917562E+02  0.24630819377E+02  0.86184022515E+02  0.47000000000E+01 0.  1.
         13    1    6    6    0    0 -0.11931351109E+02 -0.33160678818E+02  0.16495941740E+03  0.16868194079E+03  0.00000000000E+00 0. -1.
        -14    1    6    6    0    0 -0.70606031361E+01  0.23368542202E+02  0.12049798564E+02  0.27223859512E+02  0.00000000000E+00 0.  1.
<mgrwt>
<rscale>  2 0.19767487E+03</rscale>
<asrwt>0</asrwt>
<pdfrwt beam="1">  1       21 0.14717281E+00 0.19780958E+03</pdfrwt>
<pdfrwt beam="2">  1       21 0.82939786E-02 0.19780958E+03</pdfrwt>
<totfact> 0.35297512E+04</totfact>
</mgrwt>
</event>
<event>
12    1  0.1039378E-001  0.1820438E+03  0.7546771E-02  0.1165906E+00
         21   -1    0    0  503  502  0.00000000000E+00  0.00000000000E+00  0.21979083810E+04  0.21979083810E+04  0.00000000000E+00 0.  1.
         21   -1    0    0  501  503 -0.00000000000E+00 -0.00000000000E+00 -0.31986154608E+02  0.31986154608E+02  0.00000000000E+00 0.  1.
          6    2    1    2  501    0 -0.54175800649E+02 -0.13905247426E+02  0.27138518225E+03  0.32663140275E+03  0.17294445015E+03 0.  0.
         24    2    3    3    0    0 -0.87162734767E+02 -0.53511906964E+02  0.18956872303E+03  0.22981793106E+03  0.80119374465E+02 0.  0.
         -6    2    1    2    0  502  0.54175800649E+02  0.13905247426E+02  0.18945370442E+04  0.19032631329E+04  0.17323847145E+03 0.  0.
        -24    2    5    5    0    0  0.71532193609E+02 -0.16580849794E+02  0.73489638215E+03  0.74308245665E+03  0.81896676262E+02 0.  0.
          5    1    3    3  501    0  0.32986934118E+02  0.39606659538E+02  0.81816459223E+02  0.96813471697E+02  0.47000000000E+01 0. -1.
        -13    1    4    4    0    0  0.18583618464E+00  0.26129334668E+01  0.75606709900E+02  0.75652075572E+02  0.00000000000E+00 0.  1.
         14    1    4    4    0    0 -0.87348570952E+02 -0.56124840430E+02  0.11396201313E+03  0.15416585549E+03  0.00000000000E+00 0. -1.
         -5    1    5    5    0  502 -0.17356392960E+02  0.30486097220E+02  0.11596406620E+04  0.11601806762E+04  0.47000000000E+01 0.  1.
         13    1    6    6    0    0  0.35060249813E+02 -0.42156273588E+02  0.55706005402E+03  0.55975197749E+03  0.00000000000E+00 0. -1.
        -14    1    6    6    0    0  0.36471943796E+02  0.25575423793E+02  0.17783632814E+03  0.18333047917E+03  0.00000000000E+00 0.  1.
<mgrwt>
<rscale>  2 0.18197380E+03</rscale>
<asrwt>0</asrwt>
<pdfrwt beam="1">  1       21 0.33813963E+00 0.18204379E+03</pdfrwt>
<pdfrwt beam="2">  1       21 0.49209486E-02 0.18204379E+03</pdfrwt>
<totfact> 0.57505422E+03</totfact>
</mgrwt>
</event>
<event>
12    1  0.1039378E-001  0.1814231E+03  0.7546771E-02  0.1166686E+00
         21   -1    0    0  503  502  0.00000000000E+00  0.00000000000E+00  0.60272271883E+03  0.60272271883E+03  0.00000000000E+00 0. -1.
         21   -1    0    0  501  503 -0.00000000000E+00 -0.00000000000E+00 -0.65251719048E+02  0.65251719048E+02  0.00000000000E+00 0. -1.
          6    2    1    2  501    0 -0.34113737333E+02 -0.36322817882E+02  0.13251525343E+03  0.22466559387E+03  0.17444552876E+03 0.  0.
         24    2    3    3    0    0 -0.22351566300E+02 -0.15955599788E+02  0.16396596943E+03  0.18511297351E+03  0.81411302354E+02 0.  0.
         -6    2    1    2    0  502  0.34113737333E+02  0.36322817882E+02  0.40495574635E+03  0.44330884401E+03  0.17335074415E+03 0.  0.
        -24    2    5    5    0    0  0.19792764669E+02 -0.50346317004E+02  0.25769154611E+03  0.27177032393E+03  0.67287969650E+02 0.  0.
          5    1    3    3  501    0 -0.11762171034E+02 -0.20367218093E+02 -0.31450716000E+02  0.39552620358E+02  0.47000000000E+01 0. -1.
        -13    1    4    4    0    0 -0.50151578619E+02 -0.65731796943E+01  0.67916097429E+02  0.84681661646E+02  0.00000000000E+00 0.  1.
         14    1    4    4    0    0  0.27800012319E+02 -0.93824200940E+01  0.96049872003E+02  0.10043131187E+03  0.00000000000E+00 0. -1.
         -5    1    5    5    0  502  0.14320972664E+02  0.86669134886E+02  0.14726420024E+03  0.17153852008E+03  0.47000000000E+01 0.  1.
         11    1    6    6    0    0 -0.13675584397E+01 -0.46683706999E+02  0.78847047868E+02  0.91641124354E+02  0.00000000000E+00 0. -1.
        -12    1    6    6    0    0  0.21160323109E+02 -0.36626100049E+01  0.17884449825E+03  0.18012919957E+03  0.00000000000E+00 0.  1.
<mgrwt>
<rscale>  2 0.18115941E+03</rscale>
<asrwt>0</asrwt>
<pdfrwt beam="1">  1       21 0.92726568E-01 0.18142309E+03</pdfrwt>
<pdfrwt beam="2">  1       21 0.10038726E-01 0.18142309E+03</pdfrwt>
<totfact> 0.79386059E+04</totfact>
</mgrwt>
</event>
<event>
12    1  0.1039378E-001  0.2629072E+03  0.7546771E-02  0.1105452E+00
         21   -1    0    0  501  502  0.00000000000E+00  0.00000000000E+00  0.12021120786E+03  0.12021120786E+03  0.00000000000E+00 0.  1.
         21   -1    0    0  502  503 -0.00000000000E+00 -0.00000000000E+00 -0.63032717144E+03  0.63032717144E+03  0.00000000000E+00 0.  1.
         -6    2    1    2    0  503 -0.32735858238E+02 -0.19406097897E+03 -0.14310013518E+03  0.29907317183E+03  0.17388448306E+03 0.  0.
        -24    2    3    3    0    0 -0.33017451732E+02 -0.16590289036E+03 -0.39945682887E+02  0.19204098846E+03  0.81671062913E+02 0.  0.
          6    2    1    2  501    0  0.32735858238E+02  0.19406097897E+03 -0.36701582840E+03  0.45146520747E+03  0.17432416726E+03 0.  0.
         24    2    5    5    0    0  0.45414770661E+02  0.12550655565E+03 -0.34286595773E+03  0.37753436121E+03  0.84621108580E+02 0.  0.
          5    1    5    5  501    0 -0.12678912423E+02  0.68554423313E+02 -0.24149870668E+02  0.73930846264E+02  0.47000000000E+01 0. -1.
        -11    1    6    6    0    0 -0.32394369249E+00  0.96380677990E+02 -0.15988989304E+03  0.18669257598E+03  0.00000000000E+00 0.  1.
         12    1    6    6    0    0  0.45738714353E+02  0.29125877662E+02 -0.18297606469E+03  0.19084178523E+03  0.00000000000E+00 0. -1.
         -5    1    3    3    0  503  0.28159349379E+00 -0.28158088601E+02 -0.10315445229E+03  0.10703218337E+03  0.47000000000E+01 0.  1.
         11    1    4    4    0    0 -0.18347386668E+02 -0.46091838369E+02 -0.50604618273E+02  0.70865446816E+02  0.00000000000E+00 0. -1.
        -12    1    4    4    0    0 -0.14670065064E+02 -0.11981105200E+03  0.10658935386E+02  0.12117554164E+03  0.00000000000E+00 0.  1.
<mgrwt>
<rscale>  2 0.26283437E+03</rscale>
<asrwt>0</asrwt>
<pdfrwt beam="1">  1       21 0.18494032E-01 0.26290724E+03</pdfrwt>
<pdfrwt beam="2">  1       21 0.96973411E-01 0.26290724E+03</pdfrwt>
<totfact> 0.22704083E+04</totfact>
</mgrwt>
</event>
<event>
12    1  0.1039378E-001  0.1867152E+03  0.7546771E-02  0.1161951E+00
         21   -1    0    0  501  502  0.00000000000E+00  0.00000000000E+00  0.78344700480E+02  0.78344700480E+02  0.00000000000E+00 0. -1.
         21   -1    0    0  502  503 -0.00000000000E+00 -0.00000000000E+00 -0.85373181811E+03  0.85373181811E+03  0.00000000000E+00 0. -1.
         -6    2    1    2    0  503  0.27007317132E+02  0.55667429662E+02 -0.71328612728E+03  0.73731923770E+03  0.17616555001E+03 0.  0.
        -24    2    3    3    0    0  0.82346925770E+02  0.11518362398E+02 -0.41839454271E+03  0.43401287595E+03  0.79996839127E+02 0.  0.
          6    2    1    2  501    0 -0.27007317132E+02 -0.55667429662E+02 -0.62100990351E+02  0.19475728089E+03  0.17391264345E+03 0.  0.
         24    2    5    5    0    0  0.50124300001E+02 -0.46116368836E+02 -0.38931487155E+02  0.11352043578E+03  0.82049154312E+02 0.  0.
          5    1    5    5  501    0 -0.77131617132E+02 -0.95510608267E+01 -0.23169503196E+02  0.81236845106E+02  0.47000000000E+01 0. -1.
        -11    1    6    6    0    0  0.37552443118E+02  0.10273787940E+02 -0.39887132871E+02  0.55737958982E+02  0.00000000000E+00 0.  1.
         12    1    6    6    0    0  0.12571856882E+02 -0.56390156776E+02  0.95564571583E+00  0.57782476802E+02  0.00000000000E+00 0. -1.
         -5    1    3    3    0  503 -0.55339608639E+02  0.44149067264E+02 -0.29489158457E+03  0.30330636175E+03  0.47000000000E+01 0.  1.
         13    1    4    4    0    0  0.50380324441E+02  0.24355974784E+02 -0.37222725942E+03  0.37641004670E+03  0.00000000000E+00 0. -1.
        -14    1    4    4    0    0  0.31966601329E+02 -0.12837612386E+02 -0.46167283285E+02  0.57602829255E+02  0.00000000000E+00 0.  1.
<mgrwt>
<rscale>  2 0.18618187E+03</rscale>
<asrwt>0</asrwt>
<pdfrwt beam="1">  1       21 0.12053031E-01 0.18671518E+03</pdfrwt>
<pdfrwt beam="2">  1       21 0.13134336E+00 0.18671518E+03</pdfrwt>
<totfact> 0.24611285E+04</totfact>
</mgrwt>
</event>
<event>
12    1  0.1039378E-001  0.1919812E+03  0.7546771E-02  0.1156939E+00
         21   -1    0    0  503  502  0.00000000000E+00  0.00000000000E+00  0.32365218786E+03  0.32365218786E+03  0.00000000000E+00 0.  1.
         21   -1    0    0  501  503 -0.00000000000E+00 -0.00000000000E+00 -0.17404200765E+03  0.17404200765E+03  0.00000000000E+00 0.  1.
          6    2    1    2  501    0  0.71762298845E+02  0.38592144255E+02 -0.72460755978E+02  0.20414301554E+03  0.17258223693E+03 0.  0.
         24    2    3    3    0    0  0.43166856870E+01 -0.12136304437E+02 -0.85419575112E+02  0.11863098578E+03  0.81307338622E+02 0.  0.
         -6    2    1    2    0  502 -0.71762298845E+02 -0.38592144255E+02  0.22207093619E+03  0.29355117997E+03  0.17383214153E+03 0.  0.
        -24    2    5    5    0    0 -0.41731558958E+02  0.14018276814E+02  0.28392961535E+02  0.90566082958E+02  0.73878413760E+02 0.  0.
          5    1    3    3  501    0  0.67445613158E+02  0.50728448691E+02  0.12958819134E+02  0.85512029763E+02  0.47000000000E+01 0. -1.
        -13    1    4    4    0    0  0.32575649632E+02 -0.15931525825E+02 -0.94307983904E+01  0.37469006156E+02  0.00000000000E+00 0.  1.
         14    1    4    4    0    0 -0.28258963945E+02  0.37952213884E+01 -0.75988776722E+02  0.81161979623E+02  0.00000000000E+00 0. -1.
         -5    1    5    5    0  502 -0.30030739887E+02 -0.52610421069E+02  0.19367797466E+03  0.20298509702E+03  0.47000000000E+01 0.  1.
         13    1    6    6    0    0  0.25905070426E+01  0.35992138071E+02  0.74542122537E+01  0.36847116712E+02  0.00000000000E+00 0. -1.
        -14    1    6    6    0    0 -0.44322066001E+02 -0.21973861257E+02  0.20938749281E+02  0.53718966246E+02  0.00000000000E+00 0.  1.
<mgrwt>
<rscale>  2 0.19169786E+03</rscale>
<asrwt>0</asrwt>
<pdfrwt beam="1">  1       21 0.49792644E-01 0.19198123E+03</pdfrwt>
<pdfrwt beam="2">  1       21 0.26775694E-01 0.19198123E+03</pdfrwt>
<totfact> 0.51064128E+04</totfact>
</mgrwt>
</event>
<event>
12    1  0.1039378E-001  0.2269801E+03  0.7546771E-02  0.1129090E+00
         21   -1    0    0  501  502  0.00000000000E+00  0.00000000000E+00  0.19369450792E+04  0.19369450792E+04  0.00000000000E+00 0.  1.
         21   -1    0    0  502  503 -0.00000000000E+00 -0.00000000000E+00 -0.31870212994E+02  0.31870212994E+02  0.00000000000E+00 0. -1.
         -6    2    1    2    0  503  0.12555984753E+03  0.74543999978E+02  0.54170436625E+03  0.58667958662E+03  0.17154367869E+03 0.  0.
        -24    2    3    3    0    0  0.10886462022E+03 -0.12621007286E+02  0.32707827674E+03  0.35438038859E+03  0.81206313447E+02 0.  0.
          6    2    1    2  501    0 -0.12555984753E+03 -0.74543999978E+02  0.13633705000E+04  0.13821357056E+04  0.17377544482E+03 0.  0.
         24    2    5    5    0    0  0.76645274924E+01 -0.26377902614E+02  0.41568927826E+03  0.42391313488E+03  0.78423409336E+02 0.  0.
          5    1    5    5  501    0 -0.13322437503E+03 -0.48166097364E+02  0.94768122173E+03  0.95822257073E+03  0.47000000000E+01 0. -1.
        -13    1    6    6    0    0 -0.18649950791E+02 -0.16486961912E+02  0.36582094604E+03  0.36666688580E+03  0.00000000000E+00 0.  1.
         14    1    6    6    0    0  0.26314478284E+02 -0.98909407018E+01  0.49868332220E+02  0.57246249080E+02  0.00000000000E+00 0. -1.
         -5    1    3    3    0  503  0.16695227314E+02  0.87165007264E+02  0.21462608951E+03  0.23229919803E+03  0.47000000000E+01 0.  1.
         13    1    4    4    0    0  0.33996404739E+02 -0.34791245390E+02  0.66745991172E+02  0.82590638868E+02  0.00000000000E+00 0. -1.
        -14    1    4    4    0    0  0.74868215481E+02  0.22170238104E+02  0.26033228557E+03  0.27178974973E+03  0.00000000000E+00 0.  1.
<mgrwt>
<rscale>  2 0.22655293E+03</rscale>
<asrwt>0</asrwt>
<pdfrwt beam="1">  1       21 0.29799146E+00 0.22698015E+03</pdfrwt>
<pdfrwt beam="2">  1       21 0.49031112E-02 0.22698015E+03</pdfrwt>
<totfact> 0.94153185E+03</totfact>
</mgrwt>
</event>
<event>
12    1  0.1039378E-001  0.1857966E+03  0.7546771E-02  0.1162421E+00
         21   -1    0    0  503  502  0.00000000000E+00  0.00000000000E+00  0.10741959911E+03  0.10741959911E+03  0.00000000000E+00 0. -1.
         21   -1    0    0  501  503 -0.00000000000E+00 -0.00000000000E+00 -0.51485782498E+03  0.51485782498E+03  0.00000000000E+00 0. -1.
          6    2    1    2  501    0 -0.47014794499E+02  0.57493856426E+02 -0.39504054971E+03  0.43655172816E+03  0.17030690242E+03 0.  0.
         24    2    3    3    0    0  0.37247808321E+01  0.70716711911E+02 -0.34710132322E+03  0.36535054945E+03  0.89369838700E+02 0.  0.
         -6    2    1    2    0  502  0.47014794499E+02 -0.57493856426E+02 -0.12397676156E+02  0.18572569593E+03  0.16977749358E+03 0.  0.
        -24    2    5    5    0    0  0.25396109666E+02 -0.57030103317E+01 -0.66047499873E+02  0.10794361021E+03  0.81314599143E+02 0.  0.
          5    1    3    3  501    0 -0.50739575332E+02 -0.13222855485E+02 -0.47939226491E+02  0.71201178702E+02  0.47000000000E+01 0. -1.
        -11    1    4    4    0    0  0.38379362106E+02  0.46445778209E+02 -0.11927448328E+03  0.13362854527E+03  0.00000000000E+00 0.  1.
         12    1    4    4    0    0 -0.34654581274E+02  0.24270933702E+02 -0.22782683994E+03  0.23172200419E+03  0.00000000000E+00 0. -1.
         -5    1    5    5    0  502  0.21618684833E+02 -0.51790846095E+02  0.53649823717E+02  0.77782085714E+02  0.47000000000E+01 0.  1.
         13    1    6    6    0    0 -0.42235253867E+01 -0.23872862816E+02  0.85038234874E+01  0.25691764432E+02  0.00000000000E+00 0. -1.
        -14    1    6    6    0    0  0.29619635053E+02  0.18169852484E+02 -0.74551323360E+02  0.82251845783E+02  0.00000000000E+00 0.  1.
<mgrwt>
<rscale>  2 0.18567519E+03</rscale>
<asrwt>0</asrwt>
<pdfrwt beam="1">  1       21 0.16526092E-01 0.18579660E+03</pdfrwt>
<pdfrwt beam="2">  1       21 0.79208895E-01 0.18579660E+03</pdfrwt>
<totfact> 0.46376267E+04</totfact>
</mgrwt>
</event>
<event>
12    1  0.1039378E-001  0.2776285E+03  0.7546771E-02  0.1097083E+00
         21   -1    0    0  501  502  0.00000000000E+00  0.00000000000E+00  0.20126687839E+04  0.20126687839E+04  0.00000000000E+00 0. -1.
         21   -1    0    0  502  503 -0.00000000000E+00 -0.00000000000E+00 -0.51138202635E+02  0.51138202635E+02  0.00000000000E+00 0. -1.
         -6    2    1    2    0  503  0.18254670515E+03 -0.11615040604E+03  0.14988370070E+04  0.15242118290E+04  0.17290202316E+03 0.  0.
        -24    2    3    3    0    0  0.14270811698E+03 -0.34261142514E+02  0.65212367570E+03  0.67260245843E+03  0.74761929689E+02 0.  0.
          6    2    1    2  501    0 -0.18254670515E+03  0.11615040604E+03  0.46269357426E+03  0.53959515757E+03  0.17396371467E+03 0.  0.
         24    2    5    5    0    0 -0.12012373172E+03  0.94516472102E+02  0.18043920796E+03  0.24967400966E+03  0.80098245352E+02 0.  0.
          5    1    5    5  501    0 -0.62422973434E+02  0.21633933942E+02  0.28225436630E+03  0.28992114791E+03  0.47000000000E+01 0. -1.
        -13    1    6    6    0    0 -0.21655982779E+02  0.62503786412E+02  0.93151354997E+02  0.11424920063E+03  0.00000000000E+00 0.  1.
         14    1    6    6    0    0 -0.98467748940E+02  0.32012685690E+02  0.87287852966E+02  0.13542480903E+03  0.00000000000E+00 0. -1.
         -5    1    3    3    0  503  0.39838588169E+02 -0.81889263530E+02  0.84671333130E+03  0.85160937053E+03  0.47000000000E+01 0.  1.
         11    1    4    4    0    0  0.12207579387E+03 -0.49136959710E+02  0.60401265208E+03  0.61818138449E+03  0.00000000000E+00 0. -1.
        -12    1    4    4    0    0  0.20632323118E+02  0.14875817195E+02  0.48111023627E+02  0.54421073941E+02  0.00000000000E+00 0.  1.
<mgrwt>
<rscale>  2 0.27746236E+03</rscale>
<asrwt>0</asrwt>
<pdfrwt beam="1">  1       21 0.30964129E+00 0.27762851E+03</pdfrwt>
<pdfrwt beam="2">  1       21 0.78674173E-02 0.27762851E+03</pdfrwt>
<totfact> 0.34030004E+03</totfact>
</mgrwt>
</event>
<event>
12    1  0.1039378E-001  0.1867801E+03  0.7546771E-02  0.1162112E+00
         21   -1    0    0  501  502  0.00000000000E+00  0.00000000000E+00  0.83704886766E+02  0.83704886766E+02  0.00000000000E+00 0. -1.
         21   -1    0    0  502  503 -0.00000000000E+00 -0.00000000000E+00 -0.41099644357E+03  0.41099644357E+03  0.00000000000E+00 0.  1.
         -6    2    1    2    0  503  0.51392952261E+01  0.62213600646E+02 -0.14986900836E+03  0.23708615274E+03  0.17277783333E+03 0.  0.
        -24    2    3    3    0    0  0.31885382798E+02  0.97117471360E+02 -0.14340698482E+03  0.19239296378E+03  0.77466175429E+02 0.  0.
          6    2    1    2  501    0 -0.51392952261E+01 -0.62213600646E+02 -0.17742254845E+03  0.25761517760E+03  0.17603941199E+03 0.  0.
         24    2    5    5    0    0 -0.90880851477E+01 -0.72822307094E+01 -0.18504841816E+03  0.20181829388E+03  0.79699952975E+02 0.  0.
          5    1    5    5  501    0  0.39487899216E+01 -0.54931369937E+02  0.76258697106E+01  0.55796883728E+02  0.47000000000E+01 0. -1.
        -13    1    6    6    0    0 -0.43821716987E+02 -0.11825514777E+02 -0.98776827951E+02  0.10870624370E+03  0.00000000000E+00 0.  1.
         14    1    6    6    0    0  0.34733631840E+02  0.45432840676E+01 -0.86271590207E+02  0.93112050175E+02  0.00000000000E+00 0. -1.
         -5    1    3    3    0  503 -0.26746087572E+02 -0.34903870713E+02 -0.64620235386E+01  0.44693188960E+02  0.47000000000E+01 0.  1.
         13    1    4    4    0    0  0.26004762855E+02  0.36218097364E+02 -0.10100566737E+02  0.45716733438E+02  0.00000000000E+00 0. -1.
        -14    1    4    4    0    0  0.58806199434E+01  0.60899373995E+02 -0.13330641808E+03  0.14667623034E+03  0.00000000000E+00 0.  1.
<mgrwt>
<rscale>  2 0.18600766E+03</rscale>
<asrwt>0</asrwt>
<pdfrwt beam="1">  1       21 0.12877675E-01 0.18678014E+03</pdfrwt>
<pdfrwt beam="2">  1       21 0.63230223E-01 0.18678014E+03</pdfrwt>
<totfact> 0.11990083E+05</totfact>
</mgrwt>
</event>
<event>
12    1  0.1039378E-001  0.2316995E+03  0.7546771E-02  0.1125872E+00
         21   -1    0    0  501  502  0.00000000000E+00  0.00000000000E+00  0.45044377375E+03  0.45044377375E+03  0.00000000000E+00 0.  1.
         21   -1    0    0  502  503 -0.00000000000E+00 -0.00000000000E+00 -0.12754000392E+03  0.12754000392E+03  0.00000000000E+00 0.  1.
         -6    2    1    2    0  503 -0.10301946534E+03 -0.11035384869E+03  0.81403898845E+02  0.24330956743E+03  0.17257453085E+03 0.  0.
        -24    2    3    3    0    0 -0.23266251267E+02 -0.46104422198E+02  0.10111114581E+03  0.13891115010E+03  0.80036914105E+02 0.  0.
          6    2    1    2  501    0  0.10301946534E+03  0.11035384869E+03  0.24149987099E+03  0.33467421024E+03  0.17576591578E+03 0.  0.
         24    2    5    5    0    0  0.12005251952E+03  0.81584620197E+02  0.10876395902E+03  0.19771178558E+03  0.78687315865E+02 0.  0.
          5    1    5    5  501    0 -0.17033054182E+02  0.28769228491E+02  0.13273591197E+03  0.13696242466E+03  0.47000000000E+01 0. -1.
        -11    1    6    6    0    0  0.21616916904E+02  0.11858138154E+02  0.64781267365E+02  0.69314638701E+02  0.00000000000E+00 0.  1.
         12    1    6    6    0    0  0.98435602613E+02  0.69726482043E+02  0.43982691658E+02  0.12839714687E+03  0.00000000000E+00 0. -1.
         -5    1    3    3    0  503 -0.79753214068E+02 -0.64249426491E+02 -0.19707246969E+02  0.10439841733E+03  0.47000000000E+01 0.  1.
         11    1    4    4    0    0 -0.36638337824E+02 -0.24547690533E+02  0.10439872543E+03  0.11333159657E+03  0.00000000000E+00 0. -1.
        -12    1    4    4    0    0  0.13372086557E+02 -0.21556731665E+02 -0.32875796188E+01  0.25579553528E+02  0.00000000000E+00 0.  1.
<mgrwt>
<rscale>  2 0.23109421E+03</rscale>
<asrwt>0</asrwt>
<pdfrwt beam="1">  1       21 0.69299041E-01 0.23169946E+03</pdfrwt>
<pdfrwt beam="2">  1       21 0.19621539E-01 0.23169946E+03</pdfrwt>
<totfact> 0.44472111E+04</totfact>
</mgrwt>
</event>
<event>
12    1  0.1039378E-001  0.2678757E+03  0.7546771E-02  0.1102542E+00
         21   -1    0    0  501  502  0.00000000000E+00  0.00000000000E+00  0.26575293721E+03  0.26575293721E+03  0.00000000000E+00 0.  1.
         21   -1    0    0  502  503 -0.00000000000E+00 -0.00000000000E+00 -0.29383594808E+03  0.29383594808E+03  0.00000000000E+00 0.  1.
         -6    2    1    2    0  503 -0.14788139394E+03  0.14025236602E+03 -0.94166843296E+02  0.28368230711E+03  0.17340306843E+03 0.  0.
        -24    2    3    3    0    0 -0.29616308180E+02  0.40977526493E+02  0.11472835275E+02  0.96535423718E+02  0.81432049559E+02 0.  0.
          6    2    1    2  501    0  0.14788139394E+03 -0.14025236602E+03  0.66083832426E+02  0.27590657818E+03  0.17383248869E+03 0.  0.
         24    2    5    5    0    0  0.13578555963E+03 -0.12220382056E+03 -0.90381322554E+01  0.19756464318E+03  0.74690082603E+02 0.  0.
          5    1    5    5  501    0  0.12095834317E+02 -0.18048545461E+02  0.75121964682E+02  0.78341934995E+02  0.47000000000E+01 0. -1.
        -13    1    6    6    0    0  0.80378031658E+02 -0.41068685646E+02  0.24875095496E+02  0.93627107665E+02  0.00000000000E+00 0.  1.
         14    1    6    6    0    0  0.55407527968E+02 -0.81135134915E+02 -0.33913227751E+02  0.10393753552E+03  0.00000000000E+00 0. -1.
         -5    1    3    3    0  503 -0.11826508576E+03  0.99274839529E+02 -0.10563967857E+03  0.18714688339E+03  0.47000000000E+01 0.  1.
         13    1    4    4    0    0  0.10397203947E+02  0.45715854384E+02 -0.13922856607E+02  0.48906923110E+02  0.00000000000E+00 0. -1.
        -14    1    4    4    0    0 -0.40013512127E+02 -0.47383278915E+01  0.25395691882E+02  0.47628500607E+02  0.00000000000E+00 0.  1.
<mgrwt>
<rscale>  2 0.26780601E+03</rscale>
<asrwt>0</asrwt>
<pdfrwt beam="1">  1       21 0.40885067E-01 0.26787566E+03</pdfrwt>
<pdfrwt beam="2">  1       21 0.45205530E-01 0.26787566E+03</pdfrwt>
<totfact> 0.26060673E+04</totfact>
</mgrwt>
</event>
<event>
12    1  0.1039378E-001  0.1891740E+03  0.7546771E-02  0.1161340E+00
         21   -1    0    0  503  502  0.00000000000E+00  0.00000000000E+00  0.88231101963E+02  0.88231101963E+02  0.00000000000E+00 0.  1.
         21   -1    0    0  501  503 -0.00000000000E+00 -0.00000000000E+00 -0.38925070864E+03  0.38925070864E+03  0.00000000000E+00 0.  1.
          6    2    1    2  501    0  0.25369867553E+02  0.48497825173E+02 -0.17528252137E+03  0.25789679174E+03  0.18108319543E+03 0.  0.
         24    2    3    3    0    0  0.84924147552E+02  0.52854044857E+02 -0.10646005024E+03  0.16665912711E+03  0.80223820993E+02 0.  0.
         -6    2    1    2    0  502 -0.25369867553E+02 -0.48497825173E+02 -0.12573708531E+03  0.21958501886E+03  0.17149955295E+03 0.  0.
        -24    2    5    5    0    0  0.90131309921E+01  0.16683876817E+02 -0.11732501591E+03  0.14526343536E+03  0.83526750314E+02 0.  0.
          5    1    3    3  501    0 -0.59554279999E+02 -0.43562196840E+01 -0.68822471127E+02  0.91237664636E+02  0.47000000000E+01 0. -1.
        -11    1    4    4    0    0  0.42938603686E+02  0.51846697320E+02 -0.19495763404E+02  0.70084866413E+02  0.00000000000E+00 0.  1.
         12    1    4    4    0    0  0.41985543866E+02  0.10073475375E+01 -0.86964286841E+02  0.96574260694E+02  0.00000000000E+00 0. -1.
         -5    1    5    5    0  502 -0.34382998545E+02 -0.65181701990E+02 -0.84120693992E+01  0.74321583506E+02  0.47000000000E+01 0.  1.
         13    1    6    6    0    0  0.33441343780E+02  0.33881963345E+02 -0.39357677620E+02  0.61768419938E+02  0.00000000000E+00 0. -1.
        -14    1    6    6    0    0 -0.24428212788E+02 -0.17198086529E+02 -0.77967338288E+02  0.83495015420E+02  0.00000000000E+00 0.  1.
<mgrwt>
<rscale>  2 0.18684315E+03</rscale>
<asrwt>0</asrwt>
<pdfrwt beam="1">  1       21 0.13574016E-01 0.18917398E+03</pdfrwt>
<pdfrwt beam="2">  1       21 0.59884725E-01 0.18917398E+03</pdfrwt>
<totfact> 0.12249611E+05</totfact>
</mgrwt>
</event>
<event>
12    1  0.1039378E-001  0.1819921E+03  0.7546771E-02  0.1166099E+00
         21   -1    0    0  501  502  0.00000000000E+00  0.00000000000E+00  0.24083527676E+03  0.24083527676E+03  0.00000000000E+00 0.  1.
         21   -1    0    0  502  503 -0.00000000000E+00 -0.00000000000E+00 -0.14614351843E+03  0.14614351843E+03  0.00000000000E+00 0.  1.
         -6    2    1    2    0  503  0.45802332388E+02  0.30865333924E+02 -0.15243664903E+01  0.18111797297E+03  0.17248441654E+03 0.  0.
        -24    2    3    3    0    0  0.64348801937E+01  0.80246748262E+02 -0.17634812113E+02  0.11577306626E+03  0.81310933971E+02 0.  0.
          6    2    1    2  501    0 -0.45802332388E+02 -0.30865333924E+02  0.96216124817E+02  0.20586082223E+03  0.17340880301E+03 0.  0.
         24    2    5    5    0    0  0.62313813521E+01  0.42843790495E+02  0.56614569689E+02  0.10721541911E+03  0.80096916892E+02 0.  0.
          5    1    5    5  501    0 -0.52033713740E+02 -0.73709124418E+02  0.39601555129E+02  0.98645403120E+02  0.47000000000E+01 0. -1.
        -11    1    6    6    0    0 -0.98171257713E+01  0.44827997881E+02  0.71681922423E+02  0.85113003441E+02  0.00000000000E+00 0.  1.
         12    1    6    6    0    0  0.16048507123E+02 -0.19842073863E+01 -0.15067352734E+02  0.22102415666E+02  0.00000000000E+00 0. -1.
         -5    1    3    3    0  503  0.39367452194E+02 -0.49381414338E+02  0.16110445623E+02  0.65344906706E+02  0.47000000000E+01 0.  1.
         11    1    4    4    0    0  0.37143499038E+02  0.19234197489E+02  0.84207815610E+01  0.42667357968E+02  0.00000000000E+00 0. -1.
        -12    1    4    4    0    0 -0.30708618845E+02  0.61012550772E+02 -0.26055593674E+02  0.73105708291E+02  0.00000000000E+00 0.  1.
<mgrwt>
<rscale>  2 0.18177159E+03</rscale>
<asrwt>0</asrwt>
<pdfrwt beam="1">  1       21 0.37051581E-01 0.18199213E+03</pdfrwt>
<pdfrwt beam="2">  1       21 0.22483618E-01 0.18199213E+03</pdfrwt>
<totfact> 0.13062985E+05</totfact>
</mgrwt>
</event>
<event>
12    1  0.1039378E-001  0.1777136E+03  0.7546771E-02  0.1170268E+00
         21   -1    0    0  501  502  0.00000000000E+00  0.00000000000E+00  0.60577204266E+03  0.60577204266E+03  0.00000000000E+00 0. -1.
         21   -1    0    0  502  503 -0.00000000000E+00 -0.00000000000E+00 -0.59591963978E+02  0.59591963978E+02  0.00000000000E+00 0. -1.
         -6    2    1    2    0  503 -0.25556725792E+02  0.28453790093E+02  0.15387318131E+03  0.23507251534E+03  0.17354932192E+03 0.  0.
        -24    2    3    3    0    0 -0.38490189712E+02 -0.36280935455E+02  0.13597328662E+03  0.16651337729E+03  0.80250664552E+02 0.  0.
          6    2    1    2  501    0  0.25556725792E+02 -0.28453790093E+02  0.39230689738E+03  0.43029149130E+03  0.17257839190E+03 0.  0.
         24    2    5    5    0    0 -0.11000927864E+01 -0.62385017186E+01  0.38676720532E+03  0.39483894270E+03  0.79175693567E+02 0.  0.
          5    1    5    5  501    0  0.26656818578E+02 -0.22215288375E+02  0.55396920599E+01  0.35452548602E+02  0.47000000000E+01 0. -1.
        -13    1    6    6    0    0 -0.93767354281E+01  0.35511117967E+02  0.19082097790E+03  0.19432346300E+03  0.00000000000E+00 0.  1.
         14    1    6    6    0    0  0.82766426417E+01 -0.41749619685E+02  0.19594622742E+03  0.20051547969E+03  0.00000000000E+00 0. -1.
         -5    1    3    3    0  503  0.12933463920E+02  0.64734725549E+02  0.17899894689E+02  0.68559138054E+02  0.47000000000E+01 0.  1.
         11    1    4    4    0    0 -0.77443976185E+01  0.21048183131E+02  0.71453411468E+02  0.74890531565E+02  0.00000000000E+00 0. -1.
        -12    1    4    4    0    0 -0.30745792093E+02 -0.57329118587E+02  0.64519875150E+02  0.91622845725E+02  0.00000000000E+00 0.  1.
<mgrwt>
<rscale>  2 0.17747613E+03</rscale>
<asrwt>0</asrwt>
<pdfrwt beam="1">  1       21 0.93195695E-01 0.17771362E+03</pdfrwt>
<pdfrwt beam="2">  1       21 0.91679949E-02 0.17771362E+03</pdfrwt>
<totfact> 0.92183241E+04</totfact>
</mgrwt>
</event>
<event>
12    1  0.1039378E-001  0.1856235E+03  0.7546771E-02  0.1166033E+00
         21   -1    0    0  503  502  0.00000000000E+00  0.00000000000E+00  0.26692148262E+03  0.26692148262E+03  0.00000000000E+00 0. -1.
         21   -1    0    0  501  503 -0.00000000000E+00 -0.00000000000E+00 -0.12381916278E+03  0.12381916278E+03  0.00000000000E+00 0. -1.
          6    2    1    2  501    0  0.63184605021E+00  0.17384301504E+02  0.10688792159E+03  0.20161747351E+03  0.17006458972E+03 0.  0.
         24    2    3    3    0    0 -0.19734038308E+02  0.39117462392E+01 -0.91882123969E+01  0.82907583980E+02  0.79903130150E+02 0.  0.
         -6    2    1    2    0  502 -0.63184605021E+00 -0.17384301504E+02  0.36214398252E+02  0.18912317189E+03  0.18480659711E+03 0.  0.
        -24    2    5    5    0    0  0.41809821069E+02 -0.60233388211E+02 -0.14696963928E+02  0.11005740092E+03  0.80749665981E+02 0.  0.
          5    1    3    3  501    0  0.20365884358E+02  0.13472555265E+02  0.11607613399E+03  0.11870988953E+03  0.47000000000E+01 0. -1.
        -11    1    4    4    0    0 -0.35083848631E+02 -0.29337102231E+02 -0.37800146515E+01  0.45889328965E+02  0.00000000000E+00 0.  1.
         12    1    4    4    0    0  0.15349810323E+02  0.33248848470E+02 -0.54081977454E+01  0.37018255015E+02  0.00000000000E+00 0. -1.
         -5    1    5    5    0  502 -0.42441667120E+02  0.42849086707E+02  0.50911362180E+02  0.79065770966E+02  0.47000000000E+01 0.  1.
         11    1    6    6    0    0  0.59436261745E+02 -0.16336535173E+02 -0.56750235591E+01  0.61901191298E+02  0.00000000000E+00 0. -1.
        -12    1    6    6    0    0 -0.17626440676E+02 -0.43896853037E+02 -0.90219403686E+01  0.48156209625E+02  0.00000000000E+00 0.  1.
<mgrwt>
<rscale>  2 0.18184162E+03</rscale>
<asrwt>0</asrwt>
<pdfrwt beam="1">  1       21 0.41064844E-01 0.18562352E+03</pdfrwt>
<pdfrwt beam="2">  1       21 0.19049102E-01 0.18562352E+03</pdfrwt>
<totfact> 0.14470072E+05</totfact>
</mgrwt>
</event>
<event>
12    1  0.1039378E-001  0.2002527E+03  0.7546771E-02  0.1151693E+00
         21   -1    0    0  501  502  0.00000000000E+00  0.00000000000E+00  0.20654554367E+03  0.20654554367E+03  0.00000000000E+00 0. -1.
         21   -1    0    0  502  503 -0.00000000000E+00 -0.00000000000E+00 -0.21937316606E+03  0.21937316606E+03  0.00000000000E+00 0. -1.
         -6    2    1    2    0  503  0.70427608695E+02  0.38380287073E+02 -0.91077922954E+02  0.21092041053E+03  0.17250836799E+03 0.  0.
        -24    2    3    3    0    0  0.95669470195E+02 -0.18560734413E+02 -0.68182665238E+02  0.14439436807E+03  0.81876182744E+02 0.  0.
          6    2    1    2  501    0 -0.70427608695E+02 -0.38380287073E+02  0.78250300569E+02  0.21499829920E+03  0.18348859533E+03 0.  0.
         24    2    5    5    0    0 -0.98936798932E+02  0.19202018829E+02  0.24754558226E+02  0.13125834261E+03  0.80366389998E+02 0.  0.
          5    1    5    5  501    0  0.28509190237E+02 -0.57582305902E+02  0.53495742342E+02  0.83739956590E+02  0.47000000000E+01 0. -1.
        -13    1    6    6    0    0  0.14167334128E+02  0.96973594872E+00  0.84399169033E+00  0.14225542734E+02  0.00000000000E+00 0.  1.
         14    1    6    6    0    0 -0.11310413306E+03  0.18232282880E+02  0.23910566536E+02  0.11703279987E+03  0.00000000000E+00 0. -1.
         -5    1    3    3    0  503 -0.25241861500E+02  0.56941021486E+02 -0.22895257716E+02  0.66526042462E+02  0.47000000000E+01 0.  1.
         11    1    4    4    0    0  0.10269838716E+03  0.47819810586E+01 -0.52887353419E+02  0.11561530271E+03  0.00000000000E+00 0. -1.
        -12    1    4    4    0    0 -0.70289169657E+01 -0.23342715471E+02 -0.15295311819E+02  0.28779065359E+02  0.00000000000E+00 0.  1.
<mgrwt>
<rscale>  2 0.19770187E+03</rscale>
<asrwt>0</asrwt>
<pdfrwt beam="1">  1       21 0.31776237E-01 0.20025274E+03</pdfrwt>
<pdfrwt beam="2">  1       21 0.33749718E-01 0.20025274E+03</pdfrwt>
<totfact> 0.80272042E+04</totfact>
</mgrwt>
</event>
<event>
12    1  0.1039378E-001  0.1975730E+03  0.7546771E-02  0.1152590E+00
         21   -1    0    0  501  502  0.00000000000E+00  0.00000000000E+00  0.71769387688E+03  0.71769387688E+03  0.00000000000E+00 0. -1.
         21   -1    0    0  502  503 -0.00000000000E+00 -0.00000000000E+00 -0.64270622002E+02  0.64270622002E+02  0.00000000000E+00 0. -1.
         -6    2    1    2    0  503  0.78969664816E+02 -0.35574743622E+02  0.16839354323E+03  0.25959867205E+03  0.17757622247E+03 0.  0.
        -24    2    3    3    0    0  0.29903192423E+02 -0.88068001226E+02  0.82468208737E+02  0.14749018034E+03  0.79386233614E+02 0.  0.
          6    2    1    2  501    0 -0.78969664816E+02  0.35574743622E+02  0.48502971165E+03  0.52236582683E+03  0.17352367421E+03 0.  0.
         24    2    5    5    0    0  0.18270062010E+02  0.24828541566E+02  0.15044927111E+03  0.17374395929E+03  0.81251021970E+02 0.  0.
          5    1    5    5  501    0 -0.97239726826E+02  0.10746202057E+02  0.33458044055E+03  0.34862186754E+03  0.47000000000E+01 0. -1.
        -13    1    6    6    0    0  0.23765791479E+02 -0.17087346530E+02  0.11471269470E+03  0.11838831269E+03  0.00000000000E+00 0.  1.
         14    1    6    6    0    0 -0.54957294682E+01  0.41915888096E+02  0.35736576405E+02  0.55355646599E+02  0.00000000000E+00 0. -1.
         -5    1    3    3    0  503  0.49066472393E+02  0.52493257603E+02  0.85925334489E+02  0.11210849171E+03  0.47000000000E+01 0.  1.
         13    1    4    4    0    0  0.53682914217E+02 -0.35167318008E+02  0.40280023432E+02  0.75769887306E+02  0.00000000000E+00 0. -1.
        -14    1    4    4    0    0 -0.23779721794E+02 -0.52900683217E+02  0.42188185304E+02  0.71720293033E+02  0.00000000000E+00 0.  1.
<mgrwt>
<rscale>  2 0.19665809E+03</rscale>
<asrwt>0</asrwt>
<pdfrwt beam="1">  1       21 0.11041444E+00 0.19757299E+03</pdfrwt>
<pdfrwt beam="2">  1       21 0.98877885E-02 0.19757299E+03</pdfrwt>
<totfact> 0.53437813E+04</totfact>
</mgrwt>
</event>
<event>
12    1  0.1039378E-001  0.2503138E+03  0.7546771E-02  0.1113370E+00
         21   -1    0    0  501  502  0.00000000000E+00  0.00000000000E+00  0.10865016922E+04  0.10865016922E+04  0.00000000000E+00 0. -1.
         21   -1    0    0  502  503 -0.00000000000E+00 -0.00000000000E+00 -0.15498099940E+03  0.15498099940E+03  0.00000000000E+00 0. -1.
         -6    2    1    2    0  503  0.16144853105E+03  0.76750185166E+02 -0.27653527636E+02  0.25018447047E+03  0.17283325077E+03 0.  0.
        -24    2    3    3    0    0  0.17706787144E+03  0.33678494466E+02 -0.42314392266E+02  0.20185057671E+03  0.80410667458E+02 0.  0.
          6    2    1    2  501    0 -0.16144853105E+03 -0.76750185166E+02  0.95917422043E+03  0.99129822112E+03  0.17521632046E+03 0.  0.
         24    2    5    5    0    0 -0.15315053614E+03 -0.10637790455E+03  0.69461187017E+03  0.72491131144E+03  0.90771217747E+02 0.  0.
          5    1    5    5  501    0 -0.82979949115E+01  0.29627719386E+02  0.26456235026E+03  0.26638690968E+03  0.47000000000E+01 0. -1.
        -13    1    6    6    0    0 -0.91542521804E+01 -0.14862968467E+02  0.11712797835E+02  0.21021365269E+02  0.00000000000E+00 0.  1.
         14    1    6    6    0    0 -0.14399628396E+03 -0.91514936085E+02  0.68289907234E+03  0.70388994617E+03  0.00000000000E+00 0. -1.
         -5    1    3    3    0  503 -0.15619340387E+02  0.43071690700E+02  0.14660864630E+02  0.48333893756E+02  0.47000000000E+01 0.  1.
         11    1    4    4    0    0  0.11951717563E+03 -0.13538419708E+02 -0.42015539788E+02  0.12740859337E+03  0.00000000000E+00 0. -1.
        -12    1    4    4    0    0  0.57550695802E+02  0.47216914175E+02 -0.29885247824E+00  0.74441983344E+02  0.00000000000E+00 0.  1.
<mgrwt>
<rscale>  2 0.24989715E+03</rscale>
<asrwt>0</asrwt>
<pdfrwt beam="1">  1       21 0.16715410E+00 0.25031376E+03</pdfrwt>
<pdfrwt beam="2">  1       21 0.23843231E-01 0.25031376E+03</pdfrwt>
<totfact> 0.35347625E+03</totfact>
</mgrwt>
</event>
<event>
12    1  0.1039378E-001  0.2123303E+03  0.7546771E-02  0.1141426E+00
         21   -1    0    0  501  502  0.00000000000E+00  0.00000000000E+00  0.45365107776E+03  0.45365107776E+03  0.00000000000E+00 0. -1.
         21   -1    0    0  502  503 -0.00000000000E+00 -0.00000000000E+00 -0.95731312918E+02  0.95731312918E+02  0.00000000000E+00 0. -1.
         -6    2    1    2    0  503 -0.77131192575E+02  0.73133428371E+02  0.19750552252E+03  0.28998723952E+03  0.18381090404E+03 0.  0.
        -24    2    3    3    0    0 -0.17386957900E+02  0.41233204563E+02  0.10217817868E+02  0.90774357982E+02  0.78314090696E+02 0.  0.
          6    2    1    2  501    0  0.77131192575E+02 -0.73133428371E+02  0.16041424232E+03  0.25939515116E+03  0.17394078329E+03 0.  0.
         24    2    5    5    0    0  0.11272077964E+03 -0.82343474368E+02  0.10008559419E+03  0.18859204784E+03  0.77867916443E+02 0.  0.
          5    1    5    5  501    0 -0.35589587061E+02  0.92100459968E+01  0.60328648134E+02  0.70803103322E+02  0.47000000000E+01 0. -1.
        -11    1    6    6    0    0  0.14656394866E+02 -0.43073723234E+02  0.37960352667E+01  0.45657041378E+02  0.00000000000E+00 0.  1.
         12    1    6    6    0    0  0.98064384770E+02 -0.39269751134E+02  0.96289558921E+02  0.14293500646E+03  0.00000000000E+00 0. -1.
         -5    1    3    3    0  503 -0.59744234676E+02  0.31900223809E+02  0.18728770465E+03  0.19921288154E+03  0.47000000000E+01 0.  1.
         13    1    4    4    0    0 -0.30165870274E+02 -0.10790111131E+02  0.17832384504E+02  0.36666062847E+02  0.00000000000E+00 0. -1.
        -14    1    4    4    0    0  0.12778912374E+02  0.52023315694E+02 -0.76145666360E+01  0.54108295134E+02  0.00000000000E+00 0.  1.
<mgrwt>
<rscale>  2 0.21017665E+03</rscale>
<asrwt>0</asrwt>
<pdfrwt beam="1">  1       21 0.69792472E-01 0.21233033E+03</pdfrwt>
<pdfrwt beam="2">  1       21 0.14727895E-01 0.21233033E+03</pdfrwt>
<totfact> 0.74988408E+04</totfact>
</mgrwt>
</event>
<event>
12    1  0.1039378E-001  0.1848252E+03  0.7546771E-02  0.1163270E+00
         21   -1    0    0  503  502  0.00000000000E+00  0.00000000000E+00  0.12513571930E+03  0.12513571930E+03  0.00000000000E+00 0. -1.
         21   -1    0    0  501  503 -0.00000000000E+00 -0.00000000000E+00 -0.29575239051E+03  0.29575239051E+03  0.00000000000E+00 0. -1.
          6    2    1    2  501    0  0.26318868726E+02  0.59283439521E+02 -0.14409852220E+03  0.23417020824E+03  0.17281230649E+03 0.  0.
         24    2    3    3    0    0 -0.37404322400E+02  0.58173875453E+01 -0.35532979352E+02  0.97320542933E+02  0.82315066197E+02 0.  0.
         -6    2    1    2    0  502 -0.26318868726E+02 -0.59283439521E+02 -0.26518149007E+02  0.18671790156E+03  0.17306979368E+03 0.  0.
        -24    2    5    5    0    0 -0.12328817009E+02 -0.10566760936E+03 -0.33601550560E+02  0.13752971867E+03  0.80422110901E+02 0.  0.
          5    1    3    3  501    0  0.63723191126E+02  0.53466051976E+02 -0.10856554285E+03  0.13684966531E+03  0.47000000000E+01 0. -1.
        -13    1    4    4    0    0  0.12504484703E+02 -0.17592364192E+02  0.11855634869E+02  0.24625383118E+02  0.00000000000E+00 0.  1.
         14    1    4    4    0    0 -0.49908807102E+02  0.23409751738E+02 -0.47388614221E+02  0.72695159815E+02  0.00000000000E+00 0. -1.
         -5    1    5    5    0  502 -0.13990051717E+02  0.46384169838E+02  0.70834015523E+01  0.49188182891E+02  0.47000000000E+01 0.  1.
         13    1    6    6    0    0 -0.27768522796E+01 -0.10804704516E+03 -0.60268601243E+01  0.10825062549E+03  0.00000000000E+00 0. -1.
        -14    1    6    6    0    0 -0.95519647298E+01  0.23794358009E+01 -0.27574690435E+02  0.29279093182E+02  0.00000000000E+00 0.  1.
<mgrwt>
<rscale>  2 0.18476492E+03</rscale>
<asrwt>0</asrwt>
<pdfrwt beam="1">  1       21 0.19251649E-01 0.18482522E+03</pdfrwt>
<pdfrwt beam="2">  1       21 0.45500367E-01 0.18482522E+03</pdfrwt>
<totfact> 0.11512629E+05</totfact>
</mgrwt>
</event>
<event>
12    1  0.1039378E-001  0.2025774E+03  0.7546771E-02  0.1148553E+00
         21   -1    0    0  503  502  0.00000000000E+00  0.00000000000E+00  0.31790122798E+03  0.31790122798E+03  0.00000000000E+00 0. -1.
         21   -1    0    0  501  503 -0.00000000000E+00 -0.00000000000E+00 -0.16203166940E+03  0.16203166940E+03  0.00000000000E+00 0. -1.
          6    2    1    2  501    0 -0.92948639249E+02 -0.51249609906E+02  0.19013458109E+03  0.27447800361E+03  0.16709591104E+03 0.  0.
         24    2    3    3    0    0 -0.29719312175E+01  0.28507576285E+02  0.99858125667E+02  0.12404880053E+03  0.67786026359E+02 0.  0.
         -6    2    1    2    0  502  0.92948639249E+02  0.51249609906E+02 -0.34265022502E+02  0.20545489377E+03  0.17254463062E+03 0.  0.
        -24    2    5    5    0    0  0.86749981165E+02  0.97162849886E+02 -0.39278906852E+02  0.15861817737E+03  0.81551916215E+02 0.  0.
          5    1    3    3  501    0 -0.89976708032E+02 -0.79757186191E+02  0.90276455418E+02  0.15042920308E+03  0.47000000000E+01 0. -1.
        -11    1    4    4    0    0 -0.78040031378E+01 -0.11991367688E+02  0.74852264588E+02  0.76207328243E+02  0.00000000000E+00 0.  1.
         12    1    4    4    0    0  0.48320719203E+01  0.40498943973E+02  0.25005861079E+02  0.47841472284E+02  0.00000000000E+00 0. -1.
         -5    1    5    5    0  502  0.61986580841E+01 -0.45913239979E+02  0.50138843495E+01  0.46836716406E+02  0.47000000000E+01 0.  1.
         13    1    6    6    0    0  0.73372277294E+02  0.76445747401E+02  0.69874554544E+01  0.10618977307E+03  0.00000000000E+00 0. -1.
        -14    1    6    6    0    0  0.13377703870E+02  0.20717102484E+02 -0.46266362306E+02  0.52428404298E+02  0.00000000000E+00 0.  1.
<mgrwt>
<rscale>  2 0.20141235E+03</rscale>
<asrwt>0</asrwt>
<pdfrwt beam="1">  1       21 0.48907881E-01 0.20257745E+03</pdfrwt>
<pdfrwt beam="2">  1       21 0.24927949E-01 0.20257745E+03</pdfrwt>
<totfact> 0.60484513E+04</totfact>
</mgrwt>
</event>
<event>
12    1  0.1039378E-001  0.1845247E+03  0.7546771E-02  0.1164154E+00
         21   -1    0    0  501  502  0.00000000000E+00  0.00000000000E+00  0.13333692192E+02  0.13333692192E+02  0.00000000000E+00 0. -1.
         21   -1    0    0  502  503 -0.00000000000E+00 -0.00000000000E+00 -0.25172421040E+04  0.25172421040E+04  0.00000000000E+00 0. -1.
         -6    2    1    2    0  503 -0.43101967085E+02 -0.41204870182E+02 -0.12791848099E+04  0.12920293606E+04  0.17166965312E+03 0.  0.
        -24    2    3    3    0    0 -0.86809084358E+02 -0.49360272857E+02 -0.74598607735E+03  0.75695945758E+03  0.80747378630E+02 0.  0.
          6    2    1    2  501    0  0.43101967085E+02  0.41204870182E+02 -0.12247236019E+04  0.12385464356E+04  0.17462460087E+03 0.  0.
         24    2    5    5    0    0  0.24006276238E+02 -0.18095529815E+02 -0.32421000872E+03  0.33586819595E+03  0.82410956813E+02 0.  0.
          5    1    5    5  501    0  0.19095690846E+02  0.59300399997E+02 -0.90051359317E+03  0.90267823965E+03  0.47000000000E+01 0. -1.
        -11    1    6    6    0    0  0.31209638300E+02 -0.40014122023E+02 -0.29123546727E+03  0.29562352558E+03  0.00000000000E+00 0.  1.
         12    1    6    6    0    0 -0.72033620618E+01  0.21918592208E+02 -0.32974541451E+02  0.40244670371E+02  0.00000000000E+00 0. -1.
         -5    1    3    3    0  503  0.43707117273E+02  0.81554026746E+01 -0.53319873258E+03  0.53506990302E+03  0.47000000000E+01 0.  1.
         11    1    4    4    0    0 -0.23218251003E+02 -0.26922340137E+02 -0.79699417294E+02  0.87269105044E+02  0.00000000000E+00 0. -1.
        -12    1    4    4    0    0 -0.63590833355E+02 -0.22437932720E+02 -0.66628666005E+03  0.66969035253E+03  0.00000000000E+00 0.  1.
<mgrwt>
<rscale>  2 0.18382224E+03</rscale>
<asrwt>0</asrwt>
<pdfrwt beam="1">  1       21 0.20513362E-02 0.18452472E+03</pdfrwt>
<pdfrwt beam="2">  1       21 0.38726821E+00 0.18452472E+03</pdfrwt>
<totfact> 0.12460923E+04</totfact>
</mgrwt>
</event>
<event>
12    1  0.1039378E-001  0.2078387E+03  0.7546771E-02  0.1143344E+00
         21   -1    0    0  503  502  0.00000000000E+00  0.00000000000E+00  0.50539910180E+03  0.50539910180E+03  0.00000000000E+00 0. -1.
         21   -1    0    0  501  503 -0.00000000000E+00 -0.00000000000E+00 -0.10686981212E+03  0.10686981212E+03  0.00000000000E+00 0.  1.
          6    2    1    2  501    0 -0.23560688916E+02  0.11265718281E+03  0.62020388398E+02  0.21689501717E+03  0.17306118281E+03 0.  0.
         24    2    3    3    0    0  0.22008937215E+02  0.51184298811E+02  0.93438477535E+02  0.13404157658E+03  0.78308169472E+02 0.  0.
         -6    2    1    2    0  502  0.23560688916E+02 -0.11265718281E+03  0.33650890128E+03  0.39537389675E+03  0.17272964623E+03 0.  0.
        -24    2    5    5    0    0  0.19777714946E+01 -0.10765333791E+03  0.14386434731E+03  0.20140257164E+03  0.90955443453E+02 0.  0.
          5    1    3    3  501    0 -0.45569626131E+02  0.61472883998E+02 -0.31418089136E+02  0.82853440591E+02  0.47000000000E+01 0. -1.
        -13    1    4    4    0    0  0.42794576569E+01  0.42667751030E+02  0.46875486602E+01  0.43137267510E+02  0.00000000000E+00 0.  1.
         14    1    4    4    0    0  0.17729479558E+02  0.85165477816E+01  0.88750928875E+02  0.90904309071E+02  0.00000000000E+00 0. -1.
         -5    1    5    5    0  502  0.21582917421E+02 -0.50038448974E+01  0.19264455397E+03  0.19397132510E+03  0.47000000000E+01 0.  1.
         13    1    6    6    0    0 -0.28329716585E+02 -0.13417529044E+02  0.73639064803E+02  0.80033210559E+02  0.00000000000E+00 0. -1.
        -14    1    6    6    0    0  0.30307488080E+02 -0.94235808868E+02  0.70225282510E+02  0.12136936109E+03  0.00000000000E+00 0.  1.
<mgrwt>
<rscale>  2 0.20776966E+03</rscale>
<asrwt>0</asrwt>
<pdfrwt beam="1">  1       21 0.77753707E-01 0.20783869E+03</pdfrwt>
<pdfrwt beam="2">  1       21 0.16441510E-01 0.20783869E+03</pdfrwt>
<totfact> 0.48279678E+04</totfact>
</mgrwt>
</event>
<event>
12    1  0.1039378E-001  0.1996179E+03  0.7546771E-02  0.1150326E+00
         21   -1    0    0  503  502  0.00000000000E+00  0.00000000000E+00  0.23988882536E+03  0.23988882536E+03  0.00000000000E+00 0.  1.
         21   -1    0    0  501  503 -0.00000000000E+00 -0.00000000000E+00 -0.69630373855E+03  0.69630373855E+03  0.00000000000E+00 0. -1.
          6    2    1    2  501    0  0.28656044314E+02  0.95659806508E+02 -0.63723888054E+03  0.66777294603E+03  0.17284487009E+03 0.  0.
         24    2    3    3    0    0 -0.22732371570E+02  0.10282934864E+02 -0.17118548161E+03  0.19116216126E+03  0.81338818027E+02 0.  0.
         -6    2    1    2    0  502 -0.28656044314E+02 -0.95659806508E+02  0.18082396735E+03  0.26841961789E+03  0.17140541602E+03 0.  0.
        -24    2    5    5    0    0  0.83618589145E+01 -0.11975503274E+03  0.16730206797E+03  0.22198862770E+03  0.82932384079E+02 0.  0.
          5    1    3    3  501    0  0.51388415884E+02  0.85376871644E+02 -0.46605339894E+03  0.47661078477E+03  0.47000000000E+01 0. -1.
        -13    1    4    4    0    0  0.20152994904E+02 -0.22318698904E+02 -0.47011654799E+02  0.55806480012E+02  0.00000000000E+00 0.  1.
         14    1    4    4    0    0 -0.42885366474E+02  0.32601633769E+02 -0.12417382681E+03  0.13535568125E+03  0.00000000000E+00 0. -1.
         -5    1    5    5    0  502 -0.37017903228E+02  0.24095226235E+02  0.13521899384E+02  0.46430990187E+02  0.47000000000E+01 0.  1.
         13    1    6    6    0    0  0.26353931750E+02 -0.46020800817E+02  0.20746258548E+02  0.56946036476E+02  0.00000000000E+00 0. -1.
        -14    1    6    6    0    0 -0.17992072835E+02 -0.73734231926E+02  0.14655580942E+03  0.16504259122E+03  0.00000000000E+00 0.  1.
<mgrwt>
<rscale>  2 0.19930592E+03</rscale>
<asrwt>0</asrwt>
<pdfrwt beam="1">  1       21 0.36905974E-01 0.19961793E+03</pdfrwt>
<pdfrwt beam="2">  1       21 0.10712365E+00 0.19961793E+03</pdfrwt>
<totfact> 0.49026590E+03</totfact>
</mgrwt>
</event>
<event>
12    1  0.1039378E-001  0.1950741E+03  0.7546771E-02  0.1154201E+00
         21   -1    0    0  503  502  0.00000000000E+00  0.00000000000E+00  0.11776241188E+04  0.11776241188E+04  0.00000000000E+00 0.  1.
         21   -1    0    0  501  503 -0.00000000000E+00 -0.00000000000E+00 -0.59595682499E+02  0.59595682499E+02  0.00000000000E+00 0.  1.
          6    2    1    2  501    0  0.85939853461E+02  0.16404824628E+02  0.13993126561E+03  0.24007222008E+03  0.17435347738E+03 0.  0.
         24    2    3    3    0    0  0.12205748220E+03  0.52606424667E+01  0.75738971692E+02  0.16543029821E+03  0.81884604261E+02 0.  0.
         -6    2    1    2    0  502 -0.85939853461E+02 -0.16404824628E+02  0.97809717066E+03  0.99714758118E+03  0.17313129910E+03 0.  0.
        -24    2    5    5    0    0 -0.70585033909E+02 -0.48248654348E+02  0.92921617264E+03  0.93663938387E+03  0.80873112139E+02 0.  0.
          5    1    3    3  501    0 -0.36117628737E+02  0.11144182162E+02  0.64192293918E+02  0.74641921867E+02  0.47000000000E+01 0. -1.
        -13    1    4    4    0    0 -0.64497511272E+01  0.38494735767E+00 -0.92507800407E+01  0.11283811654E+02  0.00000000000E+00 0.  1.
         14    1    4    4    0    0  0.12850723332E+03  0.48756951090E+01  0.84989751732E+02  0.15414648656E+03  0.00000000000E+00 0. -1.
         -5    1    5    5    0  502 -0.15354819551E+02  0.31843829719E+02  0.48880998020E+02  0.60508197313E+02  0.47000000000E+01 0.  1.
         11    1    6    6    0    0 -0.97272558829E+00 -0.14320667824E+02  0.51777168352E+03  0.51797060146E+03  0.00000000000E+00 0. -1.
        -12    1    6    6    0    0 -0.69612308321E+02 -0.33927986524E+02  0.41144448912E+03  0.41866878241E+03  0.00000000000E+00 0.  1.
<mgrwt>
<rscale>  2 0.19480065E+03</rscale>
<asrwt>0</asrwt>
<pdfrwt beam="1">  1       21 0.18117292E+00 0.19507412E+03</pdfrwt>
<pdfrwt beam="2">  1       21 0.91685674E-02 0.19507412E+03</pdfrwt>
<totfact> 0.16861738E+04</totfact>
</mgrwt>
</event>
<event>
12    1  0.1039378E-001  0.2682618E+03  0.7546771E-02  0.1102897E+00
         21   -1    0    0  501  502  0.00000000000E+00  0.00000000000E+00  0.30460029530E+03  0.30460029530E+03  0.00000000000E+00 0.  1.
         21   -1    0    0  502  503 -0.00000000000E+00 -0.00000000000E+00 -0.23694239025E+03  0.23694239025E+03  0.00000000000E+00 0.  1.
         -6    2    1    2    0  503 -0.16976210168E+03 -0.11282657774E+03 -0.28589037737E+01  0.26827701961E+03  0.17440005193E+03 0.  0.
        -24    2    3    3    0    0 -0.46948703116E+02 -0.10119346686E+03  0.25893800244E+02  0.14152029150E+03  0.83145688737E+02 0.  0.
          6    2    1    2  501    0  0.16976210168E+03  0.11282657774E+03  0.70516808819E+02  0.27326566594E+03  0.16778705566E+03 0.  0.
         24    2    5    5    0    0  0.13931979406E+03  0.26115499013E+02  0.78739281641E+02  0.18087927990E+03  0.80158687086E+02 0.  0.
          5    1    5    5  501    0  0.30442307612E+02  0.86711078730E+02 -0.82224728225E+01  0.92386386045E+02  0.47000000000E+01 0. -1.
        -13    1    6    6    0    0  0.59897888800E+02  0.49650195243E+02  0.23340275363E+02  0.81226026767E+02  0.00000000000E+00 0.  1.
         14    1    6    6    0    0  0.79421905264E+02 -0.23534696230E+02  0.55399006279E+02  0.99653253129E+02  0.00000000000E+00 0. -1.
         -5    1    3    3    0  503 -0.12281339856E+03 -0.11633110887E+02 -0.28752704017E+02  0.12675672812E+03  0.47000000000E+01 0.  1.
         13    1    4    4    0    0 -0.61573528950E+01 -0.36694492769E+01  0.34709692603E+02  0.35442074054E+02  0.00000000000E+00 0. -1.
        -14    1    4    4    0    0 -0.40791350221E+02 -0.97524017579E+02 -0.88158923591E+01  0.10607821744E+03  0.00000000000E+00 0.  1.
<mgrwt>
<rscale>  2 0.26719257E+03</rscale>
<asrwt>0</asrwt>
<pdfrwt beam="1">  1       21 0.46861584E-01 0.26826179E+03</pdfrwt>
<pdfrwt beam="2">  1       21 0.36452676E-01 0.26826179E+03</pdfrwt>
<totfact> 0.30510105E+04</totfact>
</mgrwt>
</event>
<event>
12    1  0.1039378E-001  0.2478680E+03  0.7546771E-02  0.1114692E+00
         21   -1    0    0  501  502  0.00000000000E+00  0.00000000000E+00  0.53513079229E+02  0.53513079229E+02  0.00000000000E+00 0. -1.
         21   -1    0    0  502  503 -0.00000000000E+00 -0.00000000000E+00 -0.15528184729E+04  0.15528184729E+04  0.00000000000E+00 0. -1.
         -6    2    1    2    0  503 -0.69482682411E+02  0.16282760808E+03 -0.11603915966E+04  0.11865695168E+04  0.17348742778E+03 0.  0.
        -24    2    3    3    0    0 -0.61810276342E+02  0.14002567457E+03 -0.11444558044E+04  0.11573319817E+04  0.78806901667E+02 0.  0.
          6    2    1    2  501    0  0.69482682411E+02 -0.16282760808E+03 -0.33891379706E+03  0.41976203533E+03  0.17319622212E+03 0.  0.
         24    2    5    5    0    0  0.68105964127E+02 -0.34192022454E+02 -0.20727545211E+03  0.23564317941E+03  0.82201448939E+02 0.  0.
          5    1    5    5  501    0  0.13767182838E+01 -0.12863558563E+03 -0.13163834495E+03  0.18411885592E+03  0.47000000000E+01 0. -1.
        -13    1    6    6    0    0  0.31816889093E+02 -0.23202290597E+01 -0.11362332949E+02  0.33864443070E+02  0.00000000000E+00 0.  1.
         14    1    6    6    0    0  0.36289075035E+02 -0.31871793394E+02 -0.19591311916E+03  0.20177873634E+03  0.00000000000E+00 0. -1.
         -5    1    3    3    0  503 -0.76724060694E+01  0.22801933508E+02 -0.15935792178E+02  0.29237535104E+02  0.47000000000E+01 0.  1.
         13    1    4    4    0    0 -0.79484004069E+02  0.10413705801E+03 -0.81603847403E+03  0.82648715952E+03  0.00000000000E+00 0. -1.
        -14    1    4    4    0    0  0.17673727727E+02  0.35888616567E+02 -0.32841733038E+03  0.33084482215E+03  0.00000000000E+00 0.  1.
<mgrwt>
<rscale>  2 0.24781708E+03</rscale>
<asrwt>0</asrwt>
<pdfrwt beam="1">  1       21 0.82327819E-02 0.24786803E+03</pdfrwt>
<pdfrwt beam="2">  1       21 0.23889514E+00 0.24786803E+03</pdfrwt>
<totfact> 0.84246973E+03</totfact>
</mgrwt>
</event>
<event>
12    1  0.1039378E-001  0.2135920E+03  0.7546771E-02  0.1139528E+00
         21   -1    0    0  501  502  0.00000000000E+00  0.00000000000E+00  0.14468207440E+04  0.14468207440E+04  0.00000000000E+00 0. -1.
         21   -1    0    0  502  503 -0.00000000000E+00 -0.00000000000E+00 -0.40416503613E+02  0.40416503613E+02  0.00000000000E+00 0. -1.
         -6    2    1    2    0  503 -0.88835292925E+02  0.84718280713E+02  0.33829043581E+03  0.39797664946E+03  0.16992968605E+03 0.  0.
        -24    2    3    3    0    0 -0.87085096775E+02  0.11471496700E+02  0.19734475423E+03  0.23905550641E+03  0.10240690310E+03 0.  0.
          6    2    1    2  501    0  0.88835292925E+02 -0.84718280713E+02  0.10681138045E+04  0.10892605981E+04  0.17479317720E+03 0.  0.
         24    2    5    5    0    0  0.26201666744E+01 -0.10688427549E+02  0.67970697316E+03  0.68454412475E+03  0.80485909333E+02 0.  0.
          5    1    5    5  501    0  0.86215126251E+02 -0.74029853164E+02  0.38840683138E+03  0.40471647337E+03  0.47000000000E+01 0. -1.
        -11    1    6    6    0    0 -0.71088562706E+01  0.19209294599E+02  0.57137198769E+03  0.57173899740E+03  0.00000000000E+00 0.  1.
         12    1    6    6    0    0  0.97290229450E+01 -0.29897722149E+02  0.10833498548E+03  0.11280512735E+03  0.00000000000E+00 0. -1.
         -5    1    3    3    0  503 -0.17501961505E+01  0.73246784013E+02  0.14094568158E+03  0.15892114306E+03  0.47000000000E+01 0.  1.
         13    1    4    4    0    0 -0.68001458565E+02  0.40289021812E+02  0.18693512355E+03  0.20295847866E+03  0.00000000000E+00 0. -1.
        -14    1    4    4    0    0 -0.19083638210E+02 -0.28817525111E+02  0.10409630683E+02  0.36097027743E+02  0.00000000000E+00 0.  1.
<mgrwt>
<rscale>  2 0.21259471E+03</rscale>
<asrwt>0</asrwt>
<pdfrwt beam="1">  1       21 0.22258777E+00 0.21359202E+03</pdfrwt>
<pdfrwt beam="2">  1       21 0.62179247E-02 0.21359202E+03</pdfrwt>
<totfact> 0.17692054E+04</totfact>
</mgrwt>
</event>
<event>
12    1  0.1039378E-001  0.1784968E+03  0.7546771E-02  0.1169366E+00
         21   -1    0    0  503  502  0.00000000000E+00  0.00000000000E+00  0.10164512895E+03  0.10164512895E+03  0.00000000000E+00 0.  1.
         21   -1    0    0  501  503 -0.00000000000E+00 -0.00000000000E+00 -0.33674681426E+03  0.33674681426E+03  0.00000000000E+00 0.  1.
          6    2    1    2  501    0 -0.31465177433E+02  0.30974384300E+02 -0.17595449251E+03  0.25035077326E+03  0.17252842190E+03 0.  0.
         24    2    3    3    0    0  0.15759426064E+02  0.39088086964E+02 -0.18005357998E+03  0.20203009586E+03  0.81367253339E+02 0.  0.
         -6    2    1    2    0  502  0.31465177433E+02 -0.30974384300E+02 -0.59147192804E+02  0.18804116995E+03  0.17294976527E+03 0.  0.
        -24    2    5    5    0    0 -0.20720757530E+02 -0.71420854083E+02 -0.20150298675E+02  0.11121580645E+03  0.80203696149E+02 0.  0.
          5    1    3    3  501    0 -0.47224603497E+02 -0.81137026646E+01  0.40990874754E+01  0.48320677401E+02  0.47000000000E+01 0. -1.
        -13    1    4    4    0    0  0.19646985134E+02 -0.22076168499E+02 -0.71567118370E+02  0.77428765148E+02  0.00000000000E+00 0.  1.
         14    1    4    4    0    0 -0.38875590705E+01  0.61164255463E+02 -0.10848646161E+03  0.12460133071E+03  0.00000000000E+00 0. -1.
         -5    1    5    5    0  502  0.52185934963E+02  0.40446469784E+02 -0.38996894129E+02  0.76825363504E+02  0.47000000000E+01 0.  1.
         11    1    6    6    0    0  0.19762811642E+02 -0.49492771969E+02 -0.33905677068E+02  0.63164057332E+02  0.00000000000E+00 0. -1.
        -12    1    6    6    0    0 -0.40483569172E+02 -0.21928082115E+02  0.13755378393E+02  0.48051749114E+02  0.00000000000E+00 0.  1.
<mgrwt>
<rscale>  2 0.17839461E+03</rscale>
<asrwt>0</asrwt>
<pdfrwt beam="1">  1       21 0.15637713E-01 0.17849675E+03</pdfrwt>
<pdfrwt beam="2">  1       21 0.51807201E-01 0.17849675E+03</pdfrwt>
<totfact> 0.12926630E+05</totfact>
</mgrwt>
</event>
<event>
12    1  0.1039378E-001  0.1729364E+03  0.7546771E-02  0.1174948E+00
         21   -1    0    0  501  502  0.00000000000E+00  0.00000000000E+00  0.15952778033E+04  0.15952778033E+04  0.00000000000E+00 0.  1.
         21   -1    0    0  502  503 -0.00000000000E+00 -0.00000000000E+00 -0.24177904573E+02  0.24177904573E+02  0.00000000000E+00 0.  1.
         -6    2    1    2    0  503  0.14382011704E+02 -0.45888414630E+01  0.11703436371E+04  0.11829782488E+04  0.17177138430E+03 0.  0.
        -24    2    3    3    0    0 -0.19116144778E+02 -0.41131608363E+02  0.37181139476E+03  0.38289492040E+03  0.79420215285E+02 0.  0.
          6    2    1    2  501    0 -0.14382011704E+02  0.45888414630E+01  0.40075626165E+03  0.43647745911E+03  0.17227620653E+03 0.  0.
         24    2    5    5    0    0  0.16060992718E+01  0.21084121194E+01  0.77157924143E+02  0.11244081572E+03  0.81746968298E+02 0.  0.
          5    1    5    5  501    0 -0.15988110975E+02  0.24804293436E+01  0.32359833750E+03  0.32403664339E+03  0.47000000000E+01 0. -1.
        -13    1    6    6    0    0 -0.30322228924E+02 -0.24633676653E+02  0.46456555878E+02  0.60699811997E+02  0.00000000000E+00 0.  1.
         14    1    6    6    0    0  0.31928328196E+02  0.26742088773E+02  0.30701368266E+02  0.51741003727E+02  0.00000000000E+00 0. -1.
         -5    1    3    3    0  503  0.33498156481E+02  0.36542766900E+02  0.79853224237E+03  0.80008332841E+03  0.47000000000E+01 0.  1.
         11    1    4    4    0    0 -0.45280369016E+02 -0.94290244279E+01  0.25250459326E+03  0.25670564454E+03  0.00000000000E+00 0. -1.
        -12    1    4    4    0    0  0.26164224239E+02 -0.31702583935E+02  0.11930680150E+03  0.12618927586E+03  0.00000000000E+00 0.  1.
<mgrwt>
<rscale>  2 0.17281052E+03</rscale>
<asrwt>0</asrwt>
<pdfrwt beam="1">  1       21 0.24542727E+00 0.17293638E+03</pdfrwt>
<pdfrwt beam="2">  1       21 0.37196789E-02 0.17293638E+03</pdfrwt>
<totfact> 0.31831053E+04</totfact>
</mgrwt>
</event>
<event>
12    1  0.1039378E-001  0.4644166E+03  0.7546771E-02  0.1023829E+00
         21   -1    0    0  501  502  0.00000000000E+00  0.00000000000E+00  0.12315765146E+04  0.12315765146E+04  0.00000000000E+00 0.  1.
         21   -1    0    0  502  503 -0.00000000000E+00 -0.00000000000E+00 -0.20462490243E+03  0.20462490243E+03  0.00000000000E+00 0.  1.
         -6    2    1    2    0  503  0.15065109343E+03 -0.40150755230E+03  0.79166127268E+03  0.91558227808E+03  0.16631076561E+03 0.  0.
        -24    2    3    3    0    0  0.42719825400E+02 -0.11719124386E+03  0.19090073770E+03  0.24221741988E+03  0.81654244953E+02 0.  0.
          6    2    1    2  501    0 -0.15065109343E+03  0.40150755230E+03  0.23529033951E+03  0.52061913897E+03  0.17826574965E+03 0.  0.
         24    2    5    5    0    0 -0.14880540291E+03  0.32947484481E+03  0.25006050090E+03  0.44691455845E+03  0.80657592010E+02 0.  0.
          5    1    5    5  501    0 -0.18456905161E+01  0.72032707491E+02 -0.14770161397E+02  0.73704580521E+02  0.47000000000E+01 0. -1.
        -13    1    6    6    0    0 -0.77911048509E+02  0.12519377594E+03  0.60607202621E+02  0.15942661642E+03  0.00000000000E+00 0.  1.
         14    1    6    6    0    0 -0.70894354402E+02  0.20428106886E+03  0.18945329828E+03  0.28748794203E+03  0.00000000000E+00 0. -1.
         -5    1    3    3    0  503  0.10793126803E+03 -0.28431630844E+03  0.60076053499E+03  0.67336485820E+03  0.47000000000E+01 0.  1.
         11    1    4    4    0    0  0.55820410610E+02 -0.99921011099E+02  0.11104312930E+03  0.15947007012E+03  0.00000000000E+00 0. -1.
        -12    1    4    4    0    0 -0.13100585210E+02 -0.17270232761E+02  0.79857608404E+02  0.82747349761E+02  0.00000000000E+00 0.  1.
<mgrwt>
<rscale>  2 0.46329843E+03</rscale>
<asrwt>0</asrwt>
<pdfrwt beam="1">  1       21 0.18947330E+00 0.46441656E+03</pdfrwt>
<pdfrwt beam="2">  1       21 0.31480755E-01 0.46441656E+03</pdfrwt>
<totfact> 0.12742578E+03</totfact>
</mgrwt>
</event>
<event>
12    1  0.1039378E-001  0.3502302E+03  0.7546771E-02  0.1062528E+00
         21   -1    0    0  503  502  0.00000000000E+00  0.00000000000E+00  0.68965227385E+03  0.68965227385E+03  0.00000000000E+00 0. -1.
         21   -1    0    0  501  503 -0.00000000000E+00 -0.00000000000E+00 -0.18345912296E+03  0.18345912296E+03  0.00000000000E+00 0.  1.
          6    2    1    2  501    0  0.25785260848E+03  0.16164418000E+03  0.17660905473E+03  0.39223964101E+03  0.17333311611E+03 0.  0.
         24    2    3    3    0    0  0.14266582644E+03  0.16944754534E+03  0.90998554776E+02  0.24843374763E+03  0.66125496870E+02 0.  0.
         -6    2    1    2    0  502 -0.25785260848E+03 -0.16164418000E+03  0.32958409615E+03  0.48087175580E+03  0.17319110965E+03 0.  0.
        -24    2    5    5    0    0 -0.58712968150E+02 -0.98964501708E+02  0.11448252311E+03  0.18107830165E+03  0.80261559953E+02 0.  0.
          5    1    3    3  501    0  0.11518678204E+03 -0.78033653442E+01  0.85610499958E+02  0.14380589338E+03  0.47000000000E+01 0. -1.
        -11    1    4    4    0    0  0.70555330480E+02  0.91009512331E+02  0.11968971145E+02  0.11577582763E+03  0.00000000000E+00 0.  1.
         12    1    4    4    0    0  0.72110495956E+02  0.78438033009E+02  0.79029583631E+02  0.13265792000E+03  0.00000000000E+00 0. -1.
         -5    1    5    5    0  502 -0.19913964033E+03 -0.62679678288E+02  0.21510157305E+03  0.29979345414E+03  0.47000000000E+01 0.  1.
         13    1    6    6    0    0 -0.22190117853E+02  0.10645763921E+02  0.16997847605E+02  0.29910874996E+02  0.00000000000E+00 0. -1.
        -14    1    6    6    0    0 -0.36522850297E+02 -0.10961026563E+03  0.97484675500E+02  0.15116742666E+03  0.00000000000E+00 0.  1.
<mgrwt>
<rscale>  2 0.35021261E+03</rscale>
<asrwt>0</asrwt>
<pdfrwt beam="1">  1       21 0.10610035E+00 0.35023018E+03</pdfrwt>
<pdfrwt beam="2">  1       21 0.28224481E-01 0.35023018E+03</pdfrwt>
<totfact> 0.78367370E+03</totfact>
</mgrwt>
</event>
<event>
12    1  0.1039378E-001  0.2131078E+03  0.7546771E-02  0.1139134E+00
         21   -1    0    0  501  502  0.00000000000E+00  0.00000000000E+00  0.51262731192E+03  0.51262731192E+03  0.00000000000E+00 0.  1.
         21   -1    0    0  502  503 -0.00000000000E+00 -0.00000000000E+00 -0.23793097506E+03  0.23793097506E+03  0.00000000000E+00 0. -1.
         -6    2    1    2    0  503  0.12293092963E+03  0.17129624750E+02 -0.15998162077E+03  0.26645101670E+03  0.17319523034E+03 0.  0.
        -24    2    3    3    0    0  0.13410922080E+03  0.13687336169E+01 -0.63992372251E+02  0.16842354242E+03  0.79273636211E+02 0.  0.
          6    2    1    2  501    0 -0.12293092963E+03 -0.17129624750E+02  0.43467795764E+03  0.48410727028E+03  0.17323245877E+03 0.  0.
         24    2    5    5    0    0 -0.15777436911E+03 -0.13387495198E+02  0.36551498622E+03  0.40643053358E+03  0.80700662311E+02 0.  0.
          5    1    5    5  501    0  0.34843439479E+02 -0.37421295520E+01  0.69162971423E+02  0.77676736700E+02  0.47000000000E+01 0. -1.
        -13    1    6    6    0    0 -0.13997346733E+03  0.19257452835E+01  0.35317044582E+03  0.37990215036E+03  0.00000000000E+00 0.  1.
         14    1    6    6    0    0 -0.17800901779E+02 -0.15313240481E+02  0.12344540400E+02  0.26528383212E+02  0.00000000000E+00 0. -1.
         -5    1    3    3    0  503 -0.11178291171E+02  0.15760891133E+02 -0.95989248524E+02  0.98027474286E+02  0.47000000000E+01 0.  1.
         11    1    4    4    0    0  0.12727950496E+03  0.17273139393E+02 -0.74191363280E+02  0.14833338165E+03  0.00000000000E+00 0. -1.
        -12    1    4    4    0    0  0.68297158450E+01 -0.15904405776E+02  0.10198991029E+02  0.20090160766E+02  0.00000000000E+00 0.  1.
<mgrwt>
<rscale>  2 0.21310021E+03</rscale>
<asrwt>0</asrwt>
<pdfrwt beam="1">  1       21 0.78865740E-01 0.21310777E+03</pdfrwt>
<pdfrwt beam="2">  1       21 0.36604765E-01 0.21310777E+03</pdfrwt>
<totfact> 0.10082351E+04</totfact>
</mgrwt>
</event>
<event>
12    1  0.1039378E-001  0.2292844E+03  0.7546771E-02  0.1127403E+00
         21   -1    0    0  501  502  0.00000000000E+00  0.00000000000E+00  0.15964191359E+04  0.15964191359E+04  0.00000000000E+00 0.  1.
         21   -1    0    0  502  503 -0.00000000000E+00 -0.00000000000E+00 -0.53009297753E+02  0.53009297753E+02  0.00000000000E+00 0. -1.
         -6    2    1    2    0  503 -0.14292342320E+03 -0.44097267849E+02  0.25998204542E+03  0.34568066118E+03  0.17185104492E+03 0.  0.
        -24    2    3    3    0    0 -0.13297730318E+03  0.24901771144E+02  0.17888223547E+03  0.23863365347E+03  0.81511379781E+02 0.  0.
          6    2    1    2  501    0  0.14292342320E+03  0.44097267849E+02  0.12834277927E+04  0.13037477725E+04  0.17378055460E+03 0.  0.
         24    2    5    5    0    0  0.16276706473E+02 -0.58073064202E+01  0.30560175969E+03  0.31648099076E+03  0.80430877194E+02 0.  0.
          5    1    5    5  501    0  0.12664671673E+03  0.49904574269E+02  0.97782603302E+03  0.98726678170E+03  0.47000000000E+01 0. -1.
        -13    1    6    6    0    0  0.36957673573E+02  0.95737582036E+00  0.28186854891E+03  0.28428272031E+03  0.00000000000E+00 0.  1.
         14    1    6    6    0    0 -0.20680967100E+02 -0.67646822406E+01  0.23733210787E+02  0.32198270455E+02  0.00000000000E+00 0. -1.
         -5    1    3    3    0  503 -0.99461200234E+01 -0.68999038993E+02  0.81099809954E+02  0.10704700771E+03  0.47000000000E+01 0.  1.
         13    1    4    4    0    0 -0.64821224069E+02 -0.16608955302E+02  0.38624403168E+02  0.77262494175E+02  0.00000000000E+00 0. -1.
        -14    1    4    4    0    0 -0.68156079112E+02  0.41510726446E+02  0.14025783230E+03  0.16137115929E+03  0.00000000000E+00 0.  1.
<mgrwt>
<rscale>  2 0.22891883E+03</rscale>
<asrwt>0</asrwt>
<pdfrwt beam="1">  1       21 0.24560291E+00 0.22928444E+03</pdfrwt>
<pdfrwt beam="2">  1       21 0.81552778E-02 0.22928444E+03</pdfrwt>
<totfact> 0.79222593E+03</totfact>
</mgrwt>
</event>
<event>
12    1  0.1039378E-001  0.3892507E+03  0.7546771E-02  0.1047633E+00
         21   -1    0    0  501  502  0.00000000000E+00  0.00000000000E+00  0.80217451941E+03  0.80217451941E+03  0.00000000000E+00 0. -1.
         21   -1    0    0  502  503 -0.00000000000E+00 -0.00000000000E+00 -0.21699711274E+03  0.21699711274E+03  0.00000000000E+00 0.  1.
         -6    2    1    2    0  503  0.22534422613E+03  0.26529030548E+03  0.47741805349E+03  0.61599036951E+03  0.17423309414E+03 0.  0.
        -24    2    3    3    0    0  0.15740573765E+03  0.83701146475E+02  0.23246674911E+03  0.30355878915E+03  0.79527987917E+02 0.  0.
          6    2    1    2  501    0 -0.22534422613E+03 -0.26529030548E+03  0.10775935317E+03  0.40318126264E+03  0.17258066495E+03 0.  0.
         24    2    5    5    0    0 -0.19712248250E+03 -0.19863845806E+03  0.14061616951E+03  0.32355340346E+03  0.81236615105E+02 0.  0.
          5    1    5    5  501    0 -0.28221743631E+02 -0.66651847416E+02 -0.32856816337E+02  0.79627859178E+02  0.47000000000E+01 0. -1.
        -13    1    6    6    0    0 -0.30220318731E+02 -0.43707906716E+01 -0.16433552662E+01  0.30578948508E+02  0.00000000000E+00 0.  1.
         14    1    6    6    0    0 -0.16690216377E+03 -0.19426766739E+03  0.14225952478E+03  0.29297445495E+03  0.00000000000E+00 0. -1.
         -5    1    3    3    0  503  0.67938488479E+02  0.18158915900E+03  0.24495130438E+03  0.31243158036E+03  0.47000000000E+01 0.  1.
         13    1    4    4    0    0  0.41701177776E+02  0.67809718083E+01  0.11186617746E+03  0.11957847409E+03  0.00000000000E+00 0. -1.
        -14    1    4    4    0    0  0.11570455988E+03  0.76920174666E+02  0.12060057165E+03  0.18398031506E+03  0.00000000000E+00 0.  1.
<mgrwt>
<rscale>  2 0.38906640E+03</rscale>
<asrwt>0</asrwt>
<pdfrwt beam="1">  1       21 0.12341146E+00 0.38925074E+03</pdfrwt>
<pdfrwt beam="2">  1       21 0.33384172E-01 0.38925074E+03</pdfrwt>
<totfact> 0.37919851E+03</totfact>
</mgrwt>
</event>
<event>
12    1  0.1039378E-001  0.1787624E+03  0.7546771E-02  0.1172516E+00
         21   -1    0    0  503  502  0.00000000000E+00  0.00000000000E+00  0.12940376529E+04  0.12940376529E+04  0.00000000000E+00 0. -1.
         21   -1    0    0  501  503 -0.00000000000E+00 -0.00000000000E+00 -0.28663080886E+02  0.28663080886E+02  0.00000000000E+00 0. -1.
          6    2    1    2  501    0 -0.36994122807E+02 -0.26497967738E+02  0.35469575402E+03  0.39719652728E+03  0.17287364157E+03 0.  0.
         24    2    3    3    0    0 -0.31046138800E+02  0.41817982531E+02  0.11413121414E+03  0.14700492986E+03  0.76628382235E+02 0.  0.
         -6    2    1    2    0  502  0.36994122807E+02  0.26497967738E+02  0.91067881805E+03  0.92550420656E+03  0.15859199001E+03 0.  0.
        -24    2    5    5    0    0 -0.17744132329E+02  0.17460782972E+02  0.76629803907E+03  0.77075975069E+03  0.78982120910E+02 0.  0.
          5    1    3    3  501    0 -0.59479840068E+01 -0.68315950269E+02  0.24056453987E+03  0.25019159742E+03  0.47000000000E+01 0. -1.
        -13    1    4    4    0    0 -0.26411569337E+02  0.26725142172E+02  0.12319656592E+03  0.12879906084E+03  0.00000000000E+00 0.  1.
         14    1    4    4    0    0 -0.46345694630E+01  0.15092840359E+02 -0.90653517708E+01  0.18205869025E+02  0.00000000000E+00 0. -1.
         -5    1    5    5    0  502  0.54738255135E+02  0.90371847658E+01  0.14438077898E+03  0.15474445587E+03  0.47000000000E+01 0.  1.
         13    1    6    6    0    0  0.13867948679E+02  0.12140092745E+02  0.64602661136E+03  0.64628947418E+03  0.00000000000E+00 0. -1.
        -14    1    6    6    0    0 -0.31612081008E+02  0.53206902270E+01  0.12027142771E+03  0.12447027651E+03  0.00000000000E+00 0.  1.
<mgrwt>
<rscale>  2 0.17521546E+03</rscale>
<asrwt>0</asrwt>
<pdfrwt beam="1">  1       21 0.19908267E+00 0.17876242E+03</pdfrwt>
<pdfrwt beam="2">  1       21 0.44097058E-02 0.17876242E+03</pdfrwt>
<totfact> 0.45694553E+04</totfact>
</mgrwt>
</event>
<event>
12    1  0.1039378E-001  0.2292199E+03  0.7546771E-02  0.1128688E+00
         21   -1    0    0  501  502  0.00000000000E+00  0.00000000000E+00  0.58388514061E+03  0.58388514061E+03  0.00000000000E+00 0.  1.
         21   -1    0    0  502  503 -0.00000000000E+00 -0.00000000000E+00 -0.87864883370E+02  0.87864883370E+02  0.00000000000E+00 0.  1.
         -6    2    1    2    0  503 -0.12609039439E+03  0.87501391191E+02  0.28126642133E+03  0.35764657799E+03  0.15888673313E+03 0.  0.
        -24    2    3    3    0    0 -0.50803193703E+02  0.73161193793E+02  0.87548795318E+02  0.14926612671E+03  0.81743869823E+02 0.  0.
          6    2    1    2  501    0  0.12609039439E+03 -0.87501391191E+02  0.21475383591E+03  0.31410344599E+03  0.17025417389E+03 0.  0.
         24    2    5    5    0    0  0.15229987870E+03 -0.97503784165E+02  0.17052395103E+03  0.26151677801E+03  0.81304159328E+02 0.  0.
          5    1    5    5  501    0 -0.26209484316E+02  0.10002392974E+02  0.44229884872E+02  0.52586667979E+02  0.47000000000E+01 0. -1.
        -13    1    6    6    0    0  0.32076805554E+02 -0.27916941324E+02  0.93419708161E+02  0.10264267602E+03  0.00000000000E+00 0.  1.
         14    1    6    6    0    0  0.12022307315E+03 -0.69586842841E+02  0.77104242873E+02  0.15887410199E+03  0.00000000000E+00 0. -1.
         -5    1    3    3    0  503 -0.75287200682E+02  0.14340197398E+02  0.19371762602E+03  0.20838045128E+03  0.47000000000E+01 0.  1.
         13    1    4    4    0    0 -0.67138523454E+01  0.73694284063E+02  0.69833272676E+02  0.10174777290E+03  0.00000000000E+00 0. -1.
        -14    1    4    4    0    0 -0.44089341358E+02 -0.53309026959E+00  0.17715522641E+02  0.47518353812E+02  0.00000000000E+00 0.  1.
<mgrwt>
<rscale>  2 0.22711302E+03</rscale>
<asrwt>0</asrwt>
<pdfrwt beam="1">  1       21 0.89828481E-01 0.22921990E+03</pdfrwt>
<pdfrwt beam="2">  1       21 0.13517675E-01 0.22921990E+03</pdfrwt>
<totfact> 0.49114028E+04</totfact>
</mgrwt>
</event>
<event>
12    1  0.1039378E-001  0.4238844E+03  0.7546771E-02  0.1035887E+00
         21   -1    0    0  501  502  0.00000000000E+00  0.00000000000E+00  0.27369292740E+03  0.27369292740E+03  0.00000000000E+00 0. -1.
         21   -1    0    0  502  503 -0.00000000000E+00 -0.00000000000E+00 -0.70425528273E+03  0.70425528273E+03  0.00000000000E+00 0. -1.
         -6    2    1    2    0  503 -0.21179782872E+03  0.32348942143E+03 -0.34436358463E+03  0.54538812653E+03  0.17134235937E+03 0.  0.
        -24    2    3    3    0    0 -0.14751306715E+03  0.21750753669E+03 -0.14540045283E+03  0.31092467889E+03  0.80394220973E+02 0.  0.
          6    2    1    2  501    0  0.21179782872E+03 -0.32348942143E+03 -0.86198770709E+02  0.43256008360E+03  0.17370743171E+03 0.  0.
         24    2    5    5    0    0  0.79368612969E+02 -0.49840083293E+02 -0.40682543356E+02  0.12512671782E+03  0.72237217213E+02 0.  0.
          5    1    5    5  501    0  0.13242921575E+03 -0.27364933814E+03 -0.45516227353E+02  0.30743336579E+03  0.47000000000E+01 0. -1.
        -11    1    6    6    0    0  0.42553669045E+01 -0.25326498024E+02  0.13797100511E+02  0.29153038129E+02  0.00000000000E+00 0.  1.
         12    1    6    6    0    0  0.75113246065E+02 -0.24513585269E+02 -0.54479643867E+02  0.95973679689E+02  0.00000000000E+00 0. -1.
         -5    1    3    3    0  503 -0.64284761570E+02  0.10598188474E+03 -0.19896313180E+03  0.23446344764E+03  0.47000000000E+01 0.  1.
         11    1    4    4    0    0 -0.14692182655E+03  0.21229609100E+03 -0.15417034328E+03  0.30070608261E+03  0.00000000000E+00 0. -1.
        -12    1    4    4    0    0 -0.59124060008E+00  0.52114456833E+01  0.87698904468E+01  0.10218596284E+02  0.00000000000E+00 0.  1.
<mgrwt>
<rscale>  2 0.42364328E+03</rscale>
<asrwt>0</asrwt>
<pdfrwt beam="1">  1       21 0.42106605E-01 0.42388442E+03</pdfrwt>
<pdfrwt beam="2">  1       21 0.10834696E+00 0.42388442E+03</pdfrwt>
<totfact> 0.32292273E+03</totfact>
</mgrwt>
</event>
<event>
12    1  0.1039378E-001  0.2287691E+03  0.7546771E-02  0.1128204E+00
         21   -1    0    0  501  502  0.00000000000E+00  0.00000000000E+00  0.16467725531E+04  0.16467725531E+04  0.00000000000E+00 0.  1.
         21   -1    0    0  502  503 -0.00000000000E+00 -0.00000000000E+00 -0.31337647650E+02  0.31337647650E+02  0.00000000000E+00 0. -1.
         -6    2    1    2    0  503  0.14879187063E+03 -0.90857895891E+01  0.76842073904E+03  0.80175165859E+03  0.17353304446E+03 0.  0.
        -24    2    3    3    0    0  0.18654766789E+01 -0.80624659906E+01  0.29296282509E+03  0.30408637914E+03  0.81072965474E+02 0.  0.
          6    2    1    2  501    0 -0.14879187063E+03  0.90857895891E+01  0.84701416642E+03  0.87635854217E+03  0.16837376278E+03 0.  0.
         24    2    5    5    0    0 -0.63088147178E+02  0.10869557319E+02  0.68825744932E+03  0.69587559211E+03  0.80288614133E+02 0.  0.
          5    1    5    5  501    0 -0.85703723448E+02 -0.17837677301E+01  0.15875671710E+03  0.18048295007E+03  0.47000000000E+01 0. -1.
        -11    1    6    6    0    0 -0.73334915605E+02  0.61225954774E+01  0.36105052843E+03  0.36847385267E+03  0.00000000000E+00 0.  1.
         12    1    6    6    0    0  0.10246768427E+02  0.47469618417E+01  0.32720692088E+03  0.32740173943E+03  0.00000000000E+00 0. -1.
         -5    1    3    3    0  503  0.14692639395E+03 -0.10233235985E+01  0.47545791395E+03  0.49766527945E+03  0.47000000000E+01 0.  1.
         11    1    4    4    0    0 -0.11382695611E+02 -0.38015341430E+02  0.88136239792E+02  0.96657791761E+02  0.00000000000E+00 0. -1.
        -12    1    4    4    0    0  0.13248172289E+02  0.29952875439E+02  0.20482658530E+03  0.20742858737E+03  0.00000000000E+00 0.  1.
<mgrwt>
<rscale>  2 0.22779070E+03</rscale>
<asrwt>0</asrwt>
<pdfrwt beam="1">  1       21 0.25334956E+00 0.22876908E+03</pdfrwt>
<pdfrwt beam="2">  1       21 0.48211778E-02 0.22876908E+03</pdfrwt>
<totfact> 0.17635844E+04</totfact>
</mgrwt>
</event>
<event>
12    1  0.1039378E-001  0.1786831E+03  0.7546771E-02  0.1170346E+00
         21   -1    0    0  501  502  0.00000000000E+00  0.00000000000E+00  0.37466039288E+02  0.37466039288E+02  0.00000000000E+00 0. -1.
         21   -1    0    0  502  503 -0.00000000000E+00 -0.00000000000E+00 -0.13367034981E+04  0.13367034981E+04  0.00000000000E+00 0. -1.
         -6    2    1    2    0  503  0.27795408972E+02  0.31872658189E+02 -0.10676078170E+04  0.10816290405E+04  0.16836412712E+03 0.  0.
        -24    2    3    3    0    0  0.24348143386E+02  0.30232373417E+02 -0.10709368521E+04  0.10747191455E+04  0.81293739549E+02 0.  0.
          6    2    1    2  501    0 -0.27795408972E+02 -0.31872658189E+02 -0.23162964182E+03  0.29254049686E+03  0.17360645217E+03 0.  0.
         24    2    5    5    0    0 -0.11627935069E+01 -0.55259359853E+02 -0.23922171478E+03  0.25598966112E+03  0.72448111341E+02 0.  0.
          5    1    5    5  501    0 -0.26632615465E+02  0.23386701664E+02  0.75920729683E+01  0.36550835739E+02  0.47000000000E+01 0. -1.
        -13    1    6    6    0    0 -0.12722137122E+02 -0.42341632428E+02 -0.53248536250E+02  0.69210354878E+02  0.00000000000E+00 0.  1.
         14    1    6    6    0    0  0.11559343616E+02 -0.12917727425E+02 -0.18597317853E+03  0.18677930624E+03  0.00000000000E+00 0. -1.
         -5    1    3    3    0  503  0.34472655858E+01  0.16402847714E+01  0.33290351053E+01  0.69098949980E+01  0.47000000000E+01 0.  1.
         13    1    4    4    0    0  0.24054203617E+02 -0.19358192029E+02 -0.67242768480E+03  0.67313619394E+03  0.00000000000E+00 0. -1.
        -14    1    4    4    0    0  0.29393976878E+00  0.49590565446E+02 -0.39850916732E+03  0.40158295160E+03  0.00000000000E+00 0.  1.
<mgrwt>
<rscale>  2 0.17739705E+03</rscale>
<asrwt>0</asrwt>
<pdfrwt beam="1">  1       21 0.57640067E-02 0.17868310E+03</pdfrwt>
<pdfrwt beam="2">  1       21 0.20564667E+00 0.17868310E+03</pdfrwt>
<totfact> 0.26376700E+04</totfact>
</mgrwt>
</event>
<event>
12    1  0.1039378E-001  0.2238091E+03  0.7546771E-02  0.1131287E+00
         21   -1    0    0  503  502  0.00000000000E+00  0.00000000000E+00  0.98193218760E+02  0.98193218760E+02  0.00000000000E+00 0.  1.
         21   -1    0    0  501  503 -0.00000000000E+00 -0.00000000000E+00 -0.51015583334E+03  0.51015583334E+03  0.00000000000E+00 0.  1.
          6    2    1    2  501    0 -0.12649504340E+03  0.64776928312E+02 -0.22856301850E+03  0.31989307478E+03  0.17289730889E+03 0.  0.
         24    2    3    3    0    0 -0.11374474735E+03  0.10954922713E+03 -0.17254978796E+03  0.24690882452E+03  0.79067297827E+02 0.  0.
         -6    2    1    2    0  502  0.12649504340E+03 -0.64776928312E+02 -0.18339959609E+03  0.28845597733E+03  0.17138959292E+03 0.  0.
        -24    2    5    5    0    0  0.13042289036E+03  0.28085465545E+01 -0.11114491946E+03  0.18932952934E+03  0.80464024857E+02 0.  0.
          5    1    3    3  501    0 -0.12750296054E+02 -0.44772298820E+02 -0.56013230534E+02  0.72984250260E+02  0.47000000000E+01 0. -1.
        -13    1    4    4    0    0 -0.11116563895E+03  0.74529772100E+02 -0.16222522938E+03  0.21030813408E+03  0.00000000000E+00 0.  1.
         14    1    4    4    0    0 -0.25791083981E+01  0.35019455032E+02 -0.10324558583E+02  0.36600690442E+02  0.00000000000E+00 0. -1.
         -5    1    5    5    0  502 -0.39278469602E+01 -0.67585474867E+02 -0.72254676627E+02  0.99126447980E+02  0.47000000000E+01 0.  1.
         13    1    6    6    0    0  0.90415677118E+02 -0.44494288285E+01 -0.24754254636E+02  0.93848629229E+02  0.00000000000E+00 0. -1.
        -14    1    6    6    0    0  0.40007213244E+02  0.72579753831E+01 -0.86390664824E+02  0.95480900116E+02  0.00000000000E+00 0.  1.
<mgrwt>
<rscale>  2 0.22351789E+03</rscale>
<asrwt>0</asrwt>
<pdfrwt beam="1">  1       21 0.15106649E-01 0.22380913E+03</pdfrwt>
<pdfrwt beam="2">  1       21 0.78485511E-01 0.22380913E+03</pdfrwt>
<totfact> 0.54798636E+04</totfact>
</mgrwt>
</event>
<event>
12    1  0.1039378E-001  0.1748614E+03  0.7546771E-02  0.1172902E+00
         21   -1    0    0  501  502  0.00000000000E+00  0.00000000000E+00  0.42486169773E+02  0.42486169773E+02  0.00000000000E+00 0. -1.
         21   -1    0    0  502  503 -0.00000000000E+00 -0.00000000000E+00 -0.12248420168E+04  0.12248420168E+04  0.00000000000E+00 0. -1.
         -6    2    1    2    0  503  0.25822531546E+02  0.65563025802E+01 -0.99844429769E+03  0.10136407326E+04  0.17281993808E+03 0.  0.
        -24    2    3    3    0    0  0.19577920761E+02  0.56234128431E+02 -0.88512734322E+03  0.88966612346E+03  0.67155233147E+02 0.  0.
          6    2    1    2  501    0 -0.25822531546E+02 -0.65563025802E+01 -0.18391154935E+03  0.25368745396E+03  0.17269649121E+03 0.  0.
         24    2    5    5    0    0 -0.52445514495E+01 -0.69961703177E+02 -0.99724622404E+02  0.14620151647E+03  0.80670551472E+02 0.  0.
          5    1    5    5  501    0 -0.20577980097E+02  0.63405400596E+02 -0.84186926943E+02  0.10748593749E+03  0.47000000000E+01 0. -1.
        -11    1    6    6    0    0  0.27042456038E+02 -0.26441795287E+02 -0.80079113299E+02  0.88561432652E+02  0.00000000000E+00 0.  1.
         12    1    6    6    0    0 -0.32287007487E+02 -0.43519907889E+02 -0.19645509105E+02  0.57640083823E+02  0.00000000000E+00 0. -1.
         -5    1    3    3    0  503  0.62446107851E+01 -0.49677825851E+02 -0.11331695446E+03  0.12397460915E+03  0.47000000000E+01 0.  1.
         13    1    4    4    0    0 -0.41177738736E+01  0.64396971058E+02 -0.61289461131E+03  0.61628218417E+03  0.00000000000E+00 0. -1.
        -14    1    4    4    0    0  0.23695694635E+02 -0.81628426267E+01 -0.27223273191E+03  0.27338393930E+03  0.00000000000E+00 0.  1.
<mgrwt>
<rscale>  2 0.17483092E+03</rscale>
<asrwt>0</asrwt>
<pdfrwt beam="1">  1       21 0.65363337E-02 0.17486143E+03</pdfrwt>
<pdfrwt beam="2">  1       21 0.18843724E+00 0.17486143E+03</pdfrwt>
<totfact> 0.27538233E+04</totfact>
</mgrwt>
</event>
<event>
12    1  0.1039378E-001  0.1987253E+03  0.7546771E-02  0.1151704E+00
         21   -1    0    0  501  502  0.00000000000E+00  0.00000000000E+00  0.19158484080E+03  0.19158484080E+03  0.00000000000E+00 0.  1.
         21   -1    0    0  502  503 -0.00000000000E+00 -0.00000000000E+00 -0.23174434576E+03  0.23174434576E+03  0.00000000000E+00 0. -1.
         -6    2    1    2    0  503  0.44531616529E+02  0.74317235580E+02 -0.95867021861E+02  0.21694347875E+03  0.17426379635E+03 0.  0.
        -24    2    3    3    0    0  0.18587341506E+02  0.76479141717E+02 -0.13167582642E+03  0.17242225091E+03  0.78716967443E+02 0.  0.
          6    2    1    2  501    0 -0.44531616529E+02 -0.74317235580E+02  0.55707516901E+02  0.20638570780E+03  0.17884523078E+03 0.  0.
         24    2    5    5    0    0 -0.32466222815E+02 -0.95796431207E+02  0.94696742808E+02  0.16002646593E+03  0.80062380954E+02 0.  0.
          5    1    5    5  501    0 -0.12065393714E+02  0.21479195627E+02 -0.38989225907E+02  0.46359241873E+02  0.47000000000E+01 0. -1.
        -13    1    6    6    0    0  0.19990093507E+01 -0.47264468457E+02  0.88280631564E+02  0.10015685661E+03  0.00000000000E+00 0.  1.
         14    1    6    6    0    0 -0.34465232166E+02 -0.48531962749E+02  0.64161112439E+01  0.59869609319E+02  0.00000000000E+00 0. -1.
         -5    1    3    3    0  503  0.25944275023E+02 -0.21619061370E+01  0.35808804560E+02  0.44521227842E+02  0.47000000000E+01 0.  1.
         11    1    4    4    0    0 -0.18373807302E+02  0.22600841599E+02 -0.90787069987E+02  0.95345093805E+02  0.00000000000E+00 0. -1.
        -12    1    4    4    0    0  0.36961148808E+02  0.53878300118E+02 -0.40888756433E+02  0.77077157105E+02  0.00000000000E+00 0.  1.
<mgrwt>
<rscale>  2 0.19768898E+03</rscale>
<asrwt>0</asrwt>
<pdfrwt beam="1">  1       21 0.29474591E-01 0.19872527E+03</pdfrwt>
<pdfrwt beam="2">  1       21 0.35652976E-01 0.19872527E+03</pdfrwt>
<totfact> 0.83447954E+04</totfact>
</mgrwt>
</event>
<event>
12    1  0.1039378E-001  0.3242464E+03  0.7546771E-02  0.1074631E+00
         21   -1    0    0  501  502  0.00000000000E+00  0.00000000000E+00  0.11396673200E+03  0.11396673200E+03  0.00000000000E+00 0. -1.
         21   -1    0    0  502  503 -0.00000000000E+00 -0.00000000000E+00 -0.11824087582E+04  0.11824087582E+04  0.00000000000E+00 0.  1.
         -6    2    1    2    0  503 -0.86710363413E+02  0.26009955612E+03 -0.84598375595E+03  0.90315364946E+03  0.15756755055E+03 0.  0.
        -24    2    3    3    0    0 -0.16264062053E+02  0.21451450069E+03 -0.56500163873E+03  0.60987269397E+03  0.80230046523E+02 0.  0.
          6    2    1    2  501    0  0.86710363413E+02 -0.26009955612E+03 -0.22245827025E+03  0.39322184074E+03  0.17310478855E+03 0.  0.
         24    2    5    5    0    0  0.11648814636E+03 -0.17429738651E+03 -0.11377634673E+03  0.25150882382E+03  0.79765683067E+02 0.  0.
          5    1    5    5  501    0 -0.29777782952E+02 -0.85802169610E+02 -0.10868192352E+03  0.14171301693E+03  0.47000000000E+01 0. -1.
        -11    1    6    6    0    0  0.10447774226E+03 -0.12542572135E+03 -0.11737047186E+03  0.20105481310E+03  0.00000000000E+00 0.  1.
         12    1    6    6    0    0  0.12010404100E+02 -0.48871665159E+02  0.35941251334E+01  0.50454010718E+02  0.00000000000E+00 0. -1.
         -5    1    3    3    0  503 -0.70446301360E+02  0.45585055427E+02 -0.28098211722E+03  0.29328095549E+03  0.47000000000E+01 0.  1.
         11    1    4    4    0    0  0.14247138266E+02  0.55211857546E+01 -0.18602894403E+02  0.24073473390E+02  0.00000000000E+00 0. -1.
        -12    1    4    4    0    0 -0.30511200319E+02  0.20899331494E+03 -0.54639874433E+03  0.58579922058E+03  0.00000000000E+00 0.  1.
<mgrwt>
<rscale>  2 0.32222208E+03</rscale>
<asrwt>0</asrwt>
<pdfrwt beam="1">  1       21 0.17533343E-01 0.32424641E+03</pdfrwt>
<pdfrwt beam="2">  1       21 0.18190904E+00 0.32424641E+03</pdfrwt>
<totfact> 0.47507155E+03</totfact>
</mgrwt>
</event>
<event>
12    1  0.1039378E-001  0.1751016E+03  0.7546771E-02  0.1172796E+00
         21   -1    0    0  501  502  0.00000000000E+00  0.00000000000E+00  0.89382231273E+03  0.89382231273E+03  0.00000000000E+00 0. -1.
         21   -1    0    0  502  503 -0.00000000000E+00 -0.00000000000E+00 -0.34310441862E+02  0.34310441862E+02  0.00000000000E+00 0. -1.
         -6    2    1    2    0  503  0.44305303665E+01  0.32629254706E+02  0.45987771786E+03  0.49208543343E+03  0.17197750014E+03 0.  0.
        -24    2    3    3    0    0  0.43034924664E+02  0.58803460563E+02  0.40744630221E+03  0.42175384978E+03  0.80956586582E+02 0.  0.
          6    2    1    2  501    0 -0.44305303665E+01 -0.32629254706E+02  0.39963415301E+03  0.43604732116E+03  0.17130531859E+03 0.  0.
         24    2    5    5    0    0 -0.39556884867E+02 -0.72797911229E+02  0.32097352370E+03  0.34087922592E+03  0.79437778986E+02 0.  0.
          5    1    5    5  501    0  0.35126354500E+02  0.40168656523E+02  0.78660629315E+02  0.95168095240E+02  0.47000000000E+01 0. -1.
        -11    1    6    6    0    0 -0.69695275737E+01 -0.33745929083E+01 -0.27332969984E+01  0.82117662156E+01  0.00000000000E+00 0.  1.
         12    1    6    6    0    0 -0.32587357293E+02 -0.69423318321E+02  0.32370682069E+03  0.33266745970E+03  0.00000000000E+00 0. -1.
         -5    1    3    3    0  503 -0.38604394298E+02 -0.26174205858E+02  0.52431415650E+02  0.70331583648E+02  0.47000000000E+01 0.  1.
         13    1    4    4    0    0 -0.18251354140E+02  0.85459264605E+01  0.30441839423E+02  0.36508223382E+02  0.00000000000E+00 0. -1.
        -14    1    4    4    0    0  0.61286278804E+02  0.50257534103E+02  0.37700446278E+03  0.38524562640E+03  0.00000000000E+00 0.  1.
<mgrwt>
<rscale>  2 0.17493630E+03</rscale>
<asrwt>0</asrwt>
<pdfrwt beam="1">  1       21 0.13751111E+00 0.17510157E+03</pdfrwt>
<pdfrwt beam="2">  1       21 0.52785302E-02 0.17510157E+03</pdfrwt>
<totfact> 0.92707428E+04</totfact>
</mgrwt>
</event>
<event>
12    1  0.1039378E-001  0.2419795E+03  0.7546771E-02  0.1118573E+00
         21   -1    0    0  501  502  0.00000000000E+00  0.00000000000E+00  0.72803395847E+03  0.72803395847E+03  0.00000000000E+00 0. -1.
         21   -1    0    0  502  503 -0.00000000000E+00 -0.00000000000E+00 -0.46633053389E+03  0.46633053389E+03  0.00000000000E+00 0. -1.
         -6    2    1    2    0  503  0.73083525979E+02 -0.15240367007E+03 -0.41255353342E+03  0.47800110232E+03  0.17238490497E+03 0.  0.
        -24    2    3    3    0    0  0.44629497942E+02 -0.56501672620E+02 -0.92916955443E+02  0.14304370681E+03  0.81508958729E+02 0.  0.
          6    2    1    2  501    0 -0.73083525979E+02  0.15240367007E+03  0.67425695799E+03  0.71636339004E+03  0.17316460600E+03 0.  0.
         24    2    5    5    0    0 -0.11013590519E+03  0.15107579135E+03  0.54243382591E+03  0.57934488685E+03  0.80325774678E+02 0.  0.
          5    1    5    5  501    0  0.37052379206E+02  0.13278787243E+01  0.13182313208E+03  0.13701850320E+03  0.47000000000E+01 0. -1.
        -13    1    6    6    0    0 -0.60950265103E+01  0.58254530399E+01  0.12497342614E+03  0.12525750473E+03  0.00000000000E+00 0.  1.
         14    1    6    6    0    0 -0.10404087867E+03  0.14525033831E+03  0.41746039978E+03  0.45408738212E+03  0.00000000000E+00 0. -1.
         -5    1    3    3    0  503  0.28454028037E+02 -0.95901997452E+02 -0.31963657798E+03  0.33495739551E+03  0.47000000000E+01 0.  1.
         13    1    4    4    0    0  0.12570389589E+02  0.24463909300E+01 -0.71454532054E+02  0.72593041499E+02  0.00000000000E+00 0. -1.
        -14    1    4    4    0    0  0.32059108353E+02 -0.58948063550E+02 -0.21462423389E+02  0.70450665309E+02  0.00000000000E+00 0.  1.
<mgrwt>
<rscale>  2 0.24184001E+03</rscale>
<asrwt>0</asrwt>
<pdfrwt beam="1">  1       21 0.11200522E+00 0.24197946E+03</pdfrwt>
<pdfrwt beam="2">  1       21 0.71743159E-01 0.24197946E+03</pdfrwt>
<totfact> 0.10486253E+03</totfact>
</mgrwt>
</event>
<event>
12    1  0.1039378E-001  0.2208225E+03  0.7546771E-02  0.1133635E+00
         21   -1    0    0  501  502  0.00000000000E+00  0.00000000000E+00  0.15337022447E+03  0.15337022447E+03  0.00000000000E+00 0. -1.
         21   -1    0    0  502  503 -0.00000000000E+00 -0.00000000000E+00 -0.78757800685E+03  0.78757800685E+03  0.00000000000E+00 0. -1.
         -6    2    1    2    0  503 -0.13300875786E+03 -0.12748721348E+02 -0.68092651765E+03  0.71523772649E+03  0.17335000257E+03 0.  0.
        -24    2    3    3    0    0 -0.71355598241E+02  0.46118943660E+02 -0.25069409818E+03  0.27661654729E+03  0.80315658563E+02 0.  0.
          6    2    1    2  501    0  0.13300875786E+03  0.12748721348E+02  0.46718735272E+02  0.22571050482E+03  0.17580879443E+03 0.  0.
         24    2    5    5    0    0  0.22298824250E+02  0.15537634897E+02  0.73347504105E+02  0.11171204532E+03  0.79756310409E+02 0.  0.
          5    1    5    5  501    0  0.11070993361E+03 -0.27889135491E+01 -0.26628768833E+02  0.11399845950E+03  0.47000000000E+01 0. -1.
        -13    1    6    6    0    0 -0.28667591288E+02 -0.46704337700E+01  0.20407978628E+02  0.35498300432E+02  0.00000000000E+00 0.  1.
         14    1    6    6    0    0  0.50966415539E+02  0.20208068667E+02  0.52939525477E+02  0.76213744888E+02  0.00000000000E+00 0. -1.
         -5    1    3    3    0  503 -0.61653159623E+02 -0.58867665008E+02 -0.43023241948E+03  0.43862117920E+03  0.47000000000E+01 0.  1.
         11    1    4    4    0    0 -0.60750226973E+02  0.37314752684E+02 -0.25281073957E+03  0.26267137432E+03  0.00000000000E+00 0. -1.
        -12    1    4    4    0    0 -0.10605371269E+02  0.88041909768E+01  0.21166413913E+01  0.13945172974E+02  0.00000000000E+00 0.  1.
<mgrwt>
<rscale>  2 0.22033278E+03</rscale>
<asrwt>0</asrwt>
<pdfrwt beam="1">  1       21 0.23595419E-01 0.22082253E+03</pdfrwt>
<pdfrwt beam="2">  1       21 0.12116585E+00 0.22082253E+03</pdfrwt>
<totfact> 0.85438011E+03</totfact>
</mgrwt>
</event>
<event>
12    1  0.1039378E-001  0.2523410E+03  0.7546771E-02  0.1111880E+00
         21   -1    0    0  501  502  0.00000000000E+00  0.00000000000E+00  0.10501266741E+04  0.10501266741E+04  0.00000000000E+00 0. -1.
         21   -1    0    0  502  503 -0.00000000000E+00 -0.00000000000E+00 -0.65674200521E+02  0.65674200521E+02  0.00000000000E+00 0.  1.
         -6    2    1    2    0  503  0.18211551088E+03 -0.20100687430E+02  0.33637920834E+03  0.42033345867E+03  0.17308711025E+03 0.  0.
        -24    2    3    3    0    0  0.16340021778E+03  0.44104692173E+02  0.26258869364E+03  0.32063529908E+03  0.72175604934E+02 0.  0.
          6    2    1    2  501    0 -0.18211551088E+03  0.20100687430E+02  0.64807326526E+03  0.69546741597E+03  0.17351043945E+03 0.  0.
         24    2    5    5    0    0 -0.12029723560E+03  0.80212088484E+02  0.41305875316E+03  0.44509011949E+03  0.81131232430E+02 0.  0.
          5    1    5    5  501    0 -0.61818275283E+02 -0.60111401054E+02  0.23501451210E+03  0.25037729648E+03  0.47000000000E+01 0. -1.
        -11    1    6    6    0    0 -0.82107234005E+01 -0.83032548594E+01  0.48986224263E+01  0.12663195556E+02  0.00000000000E+00 0.  1.
         12    1    6    6    0    0 -0.11208651220E+03  0.88515343343E+02  0.40816013073E+03  0.43242692393E+03  0.00000000000E+00 0. -1.
         -5    1    3    3    0  503  0.18715293104E+02 -0.64205379603E+02  0.73790514704E+02  0.99698159593E+02  0.47000000000E+01 0.  1.
         11    1    4    4    0    0 -0.43631971069E+01 -0.29643903795E+01  0.27575281439E+02  0.28075278195E+02  0.00000000000E+00 0. -1.
        -12    1    4    4    0    0  0.16776341488E+03  0.47069082552E+02  0.23501341220E+03  0.29256002088E+03  0.00000000000E+00 0.  1.
<mgrwt>
<rscale>  2 0.25226822E+03</rscale>
<asrwt>0</asrwt>
<pdfrwt beam="1">  1       21 0.16155794E+00 0.25234098E+03</pdfrwt>
<pdfrwt beam="2">  1       21 0.10103724E-01 0.25234098E+03</pdfrwt>
<totfact> 0.18816225E+04</totfact>
</mgrwt>
</event>
<event>
12    1  0.1039378E-001  0.1741478E+03  0.7546771E-02  0.1173779E+00
         21   -1    0    0  501  502  0.00000000000E+00  0.00000000000E+00  0.27925981117E+03  0.27925981117E+03  0.00000000000E+00 0.  1.
         21   -1    0    0  502  503 -0.00000000000E+00 -0.00000000000E+00 -0.39075165217E+03  0.39075165217E+03  0.00000000000E+00 0. -1.
         -6    2    1    2    0  503 -0.39108181562E+00  0.20538542741E+02 -0.34061823693E+03  0.38221578218E+03  0.17218053355E+03 0.  0.
        -24    2    3    3    0    0  0.27177257548E+02 -0.33564405988E+02 -0.28666311754E+03  0.30085001969E+03  0.80435183313E+02 0.  0.
          6    2    1    2  501    0  0.39108181562E+00 -0.20538542741E+02  0.22912639593E+03  0.28779568116E+03  0.17293196379E+03 0.  0.
         24    2    5    5    0    0 -0.13918036510E+02 -0.28323088434E+02  0.24782663515E+03  0.26255406936E+03  0.80750784330E+02 0.  0.
          5    1    5    5  501    0  0.14309118326E+02  0.77845456925E+01 -0.18700239226E+02  0.25241611795E+02  0.47000000000E+01 0. -1.
        -11    1    6    6    0    0 -0.29102243603E+02 -0.47278251874E+02  0.11714300660E+03  0.12963278011E+03  0.00000000000E+00 0.  1.
         12    1    6    6    0    0  0.15184207092E+02  0.18955163440E+02  0.13068362856E+03  0.13292128926E+03  0.00000000000E+00 0. -1.
         -5    1    3    3    0  503 -0.27568339363E+02  0.54102948730E+02 -0.53955119389E+02  0.81365762485E+02  0.47000000000E+01 0.  1.
         13    1    4    4    0    0 -0.25175821866E+02 -0.11003647376E+02 -0.15438292665E+03  0.15680876986E+03  0.00000000000E+00 0. -1.
        -14    1    4    4    0    0  0.52353079414E+02 -0.22560758612E+02 -0.13228019089E+03  0.14404124984E+03  0.00000000000E+00 0.  1.
<mgrwt>
<rscale>  2 0.17396094E+03</rscale>
<asrwt>0</asrwt>
<pdfrwt beam="1">  1       21 0.42963048E-01 0.17414778E+03</pdfrwt>
<pdfrwt beam="2">  1       21 0.60115639E-01 0.17414778E+03</pdfrwt>
<totfact> 0.13609458E+04</totfact>
</mgrwt>
</event>
<event>
12    1  0.1039378E-001  0.2380607E+03  0.7546771E-02  0.1122853E+00
         21   -1    0    0  503  502  0.00000000000E+00  0.00000000000E+00  0.37922772119E+02  0.37922772119E+02  0.00000000000E+00 0.  1.
         21   -1    0    0  501  503 -0.00000000000E+00 -0.00000000000E+00 -0.14616991279E+04  0.14616991279E+04  0.00000000000E+00 0. -1.
          6    2    1    2  501    0 -0.79740175229E+02 -0.12487021465E+03 -0.58782101918E+03  0.63043019776E+03  0.17308269007E+03 0.  0.
         24    2    3    3    0    0 -0.78946938311E+02 -0.16207460250E+02 -0.26855543986E+03  0.29314571315E+03  0.85539955713E+02 0.  0.
         -6    2    1    2    0  502  0.79740175229E+02  0.12487021465E+03 -0.83595533662E+03  0.86919170228E+03  0.18633793075E+03 0.  0.
        -24    2    5    5    0    0  0.59134129683E+02  0.45177472283E+02 -0.70987331254E+03  0.71854539766E+03  0.82761822995E+02 0.  0.
          5    1    3    3  501    0 -0.79323691788E+00 -0.10866275440E+03 -0.31926557932E+03  0.33728448461E+03  0.47000000000E+01 0. -1.
        -11    1    4    4    0    0 -0.77247212618E+02 -0.44508836062E+02 -0.20611562435E+03  0.22457029845E+03  0.00000000000E+00 0.  1.
         12    1    4    4    0    0 -0.16997256938E+01  0.28301375813E+02 -0.62439815515E+02  0.68575414704E+02  0.00000000000E+00 0. -1.
         -5    1    5    5    0  502  0.20606045546E+02  0.79692742371E+02 -0.12608202408E+03  0.15064630462E+03  0.47000000000E+01 0.  1.
         11    1    6    6    0    0  0.26096801169E+02  0.50150903635E+02 -0.20754071824E+03  0.21510301229E+03  0.00000000000E+00 0. -1.
        -12    1    6    6    0    0  0.33037328514E+02 -0.49734313524E+01 -0.50233259430E+03  0.50344238537E+03  0.00000000000E+00 0.  1.
<mgrwt>
<rscale>  2 0.23546196E+03</rscale>
<asrwt>0</asrwt>
<pdfrwt beam="1">  1       21 0.58342723E-02 0.23806069E+03</pdfrwt>
<pdfrwt beam="2">  1       21 0.22487680E+00 0.23806069E+03</pdfrwt>
<totfact> 0.18770633E+04</totfact>
</mgrwt>
</event>
<event>
12    1  0.1039378E-001  0.1909401E+03  0.7546771E-02  0.1158030E+00
         21   -1    0    0  501  502  0.00000000000E+00  0.00000000000E+00  0.11016101004E+03  0.11016101004E+03  0.00000000000E+00 0.  1.
         21   -1    0    0  502  503 -0.00000000000E+00 -0.00000000000E+00 -0.38945473184E+03  0.38945473184E+03  0.00000000000E+00 0.  1.
         -6    2    1    2    0  503 -0.43845083199E+02 -0.66627010494E+02 -0.23848976239E+03  0.30436439291E+03  0.17146068663E+03 0.  0.
        -24    2    3    3    0    0 -0.90109271580E+02 -0.27904563687E+02 -0.12372675316E+03  0.17462449427E+03  0.79290977110E+02 0.  0.
          6    2    1    2  501    0  0.43845083199E+02  0.66627010494E+02 -0.40803959416E+02  0.19525134897E+03  0.17348364857E+03 0.  0.
         24    2    5    5    0    0 -0.85145492461E+01  0.92159820010E+02  0.42521357805E+01  0.12145705931E+03  0.78535384539E+02 0.  0.
          5    1    5    5  501    0  0.52359632446E+02 -0.25532809515E+02 -0.45056095196E+02  0.73794289656E+02  0.47000000000E+01 0. -1.
        -13    1    6    6    0    0  0.44582341384E+01 -0.39030652251E+01  0.22110657889E+02  0.22890848872E+02  0.00000000000E+00 0.  1.
         14    1    6    6    0    0 -0.12972783385E+02  0.96062885235E+02 -0.17858522109E+02  0.98566210439E+02  0.00000000000E+00 0. -1.
         -5    1    3    3    0  503  0.46264188380E+02 -0.38722446808E+02 -0.11476300922E+03  0.12973989864E+03  0.47000000000E+01 0.  1.
         13    1    4    4    0    0 -0.28805458410E+02 -0.34944264693E+02 -0.11773781100E+02  0.46791858165E+02  0.00000000000E+00 0. -1.
        -14    1    4    4    0    0 -0.61303813170E+02  0.70397010067E+01 -0.11195297206E+03  0.12783263610E+03  0.00000000000E+00 0.  1.
<mgrwt>
<rscale>  2 0.19047942E+03</rscale>
<asrwt>0</asrwt>
<pdfrwt beam="1">  1       21 0.16947848E-01 0.19094011E+03</pdfrwt>
<pdfrwt beam="2">  1       21 0.59916112E-01 0.19094011E+03</pdfrwt>
<totfact> 0.81600455E+04</totfact>
</mgrwt>
</event>
<event>
12    1  0.1039378E-001  0.2906942E+03  0.7546771E-02  0.1090027E+00
         21   -1    0    0  503  502  0.00000000000E+00  0.00000000000E+00  0.13368351333E+03  0.13368351333E+03  0.00000000000E+00 0.  1.
         21   -1    0    0  501  503 -0.00000000000E+00 -0.00000000000E+00 -0.87783462471E+03  0.87783462471E+03  0.00000000000E+00 0. -1.
          6    2    1    2  501    0 -0.19758773489E+03  0.12645021401E+03 -0.63987736347E+03  0.70268784247E+03  0.17116247859E+03 0.  0.
         24    2    3    3    0    0 -0.40912066295E+02  0.78945877885E+02 -0.19913985543E+03  0.23250110503E+03  0.80584322381E+02 0.  0.
         -6    2    1    2    0  502  0.19758773489E+03 -0.12645021401E+03 -0.10427374791E+03  0.30883029557E+03  0.17167576228E+03 0.  0.
        -24    2    5    5    0    0  0.36988041854E+02 -0.29298484355E+02  0.10118246946E+02  0.88970480082E+02  0.74745240512E+02 0.  0.
          5    1    3    3  501    0 -0.15667566859E+03  0.47504336129E+02 -0.44073750803E+03  0.47018673744E+03  0.47000000000E+01 0. -1.
        -11    1    4    4    0    0 -0.44512105663E+02  0.45917530074E+01 -0.88170155285E+02  0.98875618983E+02  0.00000000000E+00 0.  1.
         12    1    4    4    0    0  0.36000393681E+01  0.74354124877E+02 -0.11096970015E+03  0.13362548605E+03  0.00000000000E+00 0. -1.
         -5    1    5    5    0  502  0.16059969303E+03 -0.97151729659E+02 -0.11439199485E+03  0.21985981548E+03  0.47000000000E+01 0.  1.
         13    1    6    6    0    0 -0.18434892128E+01  0.11576635054E+02 -0.21384337832E+02  0.24386611823E+02  0.00000000000E+00 0. -1.
        -14    1    6    6    0    0  0.38831531067E+02 -0.40875119409E+02  0.31502584778E+02  0.64583868260E+02  0.00000000000E+00 0.  1.
<mgrwt>
<rscale>  2 0.29061849E+03</rscale>
<asrwt>0</asrwt>
<pdfrwt beam="1">  1       21 0.20566695E-01 0.29069423E+03</pdfrwt>
<pdfrwt beam="2">  1       21 0.13505148E+00 0.29069423E+03</pdfrwt>
<totfact> 0.80798586E+03</totfact>
</mgrwt>
</event>
<event>
12    1  0.1039378E-001  0.2001908E+03  0.7546771E-02  0.1149876E+00
         21   -1    0    0  503  502  0.00000000000E+00  0.00000000000E+00  0.91010466557E+03  0.91010466557E+03  0.00000000000E+00 0. -1.
         21   -1    0    0  501  503 -0.00000000000E+00 -0.00000000000E+00 -0.82119328828E+02  0.82119328828E+02  0.00000000000E+00 0.  1.
          6    2    1    2  501    0 -0.58982077620E+02  0.78966827504E+02  0.75243739267E+03  0.77825242582E+03  0.17262723736E+03 0.  0.
         24    2    3    3    0    0 -0.49031872280E+02 -0.13493014442E+02  0.50484484216E+03  0.51373023388E+03  0.80400575939E+02 0.  0.
         -6    2    1    2    0  502  0.58982077620E+02 -0.78966827504E+02  0.75547944075E+02  0.21397156858E+03  0.17424607594E+03 0.  0.
        -24    2    5    5    0    0  0.13406048693E+02 -0.85586261953E+02  0.10620850653E+03  0.15844543586E+03  0.79498295011E+02 0.  0.
          5    1    3    3  501    0 -0.99502053397E+01  0.92459841946E+02  0.24759255051E+03  0.26452219193E+03  0.47000000000E+01 0. -1.
        -13    1    4    4    0    0 -0.19871166952E+02 -0.50596453086E+01  0.45435627691E+03  0.45481874374E+03  0.00000000000E+00 0.  1.
         14    1    4    4    0    0 -0.29160705328E+02 -0.84333691338E+01  0.50488565248E+02  0.58911490144E+02  0.00000000000E+00 0. -1.
         -5    1    5    5    0  502  0.45576028927E+02  0.66194344492E+01 -0.30660562452E+02  0.55526132722E+02  0.47000000000E+01 0.  1.
         13    1    6    6    0    0  0.26493646555E+02 -0.23725304365E+02  0.84354611485E+02  0.91545091915E+02  0.00000000000E+00 0. -1.
        -14    1    6    6    0    0 -0.13087597862E+02 -0.61860957588E+02  0.21853895042E+02  0.66900343945E+02  0.00000000000E+00 0.  1.
<mgrwt>
<rscale>  2 0.19983797E+03</rscale>
<asrwt>0</asrwt>
<pdfrwt beam="1">  1       21 0.14001610E+00 0.20019076E+03</pdfrwt>
<pdfrwt beam="2">  1       21 0.12633743E-01 0.20019076E+03</pdfrwt>
<totfact> 0.19045971E+04</totfact>
</mgrwt>
</event>
<event>
12    1  0.1039378E-001  0.1844670E+03  0.7546771E-02  0.1164057E+00
         21   -1    0    0  501  502  0.00000000000E+00  0.00000000000E+00  0.35785037793E+03  0.35785037793E+03  0.00000000000E+00 0.  1.
         21   -1    0    0  502  503 -0.00000000000E+00 -0.00000000000E+00 -0.12739722999E+03  0.12739722999E+03  0.00000000000E+00 0.  1.
         -6    2    1    2    0  503 -0.47196890366E+02  0.39279770829E+02 -0.95287824038E+01  0.18256062539E+03  0.17165994697E+03 0.  0.
        -24    2    3    3    0    0 -0.86962883236E+02 -0.74775017698E+01 -0.17533453264E+02  0.12048211473E+03  0.81179196188E+02 0.  0.
          6    2    1    2  501    0  0.47196890366E+02 -0.39279770829E+02  0.23998193034E+03  0.30268698253E+03  0.17394722086E+03 0.  0.
         24    2    5    5    0    0 -0.21037146115E+02 -0.69327548382E+02  0.14255826657E+03  0.17991804129E+03  0.82454664711E+02 0.  0.
          5    1    5    5  501    0  0.68234036481E+02  0.30047777552E+02  0.97423663774E+02  0.12276894124E+03  0.47000000000E+01 0. -1.
        -11    1    6    6    0    0  0.25735031593E+02 -0.43223397887E+02  0.40208037716E+02  0.64399070436E+02  0.00000000000E+00 0.  1.
         12    1    6    6    0    0 -0.46772177708E+02 -0.26104150494E+02  0.10235022885E+03  0.11551897085E+03  0.00000000000E+00 0. -1.
         -5    1    3    3    0  503  0.39765992870E+02  0.46757272599E+02  0.80046708597E+01  0.62078510657E+02  0.47000000000E+01 0.  1.
         11    1    4    4    0    0 -0.62783201742E+02 -0.42913193189E+02 -0.14963254015E+02  0.77505945201E+02  0.00000000000E+00 0. -1.
        -12    1    4    4    0    0 -0.24179681494E+02  0.35435691419E+02 -0.25701992485E+01  0.42976169533E+02  0.00000000000E+00 0.  1.
<mgrwt>
<rscale>  2 0.18392583E+03</rscale>
<asrwt>0</asrwt>
<pdfrwt beam="1">  1       21 0.55053904E-01 0.18446702E+03</pdfrwt>
<pdfrwt beam="2">  1       21 0.19599574E-01 0.18446702E+03</pdfrwt>
<totfact> 0.74869704E+04</totfact>
</mgrwt>
</event>
<event>
12    1  0.1039378E-001  0.2152251E+03  0.7546771E-02  0.1137587E+00
         21   -1    0    0  503  502  0.00000000000E+00  0.00000000000E+00  0.24264762269E+03  0.24264762269E+03  0.00000000000E+00 0.  1.
         21   -1    0    0  501  503 -0.00000000000E+00 -0.00000000000E+00 -0.20895941963E+03  0.20895941963E+03  0.00000000000E+00 0.  1.
          6    2    1    2  501    0  0.11492127826E+03  0.57743187810E+02 -0.50341906858E+02  0.22055962756E+03  0.17196239643E+03 0.  0.
         24    2    3    3    0    0  0.54608288563E+02 -0.28977618813E+02 -0.49137339813E+02  0.11481608870E+03  0.83345596702E+02 0.  0.
         -6    2    1    2    0  502 -0.11492127826E+03 -0.57743187810E+02  0.84030109917E+02  0.23104741476E+03  0.17257077551E+03 0.  0.
        -24    2    5    5    0    0 -0.19222986543E+02 -0.77101845315E+02  0.24835911671E+02  0.11677159158E+03  0.81881404053E+02 0.  0.
          5    1    3    3  501    0  0.60312989695E+02  0.86720806623E+02 -0.12045670452E+01  0.10574353885E+03  0.47000000000E+01 0. -1.
        -13    1    4    4    0    0  0.53860761494E+02  0.17380586480E+02 -0.19846678090E+02  0.59974636692E+02  0.00000000000E+00 0.  1.
         14    1    4    4    0    0  0.74752706951E+00 -0.46358205293E+02 -0.29290661722E+02  0.54841452013E+02  0.00000000000E+00 0. -1.
         -5    1    5    5    0  502 -0.95698291715E+02  0.19358657506E+02  0.59194198245E+02  0.11427582318E+03  0.47000000000E+01 0.  1.
         13    1    6    6    0    0  0.99198925455E+01  0.14536083538E+02  0.71650987792E+01  0.19001069266E+02  0.00000000000E+00 0. -1.
        -14    1    6    6    0    0 -0.29142879089E+02 -0.91637928853E+02  0.17670812892E+02  0.97770522318E+02  0.00000000000E+00 0.  1.
<mgrwt>
<rscale>  2 0.21510313E+03</rscale>
<asrwt>0</asrwt>
<pdfrwt beam="1">  1       21 0.37330404E-01 0.21522511E+03</pdfrwt>
<pdfrwt beam="2">  1       21 0.32147603E-01 0.21522511E+03</pdfrwt>
<totfact> 0.63767418E+04</totfact>
</mgrwt>
</event>
<event>
12    1  0.1039378E-001  0.1758213E+03  0.7546771E-02  0.1173770E+00
         21   -1    0    0  503  502  0.00000000000E+00  0.00000000000E+00  0.21447927161E+03  0.21447927161E+03  0.00000000000E+00 0. -1.
         21   -1    0    0  501  503 -0.00000000000E+00 -0.00000000000E+00 -0.26466400298E+03  0.26466400298E+03  0.00000000000E+00 0. -1.
          6    2    1    2  501    0  0.14348548820E+02 -0.27469589314E+02 -0.19038772113E+03  0.25426551499E+03  0.16565931476E+03 0.  0.
         24    2    3    3    0    0 -0.24183603134E+02 -0.41127872767E+02 -0.34478028324E+02  0.93016646000E+02  0.72020923468E+02 0.  0.
         -6    2    1    2    0  502 -0.14348548820E+02  0.27469589314E+02  0.14020298976E+03  0.22487775959E+03  0.17306839466E+03 0.  0.
        -24    2    5    5    0    0 -0.52322487738E+02 -0.29070587841E+02  0.11688268175E+03  0.15273388643E+03  0.77995749685E+02 0.  0.
          5    1    3    3  501    0  0.38532151954E+02  0.13658283454E+02 -0.15590969281E+03  0.16124886899E+03  0.47000000000E+01 0. -1.
        -13    1    4    4    0    0 -0.13947667585E+02  0.19921447432E+02 -0.71244728058E+01  0.25340868407E+02  0.00000000000E+00 0.  1.
         14    1    4    4    0    0 -0.10235935549E+02 -0.61049320200E+02 -0.27353555518E+02  0.67675777593E+02  0.00000000000E+00 0. -1.
         -5    1    5    5    0  502  0.37973938918E+02  0.56540177154E+02  0.23320308003E+02  0.72143873163E+02  0.47000000000E+01 0.  1.
         11    1    6    6    0    0 -0.99614503728E+01  0.23572020113E+02  0.56865177588E+02  0.62357991051E+02  0.00000000000E+00 0. -1.
        -12    1    6    6    0    0 -0.42361037365E+02 -0.52642607954E+02  0.60017504165E+02  0.90375895377E+02  0.00000000000E+00 0.  1.
<mgrwt>
<rscale>  2 0.17397027E+03</rscale>
<asrwt>0</asrwt>
<pdfrwt beam="1">  1       21 0.32996811E-01 0.17582130E+03</pdfrwt>
<pdfrwt beam="2">  1       21 0.40717539E-01 0.17582130E+03</pdfrwt>
<totfact> 0.51787205E+04</totfact>
</mgrwt>
</event>
<event>
12    1  0.1039378E-001  0.1870779E+03  0.7546771E-02  0.1161398E+00
         21   -1    0    0  501  502  0.00000000000E+00  0.00000000000E+00  0.47649852425E+03  0.47649852425E+03  0.00000000000E+00 0.  1.
         21   -1    0    0  502  503 -0.00000000000E+00 -0.00000000000E+00 -0.16367290761E+03  0.16367290761E+03  0.00000000000E+00 0.  1.
         -6    2    1    2    0  503  0.67787185348E+02  0.17545435778E+01 -0.82073342619E+02  0.20320081536E+03  0.17307904805E+03 0.  0.
        -24    2    3    3    0    0 -0.12182158046E+02 -0.38500792581E+02  0.11874070979E+02  0.73340141970E+02  0.60058861616E+02 0.  0.
          6    2    1    2  501    0 -0.67787185348E+02 -0.17545435778E+01  0.39489895926E+03  0.43697061650E+03  0.17435581646E+03 0.  0.
         24    2    5    5    0    0 -0.33967760667E+02  0.46309851587E+01  0.39258910632E+03  0.40215748846E+03  0.80182194618E+02 0.  0.
          5    1    5    5  501    0 -0.33819424681E+02 -0.63855287365E+01  0.23098529392E+01  0.34813128035E+02  0.47000000000E+01 0. -1.
        -11    1    6    6    0    0 -0.23969917181E+02 -0.27614639793E+02  0.82557778625E+02  0.90293477461E+02  0.00000000000E+00 0.  1.
         12    1    6    6    0    0 -0.99978434862E+01  0.32245624952E+02  0.31003132770E+03  0.31186401100E+03  0.00000000000E+00 0. -1.
         -5    1    3    3    0  503  0.79969343394E+02  0.40255336158E+02 -0.93947413599E+02  0.12986067339E+03  0.47000000000E+01 0.  1.
         11    1    4    4    0    0 -0.16831400958E+02 -0.27083923263E+02  0.34867844114E+02  0.47250412810E+02  0.00000000000E+00 0. -1.
        -12    1    4    4    0    0  0.46492429121E+01 -0.11416869318E+02 -0.22993773135E+02  0.26089729160E+02  0.00000000000E+00 0.  1.
<mgrwt>
<rscale>  2 0.18677982E+03</rscale>
<asrwt>0</asrwt>
<pdfrwt beam="1">  1       21 0.73307465E-01 0.18707788E+03</pdfrwt>
<pdfrwt beam="2">  1       21 0.25180448E-01 0.18707788E+03</pdfrwt>
<totfact> 0.25072152E+04</totfact>
</mgrwt>
</event>
<event>
12    1  0.1039378E-001  0.2063082E+03  0.7546771E-02  0.1145497E+00
         21   -1    0    0  501  502  0.00000000000E+00  0.00000000000E+00  0.24415605015E+03  0.24415605015E+03  0.00000000000E+00 0. -1.
         21   -1    0    0  502  503 -0.00000000000E+00 -0.00000000000E+00 -0.17033964955E+03  0.17033964955E+03  0.00000000000E+00 0.  1.
         -6    2    1    2    0  503 -0.41135393715E+02 -0.10205226671E+03  0.36844593003E+02  0.20490090108E+03  0.16887886034E+03 0.  0.
        -24    2    3    3    0    0 -0.36573160613E+02  0.98012971600E+01  0.13247446161E+02  0.90397848447E+02  0.81009966491E+02 0.  0.
          6    2    1    2  501    0  0.41135393715E+02  0.10205226671E+03  0.36971807601E+02  0.20959479862E+03  0.17451727506E+03 0.  0.
         24    2    5    5    0    0 -0.17260335701E+02  0.11989828937E+03  0.30281730894E+02  0.14798807119E+03  0.79435300751E+02 0.  0.
          5    1    5    5  501    0  0.58395729416E+02 -0.17846022655E+02  0.66900767068E+01  0.61606727433E+02  0.47000000000E+01 0. -1.
        -11    1    6    6    0    0  0.20092473324E+02  0.70861182981E+02 -0.10029452606E+02  0.74334410991E+02  0.00000000000E+00 0.  1.
         12    1    6    6    0    0 -0.37352809025E+02  0.49037106387E+02  0.40311183500E+02  0.73653660195E+02  0.00000000000E+00 0. -1.
         -5    1    3    3    0  503 -0.45622331024E+01 -0.11185356387E+03  0.23597146842E+02  0.11450305263E+03  0.47000000000E+01 0.  1.
         11    1    4    4    0    0 -0.48523248063E+01 -0.31282060912E+02  0.20899060573E+02  0.37932612931E+02  0.00000000000E+00 0. -1.
        -12    1    4    4    0    0 -0.31720835806E+02  0.41083358072E+02 -0.76516144119E+01  0.52465235517E+02  0.00000000000E+00 0.  1.
<mgrwt>
<rscale>  2 0.20511102E+03</rscale>
<asrwt>0</asrwt>
<pdfrwt beam="1">  1       21 0.37562469E-01 0.20630818E+03</pdfrwt>
<pdfrwt beam="2">  1       21 0.26206100E-01 0.20630818E+03</pdfrwt>
<totfact> 0.94080023E+04</totfact>
</mgrwt>
</event>
<event>
12    1  0.1039378E-001  0.2905193E+03  0.7546771E-02  0.1090212E+00
         21   -1    0    0  503  502  0.00000000000E+00  0.00000000000E+00  0.17145820042E+03  0.17145820042E+03  0.00000000000E+00 0.  1.
         21   -1    0    0  501  503 -0.00000000000E+00 -0.00000000000E+00 -0.68332871174E+03  0.68332871174E+03  0.00000000000E+00 0. -1.
          6    2    1    2  501    0  0.24880324838E+01 -0.23208739071E+03 -0.48263787967E+03  0.56280055632E+03  0.17301559487E+03 0.  0.
         24    2    3    3    0    0  0.48704906500E+01 -0.22216705469E+03 -0.31691999071E+03  0.39670239891E+03  0.86905643780E+02 0.  0.
         -6    2    1    2    0  502 -0.24880324838E+01  0.23208739071E+03 -0.29232631657E+02  0.29198635584E+03  0.17473047246E+03 0.  0.
        -24    2    5    5    0    0  0.45381309913E+01  0.12681402669E+03 -0.87083862716E+02  0.17156749070E+03  0.75824881938E+02 0.  0.
          5    1    3    3  501    0 -0.23824581661E+01 -0.99203360236E+01 -0.16571788896E+03  0.16609815741E+03  0.47000000000E+01 0. -1.
        -11    1    4    4    0    0  0.16599004589E+01 -0.76540764497E+02 -0.46574038851E+02  0.89612415402E+02  0.00000000000E+00 0.  1.
         12    1    4    4    0    0  0.32105901910E+01 -0.14562629019E+03 -0.27034595186E+03  0.30708998351E+03  0.00000000000E+00 0. -1.
         -5    1    5    5    0  502 -0.70261634752E+01  0.10527336403E+03  0.57851231059E+02  0.12041886514E+03  0.47000000000E+01 0.  1.
         11    1    6    6    0    0 -0.11610663170E+02  0.13050920889E+03 -0.74157950509E+02  0.15055518167E+03  0.00000000000E+00 0. -1.
        -12    1    6    6    0    0  0.16148794162E+02 -0.36951821980E+01 -0.12925912207E+02  0.21012309029E+02  0.00000000000E+00 0.  1.
<mgrwt>
<rscale>  2 0.29026196E+03</rscale>
<asrwt>0</asrwt>
<pdfrwt beam="1">  1       21 0.26378185E-01 0.29051934E+03</pdfrwt>
<pdfrwt beam="2">  1       21 0.10512749E+00 0.29051934E+03</pdfrwt>
<totfact> 0.93925349E+03</totfact>
</mgrwt>
</event>
<event>
12    1  0.1039378E-001  0.2382844E+03  0.7546771E-02  0.1122592E+00
         21   -1    0    0  503  502  0.00000000000E+00  0.00000000000E+00  0.18112369687E+03  0.18112369687E+03  0.00000000000E+00 0.  1.
         21   -1    0    0  501  503 -0.00000000000E+00 -0.00000000000E+00 -0.39887038744E+03  0.39887038744E+03  0.00000000000E+00 0.  1.
          6    2    1    2  501    0  0.92020151147E+02  0.13682167622E+03 -0.25421024665E+03  0.34842832104E+03  0.17202199307E+03 0.  0.
         24    2    3    3    0    0  0.66487410099E+02  0.74679619986E+02 -0.24977844618E+03  0.28093545569E+03  0.80856890520E+02 0.  0.
         -6    2    1    2    0  502 -0.92020151147E+02 -0.13682167622E+03  0.36463556088E+02  0.23156576326E+03  0.15844630792E+03 0.  0.
        -24    2    5    5    0    0 -0.73765668734E+02 -0.13786800795E+03 -0.15266466746E+02  0.17649847533E+03  0.80434353892E+02 0.  0.
          5    1    3    3  501    0  0.25532741048E+02  0.62142056230E+02 -0.44318004774E+01  0.67492865352E+02  0.47000000000E+01 0. -1.
        -11    1    4    4    0    0  0.68486005116E+02  0.69846730277E+02 -0.13865090323E+03  0.16968491858E+03  0.00000000000E+00 0.  1.
         12    1    4    4    0    0 -0.19985950172E+01  0.48328897084E+01 -0.11112754295E+03  0.11125053711E+03  0.00000000000E+00 0. -1.
         -5    1    5    5    0  502 -0.18254482414E+02  0.10463317364E+01  0.51730022833E+02  0.55067287936E+02  0.47000000000E+01 0.  1.
         11    1    6    6    0    0 -0.22208888463E+02  0.59648213085E+01 -0.62210314243E+00  0.23004365506E+02  0.00000000000E+00 0. -1.
        -12    1    6    6    0    0 -0.51556780271E+02 -0.14383282926E+03 -0.14644363603E+02  0.15349410982E+03  0.00000000000E+00 0.  1.
<mgrwt>
<rscale>  2 0.23584531E+03</rscale>
<asrwt>0</asrwt>
<pdfrwt beam="1">  1       21 0.27865184E-01 0.23828438E+03</pdfrwt>
<pdfrwt beam="2">  1       21 0.61364675E-01 0.23828438E+03</pdfrwt>
<totfact> 0.29652984E+04</totfact>
</mgrwt>
</event>
<event>
12    1  0.1039378E-001  0.3560674E+03  0.7546771E-02  0.1061164E+00
         21   -1    0    0  501  502  0.00000000000E+00  0.00000000000E+00  0.48010849980E+03  0.48010849980E+03  0.00000000000E+00 0.  1.
         21   -1    0    0  502  503 -0.00000000000E+00 -0.00000000000E+00 -0.26132659128E+03  0.26132659128E+03  0.00000000000E+00 0. -1.
         -6    2    1    2    0  503  0.24982198867E+03  0.18332151331E+03  0.15993134952E+03  0.39033580258E+03  0.17540296163E+03 0.  0.
        -24    2    3    3    0    0  0.86172578658E+02  0.12695653590E+03  0.34320874740E+02  0.17642408843E+03  0.80024128948E+02 0.  0.
          6    2    1    2  501    0 -0.24982198867E+03 -0.18332151331E+03  0.58850558997E+02  0.35109928850E+03  0.15423851277E+03 0.  0.
         24    2    5    5    0    0 -0.18545047290E+03 -0.83132336876E+02  0.72358260117E+02  0.23115717285E+03  0.83036482446E+02 0.  0.
          5    1    5    5  501    0 -0.64371515765E+02 -0.10018917644E+03 -0.13507701119E+02  0.11994211565E+03  0.47000000000E+01 0. -1.
        -11    1    6    6    0    0 -0.51273838968E+02 -0.63064160082E+02  0.44481649177E+02  0.92653720718E+02  0.00000000000E+00 0.  1.
         12    1    6    6    0    0 -0.13417663394E+03 -0.20068176794E+02  0.27876610939E+02  0.13850345213E+03  0.00000000000E+00 0. -1.
         -5    1    3    3    0  503  0.16364941001E+03  0.56364977409E+02  0.12561047478E+03  0.21391171415E+03  0.47000000000E+01 0.  1.
         11    1    4    4    0    0  0.10130283351E+03  0.11180636349E+03  0.35450576559E+02  0.15498280670E+03  0.00000000000E+00 0. -1.
        -12    1    4    4    0    0 -0.15130254851E+02  0.15150172409E+02 -0.11297018192E+01  0.21441281726E+02  0.00000000000E+00 0.  1.
<mgrwt>
<rscale>  2 0.35355712E+03</rscale>
<asrwt>0</asrwt>
<pdfrwt beam="1">  1       21 0.73862846E-01 0.35606741E+03</pdfrwt>
<pdfrwt beam="2">  1       21 0.40204091E-01 0.35606741E+03</pdfrwt>
<totfact> 0.90077909E+03</totfact>
</mgrwt>
</event>
<event>
12    1  0.1039378E-001  0.2001461E+03  0.7546771E-02  0.1149921E+00
         21   -1    0    0  503  502  0.00000000000E+00  0.00000000000E+00  0.25637158135E+03  0.25637158135E+03  0.00000000000E+00 0.  1.
         21   -1    0    0  501  503 -0.00000000000E+00 -0.00000000000E+00 -0.18004735947E+03  0.18004735947E+03  0.00000000000E+00 0.  1.
          6    2    1    2  501    0  0.96748468053E+02 -0.12558029562E+02 -0.43139699417E+02  0.20333081043E+03  0.17310232416E+03 0.  0.
         24    2    3    3    0    0  0.94165682958E+02  0.19838681403E+00  0.30448222881E+02  0.12845311518E+03  0.81889518985E+02 0.  0.
         -6    2    1    2    0  502 -0.96748468053E+02  0.12558029562E+02  0.11946392130E+03  0.23308813039E+03  0.17475834131E+03 0.  0.
        -24    2    5    5    0    0 -0.16393018773E+01  0.70385241253E+01  0.54670996960E+01  0.84449024610E+02  0.83961422367E+02 0.  0.
          5    1    3    3  501    0  0.25827850945E+01 -0.12756416376E+02 -0.73587922298E+02  0.74877695249E+02  0.47000000000E+01 0. -1.
        -13    1    4    4    0    0  0.15386712427E+01  0.22443542420E+02  0.24119646262E+02  0.32982380772E+02  0.00000000000E+00 0.  1.
         14    1    4    4    0    0  0.92627011715E+02 -0.22245155606E+02  0.63285766187E+01  0.95470734413E+02  0.00000000000E+00 0. -1.
         -5    1    5    5    0  502 -0.95109166175E+02  0.55195054366E+01  0.11399682160E+03  0.14863910578E+03  0.47000000000E+01 0.  1.
         11    1    6    6    0    0 -0.11192396687E+01 -0.38204221676E+02 -0.32960932200E+01  0.38362474918E+02  0.00000000000E+00 0. -1.
        -12    1    6    6    0    0 -0.52006220867E+00  0.45242745802E+02  0.87631929160E+01  0.46086549692E+02  0.00000000000E+00 0.  1.
<mgrwt>
<rscale>  2 0.19978401E+03</rscale>
<asrwt>0</asrwt>
<pdfrwt beam="1">  1       21 0.39441782E-01 0.20014607E+03</pdfrwt>
<pdfrwt beam="2">  1       21 0.27699594E-01 0.20014607E+03</pdfrwt>
<totfact> 0.76839446E+04</totfact>
</mgrwt>
</event>
<event>
12    1  0.1039378E-001  0.1819700E+03  0.7546771E-02  0.1166137E+00
         21   -1    0    0  503  502  0.00000000000E+00  0.00000000000E+00  0.36863425407E+02  0.36863425407E+02  0.00000000000E+00 0. -1.
         21   -1    0    0  501  503 -0.00000000000E+00 -0.00000000000E+00 -0.11854029555E+04  0.11854029555E+04  0.00000000000E+00 0. -1.
          6    2    1    2  501    0  0.54949826281E+02 -0.22069442791E+01 -0.87861565127E+03  0.89726168888E+03  0.17346100909E+03 0.  0.
         24    2    3    3    0    0  0.10289787737E+03 -0.15782206634E+02 -0.61149183253E+03  0.62548875446E+03  0.80479000271E+02 0.  0.
         -6    2    1    2    0  502 -0.54949826281E+02  0.22069442791E+01 -0.26992387884E+03  0.32500469204E+03  0.17246679526E+03 0.  0.
        -24    2    5    5    0    0 -0.56822981569E+02  0.56642559800E+02 -0.11703853262E+03  0.16263855014E+03  0.79473574584E+02 0.  0.
          5    1    3    3  501    0 -0.47948051086E+02  0.13575262355E+02 -0.26712381873E+03  0.27177293443E+03  0.47000000000E+01 0. -1.
        -13    1    4    4    0    0  0.43421490115E+02  0.33095285035E+02 -0.25167107882E+03  0.25752486406E+03  0.00000000000E+00 0.  1.
         14    1    4    4    0    0  0.59476387252E+02 -0.48877491670E+02 -0.35982075372E+03  0.36796389040E+03  0.00000000000E+00 0. -1.
         -5    1    5    5    0  502  0.18731552886E+01 -0.54435615521E+02 -0.15288534622E+03  0.16236614191E+03  0.47000000000E+01 0.  1.
         13    1    6    6    0    0  0.15246252004E+02  0.32651745265E+02 -0.47783241361E+02  0.59848331839E+02  0.00000000000E+00 0. -1.
        -14    1    6    6    0    0 -0.72069233574E+02  0.23990814536E+02 -0.69255291260E+02  0.10279021830E+03  0.00000000000E+00 0.  1.
<mgrwt>
<rscale>  2 0.18173265E+03</rscale>
<asrwt>0</asrwt>
<pdfrwt beam="1">  1       21 0.56712960E-02 0.18196999E+03</pdfrwt>
<pdfrwt beam="2">  1       21 0.18236969E+00 0.18196999E+03</pdfrwt>
<totfact> 0.38336929E+04</totfact>
</mgrwt>
</event>
<event>
12    1  0.1039378E-001  0.2131451E+03  0.7546771E-02  0.1139345E+00
         21   -1    0    0  503  502  0.00000000000E+00  0.00000000000E+00  0.52953846726E+03  0.52953846726E+03  0.00000000000E+00 0.  1.
         21   -1    0    0  501  503 -0.00000000000E+00 -0.00000000000E+00 -0.90228341194E+02  0.90228341194E+02  0.00000000000E+00 0. -1.
          6    2    1    2  501    0  0.98020182341E+02  0.76218910507E+02  0.14652108544E+03  0.25761178620E+03  0.17169194928E+03 0.  0.
         24    2    3    3    0    0  0.31295635879E+02 -0.23132037012E+01  0.12538679460E+03  0.15231123392E+03  0.80573543920E+02 0.  0.
         -6    2    1    2    0  502 -0.98020182341E+02 -0.76218910507E+02  0.29278904062E+03  0.36215502225E+03  0.17324421885E+03 0.  0.
        -24    2    5    5    0    0 -0.88401280546E+02 -0.84070397499E+02  0.30858692613E+03  0.34151931760E+03  0.80789449681E+02 0.  0.
          5    1    3    3  501    0  0.66724546462E+02  0.78532114208E+02  0.21134290837E+02  0.10530055229E+03  0.47000000000E+01 0. -1.
        -11    1    4    4    0    0  0.43490279433E+02 -0.32230682991E+02  0.76570655512E+02  0.93772525917E+02  0.00000000000E+00 0.  1.
         12    1    4    4    0    0 -0.12194643554E+02  0.29917479290E+02  0.48816139091E+02  0.58538708000E+02  0.00000000000E+00 0. -1.
         -5    1    5    5    0  502 -0.96189017958E+01  0.78514869920E+01 -0.15797885507E+02  0.20635704646E+02  0.47000000000E+01 0.  1.
         13    1    6    6    0    0 -0.24582061631E+02 -0.52834908573E+02  0.62815228174E+02  0.85682893324E+02  0.00000000000E+00 0. -1.
        -14    1    6    6    0    0 -0.63819218915E+02 -0.31235488926E+02  0.24577169795E+03  0.25583642428E+03  0.00000000000E+00 0.  1.
<mgrwt>
<rscale>  2 0.21282947E+03</rscale>
<asrwt>0</asrwt>
<pdfrwt beam="1">  1       21 0.81467455E-01 0.21314511E+03</pdfrwt>
<pdfrwt beam="2">  1       21 0.13881284E-01 0.21314511E+03</pdfrwt>
<totfact> 0.59024380E+04</totfact>
</mgrwt>
</event>
<event>
12    1  0.1039378E-001  0.2412954E+03  0.7546771E-02  0.1119040E+00
         21   -1    0    0  501  502  0.00000000000E+00  0.00000000000E+00  0.50286967861E+03  0.50286967861E+03  0.00000000000E+00 0. -1.
         21   -1    0    0  502  503 -0.00000000000E+00 -0.00000000000E+00 -0.78944723775E+03  0.78944723775E+03  0.00000000000E+00 0. -1.
         -6    2    1    2    0  503 -0.14510625586E+03  0.85017687996E+02 -0.74035102666E+03  0.77868035242E+03  0.17303067880E+03 0.  0.
        -24    2    3    3    0    0 -0.42960066516E+02  0.17245376782E+02 -0.15540607588E+03  0.18101019622E+03  0.80440489684E+02 0.  0.
          6    2    1    2  501    0  0.14510625586E+03 -0.85017687996E+02  0.45377346752E+03  0.51363656394E+03  0.17212880999E+03 0.  0.
         24    2    5    5    0    0  0.13946334778E+03 -0.13523021884E+02  0.24812834577E+03  0.29579410758E+03  0.79332090669E+02 0.  0.
          5    1    5    5  501    0  0.56429080817E+01 -0.71494666112E+02  0.20564512175E+03  0.21784245637E+03  0.47000000000E+01 0. -1.
        -13    1    6    6    0    0  0.91809318035E+01  0.13523348474E+02  0.78609402080E+02  0.80290775050E+02  0.00000000000E+00 0.  1.
         14    1    6    6    0    0  0.13028241597E+03 -0.27046370357E+02  0.16951894369E+03  0.21550333253E+03  0.00000000000E+00 0. -1.
         -5    1    3    3    0  503 -0.10214618934E+03  0.67772311214E+02 -0.58494495078E+03  0.59767015620E+03  0.47000000000E+01 0.  1.
         11    1    4    4    0    0 -0.17141226049E+02  0.48709281776E+02 -0.95856947207E+02  0.10888053127E+03  0.00000000000E+00 0. -1.
        -12    1    4    4    0    0 -0.25818840467E+02 -0.31463904994E+02 -0.59549128671E+02  0.72129664951E+02  0.00000000000E+00 0.  1.
<mgrwt>
<rscale>  2 0.24113372E+03</rscale>
<asrwt>0</asrwt>
<pdfrwt beam="1">  1       21 0.77364566E-01 0.24129536E+03</pdfrwt>
<pdfrwt beam="2">  1       21 0.12145342E+00 0.24129536E+03</pdfrwt>
<totfact> 0.72527334E+02</totfact>
</mgrwt>
</event>
<event>
12    1  0.1039378E-001  0.2846855E+03  0.7546771E-02  0.1093271E+00
         21   -1    0    0  503  502  0.00000000000E+00  0.00000000000E+00  0.44381335879E+03  0.44381335879E+03  0.00000000000E+00 0. -1.
         21   -1    0    0  501  503 -0.00000000000E+00 -0.00000000000E+00 -0.18300551275E+03  0.18300551275E+03  0.00000000000E+00 0.  1.
          6    2    1    2  501    0  0.72346150503E+02 -0.21333520429E+03  0.10814325146E+03  0.30453376746E+03  0.17406888811E+03 0.  0.
         24    2    3    3    0    0  0.54938236272E+02 -0.15370831349E+03  0.13073556919E+02  0.19087313925E+03  0.98067231825E+02 0.  0.
         -6    2    1    2    0  502 -0.72346150503E+02  0.21333520429E+03  0.15266459457E+03  0.32228510407E+03  0.17267117591E+03 0.  0.
        -24    2    5    5    0    0 -0.85369782205E+01  0.63618731453E+02  0.11324371172E+02  0.10667948852E+03  0.84451458841E+02 0.  0.
          5    1    3    3  501    0  0.17407914231E+02 -0.59626890803E+02  0.95069694544E+02  0.11366062821E+03  0.47000000000E+01 0. -1.
        -11    1    4    4    0    0 -0.21866396923E+02 -0.65146033542E+01 -0.64290553212E+01  0.23704685688E+02  0.00000000000E+00 0.  1.
         12    1    4    4    0    0  0.76804633195E+02 -0.14719371013E+03  0.19502612241E+02  0.16716845356E+03  0.00000000000E+00 0. -1.
         -5    1    5    5    0  502 -0.63809172282E+02  0.14971647284E+03  0.14134022340E+03  0.21560561555E+03  0.47000000000E+01 0.  1.
         11    1    6    6    0    0  0.35731330500E+02  0.23493252467E+02  0.18324308352E+02  0.46523554973E+02  0.00000000000E+00 0. -1.
        -12    1    6    6    0    0 -0.44268308721E+02  0.40125478986E+02 -0.69999371791E+01  0.60155933550E+02  0.00000000000E+00 0.  1.
<mgrwt>
<rscale>  2 0.28447218E+03</rscale>
<asrwt>0</asrwt>
<pdfrwt beam="1">  1       21 0.68278978E-01 0.28468553E+03</pdfrwt>
<pdfrwt beam="2">  1       21 0.28154694E-01 0.28468553E+03</pdfrwt>
<totfact> 0.22533935E+04</totfact>
</mgrwt>
</event>
<event>
12    1  0.1039378E-001  0.1858805E+03  0.7546771E-02  0.1162677E+00
         21   -1    0    0  503  502  0.00000000000E+00  0.00000000000E+00  0.42714924039E+03  0.42714924039E+03  0.00000000000E+00 0.  1.
         21   -1    0    0  501  503 -0.00000000000E+00 -0.00000000000E+00 -0.81088483126E+02  0.81088483126E+02  0.00000000000E+00 0. -1.
          6    2    1    2  501    0 -0.30184888471E+02 -0.58460207658E+02  0.14527069968E+03  0.23591337026E+03  0.17384711303E+03 0.  0.
         24    2    3    3    0    0 -0.51172846849E+02 -0.63125145145E+02  0.42195425254E+02  0.13051480178E+03  0.93006533999E+02 0.  0.
         -6    2    1    2    0  502  0.30184888471E+02  0.58460207658E+02  0.20079005758E+03  0.27232435326E+03  0.17179983348E+03 0.  0.
        -24    2    5    5    0    0  0.39881042824E+02  0.90874164692E+02  0.94957923706E+02  0.16111639230E+03  0.84219197386E+02 0.  0.
          5    1    3    3  501    0  0.20987958378E+02  0.46649374869E+01  0.10307527443E+03  0.10539856848E+03  0.47000000000E+01 0. -1.
        -11    1    4    4    0    0 -0.12668730894E+02  0.16897707199E+02  0.35692401881E+02  0.41472603042E+02  0.00000000000E+00 0.  1.
         12    1    4    4    0    0 -0.38504115955E+02 -0.80022852344E+02  0.65030233729E+01  0.89042198736E+02  0.00000000000E+00 0. -1.
         -5    1    5    5    0  502 -0.96961543536E+01 -0.32413957034E+02  0.10583213388E+03  0.11120796096E+03  0.47000000000E+01 0.  1.
         13    1    6    6    0    0  0.12974393759E+02  0.74516969173E+02  0.10377679945E+03  0.12841626725E+03  0.00000000000E+00 0. -1.
        -14    1    6    6    0    0  0.26906649065E+02  0.16357195519E+02 -0.88188757492E+01  0.32700125056E+02  0.00000000000E+00 0.  1.
<mgrwt>
<rscale>  2 0.18540026E+03</rscale>
<asrwt>0</asrwt>
<pdfrwt beam="1">  1       21 0.65715266E-01 0.18588045E+03</pdfrwt>
<pdfrwt beam="2">  1       21 0.12475152E-01 0.18588045E+03</pdfrwt>
<totfact> 0.11677853E+05</totfact>
</mgrwt>
</event>
<event>
12    1  0.1039378E-001  0.1952826E+03  0.7546771E-02  0.1155512E+00
         21   -1    0    0  501  502  0.00000000000E+00  0.00000000000E+00  0.58520295874E+02  0.58520295874E+02  0.00000000000E+00 0. -1.
         21   -1    0    0  502  503 -0.00000000000E+00 -0.00000000000E+00 -0.63042316548E+03  0.63042316548E+03  0.00000000000E+00 0. -1.
         -6    2    1    2    0  503  0.60830780565E+02  0.67361807552E+02 -0.32075920935E+03  0.37552866023E+03  0.17290837831E+03 0.  0.
        -24    2    3    3    0    0  0.65571688034E+02 -0.13258575535E+02 -0.23793000121E+03  0.25974917114E+03  0.79896873133E+02 0.  0.
          6    2    1    2  501    0 -0.60830780565E+02 -0.67361807552E+02 -0.25114366026E+03  0.31341480112E+03  0.16406615280E+03 0.  0.
         24    2    5    5    0    0 -0.49733717243E+00 -0.41300100543E+02 -0.56610220925E+02  0.10802569240E+03  0.82212453169E+02 0.  0.
          5    1    5    5  501    0 -0.60333443392E+02 -0.26061707009E+02 -0.19453343933E+03  0.20538910872E+03  0.47000000000E+01 0. -1.
        -11    1    6    6    0    0  0.19401669521E+02  0.19756833596E+02 -0.14810601977E+02  0.31402407310E+02  0.00000000000E+00 0.  1.
         12    1    6    6    0    0 -0.19899006693E+02 -0.61056934139E+02 -0.41799618949E+02  0.76623285091E+02  0.00000000000E+00 0. -1.
         -5    1    3    3    0  503 -0.47409074691E+01  0.80620383087E+02 -0.82829208142E+02  0.11577948909E+03  0.47000000000E+01 0.  1.
         11    1    4    4    0    0  0.67541810104E+02  0.14959909585E+02 -0.20489374780E+03  0.21625712218E+03  0.00000000000E+00 0. -1.
        -12    1    4    4    0    0 -0.19701220699E+01 -0.28218485120E+02 -0.33036253412E+02  0.43492048963E+02  0.00000000000E+00 0.  1.
<mgrwt>
<rscale>  2 0.19330682E+03</rscale>
<asrwt>0</asrwt>
<pdfrwt beam="1">  1       21 0.90031221E-02 0.19528263E+03</pdfrwt>
<pdfrwt beam="2">  1       21 0.96988183E-01 0.19528263E+03</pdfrwt>
<totfact> 0.86044780E+04</totfact>
</mgrwt>
</event>
<event>
12    1  0.1039378E-001  0.1976925E+03  0.7546771E-02  0.1152424E+00
         21   -1    0    0  503  502  0.00000000000E+00  0.00000000000E+00  0.44430058565E+03  0.44430058565E+03  0.00000000000E+00 0.  1.
         21   -1    0    0  501  503 -0.00000000000E+00 -0.00000000000E+00 -0.10154854033E+03  0.10154854033E+03  0.00000000000E+00 0. -1.
          6    2    1    2  501    0 -0.56217542723E+02  0.75425474141E+02  0.67491838714E+02  0.20889588143E+03  0.17387618217E+03 0.  0.
         24    2    3    3    0    0 -0.77722848046E+01 -0.26237342856E+02  0.22346999148E+02  0.87477522379E+02  0.80025758225E+02 0.  0.
         -6    2    1    2    0  502  0.56217542723E+02 -0.75425474141E+02  0.27526020661E+03  0.33695324456E+03  0.17005849999E+03 0.  0.
        -24    2    5    5    0    0  0.10089854188E+03 -0.57301960149E+02  0.17239423007E+03  0.22325033091E+03  0.81589884773E+02 0.  0.
          5    1    3    3  501    0 -0.48445257918E+02  0.10166281700E+03  0.45144839565E+02  0.12141835905E+03  0.47000000000E+01 0. -1.
        -11    1    4    4    0    0 -0.29634247188E+02 -0.46018119190E+02  0.10658913410E+02  0.55762606963E+02  0.00000000000E+00 0.  1.
         12    1    4    4    0    0  0.21861962383E+02  0.19780776335E+02  0.11688085738E+02  0.31714915416E+02  0.00000000000E+00 0. -1.
         -5    1    5    5    0  502 -0.44680999157E+02 -0.18123513992E+02  0.10286597653E+03  0.11370291365E+03  0.47000000000E+01 0.  1.
         13    1    6    6    0    0  0.20982651027E+02 -0.47344197305E+02  0.30513601135E+02  0.60106775964E+02  0.00000000000E+00 0. -1.
        -14    1    6    6    0    0  0.79915890853E+02 -0.99577628447E+01  0.14188062894E+03  0.16314355494E+03  0.00000000000E+00 0.  1.
<mgrwt>
<rscale>  2 0.19684985E+03</rscale>
<asrwt>0</asrwt>
<pdfrwt beam="1">  1       21 0.68353935E-01 0.19769254E+03</pdfrwt>
<pdfrwt beam="2">  1       21 0.15622853E-01 0.19769254E+03</pdfrwt>
<totfact> 0.70954603E+04</totfact>
</mgrwt>
</event>
<event>
12    1  0.1039378E-001  0.1832605E+03  0.7546771E-02  0.1164889E+00
         21   -1    0    0  503  502  0.00000000000E+00  0.00000000000E+00  0.77865342045E+03  0.77865342045E+03  0.00000000000E+00 0. -1.
         21   -1    0    0  501  503 -0.00000000000E+00 -0.00000000000E+00 -0.52672014696E+02  0.52672014696E+02  0.00000000000E+00 0. -1.
          6    2    1    2  501    0 -0.53346345315E+02 -0.21294202156E+02  0.18491370246E+03  0.26034107720E+03  0.17402621503E+03 0.  0.
         24    2    3    3    0    0 -0.46176339158E+02 -0.81192309748E+02  0.12007696499E+03  0.17165576383E+03  0.79515899514E+02 0.  0.
         -6    2    1    2    0  502  0.53346345315E+02  0.21294202156E+02  0.54106770329E+03  0.57098435794E+03  0.17311730666E+03 0.  0.
        -24    2    5    5    0    0 -0.52590613803E+01  0.24351225389E+00  0.13202466664E+03  0.15720178089E+03  0.85171417090E+02 0.  0.
          5    1    3    3  501    0 -0.71700061572E+01  0.59898107592E+02  0.64836737477E+02  0.88685313373E+02  0.47000000000E+01 0. -1.
        -13    1    4    4    0    0 -0.43699204207E+02 -0.85365590151E+02  0.63831714515E+02  0.11520152867E+03  0.00000000000E+00 0.  1.
         14    1    4    4    0    0 -0.24771349508E+01  0.41732804020E+01  0.56245250472E+02  0.56454235160E+02  0.00000000000E+00 0. -1.
         -5    1    5    5    0  502  0.58605406695E+02  0.21050689902E+02  0.40904303664E+03  0.41378257705E+03  0.47000000000E+01 0.  1.
         11    1    6    6    0    0 -0.11620975982E+02 -0.14261273493E+02  0.13877182208E+03  0.13998589075E+03  0.00000000000E+00 0. -1.
        -12    1    6    6    0    0  0.63619146015E+01  0.14504785747E+02 -0.67471554399E+01  0.17215890145E+02  0.00000000000E+00 0.  1.
<mgrwt>
<rscale>  2 0.18304436E+03</rscale>
<asrwt>0</asrwt>
<pdfrwt beam="1">  1       21 0.11979283E+00 0.18326047E+03</pdfrwt>
<pdfrwt beam="2">  1       21 0.81033874E-02 0.18326047E+03</pdfrwt>
<totfact> 0.62524363E+04</totfact>
</mgrwt>
</event>
<event>
12    1  0.1039378E-001  0.4387350E+03  0.7546771E-02  0.1031563E+00
         21   -1    0    0  501  502  0.00000000000E+00  0.00000000000E+00  0.55377796195E+03  0.55377796195E+03  0.00000000000E+00 0. -1.
         21   -1    0    0  502  503 -0.00000000000E+00 -0.00000000000E+00 -0.46654431463E+03  0.46654431463E+03  0.00000000000E+00 0.  1.
         -6    2    1    2    0  503  0.35357989158E+03  0.19374851366E+03  0.30568272416E+03  0.53021168092E+03  0.15850953426E+03 0.  0.
        -24    2    3    3    0    0  0.23657850815E+03  0.63863591921E+02  0.17660987933E+03  0.31286102899E+03  0.81504755009E+02 0.  0.
          6    2    1    2  501    0 -0.35357989158E+03 -0.19374851366E+03 -0.21844907685E+03  0.49011059567E+03  0.17300627310E+03 0.  0.
         24    2    5    5    0    0 -0.34504686801E+03 -0.16872035948E+03 -0.23593789099E+03  0.45806110872E+03  0.81421066623E+02 0.  0.
          5    1    5    5  501    0 -0.85330235686E+01 -0.25028154187E+02  0.17488814144E+02  0.32049486945E+02  0.47000000000E+01 0. -1.
        -13    1    6    6    0    0 -0.18300796205E+03 -0.64186867987E+02 -0.78892195221E+02  0.20937011884E+03  0.00000000000E+00 0.  1.
         14    1    6    6    0    0 -0.16203890596E+03 -0.10453349149E+03 -0.15704569577E+03  0.24869098988E+03  0.00000000000E+00 0. -1.
         -5    1    3    3    0  503  0.11700138343E+03  0.12988492174E+03  0.12907284483E+03  0.21735065193E+03  0.47000000000E+01 0.  1.
         13    1    4    4    0    0  0.14697022252E+03  0.76755337369E+02  0.13201557271E+03  0.21194277426E+03  0.00000000000E+00 0. -1.
        -14    1    4    4    0    0  0.89608285634E+02 -0.12891745448E+02  0.44594306623E+02  0.10091825473E+03  0.00000000000E+00 0.  1.
<mgrwt>
<rscale>  2 0.43735055E+03</rscale>
<asrwt>0</asrwt>
<pdfrwt beam="1">  1       21 0.85196609E-01 0.43873500E+03</pdfrwt>
<pdfrwt beam="2">  1       21 0.71776049E-01 0.43873500E+03</pdfrwt>
<totfact> 0.18078565E+03</totfact>
</mgrwt>
</event>
<event>
12    1  0.1039378E-001  0.2605695E+03  0.7546771E-02  0.1107154E+00
         21   -1    0    0  501  502  0.00000000000E+00  0.00000000000E+00  0.17827970825E+03  0.17827970825E+03  0.00000000000E+00 0. -1.
         21   -1    0    0  502  503 -0.00000000000E+00 -0.00000000000E+00 -0.98759007146E+03  0.98759007146E+03  0.00000000000E+00 0.  1.
         -6    2    1    2    0  503  0.19194325945E+03  0.27270435400E+02 -0.86355315121E+03  0.90200914758E+03  0.17409929882E+03 0.  0.
        -24    2    3    3    0    0  0.16663959870E+03  0.57544908814E+02 -0.82153470008E+03  0.84417784789E+03  0.81466576261E+02 0.  0.
          6    2    1    2  501    0 -0.19194325945E+03 -0.27270435400E+02  0.54242788007E+02  0.26386063214E+03  0.17057040085E+03 0.  0.
         24    2    5    5    0    0 -0.18551748310E+03  0.21085963867E+02  0.25043977521E+02  0.20681422572E+03  0.85343826603E+02 0.  0.
          5    1    5    5  501    0 -0.64257763441E+01 -0.48356399267E+02  0.29198810486E+02  0.57046406420E+02  0.47000000000E+01 0. -1.
        -11    1    6    6    0    0  0.82522821825E+01 -0.15059655483E+01 -0.44808505739E+01  0.95103162575E+01  0.00000000000E+00 0.  1.
         12    1    6    6    0    0 -0.19376976529E+03  0.22591929415E+02  0.29524828095E+02  0.19730390946E+03  0.00000000000E+00 0. -1.
         -5    1    3    3    0  503  0.25303660753E+02 -0.30274473414E+02 -0.42018451134E+02  0.57831299689E+02  0.47000000000E+01 0.  1.
         13    1    4    4    0    0  0.71604075259E+02  0.67280132179E+02 -0.44432311172E+03  0.45505690566E+03  0.00000000000E+00 0. -1.
        -14    1    4    4    0    0  0.95035523437E+02 -0.97352233652E+01 -0.37721158836E+03  0.38912094223E+03  0.00000000000E+00 0.  1.
<mgrwt>
<rscale>  2 0.25998138E+03</rscale>
<asrwt>0</asrwt>
<pdfrwt beam="1">  1       21 0.27427647E-01 0.26056949E+03</pdfrwt>
<pdfrwt beam="2">  1       21 0.15193694E+00 0.26056949E+03</pdfrwt>
<totfact> 0.34747994E+03</totfact>
</mgrwt>
</event>
<event>
12    1  0.1039378E-001  0.1870311E+03  0.7546771E-02  0.1161571E+00
         21   -1    0    0  503  502  0.00000000000E+00  0.00000000000E+00  0.10597668804E+04  0.10597668804E+04  0.00000000000E+00 0.  1.
         21   -1    0    0  501  503 -0.00000000000E+00 -0.00000000000E+00 -0.33080694587E+02  0.33080694587E+02  0.00000000000E+00 0.  1.
          6    2    1    2  501    0  0.11108893345E+02  0.67192557789E+02  0.57435006573E+03  0.60403528634E+03  0.17419064790E+03 0.  0.
         24    2    3    3    0    0 -0.50347266585E+02  0.71940373686E+02  0.44320156814E+03  0.45904763249E+03  0.81159314192E+02 0.  0.
         -6    2    1    2    0  502 -0.11108893345E+02 -0.67192557789E+02  0.45233612013E+03  0.48881228869E+03  0.17231146411E+03 0.  0.
        -24    2    5    5    0    0 -0.19637384154E+02 -0.10232280181E+03  0.21015445204E+03  0.24390226529E+03  0.66841893107E+02 0.  0.
          5    1    3    3  501    0  0.61456159930E+02 -0.47478158975E+01  0.13114849759E+03  0.14498765385E+03  0.47000000000E+01 0. -1.
        -11    1    4    4    0    0 -0.56029043630E+02  0.37256949822E+02  0.15857794977E+03  0.17226230056E+03  0.00000000000E+00 0.  1.
         12    1    4    4    0    0  0.56817770454E+01  0.34683423864E+02  0.28462361837E+03  0.28678533194E+03  0.00000000000E+00 0. -1.
         -5    1    5    5    0  502  0.85284908087E+01  0.35130244024E+02  0.24218166809E+03  0.24491002340E+03  0.47000000000E+01 0.  1.
         11    1    6    6    0    0 -0.12029809632E+02 -0.20414762711E+02  0.11807807506E+03  0.12043218285E+03  0.00000000000E+00 0. -1.
        -12    1    6    6    0    0 -0.76075745222E+01 -0.81908039102E+02  0.92076376977E+02  0.12347008244E+03  0.00000000000E+00 0.  1.
<mgrwt>
<rscale>  2 0.18659232E+03</rscale>
<asrwt>0</asrwt>
<pdfrwt beam="1">  1       21 0.16304103E+00 0.18703109E+03</pdfrwt>
<pdfrwt beam="2">  1       21 0.50893384E-02 0.18703109E+03</pdfrwt>
<totfact> 0.62631143E+04</totfact>
</mgrwt>
</event>
<event>
12    1  0.1039378E-001  0.2596303E+03  0.7546771E-02  0.1107650E+00
         21   -1    0    0  503  502  0.00000000000E+00  0.00000000000E+00  0.14864840932E+03  0.14864840932E+03  0.00000000000E+00 0. -1.
         21   -1    0    0  501  503 -0.00000000000E+00 -0.00000000000E+00 -0.52322453473E+03  0.52322453473E+03  0.00000000000E+00 0. -1.
          6    2    1    2  501    0 -0.18365808261E+03  0.59786618368E+02 -0.31338467826E+03  0.40696172724E+03  0.17350262197E+03 0.  0.
         24    2    3    3    0    0 -0.96648471072E+02 -0.35147779209E+02 -0.14939374139E+03  0.19839919533E+03  0.80420503586E+02 0.  0.
         -6    2    1    2    0  502  0.18365808261E+03 -0.59786618368E+02 -0.61191447154E+02  0.26491121681E+03  0.17067169813E+03 0.  0.
        -24    2    5    5    0    0  0.15816598078E+03 -0.10318602327E+03 -0.62928764923E+02  0.21432995669E+03  0.79457334501E+02 0.  0.
          5    1    3    3  501    0 -0.87009611535E+02  0.94934397577E+02 -0.16399093687E+03  0.20856253192E+03  0.47000000000E+01 0. -1.
        -13    1    4    4    0    0 -0.49941361503E+02 -0.39626427060E+01 -0.12944315986E+03  0.13879976138E+03  0.00000000000E+00 0.  1.
         14    1    4    4    0    0 -0.46707109569E+02 -0.31185136503E+02 -0.19950581527E+02  0.59599433942E+02  0.00000000000E+00 0. -1.
         -5    1    5    5    0  502  0.25492101824E+02  0.43399404904E+02  0.17373177691E+01  0.50581260112E+02  0.47000000000E+01 0.  1.
         13    1    6    6    0    0  0.37295843699E+02 -0.67742733711E+01  0.15513182659E+02  0.40957655855E+02  0.00000000000E+00 0. -1.
        -14    1    6    6    0    0  0.12087013708E+03 -0.96411749901E+02 -0.78441947582E+02  0.17337230084E+03  0.00000000000E+00 0.  1.
<mgrwt>
<rscale>  2 0.25915821E+03</rscale>
<asrwt>0</asrwt>
<pdfrwt beam="1">  1       21 0.22868986E-01 0.25963030E+03</pdfrwt>
<pdfrwt beam="2">  1       21 0.80496083E-01 0.25963030E+03</pdfrwt>
<totfact> 0.23492837E+04</totfact>
</mgrwt>
</event>
<event>
12    1  0.1039378E-001  0.1943328E+03  0.7546771E-02  0.1154706E+00
         21   -1    0    0  503  502  0.00000000000E+00  0.00000000000E+00  0.36596776938E+04  0.36596776938E+04  0.00000000000E+00 0. -1.
         21   -1    0    0  501  503 -0.00000000000E+00 -0.00000000000E+00 -0.10575968018E+02  0.10575968018E+02  0.00000000000E+00 0.  1.
          6    2    1    2  501    0 -0.69937795830E+00  0.88631969316E+02  0.15240419555E+04  0.15363267050E+04  0.17245215921E+03 0.  0.
         24    2    3    3    0    0 -0.43894803023E+01  0.12828252591E+03  0.11128296951E+04  0.11231640293E+04  0.81436063157E+02 0.  0.
         -6    2    1    2    0  502  0.69937795830E+00 -0.88631969316E+02  0.21250597702E+04  0.21339269568E+04  0.17294251850E+03 0.  0.
        -24    2    5    5    0    0 -0.69170846734E+01 -0.12902190061E+03  0.17293443531E+04  0.17360549441E+04  0.80996177243E+02 0.  0.
          5    1    3    3  501    0  0.36901023440E+01 -0.39650556590E+02  0.41121226043E+03  0.41316267574E+03  0.47000000000E+01 0. -1.
        -11    1    4    4    0    0  0.21471631869E+02  0.69342178718E+02  0.34021597957E+03  0.34787394482E+03  0.00000000000E+00 0.  1.
         12    1    4    4    0    0 -0.25861112171E+02  0.58940347187E+02  0.77261371552E+03  0.77529008446E+03  0.00000000000E+00 0. -1.
         -5    1    5    5    0  502  0.76164626317E+01  0.40389931291E+02  0.39571541718E+03  0.39787201265E+03  0.47000000000E+01 0.  1.
         13    1    6    6    0    0 -0.40237785502E+02 -0.59264119473E+02  0.10194552352E+04  0.10219688312E+04  0.00000000000E+00 0. -1.
        -14    1    6    6    0    0  0.33320700829E+02 -0.69757781134E+02  0.70988911785E+03  0.71408611299E+03  0.00000000000E+00 0.  1.
<mgrwt>
<rscale>  2 0.19422363E+03</rscale>
<asrwt>0</asrwt>
<pdfrwt beam="1">  1       21 0.56302633E+00 0.19433278E+03</pdfrwt>
<pdfrwt beam="2">  1       21 0.16270749E-02 0.19433278E+03</pdfrwt>
<totfact> 0.11251422E+03</totfact>
</mgrwt>
</event>
<event>
12    1  0.1039378E-001  0.1777905E+03  0.7546771E-02  0.1170348E+00
         21   -1    0    0  503  502  0.00000000000E+00  0.00000000000E+00  0.43596487724E+02  0.43596487724E+02  0.00000000000E+00 0. -1.
         21   -1    0    0  501  503 -0.00000000000E+00 -0.00000000000E+00 -0.74006444294E+03  0.74006444294E+03  0.00000000000E+00 0. -1.
          6    2    1    2  501    0 -0.21052920529E+02 -0.37275679806E+02 -0.28306158927E+03  0.33426536610E+03  0.17255946768E+03 0.  0.
         24    2    3    3    0    0  0.18961766902E+02 -0.79794383127E+02 -0.12724383492E+03  0.16780132219E+03  0.72385067680E+02 0.  0.
         -6    2    1    2    0  502  0.21052920529E+02  0.37275679806E+02 -0.41340636595E+03  0.44939556456E+03  0.17093521660E+03 0.  0.
        -24    2    5    5    0    0  0.60732319488E+02  0.97555385877E+01 -0.14702895048E+03  0.17863583649E+03  0.80682492750E+02 0.  0.
          5    1    3    3  501    0 -0.40014687431E+02  0.42518703321E+02 -0.15581775435E+03  0.16646404390E+03  0.47000000000E+01 0. -1.
        -13    1    4    4    0    0  0.13287092852E+02 -0.89397194146E+01  0.57402469974E+01  0.17012226640E+02  0.00000000000E+00 0.  1.
         14    1    4    4    0    0  0.56746740501E+01 -0.70854663713E+02 -0.13298408191E+03  0.15078909555E+03  0.00000000000E+00 0. -1.
         -5    1    5    5    0  502 -0.39679398959E+02  0.27520141219E+02 -0.26637741546E+03  0.27075972807E+03  0.47000000000E+01 0.  1.
         13    1    6    6    0    0  0.57806493771E+02  0.22839051427E+02 -0.15209423514E+03  0.16430419762E+03  0.00000000000E+00 0. -1.
        -14    1    6    6    0    0  0.29258257170E+01 -0.13083512839E+02  0.50652846538E+01  0.14331638879E+02  0.00000000000E+00 0.  1.
<mgrwt>
<rscale>  2 0.17739520E+03</rscale>
<asrwt>0</asrwt>
<pdfrwt beam="1">  1       21 0.67071518E-02 0.17779053E+03</pdfrwt>
<pdfrwt beam="2">  1       21 0.11385607E+00 0.17779053E+03</pdfrwt>
<totfact> 0.98445948E+04</totfact>
</mgrwt>
</event>
<event>
12    1  0.1039378E-001  0.2024249E+03  0.7546771E-02  0.1149436E+00
         21   -1    0    0  501  502  0.00000000000E+00  0.00000000000E+00  0.11842126588E+04  0.11842126588E+04  0.00000000000E+00 0.  1.
         21   -1    0    0  502  503 -0.00000000000E+00 -0.00000000000E+00 -0.20086202753E+03  0.20086202753E+03  0.00000000000E+00 0.  1.
         -6    2    1    2    0  503 -0.36526253939E+02  0.80321266370E+02 -0.13930785483E+03  0.24572857831E+03  0.18218172994E+03 0.  0.
        -24    2    3    3    0    0  0.38771806959E+02  0.37747598367E+02 -0.12917026247E+03  0.15850945219E+03  0.74243892204E+02 0.  0.
          6    2    1    2  501    0  0.36526253939E+02 -0.80321266370E+02  0.11226584861E+04  0.11393461080E+04  0.17309478437E+03 0.  0.
         24    2    5    5    0    0  0.69976776994E+02 -0.24831538625E+02  0.43147584283E+03  0.44511733899E+03  0.80278813501E+02 0.  0.
          5    1    5    5  501    0 -0.33450523055E+02 -0.55489727745E+02  0.69118264330E+03  0.69422876905E+03  0.47000000000E+01 0. -1.
        -11    1    6    6    0    0  0.43706235449E+02 -0.37326145864E+02  0.39139315632E+03  0.39559079741E+03  0.00000000000E+00 0.  1.
         12    1    6    6    0    0  0.26270541544E+02  0.12494607239E+02  0.40082686506E+02  0.49526541577E+02  0.00000000000E+00 0. -1.
         -5    1    3    3    0  503 -0.75298060898E+02  0.42573668003E+02 -0.10137592361E+02  0.87219126120E+02  0.47000000000E+01 0.  1.
         11    1    4    4    0    0  0.50998064683E+02  0.48552241985E+02 -0.79360044268E+02  0.10609495478E+03  0.00000000000E+00 0. -1.
        -12    1    4    4    0    0 -0.12226257723E+02 -0.10804643617E+02 -0.49810218204E+02  0.52414497414E+02  0.00000000000E+00 0.  1.
<mgrwt>
<rscale>  2 0.20035907E+03</rscale>
<asrwt>0</asrwt>
<pdfrwt beam="1">  1       21 0.18218656E+00 0.20242494E+03</pdfrwt>
<pdfrwt beam="2">  1       21 0.30901851E-01 0.20242494E+03</pdfrwt>
<totfact> 0.17512170E+03</totfact>
</mgrwt>
</event>
<event>
12    1  0.1039378E-001  0.1884075E+03  0.7546771E-02  0.1160375E+00
         21   -1    0    0  503  502  0.00000000000E+00  0.00000000000E+00  0.33438692130E+03  0.33438692130E+03  0.00000000000E+00 0.  1.
         21   -1    0    0  501  503 -0.00000000000E+00 -0.00000000000E+00 -0.24778977432E+03  0.24778977432E+03  0.00000000000E+00 0. -1.
          6    2    1    2  501    0  0.17852530719E+02  0.71708445214E+02 -0.17756343567E+03  0.25889412351E+03  0.17331064460E+03 0.  0.
         24    2    3    3    0    0  0.40331884963E+02  0.78881013429E+02 -0.51177262921E+02  0.13023829673E+03  0.80585522705E+02 0.  0.
         -6    2    1    2    0  502 -0.17852530719E+02 -0.71708445214E+02  0.26416058265E+03  0.32328257212E+03  0.17108475689E+03 0.  0.
        -24    2    5    5    0    0 -0.63536074890E+02 -0.55233844263E+02  0.24363015294E+03  0.27034877168E+03  0.81518075091E+02 0.  0.
          5    1    3    3  501    0 -0.22479354244E+02 -0.71725682150E+01 -0.12638617275E+03  0.12865582678E+03  0.47000000000E+01 0. -1.
        -13    1    4    4    0    0 -0.21389990846E+02  0.24991775901E+02 -0.32410785750E+02  0.46179861455E+02  0.00000000000E+00 0.  1.
         14    1    4    4    0    0  0.61721875809E+02  0.53889237528E+02 -0.18766477171E+02  0.84058435270E+02  0.00000000000E+00 0. -1.
         -5    1    5    5    0  502  0.45683544171E+02 -0.16474600950E+02  0.20530429717E+02  0.52933800438E+02  0.47000000000E+01 0.  1.
         13    1    6    6    0    0 -0.19664987948E+02  0.21159827038E+02  0.67283537634E+02  0.73222431453E+02  0.00000000000E+00 0. -1.
        -14    1    6    6    0    0 -0.43871086942E+02 -0.76393671301E+02  0.17634661530E+03  0.19712634023E+03  0.00000000000E+00 0.  1.
<mgrwt>
<rscale>  2 0.18789405E+03</rscale>
<asrwt>0</asrwt>
<pdfrwt beam="1">  1       21 0.51444142E-01 0.18840752E+03</pdfrwt>
<pdfrwt beam="2">  1       21 0.38121503E-01 0.18840752E+03</pdfrwt>
<totfact> 0.23882959E+04</totfact>
</mgrwt>
</event>
<event>
12    1  0.1039378E-001  0.2184822E+03  0.7546771E-02  0.1135421E+00
         21   -1    0    0  501  502  0.00000000000E+00  0.00000000000E+00  0.59510587087E+03  0.59510587087E+03  0.00000000000E+00 0.  1.
         21   -1    0    0  502  503 -0.00000000000E+00 -0.00000000000E+00 -0.79839342028E+02  0.79839342028E+02  0.00000000000E+00 0.  1.
         -6    2    1    2    0  503 -0.12756091022E+03  0.39820969608E+02  0.28291545383E+03  0.35745718820E+03  0.17284962234E+03 0.  0.
        -24    2    3    3    0    0 -0.68705436004E+02  0.23731243879E+02  0.27528397470E+03  0.29578729609E+03  0.80157650496E+02 0.  0.
          6    2    1    2  501    0  0.12756091022E+03 -0.39820969608E+02  0.23235107500E+03  0.31748802469E+03  0.17015912650E+03 0.  0.
         24    2    5    5    0    0  0.14207529195E+03  0.36816136947E+01  0.20946283302E+03  0.26601858082E+03  0.81806259328E+02 0.  0.
          5    1    5    5  501    0 -0.14514381732E+02 -0.43502583303E+02  0.22888241984E+02  0.51469443869E+02  0.47000000000E+01 0. -1.
        -13    1    6    6    0    0  0.66340091419E+02  0.20545653835E+02  0.41255460194E+02  0.80778367257E+02  0.00000000000E+00 0.  1.
         14    1    6    6    0    0  0.75735200528E+02 -0.16864040140E+02  0.16820737283E+03  0.18524021357E+03  0.00000000000E+00 0. -1.
         -5    1    3    3    0  503 -0.58855474211E+02  0.16089725730E+02  0.76314791357E+01  0.61669892106E+02  0.47000000000E+01 0.  1.
         11    1    4    4    0    0 -0.14861719766E+02  0.45731250453E+02  0.15293205480E+03  0.16031354081E+03  0.00000000000E+00 0. -1.
        -12    1    4    4    0    0 -0.53843716238E+02 -0.22000006575E+02  0.12235191990E+03  0.13547375528E+03  0.00000000000E+00 0.  1.
<mgrwt>
<rscale>  2 0.21794972E+03</rscale>
<asrwt>0</asrwt>
<pdfrwt beam="1">  1       21 0.91554746E-01 0.21848224E+03</pdfrwt>
<pdfrwt beam="2">  1       21 0.12282976E-01 0.21848224E+03</pdfrwt>
<totfact> 0.56126782E+04</totfact>
</mgrwt>
</event>
<event>
12    1  0.1039378E-001  0.2263110E+03  0.7546771E-02  0.1129405E+00
         21   -1    0    0  501  502  0.00000000000E+00  0.00000000000E+00  0.14607445197E+03  0.14607445197E+03  0.00000000000E+00 0. -1.
         21   -1    0    0  502  503 -0.00000000000E+00 -0.00000000000E+00 -0.35654937674E+03  0.35654937674E+03  0.00000000000E+00 0.  1.
         -6    2    1    2    0  503  0.14453290475E+03 -0.88148923980E+01 -0.14062627002E+03  0.26577895566E+03  0.17290240764E+03 0.  0.
        -24    2    3    3    0    0  0.15265020021E+02 -0.41707117339E+02 -0.52116360524E+02  0.10562846842E+03  0.80428563538E+02 0.  0.
          6    2    1    2  501    0 -0.14453290475E+03  0.88148923980E+01 -0.69848654740E+02  0.23684487305E+03  0.17392296121E+03 0.  0.
         24    2    5    5    0    0 -0.59498744068E+01  0.77796880295E+01  0.16087009605E+01  0.80849451219E+02  0.80237904336E+02 0.  0.
          5    1    5    5  501    0 -0.13858303035E+03  0.10352043685E+01 -0.71457355700E+02  0.15599542183E+03  0.47000000000E+01 0. -1.
        -11    1    6    6    0    0  0.39135022064E+01 -0.14432761399E+02 -0.34340758524E+02  0.37455410786E+02  0.00000000000E+00 0.  1.
         12    1    6    6    0    0 -0.98633766132E+01  0.22212449429E+02  0.35949459484E+02  0.43394040433E+02  0.00000000000E+00 0. -1.
         -5    1    3    3    0  503  0.12926788473E+03  0.32892224941E+02 -0.88509909500E+02  0.16015048724E+03  0.47000000000E+01 0.  1.
         13    1    4    4    0    0  0.31228216741E+02 -0.56137262970E+02 -0.20588917120E+02  0.67457374117E+02  0.00000000000E+00 0. -1.
        -14    1    4    4    0    0 -0.15963196720E+02  0.14430145631E+02 -0.31527443404E+02  0.38171094300E+02  0.00000000000E+00 0.  1.
<mgrwt>
<rscale>  2 0.22611488E+03</rscale>
<asrwt>0</asrwt>
<pdfrwt beam="1">  1       21 0.22472992E-01 0.22631098E+03</pdfrwt>
<pdfrwt beam="2">  1       21 0.54853751E-01 0.22631098E+03</pdfrwt>
<totfact> 0.57286045E+04</totfact>
</mgrwt>
</event>
<event>
12    1  0.1039378E-001  0.2297521E+03  0.7546771E-02  0.1126932E+00
         21   -1    0    0  501  502  0.00000000000E+00  0.00000000000E+00  0.34396463642E+02  0.34396463642E+02  0.00000000000E+00 0.  1.
         21   -1    0    0  502  503 -0.00000000000E+00 -0.00000000000E+00 -0.27697098720E+04  0.27697098720E+04  0.00000000000E+00 0. -1.
         -6    2    1    2    0  503  0.61481387957E+02 -0.13957479233E+03 -0.23066821230E+04  0.23180958638E+04  0.17182820927E+03 0.  0.
        -24    2    3    3    0    0 -0.31938013804E+02 -0.92843209373E+02 -0.11486366490E+04  0.11553394683E+04  0.76178981998E+02 0.  0.
          6    2    1    2  501    0 -0.61481387957E+02  0.13957479233E+03 -0.42863128537E+03  0.48601047185E+03  0.17093951044E+03 0.  0.
         24    2    5    5    0    0 -0.37350243261E+02  0.42881273060E+02 -0.94563339463E+02  0.13736246698E+03  0.81806955173E+02 0.  0.
          5    1    5    5  501    0 -0.24131144696E+02  0.96693519271E+02 -0.33406794591E+03  0.34864800487E+03  0.47000000000E+01 0. -1.
        -13    1    6    6    0    0  0.65195079862E+01  0.45351121692E+02 -0.18279733457E+02  0.49329269996E+02  0.00000000000E+00 0.  1.
         14    1    6    6    0    0 -0.43869751247E+02 -0.24698486314E+01 -0.76283606006E+02  0.88033196989E+02  0.00000000000E+00 0. -1.
         -5    1    3    3    0  503  0.93419401762E+02 -0.46731582959E+02 -0.11580454740E+04  0.11627563955E+04  0.47000000000E+01 0.  1.
         13    1    4    4    0    0 -0.14111902144E+02 -0.41294862875E+02 -0.88725430832E+03  0.88832686502E+03  0.00000000000E+00 0. -1.
        -14    1    4    4    0    0 -0.17826111660E+02 -0.51548346498E+02 -0.26138234070E+03  0.26701260329E+03  0.00000000000E+00 0.  1.
<mgrwt>
<rscale>  2 0.22958593E+03</rscale>
<asrwt>0</asrwt>
<pdfrwt beam="1">  1       21 0.52917632E-02 0.22975208E+03</pdfrwt>
<pdfrwt beam="2">  1       21 0.42610925E+00 0.22975208E+03</pdfrwt>
<totfact> 0.13807672E+03</totfact>
</mgrwt>
</event>
<event>
12    1  0.1039378E-001  0.1874966E+03  0.7546771E-02  0.1162442E+00
         21   -1    0    0  501  502  0.00000000000E+00  0.00000000000E+00  0.14072957593E+03  0.14072957593E+03  0.00000000000E+00 0.  1.
         21   -1    0    0  502  503 -0.00000000000E+00 -0.00000000000E+00 -0.41327304254E+03  0.41327304254E+03  0.00000000000E+00 0.  1.
         -6    2    1    2    0  503 -0.50530747067E+02  0.12470006539E+02 -0.31706620937E+03  0.36835574413E+03  0.18012805347E+03 0.  0.
        -24    2    3    3    0    0 -0.12200839455E+01 -0.16181400776E+02 -0.39728929303E+02  0.85176469548E+02  0.73575245873E+02 0.  0.
          6    2    1    2  501    0  0.50530747067E+02 -0.12470006539E+02  0.44522742760E+02  0.18564687435E+03  0.17255036908E+03 0.  0.
         24    2    5    5    0    0 -0.17992128966E+02  0.36618966077E+02  0.45803232735E+02  0.10121440768E+03  0.80509346116E+02 0.  0.
          5    1    5    5  501    0  0.68522876033E+02 -0.49088972616E+02 -0.12804899742E+01  0.84432466664E+02  0.47000000000E+01 0. -1.
        -13    1    6    6    0    0  0.34829673272E+01 -0.24323191779E+02  0.19827706859E+02  0.31573512300E+02  0.00000000000E+00 0.  1.
         14    1    6    6    0    0 -0.21475096294E+02  0.60942157856E+02  0.25975525876E+02  0.69640895381E+02  0.00000000000E+00 0. -1.
         -5    1    3    3    0  503 -0.49310663121E+02  0.28651407316E+02 -0.27733728006E+03  0.28317927458E+03  0.47000000000E+01 0.  1.
         13    1    4    4    0    0 -0.62195062941E+01  0.18690303460E+02  0.11646259129E+02  0.22883292020E+02  0.00000000000E+00 0. -1.
        -14    1    4    4    0    0  0.49994223487E+01 -0.34871704236E+02 -0.51375188432E+02  0.62293177529E+02  0.00000000000E+00 0.  1.
<mgrwt>
<rscale>  2 0.18565267E+03</rscale>
<asrwt>0</asrwt>
<pdfrwt beam="1">  1       21 0.21650704E-01 0.18749659E+03</pdfrwt>
<pdfrwt beam="2">  1       21 0.63580468E-01 0.18749659E+03</pdfrwt>
<totfact> 0.45603012E+04</totfact>
</mgrwt>
</event>
<event>
12    1  0.1039378E-001  0.2052557E+03  0.7546771E-02  0.1145608E+00
         21   -1    0    0  501  502  0.00000000000E+00  0.00000000000E+00  0.68496454417E+02  0.68496454417E+02  0.00000000000E+00 0. -1.
         21   -1    0    0  502  503 -0.00000000000E+00 -0.00000000000E+00 -0.12795834035E+04  0.12795834035E+04  0.00000000000E+00 0. -1.
         -6    2    1    2    0  503  0.26211221074E+02 -0.10937021501E+03 -0.10917140499E+04  0.11106355934E+04  0.17036132898E+03 0.  0.
        -24    2    3    3    0    0  0.92372628676E+01 -0.11199548617E+03 -0.50599275907E+03  0.52464367545E+03  0.81203435951E+02 0.  0.
          6    2    1    2  501    0 -0.26211221074E+02  0.10937021501E+03 -0.11937289916E+03  0.23744426455E+03  0.17170037179E+03 0.  0.
         24    2    5    5    0    0 -0.30720652649E+02  0.90942006583E+02 -0.17576940782E+02  0.13378886922E+03  0.91522159172E+02 0.  0.
          5    1    5    5  501    0  0.45094315753E+01  0.18428208425E+02 -0.10179595838E+03  0.10365539533E+03  0.47000000000E+01 0. -1.
        -11    1    6    6    0    0 -0.24790572098E+02  0.18131946360E+01  0.24630553396E+02  0.34993203631E+02  0.00000000000E+00 0.  1.
         12    1    6    6    0    0 -0.59300805513E+01  0.89128811947E+02 -0.42207494178E+02  0.98795665589E+02  0.00000000000E+00 0. -1.
         -5    1    3    3    0  503  0.16973958207E+02  0.26252711587E+01 -0.58572129085E+03  0.58599191791E+03  0.47000000000E+01 0.  1.
         13    1    4    4    0    0 -0.10237873188E+02 -0.65228331757E+02 -0.41739294547E+03  0.42258303355E+03  0.00000000000E+00 0. -1.
        -14    1    4    4    0    0  0.19475136055E+02 -0.46767154410E+02 -0.88599813596E+02  0.10206064190E+03  0.00000000000E+00 0.  1.
<mgrwt>
<rscale>  2 0.20497539E+03</rscale>
<asrwt>0</asrwt>
<pdfrwt beam="1">  1       21 0.10537917E-01 0.20525567E+03</pdfrwt>
<pdfrwt beam="2">  1       21 0.19685897E+00 0.20525567E+03</pdfrwt>
<totfact> 0.10296964E+04</totfact>
</mgrwt>
</event>
<event>
12    1  0.1039378E-001  0.1938559E+03  0.7546771E-02  0.1155873E+00
         21   -1    0    0  503  502  0.00000000000E+00  0.00000000000E+00  0.19421630791E+03  0.19421630791E+03  0.00000000000E+00 0.  1.
         21   -1    0    0  501  503 -0.00000000000E+00 -0.00000000000E+00 -0.26576171942E+03  0.26576171942E+03  0.00000000000E+00 0.  1.
          6    2    1    2  501    0 -0.40497630965E+02 -0.71570057193E+02 -0.15853805576E+03  0.24749786737E+03  0.17134336295E+03 0.  0.
         24    2    3    3    0    0 -0.66685597260E+02 -0.89291397125E+02 -0.68540029408E+02  0.15199085080E+03  0.77353478344E+02 0.  0.
         -6    2    1    2    0  502  0.40497630965E+02  0.71570057193E+02  0.86992644249E+02  0.21248015995E+03  0.17554989895E+03 0.  0.
        -24    2    5    5    0    0 -0.48142098808E+02  0.34039603060E+02  0.42720193731E+02  0.10642509616E+03  0.77620421835E+02 0.  0.
          5    1    3    3  501    0  0.26187966294E+02  0.17721339932E+02 -0.89998026353E+02  0.95507016575E+02  0.47000000000E+01 0. -1.
        -11    1    4    4    0    0 -0.70129177506E+02 -0.47142293386E+02 -0.18551884570E+02  0.86513986063E+02  0.00000000000E+00 0.  1.
         12    1    4    4    0    0  0.34435802467E+01 -0.42149103739E+02 -0.49988144838E+02  0.65476864733E+02  0.00000000000E+00 0. -1.
         -5    1    5    5    0  502  0.88639729774E+02  0.37530454133E+02  0.44272450518E+02  0.10605506380E+03  0.47000000000E+01 0.  1.
         13    1    6    6    0    0 -0.56281699342E+02  0.36365886965E+02  0.43688368111E+01  0.67150533510E+02  0.00000000000E+00 0. -1.
        -14    1    6    6    0    0  0.81396005338E+01 -0.23262839058E+01  0.38351356920E+02  0.39274562649E+02  0.00000000000E+00 0.  1.
<mgrwt>
<rscale>  2 0.19289857E+03</rscale>
<asrwt>0</asrwt>
<pdfrwt beam="1">  1       21 0.29879432E-01 0.19385587E+03</pdfrwt>
<pdfrwt beam="2">  1       21 0.40886418E-01 0.19385587E+03</pdfrwt>
<totfact> 0.61856540E+04</totfact>
</mgrwt>
</event>
<event>
12    1  0.1039378E-001  0.2158226E+03  0.7546771E-02  0.1137053E+00
         21   -1    0    0  503  502  0.00000000000E+00  0.00000000000E+00  0.21720655544E+02  0.21720655544E+02  0.00000000000E+00 0.  1.
         21   -1    0    0  501  503 -0.00000000000E+00 -0.00000000000E+00 -0.22189085217E+04  0.22189085217E+04  0.00000000000E+00 0. -1.
          6    2    1    2  501    0  0.46739190606E+02 -0.11978928032E+03 -0.13052166320E+04  0.13229398580E+04  0.17333605494E+03 0.  0.
         24    2    3    3    0    0  0.74800780625E+02 -0.10089466775E+03 -0.12434743925E+04  0.12523802849E+04  0.80330084868E+02 0.  0.
         -6    2    1    2    0  502 -0.46739190606E+02  0.11978928032E+03 -0.89197123424E+03  0.91768931928E+03  0.17322523024E+03 0.  0.
        -24    2    5    5    0    0 -0.46329204803E+02  0.14513083878E+03 -0.85774832187E+03  0.87484471163E+03  0.80073280283E+02 0.  0.
          5    1    3    3  501    0 -0.28061590019E+02 -0.18894612569E+02 -0.61742239478E+02  0.70559573087E+02  0.47000000000E+01 0. -1.
        -13    1    4    4    0    0  0.25228131028E+02 -0.91620591850E+02 -0.67220322480E+03  0.67888730057E+03  0.00000000000E+00 0.  1.
         14    1    4    4    0    0  0.49572649596E+02 -0.92740759013E+01 -0.57127116767E+03  0.57349298434E+03  0.00000000000E+00 0. -1.
         -5    1    5    5    0  502 -0.40998580327E+00 -0.25341558460E+02 -0.34222912367E+02  0.42844607647E+02  0.47000000000E+01 0.  1.
         11    1    6    6    0    0 -0.25097418382E+02  0.13989773768E+03 -0.61951996736E+03  0.63561485774E+03  0.00000000000E+00 0. -1.
        -12    1    6    6    0    0 -0.21231786421E+02  0.52331010982E+01 -0.23822835451E+03  0.23922985390E+03  0.00000000000E+00 0.  1.
<mgrwt>
<rscale>  2 0.21580039E+03</rscale>
<asrwt>0</asrwt>
<pdfrwt beam="1">  1       21 0.33416393E-02 0.21582264E+03</pdfrwt>
<pdfrwt beam="2">  1       21 0.34137054E+00 0.21582264E+03</pdfrwt>
<totfact> 0.10133666E+04</totfact>
</mgrwt>
</event>
<event>
12    1  0.1039378E-001  0.2023119E+03  0.7546771E-02  0.1147813E+00
         21   -1    0    0  501  502  0.00000000000E+00  0.00000000000E+00  0.73376310538E+02  0.73376310538E+02  0.00000000000E+00 0.  1.
         21   -1    0    0  502  503 -0.00000000000E+00 -0.00000000000E+00 -0.73645349929E+03  0.73645349929E+03  0.00000000000E+00 0.  1.
         -6    2    1    2    0  503 -0.90437594016E+02  0.51959250402E+02 -0.53101142630E+03  0.56822790653E+03  0.17329482621E+03 0.  0.
        -24    2    3    3    0    0  0.62415718930E+01  0.54223553219E+02 -0.19945757763E+03  0.22282664314E+03  0.83001425741E+02 0.  0.
          6    2    1    2  501    0  0.90437594016E+02 -0.51959250402E+02 -0.13206576245E+03  0.24160190330E+03  0.17335337306E+03 0.  0.
         24    2    5    5    0    0  0.79051265221E+02  0.27552104280E+02 -0.10356971362E+03  0.15624489535E+03  0.81716343279E+02 0.  0.
          5    1    5    5  501    0  0.11386328795E+02 -0.79511354682E+02 -0.28496048831E+02  0.85357007948E+02  0.47000000000E+01 0. -1.
        -13    1    6    6    0    0  0.12954812251E+02 -0.19755691817E+02  0.11849436140E+01  0.23654145747E+02  0.00000000000E+00 0.  1.
         14    1    6    6    0    0  0.66096452970E+02  0.47307796098E+02 -0.10475465724E+03  0.13259074960E+03  0.00000000000E+00 0. -1.
         -5    1    3    3    0  503 -0.96679165909E+02 -0.22643028167E+01 -0.33155384867E+03  0.34540126339E+03  0.47000000000E+01 0.  1.
         11    1    4    4    0    0 -0.21124931359E+02 -0.14175272786E+02 -0.44808328509E+02  0.51526569721E+02  0.00000000000E+00 0. -1.
        -12    1    4    4    0    0  0.27366503252E+02  0.68398826005E+02 -0.15464924912E+03  0.17130007342E+03  0.00000000000E+00 0.  1.
<mgrwt>
<rscale>  2 0.20229938E+03</rscale>
<asrwt>0</asrwt>
<pdfrwt beam="1">  1       21 0.11288663E-01 0.20231192E+03</pdfrwt>
<pdfrwt beam="2">  1       21 0.11330054E+00 0.20231192E+03</pdfrwt>
<totfact> 0.39572836E+04</totfact>
</mgrwt>
</event>
<event>
12    1  0.1039378E-001  0.1808069E+03  0.7546771E-02  0.1167541E+00
         21   -1    0    0  503  502  0.00000000000E+00  0.00000000000E+00  0.18358622854E+03  0.18358622854E+03  0.00000000000E+00 0. -1.
         21   -1    0    0  501  503 -0.00000000000E+00 -0.00000000000E+00 -0.21567331690E+03  0.21567331690E+03  0.00000000000E+00 0. -1.
          6    2    1    2  501    0 -0.43819819495E+02 -0.30231126561E+02 -0.10176788788E+03  0.20747971652E+03  0.17279187529E+03 0.  0.
         24    2    3    3    0    0 -0.29766527761E+02  0.48168693201E+02 -0.67829040672E+02  0.12077353394E+03  0.82335888663E+02 0.  0.
         -6    2    1    2    0  502  0.43819819495E+02  0.30231126561E+02  0.69680799525E+02  0.19177982893E+03  0.17055788275E+03 0.  0.
        -24    2    5    5    0    0  0.66501964231E+02  0.58582584615E+02  0.89875766539E+02  0.14996820906E+03  0.80983824618E+02 0.  0.
          5    1    3    3  501    0 -0.14053291734E+02 -0.78399819761E+02 -0.33938847212E+02  0.86706182578E+02  0.47000000000E+01 0. -1.
        -13    1    4    4    0    0  0.22291040664E+02  0.40778411338E+02 -0.39816751443E+02  0.61197573650E+02  0.00000000000E+00 0.  1.
         14    1    4    4    0    0 -0.52057568426E+02  0.73902818622E+01 -0.28012289228E+02  0.59575960288E+02  0.00000000000E+00 0. -1.
         -5    1    5    5    0  502 -0.22682144736E+02 -0.28351458054E+02 -0.20194967015E+02  0.41811619872E+02  0.47000000000E+01 0.  1.
         11    1    6    6    0    0  0.20172006607E+02 -0.10982386774E+02  0.54626283513E+02  0.59258362450E+02  0.00000000000E+00 0. -1.
        -12    1    6    6    0    0  0.46329957624E+02  0.69564971388E+02  0.35249483026E+02  0.90709846606E+02  0.00000000000E+00 0.  1.
<mgrwt>
<rscale>  2 0.18027107E+03</rscale>
<asrwt>0</asrwt>
<pdfrwt beam="1">  1       21 0.28244035E-01 0.18080689E+03</pdfrwt>
<pdfrwt beam="2">  1       21 0.33180510E-01 0.18080689E+03</pdfrwt>
<totfact> 0.10524096E+05</totfact>
</mgrwt>
</event>
<event>
12    1  0.1039378E-001  0.2306577E+03  0.7546771E-02  0.1126227E+00
         21   -1    0    0  503  502  0.00000000000E+00  0.00000000000E+00  0.82332637890E+03  0.82332637890E+03  0.00000000000E+00 0. -1.
         21   -1    0    0  501  503 -0.00000000000E+00 -0.00000000000E+00 -0.27554910431E+03  0.27554910431E+03  0.00000000000E+00 0.  1.
          6    2    1    2  501    0 -0.12317941721E+03 -0.89042810221E+02 -0.20687698657E+03  0.30984035917E+03  0.17349688678E+03 0.  0.
         24    2    3    3    0    0 -0.26618890002E+01 -0.60079409112E+02 -0.58971474233E+02  0.11680802046E+03  0.80931191869E+02 0.  0.
         -6    2    1    2    0  502  0.12317941721E+03  0.89042810221E+02  0.75465426117E+03  0.78903512404E+03  0.17312302619E+03 0.  0.
        -24    2    5    5    0    0  0.13850130880E+03  0.11525371974E+03  0.69152058935E+03  0.71882314033E+03  0.77717109592E+02 0.  0.
          5    1    3    3  501    0 -0.12051752821E+03 -0.28963401108E+02 -0.14790551234E+03  0.19303233872E+03  0.47000000000E+01 0. -1.
        -11    1    4    4    0    0  0.16738825255E+02 -0.44645713722E+02 -0.73842850383E+02  0.87898774606E+02  0.00000000000E+00 0.  1.
         12    1    4    4    0    0 -0.19400714255E+02 -0.15433695390E+02  0.14871376150E+02  0.28909245850E+02  0.00000000000E+00 0. -1.
         -5    1    5    5    0  502 -0.15321891592E+02 -0.26210909517E+02  0.63133671814E+02  0.70211983709E+02  0.47000000000E+01 0.  1.
         13    1    6    6    0    0  0.28576390706E+02  0.98534547695E+01  0.24905093485E+03  0.25087859380E+03  0.00000000000E+00 0. -1.
        -14    1    6    6    0    0  0.10992491810E+03  0.10540026497E+03  0.44246965451E+03  0.46794454654E+03  0.00000000000E+00 0.  1.
<mgrwt>
<rscale>  2 0.23058737E+03</rscale>
<asrwt>0</asrwt>
<pdfrwt beam="1">  1       21 0.12666560E+00 0.23065767E+03</pdfrwt>
<pdfrwt beam="2">  1       21 0.42392170E-01 0.23065767E+03</pdfrwt>
<totfact> 0.23918914E+03</totfact>
</mgrwt>
</event>
<event>
12    1  0.1039378E-001  0.1879509E+03  0.7546771E-02  0.1161040E+00
         21   -1    0    0  503  502  0.00000000000E+00  0.00000000000E+00  0.35064955566E+02  0.35064955566E+02  0.00000000000E+00 0. -1.
         21   -1    0    0  501  503 -0.00000000000E+00 -0.00000000000E+00 -0.18515259690E+04  0.18515259690E+04  0.00000000000E+00 0. -1.
          6    2    1    2  501    0  0.13904174176E+02 -0.61587270320E+02 -0.15473060537E+04  0.15583076193E+04  0.17372476696E+03 0.  0.
         24    2    3    3    0    0 -0.59417690836E+02 -0.34831386218E+02 -0.83563940477E+03  0.84235826186E+03  0.80811750884E+02 0.  0.
         -6    2    1    2    0  502 -0.13904174176E+02  0.61587270320E+02 -0.26915495976E+03  0.32828330528E+03  0.17702886273E+03 0.  0.
        -24    2    5    5    0    0 -0.42585834754E+02  0.65624579110E+01 -0.24397324914E+03  0.26115226787E+03  0.82588991660E+02 0.  0.
          5    1    3    3  501    0  0.73321865012E+02 -0.26755884102E+02 -0.71166664891E+03  0.71594935743E+03  0.47000000000E+01 0. -1.
        -13    1    4    4    0    0 -0.52858218925E+02 -0.14802197079E+02 -0.23408562178E+03  0.24043538565E+03  0.00000000000E+00 0.  1.
         14    1    4    4    0    0 -0.65594719109E+01 -0.20029189139E+02 -0.60155378298E+03  0.60192287622E+03  0.00000000000E+00 0. -1.
         -5    1    5    5    0  502  0.28681660578E+02  0.55024812409E+02 -0.25181710623E+02  0.67131037412E+02  0.47000000000E+01 0.  1.
         11    1    6    6    0    0 -0.50272508690E+02  0.36213505358E+02 -0.14924149640E+03  0.16159135913E+03  0.00000000000E+00 0. -1.
        -12    1    6    6    0    0  0.76866739355E+01 -0.29651047447E+02 -0.94731752744E+02  0.99560908738E+02  0.00000000000E+00 0.  1.
<mgrwt>
<rscale>  2 0.18716883E+03</rscale>
<asrwt>0</asrwt>
<pdfrwt beam="1">  1       21 0.53946079E-02 0.18795089E+03</pdfrwt>
<pdfrwt beam="2">  1       21 0.28485018E+00 0.18795089E+03</pdfrwt>
<totfact> 0.99145579E+03</totfact>
</mgrwt>
</event>
<event>
12    1  0.1039378E-001  0.1925962E+03  0.7546771E-02  0.1156233E+00
         21   -1    0    0  503  502  0.00000000000E+00  0.00000000000E+00  0.84795056199E+03  0.84795056199E+03  0.00000000000E+00 0.  1.
         21   -1    0    0  501  503 -0.00000000000E+00 -0.00000000000E+00 -0.87510104839E+02  0.87510104839E+02  0.00000000000E+00 0.  1.
          6    2    1    2  501    0 -0.19433866647E+02 -0.81238927005E+02  0.49293487260E+02  0.19880432775E+03  0.17353925900E+03 0.  0.
         24    2    3    3    0    0 -0.63542457615E+02 -0.66636887398E+02 -0.10386955768E+02  0.12302416783E+03  0.80925511046E+02 0.  0.
         -6    2    1    2    0  502  0.19433866647E+02  0.81238927005E+02  0.71114696989E+03  0.73665633907E+03  0.17307544795E+03 0.  0.
        -24    2    5    5    0    0 -0.30528137919E+02  0.41783798381E+02  0.60563135404E+03  0.61333341232E+03  0.81918768670E+02 0.  0.
          5    1    3    3  501    0  0.44108590968E+02 -0.14602039607E+02  0.59680443028E+02  0.75780159923E+02  0.47000000000E+01 0. -1.
        -13    1    4    4    0    0 -0.63339423792E+02 -0.17833264638E+02 -0.27485267529E+02  0.71311625035E+02  0.00000000000E+00 0.  1.
         14    1    4    4    0    0 -0.20303382325E+00 -0.48803622760E+02  0.17098311761E+02  0.51712542795E+02  0.00000000000E+00 0. -1.
         -5    1    5    5    0  502  0.49962004566E+02  0.39455128624E+02  0.10551561585E+03  0.12332292675E+03  0.47000000000E+01 0.  1.
         13    1    6    6    0    0 -0.46413384785E+02  0.10605949790E+02  0.17748853223E+03  0.18376307445E+03  0.00000000000E+00 0. -1.
        -14    1    6    6    0    0  0.15885246866E+02  0.31177848591E+02  0.42814282181E+03  0.42957033787E+03  0.00000000000E+00 0.  1.
<mgrwt>
<rscale>  2 0.19249170E+03</rscale>
<asrwt>0</asrwt>
<pdfrwt beam="1">  1       21 0.13045393E+00 0.19259624E+03</pdfrwt>
<pdfrwt beam="2">  1       21 0.13463094E-01 0.19259624E+03</pdfrwt>
<totfact> 0.20449062E+04</totfact>
</mgrwt>
</event>
<event>
12    1  0.1039378E-001  0.2422773E+03  0.7546771E-02  0.1118288E+00
         21   -1    0    0  503  502  0.00000000000E+00  0.00000000000E+00  0.48606236180E+02  0.48606236180E+02  0.00000000000E+00 0. -1.
         21   -1    0    0  501  503 -0.00000000000E+00 -0.00000000000E+00 -0.12879263801E+04  0.12879263801E+04  0.00000000000E+00 0. -1.
          6    2    1    2  501    0 -0.11741782647E+03  0.12121983261E+03 -0.78659887986E+03  0.82305933640E+03  0.17380356627E+03 0.  0.
         24    2    3    3    0    0 -0.64401019450E+02  0.38763230277E+02 -0.61970385250E+03  0.62944654433E+03  0.80746566746E+02 0.  0.
         -6    2    1    2    0  502  0.11741782647E+03 -0.12121983261E+03 -0.45272126408E+03  0.51347327990E+03  0.17383058542E+03 0.  0.
        -24    2    5    5    0    0  0.14465321105E+03 -0.62596502922E+02 -0.36147154362E+03  0.40154891954E+03  0.75742882787E+02 0.  0.
          5    1    3    3  501    0 -0.53016807022E+02  0.82456602334E+02 -0.16689502736E+03  0.19361279207E+03  0.47000000000E+01 0. -1.
        -13    1    4    4    0    0  0.98616487342E+01 -0.40695314772E+01 -0.13479413915E+02  0.17190340360E+02  0.00000000000E+00 0.  1.
         14    1    4    4    0    0 -0.74262668184E+02  0.42832761754E+02 -0.60622443858E+03  0.61225620397E+03  0.00000000000E+00 0. -1.
         -5    1    5    5    0  502 -0.27235384581E+02 -0.58623329689E+02 -0.91249720466E+02  0.11192436036E+03  0.47000000000E+01 0.  1.
         13    1    6    6    0    0  0.50694296754E+02  0.15157682328E+02 -0.10915442778E+03  0.12130274590E+03  0.00000000000E+00 0. -1.
        -14    1    6    6    0    0  0.93958914299E+02 -0.77754185250E+02 -0.25231711583E+03  0.28024617364E+03  0.00000000000E+00 0.  1.
<mgrwt>
<rscale>  2 0.24227240E+03</rscale>
<asrwt>0</asrwt>
<pdfrwt beam="1">  1       21 0.74778835E-02 0.24227725E+03</pdfrwt>
<pdfrwt beam="2">  1       21 0.19814249E+00 0.24227725E+03</pdfrwt>
<totfact> 0.17981243E+04</totfact>
</mgrwt>
</event>
<event>
12    1  0.1039378E-001  0.2031425E+03  0.7546771E-02  0.1147187E+00
         21   -1    0    0  503  502  0.00000000000E+00  0.00000000000E+00  0.21651586387E+04  0.21651586387E+04  0.00000000000E+00 0.  1.
         21   -1    0    0  501  503 -0.00000000000E+00 -0.00000000000E+00 -0.33561378890E+02  0.33561378890E+02  0.00000000000E+00 0.  1.
          6    2    1    2  501    0 -0.14000253261E+01 -0.10788963260E+03  0.34180580842E+03  0.39743705101E+03  0.17170575399E+03 0.  0.
         24    2    3    3    0    0  0.90987535684E+00 -0.11056215166E+03  0.35644226980E+03  0.38166384585E+03  0.79946121067E+02 0.  0.
         -6    2    1    2    0  502  0.14000253261E+01  0.10788963260E+03  0.17897914514E+04  0.18012829666E+04  0.17211842820E+03 0.  0.
        -24    2    5    5    0    0 -0.63100492053E+02  0.44529614154E+02  0.10743323388E+04  0.10801181862E+04  0.80627311271E+02 0.  0.
          5    1    3    3  501    0 -0.23099006830E+01  0.26725190660E+01 -0.14636461381E+02  0.15773205162E+02  0.47000000000E+01 0. -1.
        -13    1    4    4    0    0  0.36040183507E+02 -0.49953991027E+02  0.21758758540E+03  0.22613857116E+03  0.00000000000E+00 0.  1.
         14    1    4    4    0    0 -0.35130308150E+02 -0.60608160637E+02  0.13885468440E+03  0.15552527469E+03  0.00000000000E+00 0. -1.
         -5    1    5    5    0  502  0.64500517379E+02  0.63360018443E+02  0.71545911258E+03  0.72116478037E+03  0.47000000000E+01 0.  1.
         11    1    6    6    0    0  0.19295947928E+02  0.54940491886E+01  0.16063649120E+03  0.16188452825E+03  0.00000000000E+00 0. -1.
        -12    1    6    6    0    0 -0.82396439981E+02  0.39035564966E+02  0.91369584761E+03  0.91823365795E+03  0.00000000000E+00 0.  1.
<mgrwt>
<rscale>  2 0.20305509E+03</rscale>
<asrwt>0</asrwt>
<pdfrwt beam="1">  1       21 0.33310122E+00 0.20314253E+03</pdfrwt>
<pdfrwt beam="2">  1       21 0.51632908E-02 0.20314253E+03</pdfrwt>
<totfact> 0.55259151E+03</totfact>
</mgrwt>
</event>
<event>
12    1  0.1039378E-001  0.1872615E+03  0.7546771E-02  0.1162364E+00
         21   -1    0    0  501  502  0.00000000000E+00  0.00000000000E+00  0.10018865019E+04  0.10018865019E+04  0.00000000000E+00 0. -1.
         21   -1    0    0  502  503 -0.00000000000E+00 -0.00000000000E+00 -0.38674063625E+02  0.38674063625E+02  0.00000000000E+00 0. -1.
         -6    2    1    2    0  503  0.18750014561E+02  0.67257992216E+02  0.30541081727E+03  0.35824939203E+03  0.17375747184E+03 0.  0.
        -24    2    3    3    0    0  0.54087345252E+02 -0.13131677606E+02  0.13288860934E+03  0.16460738165E+03  0.79613602654E+02 0.  0.
          6    2    1    2  501    0 -0.18750014561E+02 -0.67257992216E+02  0.65780162101E+03  0.68231117350E+03  0.16724342833E+03 0.  0.
         24    2    5    5    0    0  0.31680506754E+02 -0.66080612049E+02  0.26981170961E+03  0.29102753591E+03  0.80798305768E+02 0.  0.
          5    1    5    5  501    0 -0.50430521315E+02 -0.11773801668E+01  0.38798991139E+03  0.39128363759E+03  0.47000000000E+01 0. -1.
        -13    1    6    6    0    0  0.50295272398E+02 -0.47683337409E+02  0.24623320362E+03  0.25580091019E+03  0.00000000000E+00 0.  1.
         14    1    6    6    0    0 -0.18614765644E+02 -0.18397274640E+02  0.23578505993E+02  0.35226625712E+02  0.00000000000E+00 0. -1.
         -5    1    3    3    0  503 -0.35337330691E+02  0.80389669822E+02  0.17252220793E+03  0.19364201038E+03  0.47000000000E+01 0.  1.
         13    1    4    4    0    0  0.72785365043E+02 -0.24263407872E+01  0.11708998720E+03  0.13789003444E+03  0.00000000000E+00 0. -1.
        -14    1    4    4    0    0 -0.18698019791E+02 -0.10705336818E+02  0.15798622135E+02  0.26717347208E+02  0.00000000000E+00 0.  1.
<mgrwt>
<rscale>  2 0.18573593E+03</rscale>
<asrwt>0</asrwt>
<pdfrwt beam="1">  1       21 0.15413637E+00 0.18726147E+03</pdfrwt>
<pdfrwt beam="2">  1       21 0.59498567E-02 0.18726147E+03</pdfrwt>
<totfact> 0.55808496E+04</totfact>
</mgrwt>
</event>
<event>
12    1  0.1039378E-001  0.2289019E+03  0.7546771E-02  0.1127540E+00
         21   -1    0    0  503  502  0.00000000000E+00  0.00000000000E+00  0.50618846576E+03  0.50618846576E+03  0.00000000000E+00 0. -1.
         21   -1    0    0  501  503 -0.00000000000E+00 -0.00000000000E+00 -0.11488260773E+03  0.11488260773E+03  0.00000000000E+00 0. -1.
          6    2    1    2  501    0  0.24883075093E+02 -0.14783303760E+03  0.29497797460E+03  0.37337390729E+03  0.17298061947E+03 0.  0.
         24    2    3    3    0    0  0.20292937174E+02 -0.64363981389E+02  0.52118701436E+02  0.11648702699E+03  0.79362100635E+02 0.  0.
         -6    2    1    2    0  502 -0.24883075093E+02  0.14783303760E+03  0.96327883428E+02  0.24769716620E+03  0.17204955851E+03 0.  0.
        -24    2    5    5    0    0  0.48809265936E+02  0.78236566558E+02  0.10679315928E+02  0.11491163603E+03  0.67729842150E+02 0.  0.
          5    1    3    3  501    0  0.45901379184E+01 -0.83469056216E+02  0.24285927317E+03  0.25688688031E+03  0.47000000000E+01 0. -1.
        -13    1    4    4    0    0 -0.30551857388E+02 -0.28423192207E+02  0.24316802544E+02  0.48297005405E+02  0.00000000000E+00 0.  1.
         14    1    4    4    0    0  0.50844794563E+02 -0.35940789182E+02  0.27801898892E+02  0.68190021581E+02  0.00000000000E+00 0. -1.
         -5    1    5    5    0  502 -0.73692341029E+02  0.69596471046E+02  0.85648567500E+02  0.13278553017E+03  0.47000000000E+01 0.  1.
         13    1    6    6    0    0  0.12869979310E+02  0.40867631973E+01 -0.22370782602E+02  0.26130249044E+02  0.00000000000E+00 0. -1.
        -14    1    6    6    0    0  0.35939286626E+02  0.74149803361E+02  0.33050098530E+02  0.88781386983E+02  0.00000000000E+00 0.  1.
<mgrwt>
<rscale>  2 0.22872598E+03</rscale>
<asrwt>0</asrwt>
<pdfrwt beam="1">  1       21 0.77875148E-01 0.22890188E+03</pdfrwt>
<pdfrwt beam="2">  1       21 0.17674248E-01 0.22890188E+03</pdfrwt>
<totfact> 0.41682036E+04</totfact>
</mgrwt>
</event>
<event>
12    1  0.1039378E-001  0.1994232E+03  0.7546771E-02  0.1151855E+00
         21   -1    0    0  501  502  0.00000000000E+00  0.00000000000E+00  0.41600145032E+03  0.41600145032E+03  0.00000000000E+00 0.  1.
         21   -1    0    0  502  503 -0.00000000000E+00 -0.00000000000E+00 -0.24818935986E+03  0.24818935986E+03  0.00000000000E+00 0.  1.
         -6    2    1    2    0  503 -0.25763134187E+02 -0.82801911626E+02 -0.18010643032E+03  0.26317097371E+03  0.17117458780E+03 0.  0.
        -24    2    3    3    0    0 -0.59451279889E+01  0.13719932627E+02 -0.33197677970E+02  0.86214789009E+02  0.78149362910E+02 0.  0.
          6    2    1    2  501    0  0.25763134187E+02  0.82801911626E+02  0.34791852078E+03  0.40101983647E+03  0.17958206060E+03 0.  0.
         24    2    5    5    0    0  0.71605367071E+02  0.42379199287E+02  0.30346641764E+03  0.32529939364E+03  0.82489415945E+02 0.  0.
          5    1    5    5  501    0 -0.45842232884E+02  0.40422712340E+02  0.44452103135E+02  0.75720442826E+02  0.47000000000E+01 0. -1.
        -13    1    6    6    0    0  0.20450419613E+02  0.41568637638E+02  0.56379440062E+02  0.72971313262E+02  0.00000000000E+00 0.  1.
         14    1    6    6    0    0  0.51154947458E+02  0.81056164867E+00  0.24708697758E+03  0.25232808038E+03  0.00000000000E+00 0. -1.
         -5    1    3    3    0  503 -0.19818006198E+02 -0.96521844254E+02 -0.14690875235E+03  0.17695618470E+03  0.47000000000E+01 0.  1.
         11    1    4    4    0    0 -0.22972773639E+02 -0.23594700302E+02  0.79929396975E+00  0.32940811797E+02  0.00000000000E+00 0. -1.
        -12    1    4    4    0    0  0.17027645650E+02  0.37314632929E+02 -0.33996971940E+02  0.53273977213E+02  0.00000000000E+00 0.  1.
<mgrwt>
<rscale>  2 0.19751185E+03</rscale>
<asrwt>0</asrwt>
<pdfrwt beam="1">  1       21 0.64000223E-01 0.19942320E+03</pdfrwt>
<pdfrwt beam="2">  1       21 0.38182978E-01 0.19942320E+03</pdfrwt>
<totfact> 0.14845732E+04</totfact>
</mgrwt>
</event>
<event>
12    1  0.1039378E-001  0.3052675E+03  0.7546771E-02  0.1083522E+00
         21   -1    0    0  503  502  0.00000000000E+00  0.00000000000E+00  0.30996811234E+03  0.30996811234E+03  0.00000000000E+00 0. -1.
         21   -1    0    0  501  503 -0.00000000000E+00 -0.00000000000E+00 -0.33213622058E+03  0.33213622058E+03  0.00000000000E+00 0. -1.
          6    2    1    2  501    0 -0.11406977338E+03  0.22161265045E+03 -0.12050450576E+03  0.32819135492E+03  0.17625024680E+03 0.  0.
         24    2    3    3    0    0 -0.59218951149E+02  0.12771616844E+03  0.45550272488E+01  0.16239889782E+03  0.80835325731E+02 0.  0.
         -6    2    1    2    0  502  0.11406977338E+03 -0.22161265045E+03  0.98336397520E+02  0.31391297801E+03  0.16354580598E+03 0.  0.
        -24    2    5    5    0    0  0.35255022167E+02 -0.40543024523E+02  0.58610647366E+02  0.11242302872E+03  0.79480035084E+02 0.  0.
          5    1    3    3  501    0 -0.54850822227E+02  0.93896482010E+02 -0.12505953301E+03  0.16579245709E+03  0.47000000000E+01 0. -1.
        -13    1    4    4    0    0  0.27148468770E+01  0.12852595843E+02  0.26962449340E+02  0.29992220457E+02  0.00000000000E+00 0.  1.
         14    1    4    4    0    0 -0.61933798026E+02  0.11486357259E+03 -0.22407422092E+02  0.13240667737E+03  0.00000000000E+00 0. -1.
         -5    1    5    5    0  502  0.78814751209E+02 -0.18106962592E+03  0.39725750154E+02  0.20148994929E+03  0.47000000000E+01 0.  1.
         13    1    6    6    0    0  0.20789927473E+02 -0.46743636936E+02 -0.59439442006E+00  0.51161919267E+02  0.00000000000E+00 0. -1.
        -14    1    6    6    0    0  0.14465094694E+02  0.62006124130E+01  0.59205041786E+02  0.61261109455E+02  0.00000000000E+00 0.  1.
<mgrwt>
<rscale>  2 0.30346289E+03</rscale>
<asrwt>0</asrwt>
<pdfrwt beam="1">  1       21 0.47687402E-01 0.30526747E+03</pdfrwt>
<pdfrwt beam="2">  1       21 0.51097880E-01 0.30526747E+03</pdfrwt>
<totfact> 0.14439745E+04</totfact>
</mgrwt>
</event>
<event>
12    1  0.1039378E-001  0.2316645E+03  0.7546771E-02  0.1125692E+00
         21   -1    0    0  501  502  0.00000000000E+00  0.00000000000E+00  0.82427498738E+03  0.82427498738E+03  0.00000000000E+00 0. -1.
         21   -1    0    0  502  503 -0.00000000000E+00 -0.00000000000E+00 -0.96323341961E+02  0.96323341961E+02  0.00000000000E+00 0.  1.
         -6    2    1    2    0  503 -0.10802450028E+03  0.10662164498E+03  0.10114256533E+03  0.25278100952E+03  0.17501700607E+03 0.  0.
        -24    2    3    3    0    0 -0.89421294312E+02  0.93494365892E+02  0.13945211844E+03  0.20796899564E+03  0.84064531644E+02 0.  0.
          6    2    1    2  501    0  0.10802450028E+03 -0.10662164498E+03  0.62680908009E+03  0.66781731982E+03  0.17335767052E+03 0.  0.
         24    2    5    5    0    0  0.42666444872E+02 -0.32533841205E+02  0.14082384750E+03  0.17186932419E+03  0.82636748669E+02 0.  0.
          5    1    5    5  501    0  0.65358055408E+02 -0.74087803771E+02  0.48598523259E+03  0.49594799563E+03  0.47000000000E+01 0. -1.
        -13    1    6    6    0    0 -0.59145022617E+01 -0.47359488051E+02  0.69283407078E+02  0.84131402828E+02  0.00000000000E+00 0.  1.
         14    1    6    6    0    0  0.48580947134E+02  0.14825646846E+02  0.71540440425E+02  0.87737921363E+02  0.00000000000E+00 0. -1.
         -5    1    3    3    0  503 -0.18603205968E+02  0.13127279084E+02 -0.38309553111E+02  0.44812013880E+02  0.47000000000E+01 0.  1.
         13    1    4    4    0    0 -0.77396569440E+02  0.20463606858E+02  0.66958126056E+02  0.10436655983E+03  0.00000000000E+00 0. -1.
        -14    1    4    4    0    0 -0.12024724872E+02  0.73030759033E+02  0.72493992381E+02  0.10360243580E+03  0.00000000000E+00 0.  1.
<mgrwt>
<rscale>  2 0.23135106E+03</rscale>
<asrwt>0</asrwt>
<pdfrwt beam="1">  1       21 0.12681153E+00 0.23166446E+03</pdfrwt>
<pdfrwt beam="2">  1       21 0.14818976E-01 0.23166446E+03</pdfrwt>
<totfact> 0.18010606E+04</totfact>
</mgrwt>
</event>
<event>
12    1  0.1039378E-001  0.2037287E+03  0.7546771E-02  0.1147312E+00
         21   -1    0    0  503  502  0.00000000000E+00  0.00000000000E+00  0.16617823238E+03  0.16617823238E+03  0.00000000000E+00 0.  1.
         21   -1    0    0  501  503 -0.00000000000E+00 -0.00000000000E+00 -0.27329519976E+03  0.27329519976E+03  0.00000000000E+00 0. -1.
          6    2    1    2  501    0  0.10341044261E+03 -0.26273641937E+02 -0.12291350183E+03  0.23513325490E+03  0.16969353177E+03 0.  0.
         24    2    3    3    0    0  0.99095020977E+02  0.23011573181E+02 -0.13018939972E+03  0.18490692731E+03  0.83017686575E+02 0.  0.
         -6    2    1    2    0  502 -0.10341044261E+03  0.26273641937E+02  0.15796534449E+02  0.20434017724E+03  0.17355504496E+03 0.  0.
        -24    2    5    5    0    0 -0.31312925707E+02 -0.26828308387E+01 -0.55324429732E+02  0.98903889343E+02  0.75719811835E+02 0.  0.
          5    1    3    3  501    0  0.43154216366E+01 -0.49285215118E+02  0.72758978896E+01  0.50226327591E+02  0.47000000000E+01 0. -1.
        -11    1    4    4    0    0  0.84480335824E+02  0.66022830309E+01 -0.43063095301E+02  0.95052340629E+02  0.00000000000E+00 0.  1.
         12    1    4    4    0    0  0.14614685153E+02  0.16409290150E+02 -0.87126304422E+02  0.89854586681E+02  0.00000000000E+00 0. -1.
         -5    1    5    5    0  502 -0.72097516907E+02  0.28956472776E+02  0.71120964181E+02  0.10543628790E+03  0.47000000000E+01 0.  1.
         13    1    6    6    0    0 -0.33409815122E+00  0.32970606076E+02 -0.12866409503E+02  0.35393742104E+02  0.00000000000E+00 0. -1.
        -14    1    6    6    0    0 -0.30978827556E+02 -0.35653436915E+02 -0.42458020229E+02  0.63510147239E+02  0.00000000000E+00 0.  1.
<mgrwt>
<rscale>  2 0.20290384E+03</rscale>
<asrwt>0</asrwt>
<pdfrwt beam="1">  1       21 0.25565882E-01 0.20372869E+03</pdfrwt>
<pdfrwt beam="2">  1       21 0.42045415E-01 0.20372869E+03</pdfrwt>
<totfact> 0.78631813E+04</totfact>
</mgrwt>
</event>
<event>
12    1  0.1039378E-001  0.2169275E+03  0.7546771E-02  0.1136491E+00
         21   -1    0    0  503  502  0.00000000000E+00  0.00000000000E+00  0.33740584914E+02  0.33740584914E+02  0.00000000000E+00 0.  1.
         21   -1    0    0  501  503 -0.00000000000E+00 -0.00000000000E+00 -0.19689453791E+04  0.19689453791E+04  0.00000000000E+00 0.  1.
          6    2    1    2  501    0  0.12250402109E+03  0.42459885604E+02 -0.15106081031E+04  0.15258842519E+04  0.17197625351E+03 0.  0.
         24    2    3    3    0    0  0.78808428409E+02  0.96018085915E+02 -0.11279392742E+04  0.11369944110E+04  0.71267407006E+02 0.  0.
         -6    2    1    2    0  502 -0.12250402109E+03 -0.42459885604E+02 -0.42459669104E+03  0.47680171213E+03  0.17391792772E+03 0.  0.
        -24    2    5    5    0    0  0.43203722241E+01 -0.23349570189E+01 -0.19952919601E+03  0.21532149500E+03  0.80791883928E+02 0.  0.
          5    1    3    3  501    0  0.43695592679E+02 -0.53558200311E+02 -0.38266882895E+03  0.38888984082E+03  0.47000000000E+01 0. -1.
        -13    1    4    4    0    0  0.47594779033E+02  0.75087638184E+02 -0.99138415146E+03  0.99536222159E+03  0.00000000000E+00 0.  1.
         14    1    4    4    0    0  0.31213649376E+02  0.20930447731E+02 -0.13655512273E+03  0.14163218946E+03  0.00000000000E+00 0. -1.
         -5    1    5    5    0  502 -0.12682439331E+03 -0.40124928585E+02 -0.22506749503E+03  0.26148021713E+03  0.47000000000E+01 0.  1.
         13    1    6    6    0    0 -0.25977920540E+02 -0.13266150582E+02 -0.16705527516E+03  0.16958274696E+03  0.00000000000E+00 0. -1.
        -14    1    6    6    0    0  0.30298292764E+02  0.10931193563E+02 -0.32473920845E+02  0.45738748039E+02  0.00000000000E+00 0.  1.
<mgrwt>
<rscale>  2 0.21653802E+03</rscale>
<asrwt>0</asrwt>
<pdfrwt beam="1">  1       21 0.51908584E-02 0.21692746E+03</pdfrwt>
<pdfrwt beam="2">  1       21 0.30291472E+00 0.21692746E+03</pdfrwt>
<totfact> 0.80802567E+03</totfact>
</mgrwt>
</event>
<event>
12    1  0.1039378E-001  0.2098630E+03  0.7546771E-02  0.1141692E+00
         21   -1    0    0  503  502  0.00000000000E+00  0.00000000000E+00  0.23586633424E+04  0.23586633424E+04  0.00000000000E+00 0.  1.
         21   -1    0    0  501  503 -0.00000000000E+00 -0.00000000000E+00 -0.19718751107E+02  0.19718751107E+02  0.00000000000E+00 0. -1.
          6    2    1    2  501    0 -0.11200141066E+02 -0.11787206716E+03  0.89477569595E+03  0.91905714222E+03  0.17327209018E+03 0.  0.
         24    2    3    3    0    0 -0.72040020640E+02 -0.54617430345E+02  0.45921188290E+03  0.47471429569E+03  0.79405798705E+02 0.  0.
         -6    2    1    2    0  502  0.11200141066E+02  0.11787206716E+03  0.14441688953E+04  0.14593249512E+04  0.17316537697E+03 0.  0.
        -24    2    5    5    0    0  0.22592397068E+02 -0.24498793148E+01  0.49613597050E+03  0.50360759197E+03  0.83386372713E+02 0.  0.
          5    1    3    3  501    0  0.60839879574E+02 -0.63254636813E+02  0.43556381305E+03  0.44434284653E+03  0.47000000000E+01 0. -1.
        -13    1    4    4    0    0 -0.22373758484E+01  0.12267464627E+01  0.20896257591E+03  0.20897815410E+03  0.00000000000E+00 0.  1.
         14    1    4    4    0    0 -0.69802644791E+02 -0.55844176808E+02  0.25024930699E+03  0.26573614160E+03  0.00000000000E+00 0. -1.
         -5    1    5    5    0  502 -0.11392256002E+02  0.12032194647E+03  0.94803292480E+03  0.95571735926E+03  0.47000000000E+01 0.  1.
         13    1    6    6    0    0  0.41839983348E+02  0.24796607077E+02  0.36801552484E+03  0.37121541246E+03  0.00000000000E+00 0. -1.
        -14    1    6    6    0    0 -0.19247586281E+02 -0.27246486391E+02  0.12812044566E+03  0.13239217951E+03  0.00000000000E+00 0.  1.
<mgrwt>
<rscale>  2 0.20984099E+03</rscale>
<asrwt>0</asrwt>
<pdfrwt beam="1">  1       21 0.36287106E+00 0.20986301E+03</pdfrwt>
<pdfrwt beam="2">  1       21 0.30336559E-02 0.20986301E+03</pdfrwt>
<totfact> 0.89264651E+03</totfact>
</mgrwt>
</event>
<event>
12    1  0.1039378E-001  0.2240177E+03  0.7546771E-02  0.1131168E+00
         21   -1    0    0  503  502  0.00000000000E+00  0.00000000000E+00  0.13344245079E+04  0.13344245079E+04  0.00000000000E+00 0.  1.
         21   -1    0    0  501  503 -0.00000000000E+00 -0.00000000000E+00 -0.42673185342E+02  0.42673185342E+02  0.00000000000E+00 0. -1.
          6    2    1    2  501    0  0.20896416082E+02  0.13929612816E+03  0.40512215423E+03  0.46293402505E+03  0.17419494876E+03 0.  0.
         24    2    3    3    0    0  0.59591649418E+01  0.34063437585E+01  0.20358935821E+03  0.21936326973E+03  0.81391046825E+02 0.  0.
         -6    2    1    2    0  502 -0.20896416082E+02 -0.13929612816E+03  0.88662916835E+03  0.91416366822E+03  0.17246407915E+03 0.  0.
        -24    2    5    5    0    0 -0.61035042512E+02 -0.11410008963E+03  0.80772835898E+03  0.82200414669E+03  0.80756475940E+02 0.  0.
          5    1    3    3  501    0  0.14937251140E+02  0.13588978440E+03  0.20153279602E+03  0.24357075532E+03  0.47000000000E+01 0. -1.
        -11    1    4    4    0    0 -0.35857271984E+02 -0.78328560414E+01  0.11577781601E+03  0.12145616604E+03  0.00000000000E+00 0.  1.
         12    1    4    4    0    0  0.41816436925E+02  0.11239199800E+02  0.87811542198E+02  0.97907103688E+02  0.00000000000E+00 0. -1.
         -5    1    5    5    0  502  0.40138626430E+02 -0.25196038534E+02  0.78900809377E+02  0.92159521537E+02  0.47000000000E+01 0.  1.
         11    1    6    6    0    0 -0.17620788148E+02  0.94423583430E+01  0.15377052995E+03  0.15506458714E+03  0.00000000000E+00 0. -1.
        -12    1    6    6    0    0 -0.43414254364E+02 -0.12354244797E+03  0.65395782903E+03  0.66693955954E+03  0.00000000000E+00 0.  1.
<mgrwt>
<rscale>  2 0.22368118E+03</rscale>
<asrwt>0</asrwt>
<pdfrwt beam="1">  1       21 0.20529605E+00 0.22401775E+03</pdfrwt>
<pdfrwt beam="2">  1       21 0.65651065E-02 0.22401775E+03</pdfrwt>
<totfact> 0.20510341E+04</totfact>
</mgrwt>
</event>
<event>
12    1  0.1039378E-001  0.2413718E+03  0.7546771E-02  0.1119204E+00
         21   -1    0    0  503  502  0.00000000000E+00  0.00000000000E+00  0.27882544022E+03  0.27882544022E+03  0.00000000000E+00 0.  1.
         21   -1    0    0  501  503 -0.00000000000E+00 -0.00000000000E+00 -0.23024642066E+03  0.23024642066E+03  0.00000000000E+00 0.  1.
          6    2    1    2  501    0  0.98525820639E+02 -0.13282370449E+03 -0.56194613177E+02  0.24594102444E+03  0.17314640956E+03 0.  0.
         24    2    3    3    0    0 -0.10049364361E+02 -0.78541237591E+02 -0.50493211496E+02  0.12432789607E+03  0.81474815784E+02 0.  0.
         -6    2    1    2    0  502 -0.98525820639E+02  0.13282370449E+03  0.10477363274E+03  0.26313083644E+03  0.17581481496E+03 0.  0.
        -24    2    5    5    0    0 -0.91338217242E+02  0.15585251935E+02  0.53642719800E+02  0.13493966413E+03  0.82131611211E+02 0.  0.
          5    1    3    3  501    0  0.10857518500E+03 -0.54282466902E+02 -0.57014016812E+01  0.12161312837E+03  0.47000000000E+01 0. -1.
        -11    1    4    4    0    0  0.79275631780E+01 -0.41333598057E+02 -0.67578247103E+02  0.79612386397E+02  0.00000000000E+00 0.  1.
         12    1    4    4    0    0 -0.17976927539E+02 -0.37207639534E+02  0.17085035607E+02  0.44715509671E+02  0.00000000000E+00 0. -1.
         -5    1    5    5    0  502 -0.71876033970E+01  0.11723845256E+03  0.51130912936E+02  0.12819117231E+03  0.47000000000E+01 0.  1.
         11    1    6    6    0    0  0.52942917854E+01 -0.74092282822E+01  0.32010661377E+02  0.33280754664E+02  0.00000000000E+00 0. -1.
        -12    1    6    6    0    0 -0.96632509027E+02  0.22994480217E+02  0.21632058423E+02  0.10165890946E+03  0.00000000000E+00 0.  1.
<mgrwt>
<rscale>  2 0.24088612E+03</rscale>
<asrwt>0</asrwt>
<pdfrwt beam="1">  1       21 0.42896221E-01 0.24137175E+03</pdfrwt>
<pdfrwt beam="2">  1       21 0.35422526E-01 0.24137175E+03</pdfrwt>
<totfact> 0.39234207E+04</totfact>
</mgrwt>
</event>
<event>
12    1  0.1039378E-001  0.2559438E+03  0.7546771E-02  0.1110452E+00
         21   -1    0    0  503  502  0.00000000000E+00  0.00000000000E+00  0.10535225066E+04  0.10535225066E+04  0.00000000000E+00 0.  1.
         21   -1    0    0  501  503 -0.00000000000E+00 -0.00000000000E+00 -0.92304239599E+02  0.92304239599E+02  0.00000000000E+00 0.  1.
          6    2    1    2  501    0  0.17416536329E+03  0.72235451914E+02  0.14281613782E+03  0.28833665488E+03  0.16489403580E+03 0.  0.
         24    2    3    3    0    0  0.15349727434E+03  0.29769440326E+02  0.15987834931E+03  0.23790114059E+03  0.81167932781E+02 0.  0.
         -6    2    1    2    0  502 -0.17416536329E+03 -0.72235451914E+02  0.81840212920E+03  0.85749009134E+03  0.17307708509E+03 0.  0.
        -24    2    5    5    0    0 -0.12366348184E+02 -0.39456415428E+02  0.31605634904E+03  0.32869262599E+03  0.80233978603E+02 0.  0.
          5    1    3    3  501    0  0.20668088951E+02  0.42466011588E+02 -0.17062211483E+02  0.50435514290E+02  0.47000000000E+01 0. -1.
        -13    1    4    4    0    0  0.96564153136E+02  0.56982313084E+02  0.90249959607E+02  0.14393288326E+03  0.00000000000E+00 0.  1.
         14    1    4    4    0    0  0.56933121201E+02 -0.27212872757E+02  0.69628389701E+02  0.93968257331E+02  0.00000000000E+00 0. -1.
         -5    1    5    5    0  502 -0.16179901510E+03 -0.32779036486E+02  0.50234578016E+03  0.52879746536E+03  0.47000000000E+01 0.  1.
         13    1    6    6    0    0 -0.30276055428E+01 -0.38183796433E+01 -0.41336461039E+01  0.63901055184E+01  0.00000000000E+00 0. -1.
        -14    1    6    6    0    0 -0.93387426409E+01 -0.35638035785E+02  0.32018999515E+03  0.32230252047E+03  0.00000000000E+00 0.  1.
<mgrwt>
<rscale>  2 0.25456744E+03</rscale>
<asrwt>0</asrwt>
<pdfrwt beam="1">  1       21 0.16208038E+00 0.25594377E+03</pdfrwt>
<pdfrwt beam="2">  1       21 0.14200653E-01 0.25594377E+03</pdfrwt>
<totfact> 0.10082861E+04</totfact>
</mgrwt>
</event>
<event>
12    1  0.1039378E-001  0.6309163E+03  0.7546771E-02  0.9843265E-01
         21   -1    0    0  503  502  0.00000000000E+00  0.00000000000E+00  0.17998761416E+04  0.17998761416E+04  0.00000000000E+00 0. -1.
         21   -1    0    0  501  503 -0.00000000000E+00 -0.00000000000E+00 -0.39024001578E+03  0.39024001578E+03  0.00000000000E+00 0.  1.
          6    2    1    2  501    0  0.59128398453E+03  0.13639447127E+03 -0.15995241328E+02  0.63111904471E+03  0.17272868521E+03 0.  0.
         24    2    3    3    0    0  0.12898523305E+03  0.61340134522E+02 -0.51598060108E+02  0.16139259262E+03  0.54638875338E+02 0.  0.
         -6    2    1    2    0  502 -0.59128398453E+03 -0.13639447127E+03  0.14256313672E+04  0.15589971127E+04  0.17270495128E+03 0.  0.
        -24    2    5    5    0    0 -0.33177775037E+03 -0.12626377368E+03  0.94562872082E+03  0.10132217495E+04  0.79910073119E+02 0.  0.
          5    1    3    3  501    0  0.46229875148E+03  0.75054336747E+02  0.35602818779E+02  0.46972645208E+03  0.47000000000E+01 0. -1.
        -13    1    4    4    0    0  0.12839633680E+03  0.62279322262E+02 -0.37901348090E+02  0.14765109370E+03  0.00000000000E+00 0.  1.
         14    1    4    4    0    0  0.58889625051E+00 -0.93918774061E+00 -0.13696712018E+02  0.13741498918E+02  0.00000000000E+00 0. -1.
         -5    1    5    5    0  502 -0.25950623415E+03 -0.10130697591E+02  0.48000264635E+03  0.54577536322E+03  0.47000000000E+01 0.  1.
         13    1    6    6    0    0 -0.98707622265E+02 -0.40591315916E+01  0.30670934477E+03  0.32222708361E+03  0.00000000000E+00 0. -1.
        -14    1    6    6    0    0 -0.23307012811E+03 -0.12220464209E+03  0.63891937605E+03  0.69099466587E+03  0.00000000000E+00 0.  1.
<mgrwt>
<rscale>  2 0.63091469E+03</rscale>
<asrwt>0</asrwt>
<pdfrwt beam="1">  1       21 0.27690402E+00 0.63091632E+03</pdfrwt>
<pdfrwt beam="2">  1       21 0.60036926E-01 0.63091632E+03</pdfrwt>
<totfact> 0.84874909E+01</totfact>
</mgrwt>
</event>
<event>
12    1  0.1039378E-001  0.2272701E+03  0.7546771E-02  0.1129113E+00
         21   -1    0    0  501  502  0.00000000000E+00  0.00000000000E+00  0.17879818794E+03  0.17879818794E+03  0.00000000000E+00 0. -1.
         21   -1    0    0  502  503 -0.00000000000E+00 -0.00000000000E+00 -0.37594959518E+03  0.37594959518E+03  0.00000000000E+00 0.  1.
         -6    2    1    2    0  503  0.96087308613E+02 -0.10449749981E+03 -0.23541480445E+03  0.32721829745E+03  0.17748009942E+03 0.  0.
        -24    2    3    3    0    0  0.71606122359E+02 -0.10628890162E+03 -0.25427824656E+03  0.29590604667E+03  0.80487231362E+02 0.  0.
          6    2    1    2  501    0 -0.96087308613E+02  0.10449749981E+03  0.38263397216E+02  0.22752948567E+03  0.17364642507E+03 0.  0.
         24    2    5    5    0    0 -0.12780479741E+03  0.46709675702E+02  0.21435219609E+02  0.15933337675E+03  0.80073692702E+02 0.  0.
          5    1    5    5  501    0  0.31717488792E+02  0.57787824105E+02  0.16828177607E+02  0.68196108919E+02  0.47000000000E+01 0. -1.
        -11    1    6    6    0    0  0.70108941324E+01 -0.16800946672E+01  0.14186262663E+02  0.15913057625E+02  0.00000000000E+00 0.  1.
         12    1    6    6    0    0 -0.13481569154E+03  0.48389770369E+02  0.72489569453E+01  0.14342031913E+03  0.00000000000E+00 0. -1.
         -5    1    3    3    0  503  0.24481186255E+02  0.17914018087E+01  0.18863442112E+02  0.31312250784E+02  0.47000000000E+01 0.  1.
         11    1    4    4    0    0 -0.17359823412E+02 -0.10327478487E+02 -0.40493368899E+02  0.45251886211E+02  0.00000000000E+00 0. -1.
        -12    1    4    4    0    0  0.88965945771E+02 -0.95961423129E+02 -0.21378487766E+03  0.25065416046E+03  0.00000000000E+00 0.  1.
<mgrwt>
<rscale>  2 0.22652112E+03</rscale>
<asrwt>0</asrwt>
<pdfrwt beam="1">  1       21 0.27507414E-01 0.22727007E+03</pdfrwt>
<pdfrwt beam="2">  1       21 0.57838399E-01 0.22727007E+03</pdfrwt>
<totfact> 0.34721743E+04</totfact>
</mgrwt>
</event>
<event>
12    1  0.1039378E-001  0.2654138E+03  0.7546771E-02  0.1104187E+00
         21   -1    0    0  501  502  0.00000000000E+00  0.00000000000E+00  0.10444824916E+03  0.10444824916E+03  0.00000000000E+00 0.  1.
         21   -1    0    0  502  503 -0.00000000000E+00 -0.00000000000E+00 -0.10347107628E+04  0.10347107628E+04  0.00000000000E+00 0.  1.
         -6    2    1    2    0  503 -0.82681237058E+02  0.18193457732E+03 -0.80423881288E+03  0.84690290971E+03  0.17466566046E+03 0.  0.
        -24    2    3    3    0    0  0.15078770445E+02  0.83772038189E+02 -0.26380961944E+03  0.28897934301E+03  0.81660404587E+02 0.  0.
          6    2    1    2  501    0  0.82681237058E+02 -0.18193457732E+03 -0.12602370075E+03  0.29225610224E+03  0.17203278397E+03 0.  0.
         24    2    5    5    0    0  0.41356881996E+02 -0.14507844819E+03 -0.23076565820E+02  0.17526773032E+03  0.86186435019E+02 0.  0.
          5    1    5    5  501    0  0.41324355061E+02 -0.36856129122E+02 -0.10294713493E+03  0.11698837192E+03  0.47000000000E+01 0. -1.
        -11    1    6    6    0    0  0.55047411972E+02 -0.12941407075E+03 -0.42386022034E+02  0.14688360745E+03  0.00000000000E+00 0.  1.
         12    1    6    6    0    0 -0.13690529976E+02 -0.15664377444E+02  0.19309456214E+02  0.28384122869E+02  0.00000000000E+00 0. -1.
         -5    1    3    3    0  503 -0.97760007502E+02  0.98162539128E+02 -0.54042919344E+03  0.55792356669E+03  0.47000000000E+01 0.  1.
         13    1    4    4    0    0 -0.28540520181E+02  0.45083351297E+02 -0.80145392156E+02  0.96282676221E+02  0.00000000000E+00 0. -1.
        -14    1    4    4    0    0  0.43619290625E+02  0.38688686891E+02 -0.18366422729E+03  0.19269666679E+03  0.00000000000E+00 0.  1.
<mgrwt>
<rscale>  2 0.26498141E+03</rscale>
<asrwt>0</asrwt>
<pdfrwt beam="1">  1       21 0.16068961E-01 0.26541377E+03</pdfrwt>
<pdfrwt beam="2">  1       21 0.15918627E+00 0.26541377E+03</pdfrwt>
<totfact> 0.83953359E+03</totfact>
</mgrwt>
</event>
<event>
12    1  0.1039378E-001  0.1782044E+03  0.7546771E-02  0.1170994E+00
         21   -1    0    0  503  502  0.00000000000E+00  0.00000000000E+00  0.46487584803E+03  0.46487584803E+03  0.00000000000E+00 0. -1.
         21   -1    0    0  501  503 -0.00000000000E+00 -0.00000000000E+00 -0.11315812764E+03  0.11315812764E+03  0.00000000000E+00 0. -1.
          6    2    1    2  501    0 -0.42399258216E+01 -0.37448676998E+01 -0.12167692341E+02  0.17285574496E+03  0.17233413714E+03 0.  0.
         24    2    3    3    0    0 -0.85901805950E+01  0.48793029141E+02 -0.50742296990E+02  0.10736341377E+03  0.80607512160E+02 0.  0.
         -6    2    1    2    0  502  0.42399258216E+01  0.37448676998E+01  0.36388541273E+03  0.40517823072E+03  0.17811458122E+03 0.  0.
        -24    2    5    5    0    0 -0.60026856351E+02  0.24655787084E+02  0.16235972764E+03  0.19257019326E+03  0.80693660548E+02 0.  0.
          5    1    3    3  501    0  0.43502547735E+01 -0.52537896841E+02  0.38574604649E+02  0.65492331191E+02  0.47000000000E+01 0. -1.
        -13    1    4    4    0    0 -0.29696960682E+02  0.22091611705E+02 -0.61403867204E+02  0.71696469153E+02  0.00000000000E+00 0.  1.
         14    1    4    4    0    0  0.21106780087E+02  0.26701417436E+02  0.10661570213E+02  0.35666944614E+02  0.00000000000E+00 0. -1.
         -5    1    5    5    0  502  0.64266782173E+02 -0.20910919384E+02  0.20152568509E+03  0.21260803746E+03  0.47000000000E+01 0.  1.
         11    1    6    6    0    0 -0.22721845077E+02 -0.14466566737E+02  0.66517424485E+01  0.27745440607E+02  0.00000000000E+00 0. -1.
        -12    1    6    6    0    0 -0.37305011274E+02  0.39122353821E+02  0.15570798519E+03  0.16482475265E+03  0.00000000000E+00 0.  1.
<mgrwt>
<rscale>  2 0.17674213E+03</rscale>
<asrwt>0</asrwt>
<pdfrwt beam="1">  1       21 0.71519360E-01 0.17820439E+03</pdfrwt>
<pdfrwt beam="2">  1       21 0.17408943E-01 0.17820439E+03</pdfrwt>
<totfact> 0.53127793E+04</totfact>
</mgrwt>
</event>
<event>
12    1  0.1039378E-001  0.2138737E+03  0.7546771E-02  0.1139118E+00
         21   -1    0    0  501  502  0.00000000000E+00  0.00000000000E+00  0.11552615364E+04  0.11552615364E+04  0.00000000000E+00 0.  1.
         21   -1    0    0  502  503 -0.00000000000E+00 -0.00000000000E+00 -0.10845224310E+03  0.10845224310E+03  0.00000000000E+00 0. -1.
         -6    2    1    2    0  503  0.12475158831E+03  0.80386685743E+01  0.16589911028E+02  0.21152845673E+03  0.16982780656E+03 0.  0.
        -24    2    3    3    0    0  0.15113532283E+03 -0.20147980496E+02  0.15939574968E+02  0.17262985045E+03  0.79367299887E+02 0.  0.
          6    2    1    2  501    0 -0.12475158831E+03 -0.80386685743E+01  0.10302193823E+04  0.10521853227E+04  0.17353500756E+03 0.  0.
         24    2    5    5    0    0 -0.12868558148E+03  0.34469318300E+02  0.93349089947E+03  0.94635104365E+03  0.80168108578E+02 0.  0.
          5    1    5    5  501    0  0.39339931736E+01 -0.42507986875E+02  0.96728482790E+02  0.10583427910E+03  0.47000000000E+01 0. -1.
        -11    1    6    6    0    0 -0.10692385126E+03  0.58235794303E+02  0.67921952558E+03  0.69004585474E+03  0.00000000000E+00 0.  1.
         12    1    6    6    0    0 -0.21761730222E+02 -0.23766476003E+02  0.25427137389E+03  0.25630518891E+03  0.00000000000E+00 0. -1.
         -5    1    3    3    0  503 -0.26383734528E+02  0.28186649070E+02  0.65033606046E+00  0.38898606279E+02  0.47000000000E+01 0.  1.
         13    1    4    4    0    0  0.11151706022E+03  0.47899628956E+00 -0.22423642511E+02  0.11375018199E+03  0.00000000000E+00 0. -1.
        -14    1    4    4    0    0  0.39618262611E+02 -0.20626976786E+02  0.38363217479E+02  0.58879668468E+02  0.00000000000E+00 0.  1.
<mgrwt>
<rscale>  2 0.21312056E+03</rscale>
<asrwt>0</asrwt>
<pdfrwt beam="1">  1       21 0.17773254E+00 0.21387374E+03</pdfrwt>
<pdfrwt beam="2">  1       21 0.16684961E-01 0.21387374E+03</pdfrwt>
<totfact> 0.59810156E+03</totfact>
</mgrwt>
</event>
<event>
12    1  0.1039378E-001  0.2548833E+03  0.7546771E-02  0.1110265E+00
         21   -1    0    0  503  502  0.00000000000E+00  0.00000000000E+00  0.23590923662E+03  0.23590923662E+03  0.00000000000E+00 0. -1.
         21   -1    0    0  501  503 -0.00000000000E+00 -0.00000000000E+00 -0.31198774826E+03  0.31198774826E+03  0.00000000000E+00 0.  1.
          6    2    1    2  501    0 -0.16734398950E+03  0.81852509933E+02  0.55862194724E+02  0.26093305881E+03  0.17395870824E+03 0.  0.
         24    2    3    3    0    0 -0.16609838059E+03  0.53682308345E+02  0.92380524505E+02  0.21455644607E+03  0.83844170808E+02 0.  0.
         -6    2    1    2    0  502  0.16734398950E+03 -0.81852509933E+02 -0.13194070636E+03  0.28696392608E+03  0.17388530896E+03 0.  0.
        -24    2    5    5    0    0  0.13708639959E+03 -0.71147299300E+02 -0.16632747010E+03  0.23969170588E+03  0.77023810663E+02 0.  0.
          5    1    3    3  501    0 -0.12456089165E+01  0.28170201589E+02 -0.36518329781E+02  0.46376612738E+02  0.47000000000E+01 0. -1.
        -11    1    4    4    0    0 -0.11145395626E+03  0.55519879508E+02  0.23669652013E+02  0.12674657318E+03  0.00000000000E+00 0.  1.
         12    1    4    4    0    0 -0.54644424326E+02 -0.18375711630E+01  0.68710872492E+02  0.87809872886E+02  0.00000000000E+00 0. -1.
         -5    1    5    5    0  502  0.30257589909E+02 -0.10705210634E+02  0.34386763738E+02  0.47272220196E+02  0.47000000000E+01 0.  1.
         11    1    6    6    0    0 -0.10068354108E+02 -0.44391052097E+01 -0.97850336004E+01  0.14724954739E+02  0.00000000000E+00 0. -1.
        -12    1    6    6    0    0  0.14715475370E+03 -0.66708194090E+02 -0.15654243650E+03  0.22496675114E+03  0.00000000000E+00 0.  1.
<mgrwt>
<rscale>  2 0.25487074E+03</rscale>
<asrwt>0</asrwt>
<pdfrwt beam="1">  1       21 0.36293729E-01 0.25488326E+03</pdfrwt>
<pdfrwt beam="2">  1       21 0.47998115E-01 0.25488326E+03</pdfrwt>
<totfact> 0.29445255E+04</totfact>
</mgrwt>
</event>
<event>
12    1  0.1039378E-001  0.1812288E+03  0.7546771E-02  0.1168710E+00
         21   -1    0    0  503  502  0.00000000000E+00  0.00000000000E+00  0.52869477243E+02  0.52869477243E+02  0.00000000000E+00 0. -1.
         21   -1    0    0  501  503 -0.00000000000E+00 -0.00000000000E+00 -0.94070128589E+03  0.94070128589E+03  0.00000000000E+00 0. -1.
          6    2    1    2  501    0  0.25504889690E+02  0.47418734265E+02 -0.75284210547E+03  0.77434818297E+03  0.17304576542E+03 0.  0.
         24    2    3    3    0    0  0.22355860926E+02  0.97336098705E+02 -0.63139011382E+03  0.64291631495E+03  0.68657203284E+02 0.  0.
         -6    2    1    2    0  502 -0.25504889690E+02 -0.47418734265E+02 -0.13498970317E+03  0.21922258017E+03  0.16412581739E+03 0.  0.
        -24    2    5    5    0    0 -0.22070176239E+02  0.18063691228E+02 -0.12656180571E+03  0.15294389007E+03  0.80997242085E+02 0.  0.
          5    1    3    3  501    0  0.31490287644E+01 -0.49917364440E+02 -0.12145199165E+03  0.13143186802E+03  0.47000000000E+01 0. -1.
        -13    1    4    4    0    0  0.80182396360E+01  0.61408223717E+02 -0.19008200299E+03  0.19991605730E+03  0.00000000000E+00 0.  1.
         14    1    4    4    0    0  0.14337621290E+02  0.35927874987E+02 -0.44130811083E+03  0.44300025765E+03  0.00000000000E+00 0. -1.
         -5    1    5    5    0  502 -0.34347134508E+01 -0.65482425493E+02 -0.84278974587E+01  0.66278690093E+02  0.47000000000E+01 0.  1.
         13    1    6    6    0    0 -0.29543443592E+02  0.40899430936E+02 -0.43959587593E+02  0.66918038312E+02  0.00000000000E+00 0. -1.
        -14    1    6    6    0    0  0.74732673529E+01 -0.22835739708E+02 -0.82602218118E+02  0.86025851759E+02  0.00000000000E+00 0.  1.
<mgrwt>
<rscale>  2 0.17906617E+03</rscale>
<asrwt>0</asrwt>
<pdfrwt beam="1">  1       21 0.81337658E-02 0.18122879E+03</pdfrwt>
<pdfrwt beam="2">  1       21 0.14472327E+00 0.18122879E+03</pdfrwt>
<totfact> 0.38531723E+04</totfact>
</mgrwt>
</event>
<event>
12    1  0.1039378E-001  0.2207865E+03  0.7546771E-02  0.1133405E+00
         21   -1    0    0  503  502  0.00000000000E+00  0.00000000000E+00  0.38353426778E+02  0.38353426778E+02  0.00000000000E+00 0.  1.
         21   -1    0    0  501  503 -0.00000000000E+00 -0.00000000000E+00 -0.14305279660E+04  0.14305279660E+04  0.00000000000E+00 0. -1.
          6    2    1    2  501    0  0.11173371080E+03 -0.77873234101E+02 -0.44909543146E+03  0.50043320580E+03  0.17377578713E+03 0.  0.
         24    2    3    3    0    0  0.11765250882E+03 -0.11381646564E+03 -0.34288496669E+03  0.38805126379E+03  0.78850379000E+02 0.  0.
         -6    2    1    2    0  502 -0.11173371080E+03  0.77873234101E+02 -0.94307910779E+03  0.96844818700E+03  0.17304630779E+03 0.  0.
        -24    2    5    5    0    0 -0.11797927113E+03  0.19594173885E+01 -0.63267706761E+03  0.64880239689E+03  0.82105606343E+02 0.  0.
          5    1    3    3  501    0 -0.59187980159E+01  0.35943231536E+02 -0.10621046477E+03  0.11238194201E+03  0.47000000000E+01 0. -1.
        -13    1    4    4    0    0  0.10543583483E+03 -0.12497853696E+03 -0.29358809890E+03  0.33605107021E+03  0.00000000000E+00 0.  1.
         14    1    4    4    0    0  0.12216673989E+02  0.11162071329E+02 -0.49296867783E+02  0.52000193586E+02  0.00000000000E+00 0. -1.
         -5    1    5    5    0  502  0.62455603236E+01  0.75913816712E+02 -0.31040204018E+03  0.31964579011E+03  0.47000000000E+01 0.  1.
         11    1    6    6    0    0 -0.12094045218E+03 -0.75793974121E+00 -0.44673014646E+03  0.46281204738E+03  0.00000000000E+00 0. -1.
        -12    1    6    6    0    0  0.29611810540E+01  0.27173571297E+01 -0.18594692116E+03  0.18599034951E+03  0.00000000000E+00 0.  1.
<mgrwt>
<rscale>  2 0.22064295E+03</rscale>
<asrwt>0</asrwt>
<pdfrwt beam="1">  1       21 0.59005267E-02 0.22078652E+03</pdfrwt>
<pdfrwt beam="2">  1       21 0.22008124E+00 0.22078652E+03</pdfrwt>
<totfact> 0.19949937E+04</totfact>
</mgrwt>
</event>
<event>
12    1  0.1039378E-001  0.1753946E+03  0.7546771E-02  0.1172602E+00
         21   -1    0    0  503  502  0.00000000000E+00  0.00000000000E+00  0.93147222032E+03  0.93147222032E+03  0.00000000000E+00 0. -1.
         21   -1    0    0  501  503 -0.00000000000E+00 -0.00000000000E+00 -0.30543580936E+03  0.30543580936E+03  0.00000000000E+00 0. -1.
          6    2    1    2  501    0 -0.23981076110E+02 -0.90118783442E+01 -0.27115427215E+03  0.32293636431E+03  0.17351354450E+03 0.  0.
         24    2    3    3    0    0 -0.59138270659E+02  0.39264147017E+02 -0.11957281338E+03  0.15994669717E+03  0.79033410257E+02 0.  0.
         -6    2    1    2    0  502  0.23981076110E+02  0.90118783442E+01  0.89719068311E+03  0.91397166538E+03  0.17244354812E+03 0.  0.
        -24    2    5    5    0    0 -0.23631611140E+02  0.60596900988E+02  0.55803776544E+03  0.56759791621E+03  0.80813423221E+02 0.  0.
          5    1    3    3  501    0  0.35157194549E+02 -0.48276025361E+02 -0.15158145876E+03  0.16298966714E+03  0.47000000000E+01 0. -1.
        -13    1    4    4    0    0  0.40002052868E+01  0.40390448283E+02 -0.30548037416E+02  0.50799336067E+02  0.00000000000E+00 0.  1.
         14    1    4    4    0    0 -0.63138475946E+02 -0.11263012663E+01 -0.89024775965E+02  0.10914736110E+03  0.00000000000E+00 0. -1.
         -5    1    5    5    0  502  0.47612687250E+02 -0.51585022644E+02  0.33915291767E+03  0.34637374917E+03  0.47000000000E+01 0.  1.
         11    1    6    6    0    0 -0.14839067623E+01  0.42869051794E+01  0.37075699592E+03  0.37078474828E+03  0.00000000000E+00 0. -1.
        -12    1    6    6    0    0 -0.22147704378E+02  0.56309995809E+02  0.18728076952E+03  0.19681316793E+03  0.00000000000E+00 0.  1.
<mgrwt>
<rscale>  2 0.17512936E+03</rscale>
<asrwt>0</asrwt>
<pdfrwt beam="1">  1       21 0.14330342E+00 0.17539457E+03</pdfrwt>
<pdfrwt beam="2">  1       21 0.46990125E-01 0.17539457E+03</pdfrwt>
<totfact> 0.14861305E+03</totfact>
</mgrwt>
</event>
<event>
12    1  0.1039378E-001  0.1814490E+03  0.7546771E-02  0.1166551E+00
         21   -1    0    0  503  502  0.00000000000E+00  0.00000000000E+00  0.55066683664E+03  0.55066683664E+03  0.00000000000E+00 0.  1.
         21   -1    0    0  501  503 -0.00000000000E+00 -0.00000000000E+00 -0.64707094812E+02  0.64707094812E+02  0.00000000000E+00 0.  1.
          6    2    1    2  501    0  0.12051866212E+02  0.54506359515E+02  0.15610810371E+03  0.23890900760E+03  0.17202204267E+03 0.  0.
         24    2    3    3    0    0  0.44054154289E+02  0.13128548473E+02  0.16159785855E+03  0.18610278546E+03  0.80045309507E+02 0.  0.
         -6    2    1    2    0  502 -0.12051866212E+02 -0.54506359515E+02  0.32985163813E+03  0.37646492385E+03  0.17264861717E+03 0.  0.
        -24    2    5    5    0    0 -0.25700161244E+02  0.31322231340E+02  0.20803458155E+03  0.22675083554E+03  0.80597604402E+02 0.  0.
          5    1    3    3  501    0 -0.32002288078E+02  0.41377811042E+02 -0.54897548404E+01  0.52806222143E+02  0.47000000000E+01 0. -1.
        -11    1    4    4    0    0  0.46040525123E+02 -0.12494770157E+02  0.41328312460E+02  0.63117974030E+02  0.00000000000E+00 0.  1.
         12    1    4    4    0    0 -0.19863708333E+01  0.25623318630E+02  0.12026954609E+03  0.12298481143E+03  0.00000000000E+00 0. -1.
         -5    1    5    5    0  502  0.13648295033E+02 -0.85828590855E+02  0.12181705658E+03  0.14971408831E+03  0.47000000000E+01 0.  1.
         11    1    6    6    0    0  0.24164166430E+02 -0.76280745217E+01  0.80307198593E+02  0.84210098005E+02  0.00000000000E+00 0. -1.
        -12    1    6    6    0    0 -0.49864327675E+02  0.38950305861E+02  0.12772738296E+03  0.14254073754E+03  0.00000000000E+00 0.  1.
<mgrwt>
<rscale>  2 0.18129978E+03</rscale>
<asrwt>0</asrwt>
<pdfrwt beam="1">  1       21 0.84717972E-01 0.18144899E+03</pdfrwt>
<pdfrwt beam="2">  1       21 0.99549380E-02 0.18144899E+03</pdfrwt>
<totfact> 0.99200133E+04</totfact>
</mgrwt>
</event>
<event>
12    1  0.1039378E-001  0.2567258E+03  0.7546771E-02  0.1109715E+00
         21   -1    0    0  503  502  0.00000000000E+00  0.00000000000E+00  0.11439998310E+04  0.11439998310E+04  0.00000000000E+00 0. -1.
         21   -1    0    0  501  503 -0.00000000000E+00 -0.00000000000E+00 -0.10280349793E+03  0.10280349793E+03  0.00000000000E+00 0. -1.
          6    2    1    2  501    0 -0.99175713576E+02  0.15519137427E+03  0.10554344254E+03  0.27757439992E+03  0.17885173864E+03 0.  0.
         24    2    3    3    0    0 -0.11415503649E+02  0.14418353760E+03  0.83840190381E+02  0.18638148315E+03  0.82399475113E+02 0.  0.
         -6    2    1    2    0  502  0.99175713576E+02 -0.15519137427E+03  0.93565289053E+03  0.96922892901E+03  0.17331532091E+03 0.  0.
        -24    2    5    5    0    0 -0.16872468980E+02 -0.91258381947E+02  0.47599928868E+03  0.49083773775E+03  0.75720469426E+02 0.  0.
          5    1    3    3  501    0 -0.87760209926E+02  0.11007836669E+02  0.21703252159E+02  0.91192916768E+02  0.47000000000E+01 0. -1.
        -13    1    4    4    0    0  0.17563328474E+02  0.42542060641E+02  0.64020378438E+02  0.78847360679E+02  0.00000000000E+00 0.  1.
         14    1    4    4    0    0 -0.28978832124E+02  0.10164147696E+03  0.19819811944E+02  0.10753412247E+03  0.00000000000E+00 0. -1.
         -5    1    5    5    0  502  0.11604818256E+03 -0.63932992326E+02  0.45965360185E+03  0.47839119126E+03  0.47000000000E+01 0.  1.
         11    1    6    6    0    0 -0.11346154673E+02 -0.10364639123E+03  0.38652135949E+03  0.40033744639E+03  0.00000000000E+00 0. -1.
        -12    1    6    6    0    0 -0.55263143071E+01  0.12388009284E+02  0.89477929184E+02  0.90500291353E+02  0.00000000000E+00 0.  1.
<mgrwt>
<rscale>  2 0.25576394E+03</rscale>
<asrwt>0</asrwt>
<pdfrwt beam="1">  1       21 0.17599996E+00 0.25672579E+03</pdfrwt>
<pdfrwt beam="2">  1       21 0.15815924E-01 0.25672579E+03</pdfrwt>
<totfact> 0.65782846E+03</totfact>
</mgrwt>
</event>
<event>
12    1  0.1039378E-001  0.3016879E+03  0.7546771E-02  0.1085408E+00
         21   -1    0    0  503  502  0.00000000000E+00  0.00000000000E+00  0.37230312874E+03  0.37230312874E+03  0.00000000000E+00 0.  1.
         21   -1    0    0  501  503 -0.00000000000E+00 -0.00000000000E+00 -0.25126226553E+03  0.25126226553E+03  0.00000000000E+00 0. -1.
          6    2    1    2  501    0  0.24101606602E+03  0.95128722901E+00  0.13285818930E+03  0.32964660748E+03  0.18145505871E+03 0.  0.
         24    2    3    3    0    0  0.15101115997E+03 -0.21441785194E+02  0.16056339630E+03  0.23273426925E+03  0.71557775720E+02 0.  0.
         -6    2    1    2    0  502 -0.24101606602E+03 -0.95128722901E+00 -0.11817326089E+02  0.29391878680E+03  0.16780630207E+03 0.  0.
        -24    2    5    5    0    0 -0.92202422564E+02  0.43824630753E+02 -0.39215738398E+02  0.13604812358E+03  0.80927948226E+02 0.  0.
          5    1    3    3  501    0  0.90004906051E+02  0.22393072423E+02 -0.27705207000E+02  0.96912338227E+02  0.47000000000E+01 0. -1.
        -11    1    4    4    0    0  0.14628539508E+03  0.11486571075E+00  0.13642112381E+03  0.20002538096E+03  0.00000000000E+00 0.  1.
         12    1    4    4    0    0  0.47257648841E+01 -0.21556650905E+02  0.24142272489E+02  0.32708888287E+02  0.00000000000E+00 0. -1.
         -5    1    5    5    0  502 -0.14881364345E+03 -0.44775917982E+02  0.27398412309E+02  0.15787066322E+03  0.47000000000E+01 0.  1.
         11    1    6    6    0    0 -0.65037052554E+02 -0.92068054342E+01 -0.39142351667E+02  0.76463763740E+02  0.00000000000E+00 0. -1.
        -12    1    6    6    0    0 -0.27165370010E+02  0.53031436188E+02 -0.73386730314E-01  0.59584359840E+02  0.00000000000E+00 0.  1.
<mgrwt>
<rscale>  2 0.29966597E+03</rscale>
<asrwt>0</asrwt>
<pdfrwt beam="1">  1       21 0.57277404E-01 0.30168790E+03</pdfrwt>
<pdfrwt beam="2">  1       21 0.38655733E-01 0.30168790E+03</pdfrwt>
<totfact> 0.17478408E+04</totfact>
</mgrwt>
</event>
<event>
12    1  0.1039378E-001  0.2045377E+03  0.7546771E-02  0.1147093E+00
         21   -1    0    0  503  502  0.00000000000E+00  0.00000000000E+00  0.15960401066E+04  0.15960401066E+04  0.00000000000E+00 0.  1.
         21   -1    0    0  501  503 -0.00000000000E+00 -0.00000000000E+00 -0.26073806360E+02  0.26073806360E+02  0.00000000000E+00 0.  1.
          6    2    1    2  501    0 -0.52973141366E+02  0.81777909066E+02  0.91331505018E+03  0.93593805104E+03  0.17983846746E+03 0.  0.
         24    2    3    3    0    0 -0.79706055523E+02  0.34324674332E+02  0.81347977211E+03  0.82211524606E+03  0.81196672441E+02 0.  0.
         -6    2    1    2    0  502  0.52973141366E+02 -0.81777909066E+02  0.65665125007E+03  0.68617586193E+03  0.17364523939E+03 0.  0.
        -24    2    5    5    0    0  0.31029278718E+02  0.54703685667E+01  0.15506874410E+03  0.17656729121E+03  0.78338699622E+02 0.  0.
          5    1    3    3  501    0  0.26732914157E+02  0.47453234734E+02  0.99835278073E+02  0.11382280498E+03  0.47000000000E+01 0. -1.
        -11    1    4    4    0    0 -0.56746454515E+02  0.32944008520E+02  0.25980376655E+03  0.26796168553E+03  0.00000000000E+00 0.  1.
         12    1    4    4    0    0 -0.22959601008E+02  0.13806658122E+01  0.55367600556E+03  0.55415356053E+03  0.00000000000E+00 0. -1.
         -5    1    5    5    0  502  0.21943862648E+02 -0.87248277633E+02  0.50158250597E+03  0.50960857072E+03  0.47000000000E+01 0.  1.
         11    1    6    6    0    0  0.16007296333E+02 -0.78321769463E+01 -0.22606753304E+01  0.17963495889E+02  0.00000000000E+00 0. -1.
        -12    1    6    6    0    0  0.15021982385E+02  0.13302545513E+02  0.15732941943E+03  0.15860379532E+03  0.00000000000E+00 0.  1.
<mgrwt>
<rscale>  2 0.20316809E+03</rscale>
<asrwt>0</asrwt>
<pdfrwt beam="1">  1       21 0.24554456E+00 0.20453766E+03</pdfrwt>
<pdfrwt beam="2">  1       21 0.40113561E-02 0.20453766E+03</pdfrwt>
<totfact> 0.27282589E+04</totfact>
</mgrwt>
</event>
<event>
12    1  0.1039378E-001  0.1950279E+03  0.7546771E-02  0.1154312E+00
         21   -1    0    0  501  502  0.00000000000E+00  0.00000000000E+00  0.11441065977E+03  0.11441065977E+03  0.00000000000E+00 0.  1.
         21   -1    0    0  502  503 -0.00000000000E+00 -0.00000000000E+00 -0.33674547018E+03  0.33674547018E+03  0.00000000000E+00 0. -1.
         -6    2    1    2    0  503  0.72245368491E+01 -0.88911278864E+02 -0.79755045183E+02  0.21070539946E+03  0.17343151008E+03 0.  0.
        -24    2    3    3    0    0 -0.61976025459E+02 -0.47324737791E+02 -0.34477078776E+02  0.11802129908E+03  0.81606982156E+02 0.  0.
          6    2    1    2  501    0 -0.72245368491E+01  0.88911278864E+02 -0.14257976522E+03  0.24045073049E+03  0.17184340226E+03 0.  0.
         24    2    5    5    0    0 -0.13533971319E+02  0.87185037639E+01 -0.48333865074E+01  0.80867382391E+02  0.79101145517E+02 0.  0.
          5    1    5    5  501    0  0.63094344701E+01  0.80192775100E+02 -0.13774637872E+03  0.15958334810E+03  0.47000000000E+01 0. -1.
        -13    1    6    6    0    0 -0.36830142594E+02 -0.28480432971E+01  0.22406399885E+02  0.43204369107E+02  0.00000000000E+00 0.  1.
         14    1    6    6    0    0  0.23296171275E+02  0.11566547061E+02 -0.27239786392E+02  0.37663013284E+02  0.00000000000E+00 0. -1.
         -5    1    3    3    0  503  0.69200562308E+02 -0.41586541073E+02 -0.45277966407E+02  0.92684100385E+02  0.47000000000E+01 0.  1.
         13    1    4    4    0    0 -0.56573715368E+02 -0.19778124641E+00 -0.41371544375E+02  0.70087296081E+02  0.00000000000E+00 0. -1.
        -14    1    4    4    0    0 -0.54023100907E+01 -0.47126956545E+02  0.68944655996E+01  0.47934002998E+02  0.00000000000E+00 0.  1.
<mgrwt>
<rscale>  2 0.19467426E+03</rscale>
<asrwt>0</asrwt>
<pdfrwt beam="1">  1       21 0.17601640E-01 0.19502794E+03</pdfrwt>
<pdfrwt beam="2">  1       21 0.51806995E-01 0.19502794E+03</pdfrwt>
<totfact> 0.10342565E+05</totfact>
</mgrwt>
</event>
<event>
12    1  0.1039378E-001  0.2592981E+03  0.7546771E-02  0.1107628E+00
         21   -1    0    0  503  502  0.00000000000E+00  0.00000000000E+00  0.20568501163E+03  0.20568501163E+03  0.00000000000E+00 0. -1.
         21   -1    0    0  501  503 -0.00000000000E+00 -0.00000000000E+00 -0.34448981817E+03  0.34448981817E+03  0.00000000000E+00 0. -1.
          6    2    1    2  501    0  0.17869711458E+03 -0.72040109022E+02 -0.13254933554E+03  0.29121270443E+03  0.17353119834E+03 0.  0.
         24    2    3    3    0    0  0.13526188648E+03  0.52925697603E+01 -0.40668381504E+02  0.16341926968E+03  0.82025308426E+02 0.  0.
         -6    2    1    2    0  502 -0.17869711458E+03  0.72040109022E+02 -0.62554709995E+01  0.25896212538E+03  0.17291563086E+03 0.  0.
        -24    2    5    5    0    0 -0.11360618782E+03  0.97026963864E+02 -0.49203691440E+02  0.17693888904E+03  0.81029436469E+02 0.  0.
          5    1    3    3  501    0  0.43435228107E+02 -0.77332678782E+02 -0.91880954038E+02  0.12779343474E+03  0.47000000000E+01 0. -1.
        -11    1    4    4    0    0  0.27083245673E+02  0.23920802056E+02  0.16420621131E+02  0.39690600468E+02  0.00000000000E+00 0.  1.
         12    1    4    4    0    0  0.10817864080E+03 -0.18628232295E+02 -0.57089002634E+02  0.12372866922E+03  0.00000000000E+00 0. -1.
         -5    1    5    5    0  502 -0.65090926760E+02 -0.24986854842E+02  0.42948220440E+02  0.82023236344E+02  0.47000000000E+01 0.  1.
         11    1    6    6    0    0 -0.19832296672E+02  0.76075987717E+01 -0.42118378408E+02  0.47171531140E+02  0.00000000000E+00 0. -1.
        -12    1    6    6    0    0 -0.93773891151E+02  0.89419365092E+02 -0.70853130312E+01  0.12976735790E+03  0.00000000000E+00 0.  1.
<mgrwt>
<rscale>  2 0.25919517E+03</rscale>
<asrwt>0</asrwt>
<pdfrwt beam="1">  1       21 0.31643848E-01 0.25929812E+03</pdfrwt>
<pdfrwt beam="2">  1       21 0.52998433E-01 0.25929812E+03</pdfrwt>
<totfact> 0.31349730E+04</totfact>
</mgrwt>
</event>
<event>
12    1  0.1039378E-001  0.2203473E+03  0.7546771E-02  0.1133656E+00
         21   -1    0    0  501  502  0.00000000000E+00  0.00000000000E+00  0.18196222474E+04  0.18196222474E+04  0.00000000000E+00 0.  1.
         21   -1    0    0  502  503 -0.00000000000E+00 -0.00000000000E+00 -0.30560401165E+02  0.30560401165E+02  0.00000000000E+00 0.  1.
         -6    2    1    2    0  503 -0.43119405287E+02  0.12844944142E+03  0.12252380221E+04  0.12448940326E+04  0.17376535698E+03 0.  0.
        -24    2    3    3    0    0 -0.95653761256E+02  0.93860588017E+02  0.81929275508E+03  0.83407789706E+03  0.80534885683E+02 0.  0.
          6    2    1    2  501    0  0.43119405287E+02 -0.12844944142E+03  0.56382382406E+03  0.60528861597E+03  0.17354671399E+03 0.  0.
         24    2    5    5    0    0  0.63322368936E+02 -0.95244660867E+02  0.53877734867E+03  0.55881138369E+03  0.94381477350E+02 0.  0.
          5    1    5    5  501    0 -0.20202963649E+02 -0.33204780549E+02  0.25046475391E+02  0.46477232286E+02  0.47000000000E+01 0. -1.
        -13    1    6    6    0    0  0.72379805924E+02 -0.39473686040E+02  0.21745094447E+03  0.23255520086E+03  0.00000000000E+00 0.  1.
         14    1    6    6    0    0 -0.90574369887E+01 -0.55770974827E+02  0.32132640420E+03  0.32625618283E+03  0.00000000000E+00 0. -1.
         -5    1    3    3    0  503  0.52534355970E+02  0.34588853398E+02  0.40594526706E+03  0.41081613550E+03  0.47000000000E+01 0.  1.
         11    1    4    4    0    0 -0.57706185194E+02  0.62602985683E+02  0.69840115577E+03  0.70357182434E+03  0.00000000000E+00 0. -1.
        -12    1    4    4    0    0 -0.37947576063E+02  0.31257602335E+02  0.12089159931E+03  0.13050607272E+03  0.00000000000E+00 0.  1.
<mgrwt>
<rscale>  2 0.22030421E+03</rscale>
<asrwt>0</asrwt>
<pdfrwt beam="1">  1       21 0.27994180E+00 0.22034732E+03</pdfrwt>
<pdfrwt beam="2">  1       21 0.47016016E-02 0.22034732E+03</pdfrwt>
<totfact> 0.12950037E+04</totfact>
</mgrwt>
</event>
<event>
12    1  0.1039378E-001  0.1844232E+03  0.7546771E-02  0.1164059E+00
         21   -1    0    0  503  502  0.00000000000E+00  0.00000000000E+00  0.26437827846E+03  0.26437827846E+03  0.00000000000E+00 0. -1.
         21   -1    0    0  501  503 -0.00000000000E+00 -0.00000000000E+00 -0.19457871048E+03  0.19457871048E+03  0.00000000000E+00 0. -1.
          6    2    1    2  501    0 -0.49450664561E+02  0.36329771645E+02 -0.10019559899E+03  0.20813777406E+03  0.17180498945E+03 0.  0.
         24    2    3    3    0    0  0.25559330718E+02  0.10647101667E+02 -0.67711276001E+01  0.85515097594E+02  0.80624708290E+02 0.  0.
         -6    2    1    2    0  502  0.49450664561E+02 -0.36329771645E+02  0.16999516696E+03  0.25081921489E+03  0.17391578776E+03 0.  0.
        -24    2    5    5    0    0 -0.69012479802E+01 -0.78435773659E+02  0.11220227867E+03  0.15965693436E+03  0.81860781440E+02 0.  0.
          5    1    3    3  501    0 -0.75009995280E+02  0.25682669978E+02 -0.93424471388E+02  0.12262267646E+03  0.47000000000E+01 0. -1.
        -13    1    4    4    0    0  0.47275697966E+02 -0.16780230836E+02 -0.59995676305E+01  0.50522891612E+02  0.00000000000E+00 0.  1.
         14    1    4    4    0    0 -0.21716367248E+02  0.27427332503E+02 -0.77155996962E+00  0.34992205982E+02  0.00000000000E+00 0. -1.
         -5    1    5    5    0  502  0.56351912542E+02  0.42106002014E+02  0.57792888293E+02  0.91162280522E+02  0.47000000000E+01 0.  1.
         13    1    6    6    0    0 -0.15660301408E+00 -0.65372192756E+02  0.12441505145E+03  0.14054413235E+03  0.00000000000E+00 0. -1.
        -14    1    6    6    0    0 -0.67446449662E+01 -0.13063580904E+02 -0.12212772782E+02  0.19112802012E+02  0.00000000000E+00 0.  1.
<mgrwt>
<rscale>  2 0.18392389E+03</rscale>
<asrwt>0</asrwt>
<pdfrwt beam="1">  1       21 0.40673581E-01 0.18442321E+03</pdfrwt>
<pdfrwt beam="2">  1       21 0.29935186E-01 0.18442321E+03</pdfrwt>
<totfact> 0.62542283E+04</totfact>
</mgrwt>
</event>
<event>
12    1  0.1039378E-001  0.2022093E+03  0.7546771E-02  0.1148064E+00
         21   -1    0    0  503  502  0.00000000000E+00  0.00000000000E+00  0.15052002988E+04  0.15052002988E+04  0.00000000000E+00 0. -1.
         21   -1    0    0  501  503 -0.00000000000E+00 -0.00000000000E+00 -0.27263353462E+02  0.27263353462E+02  0.00000000000E+00 0. -1.
          6    2    1    2  501    0  0.83172754157E+02  0.62788275812E+02  0.80489989038E+03  0.82970661157E+03  0.17230540658E+03 0.  0.
         24    2    3    3    0    0  0.90918787899E+02  0.91838446538E+02  0.48534325954E+03  0.50870436271E+03  0.80755945950E+02 0.  0.
         -6    2    1    2    0  502 -0.83172754157E+02 -0.62788275812E+02  0.67303705499E+03  0.70275704072E+03  0.17328735177E+03 0.  0.
        -24    2    5    5    0    0 -0.24195307488E+02 -0.88856533980E+02  0.29757766458E+03  0.32177182166E+03  0.80645782412E+02 0.  0.
          5    1    3    3  501    0 -0.77460337424E+01 -0.29050170726E+02  0.31955663084E+03  0.32100224886E+03  0.47000000000E+01 0. -1.
        -11    1    4    4    0    0  0.22118483327E+02  0.11003870269E+02  0.21126664143E+02  0.32506128705E+02  0.00000000000E+00 0.  1.
         12    1    4    4    0    0  0.68800304573E+02  0.80834576269E+02  0.46421659540E+03  0.47619823401E+03  0.00000000000E+00 0. -1.
         -5    1    5    5    0  502 -0.58977446669E+02  0.26068258168E+02  0.37545939041E+03  0.38098521906E+03  0.47000000000E+01 0.  1.
         11    1    6    6    0    0 -0.80363038478E+00 -0.50093471880E+02  0.25413488090E+03  0.25902613659E+03  0.00000000000E+00 0. -1.
        -12    1    6    6    0    0 -0.23391677103E+02 -0.38763062100E+02  0.43442783690E+02  0.62745685077E+02  0.00000000000E+00 0.  1.
<mgrwt>
<rscale>  2 0.20199871E+03</rscale>
<asrwt>0</asrwt>
<pdfrwt beam="1">  1       21 0.23156921E+00 0.20220925E+03</pdfrwt>
<pdfrwt beam="2">  1       21 0.41943633E-02 0.20220925E+03</pdfrwt>
<totfact> 0.30735756E+04</totfact>
</mgrwt>
</event>
<event>
12    1  0.1039378E-001  0.2214294E+03  0.7546771E-02  0.1133590E+00
         21   -1    0    0  503  502  0.00000000000E+00  0.00000000000E+00  0.10430053806E+03  0.10430053806E+03  0.00000000000E+00 0. -1.
         21   -1    0    0  501  503 -0.00000000000E+00 -0.00000000000E+00 -0.64729415009E+03  0.64729415009E+03  0.00000000000E+00 0.  1.
          6    2    1    2  501    0  0.57963859496E+02 -0.11777490687E+03 -0.47106535397E+03  0.51877578649E+03  0.17319067885E+03 0.  0.
         24    2    3    3    0    0  0.94604144969E+00  0.42995511153E+01 -0.18810167990E+03  0.20533721881E+03  0.82229862652E+02 0.  0.
         -6    2    1    2    0  502 -0.57963859496E+02  0.11777490687E+03 -0.71928258061E+02  0.23281890166E+03  0.17832618699E+03 0.  0.
        -24    2    5    5    0    0 -0.56653752426E+02 -0.44287092005E+01 -0.52699683150E+02  0.10901555657E+03  0.76667293171E+02 0.  0.
          5    1    3    3  501    0  0.57017818046E+02 -0.12207445799E+03 -0.28296367407E+03  0.31343856768E+03  0.47000000000E+01 0. -1.
        -13    1    4    4    0    0  0.35608460733E+02  0.64447418008E+01 -0.14766427425E+03  0.15203366424E+03  0.00000000000E+00 0.  1.
         14    1    4    4    0    0 -0.34662419283E+02 -0.21451906856E+01 -0.40437405649E+02  0.53303554565E+02  0.00000000000E+00 0. -1.
         -5    1    5    5    0  502 -0.13101070696E+01  0.12220361607E+03 -0.19228574911E+02  0.12380334509E+03  0.47000000000E+01 0.  1.
         13    1    6    6    0    0 -0.68825941815E+02 -0.12876172458E+02 -0.19538523292E+02  0.72694979031E+02  0.00000000000E+00 0. -1.
        -14    1    6    6    0    0  0.12172189389E+02  0.84474632577E+01 -0.33161159858E+02  0.36320577544E+02  0.00000000000E+00 0.  1.
<mgrwt>
<rscale>  2 0.22039350E+03</rscale>
<asrwt>0</asrwt>
<pdfrwt beam="1">  1       21 0.16046237E-01 0.22142937E+03</pdfrwt>
<pdfrwt beam="2">  1       21 0.99583714E-01 0.22142937E+03</pdfrwt>
<totfact> 0.28297103E+04</totfact>
</mgrwt>
</event>
<event>
12    1  0.1039378E-001  0.1763943E+03  0.7546771E-02  0.1171361E+00
         21   -1    0    0  503  502  0.00000000000E+00  0.00000000000E+00  0.74941361599E+03  0.74941361599E+03  0.00000000000E+00 0.  1.
         21   -1    0    0  501  503 -0.00000000000E+00 -0.00000000000E+00 -0.10581221906E+03  0.10581221906E+03  0.00000000000E+00 0.  1.
          6    2    1    2  501    0  0.27312015419E+02  0.21635357973E+02 -0.11545145278E+02  0.17677167541E+03  0.17291876691E+03 0.  0.
         24    2    3    3    0    0  0.58714904283E+01 -0.53677821765E+02  0.50946611441E+01  0.96579753677E+02  0.79911890847E+02 0.  0.
         -6    2    1    2    0  502 -0.27312015419E+02 -0.21635357973E+02  0.65514654221E+03  0.67845415964E+03  0.17282656062E+03 0.  0.
        -24    2    5    5    0    0  0.45207467709E+02 -0.18468923643E+02  0.15064160827E+03  0.16873225495E+03  0.58248291336E+02 0.  0.
          5    1    3    3  501    0  0.21440524991E+02  0.75313179738E+02 -0.16639806422E+02  0.80191921737E+02  0.47000000000E+01 0. -1.
        -11    1    4    4    0    0 -0.36322864948E+01 -0.37164340937E+02 -0.35633582588E+02  0.51615249205E+02  0.00000000000E+00 0.  1.
         12    1    4    4    0    0  0.95037769231E+01 -0.16513480828E+02  0.40728243732E+02  0.44964504472E+02  0.00000000000E+00 0. -1.
         -5    1    5    5    0  502 -0.72519483128E+02 -0.31664343298E+01  0.50450493395E+03  0.50972190469E+03  0.47000000000E+01 0.  1.
         11    1    6    6    0    0  0.28018682301E+02  0.19241569773E+02  0.78329022472E+02  0.85385715004E+02  0.00000000000E+00 0. -1.
        -12    1    6    6    0    0  0.17188785408E+02 -0.37710493416E+02  0.72312585794E+02  0.83346539950E+02  0.00000000000E+00 0.  1.
<mgrwt>
<rscale>  2 0.17637166E+03</rscale>
<asrwt>0</asrwt>
<pdfrwt beam="1">  1       21 0.11529440E+00 0.17639426E+03</pdfrwt>
<pdfrwt beam="2">  1       21 0.16278803E-01 0.17639426E+03</pdfrwt>
<totfact> 0.19887519E+04</totfact>
</mgrwt>
</event>
<event>
12    1  0.1039378E-001  0.1835358E+03  0.7546771E-02  0.1164793E+00
         21   -1    0    0  501  502  0.00000000000E+00  0.00000000000E+00  0.28234992378E+03  0.28234992378E+03  0.00000000000E+00 0.  1.
         21   -1    0    0  502  503 -0.00000000000E+00 -0.00000000000E+00 -0.16793312868E+03  0.16793312868E+03  0.00000000000E+00 0. -1.
         -6    2    1    2    0  503  0.25962600284E+02  0.43896737048E+02  0.17944100289E+03  0.25556902261E+03  0.17468678159E+03 0.  0.
        -24    2    3    3    0    0  0.46469568183E+02 -0.39522768295E+01  0.30798637116E+02  0.98004093882E+02  0.80505932143E+02 0.  0.
          6    2    1    2  501    0 -0.25962600284E+02 -0.43896737048E+02 -0.65024207799E+02  0.19471402985E+03  0.17630775843E+03 0.  0.
         24    2    5    5    0    0 -0.59328528583E+02 -0.65319539213E+01 -0.94015245823E+02  0.13664525618E+03  0.79186607857E+02 0.  0.
          5    1    5    5  501    0  0.33365928299E+02 -0.37364783127E+02  0.28991038023E+02  0.58068773666E+02  0.47000000000E+01 0. -1.
        -13    1    6    6    0    0 -0.48873151817E+02  0.22139706249E+02 -0.21195234101E+02  0.57688729488E+02  0.00000000000E+00 0.  1.
         14    1    6    6    0    0 -0.10455376765E+02 -0.28671660171E+02 -0.72820011721E+02  0.78956526693E+02  0.00000000000E+00 0. -1.
         -5    1    3    3    0  503 -0.20506967899E+02  0.47849013878E+02  0.14864236578E+03  0.15756492873E+03  0.47000000000E+01 0.  1.
         13    1    4    4    0    0  0.71289492245E+01  0.36155848176E+02  0.12727028180E+02  0.38987748341E+02  0.00000000000E+00 0. -1.
        -14    1    4    4    0    0  0.39340618958E+02 -0.40108125006E+02  0.18071608936E+02  0.59016345541E+02  0.00000000000E+00 0.  1.
<mgrwt>
<rscale>  2 0.18314545E+03</rscale>
<asrwt>0</asrwt>
<pdfrwt beam="1">  1       21 0.43438450E-01 0.18353584E+03</pdfrwt>
<pdfrwt beam="2">  1       21 0.25835866E-01 0.18353584E+03</pdfrwt>
<totfact> 0.72733378E+04</totfact>
</mgrwt>
</event>
<event>
12    1  0.1039378E-001  0.1972358E+03  0.7546771E-02  0.1152273E+00
         21   -1    0    0  503  502  0.00000000000E+00  0.00000000000E+00  0.85640128880E+02  0.85640128880E+02  0.00000000000E+00 0.  1.
         21   -1    0    0  501  503 -0.00000000000E+00 -0.00000000000E+00 -0.63942236287E+03  0.63942236287E+03  0.00000000000E+00 0.  1.
          6    2    1    2  501    0  0.30232542542E+02 -0.89845712519E+02 -0.47258121962E+03  0.51176556038E+03  0.17200209583E+03 0.  0.
         24    2    3    3    0    0  0.75275338922E+02 -0.61992449550E+02 -0.21938744568E+03  0.25304981884E+03  0.79961984956E+02 0.  0.
         -6    2    1    2    0  502 -0.30232542542E+02  0.89845712519E+02 -0.81201014374E+02  0.21329693137E+03  0.17296160704E+03 0.  0.
        -24    2    5    5    0    0 -0.66420343260E+02  0.95653926801E+02 -0.98295102593E+02  0.17258341855E+03  0.81004774271E+02 0.  0.
          5    1    3    3  501    0 -0.45042796380E+02 -0.27853262969E+02 -0.25319377394E+03  0.25871574155E+03  0.47000000000E+01 0. -1.
        -13    1    4    4    0    0  0.80577893593E+02 -0.58492325173E+02 -0.22404361173E+03  0.24517277377E+03  0.00000000000E+00 0.  1.
         14    1    4    4    0    0 -0.53025546711E+01 -0.35001243777E+01  0.46561660486E+01  0.78770450659E+01  0.00000000000E+00 0. -1.
         -5    1    5    5    0  502  0.36187800718E+02 -0.58082142819E+01  0.17094088219E+02  0.40713512818E+02  0.47000000000E+01 0.  1.
         11    1    6    6    0    0 -0.74240041512E+01  0.37485049864E+02 -0.78641041776E+02  0.87433736352E+02  0.00000000000E+00 0. -1.
        -12    1    6    6    0    0 -0.58996339109E+02  0.58168876937E+02 -0.19654060817E+02  0.85149682201E+02  0.00000000000E+00 0.  1.
<mgrwt>
<rscale>  2 0.19702528E+03</rscale>
<asrwt>0</asrwt>
<pdfrwt beam="1">  1       21 0.13175405E-01 0.19723584E+03</pdfrwt>
<pdfrwt beam="2">  1       21 0.98372670E-01 0.19723584E+03</pdfrwt>
<totfact> 0.42243204E+04</totfact>
</mgrwt>
</event>
<event>
12    1  0.1039378E-001  0.1955744E+03  0.7546771E-02  0.1153848E+00
         21   -1    0    0  503  502  0.00000000000E+00  0.00000000000E+00  0.43359843220E+03  0.43359843220E+03  0.00000000000E+00 0. -1.
         21   -1    0    0  501  503 -0.00000000000E+00 -0.00000000000E+00 -0.25485265091E+03  0.25485265091E+03  0.00000000000E+00 0. -1.
          6    2    1    2  501    0 -0.85167534146E+02 -0.32849571834E+02 -0.18964088397E+03  0.27136824829E+03  0.17130224186E+03 0.  0.
         24    2    3    3    0    0 -0.37782188206E+02 -0.85459684060E+02 -0.12412380666E+03  0.17478785516E+03  0.80082604768E+02 0.  0.
         -6    2    1    2    0  502  0.85167534146E+02  0.32849571834E+02  0.36838666525E+03  0.41708283482E+03  0.17296459961E+03 0.  0.
        -24    2    5    5    0    0  0.28084429194E+02  0.82392531230E+02  0.17196944422E+03  0.20657202651E+03  0.74305100929E+02 0.  0.
          5    1    3    3  501    0 -0.47385345940E+02  0.52610112226E+02 -0.65517077312E+02  0.96580393134E+02  0.47000000000E+01 0. -1.
        -13    1    4    4    0    0 -0.37085698522E+02 -0.39976395759E+01 -0.19202154203E+02  0.41952984197E+02  0.00000000000E+00 0.  1.
         14    1    4    4    0    0 -0.69648968429E+00 -0.81462044485E+02 -0.10492165246E+03  0.13283487096E+03  0.00000000000E+00 0. -1.
         -5    1    5    5    0  502  0.57083104953E+02 -0.49542959396E+02  0.19641722103E+03  0.21051080831E+03  0.47000000000E+01 0.  1.
         11    1    6    6    0    0  0.40507283498E+01  0.82563326532E+01  0.10021394288E+03  0.10063503255E+03  0.00000000000E+00 0. -1.
        -12    1    6    6    0    0  0.24033700844E+02  0.74136198577E+02  0.71755501340E+02  0.10593699396E+03  0.00000000000E+00 0.  1.
<mgrwt>
<rscale>  2 0.19520623E+03</rscale>
<asrwt>0</asrwt>
<pdfrwt beam="1">  1       21 0.66707451E-01 0.19557443E+03</pdfrwt>
<pdfrwt beam="2">  1       21 0.39208100E-01 0.19557443E+03</pdfrwt>
<totfact> 0.12892549E+04</totfact>
</mgrwt>
</event>
<event>
12    1  0.1039378E-001  0.1760758E+03  0.7546771E-02  0.1171726E+00
         21   -1    0    0  501  502  0.00000000000E+00  0.00000000000E+00  0.43642315963E+02  0.43642315963E+02  0.00000000000E+00 0. -1.
         21   -1    0    0  502  503 -0.00000000000E+00 -0.00000000000E+00 -0.11837966887E+04  0.11837966887E+04  0.00000000000E+00 0. -1.
         -6    2    1    2    0  503  0.13537866529E+02  0.33677463311E+02 -0.95892133912E+03  0.97495272024E+03  0.17229401242E+03 0.  0.
        -24    2    3    3    0    0  0.64289040056E+02  0.44968018275E+02 -0.80084022011E+03  0.80847482851E+03  0.78302534158E+02 0.  0.
          6    2    1    2  501    0 -0.13537866529E+02 -0.33677463311E+02 -0.18123303366E+03  0.25248628447E+03  0.17200716843E+03 0.  0.
         24    2    5    5    0    0  0.76471541217E+01  0.29008741061E+02 -0.34036927375E+02  0.91033043485E+02  0.78920951317E+02 0.  0.
          5    1    5    5  501    0 -0.21185020651E+02 -0.62686204372E+02 -0.14719610629E+03  0.16145324098E+03  0.47000000000E+01 0. -1.
        -11    1    6    6    0    0  0.32507360157E+02  0.59349601583E+01 -0.44600480018E+02  0.55508152863E+02  0.00000000000E+00 0.  1.
         12    1    6    6    0    0 -0.24860206035E+02  0.23073780903E+02  0.10563552642E+02  0.35524890622E+02  0.00000000000E+00 0. -1.
         -5    1    3    3    0  503 -0.50751173527E+02 -0.11290554964E+02 -0.15808111901E+03  0.16647789173E+03  0.47000000000E+01 0.  1.
         11    1    4    4    0    0  0.44338226819E+02  0.40516502166E+01 -0.63322159599E+03  0.63478491149E+03  0.00000000000E+00 0. -1.
        -12    1    4    4    0    0  0.19950813236E+02  0.40916368058E+02 -0.16761862412E+03  0.17368991702E+03  0.00000000000E+00 0.  1.
<mgrwt>
<rscale>  2 0.17600555E+03</rscale>
<asrwt>0</asrwt>
<pdfrwt beam="1">  1       21 0.67142024E-02 0.17607576E+03</pdfrwt>
<pdfrwt beam="2">  1       21 0.18212257E+00 0.17607576E+03</pdfrwt>
<totfact> 0.28943763E+04</totfact>
</mgrwt>
</event>
<event>
12    1  0.1039378E-001  0.1944748E+03  0.7546771E-02  0.1154892E+00
         21   -1    0    0  501  502  0.00000000000E+00  0.00000000000E+00  0.19558526023E+03  0.19558526023E+03  0.00000000000E+00 0. -1.
         21   -1    0    0  502  503 -0.00000000000E+00 -0.00000000000E+00 -0.19203541255E+03  0.19203541255E+03  0.00000000000E+00 0. -1.
         -6    2    1    2    0  503 -0.36146725584E+02 -0.77581090162E+02 -0.80922729656E+01  0.19279772003E+03  0.17256901416E+03 0.  0.
        -24    2    3    3    0    0 -0.23160834989E+02  0.36757744933E+01  0.44607511542E+02  0.94967925515E+02  0.80493112719E+02 0.  0.
          6    2    1    2  501    0  0.36146725584E+02  0.77581090162E+02  0.11642120643E+02  0.19482295274E+03  0.17462826982E+03 0.  0.
         24    2    5    5    0    0 -0.40931833703E+02  0.94197597208E+01  0.16053557633E+02  0.91727744096E+02  0.79950706318E+02 0.  0.
          5    1    5    5  501    0  0.77078559287E+02  0.68161330441E+02 -0.44114369906E+01  0.10309520865E+03  0.47000000000E+01 0. -1.
        -11    1    6    6    0    0 -0.37476058709E+02  0.38820454585E+02  0.26783764597E+02  0.60239959467E+02  0.00000000000E+00 0.  1.
         12    1    6    6    0    0 -0.34557749935E+01 -0.29400694864E+02 -0.10730206964E+02  0.31487784629E+02  0.00000000000E+00 0. -1.
         -5    1    3    3    0  503 -0.12985890596E+02 -0.81256864655E+02 -0.52699784508E+02  0.97829794517E+02  0.47000000000E+01 0.  1.
         13    1    4    4    0    0 -0.52114045215E+02 -0.16201528573E+01  0.17623646820E+02  0.55037183169E+02  0.00000000000E+00 0. -1.
        -14    1    4    4    0    0  0.28953210227E+02  0.52959273506E+01  0.26983864722E+02  0.39930742346E+02  0.00000000000E+00 0.  1.
<mgrwt>
<rscale>  2 0.19401139E+03</rscale>
<asrwt>0</asrwt>
<pdfrwt beam="1">  1       21 0.30090040E-01 0.19447479E+03</pdfrwt>
<pdfrwt beam="2">  1       21 0.29543910E-01 0.19447479E+03</pdfrwt>
<totfact> 0.11623736E+05</totfact>
</mgrwt>
</event>
<event>
12    1  0.1039378E-001  0.2166907E+03  0.7546771E-02  0.1136387E+00
         21   -1    0    0  503  502  0.00000000000E+00  0.00000000000E+00  0.63460042616E+03  0.63460042616E+03  0.00000000000E+00 0. -1.
         21   -1    0    0  501  503 -0.00000000000E+00 -0.00000000000E+00 -0.80077539954E+02  0.80077539954E+02  0.00000000000E+00 0. -1.
          6    2    1    2  501    0 -0.10475346101E+03  0.77087067218E+02  0.17851892026E+03  0.28070347819E+03  0.17323317883E+03 0.  0.
         24    2    3    3    0    0  0.14344377819E+02  0.43769152943E+02  0.83974868423E+02  0.12496316111E+03  0.80265267599E+02 0.  0.
         -6    2    1    2    0  502  0.10475346101E+03 -0.77087067218E+02  0.37600396595E+03  0.43397448793E+03  0.17331811862E+03 0.  0.
        -24    2    5    5    0    0  0.98400031599E+02 -0.11875262327E+03  0.31537523591E+03  0.35998585683E+03  0.79646255032E+02 0.  0.
          5    1    3    3  501    0 -0.11909783883E+03  0.33317914276E+02  0.94544051837E+02  0.15574031708E+03  0.47000000000E+01 0. -1.
        -11    1    4    4    0    0  0.10718008929E+02  0.33393772763E+02  0.99750492635E+02  0.10573637291E+03  0.00000000000E+00 0.  1.
         12    1    4    4    0    0  0.36263688898E+01  0.10375380180E+02 -0.15775624211E+02  0.19226788199E+02  0.00000000000E+00 0. -1.
         -5    1    5    5    0  502  0.63534294127E+01  0.41665556050E+02  0.60628730032E+02  0.73988631097E+02  0.47000000000E+01 0.  1.
         11    1    6    6    0    0 -0.42882295403E+01 -0.37839071346E+02  0.11121272289E+03  0.11755192029E+03  0.00000000000E+00 0. -1.
        -12    1    6    6    0    0  0.10268826114E+03 -0.80913551922E+02  0.20416251303E+03  0.24243393654E+03  0.00000000000E+00 0.  1.
<mgrwt>
<rscale>  2 0.21667375E+03</rscale>
<asrwt>0</asrwt>
<pdfrwt beam="1">  1       21 0.97630832E-01 0.21669073E+03</pdfrwt>
<pdfrwt beam="2">  1       21 0.12319622E-01 0.21669073E+03</pdfrwt>
<totfact> 0.48052088E+04</totfact>
</mgrwt>
</event>
<event>
12    1  0.1039378E-001  0.2125985E+03  0.7546771E-02  0.1139709E+00
         21   -1    0    0  501  502  0.00000000000E+00  0.00000000000E+00  0.45561757162E+02  0.45561757162E+02  0.00000000000E+00 0.  1.
         21   -1    0    0  502  503 -0.00000000000E+00 -0.00000000000E+00 -0.20808710271E+04  0.20808710271E+04  0.00000000000E+00 0. -1.
         -6    2    1    2    0  503  0.12280400463E+03  0.11512663187E+01 -0.17872334176E+04  0.17997222867E+04  0.17238001997E+03 0.  0.
        -24    2    3    3    0    0  0.10096854340E+03  0.50059169282E+02 -0.15605641446E+04  0.15667634498E+04  0.81772191002E+02 0.  0.
          6    2    1    2  501    0 -0.12280400463E+03 -0.11512663187E+01 -0.24807585234E+03  0.32671049757E+03  0.17353953941E+03 0.  0.
         24    2    5    5    0    0 -0.24439735651E+02  0.60967978309E+02 -0.12366666854E+03  0.15631664504E+03  0.69477000159E+02 0.  0.
          5    1    5    5  501    0 -0.98364268981E+02 -0.62119244628E+02 -0.12440918380E+03  0.17039385253E+03  0.47000000000E+01 0. -1.
        -13    1    6    6    0    0 -0.14324998555E+02  0.49463617475E+02 -0.26433580807E+02  0.57884274476E+02  0.00000000000E+00 0.  1.
         14    1    6    6    0    0 -0.10114737095E+02  0.11504360834E+02 -0.97233087736E+02  0.98432370567E+02  0.00000000000E+00 0. -1.
         -5    1    3    3    0  503  0.21835461228E+02 -0.48907902964E+02 -0.22666927307E+03  0.23295883690E+03  0.47000000000E+01 0.  1.
         11    1    4    4    0    0  0.62773699973E+02  0.68812219836E+02 -0.89295203584E+03  0.89779674610E+03  0.00000000000E+00 0. -1.
        -12    1    4    4    0    0  0.38194843430E+02 -0.18753050554E+02 -0.66761210872E+03  0.66896670372E+03  0.00000000000E+00 0.  1.
<mgrwt>
<rscale>  2 0.21236174E+03</rscale>
<asrwt>0</asrwt>
<pdfrwt beam="1">  1       21 0.70095024E-02 0.21259850E+03</pdfrwt>
<pdfrwt beam="2">  1       21 0.32013394E+00 0.21259850E+03</pdfrwt>
<totfact> 0.38508234E+03</totfact>
</mgrwt>
</event>
<event>
12    1  0.1039378E-001  0.1799469E+03  0.7546771E-02  0.1168031E+00
         21   -1    0    0  501  502  0.00000000000E+00  0.00000000000E+00  0.98420441984E+03  0.98420441984E+03  0.00000000000E+00 0.  1.
         21   -1    0    0  502  503 -0.00000000000E+00 -0.00000000000E+00 -0.35493098830E+02  0.35493098830E+02  0.00000000000E+00 0.  1.
         -6    2    1    2    0  503  0.45402107044E+02 -0.12744918583E+02  0.33218617142E+03  0.37744824319E+03  0.17290384475E+03 0.  0.
        -24    2    3    3    0    0 -0.18662721045E+02 -0.56871944162E+02  0.15631081295E+03  0.18507951314E+03  0.78985066614E+02 0.  0.
          6    2    1    2  501    0 -0.45402107044E+02  0.12744918583E+02  0.61652514958E+03  0.64224927547E+03  0.17365796126E+03 0.  0.
         24    2    5    5    0    0 -0.53061597131E+02  0.71829391491E+02  0.42068943965E+03  0.43749733285E+03  0.80307639981E+02 0.  0.
          5    1    5    5  501    0  0.76594900866E+01 -0.59084472909E+02  0.19583570993E+03  0.20475194263E+03  0.47000000000E+01 0. -1.
        -11    1    6    6    0    0 -0.63031931986E+02  0.19831789488E+02  0.20406931884E+03  0.21450084199E+03  0.00000000000E+00 0.  1.
         12    1    6    6    0    0  0.99703348551E+01  0.51997602003E+02  0.21662012081E+03  0.22299649085E+03  0.00000000000E+00 0. -1.
         -5    1    3    3    0  503  0.64064828089E+02  0.44127025580E+02  0.17587535847E+03  0.19236873005E+03  0.47000000000E+01 0.  1.
         13    1    4    4    0    0  0.87015454374E+01  0.76374323183E+01 -0.21869796778E+01  0.11782620486E+02  0.00000000000E+00 0. -1.
        -14    1    4    4    0    0 -0.27364266482E+02 -0.64509376481E+02  0.15849779263E+03  0.17329689265E+03  0.00000000000E+00 0.  1.
<mgrwt>
<rscale>  2 0.17976467E+03</rscale>
<asrwt>0</asrwt>
<pdfrwt beam="1">  1       21 0.15141604E+00 0.17994686E+03</pdfrwt>
<pdfrwt beam="2">  1       21 0.54604775E-02 0.17994686E+03</pdfrwt>
<totfact> 0.67983334E+04</totfact>
</mgrwt>
</event>
<event>
12    1  0.1039378E-001  0.2664411E+03  0.7546771E-02  0.1103454E+00
         21   -1    0    0  501  502  0.00000000000E+00  0.00000000000E+00  0.92540076290E+02  0.92540076290E+02  0.00000000000E+00 0. -1.
         21   -1    0    0  502  503 -0.00000000000E+00 -0.00000000000E+00 -0.78570417501E+03  0.78570417501E+03  0.00000000000E+00 0.  1.
         -6    2    1    2    0  503 -0.11662564620E+03 -0.16490618219E+03 -0.41773654510E+03  0.49503253792E+03  0.17250449911E+03 0.  0.
        -24    2    3    3    0    0 -0.10316685175E+03 -0.14272637739E+03 -0.23114403186E+03  0.30658642125E+03  0.97741762473E+02 0.  0.
          6    2    1    2  501    0  0.11662564620E+03  0.16490618219E+03 -0.27542755362E+03  0.38321171338E+03  0.17376791908E+03 0.  0.
         24    2    5    5    0    0  0.25107033796E+02  0.14877617372E+03 -0.14725830788E+03  0.22482838363E+03  0.78090203167E+02 0.  0.
          5    1    5    5  501    0  0.91518612407E+02  0.16130008465E+02 -0.12816924573E+03  0.15838332975E+03  0.47000000000E+01 0. -1.
        -11    1    6    6    0    0  0.42554096414E+02  0.10324606830E+03 -0.13373606907E+03  0.17422955522E+03  0.00000000000E+00 0.  1.
         12    1    6    6    0    0 -0.17447062618E+02  0.45530105423E+02 -0.13522238810E+02  0.50598828408E+02  0.00000000000E+00 0. -1.
         -5    1    3    3    0  503 -0.13458794457E+02 -0.22179804800E+02 -0.18659251324E+03  0.18844611667E+03  0.47000000000E+01 0.  1.
         13    1    4    4    0    0 -0.10154552389E+02 -0.97235840474E+02 -0.11729625104E+03  0.15269687002E+03  0.00000000000E+00 0. -1.
        -14    1    4    4    0    0 -0.93012299357E+02 -0.45490536916E+02 -0.11384778082E+03  0.15388955123E+03  0.00000000000E+00 0.  1.
<mgrwt>
<rscale>  2 0.26623534E+03</rscale>
<asrwt>0</asrwt>
<pdfrwt beam="1">  1       21 0.14236934E-01 0.26644114E+03</pdfrwt>
<pdfrwt beam="2">  1       21 0.12087757E+00 0.26644114E+03</pdfrwt>
<totfact> 0.21475080E+04</totfact>
</mgrwt>
</event>
<event>
12    1  0.1039378E-001  0.1977902E+03  0.7546771E-02  0.1154045E+00
         21   -1    0    0  503  502  0.00000000000E+00  0.00000000000E+00  0.44173669222E+03  0.44173669222E+03  0.00000000000E+00 0.  1.
         21   -1    0    0  501  503 -0.00000000000E+00 -0.00000000000E+00 -0.20797370440E+03  0.20797370440E+03  0.00000000000E+00 0.  1.
          6    2    1    2  501    0 -0.35220234683E+02  0.50873713344E+02 -0.13284455054E+03  0.23826167578E+03  0.18786258780E+03 0.  0.
         24    2    3    3    0    0 -0.82555374140E+02  0.59080545735E+02 -0.39492986134E+02  0.13316851662E+03  0.76604550648E+02 0.  0.
         -6    2    1    2    0  502  0.35220234683E+02 -0.50873713344E+02  0.36660753837E+03  0.41144872084E+03  0.17623950481E+03 0.  0.
        -24    2    5    5    0    0  0.12464088415E+02  0.42348849221E+02  0.15202685604E+03  0.17634183538E+03  0.77688476739E+02 0.  0.
          5    1    3    3  501    0  0.47335139457E+02 -0.82068323914E+01 -0.93351564405E+02  0.10509315916E+03  0.47000000000E+01 0. -1.
        -11    1    4    4    0    0 -0.83528761444E+02  0.29248433304E+02 -0.65933645879E+01  0.88746815694E+02  0.00000000000E+00 0.  1.
         12    1    4    4    0    0  0.97338730391E+00  0.29832112431E+02 -0.32899621546E+02  0.44421700922E+02  0.00000000000E+00 0. -1.
         -5    1    5    5    0  502  0.22756146268E+02 -0.93222562565E+02  0.21458068233E+03  0.23510688547E+03  0.47000000000E+01 0.  1.
         13    1    6    6    0    0 -0.19955911311E+02 -0.13844800569E+02  0.46699679147E+02  0.52638169910E+02  0.00000000000E+00 0. -1.
        -14    1    6    6    0    0  0.32419999726E+02  0.56193649789E+02  0.10532717689E+03  0.12370366547E+03  0.00000000000E+00 0.  1.
<mgrwt>
<rscale>  2 0.19497976E+03</rscale>
<asrwt>0</asrwt>
<pdfrwt beam="1">  1       21 0.67959491E-01 0.19779017E+03</pdfrwt>
<pdfrwt beam="2">  1       21 0.31995955E-01 0.19779017E+03</pdfrwt>
<totfact> 0.18518995E+04</totfact>
</mgrwt>
</event>
<event>
12    1  0.1039378E-001  0.3214360E+03  0.7546771E-02  0.1075114E+00
         21   -1    0    0  503  502  0.00000000000E+00  0.00000000000E+00  0.20560946848E+04  0.20560946848E+04  0.00000000000E+00 0. -1.
         21   -1    0    0  501  503 -0.00000000000E+00 -0.00000000000E+00 -0.12478576886E+03  0.12478576886E+03  0.00000000000E+00 0.  1.
          6    2    1    2  501    0  0.26319255100E+03  0.61655672373E+02  0.12130664271E+03  0.34255803563E+03  0.17192720951E+03 0.  0.
         24    2    3    3    0    0  0.24670548960E+03  0.28008748364E+02  0.14546649261E+03  0.29772805642E+03  0.76376740721E+02 0.  0.
         -6    2    1    2    0  502 -0.26319255100E+03 -0.61655672373E+02  0.18100022732E+04  0.18383224180E+04  0.17392338171E+03 0.  0.
        -24    2    5    5    0    0 -0.15862382159E+03 -0.24491863684E+02  0.14677390251E+04  0.14784863597E+04  0.76829043266E+02 0.  0.
          5    1    3    3  501    0  0.16487061401E+02  0.33646924010E+02 -0.24159849897E+02  0.44829979210E+02  0.47000000000E+01 0. -1.
        -11    1    4    4    0    0  0.22116520050E+03  0.25437746101E+02  0.96905240341E+02  0.24279981558E+03  0.00000000000E+00 0.  1.
         12    1    4    4    0    0  0.25540289098E+02  0.25710022628E+01  0.48561252269E+02  0.54928240840E+02  0.00000000000E+00 0. -1.
         -5    1    5    5    0  502 -0.10456872941E+03 -0.37163808689E+02  0.34226324810E+03  0.35983605830E+03  0.47000000000E+01 0.  1.
         11    1    6    6    0    0 -0.95728542076E+02 -0.10475203237E+01  0.54784917564E+03  0.55615085212E+03  0.00000000000E+00 0. -1.
        -12    1    6    6    0    0 -0.62895279514E+02 -0.23444343360E+02  0.91988984945E+03  0.92233550758E+03  0.00000000000E+00 0.  1.
<mgrwt>
<rscale>  2 0.32116671E+03</rscale>
<asrwt>0</asrwt>
<pdfrwt beam="1">  1       21 0.31632223E+00 0.32143597E+03</pdfrwt>
<pdfrwt beam="2">  1       21 0.19197812E-01 0.32143597E+03</pdfrwt>
<totfact> 0.59454272E+02</totfact>
</mgrwt>
</event>
<event>
12    1  0.1039378E-001  0.2687541E+03  0.7546771E-02  0.1102018E+00
         21   -1    0    0  501  502  0.00000000000E+00  0.00000000000E+00  0.26617493562E+03  0.26617493562E+03  0.00000000000E+00 0. -1.
         21   -1    0    0  502  503 -0.00000000000E+00 -0.00000000000E+00 -0.47195789466E+03  0.47195789466E+03  0.00000000000E+00 0. -1.
         -6    2    1    2    0  503  0.15679971594E+03 -0.13224430706E+03 -0.34358205196E+03  0.43611069067E+03  0.17340473008E+03 0.  0.
        -24    2    3    3    0    0  0.73871455731E+02 -0.68802581308E+02 -0.81527447468E+02  0.15398189979E+03  0.82903037364E+02 0.  0.
          6    2    1    2  501    0 -0.15679971594E+03  0.13224430706E+03  0.13779909293E+03  0.30202213961E+03  0.17364928775E+03 0.  0.
         24    2    5    5    0    0 -0.76557822644E+02  0.22798475183E+02  0.12078911215E+03  0.16516973371E+03  0.79436519575E+02 0.  0.
          5    1    5    5  501    0 -0.80241893297E+02  0.10944583188E+03  0.17009980783E+02  0.13685240590E+03  0.47000000000E+01 0. -1.
        -11    1    6    6    0    0 -0.10259851257E+02  0.44465781038E-01 -0.11528537099E+02  0.15432877006E+02  0.00000000000E+00 0.  1.
         12    1    6    6    0    0 -0.66297971386E+02  0.22754009402E+02  0.13231764925E+03  0.14973685671E+03  0.00000000000E+00 0. -1.
         -5    1    3    3    0  503  0.82928260210E+02 -0.63441725751E+02 -0.26205460450E+03  0.28212879088E+03  0.47000000000E+01 0.  1.
         13    1    4    4    0    0  0.89232218173E+02 -0.49595542768E+02 -0.79333958006E+02  0.12929030712E+03  0.00000000000E+00 0. -1.
        -14    1    4    4    0    0 -0.15360762442E+02 -0.19207038539E+02 -0.21934894618E+01  0.24691592663E+02  0.00000000000E+00 0.  1.
<mgrwt>
<rscale>  2 0.26871463E+03</rscale>
<asrwt>0</asrwt>
<pdfrwt beam="1">  1       21 0.40949990E-01 0.26875413E+03</pdfrwt>
<pdfrwt beam="2">  1       21 0.72608907E-01 0.26875413E+03</pdfrwt>
<totfact> 0.93720609E+03</totfact>
</mgrwt>
</event>
<event>
12    1  0.1039378E-001  0.3211741E+03  0.7546771E-02  0.1075188E+00
         21   -1    0    0  501  502  0.00000000000E+00  0.00000000000E+00  0.41283482934E+03  0.41283482934E+03  0.00000000000E+00 0.  1.
         21   -1    0    0  502  503 -0.00000000000E+00 -0.00000000000E+00 -0.28000895831E+03  0.28000895831E+03  0.00000000000E+00 0.  1.
         -6    2    1    2    0  503 -0.25696310960E+03  0.84342023538E+02 -0.48180142693E+02  0.32476776306E+03  0.17323151314E+03 0.  0.
        -24    2    3    3    0    0 -0.86101357328E+02  0.84604133014E+01  0.28284763472E+02  0.12272635880E+03  0.82320768782E+02 0.  0.
          6    2    1    2  501    0  0.25696310960E+03 -0.84342023538E+02  0.18100601372E+03  0.36807602459E+03  0.17196850366E+03 0.  0.
         24    2    5    5    0    0  0.10853625997E+03 -0.89828747220E+02  0.48318589854E+02  0.16885585423E+03  0.79550548882E+02 0.  0.
          5    1    5    5  501    0  0.14842684962E+03  0.54867236818E+01  0.13268742387E+03  0.19922017036E+03  0.47000000000E+01 0. -1.
        -13    1    6    6    0    0  0.71003077492E+02 -0.89056011158E+02  0.61034934992E+02  0.12921947774E+03  0.00000000000E+00 0.  1.
         14    1    6    6    0    0  0.37533182482E+02 -0.77273606121E+00 -0.12716345138E+02  0.39636376499E+02  0.00000000000E+00 0. -1.
         -5    1    3    3    0  503 -0.17086175227E+03  0.75881610236E+02 -0.76464906165E+02  0.20204140426E+03  0.47000000000E+01 0.  1.
         11    1    4    4    0    0 -0.12694452174E+02  0.38149868303E+02  0.10879626619E+02  0.41652465028E+02  0.00000000000E+00 0. -1.
        -12    1    4    4    0    0 -0.73406905154E+02 -0.29689455002E+02  0.17405136853E+02  0.81073893773E+02  0.00000000000E+00 0.  1.
<mgrwt>
<rscale>  2 0.32100405E+03</rscale>
<asrwt>0</asrwt>
<pdfrwt beam="1">  1       21 0.63513051E-01 0.32117406E+03</pdfrwt>
<pdfrwt beam="2">  1       21 0.43078301E-01 0.32117406E+03</pdfrwt>
<totfact> 0.11091831E+04</totfact>
</mgrwt>
</event>
<event>
12    1  0.1039378E-001  0.1991940E+03  0.7546771E-02  0.1150461E+00
         21   -1    0    0  503  502  0.00000000000E+00  0.00000000000E+00  0.80017544661E+03  0.80017544661E+03  0.00000000000E+00 0.  1.
         21   -1    0    0  501  503 -0.00000000000E+00 -0.00000000000E+00 -0.55947315756E+02  0.55947315756E+02  0.00000000000E+00 0.  1.
          6    2    1    2  501    0 -0.91968582755E+02  0.32500166766E+02  0.22740291994E+03  0.30230834206E+03  0.17367718512E+03 0.  0.
         24    2    3    3    0    0  0.21894771578E+01 -0.16691575920E+02  0.54746799954E+02  0.99533112900E+02  0.81401633530E+02 0.  0.
         -6    2    1    2    0  502  0.91968582755E+02 -0.32500166766E+02  0.51682521091E+03  0.55381442030E+03  0.17345786935E+03 0.  0.
        -24    2    5    5    0    0 -0.15890667763E+01  0.31709256924E+02  0.21214141176E+03  0.22865262774E+03  0.79183606122E+02 0.  0.
          5    1    3    3  501    0 -0.94158059913E+02  0.49191742686E+02  0.17265611998E+03  0.20277522916E+03  0.47000000000E+01 0. -1.
        -11    1    4    4    0    0 -0.27778088589E+02 -0.52720519202E+01 -0.77253723677E+01  0.29310375558E+02  0.00000000000E+00 0.  1.
         12    1    4    4    0    0  0.29967565747E+02 -0.11419523999E+02  0.62472172322E+02  0.70222737342E+02  0.00000000000E+00 0. -1.
         -5    1    5    5    0  502  0.93557649531E+02 -0.64209423690E+02  0.30468379915E+03  0.32516179256E+03  0.47000000000E+01 0.  1.
         13    1    6    6    0    0  0.14922219019E+02  0.54715036888E+02  0.14999431564E+03  0.16035804503E+03  0.00000000000E+00 0. -1.
        -14    1    6    6    0    0 -0.16511285795E+02 -0.23005779964E+02  0.62147096122E+02  0.68294582704E+02  0.00000000000E+00 0.  1.
<mgrwt>
<rscale>  2 0.19914617E+03</rscale>
<asrwt>0</asrwt>
<pdfrwt beam="1">  1       21 0.12310391E+00 0.19919399E+03</pdfrwt>
<pdfrwt beam="2">  1       21 0.86072800E-02 0.19919399E+03</pdfrwt>
<totfact> 0.52164009E+04</totfact>
</mgrwt>
</event>
<event>
12    1  0.1039378E-001  0.1774492E+03  0.7546771E-02  0.1170796E+00
         21   -1    0    0  501  502  0.00000000000E+00  0.00000000000E+00  0.23656934521E+03  0.23656934521E+03  0.00000000000E+00 0.  1.
         21   -1    0    0  502  503 -0.00000000000E+00 -0.00000000000E+00 -0.13324844503E+03  0.13324844503E+03  0.00000000000E+00 0.  1.
         -6    2    1    2    0  503 -0.21386329608E+02  0.20683284693E+02  0.31344533715E+02  0.18019623485E+03  0.17493721702E+03 0.  0.
        -24    2    3    3    0    0  0.19017150747E+02 -0.20932052233E+02 -0.40561336866E+02  0.87693144541E+02  0.72422805233E+02 0.  0.
          6    2    1    2  501    0  0.21386329608E+02 -0.20683284693E+02  0.71976366471E+02  0.18962155539E+03  0.17288887639E+03 0.  0.
         24    2    5    5    0    0  0.21255746321E+02 -0.11049501415E+02 -0.28853251878E+02  0.88223681799E+02  0.79856181058E+02 0.  0.
          5    1    5    5  501    0  0.13058328674E+00 -0.96337832778E+01  0.10082961835E+03  0.10139787359E+03  0.47000000000E+01 0. -1.
        -11    1    6    6    0    0  0.37787550258E+02  0.22278242767E+02 -0.52831605110E+01  0.44182924759E+02  0.00000000000E+00 0.  1.
         12    1    6    6    0    0 -0.16531803937E+02 -0.33327744181E+02 -0.23570091367E+02  0.44040757040E+02  0.00000000000E+00 0. -1.
         -5    1    3    3    0  503 -0.40403480354E+02  0.41615336926E+02  0.71905870582E+02  0.92503090307E+02  0.47000000000E+01 0.  1.
         13    1    4    4    0    0  0.16749127880E+02 -0.21179656377E+02 -0.61219212639E+02  0.66909663914E+02  0.00000000000E+00 0. -1.
        -14    1    4    4    0    0  0.22680228668E+01  0.24760414303E+00  0.20657875773E+02  0.20783480627E+02  0.00000000000E+00 0.  1.
<mgrwt>
<rscale>  2 0.17694224E+03</rscale>
<asrwt>0</asrwt>
<pdfrwt beam="1">  1       21 0.36395284E-01 0.17744916E+03</pdfrwt>
<pdfrwt beam="2">  1       21 0.20499761E-01 0.17744916E+03</pdfrwt>
<totfact> 0.16124216E+05</totfact>
</mgrwt>
</event>
<event>
12    1  0.1039378E-001  0.1970334E+03  0.7546771E-02  0.1152498E+00
         21   -1    0    0  503  502  0.00000000000E+00  0.00000000000E+00  0.15427427668E+03  0.15427427668E+03  0.00000000000E+00 0. -1.
         21   -1    0    0  501  503 -0.00000000000E+00 -0.00000000000E+00 -0.38606774255E+03  0.38606774255E+03  0.00000000000E+00 0. -1.
          6    2    1    2  501    0  0.41773038821E+01  0.93366469699E+02 -0.27633462327E+03  0.33938621232E+03  0.17345728456E+03 0.  0.
         24    2    3    3    0    0 -0.62202142704E+02  0.43033025418E+02 -0.14818265622E+03  0.18646563424E+03  0.84204425748E+02 0.  0.
         -6    2    1    2    0  502 -0.41773038821E+01 -0.93366469699E+02  0.44541157391E+02  0.20095580691E+03  0.17223406776E+03 0.  0.
        -24    2    5    5    0    0  0.93031272487E+01 -0.89060104894E+02  0.93349030471E+02  0.14992086520E+03  0.75789008910E+02 0.  0.
          5    1    3    3  501    0  0.66379446586E+02  0.50333444281E+02 -0.12815196704E+03  0.15292057808E+03  0.47000000000E+01 0. -1.
        -11    1    4    4    0    0 -0.39111043285E+02 -0.21052213361E+02 -0.48896541304E+02  0.66058619011E+02  0.00000000000E+00 0.  1.
         12    1    4    4    0    0 -0.23091099419E+02  0.64085238779E+02 -0.99286114917E+02  0.12040701523E+03  0.00000000000E+00 0. -1.
         -5    1    5    5    0  502 -0.13480431131E+02 -0.43063648054E+01 -0.48807873079E+02  0.51034941715E+02  0.47000000000E+01 0.  1.
         11    1    6    6    0    0  0.35668165491E+02 -0.25576064959E+02  0.16693457397E+02  0.46957689979E+02  0.00000000000E+00 0. -1.
        -12    1    6    6    0    0 -0.26365038242E+02 -0.63484039935E+02  0.76655573074E+02  0.10296317522E+03  0.00000000000E+00 0.  1.
<mgrwt>
<rscale>  2 0.19676389E+03</rscale>
<asrwt>0</asrwt>
<pdfrwt beam="1">  1       21 0.23734504E-01 0.19703344E+03</pdfrwt>
<pdfrwt beam="2">  1       21 0.59395037E-01 0.19703344E+03</pdfrwt>
<totfact> 0.44183801E+04</totfact>
</mgrwt>
</event>
<event>
12    1  0.1039378E-001  0.2938928E+03  0.7546771E-02  0.1088541E+00
         21   -1    0    0  501  502  0.00000000000E+00  0.00000000000E+00  0.18008281482E+03  0.18008281482E+03  0.00000000000E+00 0.  1.
         21   -1    0    0  502  503 -0.00000000000E+00 -0.00000000000E+00 -0.93727486858E+03  0.93727486858E+03  0.00000000000E+00 0.  1.
         -6    2    1    2    0  503  0.20647599873E+03 -0.11740333973E+03 -0.77062824222E+03  0.82476714588E+03  0.17308112256E+03 0.  0.
        -24    2    3    3    0    0  0.81242845038E+02 -0.26480067881E+02 -0.18288080469E+03  0.21696822809E+03  0.79550169143E+02 0.  0.
          6    2    1    2  501    0 -0.20647599873E+03  0.11740333973E+03  0.13436188458E+02  0.29259053753E+03  0.17033146878E+03 0.  0.
         24    2    5    5    0    0 -0.18537946509E+03  0.15192990936E+03  0.92856805024E+01  0.25164588637E+03  0.76099834629E+02 0.  0.
          5    1    5    5  501    0 -0.21096533643E+02 -0.34526569628E+02  0.41505079553E+01  0.40944651157E+02  0.47000000000E+01 0. -1.
        -11    1    6    6    0    0 -0.10896957697E+03  0.11926889431E+03  0.33710932832E+02  0.16503292050E+03  0.00000000000E+00 0.  1.
         12    1    6    6    0    0 -0.76409888118E+02  0.32661015048E+02 -0.24425252329E+02  0.86612965874E+02  0.00000000000E+00 0. -1.
         -5    1    3    3    0  503  0.12523315370E+03 -0.90923271846E+02 -0.58774743753E+03  0.60779891779E+03  0.47000000000E+01 0.  1.
         11    1    4    4    0    0  0.91352977693E+01  0.14763163443E+02 -0.92889991640E+02  0.94498440236E+02  0.00000000000E+00 0. -1.
        -12    1    4    4    0    0  0.72107547269E+02 -0.41243231325E+02 -0.89990813054E+02  0.12246978786E+03  0.00000000000E+00 0.  1.
<mgrwt>
<rscale>  2 0.29348921E+03</rscale>
<asrwt>0</asrwt>
<pdfrwt beam="1">  1       21 0.27705049E-01 0.29389276E+03</pdfrwt>
<pdfrwt beam="2">  1       21 0.14419613E+00 0.29389276E+03</pdfrwt>
<totfact> 0.38353999E+03</totfact>
</mgrwt>
</event>
<event>
12    1  0.1039378E-001  0.2184727E+03  0.7546771E-02  0.1135149E+00
         21   -1    0    0  503  502  0.00000000000E+00  0.00000000000E+00  0.42838315228E+02  0.42838315228E+02  0.00000000000E+00 0.  1.
         21   -1    0    0  501  503 -0.00000000000E+00 -0.00000000000E+00 -0.16728713139E+04  0.16728713139E+04  0.00000000000E+00 0. -1.
          6    2    1    2  501    0  0.12263492802E+03  0.49620707124E+02 -0.13114259866E+04  0.13293927505E+04  0.17304746912E+03 0.  0.
         24    2    3    3    0    0  0.49028490969E+02 -0.37529814340E+02 -0.65732806566E+03  0.66540532504E+03  0.82896204991E+02 0.  0.
         -6    2    1    2    0  502 -0.12263492802E+03 -0.49620707124E+02 -0.31860701210E+03  0.38631687867E+03  0.17386420690E+03 0.  0.
        -24    2    5    5    0    0 -0.30644367289E+02 -0.72403635768E+02 -0.11037744633E+03  0.15748731947E+03  0.80235350175E+02 0.  0.
          5    1    3    3  501    0  0.73606437049E+02  0.87150521465E+02 -0.65409792093E+03  0.66398742543E+03  0.47000000000E+01 0. -1.
        -13    1    4    4    0    0  0.48725604265E+02 -0.48404701596E+02 -0.29405674011E+03  0.30197113447E+03  0.00000000000E+00 0.  1.
         14    1    4    4    0    0  0.30288670347E+00  0.10874887256E+02 -0.36327132555E+03  0.36343419057E+03  0.00000000000E+00 0. -1.
         -5    1    5    5    0  502 -0.91990560728E+02  0.22782928644E+02 -0.20822956577E+03  0.22882955920E+03  0.47000000000E+01 0.  1.
         11    1    6    6    0    0 -0.33918520309E+02 -0.31914187001E+02 -0.78806297843E+01  0.47234369666E+02  0.00000000000E+00 0. -1.
        -12    1    6    6    0    0  0.32741530199E+01 -0.40489448767E+02 -0.10249681654E+03  0.11025294981E+03  0.00000000000E+00 0.  1.
<mgrwt>
<rscale>  2 0.21831012E+03</rscale>
<asrwt>0</asrwt>
<pdfrwt beam="1">  1       21 0.65905114E-02 0.21847266E+03</pdfrwt>
<pdfrwt beam="2">  1       21 0.25736476E+00 0.21847266E+03</pdfrwt>
<totfact> 0.98639290E+03</totfact>
</mgrwt>
</event>
<event>
12    1  0.1039378E-001  0.1786633E+03  0.7546771E-02  0.1169158E+00
         21   -1    0    0  501  502  0.00000000000E+00  0.00000000000E+00  0.48460654588E+03  0.48460654588E+03  0.00000000000E+00 0.  1.
         21   -1    0    0  502  503 -0.00000000000E+00 -0.00000000000E+00 -0.67940946861E+02  0.67940946861E+02  0.00000000000E+00 0. -1.
         -6    2    1    2    0  503 -0.15216324358E+02  0.40899189436E+02  0.25766612078E+03  0.31354809053E+03  0.17325211415E+03 0.  0.
        -24    2    3    3    0    0  0.40338435442E+02  0.11458720804E+02  0.65479477796E+02  0.11128373809E+03  0.79611661800E+02 0.  0.
          6    2    1    2  501    0  0.15216324358E+02 -0.40899189436E+02  0.15899947824E+03  0.23899940221E+03  0.17301907395E+03 0.  0.
         24    2    5    5    0    0  0.34522005179E+02 -0.37448836225E+02  0.18392987654E+03  0.20693339203E+03  0.79981529585E+02 0.  0.
          5    1    5    5  501    0 -0.19305680820E+02 -0.34503532111E+01 -0.24930398302E+02  0.32066010178E+02  0.47000000000E+01 0. -1.
        -11    1    6    6    0    0  0.32686278982E+02  0.27340340891E+01  0.15221712776E+03  0.15571102004E+03  0.00000000000E+00 0.  1.
         12    1    6    6    0    0  0.18357261969E+01 -0.40182870314E+02  0.31712748780E+02  0.51222371992E+02  0.00000000000E+00 0. -1.
         -5    1    3    3    0  503 -0.55554759800E+02  0.29440468632E+02  0.19218664298E+03  0.20226435244E+03  0.47000000000E+01 0.  1.
         13    1    4    4    0    0  0.25647653004E+02  0.57541069460E+01 -0.14326957271E+02  0.29936158003E+02  0.00000000000E+00 0. -1.
        -14    1    4    4    0    0  0.14690782438E+02  0.57046138576E+01  0.79806435067E+02  0.81347580087E+02  0.00000000000E+00 0.  1.
<mgrwt>
<rscale>  2 0.17860678E+03</rscale>
<asrwt>0</asrwt>
<pdfrwt beam="1">  1       21 0.74554851E-01 0.17866330E+03</pdfrwt>
<pdfrwt beam="2">  1       21 0.10452454E-01 0.17866330E+03</pdfrwt>
<totfact> 0.12151562E+05</totfact>
</mgrwt>
</event>
<event>
12    1  0.1039378E-001  0.1864038E+03  0.7546771E-02  0.1163000E+00
         21   -1    0    0  501  502  0.00000000000E+00  0.00000000000E+00  0.61762794154E+03  0.61762794154E+03  0.00000000000E+00 0.  1.
         21   -1    0    0  502  503 -0.00000000000E+00 -0.00000000000E+00 -0.14775097186E+03  0.14775097186E+03  0.00000000000E+00 0.  1.
         -6    2    1    2    0  503  0.95497317098E+01  0.68054414173E+02 -0.67554650322E+02  0.19826748946E+03  0.17327367351E+03 0.  0.
        -24    2    3    3    0    0  0.24664538167E+02 -0.88408250559E+01 -0.82834004359E+02  0.11828696777E+03  0.80273500205E+02 0.  0.
          6    2    1    2  501    0 -0.95497317098E+01 -0.68054414173E+02  0.53743162000E+03  0.56711142393E+03  0.16751125429E+03 0.  0.
         24    2    5    5    0    0  0.77260988623E+01 -0.54217695295E+02  0.15733391331E+03  0.18634080303E+03  0.83484630381E+02 0.  0.
          5    1    5    5  501    0 -0.17275830572E+02 -0.13836718878E+02  0.38009770669E+03  0.38077062090E+03  0.47000000000E+01 0. -1.
        -13    1    6    6    0    0  0.22568676041E+02 -0.19908460556E+02  0.14327628235E+03  0.14640281768E+03  0.00000000000E+00 0.  1.
         14    1    6    6    0    0 -0.14842577179E+02 -0.34309234739E+02  0.14057630957E+02  0.39937985350E+02  0.00000000000E+00 0. -1.
         -5    1    3    3    0  503 -0.15114806457E+02  0.76895239229E+02  0.15279354038E+02  0.79980521692E+02  0.47000000000E+01 0.  1.
         13    1    4    4    0    0 -0.18336634819E+02  0.10443142643E+02  0.20466369031E+01  0.21200946379E+02  0.00000000000E+00 0. -1.
        -14    1    4    4    0    0  0.43001172986E+02 -0.19283967699E+02 -0.84880641263E+02  0.97086021391E+02  0.00000000000E+00 0.  1.
<mgrwt>
<rscale>  2 0.18505315E+03</rscale>
<asrwt>0</asrwt>
<pdfrwt beam="1">  1       21 0.95019682E-01 0.18640377E+03</pdfrwt>
<pdfrwt beam="2">  1       21 0.22730919E-01 0.18640377E+03</pdfrwt>
<totfact> 0.16869807E+04</totfact>
</mgrwt>
</event>
<event>
12    1  0.1039378E-001  0.2516258E+03  0.7546771E-02  0.1112498E+00
         21   -1    0    0  503  502  0.00000000000E+00  0.00000000000E+00  0.11644193491E+03  0.11644193491E+03  0.00000000000E+00 0. -1.
         21   -1    0    0  501  503 -0.00000000000E+00 -0.00000000000E+00 -0.78516463233E+03  0.78516463233E+03  0.00000000000E+00 0. -1.
          6    2    1    2  501    0  0.48475916575E+02 -0.17500997727E+03 -0.58649919479E+03  0.63819813337E+03  0.17417561629E+03 0.  0.
         24    2    3    3    0    0 -0.37629288667E+02 -0.84613318308E+02 -0.23349547737E+03  0.26373935482E+03  0.80392364845E+02 0.  0.
         -6    2    1    2    0  502 -0.48475916575E+02  0.17500997727E+03 -0.82223502629E+02  0.26340843387E+03  0.17217692068E+03 0.  0.
        -24    2    5    5    0    0 -0.76210897557E+02  0.10268466375E+03  0.12171008236E+02  0.14120944112E+03  0.58649226299E+02 0.  0.
          5    1    3    3  501    0  0.86105205242E+02 -0.90396658964E+02 -0.35300371742E+03  0.37445877855E+03  0.47000000000E+01 0. -1.
        -11    1    4    4    0    0 -0.41653448273E+02 -0.35813807961E+02 -0.19152812960E+03  0.19925025225E+03  0.00000000000E+00 0.  1.
         12    1    4    4    0    0  0.40241596061E+01 -0.48799510347E+02 -0.41967347768E+02  0.64489102563E+02  0.00000000000E+00 0. -1.
         -5    1    5    5    0  502  0.27734980981E+02  0.72325313524E+02 -0.94394510865E+02  0.12219899274E+03  0.47000000000E+01 0.  1.
         13    1    6    6    0    0 -0.46433370311E+02  0.58611120631E+02 -0.22054115612E+02  0.77959639272E+02  0.00000000000E+00 0. -1.
        -14    1    6    6    0    0 -0.29777527246E+02  0.44073543118E+02  0.34225123848E+02  0.63249801851E+02  0.00000000000E+00 0.  1.
<mgrwt>
<rscale>  2 0.25128027E+03</rscale>
<asrwt>0</asrwt>
<pdfrwt beam="1">  1       21 0.17914144E-01 0.25162582E+03</pdfrwt>
<pdfrwt beam="2">  1       21 0.12079456E+00 0.25162582E+03</pdfrwt>
<totfact> 0.14192281E+04</totfact>
</mgrwt>
</event>
<event>
12    1  0.1039378E-001  0.2232400E+03  0.7546771E-02  0.1133028E+00
         21   -1    0    0  501  502  0.00000000000E+00  0.00000000000E+00  0.20658426742E+03  0.20658426742E+03  0.00000000000E+00 0. -1.
         21   -1    0    0  502  503 -0.00000000000E+00 -0.00000000000E+00 -0.26950889515E+03  0.26950889515E+03  0.00000000000E+00 0.  1.
         -6    2    1    2    0  503  0.11994912144E+03 -0.41062000311E+02 -0.11925228663E+03  0.24585658486E+03  0.17363891514E+03 0.  0.
        -24    2    3    3    0    0  0.67771309513E+02 -0.16974210132E+02 -0.14759747172E+03  0.18160485173E+03  0.79462156479E+02 0.  0.
          6    2    1    2  501    0 -0.11994912144E+03  0.41062000311E+02  0.56327658907E+02  0.23023657771E+03  0.18374492362E+03 0.  0.
         24    2    5    5    0    0 -0.41735209648E+02  0.41980135812E+02 -0.38451187894E+02  0.10725943036E+03  0.80758479572E+02 0.  0.
          5    1    5    5  501    0 -0.78213911789E+02 -0.91813550166E+00  0.94778846801E+02  0.12297714735E+03  0.47000000000E+01 0. -1.
        -11    1    6    6    0    0 -0.79200040875E+01 -0.13486614998E+02  0.16088942295E+02  0.22438121869E+02  0.00000000000E+00 0.  1.
         12    1    6    6    0    0 -0.33815205561E+02  0.55466750811E+02 -0.54540130189E+02  0.84821308488E+02  0.00000000000E+00 0. -1.
         -5    1    3    3    0  503  0.52177811924E+02 -0.24087790179E+02  0.28345185084E+02  0.64251733131E+02  0.47000000000E+01 0.  1.
         11    1    4    4    0    0 -0.16369531020E+02 -0.12332266911E+02 -0.19603329964E+02  0.28360833885E+02  0.00000000000E+00 0. -1.
        -12    1    4    4    0    0  0.84140840533E+02 -0.46419432210E+01 -0.12799414175E+03  0.15324401784E+03  0.00000000000E+00 0.  1.
<mgrwt>
<rscale>  2 0.22115043E+03</rscale>
<asrwt>0</asrwt>
<pdfrwt beam="1">  1       21 0.31782195E-01 0.22323995E+03</pdfrwt>
<pdfrwt beam="2">  1       21 0.41462907E-01 0.22323995E+03</pdfrwt>
<totfact> 0.52562916E+04</totfact>
</mgrwt>
</event>
<event>
12    1  0.1039378E-001  0.1921805E+03  0.7546771E-02  0.1156749E+00
         21   -1    0    0  501  502  0.00000000000E+00  0.00000000000E+00  0.52074512564E+03  0.52074512564E+03  0.00000000000E+00 0. -1.
         21   -1    0    0  502  503 -0.00000000000E+00 -0.00000000000E+00 -0.31499999406E+03  0.31499999406E+03  0.00000000000E+00 0. -1.
         -6    2    1    2    0  503 -0.60217109698E+02  0.56973408819E+02 -0.26519486525E+03  0.32750827586E+03  0.17338190388E+03 0.  0.
        -24    2    3    3    0    0  0.17381466496E+02 -0.88792145942E+01 -0.14994960906E+03  0.17368478575E+03  0.85443336279E+02 0.  0.
          6    2    1    2  501    0  0.60217109698E+02 -0.56973408819E+02  0.47093999682E+03  0.50823684384E+03  0.17218635025E+03 0.  0.
         24    2    5    5    0    0 -0.22455057791E+02  0.92734173807E+01  0.22799806255E+03  0.24315911432E+03  0.80950679177E+02 0.  0.
          5    1    5    5  501    0  0.82672167489E+02 -0.66246826199E+02  0.24294193427E+03  0.26507772952E+03  0.47000000000E+01 0. -1.
        -11    1    6    6    0    0 -0.41167817138E+01 -0.16325002542E+02  0.44637656982E+01  0.17417772644E+02  0.00000000000E+00 0.  1.
         12    1    6    6    0    0 -0.18338276077E+02  0.25598419922E+02  0.22353429685E+03  0.22574134168E+03  0.00000000000E+00 0. -1.
         -5    1    3    3    0  503 -0.77598576193E+02  0.65852623413E+02 -0.11524525618E+03  0.15382349011E+03  0.47000000000E+01 0.  1.
         13    1    4    4    0    0 -0.31876105312E+02  0.77803816782E+01 -0.80465481417E+02  0.86898297616E+02  0.00000000000E+00 0. -1.
        -14    1    4    4    0    0  0.49257571808E+02 -0.16659596272E+02 -0.69484127645E+02  0.86786488136E+02  0.00000000000E+00 0.  1.
<mgrwt>
<rscale>  2 0.19191048E+03</rscale>
<asrwt>0</asrwt>
<pdfrwt beam="1">  1       21 0.80114635E-01 0.19218053E+03</pdfrwt>
<pdfrwt beam="2">  1       21 0.48461538E-01 0.19218053E+03</pdfrwt>
<totfact> 0.55769891E+03</totfact>
</mgrwt>
</event>
<event>
12    1  0.1039378E-001  0.2132537E+03  0.7546771E-02  0.1139059E+00
         21   -1    0    0  503  502  0.00000000000E+00  0.00000000000E+00  0.55301997608E+03  0.55301997608E+03  0.00000000000E+00 0.  1.
         21   -1    0    0  501  503 -0.00000000000E+00 -0.00000000000E+00 -0.82165447865E+02  0.82165447865E+02  0.00000000000E+00 0.  1.
          6    2    1    2  501    0 -0.11744434297E+03 -0.41373188336E+02  0.24012816574E+03  0.32100109670E+03  0.17284459404E+03 0.  0.
         24    2    3    3    0    0 -0.11128775768E+02 -0.51093026159E+02  0.64365651552E+02  0.11530222341E+03  0.80108168446E+02 0.  0.
         -6    2    1    2    0  502  0.11744434297E+03  0.41373188336E+02  0.23072636247E+03  0.31418432724E+03  0.17312487614E+03 0.  0.
        -24    2    5    5    0    0  0.25932385476E+02 -0.75259942868E+01  0.31500770443E+02  0.89510129918E+02  0.79313527301E+02 0.  0.
          5    1    3    3  501    0 -0.10631556720E+03  0.97198378229E+01  0.17576251419E+03  0.20569887329E+03  0.47000000000E+01 0. -1.
        -11    1    4    4    0    0 -0.44611354776E+02 -0.16946641825E+02  0.35028515588E+02  0.59197622827E+02  0.00000000000E+00 0.  1.
         12    1    4    4    0    0  0.33482579008E+02 -0.34146384334E+02  0.29337135964E+02  0.56104600584E+02  0.00000000000E+00 0. -1.
         -5    1    5    5    0  502  0.91511957495E+02  0.48899182623E+02  0.19922559203E+03  0.22467419733E+03  0.47000000000E+01 0.  1.
         11    1    6    6    0    0  0.13053658781E+02  0.21370926526E+02 -0.17945916506E+02  0.30808609631E+02  0.00000000000E+00 0. -1.
        -12    1    6    6    0    0  0.12878726695E+02 -0.28896920813E+02  0.49446686949E+02  0.58701520287E+02  0.00000000000E+00 0.  1.
<mgrwt>
<rscale>  2 0.21319680E+03</rscale>
<asrwt>0</asrwt>
<pdfrwt beam="1">  1       21 0.85079994E-01 0.21325369E+03</pdfrwt>
<pdfrwt beam="2">  1       21 0.12640838E-01 0.21325369E+03</pdfrwt>
<totfact> 0.63304646E+04</totfact>
</mgrwt>
</event>
<event>
12    1  0.1039378E-001  0.2191751E+03  0.7546771E-02  0.1134611E+00
         21   -1    0    0  501  502  0.00000000000E+00  0.00000000000E+00  0.22106751806E+03  0.22106751806E+03  0.00000000000E+00 0.  1.
         21   -1    0    0  502  503 -0.00000000000E+00 -0.00000000000E+00 -0.25628468635E+03  0.25628468635E+03  0.00000000000E+00 0.  1.
         -6    2    1    2    0  503  0.89023730725E+02  0.99531251128E+02 -0.11138064071E+03  0.24532075336E+03  0.17304603526E+03 0.  0.
        -24    2    3    3    0    0  0.16850052631E+02  0.57038582902E+02 -0.12524443035E+03  0.16029745464E+03  0.80447389116E+02 0.  0.
          6    2    1    2  501    0 -0.89023730725E+02 -0.99531251128E+02  0.76163472419E+02  0.23203145105E+03  0.17379880657E+03 0.  0.
         24    2    5    5    0    0 -0.10652665476E+03 -0.86808901564E+02  0.10867132212E+03  0.19269875702E+03  0.80247374675E+02 0.  0.
          5    1    5    5  501    0  0.17502924031E+02 -0.12722349564E+02 -0.32507849697E+02  0.39332694035E+02  0.47000000000E+01 0. -1.
        -11    1    6    6    0    0 -0.86804949905E+02 -0.66934684607E+02  0.11997031550E+03  0.16250608583E+03  0.00000000000E+00 0.  1.
         12    1    6    6    0    0 -0.19721704851E+02 -0.19874216957E+02 -0.11298993384E+02  0.30192671187E+02  0.00000000000E+00 0. -1.
         -5    1    3    3    0  503  0.72173678094E+02  0.42492668226E+02  0.13863789640E+02  0.85023298723E+02  0.47000000000E+01 0.  1.
         13    1    4    4    0    0  0.87488657235E+01 -0.87751177797E+01 -0.77753847316E+02  0.78735037410E+02  0.00000000000E+00 0. -1.
        -14    1    4    4    0    0  0.81011869072E+01  0.65813700681E+02 -0.47490583035E+02  0.81562417226E+02  0.00000000000E+00 0.  1.
<mgrwt>
<rscale>  2 0.21902583E+03</rscale>
<asrwt>0</asrwt>
<pdfrwt beam="1">  1       21 0.34010387E-01 0.21917509E+03</pdfrwt>
<pdfrwt beam="2">  1       21 0.39428413E-01 0.21917509E+03</pdfrwt>
<totfact> 0.51010629E+04</totfact>
</mgrwt>
</event>
<event>
12    1  0.1039378E-001  0.2065943E+03  0.7546771E-02  0.1144310E+00
         21   -1    0    0  503  502  0.00000000000E+00  0.00000000000E+00  0.14914073787E+04  0.14914073787E+04  0.00000000000E+00 0.  1.
         21   -1    0    0  501  503 -0.00000000000E+00 -0.00000000000E+00 -0.61061787799E+02  0.61061787799E+02  0.00000000000E+00 0. -1.
          6    2    1    2  501    0  0.94700504961E+02  0.61816880314E+02  0.14932357514E+03  0.25490930798E+03  0.17289220015E+03 0.  0.
         24    2    3    3    0    0  0.76134009942E+02 -0.43857353369E+01  0.25465951690E+02  0.11316904574E+03  0.79643556382E+02 0.  0.
         -6    2    1    2    0  502 -0.94700504961E+02 -0.61816880314E+02  0.12810220158E+04  0.12975598585E+04  0.17278503762E+03 0.  0.
        -24    2    5    5    0    0  0.18454284967E+02 -0.37246332076E+02  0.56006345179E+03  0.56734683529E+03  0.80520255791E+02 0.  0.
          5    1    3    3  501    0  0.18566495019E+02  0.66202615651E+02  0.12385762345E+03  0.14174026225E+03  0.47000000000E+01 0. -1.
        -13    1    4    4    0    0  0.15845079117E+02 -0.91872755473E+01  0.45828734931E+02  0.49353272531E+02  0.00000000000E+00 0.  1.
         14    1    4    4    0    0  0.60288930825E+02  0.48015402104E+01 -0.20362783241E+02  0.63815773205E+02  0.00000000000E+00 0. -1.
         -5    1    5    5    0  502 -0.11315478993E+03 -0.24570548238E+02  0.72095856398E+03  0.73021302323E+03  0.47000000000E+01 0.  1.
         13    1    6    6    0    0  0.34657966964E+02 -0.56671188189E+01  0.10134336253E+03  0.10725562008E+03  0.00000000000E+00 0. -1.
        -14    1    6    6    0    0 -0.16203681997E+02 -0.31579213257E+02  0.45872008926E+03  0.46009121521E+03  0.00000000000E+00 0.  1.
<mgrwt>
<rscale>  2 0.20657193E+03</rscale>
<asrwt>0</asrwt>
<pdfrwt beam="1">  1       21 0.22944726E+00 0.20659435E+03</pdfrwt>
<pdfrwt beam="2">  1       21 0.93941224E-02 0.20659435E+03</pdfrwt>
<totfact> 0.78828553E+03</totfact>
</mgrwt>
</event>
<event>
11    1  0.1039378E-001  0.1749284E+03  0.7546771E-02  0.1172845E+00
         21   -1    0    0  501  502  0.00000000000E+00  0.00000000000E+00  0.19891479229E+03  0.19891479229E+03  0.00000000000E+00 0.  1.
         21   -1    0    0  502  503 -0.00000000000E+00 -0.00000000000E+00 -0.18561757472E+03  0.18561757472E+03  0.00000000000E+00 0.  1.
         -6    2    1    2    0  503 -0.14940192535E+02 -0.24110450237E+02 -0.73093566929E+02  0.18943414743E+03  0.17244739349E+03 0.  0.
          6    2    1    2  501    0  0.14940192535E+02  0.24110450237E+02  0.86390784500E+02  0.19509821959E+03  0.17261351186E+03 0.  0.
         24    2    4    4    0    0  0.42929654672E+02  0.58474987716E+02  0.10167211500E+03  0.14798197517E+03  0.79367289024E+02 0.  0.
          5    1    4    4  501    0 -0.27989462138E+02 -0.34364537479E+02 -0.15281330497E+02  0.47116244425E+02  0.47000000000E+01 0. -1.
        -13    1    5    5    0    0  0.44978371857E+01  0.79473746162E+00  0.72726241671E+02  0.72869529809E+02  0.00000000000E+00 0.  1.
         14    1    5    5    0    0  0.38431817486E+02  0.57680250254E+02  0.28945873327E+02  0.75112445356E+02  0.00000000000E+00 0. -1.
         -5    1    3    3    0  503 -0.75459985319E+02  0.30284337213E+02 -0.45518082366E+02  0.93302391647E+02  0.47000000000E+01 0.  1.
         13    1    3    3    0    0  0.29705312537E+02 -0.49630544276E+02 -0.29426629027E+02  0.64896248073E+02  0.00000000000E+00 0. -1.
        -14    1    3    3    0    0  0.30814480248E+02 -0.47642431742E+01  0.18511444639E+01  0.31235507708E+02  0.00000000000E+00 0.  1.
<mgrwt>
<rscale>  2 0.17488741E+03</rscale>
<asrwt>0</asrwt>
<pdfrwt beam="1">  1       21 0.30602276E-01 0.17492841E+03</pdfrwt>
<pdfrwt beam="2">  1       21 0.28556550E-01 0.17492841E+03</pdfrwt>
<totfact> 0.12097622E+05</totfact>
</mgrwt>
</event>
<event>
12    1  0.1039378E-001  0.2237074E+03  0.7546771E-02  0.1131778E+00
         21   -1    0    0  501  502  0.00000000000E+00  0.00000000000E+00  0.74035196402E+03  0.74035196402E+03  0.00000000000E+00 0.  1.
         21   -1    0    0  502  503 -0.00000000000E+00 -0.00000000000E+00 -0.79086786677E+02  0.79086786677E+02  0.00000000000E+00 0.  1.
         -6    2    1    2    0  503 -0.69217263361E+02  0.12299808070E+03  0.16976121060E+03  0.28082709195E+03  0.17356678698E+03 0.  0.
        -24    2    3    3    0    0  0.26575487942E+02  0.32165216404E+02  0.78386475562E+02  0.12020862276E+03  0.81023550463E+02 0.  0.
          6    2    1    2  501    0  0.69217263361E+02 -0.12299808070E+03  0.49150396674E+03  0.53861165875E+03  0.16913548480E+03 0.  0.
         24    2    5    5    0    0  0.42201897714E+02 -0.11276044780E+03  0.48800289634E+03  0.50913308005E+03  0.81078650682E+02 0.  0.
          5    1    5    5  501    0  0.27015365647E+02 -0.10237632900E+02  0.35010703913E+01  0.29478578703E+02  0.47000000000E+01 0. -1.
        -13    1    6    6    0    0  0.50343542494E+02 -0.50823577841E+02  0.35571504226E+03  0.36283701523E+03  0.00000000000E+00 0.  1.
         14    1    6    6    0    0 -0.81416447805E+01 -0.61936869963E+02  0.13228785409E+03  0.14629606481E+03  0.00000000000E+00 0. -1.
         -5    1    3    3    0  503 -0.95792751302E+02  0.90832864300E+02  0.91374735041E+02  0.16061846918E+03  0.47000000000E+01 0.  1.
         13    1    4    4    0    0  0.66981010043E+01  0.13685196699E+02  0.89568060897E+02  0.90854756059E+02  0.00000000000E+00 0. -1.
        -14    1    4    4    0    0  0.19877386938E+02  0.18480019705E+02 -0.11181585335E+02  0.29353866702E+02  0.00000000000E+00 0.  1.
<mgrwt>
<rscale>  2 0.22284733E+03</rscale>
<asrwt>0</asrwt>
<pdfrwt beam="1">  1       21 0.11390030E+00 0.22370737E+03</pdfrwt>
<pdfrwt beam="2">  1       21 0.12167198E-01 0.22370737E+03</pdfrwt>
<totfact> 0.33774284E+04</totfact>
</mgrwt>
</event>
<event>
12    1  0.1039378E-001  0.2494860E+03  0.7546771E-02  0.1113759E+00
         21   -1    0    0  503  502  0.00000000000E+00  0.00000000000E+00  0.25720047418E+03  0.25720047418E+03  0.00000000000E+00 0. -1.
         21   -1    0    0  501  503 -0.00000000000E+00 -0.00000000000E+00 -0.47698757618E+03  0.47698757618E+03  0.00000000000E+00 0. -1.
          6    2    1    2  501    0 -0.16570375288E+03  0.69747429656E+02 -0.36789207706E+03  0.44405303435E+03  0.17180244263E+03 0.  0.
         24    2    3    3    0    0 -0.21869110793E+02  0.12676226279E+02 -0.74234518058E+02  0.11208559848E+03  0.80084161956E+02 0.  0.
         -6    2    1    2    0  502  0.16570375288E+03 -0.69747429656E+02  0.14810497506E+03  0.29013501600E+03  0.17297631691E+03 0.  0.
        -24    2    5    5    0    0  0.14140829605E+03 -0.40088581354E+02  0.17598929802E+03  0.24249530597E+03  0.78919831799E+02 0.  0.
          5    1    3    3  501    0 -0.14383464209E+03  0.57071203377E+02 -0.29365755900E+03  0.33196743587E+03  0.47000000000E+01 0. -1.
        -13    1    4    4    0    0 -0.43633510863E+02  0.28882869813E+02 -0.30356892828E+02  0.60494994677E+02  0.00000000000E+00 0.  1.
         14    1    4    4    0    0  0.21764400070E+02 -0.16206643534E+02 -0.43877625230E+02  0.51590603804E+02  0.00000000000E+00 0. -1.
         -5    1    5    5    0  502  0.24295456835E+02 -0.29658848302E+02 -0.27884322963E+02  0.47639710038E+02  0.47000000000E+01 0.  1.
         11    1    6    6    0    0  0.70065774172E+01 -0.25622662171E+02  0.98987712006E+01  0.28347814997E+02  0.00000000000E+00 0. -1.
        -12    1    6    6    0    0  0.13440171863E+03 -0.14465919183E+02  0.16609052682E+03  0.21414749097E+03  0.00000000000E+00 0.  1.
<mgrwt>
<rscale>  2 0.24928260E+03</rscale>
<asrwt>0</asrwt>
<pdfrwt beam="1">  1       21 0.39569304E-01 0.24948596E+03</pdfrwt>
<pdfrwt beam="2">  1       21 0.73382704E-01 0.24948596E+03</pdfrwt>
<totfact> 0.99160494E+03</totfact>
</mgrwt>
</event>
<event>
12    1  0.1039378E-001  0.2865642E+03  0.7546771E-02  0.1093089E+00
         21   -1    0    0  503  502  0.00000000000E+00  0.00000000000E+00  0.21952115615E+03  0.21952115615E+03  0.00000000000E+00 0.  1.
         21   -1    0    0  501  503 -0.00000000000E+00 -0.00000000000E+00 -0.37550725143E+03  0.37550725143E+03  0.00000000000E+00 0. -1.
          6    2    1    2  501    0 -0.51565309126E+02 -0.21786763119E+03 -0.12851657488E+03  0.31406292943E+03  0.17886790600E+03 0.  0.
         24    2    3    3    0    0 -0.58905815724E+02 -0.19079267928E+03 -0.37061789867E+02  0.21828712998E+03  0.80024704029E+02 0.  0.
         -6    2    1    2    0  502  0.51565309126E+02  0.21786763119E+03 -0.27469520405E+02  0.28096547816E+03  0.16751638589E+03 0.  0.
        -24    2    5    5    0    0  0.45549805547E+02  0.71844869941E+02 -0.70128335963E+00  0.13231332850E+03  0.10134029296E+03 0.  0.
          5    1    3    3  501    0  0.73405065977E+01 -0.27074951910E+02 -0.91454785010E+02  0.95775799444E+02  0.47000000000E+01 0. -1.
        -13    1    4    4    0    0 -0.40917725626E+02 -0.40979700178E+02 -0.34435855875E+02  0.67375249661E+02  0.00000000000E+00 0.  1.
         14    1    4    4    0    0 -0.17988090098E+02 -0.14981297910E+03 -0.26259339923E+01  0.15091188032E+03  0.00000000000E+00 0. -1.
         -5    1    5    5    0  502  0.60155035789E+01  0.14602276125E+03 -0.26768237045E+02  0.14865214967E+03  0.47000000000E+01 0.  1.
         11    1    6    6    0    0 -0.23437206296E+00  0.74494309237E+02 -0.27250105772E+02  0.79322287559E+02  0.00000000000E+00 0. -1.
        -12    1    6    6    0    0  0.45784177610E+02 -0.26494392959E+01  0.26548822413E+02  0.52991040936E+02  0.00000000000E+00 0.  1.
<mgrwt>
<rscale>  2 0.28481197E+03</rscale>
<asrwt>0</asrwt>
<pdfrwt beam="1">  1       21 0.33772486E-01 0.28656415E+03</pdfrwt>
<pdfrwt beam="2">  1       21 0.57770346E-01 0.28656415E+03</pdfrwt>
<totfact> 0.22657113E+04</totfact>
</mgrwt>
</event>
<event>
12    1  0.1039378E-001  0.2576752E+03  0.7546771E-02  0.1108579E+00
         21   -1    0    0  503  502  0.00000000000E+00  0.00000000000E+00  0.32522282536E+03  0.32522282536E+03  0.00000000000E+00 0. -1.
         21   -1    0    0  501  503 -0.00000000000E+00 -0.00000000000E+00 -0.95083632944E+03  0.95083632944E+03  0.00000000000E+00 0.  1.
          6    2    1    2  501    0  0.19077758248E+03  0.61059546968E+01 -0.87829196408E+03  0.91531049361E+03  0.17309869115E+03 0.  0.
         24    2    3    3    0    0  0.15716038310E+03  0.33884110474E+02 -0.44977029332E+03  0.48454994023E+03  0.81534096346E+02 0.  0.
         -6    2    1    2    0  502 -0.19077758248E+03 -0.61059546968E+01  0.25267845999E+03  0.36074866119E+03  0.17279995297E+03 0.  0.
        -24    2    5    5    0    0 -0.13192817337E+03 -0.61100428398E+02  0.21428101935E+03  0.27139487818E+03  0.81243580492E+02 0.  0.
          5    1    3    3  501    0  0.33617199384E+02 -0.27778155777E+02 -0.42852167076E+03  0.43076055338E+03  0.47000000000E+01 0. -1.
        -11    1    4    4    0    0  0.94975502920E+02 -0.17790598565E+02 -0.20200730341E+03  0.22392811834E+03  0.00000000000E+00 0.  1.
         12    1    4    4    0    0  0.62184880178E+02  0.51674709039E+02 -0.24776298991E+03  0.26062182189E+03  0.00000000000E+00 0. -1.
         -5    1    5    5    0  502 -0.58849409112E+02  0.54994473702E+02  0.38397440648E+02  0.89353783014E+02  0.47000000000E+01 0.  1.
         11    1    6    6    0    0 -0.66641316062E+02 -0.20927432210E+01  0.14430348382E+03  0.15896207102E+03  0.00000000000E+00 0. -1.
        -12    1    6    6    0    0 -0.65286857309E+02 -0.59007685177E+02  0.69977535523E+02  0.11243280716E+03  0.00000000000E+00 0.  1.
<mgrwt>
<rscale>  2 0.25762507E+03</rscale>
<asrwt>0</asrwt>
<pdfrwt beam="1">  1       21 0.50034281E-01 0.25767523E+03</pdfrwt>
<pdfrwt beam="2">  1       21 0.14628251E+00 0.25767523E+03</pdfrwt>
<totfact> 0.11457973E+03</totfact>
</mgrwt>
</event>
<event>
12    1  0.1039378E-001  0.2447682E+03  0.7546771E-02  0.1116978E+00
         21   -1    0    0  501  502  0.00000000000E+00  0.00000000000E+00  0.11051515530E+03  0.11051515530E+03  0.00000000000E+00 0. -1.
         21   -1    0    0  502  503 -0.00000000000E+00 -0.00000000000E+00 -0.54033756972E+03  0.54033756972E+03  0.00000000000E+00 0.  1.
         -6    2    1    2    0  503 -0.64679969491E+02  0.15973351676E+03 -0.23657399274E+03  0.33899307224E+03  0.17102851854E+03 0.  0.
        -24    2    3    3    0    0 -0.26250875824E+02  0.37465052167E+02 -0.17517015167E+03  0.19679991357E+03  0.77154943647E+02 0.  0.
          6    2    1    2  501    0  0.64679969491E+02 -0.15973351676E+03 -0.19324842168E+03  0.31185965279E+03  0.17381943426E+03 0.  0.
         24    2    5    5    0    0  0.75891898864E+02 -0.56767193951E+02 -0.16047847445E+03  0.20312267456E+03  0.80767478204E+02 0.  0.
          5    1    5    5  501    0 -0.11211929374E+02 -0.10296632281E+03 -0.32769947230E+02  0.10873697823E+03  0.47000000000E+01 0. -1.
        -11    1    6    6    0    0  0.58057928772E+02 -0.73841793801E+02 -0.97072584795E+02  0.13507931124E+03  0.00000000000E+00 0.  1.
         12    1    6    6    0    0  0.17833970092E+02  0.17074599849E+02 -0.63405889656E+02  0.68043363323E+02  0.00000000000E+00 0. -1.
         -5    1    3    3    0  503 -0.38429093666E+02  0.12226846459E+03 -0.61403841067E+02  0.14219315867E+03  0.47000000000E+01 0.  1.
         13    1    4    4    0    0  0.90181713550E+00  0.42023171789E+02 -0.37265377564E+02  0.56173557893E+02  0.00000000000E+00 0. -1.
        -14    1    4    4    0    0 -0.27152692960E+02 -0.45581196220E+01 -0.13790477411E+03  0.14062635568E+03  0.00000000000E+00 0.  1.
<mgrwt>
<rscale>  2 0.24427324E+03</rscale>
<asrwt>0</asrwt>
<pdfrwt beam="1">  1       21 0.17002332E-01 0.24476824E+03</pdfrwt>
<pdfrwt beam="2">  1       21 0.83128856E-01 0.24476824E+03</pdfrwt>
<totfact> 0.38328445E+04</totfact>
</mgrwt>
</event>
<event>
12    1  0.1039378E-001  0.2138647E+03  0.7546771E-02  0.1138778E+00
         21   -1    0    0  503  502  0.00000000000E+00  0.00000000000E+00  0.49411879681E+03  0.49411879681E+03  0.00000000000E+00 0. -1.
         21   -1    0    0  501  503 -0.00000000000E+00 -0.00000000000E+00 -0.81937707420E+03  0.81937707420E+03  0.00000000000E+00 0. -1.
          6    2    1    2  501    0 -0.11956829399E+01 -0.12647587497E+03 -0.78144502205E+03  0.81018173727E+03  0.17245448187E+03 0.  0.
         24    2    3    3    0    0  0.30829918800E+02 -0.11556629102E+03 -0.35471335347E+03  0.38208517672E+03  0.76560222201E+02 0.  0.
         -6    2    1    2    0  502  0.11956829399E+01  0.12647587497E+03  0.45618674466E+03  0.50331413374E+03  0.17094207970E+03 0.  0.
        -24    2    5    5    0    0  0.50358995259E+02  0.11650787566E+03  0.40192323412E+03  0.42926677819E+03  0.81348431056E+02 0.  0.
          5    1    3    3  501    0 -0.32025601740E+02 -0.10909583941E+02 -0.42673166858E+03  0.42809656055E+03  0.47000000000E+01 0. -1.
        -13    1    4    4    0    0 -0.72223209315E+01 -0.21368630402E+01  0.21443241985E+00  0.75348579650E+01  0.00000000000E+00 0.  1.
         14    1    4    4    0    0  0.38052239731E+02 -0.11342942798E+03 -0.35492778589E+03  0.37455031875E+03  0.00000000000E+00 0. -1.
         -5    1    5    5    0  502 -0.49163312319E+02  0.99679993028E+01  0.54263510544E+02  0.74047355556E+02  0.47000000000E+01 0.  1.
         13    1    6    6    0    0 -0.87348714645E+01  0.50389584039E+02  0.23229244622E+03  0.23785539458E+03  0.00000000000E+00 0. -1.
        -14    1    6    6    0    0  0.59093866724E+02  0.66118291623E+02  0.16963078790E+03  0.19141138361E+03  0.00000000000E+00 0.  1.
<mgrwt>
<rscale>  2 0.21355966E+03</rscale>
<asrwt>0</asrwt>
<pdfrwt beam="1">  1       21 0.76018277E-01 0.21386474E+03</pdfrwt>
<pdfrwt beam="2">  1       21 0.12605801E+00 0.21386474E+03</pdfrwt>
<totfact> 0.70488169E+02</totfact>
</mgrwt>
</event>
<event>
12    1  0.1039378E-001  0.1786315E+03  0.7546771E-02  0.1169615E+00
         21   -1    0    0  501  502  0.00000000000E+00  0.00000000000E+00  0.28299376945E+02  0.28299376945E+02  0.00000000000E+00 0. -1.
         21   -1    0    0  502  503 -0.00000000000E+00 -0.00000000000E+00 -0.12599370174E+04  0.12599370174E+04  0.00000000000E+00 0. -1.
         -6    2    1    2    0  503 -0.12945387884E+02  0.34251199339E+02 -0.83108998720E+03  0.84966185153E+03  0.17284087309E+03 0.  0.
        -24    2    3    3    0    0  0.44382416574E+02  0.15893917149E+02 -0.29147092360E+03  0.30667539611E+03  0.82898032387E+02 0.  0.
          6    2    1    2  501    0  0.12945387884E+02 -0.34251199339E+02 -0.40054765324E+03  0.43857454279E+03  0.17483843784E+03 0.  0.
         24    2    5    5    0    0  0.70872480076E+02 -0.27928066892E+01 -0.28751982001E+03  0.30764494506E+03  0.83349007914E+02 0.  0.
          5    1    5    5  501    0 -0.57927092192E+02 -0.31458392650E+02 -0.11302783323E+03  0.13092959773E+03  0.47000000000E+01 0. -1.
        -11    1    6    6    0    0  0.29273194544E+02  0.21505947192E+02 -0.22892073785E+03  0.23178466278E+03  0.00000000000E+00 0.  1.
         12    1    6    6    0    0  0.41599285533E+02 -0.24298753881E+02 -0.58599082159E+02  0.75860282275E+02  0.00000000000E+00 0. -1.
         -5    1    3    3    0  503 -0.57327804458E+02  0.18357282190E+02 -0.53961906360E+03  0.54298645542E+03  0.47000000000E+01 0.  1.
         13    1    4    4    0    0  0.59098394453E+01  0.45615238420E+02 -0.16098575098E+03  0.16742785968E+03  0.00000000000E+00 0. -1.
        -14    1    4    4    0    0  0.38472577129E+02 -0.29721321271E+02 -0.13048517262E+03  0.13924753644E+03  0.00000000000E+00 0.  1.
<mgrwt>
<rscale>  2 0.17814080E+03</rscale>
<asrwt>0</asrwt>
<pdfrwt beam="1">  1       21 0.43537492E-02 0.17863148E+03</pdfrwt>
<pdfrwt beam="2">  1       21 0.19383651E+00 0.17863148E+03</pdfrwt>
<totfact> 0.50478665E+04</totfact>
</mgrwt>
</event>
<event>
12    1  0.1039378E-001  0.1889104E+03  0.7546771E-02  0.1159603E+00
         21   -1    0    0  501  502  0.00000000000E+00  0.00000000000E+00  0.66905808009E+02  0.66905808009E+02  0.00000000000E+00 0.  1.
         21   -1    0    0  502  503 -0.00000000000E+00 -0.00000000000E+00 -0.73482826934E+03  0.73482826934E+03  0.00000000000E+00 0. -1.
         -6    2    1    2    0  503 -0.61554584972E+02  0.44685461535E+02 -0.54440466288E+03  0.57602674509E+03  0.17217612114E+03 0.  0.
        -24    2    3    3    0    0 -0.57532364587E+02  0.39943941841E+00 -0.15811627968E+03  0.18715885621E+03  0.81960643176E+02 0.  0.
          6    2    1    2  501    0  0.61554584972E+02 -0.44685461535E+02 -0.12351779845E+03  0.22570733225E+03  0.17292020095E+03 0.  0.
         24    2    5    5    0    0  0.88395442503E+02 -0.25066464252E+02 -0.29114709307E+02  0.12551067599E+03  0.80393915215E+02 0.  0.
          5    1    5    5  501    0 -0.26840857532E+02 -0.19618997283E+02 -0.94403089142E+02  0.10019665627E+03  0.47000000000E+01 0. -1.
        -13    1    6    6    0    0  0.28331676750E+02  0.27070347253E+02  0.39337643487E+01  0.39382256281E+02  0.00000000000E+00 0.  1.
         14    1    6    6    0    0  0.60063765753E+02 -0.52136811505E+02 -0.33048473656E+02  0.86128419708E+02  0.00000000000E+00 0. -1.
         -5    1    3    3    0  503 -0.40222203848E+01  0.44286022116E+02 -0.38628838320E+03  0.38886788888E+03  0.47000000000E+01 0.  1.
         13    1    4    4    0    0 -0.35466942914E+02  0.37955942529E+02 -0.11340706126E+03  0.12473860332E+03  0.00000000000E+00 0. -1.
        -14    1    4    4    0    0 -0.22065421673E+02 -0.37556503110E+02 -0.44709218420E+02  0.62420252893E+02  0.00000000000E+00 0.  1.
<mgrwt>
<rscale>  2 0.18873999E+03</rscale>
<asrwt>0</asrwt>
<pdfrwt beam="1">  1       21 0.10293202E-01 0.18891044E+03</pdfrwt>
<pdfrwt beam="2">  1       21 0.11305050E+00 0.18891044E+03</pdfrwt>
<totfact> 0.47214939E+04</totfact>
</mgrwt>
</event>
<event>
12    1  0.1039378E-001  0.1850808E+03  0.7546771E-02  0.1163214E+00
         21   -1    0    0  501  502  0.00000000000E+00  0.00000000000E+00  0.14659592003E+03  0.14659592003E+03  0.00000000000E+00 0. -1.
         21   -1    0    0  502  503 -0.00000000000E+00 -0.00000000000E+00 -0.24040783338E+03  0.24040783338E+03  0.00000000000E+00 0. -1.
         -6    2    1    2    0  503  0.64399840393E+02 -0.16256901943E+01 -0.11419570568E+02  0.18441204980E+03  0.17241640063E+03 0.  0.
        -24    2    3    3    0    0  0.30185325305E+02  0.63123188951E+02 -0.20239043729E+02  0.11050045734E+03  0.83096578351E+02 0.  0.
          6    2    1    2  501    0 -0.64399840393E+02  0.16256901943E+01 -0.82392342780E+02  0.20259170362E+03  0.17350768834E+03 0.  0.
         24    2    5    5    0    0 -0.30179799625E+02 -0.60437898747E+02 -0.18841997700E+02  0.10728358947E+03  0.81186130475E+02 0.  0.
          5    1    5    5  501    0 -0.34220040768E+02  0.62063588941E+02 -0.63550345080E+02  0.95308114147E+02  0.47000000000E+01 0. -1.
        -13    1    6    6    0    0 -0.30862430058E+02 -0.25758888008E+02 -0.47544965645E+02  0.62261815414E+02  0.00000000000E+00 0.  1.
         14    1    6    6    0    0  0.68263043277E+00 -0.34679010739E+02  0.28702967945E+02  0.45021774054E+02  0.00000000000E+00 0. -1.
         -5    1    3    3    0  503  0.34214515088E+02 -0.64748879145E+02  0.88194731611E+01  0.73911592461E+02  0.47000000000E+01 0.  1.
         11    1    4    4    0    0  0.12497249876E+02 -0.14372256209E+02 -0.24340400641E+02  0.30906279400E+02  0.00000000000E+00 0. -1.
        -12    1    4    4    0    0  0.17688075430E+02  0.77495445160E+02  0.41013569124E+01  0.79594177937E+02  0.00000000000E+00 0.  1.
<mgrwt>
<rscale>  2 0.18482460E+03</rscale>
<asrwt>0</asrwt>
<pdfrwt beam="1">  1       21 0.22553219E-01 0.18508079E+03</pdfrwt>
<pdfrwt beam="2">  1       21 0.36985820E-01 0.18508079E+03</pdfrwt>
<totfact> 0.13019494E+05</totfact>
</mgrwt>
</event>
<event>
12    1  0.1039378E-001  0.2156484E+03  0.7546771E-02  0.1137409E+00
         21   -1    0    0  501  502  0.00000000000E+00  0.00000000000E+00  0.94854911505E+02  0.94854911505E+02  0.00000000000E+00 0.  1.
         21   -1    0    0  502  503 -0.00000000000E+00 -0.00000000000E+00 -0.98528120387E+03  0.98528120387E+03  0.00000000000E+00 0.  1.
         -6    2    1    2    0  503  0.58689836380E+02 -0.11722258398E+03 -0.82974932951E+03  0.85731451170E+03  0.17122672418E+03 0.  0.
        -24    2    3    3    0    0  0.57255505727E+02 -0.79605210091E+00 -0.36708765096E+03  0.38020329466E+03  0.80761223063E+02 0.  0.
          6    2    1    2  501    0 -0.58689836380E+02  0.11722258398E+03 -0.60676962857E+02  0.22282160367E+03  0.16965300513E+03 0.  0.
         24    2    5    5    0    0 -0.21617267489E+02  0.12415415161E+03 -0.90699303709E+02  0.17438759760E+03  0.79392133662E+02 0.  0.
          5    1    5    5  501    0 -0.37072568891E+02 -0.69315676252E+01  0.30022340852E+02  0.48434006072E+02  0.47000000000E+01 0. -1.
        -13    1    6    6    0    0 -0.49182844216E+02  0.10002917314E+03 -0.59976523833E+02  0.12657792484E+03  0.00000000000E+00 0.  1.
         14    1    6    6    0    0  0.27565576727E+02  0.24124978464E+02 -0.30722779876E+02  0.47809672761E+02  0.00000000000E+00 0. -1.
         -5    1    3    3    0  503  0.14343306528E+01 -0.11642653188E+03 -0.46266167855E+03  0.47711121704E+03  0.47000000000E+01 0.  1.
         11    1    4    4    0    0 -0.17734619533E+02  0.10367157274E+02 -0.47610547318E+02  0.51853243832E+02  0.00000000000E+00 0. -1.
        -12    1    4    4    0    0  0.74990125260E+02 -0.11163209374E+02 -0.31947710364E+03  0.32835005083E+03  0.00000000000E+00 0.  1.
<mgrwt>
<rscale>  2 0.21533584E+03</rscale>
<asrwt>0</asrwt>
<pdfrwt beam="1">  1       21 0.14593063E-01 0.21564838E+03</pdfrwt>
<pdfrwt beam="2">  1       21 0.15158172E+00 0.21564838E+03</pdfrwt>
<totfact> 0.11793660E+04</totfact>
</mgrwt>
</event>
<event>
12    1  0.1039378E-001  0.1817601E+03  0.7546771E-02  0.1166300E+00
         21   -1    0    0  503  502  0.00000000000E+00  0.00000000000E+00  0.12688454121E+03  0.12688454121E+03  0.00000000000E+00 0.  1.
         21   -1    0    0  501  503 -0.00000000000E+00 -0.00000000000E+00 -0.51344838548E+03  0.51344838548E+03  0.00000000000E+00 0.  1.
          6    2    1    2  501    0 -0.15661712654E+02  0.52279488958E+02 -0.41877635270E+03  0.45651985612E+03  0.17337332909E+03 0.  0.
         24    2    3    3    0    0  0.11477546317E+02 -0.17304513814E+01 -0.36631427821E+03  0.37634521990E+03  0.85526870576E+02 0.  0.
         -6    2    1    2    0  502  0.15661712654E+02 -0.52279488958E+02  0.32212508431E+02  0.18381307057E+03  0.17254322648E+03 0.  0.
        -24    2    5    5    0    0  0.66209639957E+02 -0.41242438638E+02 -0.17384637028E+02  0.11198775280E+03  0.78449831135E+02 0.  0.
          5    1    3    3  501    0 -0.27139258971E+02  0.54009940339E+02 -0.52462074491E+02  0.80174636219E+02  0.47000000000E+01 0. -1.
        -13    1    4    4    0    0 -0.30177514219E+02  0.22912726936E+02 -0.16507516442E+03  0.16936789935E+03  0.00000000000E+00 0.  1.
         14    1    4    4    0    0  0.41655060536E+02 -0.24643178318E+02 -0.20123911379E+03  0.20697732055E+03  0.00000000000E+00 0. -1.
         -5    1    5    5    0  502 -0.50547927303E+02 -0.11037050320E+02  0.49597145460E+02  0.71825317766E+02  0.47000000000E+01 0.  1.
         13    1    6    6    0    0 -0.15637507922E+01  0.13518558068E+02 -0.20722795158E+02  0.24791752014E+02  0.00000000000E+00 0. -1.
        -14    1    6    6    0    0  0.67773390749E+02 -0.54760996706E+02  0.33381581291E+01  0.87196000789E+02  0.00000000000E+00 0.  1.
<mgrwt>
<rscale>  2 0.18156190E+03</rscale>
<asrwt>0</asrwt>
<pdfrwt beam="1">  1       21 0.19520699E-01 0.18176013E+03</pdfrwt>
<pdfrwt beam="2">  1       21 0.78992057E-01 0.18176013E+03</pdfrwt>
<totfact> 0.34380058E+04</totfact>
</mgrwt>
</event>
<event>
12    1  0.1039378E-001  0.1956892E+03  0.7546771E-02  0.1154303E+00
         21   -1    0    0  501  502  0.00000000000E+00  0.00000000000E+00  0.14858341878E+03  0.14858341878E+03  0.00000000000E+00 0.  1.
         21   -1    0    0  502  503 -0.00000000000E+00 -0.00000000000E+00 -0.44090718102E+03  0.44090718102E+03  0.00000000000E+00 0.  1.
         -6    2    1    2    0  503  0.78420653137E+02  0.48294209917E+02 -0.33796545308E+03  0.38854926408E+03  0.16813016860E+03 0.  0.
        -24    2    3    3    0    0  0.60598770393E+01  0.14991580378E+02 -0.26948948070E+03  0.28340081737E+03  0.86197293972E+02 0.  0.
          6    2    1    2  501    0 -0.78420653137E+02 -0.48294209917E+02  0.45641690843E+02  0.20094133572E+03  0.17266188609E+03 0.  0.
         24    2    5    5    0    0 -0.12165889842E+02  0.25418513247E+02  0.55516572505E+02  0.10122743246E+03  0.79817251071E+02 0.  0.
          5    1    5    5  501    0 -0.66254763295E+02 -0.73712723164E+02 -0.98748816618E+01  0.99713903260E+02  0.47000000000E+01 0. -1.
        -11    1    6    6    0    0 -0.35768687918E+02  0.40111679444E+02  0.23034802339E+02  0.58471770813E+02  0.00000000000E+00 0.  1.
         12    1    6    6    0    0  0.23602798075E+02 -0.14693166197E+02  0.32481770166E+02  0.42755661648E+02  0.00000000000E+00 0. -1.
         -5    1    3    3    0  503  0.72360776098E+02  0.33302629539E+02 -0.68475972377E+02  0.10514844671E+03  0.47000000000E+01 0.  1.
         13    1    4    4    0    0  0.10533275530E+02 -0.11894272815E+02 -0.38248891243E+01  0.16341768448E+02  0.00000000000E+00 0. -1.
        -14    1    4    4    0    0 -0.44733984903E+01  0.26885853193E+02 -0.26566459158E+03  0.26705904893E+03  0.00000000000E+00 0.  1.
<mgrwt>
<rscale>  2 0.19468483E+03</rscale>
<asrwt>0</asrwt>
<pdfrwt beam="1">  1       21 0.22858987E-01 0.19568918E+03</pdfrwt>
<pdfrwt beam="2">  1       21 0.67831874E-01 0.19568918E+03</pdfrwt>
<totfact> 0.35597669E+04</totfact>
</mgrwt>
</event>
<event>
12    1  0.1039378E-001  0.1997563E+03  0.7546771E-02  0.1151576E+00
         21   -1    0    0  503  502  0.00000000000E+00  0.00000000000E+00  0.29372602436E+03  0.29372602436E+03  0.00000000000E+00 0.  1.
         21   -1    0    0  501  503 -0.00000000000E+00 -0.00000000000E+00 -0.20181515100E+03  0.20181515100E+03  0.00000000000E+00 0. -1.
          6    2    1    2  501    0  0.14508196953E+02 -0.86758494308E+02 -0.10047477746E+03  0.22360180344E+03  0.17934620566E+03 0.  0.
         24    2    3    3    0    0  0.33269044155E+01  0.52830526825E+01  0.90397921840E+01  0.80032312816E+02  0.79274676369E+02 0.  0.
         -6    2    1    2    0  502 -0.14508196953E+02  0.86758494308E+02  0.19238565081E+03  0.27193937192E+03  0.17088375946E+03 0.  0.
        -24    2    5    5    0    0  0.26305774109E+02  0.32995901087E+01  0.42753492815E+02  0.95749015679E+02  0.81468594006E+02 0.  0.
          5    1    3    3  501    0  0.11181292538E+02 -0.92041546990E+02 -0.10951456964E+03  0.14356949063E+03  0.47000000000E+01 0. -1.
        -13    1    4    4    0    0  0.27178016497E+02 -0.82318323207E+01  0.33061389063E+02  0.43582830230E+02  0.00000000000E+00 0.  1.
         14    1    4    4    0    0 -0.23851112082E+02  0.13514885003E+02 -0.24021596879E+02  0.36449482586E+02  0.00000000000E+00 0. -1.
         -5    1    5    5    0  502 -0.40813971062E+02  0.83458904199E+02  0.14963215800E+03  0.17619035624E+03  0.47000000000E+01 0.  1.
         13    1    6    6    0    0  0.10547952445E+02 -0.24211472359E+02 -0.14629053743E+02  0.30190460546E+02  0.00000000000E+00 0. -1.
        -14    1    6    6    0    0  0.15757821663E+02  0.27511062467E+02  0.57382546558E+02  0.65558555133E+02  0.00000000000E+00 0.  1.
<mgrwt>
<rscale>  2 0.19783846E+03</rscale>
<asrwt>0</asrwt>
<pdfrwt beam="1">  1       21 0.45188619E-01 0.19975632E+03</pdfrwt>
<pdfrwt beam="2">  1       21 0.31048485E-01 0.19975632E+03</pdfrwt>
<totfact> 0.46650770E+04</totfact>
</mgrwt>
</event>
<event>
12    1  0.1039378E-001  0.2112413E+03  0.7546771E-02  0.1140616E+00
         21   -1    0    0  503  502  0.00000000000E+00  0.00000000000E+00  0.28315982514E+03  0.28315982514E+03  0.00000000000E+00 0. -1.
         21   -1    0    0  501  503 -0.00000000000E+00 -0.00000000000E+00 -0.19687159997E+03  0.19687159997E+03  0.00000000000E+00 0.  1.
          6    2    1    2  501    0 -0.12147789780E+03 -0.12624489367E+02 -0.64233109902E+02  0.22064835993E+03  0.17217302038E+03 0.  0.
         24    2    3    3    0    0 -0.87609940347E+02  0.56767763534E+02 -0.33818877286E+02  0.13752532552E+03  0.82894017116E+02 0.  0.
         -6    2    1    2    0  502  0.12147789780E+03  0.12624489367E+02  0.15052133508E+03  0.25938306518E+03  0.17235615684E+03 0.  0.
        -24    2    5    5    0    0  0.72619905034E+02 -0.58502847497E+02  0.10418723147E+03  0.16132624153E+03  0.80467031962E+02 0.  0.
          5    1    3    3  501    0 -0.33867957457E+02 -0.69392252901E+02 -0.30414232615E+02  0.83123034416E+02  0.47000000000E+01 0. -1.
        -11    1    4    4    0    0 -0.21951277266E+02 -0.79820635540E+01 -0.38676684196E+02  0.45182494537E+02  0.00000000000E+00 0.  1.
         12    1    4    4    0    0 -0.65658663081E+02  0.64749827088E+02  0.48578069102E+01  0.92342830981E+02  0.00000000000E+00 0. -1.
         -5    1    5    5    0  502  0.48857992770E+02  0.71127336863E+02  0.46334103607E+02  0.98056823648E+02  0.47000000000E+01 0.  1.
         13    1    6    6    0    0  0.89463397633E+02 -0.40401208803E+02  0.87464751895E+02  0.13147638576E+03  0.00000000000E+00 0. -1.
        -14    1    6    6    0    0 -0.16843492599E+02 -0.18101638694E+02  0.16722479575E+02  0.29849855770E+02  0.00000000000E+00 0.  1.
<mgrwt>
<rscale>  2 0.21120398E+03</rscale>
<asrwt>0</asrwt>
<pdfrwt beam="1">  1       21 0.43563050E-01 0.21124134E+03</pdfrwt>
<pdfrwt beam="2">  1       21 0.30287939E-01 0.21124134E+03</pdfrwt>
<totfact> 0.52505349E+04</totfact>
</mgrwt>
</event>
<event>
12    1  0.1039378E-001  0.1729618E+03  0.7546771E-02  0.1175310E+00
         21   -1    0    0  501  502  0.00000000000E+00  0.00000000000E+00  0.23528215706E+03  0.23528215706E+03  0.00000000000E+00 0.  1.
         21   -1    0    0  502  503 -0.00000000000E+00 -0.00000000000E+00 -0.22489751150E+03  0.22489751150E+03  0.00000000000E+00 0.  1.
         -6    2    1    2    0  503  0.11729980639E+02 -0.10036001742E+02 -0.14761979864E+03  0.22739258196E+03  0.17227149388E+03 0.  0.
        -24    2    3    3    0    0  0.82948675630E+01  0.41884540869E+02 -0.15932042003E+02  0.85719373506E+02  0.72600698621E+02 0.  0.
          6    2    1    2  501    0 -0.11729980639E+02  0.10036001742E+02  0.15800444420E+03  0.23278708660E+03  0.17025307493E+03 0.  0.
         24    2    5    5    0    0  0.51563990026E+02  0.35544024178E+02  0.87817271989E+02  0.13478139761E+03  0.80820351145E+02 0.  0.
          5    1    5    5  501    0 -0.63293970665E+02 -0.25508022436E+02  0.70187172211E+02  0.98005688988E+02  0.47000000000E+01 0. -1.
        -13    1    6    6    0    0  0.32444178701E+02 -0.23439089215E+02  0.30216572781E+02  0.50150343024E+02  0.00000000000E+00 0.  1.
         14    1    6    6    0    0  0.19119811325E+02  0.58983113393E+02  0.57600699209E+02  0.84631054584E+02  0.00000000000E+00 0. -1.
         -5    1    3    3    0  503  0.34351130758E+01 -0.51920542611E+02 -0.13168775663E+03  0.14167320846E+03  0.47000000000E+01 0.  1.
         11    1    4    4    0    0 -0.30742205007E+02  0.63264320002E+01 -0.71406374209E+01  0.32188439125E+02  0.00000000000E+00 0. -1.
        -12    1    4    4    0    0  0.39037072570E+02  0.35558108869E+02 -0.87914045819E+01  0.53530934381E+02  0.00000000000E+00 0.  1.
<mgrwt>
<rscale>  2 0.17245702E+03</rscale>
<asrwt>0</asrwt>
<pdfrwt beam="1">  1       21 0.36197255E-01 0.17296179E+03</pdfrwt>
<pdfrwt beam="2">  1       21 0.34599617E-01 0.17296179E+03</pdfrwt>
<totfact> 0.59786784E+04</totfact>
</mgrwt>
</event>
<event>
12    1  0.1039378E-001  0.1852121E+03  0.7546771E-02  0.1163362E+00
         21   -1    0    0  501  502  0.00000000000E+00  0.00000000000E+00  0.89335954315E+02  0.89335954315E+02  0.00000000000E+00 0. -1.
         21   -1    0    0  502  503 -0.00000000000E+00 -0.00000000000E+00 -0.43394087884E+03  0.43394087884E+03  0.00000000000E+00 0. -1.
         -6    2    1    2    0  503 -0.51760354682E+02 -0.33429856114E+02 -0.26409196913E+03  0.32132174015E+03  0.17235545520E+03 0.  0.
        -24    2    3    3    0    0 -0.88310802653E+02 -0.53403096881E+02 -0.24040531084E+03  0.27317598879E+03  0.78611187163E+02 0.  0.
          6    2    1    2  501    0  0.51760354682E+02  0.33429856114E+02 -0.80512955394E+02  0.20195509300E+03  0.17466205657E+03 0.  0.
         24    2    5    5    0    0  0.10016329281E+03  0.93564361070E+01 -0.39087424256E+02  0.13368695548E+03  0.78893264649E+02 0.  0.
          5    1    5    5  501    0 -0.48402938130E+02  0.24073420007E+02 -0.41425531138E+02  0.68268137521E+02  0.47000000000E+01 0. -1.
        -11    1    6    6    0    0  0.40901111973E+02 -0.16548267230E+02 -0.51514928758E+02  0.67827236372E+02  0.00000000000E+00 0.  1.
         12    1    6    6    0    0  0.59262180839E+02  0.25904703337E+02  0.12427504503E+02  0.65859719108E+02  0.00000000000E+00 0. -1.
         -5    1    3    3    0  503  0.36550447971E+02  0.19973240767E+02 -0.23686658289E+02  0.48145751365E+02  0.47000000000E+01 0.  1.
         13    1    4    4    0    0  0.10630476148E+02 -0.23892873906E+02 -0.41090080634E+02  0.48705966505E+02  0.00000000000E+00 0. -1.
        -14    1    4    4    0    0 -0.98941278801E+02 -0.29510222975E+02 -0.19931523021E+03  0.22447002228E+03  0.00000000000E+00 0.  1.
<mgrwt>
<rscale>  2 0.18466630E+03</rscale>
<asrwt>0</asrwt>
<pdfrwt beam="1">  1       21 0.13743993E-01 0.18521210E+03</pdfrwt>
<pdfrwt beam="2">  1       21 0.66760136E-01 0.18521210E+03</pdfrwt>
<totfact> 0.94802718E+04</totfact>
</mgrwt>
</event>
<event>
11    1  0.1039378E-001  0.2816935E+03  0.7546771E-02  0.1094929E+00
         21   -1    0    0  503  502  0.00000000000E+00  0.00000000000E+00  0.92973132960E+02  0.92973132960E+02  0.00000000000E+00 0.  1.
         21   -1    0    0  501  503 -0.00000000000E+00 -0.00000000000E+00 -0.85716368679E+03  0.85716368679E+03  0.00000000000E+00 0. -1.
          6    2    1    2  501    0  0.19579958017E+03  0.10479427097E+03 -0.33914908797E+03  0.44087791789E+03  0.17329720077E+03 0.  0.
         -6    2    1    2    0  502 -0.19579958017E+03 -0.10479427097E+03 -0.42504146587E+03  0.50925890186E+03  0.17136238384E+03 0.  0.
        -24    2    4    4    0    0 -0.76063409875E+02 -0.10878549368E+03 -0.26036968489E+03  0.30556411600E+03  0.89202747844E+02 0.  0.
          5    1    3    3  501    0 -0.34840703382E+01  0.55484128937E+02 -0.14062067983E+03  0.15128414624E+03  0.47000000000E+01 0. -1.
        -13    1    3    3    0    0  0.73603881749E+02  0.24482221348E+01 -0.47662021245E+02  0.87722251849E+02  0.00000000000E+00 0.  1.
         14    1    3    3    0    0  0.12567976875E+03  0.46861919901E+02 -0.15086638690E+03  0.20187151980E+03  0.00000000000E+00 0. -1.
         -5    1    4    4    0  502 -0.11973617029E+03  0.39912227105E+01 -0.16467178098E+03  0.20369478586E+03  0.47000000000E+01 0.  1.
         13    1    5    5    0    0 -0.25942403344E+02 -0.57755288331E+02 -0.20658957167E+03  0.21607390575E+03  0.00000000000E+00 0. -1.
        -14    1    5    5    0    0 -0.50121006531E+02 -0.51030205353E+02 -0.53780113213E+02  0.89490210254E+02  0.00000000000E+00 0.  1.
<mgrwt>
<rscale>  2 0.28139651E+03</rscale>
<asrwt>0</asrwt>
<pdfrwt beam="1">  1       21 0.14303559E-01 0.28169351E+03</pdfrwt>
<pdfrwt beam="2">  1       21 0.13187133E+00 0.28169351E+03</pdfrwt>
<totfact> 0.16948423E+04</totfact>
</mgrwt>
</event>
<event>
12    1  0.1039378E-001  0.2039895E+03  0.7546771E-02  0.1146820E+00
         21   -1    0    0  501  502  0.00000000000E+00  0.00000000000E+00  0.82320362026E+03  0.82320362026E+03  0.00000000000E+00 0.  1.
         21   -1    0    0  502  503 -0.00000000000E+00 -0.00000000000E+00 -0.78087851106E+02  0.78087851106E+02  0.00000000000E+00 0.  1.
         -6    2    1    2    0  503 -0.10917336789E+03 -0.13174655658E+02  0.10375057791E+03  0.22885779780E+03  0.17181185462E+03 0.  0.
        -24    2    3    3    0    0 -0.86347667968E+02  0.28683365171E+02  0.85477711146E+01  0.12228026308E+03  0.81244957667E+02 0.  0.
          6    2    1    2  501    0  0.10917336789E+03  0.13174655658E+02  0.64136519125E+03  0.67243367357E+03  0.16948551857E+03 0.  0.
         24    2    5    5    0    0  0.12268967857E+03 -0.29846970848E+02  0.55678428102E+03  0.57646716182E+03  0.79762486046E+02 0.  0.
          5    1    5    5  501    0 -0.13516310677E+02  0.43021626506E+02  0.84580910230E+02  0.95966511747E+02  0.47000000000E+01 0. -1.
        -13    1    6    6    0    0  0.63462756018E+02 -0.55436227138E+02  0.29019788950E+03  0.30218456570E+03  0.00000000000E+00 0.  1.
         14    1    6    6    0    0  0.59226922552E+02  0.25589256290E+02  0.26658639152E+03  0.27428259612E+03  0.00000000000E+00 0. -1.
         -5    1    3    3    0  503 -0.22825699925E+02 -0.41858020828E+02  0.95202806799E+02  0.10657753472E+03  0.47000000000E+01 0.  1.
         11    1    4    4    0    0  0.36360242103E+01  0.31627590771E+02 -0.79494697572E-01  0.31836009320E+02  0.00000000000E+00 0. -1.
        -12    1    4    4    0    0 -0.89983692178E+02 -0.29442256002E+01  0.86272658121E+01  0.90444253758E+02  0.00000000000E+00 0.  1.
<mgrwt>
<rscale>  2 0.20349884E+03</rscale>
<asrwt>0</asrwt>
<pdfrwt beam="1">  1       21 0.12664670E+00 0.20398948E+03</pdfrwt>
<pdfrwt beam="2">  1       21 0.12013516E-01 0.20398948E+03</pdfrwt>
<totfact> 0.26848735E+04</totfact>
</mgrwt>
</event>
<event>
12    1  0.1039378E-001  0.2601187E+03  0.7546771E-02  0.1107076E+00
         21   -1    0    0  501  502  0.00000000000E+00  0.00000000000E+00  0.22886318409E+04  0.22886318409E+04  0.00000000000E+00 0.  1.
         21   -1    0    0  502  503 -0.00000000000E+00 -0.00000000000E+00 -0.11458269073E+03  0.11458269073E+03  0.00000000000E+00 0. -1.
         -6    2    1    2    0  503 -0.17846511889E+03 -0.77635131079E+02  0.51974442333E+02  0.26526037358E+03  0.17258247564E+03 0.  0.
        -24    2    3    3    0    0 -0.61882882852E+02 -0.74634032746E+02 -0.17265736708E+02  0.12955216917E+03  0.84177959343E+02 0.  0.
          6    2    1    2  501    0  0.17846511889E+03  0.77635131079E+02  0.21220747078E+04  0.21379541580E+04  0.17253957251E+03 0.  0.
         24    2    5    5    0    0  0.54892686563E+02  0.77713608654E+02  0.76407487315E+03  0.77433551885E+03  0.82051642056E+02 0.  0.
          5    1    5    5  501    0  0.12357243232E+03 -0.78477574928E-01  0.13579998347E+04  0.13636186392E+04  0.47000000000E+01 0. -1.
        -13    1    6    6    0    0  0.42355417586E+02  0.68478996184E+02  0.74660134300E+03  0.75093070232E+03  0.00000000000E+00 0.  1.
         14    1    6    6    0    0  0.12537268978E+02  0.92346124697E+01  0.17473530151E+02  0.23404816531E+02  0.00000000000E+00 0. -1.
         -5    1    3    3    0  503 -0.11658223603E+03 -0.30010983328E+01  0.69240179041E+02  0.13570820441E+03  0.47000000000E+01 0.  1.
         13    1    4    4    0    0 -0.59248728836E+02 -0.17672390051E+02  0.15560283497E+02  0.63756157831E+02  0.00000000000E+00 0. -1.
        -14    1    4    4    0    0 -0.26341540153E+01 -0.56961642695E+02 -0.32826020205E+02  0.65796011341E+02  0.00000000000E+00 0.  1.
<mgrwt>
<rscale>  2 0.26011156E+03</rscale>
<asrwt>0</asrwt>
<pdfrwt beam="1">  1       21 0.35209717E+00 0.26011867E+03</pdfrwt>
<pdfrwt beam="2">  1       21 0.17628108E-01 0.26011867E+03</pdfrwt>
<totfact> 0.45323040E+02</totfact>
</mgrwt>
</event>
<event>
12    1  0.1039378E-001  0.1760061E+03  0.7546771E-02  0.1171802E+00
         21   -1    0    0  503  502  0.00000000000E+00  0.00000000000E+00  0.16875201719E+03  0.16875201719E+03  0.00000000000E+00 0.  1.
         21   -1    0    0  501  503 -0.00000000000E+00 -0.00000000000E+00 -0.20721387225E+03  0.20721387225E+03  0.00000000000E+00 0. -1.
          6    2    1    2  501    0  0.29152470742E+02  0.16255439201E+02 -0.83140778766E+02  0.19437751331E+03  0.17249963111E+03 0.  0.
         24    2    3    3    0    0  0.10147617400E+02  0.27819496735E+02  0.20183271067E+02  0.88581194131E+02  0.81008425397E+02 0.  0.
         -6    2    1    2    0  502 -0.29152470742E+02 -0.16255439201E+02  0.44678923710E+02  0.18158837614E+03  0.17281211263E+03 0.  0.
        -24    2    5    5    0    0  0.90237303993E+01 -0.21496735934E+02 -0.37738674773E+02  0.90485993815E+02  0.78866787287E+02 0.  0.
          5    1    3    3  501    0  0.19004853342E+02 -0.11564057534E+02 -0.10332404983E+03  0.10579631918E+03  0.47000000000E+01 0. -1.
        -11    1    4    4    0    0  0.17973006308E+01 -0.26438555405E+02  0.20788999562E+02  0.33681003611E+02  0.00000000000E+00 0.  1.
         12    1    4    4    0    0  0.83503167690E+01  0.54258052140E+02 -0.60572849428E+00  0.54900190521E+02  0.00000000000E+00 0. -1.
         -5    1    5    5    0  502 -0.38176201141E+02  0.52412967329E+01  0.82417598483E+02  0.91102382322E+02  0.47000000000E+01 0.  1.
         13    1    6    6    0    0  0.15840941060E+02 -0.46611443062E+02 -0.62334097745E+01  0.49622751188E+02  0.00000000000E+00 0. -1.
        -14    1    6    6    0    0 -0.68172106612E+01  0.25114707129E+02 -0.31505264998E+02  0.40863242627E+02  0.00000000000E+00 0.  1.
<mgrwt>
<rscale>  2 0.17592931E+03</rscale>
<asrwt>0</asrwt>
<pdfrwt beam="1">  1       21 0.25961849E-01 0.17600606E+03</pdfrwt>
<pdfrwt beam="2">  1       21 0.31879057E-01 0.17600606E+03</pdfrwt>
<totfact> 0.13409160E+05</totfact>
</mgrwt>
</event>
<event>
12    1  0.1039378E-001  0.2084056E+03  0.7546771E-02  0.1142846E+00
         21   -1    0    0  501  502  0.00000000000E+00  0.00000000000E+00  0.58867746424E+03  0.58867746424E+03  0.00000000000E+00 0.  1.
         21   -1    0    0  502  503 -0.00000000000E+00 -0.00000000000E+00 -0.76303199101E+02  0.76303199101E+02  0.00000000000E+00 0.  1.
         -6    2    1    2    0  503 -0.11802073018E+03 -0.22511745277E+02  0.31685202249E+03  0.37921529172E+03  0.17021563351E+03 0.  0.
        -24    2    3    3    0    0 -0.34994353619E+01  0.24996569449E+02  0.12259350222E+03  0.14871446822E+03  0.80310346410E+02 0.  0.
          6    2    1    2  501    0  0.11802073018E+03  0.22511745277E+02  0.19552224265E+03  0.28576537162E+03  0.17028572699E+03 0.  0.
         24    2    5    5    0    0  0.76031474731E+02  0.63825049181E+02  0.18684727556E+03  0.22603906496E+03  0.79544531263E+02 0.  0.
          5    1    5    5  501    0  0.41989255454E+02 -0.41313303904E+02  0.86749670968E+01  0.59726306659E+02  0.47000000000E+01 0. -1.
        -13    1    6    6    0    0  0.39462568944E+02 -0.10038909560E+01  0.11881202873E+03  0.12519824406E+03  0.00000000000E+00 0.  1.
         14    1    6    6    0    0  0.36568905787E+02  0.64828940137E+02  0.68035246827E+02  0.10084082090E+03  0.00000000000E+00 0. -1.
         -5    1    3    3    0  503 -0.11452129482E+03 -0.47508314726E+02  0.19425852027E+03  0.23050082350E+03  0.47000000000E+01 0.  1.
         13    1    4    4    0    0  0.12516324109E+02 -0.26180206838E+02  0.30165855777E+02  0.41857382312E+02  0.00000000000E+00 0. -1.
        -14    1    4    4    0    0 -0.16015759471E+02  0.51176776287E+02  0.92427646440E+02  0.10685708591E+03  0.00000000000E+00 0.  1.
<mgrwt>
<rscale>  2 0.20839130E+03</rscale>
<asrwt>0</asrwt>
<pdfrwt beam="1">  1       21 0.90565761E-01 0.20840561E+03</pdfrwt>
<pdfrwt beam="2">  1       21 0.11738954E-01 0.20840561E+03</pdfrwt>
<totfact> 0.62726037E+04</totfact>
</mgrwt>
</event>
<event>
12    1  0.1039378E-001  0.2037157E+03  0.7546771E-02  0.1147847E+00
         21   -1    0    0  501  502  0.00000000000E+00  0.00000000000E+00  0.17987328566E+04  0.17987328566E+04  0.00000000000E+00 0.  1.
         21   -1    0    0  502  503 -0.00000000000E+00 -0.00000000000E+00 -0.34392393586E+02  0.34392393586E+02  0.00000000000E+00 0.  1.
         -6    2    1    2    0  503 -0.97078327692E+02 -0.10899322890E+01  0.33325494113E+03  0.38761293865E+03  0.17250954978E+03 0.  0.
        -24    2    3    3    0    0 -0.15137296899E+02 -0.46389284024E+02  0.10168670511E+03  0.13778839677E+03  0.79147664897E+02 0.  0.
          6    2    1    2  501    0  0.97078327692E+02  0.10899322890E+01  0.14310855219E+04  0.14455123115E+04  0.17909405958E+03 0.  0.
         24    2    5    5    0    0 -0.15174085551E+02  0.24878546967E+02  0.50894122511E+03  0.51624448333E+03  0.81473928178E+02 0.  0.
          5    1    5    5  501    0  0.11225241324E+03 -0.23788614678E+02  0.92214429675E+03  0.92926782818E+03  0.47000000000E+01 0. -1.
        -11    1    6    6    0    0  0.23013174727E+02  0.36982513942E+02  0.33074623763E+03  0.33360213767E+03  0.00000000000E+00 0.  1.
         12    1    6    6    0    0 -0.38187260277E+02 -0.12103966975E+02  0.17819498748E+03  0.18264234566E+03  0.00000000000E+00 0. -1.
         -5    1    3    3    0  503 -0.81941030793E+02  0.45299351735E+02  0.23156823602E+03  0.24982454188E+03  0.47000000000E+01 0.  1.
         13    1    4    4    0    0 -0.80409476115E+01 -0.38797975708E+02  0.43070714387E+01  0.39855873117E+02  0.00000000000E+00 0. -1.
        -14    1    4    4    0    0 -0.70963492876E+01 -0.75913083162E+01  0.97379633670E+02  0.97932523652E+02  0.00000000000E+00 0.  1.
<mgrwt>
<rscale>  2 0.20225916E+03</rscale>
<asrwt>0</asrwt>
<pdfrwt beam="1">  1       21 0.27672806E+00 0.20371566E+03</pdfrwt>
<pdfrwt beam="2">  1       21 0.52911389E-02 0.20371566E+03</pdfrwt>
<totfact> 0.11233344E+04</totfact>
</mgrwt>
</event>
<event>
12    1  0.1039378E-001  0.2522829E+03  0.7546771E-02  0.1112147E+00
         21   -1    0    0  503  502  0.00000000000E+00  0.00000000000E+00  0.48047256498E+03  0.48047256498E+03  0.00000000000E+00 0. -1.
         21   -1    0    0  501  503 -0.00000000000E+00 -0.00000000000E+00 -0.14914268153E+03  0.14914268153E+03  0.00000000000E+00 0.  1.
          6    2    1    2  501    0 -0.33486302390E+02  0.17821240978E+03  0.57005468715E+02  0.25692161300E+03  0.17285281691E+03 0.  0.
         24    2    3    3    0    0  0.29946479183E+02  0.40787588743E+02  0.48811060554E+02  0.10526892578E+03  0.78349269887E+02 0.  0.
         -6    2    1    2    0  502  0.33486302390E+02 -0.17821240978E+03  0.27432441474E+03  0.37269363351E+03  0.17540143811E+03 0.  0.
        -24    2    5    5    0    0  0.94519777870E+01 -0.11901262674E+03  0.27303131150E+03  0.30861535960E+03  0.80274515985E+02 0.  0.
          5    1    3    3  501    0 -0.63432781573E+02  0.13742482104E+03  0.81944081609E+01  0.15165268722E+03  0.47000000000E+01 0. -1.
        -13    1    4    4    0    0  0.27760620442E+02  0.83436129543E+01 -0.15743661600E+02  0.32986827750E+02  0.00000000000E+00 0.  1.
         14    1    4    4    0    0  0.21858587415E+01  0.32443975788E+02  0.64554722154E+02  0.72282098031E+02  0.00000000000E+00 0. -1.
         -5    1    5    5    0  502  0.24034324603E+02 -0.59199783039E+02  0.12931032365E+01  0.64078273908E+02  0.47000000000E+01 0.  1.
         13    1    6    6    0    0  0.40055131993E+02 -0.10013151701E+03  0.20858767479E+03  0.23481812616E+03  0.00000000000E+00 0. -1.
        -14    1    6    6    0    0 -0.30603154206E+02 -0.18881109728E+02  0.64443636706E+02  0.73797233443E+02  0.00000000000E+00 0.  1.
<mgrwt>
<rscale>  2 0.25184042E+03</rscale>
<asrwt>0</asrwt>
<pdfrwt beam="1">  1       21 0.73918855E-01 0.25228290E+03</pdfrwt>
<pdfrwt beam="2">  1       21 0.22945028E-01 0.25228290E+03</pdfrwt>
<totfact> 0.28402440E+04</totfact>
</mgrwt>
</event>
<event>
12    1  0.1039378E-001  0.2790065E+03  0.7546771E-02  0.1096352E+00
         21   -1    0    0  503  502  0.00000000000E+00  0.00000000000E+00  0.69044157926E+02  0.69044157926E+02  0.00000000000E+00 0.  1.
         21   -1    0    0  501  503 -0.00000000000E+00 -0.00000000000E+00 -0.13742887633E+04  0.13742887633E+04  0.00000000000E+00 0.  1.
          6    2    1    2  501    0  0.10630557096E+03 -0.19107766606E+03 -0.95979535443E+03  0.99928357810E+03  0.17189822041E+03 0.  0.
         24    2    3    3    0    0  0.10255348512E+03 -0.20411615625E+03 -0.95366765522E+03  0.98367207362E+03  0.77124115964E+02 0.  0.
         -6    2    1    2    0  502 -0.10630557096E+03  0.19107766606E+03 -0.34544925092E+03  0.44404934311E+03  0.17330056338E+03 0.  0.
        -24    2    5    5    0    0 -0.11613213792E+03  0.12344974007E+03 -0.31996452053E+03  0.37096268717E+03  0.80681528821E+02 0.  0.
          5    1    3    3  501    0  0.37520858379E+01  0.13038490181E+02 -0.61276992151E+01  0.15611504476E+02  0.47000000000E+01 0. -1.
        -11    1    4    4    0    0  0.74369542057E+02 -0.88330856907E+02 -0.58282615952E+03  0.59415444228E+03  0.00000000000E+00 0.  1.
         12    1    4    4    0    0  0.28183943061E+02 -0.11578529934E+03 -0.37084149570E+03  0.38951763134E+03  0.00000000000E+00 0. -1.
         -5    1    5    5    0  502  0.98265669597E+01  0.67627926000E+02 -0.25484730387E+02  0.73086655938E+02  0.47000000000E+01 0.  1.
         13    1    6    6    0    0  0.81940170621E+01  0.38897963671E+01 -0.20936681762E+01  0.93089138907E+01  0.00000000000E+00 0. -1.
        -14    1    6    6    0    0 -0.12432615498E+03  0.11955994370E+03 -0.31787085236E+03  0.36165377328E+03  0.00000000000E+00 0.  1.
<mgrwt>
<rscale>  2 0.27878904E+03</rscale>
<asrwt>0</asrwt>
<pdfrwt beam="1">  1       21 0.10622178E-01 0.27900651E+03</pdfrwt>
<pdfrwt beam="2">  1       21 0.21142904E+00 0.27900651E+03</pdfrwt>
<totfact> 0.77654585E+03</totfact>
</mgrwt>
</event>
<event>
12    1  0.1039378E-001  0.1818839E+03  0.7546771E-02  0.1166723E+00
         21   -1    0    0  503  502  0.00000000000E+00  0.00000000000E+00  0.38062222650E+03  0.38062222650E+03  0.00000000000E+00 0.  1.
         21   -1    0    0  501  503 -0.00000000000E+00 -0.00000000000E+00 -0.14801160792E+03  0.14801160792E+03  0.00000000000E+00 0. -1.
          6    2    1    2  501    0 -0.40707651514E+02  0.52358486264E+02  0.28868110781E+03  0.34120161980E+03  0.16936126882E+03 0.  0.
         24    2    3    3    0    0 -0.26548383518E+02  0.99744640425E+02  0.18566009182E+03  0.22682788063E+03  0.79545004728E+02 0.  0.
         -6    2    1    2    0  502  0.40707651514E+02 -0.52358486264E+02 -0.56070489222E+02  0.18743221462E+03  0.16609759583E+03 0.  0.
        -24    2    5    5    0    0  0.25349356356E+02  0.20452176882E+02  0.11561399707E+02  0.86767263929E+02  0.79586498350E+02 0.  0.
          5    1    3    3  501    0 -0.14159267996E+02 -0.47386154160E+02  0.10302101599E+03  0.11437373917E+03  0.47000000000E+01 0. -1.
        -11    1    4    4    0    0 -0.37277022765E+02  0.20372937308E+02  0.10448716210E+03  0.11279273046E+03  0.00000000000E+00 0.  1.
         12    1    4    4    0    0  0.10728639247E+02  0.79371703116E+02  0.81172929715E+02  0.11403515017E+03  0.00000000000E+00 0. -1.
         -5    1    5    5    0  502  0.15358295157E+02 -0.72810663147E+02 -0.67631888929E+02  0.10066495069E+03  0.47000000000E+01 0.  1.
         11    1    6    6    0    0  0.21599235399E+02 -0.28710998470E+02 -0.79263604805E+00  0.35937121127E+02  0.00000000000E+00 0. -1.
        -12    1    6    6    0    0  0.37501209571E+01  0.49163175352E+02  0.12354035755E+02  0.50830142802E+02  0.00000000000E+00 0.  1.
<mgrwt>
<rscale>  2 0.18112038E+03</rscale>
<asrwt>0</asrwt>
<pdfrwt beam="1">  1       21 0.58557265E-01 0.18188393E+03</pdfrwt>
<pdfrwt beam="2">  1       21 0.22771017E-01 0.18188393E+03</pdfrwt>
<totfact> 0.49630567E+04</totfact>
</mgrwt>
</event>
<event>
12    1  0.1039378E-001  0.1967040E+03  0.7546771E-02  0.1152921E+00
         21   -1    0    0  501  502  0.00000000000E+00  0.00000000000E+00  0.28321710460E+03  0.28321710460E+03  0.00000000000E+00 0.  1.
         21   -1    0    0  502  503 -0.00000000000E+00 -0.00000000000E+00 -0.14643418450E+03  0.14643418450E+03  0.00000000000E+00 0. -1.
         -6    2    1    2    0  503 -0.13401658397E+02  0.90233888929E+02  0.97781311912E+01  0.19694692316E+03  0.17427197002E+03 0.  0.
        -24    2    3    3    0    0  0.52975332405E+02  0.84472158069E+02 -0.61681965938E+01  0.12827758633E+03  0.80468386177E+02 0.  0.
          6    2    1    2  501    0  0.13401658397E+02 -0.90233888929E+02  0.12700478891E+03  0.23270436594E+03  0.17233498299E+03 0.  0.
         24    2    5    5    0    0  0.10293256060E+02  0.21520747378E+02  0.50125284525E+02  0.96942408469E+02  0.79474478438E+02 0.  0.
          5    1    5    5  501    0  0.31084023367E+01 -0.11175463631E+03  0.76879504381E+02  0.13576195747E+03  0.47000000000E+01 0. -1.
        -13    1    6    6    0    0 -0.27037628208E+02  0.81301912087E+01  0.49840177926E+02  0.57281556228E+02  0.00000000000E+00 0.  1.
         14    1    6    6    0    0  0.37330884268E+02  0.13390556170E+02  0.28510659935E+00  0.39660852241E+02  0.00000000000E+00 0. -1.
         -5    1    3    3    0  503 -0.66376990802E+02  0.57617308603E+01  0.15946327785E+02  0.68669336827E+02  0.47000000000E+01 0.  1.
         11    1    4    4    0    0  0.31064872708E+02  0.35920645592E+02 -0.42556772751E+02  0.63768315040E+02  0.00000000000E+00 0. -1.
        -12    1    4    4    0    0  0.21910459698E+02  0.48551512477E+02  0.36388576157E+02  0.64509271292E+02  0.00000000000E+00 0.  1.
<mgrwt>
<rscale>  2 0.19627412E+03</rscale>
<asrwt>0</asrwt>
<pdfrwt beam="1">  1       21 0.43571862E-01 0.19670404E+03</pdfrwt>
<pdfrwt beam="2">  1       21 0.22528336E-01 0.19670404E+03</pdfrwt>
<totfact> 0.93286590E+04</totfact>
</mgrwt>
</event>
<event>
12    1  0.1039378E-001  0.1811866E+03  0.7546771E-02  0.1167158E+00
         21   -1    0    0  501  502  0.00000000000E+00  0.00000000000E+00  0.39298862657E+03  0.39298862657E+03  0.00000000000E+00 0.  1.
         21   -1    0    0  502  503 -0.00000000000E+00 -0.00000000000E+00 -0.10391586406E+03  0.10391586406E+03  0.00000000000E+00 0.  1.
         -6    2    1    2    0  503 -0.17814634880E+01  0.47129509438E+02  0.25775254438E+03  0.31506340822E+03  0.17494059790E+03 0.  0.
        -24    2    3    3    0    0  0.10912041695E+02  0.27467830767E+02  0.27352325573E+03  0.28645375917E+03  0.79794926753E+02 0.  0.
          6    2    1    2  501    0  0.17814634880E+01 -0.47129509438E+02  0.31320218133E+02  0.18184108241E+03  0.17280294823E+03 0.  0.
         24    2    5    5    0    0  0.44177558217E+01  0.19182360713E+02  0.66893746534E+02  0.10639719543E+03  0.80362368934E+02 0.  0.
          5    1    5    5  501    0 -0.26362923337E+01 -0.66311870151E+02 -0.35573528401E+02  0.75443886983E+02  0.47000000000E+01 0. -1.
        -11    1    6    6    0    0 -0.37523612441E+02  0.69402107476E+01  0.23485288427E+02  0.44807887568E+02  0.00000000000E+00 0.  1.
         12    1    6    6    0    0  0.41941368263E+02  0.12242149965E+02  0.43408458107E+02  0.61589307860E+02  0.00000000000E+00 0. -1.
         -5    1    3    3    0  503 -0.12693505183E+02  0.19661678671E+02 -0.15770711356E+02  0.28609649049E+02  0.47000000000E+01 0.  1.
         13    1    4    4    0    0  0.13471428675E+02 -0.20480292949E+02  0.32578123722E+02  0.40770773050E+02  0.00000000000E+00 0. -1.
        -14    1    4    4    0    0 -0.25593869797E+01  0.47948123717E+02  0.24094513201E+03  0.24568298612E+03  0.00000000000E+00 0.  1.
<mgrwt>
<rscale>  2 0.18066859E+03</rscale>
<asrwt>0</asrwt>
<pdfrwt beam="1">  1       21 0.60459788E-01 0.18118658E+03</pdfrwt>
<pdfrwt beam="2">  1       21 0.15987056E-01 0.18118658E+03</pdfrwt>
<totfact> 0.89418320E+04</totfact>
</mgrwt>
</event>
<event>
12    1  0.1039378E-001  0.1905866E+03  0.7546771E-02  0.1158293E+00
         21   -1    0    0  503  502  0.00000000000E+00  0.00000000000E+00  0.53332516761E+03  0.53332516761E+03  0.00000000000E+00 0.  1.
         21   -1    0    0  501  503 -0.00000000000E+00 -0.00000000000E+00 -0.14746948614E+03  0.14746948614E+03  0.00000000000E+00 0.  1.
          6    2    1    2  501    0 -0.51480053259E+02 -0.60191677765E+02 -0.58049631393E+02  0.19770545736E+03  0.17159386414E+03 0.  0.
         24    2    3    3    0    0 -0.84304645012E+02 -0.82108960197E+02 -0.65332461148E+02  0.15729567263E+03  0.81390685176E+02 0.  0.
         -6    2    1    2    0  502  0.51480053259E+02  0.60191677765E+02  0.44390531286E+03  0.48308919638E+03  0.17334938973E+03 0.  0.
        -24    2    5    5    0    0  0.52646748291E+02 -0.31088952617E+02  0.22806317515E+03  0.24868904051E+03  0.78071915122E+02 0.  0.
          5    1    3    3  501    0  0.32824591752E+02  0.21917282432E+02  0.72828297545E+01  0.40409784733E+02  0.47000000000E+01 0. -1.
        -11    1    4    4    0    0 -0.44083762774E+02  0.28973222723E+01 -0.40730487046E+02  0.60089476547E+02  0.00000000000E+00 0.  1.
         12    1    4    4    0    0 -0.40220882238E+02 -0.85006282469E+02 -0.24601974101E+02  0.97206196083E+02  0.00000000000E+00 0. -1.
         -5    1    5    5    0  502 -0.11666950314E+01  0.91280630382E+02  0.21584213772E+03  0.23440015587E+03  0.47000000000E+01 0.  1.
         13    1    6    6    0    0 -0.14328979503E+02 -0.25924138450E+02  0.46876552701E+02  0.55450805234E+02  0.00000000000E+00 0. -1.
        -14    1    6    6    0    0  0.66975727794E+02 -0.51648141677E+01  0.18118662244E+03  0.19323823527E+03  0.00000000000E+00 0.  1.
<mgrwt>
<rscale>  2 0.19018649E+03</rscale>
<asrwt>0</asrwt>
<pdfrwt beam="1">  1       21 0.82050025E-01 0.19058658E+03</pdfrwt>
<pdfrwt beam="2">  1       21 0.22687614E-01 0.19058658E+03</pdfrwt>
<totfact> 0.23683516E+04</totfact>
</mgrwt>
</event>
<event>
12    1  0.1039378E-001  0.2091121E+03  0.7546771E-02  0.1143592E+00
         21   -1    0    0  503  502  0.00000000000E+00  0.00000000000E+00  0.11524042696E+04  0.11524042696E+04  0.00000000000E+00 0.  1.
         21   -1    0    0  501  503 -0.00000000000E+00 -0.00000000000E+00 -0.67960489208E+02  0.67960489208E+02  0.00000000000E+00 0.  1.
          6    2    1    2  501    0 -0.76932234721E+02 -0.88620769970E+02  0.96020987022E+03  0.98271607090E+03  0.17307706818E+03 0.  0.
         24    2    3    3    0    0 -0.98517939324E+02 -0.26320768009E+02  0.45271812999E+03  0.47093761366E+03  0.80187053490E+02 0.  0.
         -6    2    1    2    0  502  0.76932234721E+02  0.88620769970E+02  0.12423391012E+03  0.23764868786E+03  0.16513819911E+03 0.  0.
        -24    2    5    5    0    0  0.60032584875E+02 -0.72901644722E+01  0.89517497309E+02  0.13415074184E+03  0.79536038797E+02 0.  0.
          5    1    3    3  501    0  0.21585704603E+02 -0.62300001962E+02  0.50749174024E+03  0.51177845724E+03  0.47000000000E+01 0. -1.
        -13    1    4    4    0    0 -0.37654662363E+02  0.21888561036E+02  0.25179798592E+03  0.25553709792E+03  0.00000000000E+00 0.  1.
         14    1    4    4    0    0 -0.60863276960E+02 -0.48209329045E+02  0.20092014407E+03  0.21540051574E+03  0.00000000000E+00 0. -1.
         -5    1    5    5    0  502  0.16899649846E+02  0.95910934443E+02  0.34716412813E+02  0.10349794601E+03  0.47000000000E+01 0.  1.
         11    1    6    6    0    0 -0.89448785811E+01  0.18006328865E+02  0.42248184926E+02  0.46788330399E+02  0.00000000000E+00 0. -1.
        -12    1    6    6    0    0  0.68977463456E+02 -0.25296493337E+02  0.47269312383E+02  0.87362411443E+02  0.00000000000E+00 0.  1.
<mgrwt>
<rscale>  2 0.20746225E+03</rscale>
<asrwt>0</asrwt>
<pdfrwt beam="1">  1       21 0.17729295E+00 0.20911213E+03</pdfrwt>
<pdfrwt beam="2">  1       21 0.10455461E-01 0.20911213E+03</pdfrwt>
<totfact> 0.14066154E+04</totfact>
</mgrwt>
</event>
<event>
12    1  0.1039378E-001  0.1714636E+03  0.7546771E-02  0.1177024E+00
         21   -1    0    0  503  502  0.00000000000E+00  0.00000000000E+00  0.36698903812E+03  0.36698903812E+03  0.00000000000E+00 0.  1.
         21   -1    0    0  501  503 -0.00000000000E+00 -0.00000000000E+00 -0.91837543047E+02  0.91837543047E+02  0.00000000000E+00 0.  1.
          6    2    1    2  501    0  0.49708385639E+01 -0.11430247744E+02  0.50437366646E+02  0.17616739688E+03  0.16833200518E+03 0.  0.
         24    2    3    3    0    0  0.28962397806E+02 -0.28494016380E+02 -0.27080777606E+02  0.93113680504E+02  0.79284673961E+02 0.  0.
         -6    2    1    2    0  502 -0.49708385639E+01  0.11430247744E+02  0.22471412843E+03  0.28265918429E+03  0.17100998553E+03 0.  0.
        -24    2    5    5    0    0  0.19663877608E+02 -0.51295382480E+02  0.16954166747E+03  0.19543840479E+03  0.80211649495E+02 0.  0.
          5    1    3    3  501    0 -0.23991559242E+02  0.17063768637E+02  0.77518144251E+02  0.83053716372E+02  0.47000000000E+01 0. -1.
        -13    1    4    4    0    0  0.53244113427E+02 -0.11018924573E+02 -0.31553819024E+02  0.62864901244E+02  0.00000000000E+00 0.  1.
         14    1    4    4    0    0 -0.24281715621E+02 -0.17475091808E+02  0.44730414180E+01  0.30248779260E+02  0.00000000000E+00 0. -1.
         -5    1    5    5    0  502 -0.24634716172E+02  0.62725630223E+02  0.55172460964E+02  0.87220779501E+02  0.47000000000E+01 0.  1.
         13    1    6    6    0    0 -0.25314192380E+02 -0.14428881740E+02  0.20996211273E+02  0.35914368322E+02  0.00000000000E+00 0. -1.
        -14    1    6    6    0    0  0.44978069988E+02 -0.36866500740E+02  0.14854545619E+03  0.15952403647E+03  0.00000000000E+00 0.  1.
<mgrwt>
<rscale>  2 0.17079199E+03</rscale>
<asrwt>0</asrwt>
<pdfrwt beam="1">  1       21 0.56459851E-01 0.17146363E+03</pdfrwt>
<pdfrwt beam="2">  1       21 0.14128853E-01 0.17146363E+03</pdfrwt>
<totfact> 0.13000862E+05</totfact>
</mgrwt>
</event>
<event>
12    1  0.1039378E-001  0.1929209E+03  0.7546771E-02  0.1155941E+00
         21   -1    0    0  503  502  0.00000000000E+00  0.00000000000E+00  0.15316069204E+03  0.15316069204E+03  0.00000000000E+00 0.  1.
         21   -1    0    0  501  503 -0.00000000000E+00 -0.00000000000E+00 -0.35533763738E+03  0.35533763738E+03  0.00000000000E+00 0.  1.
          6    2    1    2  501    0 -0.71188533256E+02  0.45222990500E+02 -0.24428899798E+03  0.31103469877E+03  0.17306803046E+03 0.  0.
         24    2    3    3    0    0  0.29513782949E+02  0.21027746986E+02 -0.11539824024E+03  0.14562223331E+03  0.81091623835E+02 0.  0.
         -6    2    1    2    0  502  0.71188533256E+02 -0.45222990500E+02  0.42112052643E+02  0.19746363064E+03  0.17350946462E+03 0.  0.
        -24    2    5    5    0    0 -0.16164513482E+02 -0.60149165765E+02  0.38992286923E+02  0.10866515982E+03  0.80053137857E+02 0.  0.
          5    1    3    3  501    0 -0.10070231621E+03  0.24195243514E+02 -0.12889075774E+03  0.16541246546E+03  0.47000000000E+01 0. -1.
        -13    1    4    4    0    0 -0.14146641635E+02  0.85685050415E+01 -0.93973420868E+02  0.95417768669E+02  0.00000000000E+00 0.  1.
         14    1    4    4    0    0  0.43660424585E+02  0.12459241945E+02 -0.21424819375E+02  0.50204464642E+02  0.00000000000E+00 0. -1.
         -5    1    5    5    0  502  0.87353046739E+02  0.14926175265E+02  0.31197657195E+01  0.88798470824E+02  0.47000000000E+01 0.  1.
         13    1    6    6    0    0 -0.38558364286E+02 -0.46908327930E+01  0.32228825808E+01  0.38976125267E+02  0.00000000000E+00 0. -1.
        -14    1    6    6    0    0  0.22393850804E+02 -0.55458332972E+02  0.35769404342E+02  0.69689034552E+02  0.00000000000E+00 0.  1.
<mgrwt>
<rscale>  2 0.19282156E+03</rscale>
<asrwt>0</asrwt>
<pdfrwt beam="1">  1       21 0.23563183E-01 0.19292087E+03</pdfrwt>
<pdfrwt beam="2">  1       21 0.54667329E-01 0.19292087E+03</pdfrwt>
<totfact> 0.53559430E+04</totfact>
</mgrwt>
</event>
<event>
12    1  0.1039378E-001  0.1996101E+03  0.7546771E-02  0.1151403E+00
         21   -1    0    0  501  502  0.00000000000E+00  0.00000000000E+00  0.28766094183E+03  0.28766094183E+03  0.00000000000E+00 0.  1.
         21   -1    0    0  502  503 -0.00000000000E+00 -0.00000000000E+00 -0.15583293239E+03  0.15583293239E+03  0.00000000000E+00 0.  1.
         -6    2    1    2    0  503 -0.96120755761E+02 -0.36091417702E+01 -0.15724980801E+02  0.20022857554E+03  0.17490563699E+03 0.  0.
        -24    2    3    3    0    0 -0.12751452014E+03  0.14352590008E+01  0.20513289582E+02  0.15178978260E+03  0.79732867987E+02 0.  0.
          6    2    1    2  501    0  0.96120755761E+02  0.36091417702E+01  0.14755299024E+03  0.24326529868E+03  0.16779122450E+03 0.  0.
         24    2    5    5    0    0  0.75083837716E+02  0.96710209274E+00  0.17769214560E+02  0.11167711256E+03  0.80731124801E+02 0.  0.
          5    1    5    5  501    0  0.21036918045E+02  0.26420396775E+01  0.12978377568E+03  0.13158818612E+03  0.47000000000E+01 0. -1.
        -13    1    6    6    0    0  0.61665429080E+02 -0.10484866459E+01  0.48254454549E+02  0.78308472413E+02  0.00000000000E+00 0.  1.
         14    1    6    6    0    0  0.13418408636E+02  0.20155887386E+01 -0.30485239989E+02  0.33368640150E+02  0.00000000000E+00 0. -1.
         -5    1    3    3    0  503  0.31393764382E+02 -0.50444007710E+01 -0.36238270383E+02  0.48438792940E+02  0.47000000000E+01 0.  1.
         13    1    4    4    0    0 -0.69928404231E+02 -0.15542803313E+01  0.50998630944E+02  0.86563605885E+02  0.00000000000E+00 0. -1.
        -14    1    4    4    0    0 -0.57586115912E+02  0.29895393321E+01 -0.30485341362E+02  0.65226176718E+02  0.00000000000E+00 0.  1.
<mgrwt>
<rscale>  2 0.19804085E+03</rscale>
<asrwt>0</asrwt>
<pdfrwt beam="1">  1       21 0.44255529E-01 0.19961014E+03</pdfrwt>
<pdfrwt beam="2">  1       21 0.23974297E-01 0.19961014E+03</pdfrwt>
<totfact> 0.80204027E+04</totfact>
</mgrwt>
</event>
<event>
12    1  0.1039378E-001  0.2366952E+03  0.7546771E-02  0.1122210E+00
         21   -1    0    0  503  502  0.00000000000E+00  0.00000000000E+00  0.22599391831E+04  0.22599391831E+04  0.00000000000E+00 0. -1.
         21   -1    0    0  501  503 -0.00000000000E+00 -0.00000000000E+00 -0.26511482478E+02  0.26511482478E+02  0.00000000000E+00 0. -1.
          6    2    1    2  501    0 -0.15091246345E+03  0.55904622757E+02  0.81792910650E+03  0.85148849796E+03  0.17356480183E+03 0.  0.
         24    2    3    3    0    0 -0.78956108336E+02  0.47928227173E+02  0.71400247667E+03  0.72474397416E+03  0.83205224470E+02 0.  0.
         -6    2    1    2    0  502  0.15091246345E+03 -0.55904622757E+02  0.14154985942E+04  0.14349621676E+04  0.17198911029E+03 0.  0.
        -24    2    5    5    0    0  0.13768730395E+03 -0.97439107164E+02  0.10279947223E+04  0.10449860672E+04  0.82283401959E+02 0.  0.
          5    1    3    3  501    0 -0.71956355111E+02  0.79763955841E+01  0.10392662983E+03  0.12674452380E+03  0.47000000000E+01 0. -1.
        -13    1    4    4    0    0 -0.17232109874E+02 -0.89941674621E-01  0.42496030457E+03  0.42530955099E+03  0.00000000000E+00 0.  1.
         14    1    4    4    0    0 -0.61723998462E+02  0.48018168847E+02  0.28904217210E+03  0.29943442317E+03  0.00000000000E+00 0. -1.
         -5    1    5    5    0  502  0.13225159501E+02  0.41534484407E+02  0.38750387183E+03  0.38997610045E+03  0.47000000000E+01 0.  1.
         13    1    6    6    0    0  0.12896218984E+03 -0.63931584245E+02  0.92958070712E+03  0.94065869736E+03  0.00000000000E+00 0. -1.
        -14    1    6    6    0    0  0.87251141059E+01 -0.33507522919E+02  0.98414015209E+02  0.10432736984E+03  0.00000000000E+00 0.  1.
<mgrwt>
<rscale>  2 0.23640647E+03</rscale>
<asrwt>0</asrwt>
<pdfrwt beam="1">  1       21 0.34768280E+00 0.23669524E+03</pdfrwt>
<pdfrwt beam="2">  1       21 0.40786914E-02 0.23669524E+03</pdfrwt>
<totfact> 0.65124795E+03</totfact>
</mgrwt>
</event>
<event>
12    1  0.1039378E-001  0.3131813E+03  0.7546771E-02  0.1078899E+00
         21   -1    0    0  503  502  0.00000000000E+00  0.00000000000E+00  0.37435399238E+03  0.37435399238E+03  0.00000000000E+00 0.  1.
         21   -1    0    0  501  503 -0.00000000000E+00 -0.00000000000E+00 -0.27995362187E+03  0.27995362187E+03  0.00000000000E+00 0. -1.
          6    2    1    2  501    0 -0.37301724541E+02 -0.25825720008E+03 -0.36772253427E+02  0.31476559620E+03  0.17215394820E+03 0.  0.
         24    2    3    3    0    0 -0.40543927148E+02 -0.27543500352E+03 -0.50931865017E+02  0.29178357259E+03  0.70960180142E+02 0.  0.
         -6    2    1    2    0  502  0.37301724541E+02  0.25825720008E+03  0.13117262394E+03  0.33954201804E+03  0.17318869679E+03 0.  0.
        -24    2    5    5    0    0 -0.37705571147E+02  0.19318014442E+03  0.84267700778E+02  0.22961804706E+03  0.82964593939E+02 0.  0.
          5    1    3    3  501    0  0.32422026064E+01  0.17177803440E+02  0.14159611590E+02  0.22982023608E+02  0.47000000000E+01 0. -1.
        -13    1    4    4    0    0 -0.24930993723E+02 -0.18430540063E+03  0.49816153810E+00  0.18598463193E+03  0.00000000000E+00 0.  1.
         14    1    4    4    0    0 -0.15612933425E+02 -0.91129602895E+02 -0.51430026555E+02  0.10579894066E+03  0.00000000000E+00 0. -1.
         -5    1    5    5    0  502  0.75007295688E+02  0.65077055668E+02  0.46904923162E+02  0.10992397099E+03  0.47000000000E+01 0.  1.
         13    1    6    6    0    0 -0.55606123169E+02  0.13545685136E+03  0.32378582182E+02  0.14996323582E+03  0.00000000000E+00 0. -1.
        -14    1    6    6    0    0  0.17900552022E+02  0.57723293053E+02  0.51889118595E+02  0.79654811231E+02  0.00000000000E+00 0.  1.
<mgrwt>
<rscale>  2 0.31303844E+03</rscale>
<asrwt>0</asrwt>
<pdfrwt beam="1">  1       21 0.57592922E-01 0.31318130E+03</pdfrwt>
<pdfrwt beam="2">  1       21 0.43069788E-01 0.31318130E+03</pdfrwt>
<totfact> 0.13776001E+04</totfact>
</mgrwt>
</event>
<event>
12    1  0.1039378E-001  0.2003540E+03  0.7546771E-02  0.1149902E+00
         21   -1    0    0  501  502  0.00000000000E+00  0.00000000000E+00  0.65836622154E+03  0.65836622154E+03  0.00000000000E+00 0.  1.
         21   -1    0    0  502  503 -0.00000000000E+00 -0.00000000000E+00 -0.30420015159E+03  0.30420015159E+03  0.00000000000E+00 0.  1.
         -6    2    1    2    0  503  0.84047548086E+02 -0.55184860988E+02 -0.25404869948E+03  0.32220167439E+03  0.17077417266E+03 0.  0.
        -24    2    3    3    0    0  0.76127309478E+02 -0.87966952081E+02 -0.12429490502E+03  0.18805424484E+03  0.79885065449E+02 0.  0.
          6    2    1    2  501    0 -0.84047548086E+02  0.55184860988E+02  0.60821476944E+03  0.64036469874E+03  0.17329853552E+03 0.  0.
         24    2    5    5    0    0 -0.11569256420E+03  0.29491870785E+02  0.34351734420E+03  0.37250586705E+03  0.80634455187E+02 0.  0.
          5    1    5    5  501    0  0.31645016115E+02  0.25692990203E+02  0.26469742524E+03  0.26785883169E+03  0.47000000000E+01 0. -1.
        -13    1    6    6    0    0 -0.78564936246E+02  0.10584497848E+01  0.11517014688E+03  0.13941926787E+03  0.00000000000E+00 0.  1.
         14    1    6    6    0    0 -0.37127627955E+02  0.28433421000E+02  0.22834719732E+03  0.23308659917E+03  0.00000000000E+00 0. -1.
         -5    1    3    3    0  503  0.79202386083E+01  0.32782091093E+02 -0.12975379447E+03  0.13414742955E+03  0.47000000000E+01 0.  1.
         13    1    4    4    0    0  0.86941929471E+02 -0.67267839779E+02 -0.73748135704E+02  0.13237314263E+03  0.00000000000E+00 0. -1.
        -14    1    4    4    0    0 -0.10814619993E+02 -0.20699112302E+02 -0.50546769314E+02  0.55681102214E+02  0.00000000000E+00 0.  1.
<mgrwt>
<rscale>  2 0.19980695E+03</rscale>
<asrwt>0</asrwt>
<pdfrwt beam="1">  1       21 0.10128711E+00 0.20035404E+03</pdfrwt>
<pdfrwt beam="2">  1       21 0.46800024E-01 0.20035404E+03</pdfrwt>
<totfact> 0.34583652E+03</totfact>
</mgrwt>
</event>
<event>
12    1  0.1039378E-001  0.3500578E+03  0.7546771E-02  0.1062600E+00
         21   -1    0    0  501  502  0.00000000000E+00  0.00000000000E+00  0.73624336630E+03  0.73624336630E+03  0.00000000000E+00 0. -1.
         21   -1    0    0  502  503 -0.00000000000E+00 -0.00000000000E+00 -0.21730633961E+03  0.21730633961E+03  0.00000000000E+00 0.  1.
         -6    2    1    2    0  503 -0.16971630878E+03 -0.25224849711E+03  0.28727447614E+02  0.35123461442E+03  0.17351529719E+03 0.  0.
        -24    2    3    3    0    0 -0.10329430327E+03 -0.24883420961E+03  0.39311298535E+02  0.28372425910E+03  0.79786590640E+02 0.  0.
          6    2    1    2  501    0  0.16971630878E+03  0.25224849711E+03  0.49020957908E+03  0.60231509148E+03  0.17333524814E+03 0.  0.
         24    2    5    5    0    0  0.22121003426E+02  0.11723447046E+03  0.15145788177E+03  0.20888407595E+03  0.80372926900E+02 0.  0.
          5    1    5    5  501    0  0.14759530536E+03  0.13501402666E+03  0.33875169731E+03  0.39343101554E+03  0.47000000000E+01 0. -1.
        -11    1    6    6    0    0 -0.14388295286E+02 -0.33567895207E+01  0.47987685741E+01  0.15534453867E+02  0.00000000000E+00 0.  1.
         12    1    6    6    0    0  0.36509298712E+02  0.12059125998E+03  0.14665911319E+03  0.19334962208E+03  0.00000000000E+00 0. -1.
         -5    1    3    3    0  503 -0.66422005515E+02 -0.34142874990E+01 -0.10583850921E+02  0.67510355325E+02  0.47000000000E+01 0.  1.
         11    1    4    4    0    0 -0.59900240296E+00 -0.99811796911E+02  0.89434356768E+01  0.10021346540E+03  0.00000000000E+00 0. -1.
        -12    1    4    4    0    0 -0.10269530087E+03 -0.14902241270E+03  0.30367862858E+02  0.18351079369E+03  0.00000000000E+00 0.  1.
<mgrwt>
<rscale>  2 0.35003553E+03</rscale>
<asrwt>0</asrwt>
<pdfrwt beam="1">  1       21 0.11326821E+00 0.35005784E+03</pdfrwt>
<pdfrwt beam="2">  1       21 0.33431745E-01 0.35005784E+03</pdfrwt>
<totfact> 0.47700360E+03</totfact>
</mgrwt>
</event>
<event>
12    1  0.1039378E-001  0.1881959E+03  0.7546771E-02  0.1160114E+00
         21   -1    0    0  503  502  0.00000000000E+00  0.00000000000E+00  0.68605269456E+03  0.68605269456E+03  0.00000000000E+00 0. -1.
         21   -1    0    0  501  503 -0.00000000000E+00 -0.00000000000E+00 -0.10632616718E+03  0.10632616718E+03  0.00000000000E+00 0.  1.
          6    2    1    2  501    0 -0.41880729301E+02 -0.62354212397E+02  0.56178446883E+01  0.18821128141E+03  0.17248154388E+03 0.  0.
         24    2    3    3    0    0 -0.53818639780E+02 -0.26344287572E+02 -0.55056306255E+02  0.11649886278E+03  0.83368583382E+02 0.  0.
         -6    2    1    2    0  502  0.41880729301E+02  0.62354212397E+02  0.57410868269E+03  0.60416758033E+03  0.17255620040E+03 0.  0.
        -24    2    5    5    0    0  0.61413508647E+02  0.10195544631E+03  0.44128247414E+03  0.46411516560E+03  0.80660603004E+02 0.  0.
          5    1    3    3  501    0  0.11937910479E+02 -0.36009924825E+02  0.60674150943E+02  0.71712418626E+02  0.47000000000E+01 0. -1.
        -13    1    4    4    0    0 -0.25805290134E+02 -0.19778444112E+00 -0.70583446542E+02  0.75153010873E+02  0.00000000000E+00 0.  1.
         14    1    4    4    0    0 -0.28013349646E+02 -0.26146503131E+02  0.15527140287E+02  0.41345851907E+02  0.00000000000E+00 0. -1.
         -5    1    5    5    0  502 -0.19532779346E+02 -0.39601233911E+02  0.13282620855E+03  0.14005241474E+03  0.47000000000E+01 0.  1.
         13    1    6    6    0    0  0.35240519736E+02  0.63720646609E+02  0.12666076974E+03  0.14609984814E+03  0.00000000000E+00 0. -1.
        -14    1    6    6    0    0  0.26172988911E+02  0.38234799699E+02  0.31462170441E+03  0.31801531746E+03  0.00000000000E+00 0.  1.
<mgrwt>
<rscale>  2 0.18817876E+03</rscale>
<asrwt>0</asrwt>
<pdfrwt beam="1">  1       21 0.10554657E+00 0.18819587E+03</pdfrwt>
<pdfrwt beam="2">  1       21 0.16357872E-01 0.18819587E+03</pdfrwt>
<totfact> 0.24224248E+04</totfact>
</mgrwt>
</event>
<event>
12    1  0.1039378E-001  0.2404828E+03  0.7546771E-02  0.1119476E+00
         21   -1    0    0  501  502  0.00000000000E+00  0.00000000000E+00  0.12548061943E+03  0.12548061943E+03  0.00000000000E+00 0.  1.
         21   -1    0    0  502  503 -0.00000000000E+00 -0.00000000000E+00 -0.46087113527E+03  0.46087113527E+03  0.00000000000E+00 0. -1.
         -6    2    1    2    0  503  0.16265312928E+03  0.42395423386E+02 -0.16492052749E+03  0.29160029913E+03  0.17198413204E+03 0.  0.
        -24    2    3    3    0    0  0.18657422650E+03  0.52587319149E+02 -0.12331520709E+03  0.24231352283E+03  0.77031389169E+02 0.  0.
          6    2    1    2  501    0 -0.16265312928E+03 -0.42395423386E+02 -0.17046998835E+03  0.29475145557E+03  0.17194473312E+03 0.  0.
         24    2    5    5    0    0 -0.11355285145E+03  0.39512497543E+02 -0.11292680487E+03  0.18315820865E+03  0.79617702826E+02 0.  0.
          5    1    5    5  501    0 -0.49100277834E+02 -0.81907920930E+02 -0.57543183471E+02  0.11159324692E+03  0.47000000000E+01 0. -1.
        -11    1    6    6    0    0 -0.17292654615E+02  0.28643284326E+02  0.11768010306E+01  0.33479224920E+02  0.00000000000E+00 0.  1.
         12    1    6    6    0    0 -0.96260196834E+02  0.10869213218E+02 -0.11410360591E+03  0.14967898373E+03  0.00000000000E+00 0. -1.
         -5    1    3    3    0  503 -0.23921097221E+02 -0.10191895763E+02 -0.41605320403E+02  0.49286776293E+02  0.47000000000E+01 0.  1.
         11    1    4    4    0    0  0.18631287220E+02  0.94431351828E+00 -0.47347515374E+02  0.50890114989E+02  0.00000000000E+00 0. -1.
        -12    1    4    4    0    0  0.16794293928E+03  0.51643005630E+02 -0.75967691717E+02  0.19142340784E+03  0.00000000000E+00 0.  1.
<mgrwt>
<rscale>  2 0.24047571E+03</rscale>
<asrwt>0</asrwt>
<pdfrwt beam="1">  1       21 0.19304711E-01 0.24048275E+03</pdfrwt>
<pdfrwt beam="2">  1       21 0.70903252E-01 0.24048275E+03</pdfrwt>
<totfact> 0.43413934E+04</totfact>
</mgrwt>
</event>
<event>
12    1  0.1039378E-001  0.1797642E+03  0.7546771E-02  0.1171715E+00
         21   -1    0    0  501  502  0.00000000000E+00  0.00000000000E+00  0.58709740014E+02  0.58709740014E+02  0.00000000000E+00 0. -1.
         21   -1    0    0  502  503 -0.00000000000E+00 -0.00000000000E+00 -0.68046136431E+03  0.68046136431E+03  0.00000000000E+00 0. -1.
         -6    2    1    2    0  503  0.66649921333E+01 -0.47782940333E+02 -0.13405994617E+03  0.22424814212E+03  0.17316907510E+03 0.  0.
        -24    2    3    3    0    0  0.64883324822E+02 -0.59733519045E+02 -0.75917962449E+02  0.14097287050E+03  0.79573073695E+02 0.  0.
          6    2    1    2  501    0 -0.66649921333E+01  0.47782940333E+02 -0.48769167812E+03  0.51492296220E+03  0.15803433988E+03 0.  0.
         24    2    5    5    0    0 -0.55002418393E+02  0.48619837285E+02 -0.37718143715E+03  0.39420920767E+03  0.88010841775E+02 0.  0.
          5    1    5    5  501    0  0.48337426260E+02 -0.83689695240E+00 -0.11051024097E+03  0.12071375453E+03  0.47000000000E+01 0. -1.
        -13    1    6    6    0    0 -0.37874580604E+02  0.89627857965E+01 -0.46148673403E+02  0.60369822279E+02  0.00000000000E+00 0.  1.
         14    1    6    6    0    0 -0.17127837789E+02  0.39657051489E+02 -0.33103276375E+03  0.33383938539E+03  0.00000000000E+00 0. -1.
         -5    1    3    3    0  503 -0.58218332688E+02  0.11950578712E+02 -0.58141983721E+02  0.83275271621E+02  0.47000000000E+01 0.  1.
         13    1    4    4    0    0  0.34389904035E+02 -0.66251407147E+02 -0.20540540287E+02  0.77419818159E+02  0.00000000000E+00 0. -1.
        -14    1    4    4    0    0  0.30493420786E+02  0.65178881025E+01 -0.55377422161E+02  0.63553052341E+02  0.00000000000E+00 0.  1.
<mgrwt>
<rscale>  2 0.17601620E+03</rscale>
<asrwt>0</asrwt>
<pdfrwt beam="1">  1       21 0.90322680E-02 0.17976418E+03</pdfrwt>
<pdfrwt beam="2">  1       21 0.10468636E+00 0.17976418E+03</pdfrwt>
<totfact> 0.71855221E+04</totfact>
</mgrwt>
</event>
<event>
12    1  0.1039378E-001  0.1732129E+03  0.7546771E-02  0.1174891E+00
         21   -1    0    0  501  502  0.00000000000E+00  0.00000000000E+00  0.32446466402E+03  0.32446466402E+03  0.00000000000E+00 0. -1.
         21   -1    0    0  502  503 -0.00000000000E+00 -0.00000000000E+00 -0.25389059372E+03  0.25389059372E+03  0.00000000000E+00 0. -1.
         -6    2    1    2    0  503  0.18004765040E+01 -0.40370895031E+01 -0.19586859965E+03  0.26055910634E+03  0.17177601625E+03 0.  0.
        -24    2    3    3    0    0 -0.49053276715E+02  0.37185012796E+02 -0.14524700658E+03  0.17767363343E+03  0.81745201461E+02 0.  0.
          6    2    1    2  501    0 -0.18004765040E+01  0.40370895031E+01  0.26644266995E+03  0.31779615140E+03  0.17315645430E+03 0.  0.
         24    2    5    5    0    0  0.30212102454E+02  0.48697095727E+02  0.88106388928E+02  0.13112735246E+03  0.78405793962E+02 0.  0.
          5    1    5    5  501    0 -0.32012578958E+02 -0.44660006224E+02  0.17833628102E+03  0.18666879894E+03  0.47000000000E+01 0. -1.
        -13    1    6    6    0    0 -0.97888212296E+01  0.36747796372E+02  0.53056848054E+01  0.38397550058E+02  0.00000000000E+00 0.  1.
         14    1    6    6    0    0  0.40000923683E+02  0.11949299355E+02  0.82800704123E+02  0.92729802404E+02  0.00000000000E+00 0. -1.
         -5    1    3    3    0  503  0.50853753219E+02 -0.41222102299E+02 -0.50621593071E+02  0.82885472910E+02  0.47000000000E+01 0.  1.
         13    1    4    4    0    0  0.82732853302E+01 -0.76083927702E+01 -0.77345135441E+02  0.78157564362E+02  0.00000000000E+00 0. -1.
        -14    1    4    4    0    0 -0.57326562045E+02  0.44793405566E+02 -0.67901871142E+02  0.99516069068E+02  0.00000000000E+00 0.  1.
<mgrwt>
<rscale>  2 0.17286684E+03</rscale>
<asrwt>0</asrwt>
<pdfrwt beam="1">  1       21 0.49917641E-01 0.17321287E+03</pdfrwt>
<pdfrwt beam="2">  1       21 0.39060091E-01 0.17321287E+03</pdfrwt>
<totfact> 0.24435366E+04</totfact>
</mgrwt>
</event>
<event>
12    1  0.1039378E-001  0.2135525E+03  0.7546771E-02  0.1139046E+00
         21   -1    0    0  503  502  0.00000000000E+00  0.00000000000E+00  0.18153288914E+04  0.18153288914E+04  0.00000000000E+00 0.  1.
         21   -1    0    0  501  503 -0.00000000000E+00 -0.00000000000E+00 -0.54691341319E+02  0.54691341319E+02  0.00000000000E+00 0. -1.
          6    2    1    2  501    0 -0.11694820546E+03 -0.40874356285E+02  0.18969847098E+03  0.28463249652E+03  0.17228625140E+03 0.  0.
         24    2    3    3    0    0 -0.48680444610E+02 -0.50929319408E+02  0.18732987059E+03  0.21542780215E+03  0.79706187085E+02 0.  0.
         -6    2    1    2    0  502  0.11694820546E+03  0.40874356285E+02  0.15709390791E+04  0.15853877362E+04  0.17394564689E+03 0.  0.
        -24    2    5    5    0    0  0.54975513593E+02  0.75094816273E+02  0.57069358372E+03  0.58262914339E+03  0.71442380289E+02 0.  0.
          5    1    3    3  501    0 -0.68267760851E+02  0.10054963123E+02  0.23686003843E+01  0.69204694370E+02  0.47000000000E+01 0. -1.
        -11    1    4    4    0    0  0.22086251095E+02 -0.86095669434E+01  0.36278833780E+02  0.43336830881E+02  0.00000000000E+00 0.  1.
         12    1    4    4    0    0 -0.70766695705E+02 -0.42319752465E+02  0.15105103681E+03  0.17209097127E+03  0.00000000000E+00 0. -1.
         -5    1    5    5    0  502  0.61972691868E+02 -0.34220459988E+02  0.10002454954E+04  0.10027585928E+04  0.47000000000E+01 0.  1.
         13    1    6    6    0    0  0.16077489331E+01  0.69279191613E+01  0.20057380732E+01  0.73894455648E+01  0.00000000000E+00 0. -1.
        -14    1    6    6    0    0  0.53367764660E+02  0.68166897112E+02  0.56868784565E+03  0.57523969783E+03  0.00000000000E+00 0.  1.
<mgrwt>
<rscale>  2 0.21321437E+03</rscale>
<asrwt>0</asrwt>
<pdfrwt beam="1">  1       21 0.27928132E+00 0.21355253E+03</pdfrwt>
<pdfrwt beam="2">  1       21 0.84140539E-02 0.21355253E+03</pdfrwt>
<totfact> 0.48284465E+03</totfact>
</mgrwt>
</event>
<event>
12    1  0.1039378E-001  0.1794075E+03  0.7546771E-02  0.1168641E+00
         21   -1    0    0  503  502  0.00000000000E+00  0.00000000000E+00  0.48903482298E+03  0.48903482298E+03  0.00000000000E+00 0.  1.
         21   -1    0    0  501  503 -0.00000000000E+00 -0.00000000000E+00 -0.14399495352E+03  0.14399495352E+03  0.00000000000E+00 0.  1.
          6    2    1    2  501    0 -0.15167604020E+02  0.41334973027E+02 -0.61049240725E+02  0.18951002141E+03  0.17392067794E+03 0.  0.
         24    2    3    3    0    0 -0.63207431244E+02  0.94674476317E+01 -0.79406527593E+02  0.12882687584E+03  0.78779155783E+02 0.  0.
         -6    2    1    2    0  502  0.15167604020E+02 -0.41334973027E+02  0.40608911019E+03  0.44351975510E+03  0.17280848226E+03 0.  0.
        -24    2    5    5    0    0 -0.41719106930E+02  0.30849722980E+02  0.20390808125E+03  0.22138018932E+03  0.68836715016E+02 0.  0.
          5    1    3    3  501    0  0.48039827224E+02  0.31867525396E+02  0.18357286868E+02  0.60683145565E+02  0.47000000000E+01 0. -1.
        -13    1    4    4    0    0 -0.19118510922E+02  0.24633466735E+02  0.57822385454E+01  0.31713710377E+02  0.00000000000E+00 0.  1.
         14    1    4    4    0    0 -0.44088920322E+02 -0.15166019104E+02 -0.85188766139E+02  0.97113165466E+02  0.00000000000E+00 0. -1.
         -5    1    5    5    0  502  0.56886710950E+02 -0.72184696008E+02  0.20218102894E+03  0.22213956578E+03  0.47000000000E+01 0.  1.
         13    1    6    6    0    0 -0.33425127037E+02 -0.13075330053E+02  0.53143331263E+02  0.64128129797E+02  0.00000000000E+00 0. -1.
        -14    1    6    6    0    0 -0.82939798933E+01  0.43925053034E+02  0.15076474998E+03  0.15725205952E+03  0.00000000000E+00 0.  1.
<mgrwt>
<rscale>  2 0.17913736E+03</rscale>
<asrwt>0</asrwt>
<pdfrwt beam="1">  1       21 0.75236126E-01 0.17940746E+03</pdfrwt>
<pdfrwt beam="2">  1       21 0.22153070E-01 0.17940746E+03</pdfrwt>
<totfact> 0.30299176E+04</totfact>
</mgrwt>
</event>
<event>
12    1  0.1039378E-001  0.2088358E+03  0.7546771E-02  0.1142570E+00
         21   -1    0    0  503  502  0.00000000000E+00  0.00000000000E+00  0.35242784510E+03  0.35242784510E+03  0.00000000000E+00 0.  1.
         21   -1    0    0  501  503 -0.00000000000E+00 -0.00000000000E+00 -0.13180541326E+03  0.13180541326E+03  0.00000000000E+00 0.  1.
          6    2    1    2  501    0 -0.70870281880E+02 -0.92451537665E+02  0.49488631296E+02  0.21423481046E+03  0.17285122423E+03 0.  0.
         24    2    3    3    0    0 -0.70495098445E+02 -0.12781174601E+03  0.19201451104E+02  0.16743856723E+03  0.79759493169E+02 0.  0.
         -6    2    1    2    0  502  0.70870281880E+02  0.92451537665E+02  0.17113380054E+03  0.26999844789E+03  0.17332772572E+03 0.  0.
        -24    2    5    5    0    0  0.97072878380E+02  0.11614146501E+03  0.12481279151E+03  0.21155604377E+03  0.79156447117E+02 0.  0.
          5    1    3    3  501    0 -0.37518343500E+00  0.35360208341E+02  0.30287180192E+02  0.46796243231E+02  0.47000000000E+01 0. -1.
        -11    1    4    4    0    0  0.11852226510E+02 -0.47930031873E+02 -0.66952820727E+01  0.49825596140E+02  0.00000000000E+00 0.  1.
         12    1    4    4    0    0 -0.82347324956E+02 -0.79881714132E+02  0.25896733177E+02  0.11761297109E+03  0.00000000000E+00 0. -1.
         -5    1    5    5    0  502 -0.26202596500E+02 -0.23689927346E+02  0.46321009035E+02  0.58442404118E+02  0.47000000000E+01 0.  1.
         11    1    6    6    0    0  0.36642532929E+02 -0.24432294265E+01  0.36822962714E+02  0.52005530211E+02  0.00000000000E+00 0. -1.
        -12    1    6    6    0    0  0.60430345451E+02  0.11858469444E+03  0.87989828795E+02  0.15955051356E+03  0.00000000000E+00 0.  1.
<mgrwt>
<rscale>  2 0.20873688E+03</rscale>
<asrwt>0</asrwt>
<pdfrwt beam="1">  1       21 0.54219668E-01 0.20883578E+03</pdfrwt>
<pdfrwt beam="2">  1       21 0.20277756E-01 0.20883578E+03</pdfrwt>
<totfact> 0.71802481E+04</totfact>
</mgrwt>
</event>
<event>
12    1  0.1039378E-001  0.2159303E+03  0.7546771E-02  0.1137127E+00
         21   -1    0    0  503  502  0.00000000000E+00  0.00000000000E+00  0.38630476039E+03  0.38630476039E+03  0.00000000000E+00 0. -1.
         21   -1    0    0  501  503 -0.00000000000E+00 -0.00000000000E+00 -0.18034839389E+03  0.18034839389E+03  0.00000000000E+00 0.  1.
          6    2    1    2  501    0 -0.12678131104E+03 -0.20818428114E+02 -0.60509250792E+02  0.22424819620E+03  0.17354819587E+03 0.  0.
         24    2    3    3    0    0 -0.86945952702E+02 -0.42670672295E+02 -0.10225925384E+03  0.16236500701E+03  0.80777815900E+02 0.  0.
         -6    2    1    2    0  502  0.12678131104E+03  0.20818428114E+02  0.26646561729E+03  0.34240495807E+03  0.17242483097E+03 0.  0.
        -24    2    5    5    0    0 -0.42690505489E+01  0.11495306438E+02  0.74276378274E+02  0.10955326393E+03  0.79590014481E+02 0.  0.
          5    1    3    3  501    0 -0.39835358341E+02  0.21852244180E+02  0.41750003045E+02  0.61883189188E+02  0.47000000000E+01 0. -1.
        -13    1    4    4    0    0 -0.26182131337E+02 -0.21311639803E+02 -0.90894827063E+02  0.96961639731E+02  0.00000000000E+00 0.  1.
         14    1    4    4    0    0 -0.60763821366E+02 -0.21359032491E+02 -0.11364426773E+02  0.65403367282E+02  0.00000000000E+00 0. -1.
         -5    1    5    5    0  502  0.13105036159E+03  0.93231216758E+01  0.19218923902E+03  0.23285169415E+03  0.47000000000E+01 0.  1.
         13    1    6    6    0    0 -0.27432715327E+02  0.36995909385E+02  0.41234709673E+02  0.61818706419E+02  0.00000000000E+00 0. -1.
        -14    1    6    6    0    0  0.23163664778E+02 -0.25500602947E+02  0.33041668601E+02  0.47734557509E+02  0.00000000000E+00 0.  1.
<mgrwt>
<rscale>  2 0.21570446E+03</rscale>
<asrwt>0</asrwt>
<pdfrwt beam="1">  1       21 0.59431501E-01 0.21593028E+03</pdfrwt>
<pdfrwt beam="2">  1       21 0.27745907E-01 0.21593028E+03</pdfrwt>
<totfact> 0.32390989E+04</totfact>
</mgrwt>
</event>
<event>
12    1  0.1039378E-001  0.2456472E+03  0.7546771E-02  0.1116089E+00
         21   -1    0    0  503  502  0.00000000000E+00  0.00000000000E+00  0.37126290926E+03  0.37126290926E+03  0.00000000000E+00 0.  1.
         21   -1    0    0  501  503 -0.00000000000E+00 -0.00000000000E+00 -0.26853119149E+03  0.26853119149E+03  0.00000000000E+00 0.  1.
          6    2    1    2  501    0 -0.17493374130E+03  0.58726247710E+01 -0.14962701462E+03  0.28761875230E+03  0.17233688404E+03 0.  0.
         24    2    3    3    0    0 -0.61305501594E+02  0.24312462997E+02 -0.85275343361E+01  0.10545795018E+03  0.81848640982E+02 0.  0.
         -6    2    1    2    0  502  0.17493374130E+03 -0.58726247710E+01  0.25235873239E+03  0.35217534846E+03  0.17235499610E+03 0.  0.
        -24    2    5    5    0    0  0.74657292122E+02  0.28452108358E+02  0.51900454966E+02  0.12537331021E+03  0.81495864622E+02 0.  0.
          5    1    3    3  501    0 -0.11362823971E+03 -0.18439838226E+02 -0.14109948029E+03  0.18216080212E+03  0.47000000000E+01 0. -1.
        -13    1    4    4    0    0 -0.32855929355E+02  0.53588012316E+02 -0.13627204356E+02  0.64318643147E+02  0.00000000000E+00 0.  1.
         14    1    4    4    0    0 -0.28449572239E+02 -0.29275549318E+02  0.50996700195E+01  0.41139307028E+02  0.00000000000E+00 0. -1.
         -5    1    5    5    0  502  0.10027644918E+03 -0.34324733129E+02  0.20045827743E+03  0.22680203825E+03  0.47000000000E+01 0.  1.
         11    1    6    6    0    0  0.18628963309E+02  0.42361202104E+02 -0.21008360281E+01  0.46324110673E+02  0.00000000000E+00 0. -1.
        -12    1    6    6    0    0  0.56028328814E+02 -0.13909093746E+02  0.54001290994E+02  0.79049199537E+02  0.00000000000E+00 0.  1.
<mgrwt>
<rscale>  2 0.24564402E+03</rscale>
<asrwt>0</asrwt>
<pdfrwt beam="1">  1       21 0.57117371E-01 0.24564720E+03</pdfrwt>
<pdfrwt beam="2">  1       21 0.41312491E-01 0.24564720E+03</pdfrwt>
<totfact> 0.15754203E+04</totfact>
</mgrwt>
</event>
<event>
12    1  0.1039378E-001  0.1833457E+03  0.7546771E-02  0.1164625E+00
         21   -1    0    0  503  502  0.00000000000E+00  0.00000000000E+00  0.40779425830E+03  0.40779425830E+03  0.00000000000E+00 0. -1.
         21   -1    0    0  501  503 -0.00000000000E+00 -0.00000000000E+00 -0.25140019887E+03  0.25140019887E+03  0.00000000000E+00 0. -1.
          6    2    1    2  501    0 -0.44638705201E+02 -0.40226888298E+02 -0.19205137847E+03  0.26545611268E+03  0.17312538590E+03 0.  0.
         24    2    3    3    0    0 -0.46027633161E+02 -0.53117747839E+01 -0.20709333236E+03  0.22712408104E+03  0.80937889240E+02 0.  0.
         -6    2    1    2    0  502  0.44638705201E+02  0.40226888298E+02  0.34844543790E+03  0.39373834449E+03  0.17321906414E+03 0.  0.
        -24    2    5    5    0    0 -0.17612781692E+01 -0.21367211718E+02  0.27189629686E+03  0.28497873522E+03  0.82617331391E+02 0.  0.
          5    1    3    3  501    0  0.13889279594E+01 -0.34915113514E+02  0.15041953890E+02  0.38332031637E+02  0.47000000000E+01 0. -1.
        -11    1    4    4    0    0  0.19386356003E+02  0.82535654615E+01 -0.22554766048E+02  0.30865346480E+02  0.00000000000E+00 0.  1.
         12    1    4    4    0    0 -0.65413989163E+02 -0.13565340245E+02 -0.18453856632E+03  0.19625873456E+03  0.00000000000E+00 0. -1.
         -5    1    5    5    0  502  0.46399983370E+02  0.61594100016E+02  0.76549141042E+02  0.10875960927E+03  0.47000000000E+01 0.  1.
         13    1    6    6    0    0 -0.21686842526E+02  0.26064061946E+02  0.10744470655E+03  0.11266773908E+03  0.00000000000E+00 0. -1.
        -14    1    6    6    0    0  0.19925564357E+02 -0.47431273664E+02  0.16445159031E+03  0.17231099614E+03  0.00000000000E+00 0.  1.
<mgrwt>
<rscale>  2 0.18332361E+03</rscale>
<asrwt>0</asrwt>
<pdfrwt beam="1">  1       21 0.62737578E-01 0.18334574E+03</pdfrwt>
<pdfrwt beam="2">  1       21 0.38676954E-01 0.18334574E+03</pdfrwt>
<totfact> 0.15260944E+04</totfact>
</mgrwt>
</event>
<event>
12    1  0.1039378E-001  0.1749816E+03  0.7546771E-02  0.1173531E+00
         21   -1    0    0  501  502  0.00000000000E+00  0.00000000000E+00  0.19712206868E+04  0.19712206868E+04  0.00000000000E+00 0. -1.
         21   -1    0    0  502  503 -0.00000000000E+00 -0.00000000000E+00 -0.15274929926E+02  0.15274929926E+02  0.00000000000E+00 0. -1.
         -6    2    1    2    0  503  0.49403428201E+01  0.24668525765E+02  0.10173058006E+04  0.10322449494E+04  0.17316350785E+03 0.  0.
        -24    2    3    3    0    0 -0.11893956832E+02 -0.14463473321E+02  0.24474105476E+03  0.25849235100E+03  0.81052164503E+02 0.  0.
          6    2    1    2  501    0 -0.49403428201E+01 -0.24668525765E+02  0.93863995624E+03  0.95425066731E+03  0.17004830329E+03 0.  0.
         24    2    5    5    0    0 -0.56552501866E+02 -0.30452148629E+02  0.39645412787E+03  0.40956284136E+03  0.80251646017E+02 0.  0.
          5    1    5    5  501    0  0.51612159045E+02  0.57836228643E+01  0.54218582837E+03  0.54468782595E+03  0.47000000000E+01 0. -1.
        -13    1    6    6    0    0 -0.29142084155E+02  0.26463726250E+02  0.13845689970E+03  0.14394409661E+03  0.00000000000E+00 0.  1.
         14    1    6    6    0    0 -0.27410417710E+02 -0.56915874880E+02  0.25799722817E+03  0.26561874474E+03  0.00000000000E+00 0. -1.
         -5    1    3    3    0  503  0.16834299652E+02  0.39131999086E+02  0.77256474588E+03  0.77375259843E+03  0.47000000000E+01 0.  1.
         11    1    4    4    0    0  0.96820669459E+01  0.21529037068E+00 -0.23999715765E+01  0.99774061688E+01  0.00000000000E+00 0. -1.
        -12    1    4    4    0    0 -0.21576023778E+02 -0.14678763691E+02  0.24714102634E+03  0.24851494483E+03  0.00000000000E+00 0.  1.
<mgrwt>
<rscale>  2 0.17420585E+03</rscale>
<asrwt>0</asrwt>
<pdfrwt beam="1">  1       21 0.30326452E+00 0.17498155E+03</pdfrwt>
<pdfrwt beam="2">  1       21 0.23499908E-02 0.17498155E+03</pdfrwt>
<totfact> 0.31469550E+04</totfact>
</mgrwt>
</event>
<event>
12    1  0.1039378E-001  0.1981144E+03  0.7546771E-02  0.1151398E+00
         21   -1    0    0  503  502  0.00000000000E+00  0.00000000000E+00  0.11539764541E+03  0.11539764541E+03  0.00000000000E+00 0.  1.
         21   -1    0    0  501  503 -0.00000000000E+00 -0.00000000000E+00 -0.35784518468E+03  0.35784518468E+03  0.00000000000E+00 0.  1.
          6    2    1    2  501    0  0.42389858577E+02  0.86654423089E+02 -0.17449652431E+03  0.26379915102E+03  0.17272830090E+03 0.  0.
         24    2    3    3    0    0  0.32358313827E+02  0.12447948871E+03 -0.16466399170E+03  0.22317728281E+03  0.78432555840E+02 0.  0.
         -6    2    1    2    0  502 -0.42389858577E+02 -0.86654423089E+02 -0.67951014960E+02  0.20944367907E+03  0.17304168607E+03 0.  0.
        -24    2    5    5    0    0  0.87132710249E+01 -0.80403407583E+01  0.17065485768E+02  0.82788244164E+02  0.80137970999E+02 0.  0.
          5    1    3    3  501    0  0.10031544751E+02 -0.37825065624E+02 -0.98325326127E+01  0.40621868213E+02  0.47000000000E+01 0. -1.
        -11    1    4    4    0    0  0.52753217419E+02  0.10238391249E+03 -0.10274600785E+03  0.15434412724E+03  0.00000000000E+00 0.  1.
         12    1    4    4    0    0 -0.20394903593E+02  0.22095576220E+02 -0.61917983849E+02  0.68833155564E+02  0.00000000000E+00 0. -1.
         -5    1    5    5    0  502 -0.51103129602E+02 -0.78614082330E+02 -0.85016500728E+02  0.12665543491E+03  0.47000000000E+01 0.  1.
         11    1    6    6    0    0 -0.33413780674E+02  0.10441581975E+02  0.74323927173E+01  0.35787537420E+02  0.00000000000E+00 0. -1.
        -12    1    6    6    0    0  0.42127051699E+02 -0.18481922733E+02  0.96330930510E+01  0.47000706744E+02  0.00000000000E+00 0.  1.
<mgrwt>
<rscale>  2 0.19804595E+03</rscale>
<asrwt>0</asrwt>
<pdfrwt beam="1">  1       21 0.17753484E-01 0.19811440E+03</pdfrwt>
<pdfrwt beam="2">  1       21 0.55053106E-01 0.19811440E+03</pdfrwt>
<totfact> 0.89445666E+04</totfact>
</mgrwt>
</event>
<event>
12    1  0.1039378E-001  0.2072692E+03  0.7546771E-02  0.1143790E+00
         21   -1    0    0  503  502  0.00000000000E+00  0.00000000000E+00  0.48733845396E+03  0.48733845396E+03  0.00000000000E+00 0.  1.
         21   -1    0    0  501  503 -0.00000000000E+00 -0.00000000000E+00 -0.91748790683E+02  0.91748790683E+02  0.00000000000E+00 0.  1.
          6    2    1    2  501    0 -0.55757686833E+02 -0.98895295402E+02  0.13966684576E+03  0.24975911969E+03  0.17315770549E+03 0.  0.
         24    2    3    3    0    0 -0.48380170748E+02 -0.13110911370E+03  0.67542612139E+02  0.17028489174E+03  0.70033558254E+02 0.  0.
         -6    2    1    2    0  502  0.55757686833E+02  0.98895295402E+02  0.25592281751E+03  0.32932812495E+03  0.17341085971E+03 0.  0.
        -24    2    5    5    0    0  0.51996117742E+02  0.11016478143E+03  0.10919150564E+03  0.18204160622E+03  0.79852903276E+02 0.  0.
          5    1    3    3  501    0 -0.73775160857E+01  0.32213818301E+02  0.72124233623E+02  0.79474227953E+02  0.47000000000E+01 0. -1.
        -13    1    4    4    0    0 -0.89943648395E+01 -0.73449816585E+02  0.67939308154E+02  0.10045657643E+03  0.00000000000E+00 0.  1.
         14    1    4    4    0    0 -0.39385805908E+02 -0.57659297118E+02 -0.39669601446E+00  0.69828315309E+02  0.00000000000E+00 0. -1.
         -5    1    5    5    0  502  0.37615690911E+01 -0.11269486030E+02  0.14673131187E+03  0.14728651873E+03  0.47000000000E+01 0.  1.
         13    1    6    6    0    0  0.49262983404E+02  0.20091087599E+02  0.56704461841E+02  0.77755317037E+02  0.00000000000E+00 0. -1.
        -14    1    6    6    0    0  0.27331343378E+01  0.90073693834E+02  0.52487043802E+02  0.10428628918E+03  0.00000000000E+00 0.  1.
<mgrwt>
<rscale>  2 0.20721625E+03</rscale>
<asrwt>0</asrwt>
<pdfrwt beam="1">  1       21 0.74975145E-01 0.20726921E+03</pdfrwt>
<pdfrwt beam="2">  1       21 0.14115199E-01 0.20726921E+03</pdfrwt>
<totfact> 0.69240787E+04</totfact>
</mgrwt>
</event>
<event>
12    1  0.1039378E-001  0.1965190E+03  0.7546771E-02  0.1152799E+00
         21   -1    0    0  503  502  0.00000000000E+00  0.00000000000E+00  0.65316031798E+02  0.65316031798E+02  0.00000000000E+00 0. -1.
         21   -1    0    0  501  503 -0.00000000000E+00 -0.00000000000E+00 -0.89849834690E+03  0.89849834690E+03  0.00000000000E+00 0. -1.
          6    2    1    2  501    0  0.83039315324E+02  0.42749607445E+02 -0.69866557976E+03  0.72566640377E+03  0.17243862790E+03 0.  0.
         24    2    3    3    0    0  0.99025352487E+02 -0.21969983775E+02 -0.43720346817E+03  0.45579846446E+03  0.79477462200E+02 0.  0.
         -6    2    1    2    0  502 -0.83039315324E+02 -0.42749607445E+02 -0.13451673535E+03  0.23814797493E+03  0.17290647487E+03 0.  0.
        -24    2    5    5    0    0 -0.11378886358E+03 -0.42166895667E+02 -0.14387161280E+03  0.20565985398E+03  0.82891386813E+02 0.  0.
          5    1    3    3  501    0 -0.15986037163E+02  0.64719591220E+02 -0.26146211159E+03  0.26986793931E+03  0.47000000000E+01 0. -1.
        -13    1    4    4    0    0 -0.98536467939E+01 -0.65619920739E+01 -0.13038195351E+02  0.17611037253E+02  0.00000000000E+00 0.  1.
         14    1    4    4    0    0  0.10887899928E+03 -0.15407991701E+02 -0.42416527282E+03  0.43818742720E+03  0.00000000000E+00 0. -1.
         -5    1    5    5    0  502  0.30749548253E+02 -0.58271177845E+00  0.93548774494E+01  0.32488120950E+02  0.47000000000E+01 0.  1.
         13    1    6    6    0    0 -0.11233945811E+03 -0.61089626582E+02 -0.12258653545E+03  0.17714275317E+03  0.00000000000E+00 0. -1.
        -14    1    6    6    0    0 -0.14494054632E+01  0.18922730915E+02 -0.21285077343E+02  0.28517100817E+02  0.00000000000E+00 0.  1.
<mgrwt>
<rscale>  2 0.19641601E+03</rscale>
<asrwt>0</asrwt>
<pdfrwt beam="1">  1       21 0.10048620E-01 0.19651897E+03</pdfrwt>
<pdfrwt beam="2">  1       21 0.13823052E+00 0.19651897E+03</pdfrwt>
<totfact> 0.29678641E+04</totfact>
</mgrwt>
</event>
<event>
12    1  0.1039378E-001  0.2505297E+03  0.7546771E-02  0.1113057E+00
         21   -1    0    0  501  502  0.00000000000E+00  0.00000000000E+00  0.17281680489E+03  0.17281680489E+03  0.00000000000E+00 0. -1.
         21   -1    0    0  502  503 -0.00000000000E+00 -0.00000000000E+00 -0.39284725425E+03  0.39284725425E+03  0.00000000000E+00 0.  1.
         -6    2    1    2    0  503 -0.16740122187E+03 -0.67425870340E+02 -0.18864770712E+03  0.31317640330E+03  0.17298001361E+03 0.  0.
        -24    2    3    3    0    0 -0.17324301506E+03 -0.32552543965E+02 -0.19701254265E+03  0.27653850061E+03  0.81159041226E+02 0.  0.
          6    2    1    2  501    0  0.16740122187E+03  0.67425870340E+02 -0.31382742237E+02  0.25248765584E+03  0.17376916518E+03 0.  0.
         24    2    5    5    0    0  0.95670827324E+02 -0.26538226699E+02  0.10346433279E+02  0.12703680840E+03  0.78575551729E+02 0.  0.
          5    1    5    5  501    0  0.71730394548E+02  0.93964097039E+02 -0.41729175516E+02  0.12545084744E+03  0.47000000000E+01 0. -1.
        -11    1    6    6    0    0  0.10454784291E+03 -0.14626838312E+02  0.22388068592E+02  0.10791395401E+03  0.00000000000E+00 0.  1.
         12    1    6    6    0    0 -0.88770155811E+01 -0.11911388387E+02 -0.12041635313E+02  0.19122854388E+02  0.00000000000E+00 0. -1.
         -5    1    3    3    0  503  0.58417931915E+01 -0.34873326375E+02  0.83648355262E+01  0.36637902690E+02  0.47000000000E+01 0.  1.
         13    1    4    4    0    0 -0.13044159012E+02 -0.14799712295E+02  0.26859930066E+01  0.19909699314E+02  0.00000000000E+00 0. -1.
        -14    1    4    4    0    0 -0.16019885605E+03 -0.17752831670E+02 -0.19969853565E+03  0.25662880130E+03  0.00000000000E+00 0.  1.
<mgrwt>
<rscale>  2 0.25039293E+03</rscale>
<asrwt>0</asrwt>
<pdfrwt beam="1">  1       21 0.26587201E-01 0.25052972E+03</pdfrwt>
<pdfrwt beam="2">  1       21 0.60438038E-01 0.25052972E+03</pdfrwt>
<totfact> 0.33381917E+04</totfact>
</mgrwt>
</event>
<event>
12    1  0.1039378E-001  0.2682180E+03  0.7546771E-02  0.1102512E+00
         21   -1    0    0  503  502  0.00000000000E+00  0.00000000000E+00  0.38064033034E+03  0.38064033034E+03  0.00000000000E+00 0.  1.
         21   -1    0    0  501  503 -0.00000000000E+00 -0.00000000000E+00 -0.18827556946E+03  0.18827556946E+03  0.00000000000E+00 0. -1.
          6    2    1    2  501    0 -0.20283112899E+03 -0.16301534766E+02  0.10757600333E+03  0.28898696711E+03  0.17474170579E+03 0.  0.
         24    2    3    3    0    0 -0.81320544655E+02  0.52734911445E+02  0.26560283692E+02  0.12738099618E+03  0.78271755125E+02 0.  0.
         -6    2    1    2    0  502  0.20283112899E+03  0.16301534766E+02  0.84788757548E+02  0.27992893269E+03  0.17252497509E+03 0.  0.
        -24    2    5    5    0    0  0.11187498820E+03 -0.45554295442E+02  0.58071662749E+01  0.14443227207E+03  0.78966772881E+02 0.  0.
          5    1    3    3  501    0 -0.12151058433E+03 -0.69036446211E+02  0.81015719640E+02  0.16160597093E+03  0.47000000000E+01 0. -1.
        -13    1    4    4    0    0 -0.43971720677E+02 -0.85663747968E+01  0.32510604411E+02  0.55351914110E+02  0.00000000000E+00 0.  1.
         14    1    4    4    0    0 -0.37348823978E+02  0.61301286242E+02 -0.59503207188E+01  0.72029082072E+02  0.00000000000E+00 0. -1.
         -5    1    5    5    0  502  0.90956140792E+02  0.61855830208E+02  0.78981591273E+02  0.13549666062E+03  0.47000000000E+01 0.  1.
         11    1    6    6    0    0  0.47840502612E+02  0.13603925701E+01 -0.30906813562E+02  0.56971883264E+02  0.00000000000E+00 0. -1.
        -12    1    6    6    0    0  0.64034485584E+02 -0.46914688012E+02  0.36713979837E+02  0.87460388810E+02  0.00000000000E+00 0.  1.
<mgrwt>
<rscale>  2 0.26785751E+03</rscale>
<asrwt>0</asrwt>
<pdfrwt beam="1">  1       21 0.58560051E-01 0.26821795E+03</pdfrwt>
<pdfrwt beam="2">  1       21 0.28965472E-01 0.26821795E+03</pdfrwt>
<totfact> 0.30026102E+04</totfact>
</mgrwt>
</event>
<event>
12    1  0.1039378E-001  0.2140121E+03  0.7546771E-02  0.1138448E+00
         21   -1    0    0  501  502  0.00000000000E+00  0.00000000000E+00  0.91838449022E+03  0.91838449022E+03  0.00000000000E+00 0.  1.
         21   -1    0    0  502  503 -0.00000000000E+00 -0.00000000000E+00 -0.50711327153E+02  0.50711327153E+02  0.00000000000E+00 0. -1.
         -6    2    1    2    0  503 -0.91990218400E+02  0.84923968258E+02  0.49699468108E+03  0.54107280869E+03  0.17344102922E+03 0.  0.
        -24    2    3    3    0    0 -0.11016529258E+03  0.10442066821E+03  0.33176991162E+03  0.37364590203E+03  0.80622070252E+02 0.  0.
          6    2    1    2  501    0  0.91990218400E+02 -0.84923968258E+02  0.37067848199E+03  0.42802300869E+03  0.17357096038E+03 0.  0.
         24    2    5    5    0    0 -0.12399525670E+02  0.63714907819E-01  0.12662701893E+03  0.14926983547E+03  0.78059781970E+02 0.  0.
          5    1    5    5  501    0  0.10438974407E+03 -0.84987683166E+02  0.24405146306E+03  0.27875317322E+03  0.47000000000E+01 0. -1.
        -11    1    6    6    0    0  0.10610019175E+02 -0.63928407511E+00  0.12578588989E+03  0.12623419222E+03  0.00000000000E+00 0.  1.
         12    1    6    6    0    0 -0.23009544845E+02  0.70299898293E+00  0.84112903814E+00  0.23035643243E+02  0.00000000000E+00 0. -1.
         -5    1    3    3    0  503  0.18175074175E+02 -0.19496699951E+02  0.16522476946E+03  0.16742690666E+03  0.47000000000E+01 0.  1.
         11    1    4    4    0    0  0.95618264866E+01  0.22105229525E+02  0.28116130919E+02  0.37021433197E+02  0.00000000000E+00 0. -1.
        -12    1    4    4    0    0 -0.11972711906E+03  0.82315438684E+02  0.30365378070E+03  0.33662446884E+03  0.00000000000E+00 0.  1.
<mgrwt>
<rscale>  2 0.21398571E+03</rscale>
<asrwt>0</asrwt>
<pdfrwt beam="1">  1       21 0.14128991E+00 0.21401205E+03</pdfrwt>
<pdfrwt beam="2">  1       21 0.78017434E-02 0.21401205E+03</pdfrwt>
<totfact> 0.43280950E+04</totfact>
</mgrwt>
</event>
<event>
12    1  0.1039378E-001  0.2040029E+03  0.7546771E-02  0.1146543E+00
         21   -1    0    0  501  502  0.00000000000E+00  0.00000000000E+00  0.60048519113E+03  0.60048519113E+03  0.00000000000E+00 0. -1.
         21   -1    0    0  502  503 -0.00000000000E+00 -0.00000000000E+00 -0.17420151445E+03  0.17420151445E+03  0.00000000000E+00 0. -1.
         -6    2    1    2    0  503  0.42758194530E+02 -0.10076528562E+03 -0.87617032024E+02  0.22202236663E+03  0.17214900813E+03 0.  0.
        -24    2    3    3    0    0  0.25483042555E+02 -0.17234244443E+02 -0.10489569633E+03  0.13486441831E+03  0.78986705073E+02 0.  0.
          6    2    1    2  501    0 -0.42758194530E+02  0.10076528562E+03  0.51390070870E+03  0.55266433894E+03  0.17135351514E+03 0.  0.
         24    2    5    5    0    0 -0.51125690416E+02  0.49701142699E+01  0.17279791953E+03  0.19823531555E+03  0.82459572407E+02 0.  0.
          5    1    5    5  501    0  0.83674958859E+01  0.95795171351E+02  0.34110278917E+03  0.35442902339E+03  0.47000000000E+01 0. -1.
        -13    1    6    6    0    0 -0.54437674552E+02  0.26719158905E+02  0.67822782621E+02  0.90979688424E+02  0.00000000000E+00 0.  1.
         14    1    6    6    0    0  0.33119841367E+01 -0.21749044636E+02  0.10497513691E+03  0.10725562712E+03  0.00000000000E+00 0. -1.
         -5    1    3    3    0  503  0.17275151975E+02 -0.83531041178E+02  0.17278664304E+02  0.87157948325E+02  0.47000000000E+01 0.  1.
         13    1    4    4    0    0  0.46054993468E+02  0.12994883908E+02 -0.65452164831E+02  0.81079684953E+02  0.00000000000E+00 0. -1.
        -14    1    4    4    0    0 -0.20571950913E+02 -0.30229128350E+02 -0.39443531497E+02  0.53784733356E+02  0.00000000000E+00 0.  1.
<mgrwt>
<rscale>  2 0.20383499E+03</rscale>
<asrwt>0</asrwt>
<pdfrwt beam="1">  1       21 0.92382336E-01 0.20400291E+03</pdfrwt>
<pdfrwt beam="2">  1       21 0.26800233E-01 0.20400291E+03</pdfrwt>
<totfact> 0.13009640E+04</totfact>
</mgrwt>
</event>
<event>
12    1  0.1039378E-001  0.1839498E+03  0.7546771E-02  0.1164131E+00
         21   -1    0    0  503  502  0.00000000000E+00  0.00000000000E+00  0.27047402916E+03  0.27047402916E+03  0.00000000000E+00 0.  1.
         21   -1    0    0  501  503 -0.00000000000E+00 -0.00000000000E+00 -0.25477944314E+03  0.25477944314E+03  0.00000000000E+00 0.  1.
          6    2    1    2  501    0 -0.64312546945E+00  0.62181648152E+02 -0.17972160377E+03  0.25687872810E+03  0.17268426423E+03 0.  0.
         24    2    3    3    0    0  0.48632915618E+02 -0.89094504755E+01 -0.71294418071E+02  0.11809610265E+03  0.80120263499E+02 0.  0.
         -6    2    1    2    0  502  0.64312546945E+00 -0.62181648152E+02  0.19541618979E+03  0.26837474420E+03  0.17312003094E+03 0.  0.
        -24    2    5    5    0    0  0.62756235764E+02 -0.36590115643E+01  0.12006608491E+03  0.15443324267E+03  0.74040719909E+02 0.  0.
          5    1    3    3  501    0 -0.49276041088E+02  0.71091098628E+02 -0.10842718570E+03  0.13878262545E+03  0.47000000000E+01 0. -1.
        -11    1    4    4    0    0 -0.13967813396E+02  0.45227567571E+01 -0.47622960437E+02  0.49834741903E+02  0.00000000000E+00 0.  1.
         12    1    4    4    0    0  0.62600729014E+02 -0.13432207233E+02 -0.23671457634E+02  0.68261360745E+02  0.00000000000E+00 0. -1.
         -5    1    5    5    0  502 -0.62113110295E+02 -0.58522636588E+02  0.75350104883E+02  0.11394150152E+03  0.47000000000E+01 0.  1.
         13    1    6    6    0    0  0.51420356436E+02 -0.30037273434E+02  0.10791773682E+03  0.12325797651E+03  0.00000000000E+00 0. -1.
        -14    1    6    6    0    0  0.11335879328E+02  0.26378261870E+02  0.12148348084E+02  0.31175266167E+02  0.00000000000E+00 0.  1.
<mgrwt>
<rscale>  2 0.18384717E+03</rscale>
<asrwt>0</asrwt>
<pdfrwt beam="1">  1       21 0.41611389E-01 0.18394977E+03</pdfrwt>
<pdfrwt beam="2">  1       21 0.39196838E-01 0.18394977E+03</pdfrwt>
<totfact> 0.35048422E+04</totfact>
</mgrwt>
</event>
<event>
12    1  0.1039378E-001  0.1788261E+03  0.7546771E-02  0.1169648E+00
         21   -1    0    0  501  502  0.00000000000E+00  0.00000000000E+00  0.69060558252E+02  0.69060558252E+02  0.00000000000E+00 0.  1.
         21   -1    0    0  502  503 -0.00000000000E+00 -0.00000000000E+00 -0.54748479930E+03  0.54748479930E+03  0.00000000000E+00 0.  1.
         -6    2    1    2    0  503  0.23579851171E+02 -0.23826718192E+02 -0.36705533696E+03  0.40829939662E+03  0.17565607024E+03 0.  0.
        -24    2    3    3    0    0 -0.52485714847E+02 -0.16802477640E+02 -0.25154636724E+03  0.26973633381E+03  0.80281015138E+02 0.  0.
          6    2    1    2  501    0 -0.23579851171E+02  0.23826718192E+02 -0.11136890409E+03  0.20824596093E+03  0.17274149925E+03 0.  0.
         24    2    5    5    0    0  0.60989445411E+00 -0.63446478832E-01  0.11708794736E+02  0.80472357591E+02  0.79613619848E+02 0.  0.
          5    1    5    5  501    0 -0.24189745625E+02  0.23890164671E+02 -0.12307769882E+03  0.12777360333E+03  0.47000000000E+01 0. -1.
        -13    1    6    6    0    0  0.24753838098E+02 -0.16531707627E+02 -0.21136130693E+02  0.36507340061E+02  0.00000000000E+00 0.  1.
         14    1    6    6    0    0 -0.24143943644E+02  0.16468261148E+02  0.32844925429E+02  0.43965017530E+02  0.00000000000E+00 0. -1.
         -5    1    3    3    0  503  0.76065566018E+02 -0.70242405517E+01 -0.11550896972E+03  0.13856306281E+03  0.47000000000E+01 0.  1.
         13    1    4    4    0    0 -0.72796546293E+01 -0.40939737703E+02 -0.73339303889E+02  0.84307229759E+02  0.00000000000E+00 0. -1.
        -14    1    4    4    0    0 -0.45206060218E+02  0.24137260062E+02 -0.17820706335E+03  0.18542910406E+03  0.00000000000E+00 0.  1.
<mgrwt>
<rscale>  2 0.17810626E+03</rscale>
<asrwt>0</asrwt>
<pdfrwt beam="1">  1       21 0.10624701E-01 0.17882611E+03</pdfrwt>
<pdfrwt beam="2">  1       21 0.84228432E-01 0.17882611E+03</pdfrwt>
<totfact> 0.89691382E+04</totfact>
</mgrwt>
</event>
<event>
12    1  0.1039378E-001  0.2272980E+03  0.7546771E-02  0.1128575E+00
         21   -1    0    0  501  502  0.00000000000E+00  0.00000000000E+00  0.57281896282E+03  0.57281896282E+03  0.00000000000E+00 0. -1.
         21   -1    0    0  502  503 -0.00000000000E+00 -0.00000000000E+00 -0.24534255893E+03  0.24534255893E+03  0.00000000000E+00 0. -1.
         -6    2    1    2    0  503  0.92586999435E+02  0.11462710289E+03 -0.16160228602E+03  0.27889007230E+03  0.17306833448E+03 0.  0.
        -24    2    3    3    0    0  0.11377127389E+03  0.13789004460E+03 -0.14267869468E+03  0.24187480180E+03  0.78667926545E+02 0.  0.
          6    2    1    2  501    0 -0.92586999435E+02 -0.11462710289E+03  0.48907868991E+03  0.53927144945E+03  0.17292774817E+03 0.  0.
         24    2    5    5    0    0 -0.85446899728E+02 -0.77449321878E+01  0.21399558523E+03  0.24402988070E+03  0.79970716693E+02 0.  0.
          5    1    5    5  501    0 -0.71400997077E+01 -0.10688217071E+03  0.27508310468E+03  0.29524156875E+03  0.47000000000E+01 0. -1.
        -11    1    6    6    0    0 -0.26812539258E+02 -0.29674023975E+02  0.14698044261E+03  0.15232435941E+03  0.00000000000E+00 0.  1.
         12    1    6    6    0    0 -0.58634360470E+02  0.21929091787E+02  0.67015142622E+02  0.91705521289E+02  0.00000000000E+00 0. -1.
         -5    1    3    3    0  503 -0.21184274456E+02 -0.23262941706E+02 -0.18923591336E+02  0.37015270499E+02  0.47000000000E+01 0.  1.
         13    1    4    4    0    0  0.50126177214E+02  0.35596511996E+02 -0.93161039006E+02  0.11161865658E+03  0.00000000000E+00 0. -1.
        -14    1    4    4    0    0  0.63645096677E+02  0.10229353260E+03 -0.49517655677E+02  0.13025614522E+03  0.00000000000E+00 0.  1.
<mgrwt>
<rscale>  2 0.22727122E+03</rscale>
<asrwt>0</asrwt>
<pdfrwt beam="1">  1       21 0.88125994E-01 0.22729798E+03</pdfrwt>
<pdfrwt beam="2">  1       21 0.37745009E-01 0.22729798E+03</pdfrwt>
<totfact> 0.72865853E+03</totfact>
</mgrwt>
</event>
<event>
12    1  0.1039378E-001  0.1893700E+03  0.7546771E-02  0.1159896E+00
         21   -1    0    0  501  502  0.00000000000E+00  0.00000000000E+00  0.51089459142E+03  0.51089459142E+03  0.00000000000E+00 0. -1.
         21   -1    0    0  502  503 -0.00000000000E+00 -0.00000000000E+00 -0.12631232370E+03  0.12631232370E+03  0.00000000000E+00 0. -1.
         -6    2    1    2    0  503  0.25900103542E+02  0.69057984290E+02 -0.23746368570E+02  0.18710330483E+03  0.17030542006E+03 0.  0.
        -24    2    3    3    0    0 -0.49677977168E+02  0.47411789484E+02 -0.23895575944E+02  0.10834597948E+03  0.80324800175E+02 0.  0.
          6    2    1    2  501    0 -0.25900103542E+02 -0.69057984290E+02  0.40832863629E+03  0.45010361029E+03  0.17441663976E+03 0.  0.
         24    2    5    5    0    0 -0.15525708378E+02  0.95790155468E+00  0.82053760593E+02  0.11620656500E+03  0.80803347236E+02 0.  0.
          5    1    5    5  501    0 -0.10374395164E+02 -0.70015885844E+02  0.32627487570E+03  0.33389704529E+03  0.47000000000E+01 0. -1.
        -11    1    6    6    0    0 -0.39582909050E+02  0.24804805556E+02  0.58903394936E+02  0.75177756036E+02  0.00000000000E+00 0.  1.
         12    1    6    6    0    0  0.24057200672E+02 -0.23846904002E+02  0.23150365656E+02  0.41028808960E+02  0.00000000000E+00 0. -1.
         -5    1    3    3    0  503  0.75578080710E+02  0.21646194805E+02  0.14920737458E+00  0.78757325350E+02  0.47000000000E+01 0.  1.
         11    1    4    4    0    0 -0.41313226993E+02  0.69160931834E+02 -0.99072665608E+01  0.81167549842E+02  0.00000000000E+00 0. -1.
        -12    1    4    4    0    0 -0.83647501758E+01 -0.21749142350E+02 -0.13988309383E+02  0.27178429643E+02  0.00000000000E+00 0.  1.
<mgrwt>
<rscale>  2 0.18841789E+03</rscale>
<asrwt>0</asrwt>
<pdfrwt beam="1">  1       21 0.78599167E-01 0.18936997E+03</pdfrwt>
<pdfrwt beam="2">  1       21 0.19432665E-01 0.18936997E+03</pdfrwt>
<totfact> 0.34921276E+04</totfact>
</mgrwt>
</event>
<event>
12    1  0.1039378E-001  0.2859892E+03  0.7546771E-02  0.1092712E+00
         21   -1    0    0  501  502  0.00000000000E+00  0.00000000000E+00  0.75477562767E+03  0.75477562767E+03  0.00000000000E+00 0. -1.
         21   -1    0    0  502  503 -0.00000000000E+00 -0.00000000000E+00 -0.11106660401E+03  0.11106660401E+03  0.00000000000E+00 0.  1.
         -6    2    1    2    0  503 -0.34800273470E+02 -0.22492682774E+03  0.24495723848E+03  0.37513582195E+03  0.17005792940E+03 0.  0.
        -24    2    3    3    0    0 -0.73505157356E+02 -0.80549141990E+02  0.11839137523E+03  0.17921749223E+03  0.78811289539E+02 0.  0.
          6    2    1    2  501    0  0.34800273470E+02  0.22492682774E+03  0.39875178518E+03  0.49070640974E+03  0.17316655999E+03 0.  0.
         24    2    5    5    0    0  0.78611189736E+02  0.12272908957E+03  0.17787854233E+03  0.24337898813E+03  0.79689443859E+02 0.  0.
          5    1    5    5  501    0 -0.43810916266E+02  0.10219773817E+03  0.22087324285E+03  0.24732742161E+03  0.47000000000E+01 0. -1.
        -13    1    6    6    0    0 -0.21027259857E+01  0.67771972809E+02  0.83669022488E+02  0.10769385813E+03  0.00000000000E+00 0.  1.
         14    1    6    6    0    0  0.80713915721E+02  0.54957116766E+02  0.94209519840E+02  0.13568513000E+03  0.00000000000E+00 0. -1.
         -5    1    3    3    0  503  0.38704883886E+02 -0.14437768575E+03  0.12656586325E+03  0.19591832972E+03  0.47000000000E+01 0.  1.
         13    1    4    4    0    0 -0.67295817021E+01 -0.40370201775E+02  0.85184104801E+02  0.94505937232E+02  0.00000000000E+00 0. -1.
        -14    1    4    4    0    0 -0.66775575654E+02 -0.40178940216E+02  0.33207270427E+02  0.84711554996E+02  0.00000000000E+00 0.  1.
<mgrwt>
<rscale>  2 0.28552012E+03</rscale>
<asrwt>0</asrwt>
<pdfrwt beam="1">  1       21 0.11611932E+00 0.28598915E+03</pdfrwt>
<pdfrwt beam="2">  1       21 0.17087170E-01 0.28598915E+03</pdfrwt>
<totfact> 0.16805961E+04</totfact>
</mgrwt>
</event>
<event>
12    1  0.1039378E-001  0.2325848E+03  0.7546771E-02  0.1125155E+00
         21   -1    0    0  503  502  0.00000000000E+00  0.00000000000E+00  0.14110876546E+03  0.14110876546E+03  0.00000000000E+00 0.  1.
         21   -1    0    0  501  503 -0.00000000000E+00 -0.00000000000E+00 -0.38249324076E+03  0.38249324076E+03  0.00000000000E+00 0. -1.
          6    2    1    2  501    0 -0.92279799873E+01 -0.15467108628E+03 -0.14086292499E+03  0.27191549310E+03  0.17345711633E+03 0.  0.
         24    2    3    3    0    0 -0.28432103718E+02 -0.95425392864E+02 -0.12079316429E+02  0.12878562763E+03  0.80780182427E+02 0.  0.
         -6    2    1    2    0  502  0.92279799873E+01  0.15467108628E+03 -0.10052155031E+03  0.25168651312E+03  0.17097724487E+03 0.  0.
        -24    2    5    5    0    0  0.58146485964E+02  0.12838560025E+03 -0.35749074556E+02  0.16623763590E+03  0.80579644302E+02 0.  0.
          5    1    3    3  501    0  0.19204123731E+02 -0.59245693416E+02 -0.12878360856E+03  0.14312986547E+03  0.47000000000E+01 0. -1.
        -11    1    4    4    0    0 -0.31187277315E+02 -0.29567654861E+01 -0.17922490307E+02  0.36091611037E+02  0.00000000000E+00 0.  1.
         12    1    4    4    0    0  0.27551735965E+01 -0.92468627378E+02  0.58431738786E+01  0.92694016590E+02  0.00000000000E+00 0. -1.
         -5    1    5    5    0  502 -0.48918505977E+02  0.26285486029E+02 -0.64772475757E+02  0.85448877222E+02  0.47000000000E+01 0.  1.
         11    1    6    6    0    0 -0.17872445017E+02  0.37770564813E+02 -0.21824056893E+02  0.47141587972E+02  0.00000000000E+00 0. -1.
        -12    1    6    6    0    0  0.76018930981E+02  0.90615035438E+02 -0.13925017662E+02  0.11909604793E+03  0.00000000000E+00 0.  1.
<mgrwt>
<rscale>  2 0.23212251E+03</rscale>
<asrwt>0</asrwt>
<pdfrwt beam="1">  1       21 0.21709041E-01 0.23258476E+03</pdfrwt>
<pdfrwt beam="2">  1       21 0.58845113E-01 0.23258476E+03</pdfrwt>
<totfact> 0.52499899E+04</totfact>
</mgrwt>
</event>
<event>
12    1  0.1039378E-001  0.2232224E+03  0.7546771E-02  0.1132171E+00
         21   -1    0    0  503  502  0.00000000000E+00  0.00000000000E+00  0.12711027772E+04  0.12711027772E+04  0.00000000000E+00 0. -1.
         21   -1    0    0  501  503 -0.00000000000E+00 -0.00000000000E+00 -0.95269285812E+02  0.95269285812E+02  0.00000000000E+00 0. -1.
          6    2    1    2  501    0  0.70977395790E+02  0.11643414773E+03  0.62809065756E+02  0.23189048970E+03  0.17673007384E+03 0.  0.
         24    2    3    3    0    0  0.55010716649E+02  0.15296402272E+03  0.61455004378E+02  0.19172470710E+03  0.80978235087E+02 0.  0.
         -6    2    1    2    0  502 -0.70977395790E+02 -0.11643414773E+03  0.11130244256E+04  0.11344815733E+04  0.17213473403E+03 0.  0.
        -24    2    5    5    0    0 -0.68334500519E+02 -0.11412373397E+03  0.55390890747E+03  0.57533528158E+03  0.80633602433E+02 0.  0.
          5    1    3    3  501    0  0.15966679141E+02 -0.36529874988E+02  0.13540613787E+01  0.40165782597E+02  0.47000000000E+01 0. -1.
        -13    1    4    4    0    0 -0.94060027437E+01  0.38367631594E+02  0.43965534410E+02  0.59105974806E+02  0.00000000000E+00 0.  1.
         14    1    4    4    0    0  0.64416719393E+02  0.11459639113E+03  0.17489469968E+02  0.13261873230E+03  0.00000000000E+00 0. -1.
         -5    1    5    5    0  502 -0.26428952714E+01 -0.23104137662E+01  0.55911551813E+03  0.55914629170E+03  0.47000000000E+01 0.  1.
         13    1    6    6    0    0 -0.69749658623E+02 -0.39173782012E+02  0.26089594165E+03  0.27288512682E+03  0.00000000000E+00 0. -1.
        -14    1    6    6    0    0  0.14151581046E+01 -0.74949951955E+02  0.29301296582E+03  0.30245015475E+03  0.00000000000E+00 0.  1.
<mgrwt>
<rscale>  2 0.22231173E+03</rscale>
<asrwt>0</asrwt>
<pdfrwt beam="1">  1       21 0.19555426E+00 0.22322236E+03</pdfrwt>
<pdfrwt beam="2">  1       21 0.14656814E-01 0.22322236E+03</pdfrwt>
<totfact> 0.57170683E+03</totfact>
</mgrwt>
</event>
<event>
12    1  0.1039378E-001  0.2416136E+03  0.7546771E-02  0.1118914E+00
         21   -1    0    0  503  502  0.00000000000E+00  0.00000000000E+00  0.27383548397E+03  0.27383548397E+03  0.00000000000E+00 0. -1.
         21   -1    0    0  501  503 -0.00000000000E+00 -0.00000000000E+00 -0.47355908641E+03  0.47355908641E+03  0.00000000000E+00 0. -1.
          6    2    1    2  501    0 -0.10118029493E+03  0.13614642439E+03 -0.37739410702E+03  0.44748800057E+03  0.17042857064E+03 0.  0.
         24    2    3    3    0    0 -0.62639146349E+02  0.54127397810E+02 -0.31766537224E+03  0.33885028791E+03  0.83992803544E+02 0.  0.
         -6    2    1    2    0  502  0.10118029493E+03 -0.13614642439E+03  0.17767050458E+03  0.29990656981E+03  0.17205766900E+03 0.  0.
        -24    2    5    5    0    0  0.10364075471E+03 -0.34142977799E+02  0.83111833851E+02  0.16071537329E+03  0.83753837627E+02 0.  0.
          5    1    3    3  501    0 -0.38541148584E+02  0.82019026576E+02 -0.59728734777E+02  0.10863771266E+03  0.47000000000E+01 0. -1.
        -13    1    4    4    0    0 -0.56174051569E+02  0.17532732024E+02 -0.85894122209E+02  0.10411878309E+03  0.00000000000E+00 0.  1.
         14    1    4    4    0    0 -0.64650947800E+01  0.36594665786E+02 -0.23177125003E+03  0.23473150482E+03  0.00000000000E+00 0. -1.
         -5    1    5    5    0  502 -0.24604597769E+01 -0.10200344659E+03  0.94558670729E+02  0.13919119652E+03  0.47000000000E+01 0.  1.
         11    1    6    6    0    0  0.10741634846E+03 -0.51591952309E+02  0.76854323999E+02  0.14179770300E+03  0.00000000000E+00 0. -1.
        -12    1    6    6    0    0 -0.37755937527E+01  0.17448974510E+02  0.62575098510E+01  0.18917670289E+02  0.00000000000E+00 0.  1.
<mgrwt>
<rscale>  2 0.24132375E+03</rscale>
<asrwt>0</asrwt>
<pdfrwt beam="1">  1       21 0.42128537E-01 0.24161362E+03</pdfrwt>
<pdfrwt beam="2">  1       21 0.72855243E-01 0.24161362E+03</pdfrwt>
<totfact> 0.89083149E+03</totfact>
</mgrwt>
</event>
<event>
12    1  0.1039378E-001  0.1764767E+03  0.7546771E-02  0.1171323E+00
         21   -1    0    0  503  502  0.00000000000E+00  0.00000000000E+00  0.59668499547E+03  0.59668499547E+03  0.00000000000E+00 0. -1.
         21   -1    0    0  501  503 -0.00000000000E+00 -0.00000000000E+00 -0.61295516155E+02  0.61295516155E+02  0.00000000000E+00 0. -1.
          6    2    1    2  501    0  0.12035464499E+02 -0.32668702389E+02  0.14021693985E+03  0.22519260799E+03  0.17273917897E+03 0.  0.
         24    2    3    3    0    0  0.22062826141E+02 -0.20863591150E+02  0.24405396324E+01  0.86468655153E+02  0.80924745025E+02 0.  0.
         -6    2    1    2    0  502 -0.12035464499E+02  0.32668702389E+02  0.39517253946E+03  0.43278790363E+03  0.17300848842E+03 0.  0.
        -24    2    5    5    0    0  0.44394576144E+02  0.24834708110E+02  0.13200794926E+03  0.16348619088E+03  0.81938970121E+02 0.  0.
          5    1    3    3  501    0 -0.10027361641E+02 -0.11805111239E+02  0.13777640022E+03  0.13872395284E+03  0.47000000000E+01 0. -1.
        -13    1    4    4    0    0  0.52653639131E+02 -0.17698439365E+02  0.38539225533E+01  0.55682072418E+02  0.00000000000E+00 0.  1.
         14    1    4    4    0    0 -0.30590812990E+02 -0.31651517852E+01 -0.14133829209E+01  0.30786582735E+02  0.00000000000E+00 0. -1.
         -5    1    5    5    0  502 -0.56430040644E+02  0.78339942790E+01  0.26316459020E+03  0.26930171275E+03  0.47000000000E+01 0.  1.
         13    1    6    6    0    0  0.45583490904E+02  0.48407933369E+02  0.11955039510E+03  0.13679722082E+03  0.00000000000E+00 0. -1.
        -14    1    6    6    0    0 -0.11889147596E+01 -0.23573225258E+02  0.12457554159E+02  0.26688970062E+02  0.00000000000E+00 0.  1.
<mgrwt>
<rscale>  2 0.17641068E+03</rscale>
<asrwt>0</asrwt>
<pdfrwt beam="1">  1       21 0.91797688E-01 0.17647672E+03</pdfrwt>
<pdfrwt beam="2">  1       21 0.94300798E-02 0.17647672E+03</pdfrwt>
<totfact> 0.90917070E+04</totfact>
</mgrwt>
</event>
<event>
12    1  0.1039378E-001  0.1833902E+03  0.7546771E-02  0.1164677E+00
         21   -1    0    0  501  502  0.00000000000E+00  0.00000000000E+00  0.18735279462E+03  0.18735279462E+03  0.00000000000E+00 0.  1.
         21   -1    0    0  502  503 -0.00000000000E+00 -0.00000000000E+00 -0.49696325543E+03  0.49696325543E+03  0.00000000000E+00 0.  1.
         -6    2    1    2    0  503 -0.58626811789E+01 -0.58577229849E+02 -0.42840209363E+03  0.46581334708E+03  0.17317060258E+03 0.  0.
        -24    2    3    3    0    0  0.29701825678E+02 -0.57019336946E+02 -0.13432954869E+03  0.16955667986E+03  0.81065632672E+02 0.  0.
          6    2    1    2  501    0  0.58626811789E+01  0.58577229849E+02  0.11879163283E+03  0.21850270297E+03  0.17368453094E+03 0.  0.
         24    2    5    5    0    0  0.36221967215E+02 -0.24392582982E+02  0.79508252326E+02  0.12169903531E+03  0.81129920458E+02 0.  0.
          5    1    5    5  501    0 -0.30359286036E+02  0.82969812831E+02  0.39283380499E+02  0.96803667664E+02  0.47000000000E+01 0. -1.
        -11    1    6    6    0    0  0.43730249638E+02  0.11767486993E+02  0.70322484376E+02  0.83642455083E+02  0.00000000000E+00 0.  1.
         12    1    6    6    0    0 -0.75082824229E+01 -0.36160069975E+02  0.91857679498E+01  0.38056580225E+02  0.00000000000E+00 0. -1.
         -5    1    3    3    0  503 -0.35564506857E+02 -0.15578929028E+01 -0.29407254494E+03  0.29625666721E+03  0.47000000000E+01 0.  1.
         11    1    4    4    0    0 -0.40313335947E+01 -0.43645661325E+02 -0.17456272104E+02  0.47179623131E+02  0.00000000000E+00 0. -1.
        -12    1    4    4    0    0  0.33733159273E+02 -0.13373675621E+02 -0.11687327659E+03  0.12237705673E+03  0.00000000000E+00 0.  1.
<mgrwt>
<rscale>  2 0.18326845E+03</rscale>
<asrwt>0</asrwt>
<pdfrwt beam="1">  1       21 0.28823507E-01 0.18339024E+03</pdfrwt>
<pdfrwt beam="2">  1       21 0.76455885E-01 0.18339024E+03</pdfrwt>
<totfact> 0.17642904E+04</totfact>
</mgrwt>
</event>
<event>
12    1  0.1039378E-001  0.2741267E+03  0.7546771E-02  0.1099078E+00
         21   -1    0    0  503  502  0.00000000000E+00  0.00000000000E+00  0.13091295850E+03  0.13091295850E+03  0.00000000000E+00 0. -1.
         21   -1    0    0  501  503 -0.00000000000E+00 -0.00000000000E+00 -0.64402549978E+03  0.64402549978E+03  0.00000000000E+00 0.  1.
          6    2    1    2  501    0 -0.20992871334E+03  0.31443010721E+02 -0.38575166230E+03  0.47267000188E+03  0.17191235586E+03 0.  0.
         24    2    3    3    0    0 -0.70878940408E+02  0.39753728111E+02 -0.83850096604E+02  0.14014849468E+03  0.77502121064E+02 0.  0.
         -6    2    1    2    0  502  0.20992871334E+03 -0.31443010721E+02 -0.12736087898E+03  0.30226845640E+03  0.17345517758E+03 0.  0.
        -24    2    5    5    0    0  0.20876040482E+03 -0.66803429930E+02 -0.90276053300E+02  0.25079906271E+03  0.81895049818E+02 0.  0.
          5    1    3    3  501    0 -0.13904977293E+03 -0.83107173904E+01 -0.30190156570E+03  0.33252150719E+03  0.47000000000E+01 0. -1.
        -13    1    4    4    0    0 -0.41179919883E+02 -0.18110145870E+02 -0.48385248645E+02  0.66067355566E+02  0.00000000000E+00 0.  1.
         14    1    4    4    0    0 -0.29699020524E+02  0.57863873981E+02 -0.35464847958E+02  0.74081139117E+02  0.00000000000E+00 0. -1.
         -5    1    5    5    0  502  0.11683085242E+01  0.35360419210E+02 -0.37084825678E+02  0.51469393692E+02  0.47000000000E+01 0.  1.
         11    1    6    6    0    0  0.43207266449E+02 -0.42816388646E+02 -0.49990366572E+02  0.78734666830E+02  0.00000000000E+00 0. -1.
        -12    1    6    6    0    0  0.16555313837E+03 -0.23987041284E+02 -0.40285686728E+02  0.17206439588E+03  0.00000000000E+00 0.  1.
<mgrwt>
<rscale>  2 0.27388293E+03</rscale>
<asrwt>0</asrwt>
<pdfrwt beam="1">  1       21 0.20140455E-01 0.27412666E+03</pdfrwt>
<pdfrwt beam="2">  1       21 0.99080847E-01 0.27412666E+03</pdfrwt>
<totfact> 0.18287182E+04</totfact>
</mgrwt>
</event>
<event>
12    1  0.1039378E-001  0.2035050E+03  0.7546771E-02  0.1148902E+00
         21   -1    0    0  501  502  0.00000000000E+00  0.00000000000E+00  0.58807711138E+03  0.58807711138E+03  0.00000000000E+00 0. -1.
         21   -1    0    0  502  503 -0.00000000000E+00 -0.00000000000E+00 -0.18433620689E+03  0.18433620689E+03  0.00000000000E+00 0.  1.
         -6    2    1    2    0  503 -0.81697003097E+02  0.68942097791E+02 -0.10432920063E+03  0.22868944964E+03  0.17316717099E+03 0.  0.
        -24    2    3    3    0    0 -0.34574345173E+02 -0.66990947782E+01  0.77232398415E+01  0.85441502644E+02  0.77461853357E+02 0.  0.
          6    2    1    2  501    0  0.81697003097E+02 -0.68942097791E+02  0.50807010512E+03  0.54372386863E+03  0.16147136104E+03 0.  0.
         24    2    5    5    0    0  0.26884610021E+02 -0.92310182768E+02  0.41209196939E+03  0.43065593167E+03  0.80004925762E+02 0.  0.
          5    1    5    5  501    0  0.54812393075E+02  0.23368084978E+02  0.95978135728E+02  0.11306793696E+03  0.47000000000E+01 0. -1.
        -13    1    6    6    0    0 -0.27920449921E+02 -0.28924407015E+02  0.10834682096E+03  0.11556472843E+03  0.00000000000E+00 0.  1.
         14    1    6    6    0    0  0.54805059942E+02 -0.63385775753E+02  0.30374514843E+03  0.31509120324E+03  0.00000000000E+00 0. -1.
         -5    1    3    3    0  503 -0.47122657923E+02  0.75641192569E+02 -0.11205244047E+03  0.14324794700E+03  0.47000000000E+01 0.  1.
         11    1    4    4    0    0 -0.48647010404E+02  0.50156168241E+01  0.29403466963E+02  0.57063577726E+02  0.00000000000E+00 0. -1.
        -12    1    4    4    0    0  0.14072665231E+02 -0.11714711602E+02 -0.21680227122E+02  0.28377924919E+02  0.00000000000E+00 0.  1.
<mgrwt>
<rscale>  2 0.20099526E+03</rscale>
<asrwt>0</asrwt>
<pdfrwt beam="1">  1       21 0.90473401E-01 0.20350499E+03</pdfrwt>
<pdfrwt beam="2">  1       21 0.28359417E-01 0.20350499E+03</pdfrwt>
<totfact> 0.12247044E+04</totfact>
</mgrwt>
</event>
<event>
12    1  0.1039378E-001  0.2660037E+03  0.7546771E-02  0.1103708E+00
         21   -1    0    0  503  502  0.00000000000E+00  0.00000000000E+00  0.94851291667E+02  0.94851291667E+02  0.00000000000E+00 0.  1.
         21   -1    0    0  501  503 -0.00000000000E+00 -0.00000000000E+00 -0.80738532796E+03  0.80738532796E+03  0.00000000000E+00 0.  1.
          6    2    1    2  501    0 -0.20054926197E+03 -0.30203379079E+02 -0.48346211867E+03  0.55180939309E+03  0.17212128147E+03 0.  0.
         24    2    3    3    0    0 -0.31293354914E+02 -0.33092913699E+02 -0.21128895636E+03  0.23125326421E+03  0.82223075408E+02 0.  0.
         -6    2    1    2    0  502  0.20054926197E+03  0.30203379079E+02 -0.22907191762E+03  0.35042722653E+03  0.17085972922E+03 0.  0.
        -24    2    5    5    0    0  0.43943739783E+02  0.19284367742E+02 -0.28529853249E+02  0.95704388982E+02  0.77733123176E+02 0.  0.
          5    1    3    3  501    0 -0.16925590705E+03  0.28895346206E+01 -0.27217316232E+03  0.32055612889E+03  0.47000000000E+01 0. -1.
        -11    1    4    4    0    0 -0.42737243434E+02  0.59882064891E+01 -0.16025283073E+03  0.16596174364E+03  0.00000000000E+00 0.  1.
         12    1    4    4    0    0  0.11443888520E+02 -0.39081120189E+02 -0.51036125622E+02  0.65291520569E+02  0.00000000000E+00 0. -1.
         -5    1    5    5    0  502  0.15660552218E+03  0.10919011337E+02 -0.20054206437E+03  0.25472283755E+03  0.47000000000E+01 0.  1.
         13    1    6    6    0    0 -0.12535526318E+02 -0.14787760969E+00 -0.33500374066E+02  0.35769209530E+02  0.00000000000E+00 0. -1.
        -14    1    6    6    0    0  0.56479266101E+02  0.19432245352E+02  0.49705208168E+01  0.59935179452E+02  0.00000000000E+00 0.  1.
<mgrwt>
<rscale>  2 0.26579986E+03</rscale>
<asrwt>0</asrwt>
<pdfrwt beam="1">  1       21 0.14592506E-01 0.26600373E+03</pdfrwt>
<pdfrwt beam="2">  1       21 0.12421313E+00 0.26600373E+03</pdfrwt>
<totfact> 0.19171585E+04</totfact>
</mgrwt>
</event>
<event>
12    1  0.1039378E-001  0.1822834E+03  0.7546771E-02  0.1165750E+00
         21   -1    0    0  503  502  0.00000000000E+00  0.00000000000E+00  0.11871492776E+03  0.11871492776E+03  0.00000000000E+00 0.  1.
         21   -1    0    0  501  503 -0.00000000000E+00 -0.00000000000E+00 -0.38186909879E+03  0.38186909879E+03  0.00000000000E+00 0.  1.
          6    2    1    2  501    0  0.29522698816E+01 -0.54956349652E+02 -0.26163944087E+03  0.31887684147E+03  0.17377665765E+03 0.  0.
         24    2    3    3    0    0  0.65728952174E+02 -0.43737510624E+02 -0.12004075556E+03  0.16350936782E+03  0.78052965210E+02 0.  0.
         -6    2    1    2    0  502 -0.29522698816E+01  0.54956349652E+02 -0.15147301547E+01  0.18170718508E+03  0.17316550013E+03 0.  0.
        -24    2    5    5    0    0  0.45859006970E+02 -0.15551412233E+02  0.62108309458E+01  0.95476914705E+02  0.82051032156E+02 0.  0.
          5    1    3    3  501    0 -0.62776682292E+02 -0.11218839027E+02 -0.14159868531E+03  0.15536747365E+03  0.47000000000E+01 0. -1.
        -13    1    4    4    0    0  0.34620532218E+02 -0.55534261899E+02 -0.11129449731E+03  0.12910887122E+03  0.00000000000E+00 0.  1.
         14    1    4    4    0    0  0.31108419956E+02  0.11796751275E+02 -0.87462582536E+01  0.34400496599E+02  0.00000000000E+00 0. -1.
         -5    1    5    5    0  502 -0.48811276852E+02  0.70507761885E+02 -0.77255611005E+01  0.86230270371E+02  0.47000000000E+01 0.  1.
         11    1    6    6    0    0  0.20277996887E+02  0.49422581756E+01 -0.36254338789E+02  0.41833003175E+02  0.00000000000E+00 0. -1.
        -12    1    6    6    0    0  0.25581010083E+02 -0.20493670409E+02  0.42465169734E+02  0.53643911530E+02  0.00000000000E+00 0.  1.
<mgrwt>
<rscale>  2 0.18213760E+03</rscale>
<asrwt>0</asrwt>
<pdfrwt beam="1">  1       21 0.18263835E-01 0.18228341E+03</pdfrwt>
<pdfrwt beam="2">  1       21 0.58749092E-01 0.18228341E+03</pdfrwt>
<totfact> 0.74412019E+04</totfact>
</mgrwt>
</event>
<event>
12    1  0.1039378E-001  0.1868396E+03  0.7546771E-02  0.1161773E+00
         21   -1    0    0  501  502  0.00000000000E+00  0.00000000000E+00  0.39279828209E+03  0.39279828209E+03  0.00000000000E+00 0.  1.
         21   -1    0    0  502  503 -0.00000000000E+00 -0.00000000000E+00 -0.36285121172E+03  0.36285121172E+03  0.00000000000E+00 0.  1.
         -6    2    1    2    0  503 -0.68757206470E+02  0.78346908065E+01 -0.31384464336E+03  0.36524993074E+03  0.17355147915E+03 0.  0.
        -24    2    3    3    0    0 -0.46632793122E+02  0.28887404463E+02 -0.10030401930E+03  0.14948525674E+03  0.96311194394E+02 0.  0.
          6    2    1    2  501    0  0.68757206470E+02 -0.78346908065E+01  0.34379171374E+03  0.39039956307E+03  0.17155215122E+03 0.  0.
         24    2    5    5    0    0  0.43216390677E+02  0.30159778494E+02  0.32743680431E+03  0.34155812543E+03  0.81668987783E+02 0.  0.
          5    1    5    5  501    0  0.25540815792E+02 -0.37994469300E+02  0.16354909426E+02  0.48841437644E+02  0.47000000000E+01 0. -1.
        -11    1    6    6    0    0  0.38170054249E+02 -0.22341099490E+02  0.13782058886E+03  0.14474319494E+03  0.00000000000E+00 0.  1.
         12    1    6    6    0    0  0.50463364282E+01  0.52500877983E+02  0.18961621545E+03  0.19681493049E+03  0.00000000000E+00 0. -1.
         -5    1    3    3    0  503 -0.22124413348E+02 -0.21052713657E+02 -0.21354062407E+03  0.21576467400E+03  0.47000000000E+01 0.  1.
         11    1    4    4    0    0  0.18782558945E+02 -0.12401380966E+02  0.38671785951E+00  0.22510626848E+02  0.00000000000E+00 0. -1.
        -12    1    4    4    0    0 -0.65415352067E+02  0.41288785429E+02 -0.10069073716E+03  0.12697462990E+03  0.00000000000E+00 0.  1.
<mgrwt>
<rscale>  2 0.18637399E+03</rscale>
<asrwt>0</asrwt>
<pdfrwt beam="1">  1       21 0.60430505E-01 0.18683964E+03</pdfrwt>
<pdfrwt beam="2">  1       21 0.55823263E-01 0.18683964E+03</pdfrwt>
<totfact> 0.77451131E+03</totfact>
</mgrwt>
</event>
<event>
12    1  0.1039378E-001  0.1780194E+03  0.7546771E-02  0.1170017E+00
         21   -1    0    0  501  502  0.00000000000E+00  0.00000000000E+00  0.14189809362E+02  0.14189809362E+02  0.00000000000E+00 0. -1.
         21   -1    0    0  502  503 -0.00000000000E+00 -0.00000000000E+00 -0.25063450061E+04  0.25063450061E+04  0.00000000000E+00 0. -1.
         -6    2    1    2    0  503  0.49451379460E+01  0.41418244856E+02 -0.16763910273E+04  0.16858166561E+04  0.17306356090E+03 0.  0.
        -24    2    3    3    0    0  0.17402009430E+02  0.23044127398E+02 -0.39104476866E+03  0.40027012777E+03  0.80413321985E+02 0.  0.
          6    2    1    2  501    0 -0.49451379460E+01 -0.41418244856E+02 -0.81576416945E+03  0.83471815939E+03  0.17188164552E+03 0.  0.
         24    2    5    5    0    0 -0.24627109811E+02 -0.50258508979E+02 -0.80378229440E+03  0.80959475166E+03  0.79027038849E+02 0.  0.
          5    1    5    5  501    0  0.19681971866E+02  0.88402641233E+01 -0.11981875052E+02  0.25123407732E+02  0.47000000000E+01 0. -1.
        -11    1    6    6    0    0  0.15713855980E+02 -0.23077125173E+02 -0.57600421907E+03  0.57668044823E+03  0.00000000000E+00 0.  1.
         12    1    6    6    0    0 -0.40340965792E+02 -0.27181383806E+02 -0.22777807532E+03  0.23291430343E+03  0.00000000000E+00 0. -1.
         -5    1    3    3    0  503 -0.12456871484E+02  0.18374117458E+02 -0.12853462587E+04  0.12855465283E+04  0.47000000000E+01 0.  1.
         13    1    4    4    0    0 -0.27458661313E+02  0.11138626161E+02 -0.25080519352E+03  0.25254958359E+03  0.00000000000E+00 0. -1.
        -14    1    4    4    0    0  0.44860670744E+02  0.11905501237E+02 -0.14023957513E+03  0.14772054418E+03  0.00000000000E+00 0.  1.
<mgrwt>
<rscale>  2 0.17773154E+03</rscale>
<asrwt>0</asrwt>
<pdfrwt beam="1">  1       21 0.21830465E-02 0.17801944E+03</pdfrwt>
<pdfrwt beam="2">  1       21 0.38559173E+00 0.17801944E+03</pdfrwt>
<totfact> 0.11627506E+04</totfact>
</mgrwt>
</event>
<event>
12    1  0.1039378E-001  0.3047017E+03  0.7546771E-02  0.1082949E+00
         21   -1    0    0  503  502  0.00000000000E+00  0.00000000000E+00  0.83933706121E+03  0.83933706121E+03  0.00000000000E+00 0. -1.
         21   -1    0    0  501  503 -0.00000000000E+00 -0.00000000000E+00 -0.72935463509E+03  0.72935463509E+03  0.00000000000E+00 0.  1.
          6    2    1    2  501    0 -0.28603781418E+02  0.24933356854E+03 -0.66749836729E+03  0.73363509799E+03  0.17228169363E+03 0.  0.
         24    2    3    3    0    0 -0.38525470473E+02  0.22847101759E+03 -0.66710278843E+03  0.71005687862E+03  0.73969066531E+02 0.  0.
         -6    2    1    2    0  502  0.28603781418E+02 -0.24933356854E+03  0.77748079341E+03  0.83505659830E+03  0.17279390481E+03 0.  0.
        -24    2    5    5    0    0  0.58736001171E+02 -0.97241648574E+02  0.47570059323E+03  0.49574364246E+03  0.81023753218E+02 0.  0.
          5    1    3    3  501    0  0.99216890545E+01  0.20862550952E+02 -0.39557886229E+00  0.23578219367E+02  0.47000000000E+01 0. -1.
        -11    1    4    4    0    0 -0.23510427615E+02  0.16317517193E+02 -0.54045199922E+02  0.61154600878E+02  0.00000000000E+00 0.  1.
         12    1    4    4    0    0 -0.15015042858E+02  0.21215350039E+03 -0.61305758850E+03  0.64890227775E+03  0.00000000000E+00 0. -1.
         -5    1    5    5    0  502 -0.30132219752E+02 -0.15209191996E+03  0.30178020018E+03  0.33931295584E+03  0.47000000000E+01 0.  1.
         11    1    6    6    0    0 -0.86928896351E+01 -0.40520396678E+02  0.25074977772E+03  0.25415137203E+03  0.00000000000E+00 0. -1.
        -12    1    6    6    0    0  0.67428890806E+02 -0.56721251896E+02  0.22495081551E+03  0.24159227043E+03  0.00000000000E+00 0.  1.
<mgrwt>
<rscale>  2 0.30462915E+03</rscale>
<asrwt>0</asrwt>
<pdfrwt beam="1">  1       21 0.12912878E+00 0.30470172E+03</pdfrwt>
<pdfrwt beam="2">  1       21 0.11220841E+00 0.30470172E+03</pdfrwt>
<totfact> 0.24541633E+02</totfact>
</mgrwt>
</event>
<event>
12    1  0.1039378E-001  0.1896634E+03  0.7546771E-02  0.1161091E+00
         21   -1    0    0  501  502  0.00000000000E+00  0.00000000000E+00  0.12595124693E+03  0.12595124693E+03  0.00000000000E+00 0. -1.
         21   -1    0    0  502  503 -0.00000000000E+00 -0.00000000000E+00 -0.53815621126E+03  0.53815621126E+03  0.00000000000E+00 0. -1.
         -6    2    1    2    0  503 -0.68827346382E+02  0.26076629274E+02 -0.44293288786E+03  0.48183167126E+03  0.17479994873E+03 0.  0.
        -24    2    3    3    0    0 -0.40826005871E+01  0.73265140681E+02 -0.27138608224E+03  0.29244045120E+03  0.80539204101E+02 0.  0.
          6    2    1    2  501    0  0.68827346382E+02 -0.26076629274E+02  0.30727923529E+02  0.18227578694E+03  0.16389955160E+03 0.  0.
         24    2    5    5    0    0  0.20283021543E+02  0.43283447295E+02  0.21009757962E+02  0.96929993614E+02  0.81664900415E+02 0.  0.
          5    1    5    5  501    0  0.48544324838E+02 -0.69360076569E+02  0.97181655670E+01  0.85345793322E+02  0.47000000000E+01 0. -1.
        -13    1    6    6    0    0  0.15097363672E+02  0.46538525665E+02 -0.21886957063E+02  0.53598541495E+02  0.00000000000E+00 0.  1.
         14    1    6    6    0    0  0.51856578711E+01 -0.32550783700E+01  0.42896715026E+02  0.43331452119E+02  0.00000000000E+00 0. -1.
         -5    1    3    3    0  503 -0.64744745794E+02 -0.47188511407E+02 -0.17154680562E+03  0.18939122005E+03  0.47000000000E+01 0.  1.
         11    1    4    4    0    0 -0.35126033699E+02  0.26489861811E+02 -0.64519940026E+02  0.78092084638E+02  0.00000000000E+00 0. -1.
        -12    1    4    4    0    0  0.31043433112E+02  0.46775278870E+02 -0.20686614222E+03  0.21434836656E+03  0.00000000000E+00 0.  1.
<mgrwt>
<rscale>  2 0.18711337E+03</rscale>
<asrwt>0</asrwt>
<pdfrwt beam="1">  1       21 0.19377115E-01 0.18966343E+03</pdfrwt>
<pdfrwt beam="2">  1       21 0.82793262E-01 0.18966343E+03</pdfrwt>
<totfact> 0.31206921E+04</totfact>
</mgrwt>
</event>
<event>
12    1  0.1039378E-001  0.1789434E+03  0.7546771E-02  0.1168845E+00
         21   -1    0    0  503  502  0.00000000000E+00  0.00000000000E+00  0.18901245768E+03  0.18901245768E+03  0.00000000000E+00 0.  1.
         21   -1    0    0  501  503 -0.00000000000E+00 -0.00000000000E+00 -0.23086283885E+03  0.23086283885E+03  0.00000000000E+00 0.  1.
          6    2    1    2  501    0  0.36949283885E+02  0.32693388478E+02 -0.12929278541E+03  0.22076537072E+03  0.17200760832E+03 0.  0.
         24    2    3    3    0    0 -0.33860615144E+02 -0.26572796898E+02 -0.67544952015E+02  0.10958350413E+03  0.74790166747E+02 0.  0.
         -6    2    1    2    0  502 -0.36949283885E+02 -0.32693388478E+02  0.87442404246E+02  0.19910992581E+03  0.17194325013E+03 0.  0.
        -24    2    5    5    0    0 -0.72441168444E+02 -0.19525434768E+02  0.64060438370E+01  0.10954402503E+03  0.79560609182E+02 0.  0.
          5    1    3    3  501    0  0.70809899029E+02  0.59266185376E+02 -0.61747833399E+02  0.11118186659E+03  0.47000000000E+01 0. -1.
        -13    1    4    4    0    0  0.23903193631E+02 -0.94280921103E+01 -0.24763894173E+02  0.35686160360E+02  0.00000000000E+00 0.  1.
         14    1    4    4    0    0 -0.57763808775E+02 -0.17144704788E+02 -0.42781057841E+02  0.73897343772E+02  0.00000000000E+00 0. -1.
         -5    1    5    5    0  502  0.35491884559E+02 -0.13167953710E+02  0.81036360409E+02  0.89565900781E+02  0.47000000000E+01 0.  1.
         13    1    6    6    0    0  0.73863732847E+01 -0.27363455149E+02  0.75250916702E+01  0.29324805074E+02  0.00000000000E+00 0. -1.
        -14    1    6    6    0    0 -0.79827541729E+02  0.78380203815E+01 -0.11190478332E+01  0.80219219954E+02  0.00000000000E+00 0.  1.
<mgrwt>
<rscale>  2 0.17892789E+03</rscale>
<asrwt>0</asrwt>
<pdfrwt beam="1">  1       21 0.29078840E-01 0.17894336E+03</pdfrwt>
<pdfrwt beam="2">  1       21 0.35517360E-01 0.17894336E+03</pdfrwt>
<totfact> 0.87013259E+04</totfact>
</mgrwt>
</event>
<event>
12    1  0.1039378E-001  0.2265973E+03  0.7546771E-02  0.1129298E+00
         21   -1    0    0  501  502  0.00000000000E+00  0.00000000000E+00  0.31818920739E+03  0.31818920739E+03  0.00000000000E+00 0. -1.
         21   -1    0    0  502  503 -0.00000000000E+00 -0.00000000000E+00 -0.34017886228E+03  0.34017886228E+03  0.00000000000E+00 0. -1.
         -6    2    1    2    0  503  0.10453546098E+03 -0.99783416318E+02 -0.25030257833E+03  0.33763551178E+03  0.17453356502E+03 0.  0.
        -24    2    3    3    0    0  0.96953241264E+02 -0.88888014649E+02 -0.94159429199E+02  0.18085868678E+03  0.80887924552E+02 0.  0.
          6    2    1    2  501    0 -0.10453546098E+03  0.99783416318E+02  0.22831292344E+03  0.32073255789E+03  0.17279522537E+03 0.  0.
         24    2    5    5    0    0  0.40491002516E+01  0.20920358678E+02  0.13004017145E+03  0.15433059702E+03  0.80333245710E+02 0.  0.
          5    1    5    5  501    0 -0.10858456123E+03  0.78863057640E+02  0.98272751988E+02  0.16640196087E+03  0.47000000000E+01 0. -1.
        -11    1    6    6    0    0 -0.32847759731E+02  0.23455663226E+02  0.95694701527E+02  0.10385865085E+03  0.00000000000E+00 0.  1.
         12    1    6    6    0    0  0.36896859983E+02 -0.25353045478E+01  0.34345469920E+02  0.50471946166E+02  0.00000000000E+00 0. -1.
         -5    1    3    3    0  503  0.75822197182E+01 -0.10895401669E+02 -0.15614314913E+03  0.15677682499E+03  0.47000000000E+01 0.  1.
         13    1    4    4    0    0  0.33264444397E+02  0.11259635454E+02 -0.14936071590E+02  0.38162663510E+02  0.00000000000E+00 0. -1.
        -14    1    4    4    0    0  0.63688796867E+02 -0.10014765010E+03 -0.79223357608E+02  0.14269602327E+03  0.00000000000E+00 0.  1.
<mgrwt>
<rscale>  2 0.22626256E+03</rscale>
<asrwt>0</asrwt>
<pdfrwt beam="1">  1       21 0.48952186E-01 0.22659735E+03</pdfrwt>
<pdfrwt beam="2">  1       21 0.52335210E-01 0.22659735E+03</pdfrwt>
<totfact> 0.13504074E+04</totfact>
</mgrwt>
</event>
<event>
12    1  0.1039378E-001  0.1842103E+03  0.7546771E-02  0.1164303E+00
         21   -1    0    0  503  502  0.00000000000E+00  0.00000000000E+00  0.13682940237E+03  0.13682940237E+03  0.00000000000E+00 0. -1.
         21   -1    0    0  501  503 -0.00000000000E+00 -0.00000000000E+00 -0.37014313205E+03  0.37014313205E+03  0.00000000000E+00 0.  1.
          6    2    1    2  501    0 -0.45214632028E+02 -0.31349955972E+02 -0.26354065398E+03  0.32029876368E+03  0.17352359790E+03 0.  0.
         24    2    3    3    0    0 -0.41974297773E+02 -0.56102851091E+02 -0.26976198197E+03  0.29414536037E+03  0.94024435843E+02 0.  0.
         -6    2    1    2    0  502  0.45214632028E+02  0.31349955972E+02  0.30226924295E+02  0.18667377073E+03  0.17580172649E+03 0.  0.
        -24    2    5    5    0    0  0.12578483927E+02  0.79149578124E+02  0.51208282830E+02  0.12493051647E+03  0.81009084305E+02 0.  0.
          5    1    3    3  501    0 -0.32403342546E+01  0.24752895119E+02  0.62213279933E+01  0.26153403314E+02  0.47000000000E+01 0. -1.
        -13    1    4    4    0    0 -0.89082014267E+00  0.16545805619E+02 -0.13227620917E+03  0.13330998746E+03  0.00000000000E+00 0.  1.
         14    1    4    4    0    0 -0.41083477631E+02 -0.72648656710E+02 -0.13748577280E+03  0.16083537290E+03  0.00000000000E+00 0. -1.
         -5    1    5    5    0  502  0.32636148101E+02 -0.47799622152E+02 -0.20981358535E+02  0.61743254261E+02  0.47000000000E+01 0.  1.
         11    1    6    6    0    0 -0.32266601084E+02  0.47428086491E+02  0.15523286972E+02  0.59426672229E+02  0.00000000000E+00 0. -1.
        -12    1    6    6    0    0  0.44845085011E+02  0.31721491632E+02  0.35684995857E+02  0.65503844241E+02  0.00000000000E+00 0.  1.
<mgrwt>
<rscale>  2 0.18366465E+03</rscale>
<asrwt>0</asrwt>
<pdfrwt beam="1">  1       21 0.21050678E-01 0.18421029E+03</pdfrwt>
<pdfrwt beam="2">  1       21 0.56945097E-01 0.18421029E+03</pdfrwt>
<totfact> 0.60996993E+04</totfact>
</mgrwt>
</event>
<event>
12    1  0.1039378E-001  0.1930339E+03  0.7546771E-02  0.1155800E+00
         21   -1    0    0  503  502  0.00000000000E+00  0.00000000000E+00  0.17574627141E+03  0.17574627141E+03  0.00000000000E+00 0. -1.
         21   -1    0    0  501  503 -0.00000000000E+00 -0.00000000000E+00 -0.36427915525E+03  0.36427915525E+03  0.00000000000E+00 0. -1.
          6    2    1    2  501    0  0.84596839274E+02 -0.11318798416E+02 -0.26899605863E+03  0.33109054556E+03  0.17313962396E+03 0.  0.
         24    2    3    3    0    0 -0.11876152639E+02 -0.31722725637E+02 -0.81494592486E+02  0.11918903961E+03  0.80107953636E+02 0.  0.
         -6    2    1    2    0  502 -0.84596839274E+02  0.11318798416E+02  0.80463174790E+02  0.20893488111E+03  0.17290090119E+03 0.  0.
        -24    2    5    5    0    0 -0.10368034117E+03  0.57361696736E+02  0.26721328243E+02  0.13548827056E+03  0.60025533556E+02 0.  0.
          5    1    3    3  501    0  0.96472991913E+02  0.20403927221E+02 -0.18750146615E+03  0.21190150595E+03  0.47000000000E+01 0. -1.
        -13    1    4    4    0    0  0.89263929197E+01 -0.54655050571E+02 -0.58996835527E+02  0.80916510340E+02  0.00000000000E+00 0.  1.
         14    1    4    4    0    0 -0.20802545558E+02  0.22932324934E+02 -0.22497756959E+02  0.38272529271E+02  0.00000000000E+00 0. -1.
         -5    1    5    5    0  502  0.19083501899E+02 -0.46042898320E+02  0.53741846547E+02  0.73446610546E+02  0.47000000000E+01 0.  1.
         11    1    6    6    0    0 -0.83057866297E+02  0.19578931872E+02  0.99160722526E+00  0.85340066861E+02  0.00000000000E+00 0. -1.
        -12    1    6    6    0    0 -0.20622474876E+02  0.37782764863E+02  0.25729721018E+02  0.50148203701E+02  0.00000000000E+00 0.  1.
<mgrwt>
<rscale>  2 0.19298031E+03</rscale>
<asrwt>0</asrwt>
<pdfrwt beam="1">  1       21 0.27037888E-01 0.19303386E+03</pdfrwt>
<pdfrwt beam="2">  1       21 0.56042946E-01 0.19303386E+03</pdfrwt>
<totfact> 0.39064514E+04</totfact>
</mgrwt>
</event>
<event>
12    1  0.1039378E-001  0.2366850E+03  0.7546771E-02  0.1123719E+00
         21   -1    0    0  503  502  0.00000000000E+00  0.00000000000E+00  0.29548682684E+03  0.29548682684E+03  0.00000000000E+00 0. -1.
         21   -1    0    0  501  503 -0.00000000000E+00 -0.00000000000E+00 -0.22482752453E+03  0.22482752453E+03  0.00000000000E+00 0. -1.
          6    2    1    2  501    0  0.14091303307E+03 -0.35417227319E+02 -0.77827976005E+02  0.24915255288E+03  0.18683933707E+03 0.  0.
         24    2    3    3    0    0  0.30681336323E+02  0.49726279448E+02 -0.94576357689E+01  0.93920348947E+02  0.72921449558E+02 0.  0.
         -6    2    1    2    0  502 -0.14091303307E+03  0.35417227319E+02  0.14848727832E+03  0.27116179849E+03  0.17426814470E+03 0.  0.
        -24    2    5    5    0    0 -0.14964500438E+03 -0.19377458312E+02  0.11593706031E+03  0.20666132106E+03  0.80612569996E+02 0.  0.
          5    1    3    3  501    0  0.11023169675E+03 -0.85143506766E+02 -0.68370340236E+02  0.15523220393E+03  0.47000000000E+01 0. -1.
        -13    1    4    4    0    0 -0.23129128843E+02  0.11153293624E+02 -0.10405292367E+02  0.27706004204E+02  0.00000000000E+00 0.  1.
         14    1    4    4    0    0  0.53810465166E+02  0.38572985824E+02  0.94765659832E+00  0.66214344743E+02  0.00000000000E+00 0. -1.
         -5    1    5    5    0  502  0.87319713117E+01  0.54794685630E+02  0.32550218002E+02  0.64500477427E+02  0.47000000000E+01 0.  1.
         11    1    6    6    0    0 -0.70657170283E+02  0.20887326959E+02  0.20674105192E+02  0.76525386411E+02  0.00000000000E+00 0. -1.
        -12    1    6    6    0    0 -0.78987834100E+02 -0.40264785271E+02  0.95262955122E+02  0.13013593465E+03  0.00000000000E+00 0.  1.
<mgrwt>
<rscale>  2 0.23419799E+03</rscale>
<asrwt>0</asrwt>
<pdfrwt beam="1">  1       21 0.45459512E-01 0.23668502E+03</pdfrwt>
<pdfrwt beam="2">  1       21 0.34588850E-01 0.23668502E+03</pdfrwt>
<totfact> 0.36583982E+04</totfact>
</mgrwt>
</event>
<event>
12    1  0.1039378E-001  0.2421094E+03  0.7546771E-02  0.1118466E+00
         21   -1    0    0  501  502  0.00000000000E+00  0.00000000000E+00  0.33849740362E+03  0.33849740362E+03  0.00000000000E+00 0. -1.
         21   -1    0    0  502  503 -0.00000000000E+00 -0.00000000000E+00 -0.20894042071E+03  0.20894042071E+03  0.00000000000E+00 0. -1.
         -6    2    1    2    0  503 -0.12477490198E+03  0.11321150319E+03 -0.49011629887E+02  0.24659950264E+03  0.17327306259E+03 0.  0.
        -24    2    3    3    0    0 -0.14853316579E+03  0.95558758911E+02 -0.59948606566E+01  0.19417234446E+03  0.80457338100E+02 0.  0.
          6    2    1    2  501    0  0.12477490198E+03 -0.11321150319E+03  0.17856861280E+03  0.30083832170E+03  0.17387157819E+03 0.  0.
         24    2    5    5    0    0  0.14161339376E+03 -0.45661214163E+02  0.14622241736E+03  0.22392965695E+03  0.81389164837E+02 0.  0.
          5    1    5    5  501    0 -0.16838491777E+02 -0.67550289030E+02  0.32346195440E+02  0.76908664745E+02  0.47000000000E+01 0. -1.
        -11    1    6    6    0    0 -0.84413145003E+01 -0.13525234555E+02  0.17061609125E+02  0.23351365404E+02  0.00000000000E+00 0.  1.
         12    1    6    6    0    0  0.15005470826E+03 -0.32135979608E+02  0.12916080823E+03  0.20057829155E+03  0.00000000000E+00 0. -1.
         -5    1    3    3    0  503  0.23758263810E+02  0.17652744282E+02 -0.43016769230E+02  0.52427158181E+02  0.47000000000E+01 0.  1.
         13    1    4    4    0    0 -0.14831535562E+03  0.62395885499E+02 -0.42155462426E+01  0.16096105762E+03  0.00000000000E+00 0. -1.
        -14    1    4    4    0    0 -0.21781017845E+00  0.33162873412E+02 -0.17793144140E+01  0.33211286847E+02  0.00000000000E+00 0.  1.
<mgrwt>
<rscale>  2 0.24200193E+03</rscale>
<asrwt>0</asrwt>
<pdfrwt beam="1">  1       21 0.52076524E-01 0.24210937E+03</pdfrwt>
<pdfrwt beam="2">  1       21 0.32144680E-01 0.24210937E+03</pdfrwt>
<totfact> 0.31778385E+04</totfact>
</mgrwt>
</event>
<event>
12    1  0.1039378E-001  0.6855533E+03  0.7546771E-02  0.9742431E-01
         21   -1    0    0  501  502  0.00000000000E+00  0.00000000000E+00  0.28052290607E+03  0.28052290607E+03  0.00000000000E+00 0.  1.
         21   -1    0    0  502  503 -0.00000000000E+00 -0.00000000000E+00 -0.16744964252E+04  0.16744964252E+04  0.00000000000E+00 0. -1.
         -6    2    1    2    0  503  0.11984696990E+03 -0.65232975658E+03 -0.69118191991E+03  0.97323553258E+03  0.17192308728E+03 0.  0.
        -24    2    3    3    0    0  0.15119163368E+03 -0.54466373963E+03 -0.60589019557E+03  0.83227019146E+03  0.77802590874E+02 0.  0.
          6    2    1    2  501    0 -0.11984696990E+03  0.65232975658E+03 -0.70279159926E+03  0.98178379873E+03  0.17345312893E+03 0.  0.
         24    2    5    5    0    0 -0.78439702688E+02  0.53649122602E+03 -0.64338940104E+03  0.84509496197E+03  0.79119851008E+02 0.  0.
          5    1    5    5  501    0 -0.41407267208E+02  0.11583853056E+03 -0.59402198221E+02  0.13668883676E+03  0.47000000000E+01 0. -1.
        -11    1    6    6    0    0 -0.67077015766E+01  0.77467752223E+01 -0.14519726772E+01  0.10349589917E+02  0.00000000000E+00 0.  1.
         12    1    6    6    0    0 -0.71732001111E+02  0.52874445080E+03 -0.64193742836E+03  0.83474537205E+03  0.00000000000E+00 0. -1.
         -5    1    3    3    0  503 -0.31344663787E+02 -0.10766601695E+03 -0.85291724343E+02  0.14096534111E+03  0.47000000000E+01 0.  1.
         13    1    4    4    0    0  0.75553324852E+02 -0.24583585731E+03 -0.33164805003E+03  0.41968321711E+03  0.00000000000E+00 0. -1.
        -14    1    4    4    0    0  0.75638308831E+02 -0.29882788232E+03 -0.27424214554E+03  0.41258697435E+03  0.00000000000E+00 0.  1.
<mgrwt>
<rscale>  2 0.68545695E+03</rscale>
<asrwt>0</asrwt>
<pdfrwt beam="1">  1       21 0.43157369E-01 0.68555335E+03</pdfrwt>
<pdfrwt beam="2">  1       21 0.25761484E+00 0.68555335E+03</pdfrwt>
<totfact> 0.22223241E+02</totfact>
</mgrwt>
</event>
<event>
12    1  0.1039378E-001  0.2078640E+03  0.7546771E-02  0.1144407E+00
         21   -1    0    0  503  502  0.00000000000E+00  0.00000000000E+00  0.81052426242E+02  0.81052426242E+02  0.00000000000E+00 0.  1.
         21   -1    0    0  501  503 -0.00000000000E+00 -0.00000000000E+00 -0.74216912836E+03  0.74216912836E+03  0.00000000000E+00 0.  1.
          6    2    1    2  501    0 -0.11436384512E+03  0.14187263425E+02 -0.10162794755E+03  0.22636722459E+03  0.16623330933E+03 0.  0.
         24    2    3    3    0    0 -0.14264865742E+03  0.26202527321E+01 -0.10610149346E+03  0.19512736294E+03  0.80384424284E+02 0.  0.
         -6    2    1    2    0  502  0.11436384512E+03 -0.14187263425E+02 -0.55948875456E+03  0.59685433002E+03  0.17299438505E+03 0.  0.
        -24    2    5    5    0    0  0.63802315152E+02 -0.40551029576E+02 -0.50798132881E+03  0.51986977710E+03  0.80650067036E+02 0.  0.
          5    1    3    3  501    0  0.28284812293E+02  0.11567010693E+02  0.44735459033E+01  0.31239861648E+02  0.47000000000E+01 0. -1.
        -13    1    4    4    0    0 -0.59299584198E+02 -0.58622517344E+01  0.44089656567E+00  0.59590276650E+02  0.00000000000E+00 0.  1.
         14    1    4    4    0    0 -0.83349073217E+02  0.84825044665E+01 -0.10654239002E+03  0.13553708629E+03  0.00000000000E+00 0. -1.
         -5    1    5    5    0  502  0.50561529970E+02  0.26363766152E+02 -0.51507425759E+02  0.76984552911E+02  0.47000000000E+01 0.  1.
         11    1    6    6    0    0  0.21507980680E+01  0.17232929883E+02 -0.19205780374E+03  0.19284138504E+03  0.00000000000E+00 0. -1.
        -12    1    6    6    0    0  0.61651517084E+02 -0.57783959460E+02 -0.31592352506E+03  0.32702839206E+03  0.00000000000E+00 0.  1.
<mgrwt>
<rscale>  2 0.20645159E+03</rscale>
<asrwt>0</asrwt>
<pdfrwt beam="1">  1       21 0.12469605E-01 0.20786396E+03</pdfrwt>
<pdfrwt beam="2">  1       21 0.11417986E+00 0.20786396E+03</pdfrwt>
<totfact> 0.32398262E+04</totfact>
</mgrwt>
</event>
<event>
12    1  0.1039378E-001  0.2692144E+03  0.7546771E-02  0.1101935E+00
         21   -1    0    0  503  502  0.00000000000E+00  0.00000000000E+00  0.96243921386E+02  0.96243921386E+02  0.00000000000E+00 0. -1.
         21   -1    0    0  501  503 -0.00000000000E+00 -0.00000000000E+00 -0.96429535828E+03  0.96429535828E+03  0.00000000000E+00 0.  1.
          6    2    1    2  501    0  0.20588461350E+03  0.53970101137E+01 -0.68543479494E+03  0.73640835856E+03  0.17337476934E+03 0.  0.
         24    2    3    3    0    0  0.86407279102E+02  0.74883037456E+02 -0.34057309508E+03  0.36485106357E+03  0.63659864217E+02 0.  0.
         -6    2    1    2    0  502 -0.20588461350E+03 -0.53970101137E+01 -0.18261664195E+03  0.32413092111E+03  0.17115611093E+03 0.  0.
        -24    2    5    5    0    0 -0.15484831899E+03  0.56292517825E+02 -0.10133190547E+03  0.20993985491E+03  0.81607218781E+02 0.  0.
          5    1    3    3  501    0  0.11947733440E+03 -0.69486027342E+02 -0.34486169986E+03  0.37155729499E+03  0.47000000000E+01 0. -1.
        -13    1    4    4    0    0  0.78521127971E+02  0.56615499133E+02 -0.19272991746E+03  0.21567499476E+03  0.00000000000E+00 0.  1.
         14    1    4    4    0    0  0.78861511310E+01  0.18267538323E+02 -0.14784317762E+03  0.14917606881E+03  0.00000000000E+00 0. -1.
         -5    1    5    5    0  502 -0.51036294510E+02 -0.61689527939E+02 -0.81284736480E+02  0.11419106620E+03  0.47000000000E+01 0.  1.
         13    1    6    6    0    0 -0.36331714739E+02  0.53086977744E+02 -0.46126133118E+02  0.79157064488E+02  0.00000000000E+00 0. -1.
        -14    1    6    6    0    0 -0.11851660425E+03  0.32055400810E+01 -0.55205772355E+02  0.13078279042E+03  0.00000000000E+00 0.  1.
<mgrwt>
<rscale>  2 0.26885787E+03</rscale>
<asrwt>0</asrwt>
<pdfrwt beam="1">  1       21 0.14806757E-01 0.26921444E+03</pdfrwt>
<pdfrwt beam="2">  1       21 0.14835313E+00 0.26921444E+03</pdfrwt>
<totfact> 0.11769510E+04</totfact>
</mgrwt>
</event>
<event>
12    1  0.1039378E-001  0.2895045E+03  0.7546771E-02  0.1091100E+00
         21   -1    0    0  503  502  0.00000000000E+00  0.00000000000E+00  0.29871838006E+03  0.29871838006E+03  0.00000000000E+00 0.  1.
         21   -1    0    0  501  503 -0.00000000000E+00 -0.00000000000E+00 -0.36494121643E+03  0.36494121643E+03  0.00000000000E+00 0. -1.
          6    2    1    2  501    0  0.15466783331E+03  0.17310913479E+03 -0.19586469909E+03  0.34645326602E+03  0.16666725527E+03 0.  0.
         24    2    3    3    0    0  0.88394192736E+02  0.56420572801E+02 -0.15941440946E+03  0.20731617697E+03  0.81056948799E+02 0.  0.
         -6    2    1    2    0  502 -0.15466783331E+03 -0.17310913479E+03  0.12964186273E+03  0.31720633047E+03  0.17298535289E+03 0.  0.
        -24    2    5    5    0    0 -0.43390200719E+01 -0.75014286509E+02  0.25105512194E+02  0.10942931074E+03  0.75488522505E+02 0.  0.
          5    1    3    3  501    0  0.66273640572E+02  0.11668856199E+03 -0.36450289632E+02  0.13913708904E+03  0.47000000000E+01 0. -1.
        -13    1    4    4    0    0  0.74808968968E+02  0.77332340532E+01 -0.61606985051E+02  0.97219367176E+02  0.00000000000E+00 0.  1.
         14    1    4    4    0    0  0.13585223768E+02  0.48687338748E+02 -0.97807424404E+02  0.11009680980E+03  0.00000000000E+00 0. -1.
         -5    1    5    5    0  502 -0.15032881324E+03 -0.98094848278E+02  0.10453635053E+03  0.20777701974E+03  0.47000000000E+01 0.  1.
         11    1    6    6    0    0  0.31706000189E+02 -0.38953033398E+02  0.29508763433E+02  0.58252694171E+02  0.00000000000E+00 0. -1.
        -12    1    6    6    0    0 -0.36045020261E+02 -0.36061253112E+02 -0.44032512390E+01  0.51176616565E+02  0.00000000000E+00 0.  1.
<mgrwt>
<rscale>  2 0.28856737E+03</rscale>
<asrwt>0</asrwt>
<pdfrwt beam="1">  1       21 0.45956674E-01 0.28950448E+03</pdfrwt>
<pdfrwt beam="2">  1       21 0.56144802E-01 0.28950448E+03</pdfrwt>
<totfact> 0.12849776E+04</totfact>
</mgrwt>
</event>
<event>
12    1  0.1039378E-001  0.2079731E+03  0.7546771E-02  0.1144083E+00
         21   -1    0    0  503  502  0.00000000000E+00  0.00000000000E+00  0.22675920305E+03  0.22675920305E+03  0.00000000000E+00 0. -1.
         21   -1    0    0  501  503 -0.00000000000E+00 -0.00000000000E+00 -0.18669472435E+03  0.18669472435E+03  0.00000000000E+00 0.  1.
          6    2    1    2  501    0 -0.10508953141E+03  0.17735498441E+02  0.18943633633E+02  0.20883405932E+03  0.17859016087E+03 0.  0.
         24    2    3    3    0    0 -0.53760790426E+02 -0.40366629589E+02  0.60222589122E+02  0.12087646101E+03  0.80403179136E+02 0.  0.
         -6    2    1    2    0  502  0.10508953141E+03 -0.17735498441E+02  0.21120845065E+02  0.20461986809E+03  0.17339216477E+03 0.  0.
        -24    2    5    5    0    0  0.18993061485E+02  0.38958612559E+02  0.39071474739E+02  0.99876660855E+02  0.81057124106E+02 0.  0.
          5    1    3    3  501    0 -0.51328740983E+02  0.58102128031E+02 -0.41278955489E+02  0.87957598301E+02  0.47000000000E+01 0. -1.
        -11    1    4    4    0    0 -0.50093192851E+02 -0.41174533222E+02  0.44697717183E+01  0.64997300062E+02  0.00000000000E+00 0.  1.
         12    1    4    4    0    0 -0.36675975748E+01  0.80790363332E+00  0.55752817404E+02  0.55879160952E+02  0.00000000000E+00 0. -1.
         -5    1    5    5    0  502  0.86096469925E+02 -0.56694111000E+02 -0.17950629674E+02  0.10474320723E+03  0.47000000000E+01 0.  1.
         11    1    6    6    0    0  0.46929327178E+02  0.19868998837E+02  0.41827010972E+02  0.65929035417E+02  0.00000000000E+00 0. -1.
        -12    1    6    6    0    0 -0.27936265694E+02  0.19089613722E+02 -0.27555362331E+01  0.33947625438E+02  0.00000000000E+00 0.  1.
<mgrwt>
<rscale>  2 0.20685251E+03</rscale>
<asrwt>0</asrwt>
<pdfrwt beam="1">  1       21 0.34886031E-01 0.20797308E+03</pdfrwt>
<pdfrwt beam="2">  1       21 0.28722265E-01 0.20797308E+03</pdfrwt>
<totfact> 0.91278133E+04</totfact>
</mgrwt>
</event>
<event>
12    1  0.1039378E-001  0.1976822E+03  0.7546771E-02  0.1151855E+00
         21   -1    0    0  501  502  0.00000000000E+00  0.00000000000E+00  0.31021058121E+04  0.31021058121E+04  0.00000000000E+00 0.  1.
         21   -1    0    0  502  503 -0.00000000000E+00 -0.00000000000E+00 -0.13646008565E+02  0.13646008565E+02  0.00000000000E+00 0.  1.
         -6    2    1    2    0  503  0.72193556919E+02  0.60727181725E+02  0.11060146352E+04  0.11235419929E+04  0.17371970641E+03 0.  0.
        -24    2    3    3    0    0 -0.92961619984E+01  0.80520379513E+02  0.61951450190E+03  0.62984490499E+03  0.79601734454E+02 0.  0.
          6    2    1    2  501    0 -0.72193556919E+02 -0.60727181725E+02  0.19824451683E+04  0.19922098277E+04  0.17294927553E+03 0.  0.
         24    2    5    5    0    0 -0.10301605689E+03 -0.73188893020E+02  0.12480186925E+04  0.12570162075E+04  0.81056567359E+02 0.  0.
          5    1    5    5  501    0  0.30822499971E+02  0.12461711294E+02  0.73442647590E+03  0.73519362025E+03  0.47000000000E+01 0. -1.
        -13    1    6    6    0    0 -0.40185736760E+02 -0.69945711690E+01  0.15788916475E+03  0.16307300761E+03  0.00000000000E+00 0.  1.
         14    1    6    6    0    0 -0.62830320130E+02 -0.66194321851E+02  0.10901295277E+04  0.10939431999E+04  0.00000000000E+00 0. -1.
         -5    1    3    3    0  503  0.81489718917E+02 -0.19793197788E+02  0.48650013329E+03  0.49369708796E+03  0.47000000000E+01 0.  1.
         13    1    4    4    0    0 -0.90073151006E+01 -0.93822550905E+01  0.21632139727E+02  0.25240996515E+02  0.00000000000E+00 0. -1.
        -14    1    4    4    0    0 -0.28884689782E+00  0.89902634603E+02  0.59788236217E+03  0.60460390847E+03  0.00000000000E+00 0.  1.
<mgrwt>
<rscale>  2 0.19751277E+03</rscale>
<asrwt>0</asrwt>
<pdfrwt beam="1">  1       21 0.47724649E+00 0.19768216E+03</pdfrwt>
<pdfrwt beam="2">  1       21 0.20993884E-02 0.19768216E+03</pdfrwt>
<totfact> 0.30770401E+03</totfact>
</mgrwt>
</event>
<event>
12    1  0.1039378E-001  0.1797148E+03  0.7546771E-02  0.1172745E+00
         21   -1    0    0  501  502  0.00000000000E+00  0.00000000000E+00  0.24656580077E+04  0.24656580077E+04  0.00000000000E+00 0.  1.
         21   -1    0    0  502  503 -0.00000000000E+00 -0.00000000000E+00 -0.17134669510E+02  0.17134669510E+02  0.00000000000E+00 0.  1.
         -6    2    1    2    0  503 -0.33079717794E+02  0.40935752839E+02  0.48781966061E+03  0.51387004578E+03  0.15272327615E+03 0.  0.
        -24    2    3    3    0    0 -0.31211454889E+02  0.81598259770E+02  0.36042470137E+03  0.38004741871E+03  0.83052057131E+02 0.  0.
          6    2    1    2  501    0  0.33079717794E+02 -0.40935752839E+02  0.19607036776E+04  0.19689226314E+04  0.17183542622E+03 0.  0.
         24    2    5    5    0    0 -0.96506406265E+01 -0.85289081825E+02  0.13214897070E+04  0.13267313115E+04  0.80706657947E+02 0.  0.
          5    1    5    5  501    0  0.42730358421E+02  0.44353328987E+02  0.63921397055E+03  0.64219131999E+03  0.47000000000E+01 0. -1.
        -11    1    6    6    0    0 -0.24046060447E+02 -0.86497583009E+02  0.79663662308E+03  0.80167945846E+03  0.00000000000E+00 0.  1.
         12    1    6    6    0    0  0.14395419821E+02  0.12085011837E+01  0.52485308397E+03  0.52505185300E+03  0.00000000000E+00 0. -1.
         -5    1    3    3    0  503 -0.18682629048E+01 -0.40662506931E+02  0.12739495924E+03  0.13382262707E+03  0.47000000000E+01 0.  1.
         13    1    4    4    0    0 -0.55535492782E+01 -0.10102459625E+02  0.13291562106E+03  0.13341463159E+03  0.00000000000E+00 0. -1.
        -14    1    4    4    0    0 -0.25657905611E+02  0.91700719395E+02  0.22750908031E+03  0.24663278711E+03  0.00000000000E+00 0.  1.
<mgrwt>
<rscale>  2 0.17498722E+03</rscale>
<asrwt>0</asrwt>
<pdfrwt beam="1">  1       21 0.37933172E+00 0.17971482E+03</pdfrwt>
<pdfrwt beam="2">  1       21 0.26361050E-02 0.17971482E+03</pdfrwt>
<totfact> 0.92994281E+03</totfact>
</mgrwt>
</event>
<event>
12    1  0.1039378E-001  0.1927241E+03  0.7546771E-02  0.1156220E+00
         21   -1    0    0  503  502  0.00000000000E+00  0.00000000000E+00  0.50587755658E+03  0.50587755658E+03  0.00000000000E+00 0.  1.
         21   -1    0    0  501  503 -0.00000000000E+00 -0.00000000000E+00 -0.98737359976E+02  0.98737359976E+02  0.00000000000E+00 0. -1.
          6    2    1    2  501    0  0.71760287035E+02 -0.46259712487E+02  0.49841700900E+02  0.19906477280E+03  0.17278046425E+03 0.  0.
         24    2    3    3    0    0  0.54746552933E+02 -0.90899779780E+00  0.93062004037E+02  0.13397837580E+03  0.79319967548E+02 0.  0.
         -6    2    1    2    0  502 -0.71760287035E+02  0.46259712487E+02  0.35729849571E+03  0.40555014376E+03  0.17181153709E+03 0.  0.
        -24    2    5    5    0    0 -0.11438351596E+03  0.53455262789E+02  0.25142639143E+03  0.29109706144E+03  0.74707529943E+02 0.  0.
          5    1    3    3  501    0  0.17013734102E+02 -0.45350714689E+02 -0.43220303136E+02  0.65086396998E+02  0.47000000000E+01 0. -1.
        -13    1    4    4    0    0  0.46299276802E+02 -0.35518224843E+02  0.42781331975E+02  0.72356131005E+02  0.00000000000E+00 0.  1.
         14    1    4    4    0    0  0.84472761310E+01  0.34609227045E+02  0.50280672061E+02  0.61622244796E+02  0.00000000000E+00 0. -1.
         -5    1    5    5    0  502  0.42623228925E+02 -0.71955503014E+01  0.10587210428E+03  0.11445308232E+03  0.47000000000E+01 0.  1.
         11    1    6    6    0    0 -0.69290813820E+02  0.35411184555E+01  0.18035736633E+03  0.19324216929E+03  0.00000000000E+00 0. -1.
        -12    1    6    6    0    0 -0.45092702141E+02  0.49914144333E+02  0.71069025095E+02  0.97854892156E+02  0.00000000000E+00 0.  1.
<mgrwt>
<rscale>  2 0.19250671E+03</rscale>
<asrwt>0</asrwt>
<pdfrwt beam="1">  1       21 0.77827315E-01 0.19272413E+03</pdfrwt>
<pdfrwt beam="2">  1       21 0.15190363E-01 0.19272413E+03</pdfrwt>
<totfact> 0.56105351E+04</totfact>
</mgrwt>
</event>
<event>
12    1  0.1039378E-001  0.2326922E+03  0.7546771E-02  0.1124812E+00
         21   -1    0    0  501  502  0.00000000000E+00  0.00000000000E+00  0.90673408385E+03  0.90673408385E+03  0.00000000000E+00 0. -1.
         21   -1    0    0  502  503 -0.00000000000E+00 -0.00000000000E+00 -0.68275160853E+02  0.68275160853E+02  0.00000000000E+00 0.  1.
         -6    2    1    2    0  503 -0.15611073154E+03 -0.64125707318E+01  0.24557988648E+03  0.33810169638E+03  0.17202207674E+03 0.  0.
        -24    2    3    3    0    0 -0.40697353039E+02  0.32177146093E+02  0.16813323475E+03  0.19377745016E+03  0.81174332697E+02 0.  0.
          6    2    1    2  501    0  0.15611073154E+03  0.64125707318E+01  0.59287903652E+03  0.63690754832E+03  0.17243547084E+03 0.  0.
         24    2    5    5    0    0  0.11617417763E+03  0.39110596924E+02  0.55155519258E+03  0.57062150656E+03  0.79810368669E+02 0.  0.
          5    1    5    5  501    0  0.39936553907E+02 -0.32698026192E+02  0.41323843938E+02  0.66286041763E+02  0.47000000000E+01 0. -1.
        -11    1    6    6    0    0 -0.77062907386E+01 -0.99795910696E+01  0.36863719107E+02  0.38960402222E+02  0.00000000000E+00 0.  1.
         12    1    6    6    0    0  0.12388046837E+03  0.49090187993E+02  0.51469147347E+03  0.53166110434E+03  0.00000000000E+00 0. -1.
         -5    1    3    3    0  503 -0.11541337850E+03 -0.38589716825E+02  0.77446651728E+02  0.14432424622E+03  0.47000000000E+01 0.  1.
         11    1    4    4    0    0 -0.12799942543E+02 -0.23835437866E+02  0.88245740336E+02  0.92299931283E+02  0.00000000000E+00 0. -1.
        -12    1    4    4    0    0 -0.27897410496E+02  0.56012583959E+02  0.79887494413E+02  0.10147751888E+03  0.00000000000E+00 0.  1.
<mgrwt>
<rscale>  2 0.23261565E+03</rscale>
<asrwt>0</asrwt>
<pdfrwt beam="1">  1       21 0.13949754E+00 0.23269223E+03</pdfrwt>
<pdfrwt beam="2">  1       21 0.10503872E-01 0.23269223E+03</pdfrwt>
<totfact> 0.26233754E+04</totfact>
</mgrwt>
</event>
<event>
12    1  0.1039378E-001  0.3537122E+03  0.7546771E-02  0.1061211E+00
         21   -1    0    0  501  502  0.00000000000E+00  0.00000000000E+00  0.47266295029E+03  0.47266295029E+03  0.00000000000E+00 0.  1.
         21   -1    0    0  502  503 -0.00000000000E+00 -0.00000000000E+00 -0.47538553857E+03  0.47538553857E+03  0.00000000000E+00 0. -1.
         -6    2    1    2    0  503 -0.28377229094E+03  0.11740159175E+03 -0.31753856219E+03  0.47533470520E+03  0.17550640058E+03 0.  0.
        -24    2    3    3    0    0 -0.25228467219E+03  0.85024657112E+02 -0.32654290519E+03  0.42904319168E+03  0.81061971733E+02 0.  0.
          6    2    1    2  501    0  0.28377229094E+03 -0.11740159175E+03  0.31481597391E+03  0.47271378366E+03  0.17331871503E+03 0.  0.
         24    2    5    5    0    0  0.19745562593E+03 -0.11773342577E+02  0.16587130744E+03  0.27068780178E+03  0.81432546292E+02 0.  0.
          5    1    5    5  501    0  0.86316665011E+02 -0.10562824918E+03  0.14894466648E+03  0.20202598188E+03  0.47000000000E+01 0. -1.
        -13    1    6    6    0    0  0.18769539168E+03 -0.52122668342E+01  0.11885605855E+03  0.22222396459E+03  0.00000000000E+00 0.  1.
         14    1    6    6    0    0  0.97602342465E+01 -0.65610757427E+01  0.47015248884E+02  0.48463837189E+02  0.00000000000E+00 0. -1.
         -5    1    3    3    0  503 -0.31487618749E+02  0.32376934641E+02  0.90043430012E+01  0.46291513522E+02  0.47000000000E+01 0.  1.
         11    1    4    4    0    0 -0.19791342557E+03  0.36193606358E+02 -0.20510325645E+03  0.28731001891E+03  0.00000000000E+00 0. -1.
        -12    1    4    4    0    0 -0.54371246615E+02  0.48831050754E+02 -0.12143964874E+03  0.14173317277E+03  0.00000000000E+00 0.  1.
<mgrwt>
<rscale>  2 0.35344183E+03</rscale>
<asrwt>0</asrwt>
<pdfrwt beam="1">  1       21 0.72717377E-01 0.35371223E+03</pdfrwt>
<pdfrwt beam="2">  1       21 0.73136237E-01 0.35371223E+03</pdfrwt>
<totfact> 0.25849248E+03</totfact>
</mgrwt>
</event>
<event>
12    1  0.1039378E-001  0.2041812E+03  0.7546771E-02  0.1146801E+00
         21   -1    0    0  503  502  0.00000000000E+00  0.00000000000E+00  0.50254162070E+03  0.50254162070E+03  0.00000000000E+00 0.  1.
         21   -1    0    0  501  503 -0.00000000000E+00 -0.00000000000E+00 -0.89784203359E+02  0.89784203359E+02  0.00000000000E+00 0.  1.
          6    2    1    2  501    0 -0.93873281332E+02 -0.53541456805E+02  0.11737915131E+03  0.23324604264E+03  0.17013809303E+03 0.  0.
         24    2    3    3    0    0  0.19953393625E+02 -0.31696471202E+02  0.69586786180E+02  0.10778722273E+03  0.73300480005E+02 0.  0.
         -6    2    1    2    0  502  0.93873281332E+02  0.53541456805E+02  0.29537826604E+03  0.35907978143E+03  0.17323708852E+03 0.  0.
        -24    2    5    5    0    0  0.10421955552E+03  0.67307158696E+02  0.14179655882E+03  0.20446422357E+03  0.79419048500E+02 0.  0.
          5    1    3    3  501    0 -0.11382667496E+03 -0.21844985602E+02  0.47792365128E+02  0.12545881991E+03  0.47000000000E+01 0. -1.
        -11    1    4    4    0    0  0.19407319000E+02  0.12213440392E+02 -0.28214375435E+01  0.23103520658E+02  0.00000000000E+00 0.  1.
         12    1    4    4    0    0  0.54607462472E+00 -0.43909911594E+02  0.72408223724E+02  0.84683702072E+02  0.00000000000E+00 0. -1.
         -5    1    5    5    0  502 -0.10346274187E+02 -0.13765701891E+02  0.15358170722E+03  0.15461555785E+03  0.47000000000E+01 0.  1.
         13    1    6    6    0    0  0.21984818654E+02  0.40410072466E+02  0.10440248574E+02  0.47173138524E+02  0.00000000000E+00 0. -1.
        -14    1    6    6    0    0  0.82234736865E+02  0.26897086230E+02  0.13135631025E+03  0.15729108505E+03  0.00000000000E+00 0.  1.
<mgrwt>
<rscale>  2 0.20352237E+03</rscale>
<asrwt>0</asrwt>
<pdfrwt beam="1">  1       21 0.77314094E-01 0.20418122E+03</pdfrwt>
<pdfrwt beam="2">  1       21 0.13812955E-01 0.20418122E+03</pdfrwt>
<totfact> 0.67311882E+04</totfact>
</mgrwt>
</event>
<event>
12    1  0.1039378E-001  0.1870973E+03  0.7546771E-02  0.1161459E+00
         21   -1    0    0  501  502  0.00000000000E+00  0.00000000000E+00  0.55705882628E+02  0.55705882628E+02  0.00000000000E+00 0. -1.
         21   -1    0    0  502  503 -0.00000000000E+00 -0.00000000000E+00 -0.10557342918E+04  0.10557342918E+04  0.00000000000E+00 0. -1.
         -6    2    1    2    0  503  0.68240398609E+02  0.30748299061E+02 -0.85447583176E+03  0.87439386251E+03  0.16980421032E+03 0.  0.
        -24    2    3    3    0    0  0.10797635137E+03  0.11058538054E+01 -0.67406619039E+03  0.68723791364E+03  0.79187155136E+02 0.  0.
          6    2    1    2  501    0 -0.68240398609E+02 -0.30748299061E+02 -0.14555257740E+03  0.23704631190E+03  0.17147358776E+03 0.  0.
         24    2    5    5    0    0  0.12656076542E+02 -0.20745497353E+02 -0.12757069780E+03  0.15344168447E+03  0.81728303926E+02 0.  0.
          5    1    5    5  501    0 -0.80896475151E+02 -0.10002801709E+02 -0.17981879602E+02  0.83604627431E+02  0.47000000000E+01 0. -1.
        -13    1    6    6    0    0 -0.33536079091E+02 -0.51729734258E+01 -0.71504194346E+02  0.79147192395E+02  0.00000000000E+00 0.  1.
         14    1    6    6    0    0  0.46192155633E+02 -0.15572523927E+02 -0.56066503450E+02  0.74294492075E+02  0.00000000000E+00 0. -1.
         -5    1    3    3    0  503 -0.39735952760E+02  0.29642445256E+02 -0.18040964136E+03  0.18715594888E+03  0.47000000000E+01 0.  1.
         11    1    4    4    0    0  0.43053013697E+02  0.31345710739E+02 -0.41680134791E+03  0.42018981329E+03  0.00000000000E+00 0. -1.
        -12    1    4    4    0    0  0.64923337672E+02 -0.30239856934E+02 -0.25726484248E+03  0.26704810035E+03  0.00000000000E+00 0.  1.
<mgrwt>
<rscale>  2 0.18671393E+03</rscale>
<asrwt>0</asrwt>
<pdfrwt beam="1">  1       21 0.85701361E-02 0.18709730E+03</pdfrwt>
<pdfrwt beam="2">  1       21 0.16242065E+00 0.18709730E+03</pdfrwt>
<totfact> 0.25814735E+04</totfact>
</mgrwt>
</event>
<event>
12    1  0.1039378E-001  0.1894073E+03  0.7546771E-02  0.1159437E+00
         21   -1    0    0  503  502  0.00000000000E+00  0.00000000000E+00  0.11358803325E+03  0.11358803325E+03  0.00000000000E+00 0. -1.
         21   -1    0    0  501  503 -0.00000000000E+00 -0.00000000000E+00 -0.51794566391E+03  0.51794566391E+03  0.00000000000E+00 0. -1.
          6    2    1    2  501    0  0.76323609688E+02  0.98008209667E+01 -0.40036512430E+03  0.44208430057E+03  0.17095305370E+03 0.  0.
         24    2    3    3    0    0 -0.14371774593E+02  0.12511698634E+02 -0.12664560947E+03  0.15367926528E+03  0.84941836978E+02 0.  0.
         -6    2    1    2    0  502 -0.76323609688E+02 -0.98008209667E+01 -0.39925063654E+01  0.18944939659E+03  0.17307161603E+03 0.  0.
        -24    2    5    5    0    0 -0.35049261586E+01 -0.28503096231E+01 -0.70406406210E+02  0.90536473414E+02  0.56739600020E+02 0.  0.
          5    1    3    3  501    0  0.90695384281E+02 -0.27108776672E+01 -0.27371951482E+03  0.28840503529E+03  0.47000000000E+01 0. -1.
        -11    1    4    4    0    0 -0.14915217987E+02  0.17161452895E+02  0.38833214403E+01  0.23066412345E+02  0.00000000000E+00 0.  1.
         12    1    4    4    0    0  0.54344339339E+00 -0.46497542611E+01 -0.13052893091E+03  0.13061285293E+03  0.00000000000E+00 0. -1.
         -5    1    5    5    0  502 -0.72818683529E+02 -0.69505113436E+01  0.66413899845E+02  0.98912923178E+02  0.47000000000E+01 0.  1.
         13    1    6    6    0    0  0.14486847620E+02 -0.87523698046E+01  0.71203450309E+00  0.16940475917E+02  0.00000000000E+00 0. -1.
        -14    1    6    6    0    0 -0.17991773778E+02  0.59020601815E+01 -0.71118440713E+02  0.73595997497E+02  0.00000000000E+00 0.  1.
<mgrwt>
<rscale>  2 0.18892199E+03</rscale>
<asrwt>0</asrwt>
<pdfrwt beam="1">  1       21 0.17475082E-01 0.18940732E+03</pdfrwt>
<pdfrwt beam="2">  1       21 0.79683949E-01 0.18940732E+03</pdfrwt>
<totfact> 0.41217650E+04</totfact>
</mgrwt>
</event>
<event>
11    1  0.1039378E-001  0.1933401E+03  0.7546771E-02  0.1156973E+00
         21   -1    0    0  501  502  0.00000000000E+00  0.00000000000E+00  0.44641319152E+02  0.44641319152E+02  0.00000000000E+00 0.  1.
         21   -1    0    0  502  503 -0.00000000000E+00 -0.00000000000E+00 -0.80907535105E+03  0.80907535105E+03  0.00000000000E+00 0. -1.
         -6    2    1    2    0  503  0.20468533370E+02 -0.70762046565E+02 -0.38207450197E+03  0.42820708066E+03  0.17875723980E+03 0.  0.
        -24    2    3    3    0    0  0.80283460485E+02 -0.66627502579E+02 -0.23248459058E+03  0.26698006199E+03  0.79653063441E+02 0.  0.
          6    2    1    2  501    0 -0.20468533370E+02  0.70762046565E+02 -0.38235952993E+03  0.42550958955E+03  0.17156157079E+03 0.  0.
          5    1    5    5  501    0  0.42563883353E+02  0.73028918017E+01 -0.27329278591E+03  0.27672378508E+03  0.47000000000E+01 0. -1.
        -11    1    5    5    0    0 -0.49613522397E+02  0.18307114822E+02 -0.69079264760E+02  0.86997683173E+02  0.00000000000E+00 0.  1.
         12    1    5    5    0    0 -0.13418894327E+02  0.45152039942E+02 -0.39987479259E+02  0.61788121297E+02  0.00000000000E+00 0. -1.
         -5    1    3    3    0  503 -0.59814927115E+02 -0.41345439865E+01 -0.14958991139E+03  0.16122701867E+03  0.47000000000E+01 0.  1.
         13    1    4    4    0    0 -0.11531954971E+01  0.61342609840E+01 -0.75435653447E+02  0.75693439800E+02  0.00000000000E+00 0. -1.
        -14    1    4    4    0    0  0.81436655982E+02 -0.72761763563E+02 -0.15704893713E+03  0.19128662219E+03  0.00000000000E+00 0.  1.
<mgrwt>
<rscale>  2 0.19166009E+03</rscale>
<asrwt>0</asrwt>
<pdfrwt beam="1">  1       21 0.68678959E-02 0.19334006E+03</pdfrwt>
<pdfrwt beam="2">  1       21 0.12447312E+00 0.19334006E+03</pdfrwt>
<totfact> 0.75341433E+04</totfact>
</mgrwt>
</event>
<event>
12    1  0.1039378E-001  0.2430515E+03  0.7546771E-02  0.1117940E+00
         21   -1    0    0  501  502  0.00000000000E+00  0.00000000000E+00  0.91231998744E+02  0.91231998744E+02  0.00000000000E+00 0. -1.
         21   -1    0    0  502  503 -0.00000000000E+00 -0.00000000000E+00 -0.87918633871E+03  0.87918633871E+03  0.00000000000E+00 0.  1.
         -6    2    1    2    0  503 -0.14939397769E+03  0.82819231634E+02 -0.64506071954E+03  0.68933108689E+03  0.17290584075E+03 0.  0.
        -24    2    3    3    0    0 -0.29951041324E+02  0.63109021794E+02 -0.20194357830E+03  0.22995107178E+03  0.84949826902E+02 0.  0.
          6    2    1    2  501    0  0.14939397769E+03 -0.82819231634E+02 -0.14289362043E+03  0.28108725056E+03  0.17150472288E+03 0.  0.
         24    2    5    5    0    0  0.84464659364E+02  0.20261206681E+02 -0.88980458690E+02  0.14778266643E+03  0.79858620645E+02 0.  0.
          5    1    5    5  501    0  0.64929318325E+02 -0.10308043831E+03 -0.53913161738E+02  0.13330458413E+03  0.47000000000E+01 0. -1.
        -13    1    6    6    0    0 -0.96002620357E+01  0.20348046208E+02 -0.26945542358E+02  0.35103707334E+02  0.00000000000E+00 0.  1.
         14    1    6    6    0    0  0.94064921400E+02 -0.86839526460E-01 -0.62034916332E+02  0.11267895910E+03  0.00000000000E+00 0. -1.
         -5    1    3    3    0  503 -0.11944293637E+03  0.19710209839E+02 -0.44311714124E+03  0.45938001511E+03  0.47000000000E+01 0.  1.
         13    1    4    4    0    0 -0.52471972024E+02  0.24864677181E+02 -0.71172223099E+02  0.91853390576E+02  0.00000000000E+00 0. -1.
        -14    1    4    4    0    0  0.22520930701E+02  0.38244344613E+02 -0.13077135520E+03  0.13809768121E+03  0.00000000000E+00 0.  1.
<mgrwt>
<rscale>  2 0.24280240E+03</rscale>
<asrwt>0</asrwt>
<pdfrwt beam="1">  1       21 0.14035693E-01 0.24305147E+03</pdfrwt>
<pdfrwt beam="2">  1       21 0.13525943E+00 0.24305147E+03</pdfrwt>
<totfact> 0.16767990E+04</totfact>
</mgrwt>
</event>
<event>
12    1  0.1039378E-001  0.2226830E+03  0.7546771E-02  0.1132194E+00
         21   -1    0    0  503  502  0.00000000000E+00  0.00000000000E+00  0.70303268860E+03  0.70303268860E+03  0.00000000000E+00 0. -1.
         21   -1    0    0  501  503 -0.00000000000E+00 -0.00000000000E+00 -0.77987940739E+02  0.77987940739E+02  0.00000000000E+00 0.  1.
          6    2    1    2  501    0 -0.10141263305E+03  0.97373192512E+02  0.18876970402E+03  0.29192760384E+03  0.17268950162E+03 0.  0.
         24    2    3    3    0    0 -0.37680189750E+02  0.12611166246E+03  0.13874259639E+03  0.20583157907E+03  0.76112960668E+02 0.  0.
         -6    2    1    2    0  502  0.10141263305E+03 -0.97373192512E+02  0.43627504384E+03  0.48909302550E+03  0.17061656703E+03 0.  0.
        -24    2    5    5    0    0  0.15254086217E+01  0.60601517033E+00  0.18129658377E+03  0.19820904889E+03  0.80097950358E+02 0.  0.
          5    1    3    3  501    0 -0.63732443297E+02 -0.28738469950E+02  0.50027107625E+02  0.86096024769E+02  0.47000000000E+01 0. -1.
        -13    1    4    4    0    0 -0.44549422246E+02  0.12005197082E+03  0.90689144749E+02  0.15691286657E+03  0.00000000000E+00 0.  1.
         14    1    4    4    0    0  0.68692324952E+01  0.60596916381E+01  0.48053451642E+02  0.48918712499E+02  0.00000000000E+00 0. -1.
         -5    1    5    5    0  502  0.99887224426E+02 -0.97979207682E+02  0.25497846007E+03  0.29088397660E+03  0.47000000000E+01 0.  1.
         11    1    6    6    0    0  0.18975412625E+02  0.26503809249E+02  0.31989117507E+02  0.45670798415E+02  0.00000000000E+00 0. -1.
        -12    1    6    6    0    0 -0.17450004003E+02 -0.25897794078E+02  0.14930746626E+03  0.15253825048E+03  0.00000000000E+00 0.  1.
<mgrwt>
<rscale>  2 0.22228101E+03</rscale>
<asrwt>0</asrwt>
<pdfrwt beam="1">  1       21 0.10815887E+00 0.22268301E+03</pdfrwt>
<pdfrwt beam="2">  1       21 0.11998145E-01 0.22268301E+03</pdfrwt>
<totfact> 0.39302357E+04</totfact>
</mgrwt>
</event>
<event>
12    1  0.1039378E-001  0.1834132E+03  0.7546771E-02  0.1164606E+00
         21   -1    0    0  503  502  0.00000000000E+00  0.00000000000E+00  0.23530047441E+03  0.23530047441E+03  0.00000000000E+00 0.  1.
         21   -1    0    0  501  503 -0.00000000000E+00 -0.00000000000E+00 -0.17871206643E+03  0.17871206643E+03  0.00000000000E+00 0.  1.
          6    2    1    2  501    0  0.17052461478E+02 -0.57482603043E+02 -0.64582982575E+02  0.19418779456E+03  0.17304017401E+03 0.  0.
         24    2    3    3    0    0  0.29714888580E+02 -0.10429163586E+03 -0.55894228525E+02  0.14470035110E+03  0.77809426884E+02 0.  0.
         -6    2    1    2    0  502 -0.17052461478E+02  0.57482603043E+02  0.12117139055E+03  0.21982474628E+03  0.17333602365E+03 0.  0.
        -24    2    5    5    0    0 -0.42715582601E+02  0.19803513642E+02  0.24168772948E+01  0.92533607615E+02  0.79623031172E+02 0.  0.
          5    1    3    3  501    0 -0.12662427103E+02  0.46809032815E+02 -0.86887540490E+01  0.49487443460E+02  0.47000000000E+01 0. -1.
        -13    1    4    4    0    0  0.54500474802E+02 -0.64314685711E+02 -0.47990333740E+02  0.97003879738E+02  0.00000000000E+00 0.  1.
         14    1    4    4    0    0 -0.24785586222E+02 -0.39976950147E+02 -0.79038947860E+01  0.47696471360E+02  0.00000000000E+00 0. -1.
         -5    1    5    5    0  502  0.25663121123E+02  0.37679089401E+02  0.11875451325E+03  0.12729113866E+03  0.47000000000E+01 0.  1.
         13    1    6    6    0    0 -0.54090461382E+02  0.40738402244E+02 -0.40793027714E+01  0.67838308801E+02  0.00000000000E+00 0. -1.
        -14    1    6    6    0    0  0.11374878781E+02 -0.20934888603E+02  0.64961800662E+01  0.24695298814E+02  0.00000000000E+00 0.  1.
<mgrwt>
<rscale>  2 0.18334330E+03</rscale>
<asrwt>0</asrwt>
<pdfrwt beam="1">  1       21 0.36200073E-01 0.18341323E+03</pdfrwt>
<pdfrwt beam="2">  1       21 0.27494164E-01 0.18341323E+03</pdfrwt>
<totfact> 0.93202174E+04</totfact>
</mgrwt>
</event>
<event>
12    1  0.1039378E-001  0.1945649E+03  0.7546771E-02  0.1155367E+00
         21   -1    0    0  503  502  0.00000000000E+00  0.00000000000E+00  0.21833008257E+03  0.21833008257E+03  0.00000000000E+00 0.  1.
         21   -1    0    0  501  503 -0.00000000000E+00 -0.00000000000E+00 -0.20802802781E+03  0.20802802781E+03  0.00000000000E+00 0.  1.
          6    2    1    2  501    0  0.63855833942E+02  0.51606224985E+02 -0.86584745906E+02  0.20900459650E+03  0.17159613385E+03 0.  0.
         24    2    3    3    0    0 -0.21833912549E+02  0.43210681602E+02 -0.94706184519E+01  0.93324449308E+02  0.79220436019E+02 0.  0.
         -6    2    1    2    0  502 -0.63855833942E+02 -0.51606224985E+02  0.96886800661E+02  0.21735351387E+03  0.17639367297E+03 0.  0.
        -24    2    5    5    0    0 -0.10008696202E+01 -0.59928923670E+02 -0.15442132486E+01  0.10017515259E+03  0.80250850275E+02 0.  0.
          5    1    3    3  501    0  0.85689746492E+02  0.83955433835E+01 -0.77114127454E+02  0.11568014720E+03  0.47000000000E+01 0. -1.
        -11    1    4    4    0    0  0.46176183775E+00  0.26577050422E+02 -0.42508829801E+02  0.50135351242E+02  0.00000000000E+00 0.  1.
         12    1    4    4    0    0 -0.22295674387E+02  0.16633631180E+02  0.33038211349E+02  0.43189098066E+02  0.00000000000E+00 0. -1.
         -5    1    5    5    0  502 -0.62854964322E+02  0.83226986844E+01  0.98431013909E+02  0.11717836128E+03  0.47000000000E+01 0.  1.
         11    1    6    6    0    0  0.12460594289E+02 -0.47556864477E+02 -0.36159442629E+02  0.61028084192E+02  0.00000000000E+00 0. -1.
        -12    1    6    6    0    0 -0.13461463909E+02 -0.12372059193E+02  0.34615229380E+02  0.39147068400E+02  0.00000000000E+00 0.  1.
<mgrwt>
<rscale>  2 0.19347103E+03</rscale>
<asrwt>0</asrwt>
<pdfrwt beam="1">  1       21 0.33589243E-01 0.19456489E+03</pdfrwt>
<pdfrwt beam="2">  1       21 0.32004312E-01 0.19456489E+03</pdfrwt>
<totfact> 0.80101634E+04</totfact>
</mgrwt>
</event>
<event>
12    1  0.1039378E-001  0.2216163E+03  0.7546771E-02  0.1132723E+00
         21   -1    0    0  503  502  0.00000000000E+00  0.00000000000E+00  0.32528673737E+03  0.32528673737E+03  0.00000000000E+00 0.  1.
         21   -1    0    0  501  503 -0.00000000000E+00 -0.00000000000E+00 -0.18092888537E+03  0.18092888537E+03  0.00000000000E+00 0.  1.
          6    2    1    2  501    0  0.94698136687E+02 -0.10082968017E+03 -0.31006658772E+02  0.22377486467E+03  0.17314564873E+03 0.  0.
         24    2    3    3    0    0  0.38054539668E+01 -0.86303058520E+02 -0.53750406227E+02  0.12884399215E+03  0.79050419063E+02 0.  0.
         -6    2    1    2    0  502 -0.94698136687E+02  0.10082968017E+03  0.17536451078E+03  0.28244075807E+03  0.17287483530E+03 0.  0.
        -24    2    5    5    0    0 -0.13330976590E+03  0.91674089919E+02  0.13362808625E+03  0.22465925692E+03  0.80247640688E+02 0.  0.
          5    1    3    3  501    0  0.90892682720E+02 -0.14526621654E+02  0.22743747455E+02  0.94930872518E+02  0.47000000000E+01 0. -1.
        -13    1    4    4    0    0 -0.37648659211E+02 -0.39995476075E+02 -0.24110638081E+02  0.59986519448E+02  0.00000000000E+00 0.  1.
         14    1    4    4    0    0  0.41454113178E+02 -0.46307582445E+02 -0.29639768146E+02  0.68857472703E+02  0.00000000000E+00 0. -1.
         -5    1    5    5    0  502  0.38611629211E+02  0.91555902545E+01  0.41736424523E+02  0.57781501151E+02  0.47000000000E+01 0.  1.
         11    1    6    6    0    0 -0.35341442403E+02  0.19058017271E+02 -0.44993064080E+01  0.40403828180E+02  0.00000000000E+00 0. -1.
        -12    1    6    6    0    0 -0.97968323495E+02  0.72616072649E+02  0.13812739266E+03  0.18425542874E+03  0.00000000000E+00 0.  1.
<mgrwt>
<rscale>  2 0.22156339E+03</rscale>
<asrwt>0</asrwt>
<pdfrwt beam="1">  1       21 0.50044113E-01 0.22161628E+03</pdfrwt>
<pdfrwt beam="2">  1       21 0.27835213E-01 0.22161628E+03</pdfrwt>
<totfact> 0.46221131E+04</totfact>
</mgrwt>
</event>
<event>
12    1  0.1039378E-001  0.2428703E+03  0.7546771E-02  0.1118009E+00
         21   -1    0    0  503  502  0.00000000000E+00  0.00000000000E+00  0.15470518616E+03  0.15470518616E+03  0.00000000000E+00 0.  1.
         21   -1    0    0  501  503 -0.00000000000E+00 -0.00000000000E+00 -0.14268816855E+04  0.14268816855E+04  0.00000000000E+00 0.  1.
          6    2    1    2  501    0  0.15633086079E+03 -0.67401309973E+02 -0.13136266947E+04  0.13358896216E+04  0.17321580002E+03 0.  0.
         24    2    3    3    0    0  0.37114716085E+02 -0.17349766833E+02 -0.83846170570E+03  0.84342489908E+03  0.81664018417E+02 0.  0.
         -6    2    1    2    0  502 -0.15633086079E+03  0.67401309973E+02  0.41450195361E+02  0.24569725009E+03  0.17224037095E+03 0.  0.
        -24    2    5    5    0    0 -0.13545377075E+03  0.86068333701E+02  0.80100429640E+02  0.19773641947E+03  0.83235393202E+02 0.  0.
          5    1    3    3  501    0  0.11921614470E+03 -0.50051543140E+02 -0.47516498899E+03  0.49246472249E+03  0.47000000000E+01 0. -1.
        -13    1    4    4    0    0 -0.23972482984E+02  0.31877944207E+01 -0.14809261532E+03  0.15005420583E+03  0.00000000000E+00 0.  1.
         14    1    4    4    0    0  0.61087199068E+02 -0.20537561254E+02 -0.69036909038E+03  0.69337069325E+03  0.00000000000E+00 0. -1.
         -5    1    5    5    0  502 -0.20877090040E+02 -0.18667023728E+02 -0.38650234279E+02  0.47960830615E+02  0.47000000000E+01 0.  1.
         13    1    6    6    0    0 -0.20119013661E+02  0.41768757401E+02 -0.65606001531E+01  0.46823554755E+02  0.00000000000E+00 0. -1.
        -14    1    6    6    0    0 -0.11533475709E+03  0.44299576300E+02  0.86661029793E+02  0.15091286472E+03  0.00000000000E+00 0.  1.
<mgrwt>
<rscale>  2 0.24269645E+03</rscale>
<asrwt>0</asrwt>
<pdfrwt beam="1">  1       21 0.23800798E-01 0.24287031E+03</pdfrwt>
<pdfrwt beam="2">  1       21 0.21952026E+00 0.24287031E+03</pdfrwt>
<totfact> 0.16021171E+03</totfact>
</mgrwt>
</event>
<event>
12    1  0.1039378E-001  0.2141112E+03  0.7546771E-02  0.1138393E+00
         21   -1    0    0  503  502  0.00000000000E+00  0.00000000000E+00  0.26098524741E+03  0.26098524741E+03  0.00000000000E+00 0. -1.
         21   -1    0    0  501  503 -0.00000000000E+00 -0.00000000000E+00 -0.40728529870E+03  0.40728529870E+03  0.00000000000E+00 0.  1.
          6    2    1    2  501    0  0.11919788078E+03 -0.38944394006E+02 -0.32524481935E+03  0.38939413011E+03  0.17354767485E+03 0.  0.
         24    2    3    3    0    0  0.46356798307E+02 -0.83555580390E+02 -0.15883799670E+03  0.20228640213E+03  0.80992539951E+02 0.  0.
         -6    2    1    2    0  502 -0.11919788078E+03  0.38944394006E+02  0.17894476806E+03  0.27887641600E+03  0.17328019154E+03 0.  0.
        -24    2    5    5    0    0 -0.95535005613E+02 -0.57405778925E+01  0.40090270620E+02  0.13102737193E+03  0.80006567628E+02 0.  0.
          5    1    3    3  501    0  0.72841082472E+02  0.44611186385E+02 -0.16640682265E+03  0.18710772798E+03  0.47000000000E+01 0. -1.
        -13    1    4    4    0    0  0.53557817714E+02 -0.25823215257E+02 -0.11492362325E+03  0.12939365311E+03  0.00000000000E+00 0.  1.
         14    1    4    4    0    0 -0.72010194065E+01 -0.57732365133E+02 -0.43914373454E+02  0.72892749024E+02  0.00000000000E+00 0. -1.
         -5    1    5    5    0  502 -0.23662875167E+02  0.44684971898E+02  0.13885449744E+03  0.14784904408E+03  0.47000000000E+01 0.  1.
         11    1    6    6    0    0 -0.22614205055E+02 -0.24496244888E+02  0.44501069101E+02  0.55604077504E+02  0.00000000000E+00 0. -1.
        -12    1    6    6    0    0 -0.72920800558E+02  0.18755666996E+02 -0.44107984809E+01  0.75423294423E+02  0.00000000000E+00 0.  1.
<mgrwt>
<rscale>  2 0.21405697E+03</rscale>
<asrwt>0</asrwt>
<pdfrwt beam="1">  1       21 0.40151577E-01 0.21411118E+03</pdfrwt>
<pdfrwt beam="2">  1       21 0.62659276E-01 0.21411118E+03</pdfrwt>
<totfact> 0.13916389E+04</totfact>
</mgrwt>
</event>
<event>
12    1  0.1039378E-001  0.1847262E+03  0.7546771E-02  0.1163337E+00
         21   -1    0    0  503  502  0.00000000000E+00  0.00000000000E+00  0.11964952222E+04  0.11964952222E+04  0.00000000000E+00 0. -1.
         21   -1    0    0  501  503 -0.00000000000E+00 -0.00000000000E+00 -0.34709183363E+02  0.34709183363E+02  0.00000000000E+00 0. -1.
          6    2    1    2  501    0  0.23548849730E+02 -0.62370862357E+02  0.32067498731E+03  0.37007597719E+03  0.17227625668E+03 0.  0.
         24    2    3    3    0    0 -0.40888239191E+00 -0.57934018786E+02  0.77239064110E+02  0.12537861878E+03  0.79983794022E+02 0.  0.
         -6    2    1    2    0  502 -0.23548849730E+02  0.62370862357E+02  0.84111105151E+03  0.86112842835E+03  0.17213278696E+03 0.  0.
        -24    2    5    5    0    0 -0.20116812243E+02 -0.28143201151E+02  0.52830720354E+03  0.53544006215E+03  0.79942685316E+02 0.  0.
          5    1    3    3  501    0  0.23957732122E+02 -0.44368435705E+01  0.24343592320E+03  0.24469735841E+03  0.47000000000E+01 0. -1.
        -11    1    4    4    0    0  0.36928196279E+02 -0.30804253959E+02  0.58086043681E+02  0.75409430530E+02  0.00000000000E+00 0.  1.
         12    1    4    4    0    0 -0.37337078671E+02 -0.27129764828E+02  0.19153020429E+02  0.49969188255E+02  0.00000000000E+00 0. -1.
         -5    1    5    5    0  502 -0.34320374870E+01  0.90514063508E+02  0.31280384797E+03  0.32568836621E+03  0.47000000000E+01 0.  1.
         11    1    6    6    0    0 -0.50620379257E+02 -0.24434202065E+02  0.32531855615E+03  0.33013878294E+03  0.00000000000E+00 0. -1.
        -12    1    6    6    0    0  0.30503567014E+02 -0.37089990857E+01  0.20298864739E+03  0.20530127920E+03  0.00000000000E+00 0.  1.
<mgrwt>
<rscale>  2 0.18469278E+03</rscale>
<asrwt>0</asrwt>
<pdfrwt beam="1">  1       21 0.18407616E+00 0.18472623E+03</pdfrwt>
<pdfrwt beam="2">  1       21 0.53398753E-02 0.18472623E+03</pdfrwt>
<totfact> 0.41292906E+04</totfact>
</mgrwt>
</event>
<event>
12    1  0.1039378E-001  0.3195207E+03  0.7546771E-02  0.1075996E+00
         21   -1    0    0  503  502  0.00000000000E+00  0.00000000000E+00  0.84732421988E+02  0.84732421988E+02  0.00000000000E+00 0. -1.
         21   -1    0    0  501  503 -0.00000000000E+00 -0.00000000000E+00 -0.12008677174E+04  0.12008677174E+04  0.00000000000E+00 0.  1.
          6    2    1    2  501    0 -0.23126396280E+03  0.13459510919E+03 -0.55167750330E+03  0.63698155405E+03  0.17262261915E+03 0.  0.
         24    2    3    3    0    0 -0.46738370678E+02  0.85430713815E+02 -0.19835600459E+03  0.23532871468E+03  0.80942061007E+02 0.  0.
         -6    2    1    2    0  502  0.23126396280E+03 -0.13459510919E+03 -0.56445779206E+03  0.64861858529E+03  0.17462704904E+03 0.  0.
        -24    2    5    5    0    0  0.48877130136E+02 -0.19797566452E+02 -0.11145010052E+03  0.14693991209E+03  0.79933068071E+02 0.  0.
          5    1    3    3  501    0 -0.18452559212E+03  0.49164395379E+02 -0.35332149872E+03  0.40165283937E+03  0.47000000000E+01 0. -1.
        -13    1    4    4    0    0 -0.54879770651E+02  0.37418668267E+02 -0.16032703457E+03  0.17354164911E+03  0.00000000000E+00 0.  1.
         14    1    4    4    0    0  0.81413999732E+01  0.48012045548E+02 -0.38028970021E+02  0.61787065573E+02  0.00000000000E+00 0. -1.
         -5    1    5    5    0  502  0.18238683266E+03 -0.11479754274E+03 -0.45300769154E+03  0.50167867320E+03  0.47000000000E+01 0.  1.
         11    1    6    6    0    0 -0.71268806267E+01 -0.27343846492E+02 -0.73829819141E+02  0.79052644249E+02  0.00000000000E+00 0. -1.
        -12    1    6    6    0    0  0.56004010762E+02  0.75462800394E+01 -0.37620281382E+02  0.67887267843E+02  0.00000000000E+00 0.  1.
<mgrwt>
<rscale>  2 0.31924757E+03</rscale>
<asrwt>0</asrwt>
<pdfrwt beam="1">  1       21 0.13035758E-01 0.31952069E+03</pdfrwt>
<pdfrwt beam="2">  1       21 0.18474886E+00 0.31952069E+03</pdfrwt>
<totfact> 0.78636189E+03</totfact>
</mgrwt>
</event>
<event>
12    1  0.1039378E-001  0.2056347E+03  0.7546771E-02  0.1145301E+00
         21   -1    0    0  503  502  0.00000000000E+00  0.00000000000E+00  0.21761629106E+03  0.21761629106E+03  0.00000000000E+00 0. -1.
         21   -1    0    0  501  503 -0.00000000000E+00 -0.00000000000E+00 -0.19647802059E+03  0.19647802059E+03  0.00000000000E+00 0. -1.
          6    2    1    2  501    0  0.11001189165E+03 -0.15238983361E+01  0.37161551504E+02  0.20896552880E+03  0.17372585515E+03 0.  0.
         24    2    3    3    0    0  0.12871829091E+03 -0.44855190526E+02  0.33922514350E+02  0.16142489757E+03  0.79541649726E+02 0.  0.
         -6    2    1    2    0  502 -0.11001189165E+03  0.15238983361E+01 -0.16023281036E+02  0.20512878285E+03  0.17238368092E+03 0.  0.
        -24    2    5    5    0    0 -0.13072400214E+03 -0.34544117443E+01 -0.52011036487E+02  0.16304572646E+03  0.82328994325E+02 0.  0.
          5    1    3    3  501    0 -0.18706399269E+02  0.43331292190E+02  0.32390371539E+01  0.47540631234E+02  0.47000000000E+01 0. -1.
        -11    1    4    4    0    0  0.47776122012E+02 -0.58700674223E+02  0.17448017033E+02  0.77670845800E+02  0.00000000000E+00 0.  1.
         12    1    4    4    0    0  0.80942168902E+02  0.13845483697E+02  0.16474497316E+02  0.83754051766E+02  0.00000000000E+00 0. -1.
         -5    1    5    5    0  502  0.20712110489E+02  0.49783100804E+01  0.35987755451E+02  0.42083056384E+02  0.47000000000E+01 0.  1.
         13    1    6    6    0    0 -0.79594784408E+02 -0.11902844402E+02  0.11256627081E+02  0.81263270073E+02  0.00000000000E+00 0. -1.
        -14    1    6    6    0    0 -0.51129217727E+02  0.84484326577E+01 -0.63267663568E+02  0.81782456389E+02  0.00000000000E+00 0.  1.
<mgrwt>
<rscale>  2 0.20535091E+03</rscale>
<asrwt>0</asrwt>
<pdfrwt beam="1">  1       21 0.33479430E-01 0.20563465E+03</pdfrwt>
<pdfrwt beam="2">  1       21 0.30227388E-01 0.20563465E+03</pdfrwt>
<totfact> 0.89741922E+04</totfact>
</mgrwt>
</event>
<event>
12    1  0.1039378E-001  0.2257946E+03  0.7546771E-02  0.1129899E+00
         21   -1    0    0  503  502  0.00000000000E+00  0.00000000000E+00  0.48820345922E+03  0.48820345922E+03  0.00000000000E+00 0. -1.
         21   -1    0    0  501  503 -0.00000000000E+00 -0.00000000000E+00 -0.10425066787E+03  0.10425066787E+03  0.00000000000E+00 0. -1.
          6    2    1    2  501    0  0.11863085996E+03  0.81372609826E+02  0.21300520938E+03  0.31041005547E+03  0.17403563069E+03 0.  0.
         24    2    3    3    0    0  0.64164429665E+02  0.61507289978E+02  0.22219192514E+03  0.25152280126E+03  0.77422523852E+02 0.  0.
         -6    2    1    2    0  502 -0.11863085996E+03 -0.81372609826E+02  0.17094758198E+03  0.28204407162E+03  0.17213657364E+03 0.  0.
        -24    2    5    5    0    0 -0.62862847518E+01 -0.51616342032E+02  0.34515604742E+02  0.10276073869E+03  0.81637481005E+02 0.  0.
          5    1    3    3  501    0  0.54466430296E+02  0.19865319849E+02 -0.91867157672E+01  0.58887254210E+02  0.47000000000E+01 0. -1.
        -11    1    4    4    0    0  0.58230999284E+01  0.12099150648E+02 -0.29558231118E+01  0.13748993762E+02  0.00000000000E+00 0.  1.
         12    1    4    4    0    0  0.58341329736E+02  0.49408139330E+02  0.22514774826E+03  0.23777380750E+03  0.00000000000E+00 0. -1.
         -5    1    5    5    0  502 -0.11234457521E+03 -0.29756267794E+02  0.13643197724E+03  0.17928333292E+03  0.47000000000E+01 0.  1.
         11    1    6    6    0    0 -0.19521891052E+02  0.17579126172E+02  0.76423778869E+01  0.27359383161E+02  0.00000000000E+00 0. -1.
        -12    1    6    6    0    0  0.13235606300E+02 -0.69195468204E+02  0.26873226855E+02  0.75401355530E+02  0.00000000000E+00 0.  1.
<mgrwt>
<rscale>  2 0.22542855E+03</rscale>
<asrwt>0</asrwt>
<pdfrwt beam="1">  1       21 0.75108223E-01 0.22579456E+03</pdfrwt>
<pdfrwt beam="2">  1       21 0.16038565E-01 0.22579456E+03</pdfrwt>
<totfact> 0.54169321E+04</totfact>
</mgrwt>
</event>
<event>
12    1  0.1039378E-001  0.1997893E+03  0.7546771E-02  0.1150328E+00
         21   -1    0    0  503  502  0.00000000000E+00  0.00000000000E+00  0.13571106452E+03  0.13571106452E+03  0.00000000000E+00 0. -1.
         21   -1    0    0  501  503 -0.00000000000E+00 -0.00000000000E+00 -0.30707381241E+03  0.30707381241E+03  0.00000000000E+00 0. -1.
          6    2    1    2  501    0  0.90751852716E+02 -0.30106119275E+02 -0.13628594295E+03  0.24184623963E+03  0.17542368194E+03 0.  0.
         24    2    3    3    0    0 -0.89700764918E+01 -0.13073765138E+02 -0.14118858576E+02  0.83159596342E+02  0.80403922101E+02 0.  0.
         -6    2    1    2    0  502 -0.90751852716E+02  0.30106119275E+02 -0.35076804937E+02  0.20093863729E+03  0.17321569364E+03 0.  0.
        -24    2    5    5    0    0 -0.11974779027E+03  0.10529673891E+02 -0.61274462616E+02  0.15697946446E+03  0.80234563537E+02 0.  0.
          5    1    3    3  501    0  0.99721929208E+02 -0.17032354137E+02 -0.12216708438E+03  0.15868664329E+03  0.47000000000E+01 0. -1.
        -11    1    4    4    0    0 -0.14505964868E+02 -0.33615866218E+02 -0.36905336933E+02  0.51985126454E+02  0.00000000000E+00 0.  1.
         12    1    4    4    0    0  0.55358883758E+01  0.20542101080E+02  0.22786478357E+02  0.31174469888E+02  0.00000000000E+00 0. -1.
         -5    1    5    5    0  502  0.28995937552E+02  0.19576445384E+02  0.26197657679E+02  0.43959172834E+02  0.47000000000E+01 0.  1.
         13    1    6    6    0    0 -0.11958488126E+03  0.19848823628E+02 -0.30745232141E+02  0.12505914171E+03  0.00000000000E+00 0. -1.
        -14    1    6    6    0    0 -0.16290901105E+00 -0.93191497374E+01 -0.30529230475E+02  0.31920322752E+02  0.00000000000E+00 0.  1.
<mgrwt>
<rscale>  2 0.19930351E+03</rscale>
<asrwt>0</asrwt>
<pdfrwt beam="1">  1       21 0.20878625E-01 0.19978925E+03</pdfrwt>
<pdfrwt beam="2">  1       21 0.47242125E-01 0.19978925E+03</pdfrwt>
<totfact> 0.91032539E+04</totfact>
</mgrwt>
</event>
<event>
12    1  0.1039378E-001  0.1932845E+03  0.7546771E-02  0.1156134E+00
         21   -1    0    0  501  502  0.00000000000E+00  0.00000000000E+00  0.13863292083E+03  0.13863292083E+03  0.00000000000E+00 0. -1.
         21   -1    0    0  502  503 -0.00000000000E+00 -0.00000000000E+00 -0.37171438798E+03  0.37171438798E+03  0.00000000000E+00 0. -1.
         -6    2    1    2    0  503 -0.74724403157E+02  0.39784657572E+02 -0.25339257278E+03  0.31869526954E+03  0.17375938388E+03 0.  0.
        -24    2    3    3    0    0 -0.59640510540E+02  0.15104235365E+02 -0.63399162281E+02  0.12645522926E+03  0.90478410713E+02 0.  0.
          6    2    1    2  501    0  0.74724403157E+02 -0.39784657572E+02  0.20311105628E+02  0.19165203926E+03  0.17073783335E+03 0.  0.
         24    2    5    5    0    0 -0.17650480551E+02 -0.31661691486E+02  0.39155358102E+02  0.96908714594E+02  0.80895949990E+02 0.  0.
          5    1    5    5  501    0  0.92374883707E+02 -0.81229660860E+01 -0.18844252473E+02  0.94743324669E+02  0.47000000000E+01 0. -1.
        -13    1    6    6    0    0 -0.18381823905E+02  0.23321537917E+02  0.27972180964E+02  0.40794956659E+02  0.00000000000E+00 0.  1.
         14    1    6    6    0    0  0.73134335397E+00 -0.54983229403E+02  0.11183177138E+02  0.56113757935E+02  0.00000000000E+00 0. -1.
         -5    1    3    3    0  503 -0.15083892617E+02  0.24680422207E+02 -0.18999341050E+03  0.19224004028E+03  0.47000000000E+01 0.  1.
         11    1    4    4    0    0 -0.50616343297E+02 -0.94745922664E+01 -0.80226266150E+02  0.95331190529E+02  0.00000000000E+00 0. -1.
        -12    1    4    4    0    0 -0.90241672422E+01  0.24578827632E+02  0.16827103868E+02  0.31124038728E+02  0.00000000000E+00 0.  1.
<mgrwt>
<rscale>  2 0.19260292E+03</rscale>
<asrwt>0</asrwt>
<pdfrwt beam="1">  1       21 0.21328142E-01 0.19328445E+03</pdfrwt>
<pdfrwt beam="2">  1       21 0.57186829E-01 0.19328445E+03</pdfrwt>
<totfact> 0.58747315E+04</totfact>
</mgrwt>
</event>
<event>
12    1  0.1039378E-001  0.1902632E+03  0.7546771E-02  0.1158363E+00
         21   -1    0    0  501  502  0.00000000000E+00  0.00000000000E+00  0.18229429651E+03  0.18229429651E+03  0.00000000000E+00 0.  1.
         21   -1    0    0  502  503 -0.00000000000E+00 -0.00000000000E+00 -0.28600545913E+03  0.28600545913E+03  0.00000000000E+00 0.  1.
         -6    2    1    2    0  503 -0.46357792527E+02  0.64816941442E+02  0.78135511274E+02  0.20511102251E+03  0.17209036175E+03 0.  0.
        -24    2    3    3    0    0  0.39613568462E+02  0.18508893332E+02  0.40489507429E+02  0.10035023865E+03  0.80740053541E+02 0.  0.
          6    2    1    2  501    0  0.46357792527E+02 -0.64816941442E+02 -0.18184667390E+03  0.26318873313E+03  0.17277099182E+03 0.  0.
         24    2    5    5    0    0  0.37827155196E+02  0.12374363774E+02 -0.33412216143E+02  0.95599510257E+02  0.80242579874E+02 0.  0.
          5    1    5    5  501    0  0.85306373308E+01 -0.77191305215E+02 -0.14843445775E+03  0.16758922287E+03  0.47000000000E+01 0. -1.
        -11    1    6    6    0    0  0.19698243704E+01  0.18614986495E+02 -0.51615420348E+02  0.54904913696E+02  0.00000000000E+00 0.  1.
         12    1    6    6    0    0  0.35857330826E+02 -0.62406227216E+01  0.18203204205E+02  0.40694596561E+02  0.00000000000E+00 0. -1.
         -5    1    3    3    0  503 -0.85971360990E+02  0.46308048110E+02  0.37646003844E+02  0.10476078386E+03  0.47000000000E+01 0.  1.
         13    1    4    4    0    0  0.28684686080E+02 -0.21687632334E+02 -0.75719119842E+01  0.36749128736E+02  0.00000000000E+00 0. -1.
        -14    1    4    4    0    0  0.10928882382E+02  0.40196525665E+02  0.48061419413E+02  0.63601109909E+02  0.00000000000E+00 0.  1.
<mgrwt>
<rscale>  2 0.19010858E+03</rscale>
<asrwt>0</asrwt>
<pdfrwt beam="1">  1       21 0.28045276E-01 0.19026323E+03</pdfrwt>
<pdfrwt beam="2">  1       21 0.44000840E-01 0.19026323E+03</pdfrwt>
<totfact> 0.60330491E+04</totfact>
</mgrwt>
</event>
<event>
12    1  0.1039378E-001  0.2597732E+03  0.7546771E-02  0.1107386E+00
         21   -1    0    0  501  502  0.00000000000E+00  0.00000000000E+00  0.18276361800E+03  0.18276361800E+03  0.00000000000E+00 0. -1.
         21   -1    0    0  502  503 -0.00000000000E+00 -0.00000000000E+00 -0.39893106336E+03  0.39893106336E+03  0.00000000000E+00 0.  1.
         -6    2    1    2    0  503  0.86344678484E+01 -0.19420094437E+03 -0.27257552343E+02  0.26049528334E+03  0.17124910994E+03 0.  0.
        -24    2    3    3    0    0 -0.31554167164E+02 -0.83720347775E+02  0.22838195914E+02  0.13261736265E+03  0.95189387988E+02 0.  0.
          6    2    1    2  501    0 -0.86344678484E+01  0.19420094437E+03 -0.18890989302E+03  0.32119939801E+03  0.17231814987E+03 0.  0.
         24    2    5    5    0    0  0.56089599295E+02  0.83629729912E+02 -0.11893300308E+03  0.17513758418E+03  0.79925836229E+02 0.  0.
          5    1    5    5  501    0 -0.64724067144E+02  0.11057121446E+03 -0.69976889937E+02  0.14606181383E+03  0.47000000000E+01 0. -1.
        -11    1    6    6    0    0  0.28639556532E+02  0.17170701044E+02  0.30578969978E+01  0.33532192095E+02  0.00000000000E+00 0.  1.
         12    1    6    6    0    0  0.27450042764E+02  0.66459028868E+02 -0.12199090008E+03  0.14160539209E+03  0.00000000000E+00 0. -1.
         -5    1    3    3    0  503  0.40188635013E+02 -0.11048059660E+03 -0.50095748257E+02  0.12787792070E+03  0.47000000000E+01 0.  1.
         11    1    4    4    0    0 -0.18367590489E+02 -0.94230743455E+02 -0.91677635960E+01  0.96440910831E+02  0.00000000000E+00 0. -1.
        -12    1    4    4    0    0 -0.13186576675E+02  0.10510395680E+02  0.32005959510E+02  0.36176451815E+02  0.00000000000E+00 0.  1.
<mgrwt>
<rscale>  2 0.25959602E+03</rscale>
<asrwt>0</asrwt>
<pdfrwt beam="1">  1       21 0.28117480E-01 0.25977318E+03</pdfrwt>
<pdfrwt beam="2">  1       21 0.61374010E-01 0.25977318E+03</pdfrwt>
<totfact> 0.28849050E+04</totfact>
</mgrwt>
</event>
<event>
12    1  0.1039378E-001  0.2065151E+03  0.7546771E-02  0.1144625E+00
         21   -1    0    0  503  502  0.00000000000E+00  0.00000000000E+00  0.18860738818E+04  0.18860738818E+04  0.00000000000E+00 0. -1.
         21   -1    0    0  501  503 -0.00000000000E+00 -0.00000000000E+00 -0.76937527829E+02  0.76937527829E+02  0.00000000000E+00 0. -1.
          6    2    1    2  501    0  0.80959924690E+02  0.78685625701E+02  0.79566730469E+02  0.22131281312E+03  0.17292356564E+03 0.  0.
         24    2    3    3    0    0  0.46121186382E+02  0.10339490995E+03  0.80214448556E+01  0.13785561266E+03  0.78244201873E+02 0.  0.
         -6    2    1    2    0  502 -0.80959924690E+02 -0.78685625701E+02  0.17295696235E+04  0.17416985965E+04  0.17133879143E+03 0.  0.
        -24    2    5    5    0    0 -0.58853211763E+01 -0.31375576271E+02  0.13124397648E+04  0.13152084490E+04  0.79095286855E+02 0.  0.
          5    1    3    3  501    0  0.34838738309E+02 -0.24709284251E+02  0.71545285613E+02  0.83457200460E+02  0.47000000000E+01 0. -1.
        -13    1    4    4    0    0 -0.21775074999E+02  0.34318055069E+02 -0.25795863253E+00  0.40644179627E+02  0.00000000000E+00 0.  1.
         14    1    4    4    0    0  0.67896261380E+02  0.69076854883E+02  0.82794034882E+01  0.97211433032E+02  0.00000000000E+00 0. -1.
         -5    1    5    5    0  502 -0.75074603514E+02 -0.47310049430E+02  0.41712985870E+03  0.42649014747E+03  0.47000000000E+01 0.  1.
         13    1    6    6    0    0 -0.29956399444E+02  0.10844807343E+02  0.32070297119E+03  0.32228154065E+03  0.00000000000E+00 0. -1.
        -14    1    6    6    0    0  0.24071078267E+02 -0.42220383614E+02  0.99173679359E+03  0.99292690837E+03  0.00000000000E+00 0.  1.
<mgrwt>
<rscale>  2 0.20618303E+03</rscale>
<asrwt>0</asrwt>
<pdfrwt beam="1">  1       21 0.29016518E+00 0.20651512E+03</pdfrwt>
<pdfrwt beam="2">  1       21 0.11836544E-01 0.20651512E+03</pdfrwt>
<totfact> 0.23003298E+03</totfact>
</mgrwt>
</event>
<event>
12    1  0.1039378E-001  0.1838055E+03  0.7546771E-02  0.1164955E+00
         21   -1    0    0  501  502  0.00000000000E+00  0.00000000000E+00  0.10298071664E+03  0.10298071664E+03  0.00000000000E+00 0. -1.
         21   -1    0    0  502  503 -0.00000000000E+00 -0.00000000000E+00 -0.35609488970E+03  0.35609488970E+03  0.00000000000E+00 0. -1.
         -6    2    1    2    0  503  0.48654398872E+02  0.10839461682E+02 -0.19841188671E+03  0.27046580193E+03  0.17691729359E+03 0.  0.
        -24    2    3    3    0    0  0.13962935705E+02 -0.62475054284E+02 -0.13501168483E+03  0.16741148875E+03  0.75500698961E+02 0.  0.
          6    2    1    2  501    0 -0.48654398872E+02 -0.10839461682E+02 -0.54702286356E+02  0.18860980441E+03  0.17348364110E+03 0.  0.
         24    2    5    5    0    0  0.14968206574E+02 -0.27845516215E+02 -0.81506713942E+02  0.11735245986E+03  0.78286879081E+02 0.  0.
          5    1    5    5  501    0 -0.63622605446E+02  0.17006054532E+02  0.26804427586E+02  0.71257344553E+02  0.47000000000E+01 0. -1.
        -13    1    6    6    0    0  0.46376622297E+02 -0.93941038881E+01 -0.38580381149E+02  0.61053141551E+02  0.00000000000E+00 0.  1.
         14    1    6    6    0    0 -0.31408415723E+02 -0.18451412326E+02 -0.42926332793E+02  0.56299318310E+02  0.00000000000E+00 0. -1.
         -5    1    3    3    0  503  0.34691463167E+02  0.73314515966E+02 -0.63400201875E+02  0.10305431318E+03  0.47000000000E+01 0.  1.
         11    1    4    4    0    0  0.35797289316E+02 -0.27838433697E+02 -0.11109476093E+03  0.11999362574E+03  0.00000000000E+00 0. -1.
        -12    1    4    4    0    0 -0.21834353610E+02 -0.34636620586E+02 -0.23916923900E+02  0.47417863006E+02  0.00000000000E+00 0.  1.
<mgrwt>
<rscale>  2 0.18297427E+03</rscale>
<asrwt>0</asrwt>
<pdfrwt beam="1">  1       21 0.15843187E-01 0.18380553E+03</pdfrwt>
<pdfrwt beam="2">  1       21 0.54783828E-01 0.18380553E+03</pdfrwt>
<totfact> 0.11202432E+05</totfact>
</mgrwt>
</event>
<event>
12    1  0.1039378E-001  0.2290663E+03  0.7546771E-02  0.1127633E+00
         21   -1    0    0  501  502  0.00000000000E+00  0.00000000000E+00  0.16238975915E+04  0.16238975915E+04  0.00000000000E+00 0.  1.
         21   -1    0    0  502  503 -0.00000000000E+00 -0.00000000000E+00 -0.38109629663E+02  0.38109629663E+02  0.00000000000E+00 0. -1.
         -6    2    1    2    0  503 -0.14740154021E+03  0.28455351219E+02  0.46420062528E+03  0.51764235652E+03  0.17301580183E+03 0.  0.
        -24    2    3    3    0    0 -0.10572048177E+03  0.24292100059E+02  0.45437266800E+03  0.47436046611E+03  0.82440305614E+02 0.  0.
          6    2    1    2  501    0  0.14740154021E+03 -0.28455351219E+02  0.11215873366E+04  0.11443648646E+04  0.17051647673E+03 0.  0.
         24    2    5    5    0    0  0.40871910405E+02 -0.50018834138E+02  0.75559213438E+03  0.76254275444E+03  0.79872285469E+02 0.  0.
          5    1    5    5  501    0  0.10652962981E+03  0.21563482919E+02  0.36599520217E+03  0.38182211020E+03  0.47000000000E+01 0. -1.
        -13    1    6    6    0    0  0.72246514456E+01  0.84863181862E+01  0.42427833198E+03  0.42442468846E+03  0.00000000000E+00 0.  1.
         14    1    6    6    0    0  0.33647258960E+02 -0.58505152324E+02  0.33131380240E+03  0.33811806599E+03  0.00000000000E+00 0. -1.
         -5    1    3    3    0  503 -0.41681058442E+02  0.41632511599E+01  0.98279572748E+01  0.43281890408E+02  0.47000000000E+01 0.  1.
         11    1    4    4    0    0 -0.23958443462E+02 -0.11793658719E+02  0.24844089310E+03  0.24987191671E+03  0.00000000000E+00 0. -1.
        -12    1    4    4    0    0 -0.81762038306E+02  0.36085758778E+02  0.20593177491E+03  0.22448854940E+03  0.00000000000E+00 0.  1.
<mgrwt>
<rscale>  2 0.22859442E+03</rscale>
<asrwt>0</asrwt>
<pdfrwt beam="1">  1       21 0.24983035E+00 0.22906634E+03</pdfrwt>
<pdfrwt beam="2">  1       21 0.58630212E-02 0.22906634E+03</pdfrwt>
<totfact> 0.13246462E+04</totfact>
</mgrwt>
</event>
<event>
12    1  0.1039378E-001  0.1974084E+03  0.7546771E-02  0.1152311E+00
         21   -1    0    0  501  502  0.00000000000E+00  0.00000000000E+00  0.31914254473E+03  0.31914254473E+03  0.00000000000E+00 0.  1.
         21   -1    0    0  502  503 -0.00000000000E+00 -0.00000000000E+00 -0.22109327341E+03  0.22109327341E+03  0.00000000000E+00 0. -1.
         -6    2    1    2    0  503  0.92835835309E+02  0.40044800533E+01 -0.13255218825E+03  0.23778175339E+03  0.17417104081E+03 0.  0.
        -24    2    3    3    0    0  0.40437221761E+02  0.11326294240E+02  0.45274794032E+01  0.90771043068E+02  0.80345692759E+02 0.  0.
          6    2    1    2  501    0 -0.92835835309E+02 -0.40044800533E+01  0.23060145956E+03  0.30245406475E+03  0.17224081964E+03 0.  0.
         24    2    5    5    0    0  0.56507982377E+01 -0.59244102035E+01  0.42882867689E+02  0.90407695160E+02  0.79168054454E+02 0.  0.
          5    1    5    5  501    0 -0.98486633547E+02  0.19199301502E+01  0.18771859188E+03  0.21204636959E+03  0.47000000000E+01 0. -1.
        -13    1    6    6    0    0 -0.75767802993E+00  0.23968145671E+02 -0.12578172415E+02  0.27078709426E+02  0.00000000000E+00 0.  1.
         14    1    6    6    0    0  0.64084762676E+01 -0.29892555874E+02  0.55461040103E+02  0.63328985734E+02  0.00000000000E+00 0. -1.
         -5    1    3    3    0  503  0.52398613548E+02 -0.73218141865E+01 -0.13707966765E+03  0.14701071032E+03  0.47000000000E+01 0.  1.
         13    1    4    4    0    0  0.36059331209E+02  0.22713833389E+02 -0.31330675148E+02  0.52894279461E+02  0.00000000000E+00 0. -1.
        -14    1    4    4    0    0  0.43778905516E+01 -0.11387539149E+02  0.35858154551E+02  0.37876763607E+02  0.00000000000E+00 0.  1.
<mgrwt>
<rscale>  2 0.19698180E+03</rscale>
<asrwt>0</asrwt>
<pdfrwt beam="1">  1       21 0.49098853E-01 0.19740841E+03</pdfrwt>
<pdfrwt beam="2">  1       21 0.34014349E-01 0.19740841E+03</pdfrwt>
<totfact> 0.32872526E+04</totfact>
</mgrwt>
</event>
<event>
11    1  0.1039378E-001  0.2880425E+03  0.7546771E-02  0.1091433E+00
         21   -1    0    0  501  502  0.00000000000E+00  0.00000000000E+00  0.93342357679E+03  0.93342357679E+03  0.00000000000E+00 0. -1.
         21   -1    0    0  502  503 -0.00000000000E+00 -0.00000000000E+00 -0.11338556753E+03  0.11338556753E+03  0.00000000000E+00 0.  1.
         -6    2    1    2    0  503 -0.18814542060E+03 -0.13228717741E+03  0.65421753056E+03  0.71482101473E+03  0.17340677380E+03 0.  0.
          6    2    1    2  501    0  0.18814542060E+03  0.13228717741E+03  0.16582047870E+03  0.33198812960E+03  0.17268784102E+03 0.  0.
         24    2    4    4    0    0  0.45846398100E+02  0.45597804327E+01  0.41821037746E+02  0.10403802299E+03  0.83380016870E+02 0.  0.
          5    1    4    4  501    0  0.14229902250E+03  0.12772739698E+03  0.12399944096E+03  0.22795010661E+03  0.47000000000E+01 0. -1.
        -11    1    5    5    0    0  0.64878261682E+02 -0.63737594434E+01  0.10864249347E+02  0.66089678182E+02  0.00000000000E+00 0.  1.
         12    1    5    5    0    0 -0.19031863583E+02  0.10933539876E+02  0.30956788399E+02  0.37948344807E+02  0.00000000000E+00 0. -1.
         -5    1    3    3    0  503 -0.28447900852E+02 -0.44625934833E+02  0.25686609641E+03  0.26230333320E+03  0.47000000000E+01 0.  1.
         11    1    3    3    0    0 -0.82546031368E+01 -0.42639626803E+02  0.17133869087E+03  0.17675752668E+03  0.00000000000E+00 0. -1.
        -12    1    3    3    0    0 -0.15144291661E+03 -0.45021615778E+02  0.22601274328E+03  0.27576015485E+03  0.00000000000E+00 0.  1.
<mgrwt>
<rscale>  2 0.28793442E+03</rscale>
<asrwt>0</asrwt>
<pdfrwt beam="1">  1       21 0.14360362E+00 0.28804254E+03</pdfrwt>
<pdfrwt beam="2">  1       21 0.17443934E-01 0.28804254E+03</pdfrwt>
<totfact> 0.93841187E+03</totfact>
</mgrwt>
</event>
<event>
12    1  0.1039378E-001  0.2057045E+03  0.7546771E-02  0.1145282E+00
         21   -1    0    0  503  502  0.00000000000E+00  0.00000000000E+00  0.92464911977E+03  0.92464911977E+03  0.00000000000E+00 0.  1.
         21   -1    0    0  501  503 -0.00000000000E+00 -0.00000000000E+00 -0.62946829024E+02  0.62946829024E+02  0.00000000000E+00 0. -1.
          6    2    1    2  501    0 -0.20626112318E+02 -0.10895759946E+03  0.16966369703E+03  0.26563212609E+03  0.17169001523E+03 0.  0.
         24    2    3    3    0    0  0.31282373502E+02 -0.10195746097E+02  0.47296244022E+02  0.99968979503E+02  0.81696524001E+02 0.  0.
         -6    2    1    2    0  502  0.20626112318E+02  0.10895759946E+03  0.69203859372E+03  0.72196382271E+03  0.17325458468E+03 0.  0.
        -24    2    5    5    0    0  0.11300378153E+02  0.93341288950E+02  0.23887649019E+03  0.26841247992E+03  0.78377209959E+02 0.  0.
          5    1    3    3  501    0 -0.51908485821E+02 -0.98761853368E+02  0.12236745300E+03  0.16566314658E+03  0.47000000000E+01 0. -1.
        -13    1    4    4    0    0 -0.83166670951E+01 -0.32626141253E+01  0.57744934451E+02  0.58431918138E+02  0.00000000000E+00 0.  1.
         14    1    4    4    0    0  0.39599040597E+02 -0.69331319712E+01 -0.10448690429E+02  0.41537061365E+02  0.00000000000E+00 0. -1.
         -5    1    5    5    0  502  0.93257341652E+01  0.15616310515E+02  0.45316210353E+03  0.45355134279E+03  0.47000000000E+01 0.  1.
         13    1    6    6    0    0 -0.28429873546E+02  0.27965531502E+02  0.12514692752E+03  0.13134718166E+03  0.00000000000E+00 0. -1.
        -14    1    6    6    0    0  0.39730251699E+02  0.65375757448E+02  0.11372956267E+03  0.13706529826E+03  0.00000000000E+00 0.  1.
<mgrwt>
<rscale>  2 0.20537471E+03</rscale>
<asrwt>0</asrwt>
<pdfrwt beam="1">  1       21 0.14225370E+00 0.20570451E+03</pdfrwt>
<pdfrwt beam="2">  1       21 0.96841282E-02 0.20570451E+03</pdfrwt>
<totfact> 0.29246777E+04</totfact>
</mgrwt>
</event>
<event>
12    1  0.1039378E-001  0.2012644E+03  0.7546771E-02  0.1149198E+00
         21   -1    0    0  503  502  0.00000000000E+00  0.00000000000E+00  0.10695605394E+04  0.10695605394E+04  0.00000000000E+00 0. -1.
         21   -1    0    0  501  503 -0.00000000000E+00 -0.00000000000E+00 -0.52602189673E+02  0.52602189673E+02  0.00000000000E+00 0. -1.
          6    2    1    2  501    0 -0.97901839119E+02  0.34253262000E+02  0.20469451084E+03  0.28533545269E+03  0.16958308210E+03 0.  0.
         24    2    3    3    0    0 -0.12429284120E+03  0.27995320175E+02  0.20899064819E+03  0.25747520102E+03  0.79899560605E+02 0.  0.
         -6    2    1    2    0  502  0.97901839119E+02 -0.34253262000E+02  0.81226383888E+03  0.83682727637E+03  0.17247982626E+03 0.  0.
        -24    2    5    5    0    0  0.13852835350E+03 -0.23791184529E+02  0.63857054561E+03  0.65807767815E+03  0.74416151345E+02 0.  0.
          5    1    3    3  501    0  0.26391002084E+02  0.62579418248E+01 -0.42961373540E+01  0.27860251669E+02  0.47000000000E+01 0. -1.
        -13    1    4    4    0    0 -0.30080926249E+02 -0.78952945396E+01  0.11677461685E+03  0.12084497897E+03  0.00000000000E+00 0.  1.
         14    1    4    4    0    0 -0.94211914955E+02  0.35890614715E+02  0.92216031337E+02  0.13663022206E+03  0.00000000000E+00 0. -1.
         -5    1    5    5    0  502 -0.40626514377E+02 -0.10462077470E+02  0.17369329327E+03  0.17874959822E+03  0.47000000000E+01 0.  1.
         11    1    6    6    0    0  0.51542248328E+02  0.16364230442E+02  0.34650716746E+03  0.35070159467E+03  0.00000000000E+00 0. -1.
        -12    1    6    6    0    0  0.86986105168E+02 -0.40155414971E+02  0.29206337815E+03  0.30737608348E+03  0.00000000000E+00 0.  1.
<mgrwt>
<rscale>  2 0.20064228E+03</rscale>
<asrwt>0</asrwt>
<pdfrwt beam="1">  1       21 0.16454776E+00 0.20126437E+03</pdfrwt>
<pdfrwt beam="2">  1       21 0.80926454E-02 0.20126437E+03</pdfrwt>
<totfact> 0.27283783E+04</totfact>
</mgrwt>
</event>
<event>
12    1  0.1039378E-001  0.2157227E+03  0.7546771E-02  0.1137425E+00
         21   -1    0    0  501  502  0.00000000000E+00  0.00000000000E+00  0.85583575898E+02  0.85583575898E+02  0.00000000000E+00 0.  1.
         21   -1    0    0  502  503 -0.00000000000E+00 -0.00000000000E+00 -0.64614220089E+03  0.64614220089E+03  0.00000000000E+00 0.  1.
         -6    2    1    2    0  503  0.12359008223E+03 -0.27774158844E+02 -0.42968184596E+03  0.48079391482E+03  0.17461496917E+03 0.  0.
        -24    2    3    3    0    0  0.85326113431E+02  0.42166753998E+01 -0.12126714064E+03  0.16833709342E+03  0.79582231919E+02 0.  0.
          6    2    1    2  501    0 -0.12359008223E+03  0.27774158844E+02 -0.13087677903E+03  0.25093186196E+03  0.17260404321E+03 0.  0.
         24    2    5    5    0    0 -0.13802351868E+03 -0.11527898630E+01 -0.55368922797E+02  0.16866024595E+03  0.79553380312E+02 0.  0.
          5    1    5    5  501    0  0.14433436445E+02  0.28926948707E+02 -0.75507856234E+02  0.82271616018E+02  0.47000000000E+01 0. -1.
        -13    1    6    6    0    0 -0.39750002705E+01  0.15416805875E+02  0.97961928833E+01  0.18693419311E+02  0.00000000000E+00 0.  1.
         14    1    6    6    0    0 -0.13404851841E+03 -0.16569595738E+02 -0.65165115680E+02  0.14996682664E+03  0.00000000000E+00 0. -1.
         -5    1    3    3    0  503  0.38263968800E+02 -0.31990834244E+02 -0.30841470531E+03  0.31245682140E+03  0.47000000000E+01 0.  1.
         11    1    4    4    0    0  0.13692900839E+02  0.35304389489E+02 -0.30656300614E+02  0.48720675467E+02  0.00000000000E+00 0. -1.
        -12    1    4    4    0    0  0.71633212592E+02 -0.31087714089E+02 -0.90610840028E+02  0.11961641795E+03  0.00000000000E+00 0.  1.
<mgrwt>
<rscale>  2 0.21531547E+03</rscale>
<asrwt>0</asrwt>
<pdfrwt beam="1">  1       21 0.13166704E-01 0.21572274E+03</pdfrwt>
<pdfrwt beam="2">  1       21 0.99406493E-01 0.21572274E+03</pdfrwt>
<totfact> 0.40864221E+04</totfact>
</mgrwt>
</event>
<event>
12    1  0.1039378E-001  0.1790655E+03  0.7546771E-02  0.1169028E+00
         21   -1    0    0  501  502  0.00000000000E+00  0.00000000000E+00  0.76759366901E+02  0.76759366901E+02  0.00000000000E+00 0. -1.
         21   -1    0    0  502  503 -0.00000000000E+00 -0.00000000000E+00 -0.42947026890E+03  0.42947026890E+03  0.00000000000E+00 0. -1.
         -6    2    1    2    0  503 -0.68975280658E+01  0.45839067542E+02 -0.22267382782E+03  0.28492876206E+03  0.17161576224E+03 0.  0.
        -24    2    3    3    0    0 -0.24126251023E+02  0.77945198342E+02 -0.21994439094E+03  0.24808894182E+03  0.80715909316E+02 0.  0.
          6    2    1    2  501    0  0.68975280658E+01 -0.45839067542E+02 -0.13003707419E+03  0.22130087374E+03  0.17296138312E+03 0.  0.
         24    2    5    5    0    0  0.67184282629E+02 -0.81751332887E+01 -0.94279988087E+02  0.14159062393E+03  0.81108741785E+02 0.  0.
          5    1    5    5  501    0 -0.60286754563E+02 -0.37663934253E+02 -0.35757086099E+02  0.79710249814E+02  0.47000000000E+01 0. -1.
        -13    1    6    6    0    0 -0.10028181255E+01  0.23799982332E+02 -0.46932537504E+02  0.52631814330E+02  0.00000000000E+00 0.  1.
         14    1    6    6    0    0  0.68187100754E+02 -0.31975115620E+02 -0.47347450583E+02  0.88958809597E+02  0.00000000000E+00 0. -1.
         -5    1    3    3    0  503  0.17228722957E+02 -0.32106130801E+02 -0.27294368790E+01  0.36839820241E+02  0.47000000000E+01 0.  1.
         13    1    4    4    0    0 -0.96864560897E+01  0.73505556592E+02 -0.22084229745E+03  0.23295539192E+03  0.00000000000E+00 0. -1.
        -14    1    4    4    0    0 -0.14439794934E+02  0.44396417507E+01  0.89790651130E+00  0.15133549904E+02  0.00000000000E+00 0.  1.
<mgrwt>
<rscale>  2 0.17873971E+03</rscale>
<asrwt>0</asrwt>
<pdfrwt beam="1">  1       21 0.11809133E-01 0.17906545E+03</pdfrwt>
<pdfrwt beam="2">  1       21 0.66072348E-01 0.17906545E+03</pdfrwt>
<totfact> 0.12761915E+05</totfact>
</mgrwt>
</event>
<event>
12    1  0.1039378E-001  0.2487768E+03  0.7546771E-02  0.1116009E+00
         21   -1    0    0  503  502  0.00000000000E+00  0.00000000000E+00  0.48684801725E+03  0.48684801725E+03  0.00000000000E+00 0. -1.
         21   -1    0    0  501  503 -0.00000000000E+00 -0.00000000000E+00 -0.19010262661E+03  0.19010262661E+03  0.00000000000E+00 0. -1.
          6    2    1    2  501    0 -0.45825477240E+01  0.16154853177E+03 -0.57729206573E+02  0.24388926459E+03  0.17329277028E+03 0.  0.
         24    2    3    3    0    0 -0.33662713364E+02  0.11528281802E+03  0.22927563565E+02  0.14635067289E+03  0.80433450022E+02 0.  0.
         -6    2    1    2    0  502  0.45825477240E+01 -0.16154853177E+03  0.35447459721E+03  0.43306137928E+03  0.18913220321E+03 0.  0.
        -24    2    5    5    0    0 -0.59092849106E+02 -0.40233594297E+02  0.19223930256E+03  0.22066022334E+03  0.81389666346E+02 0.  0.
          5    1    3    3  501    0  0.29080165640E+02  0.46265713749E+02 -0.80656770139E+02  0.97538591703E+02  0.47000000000E+01 0. -1.
        -13    1    4    4    0    0 -0.63011224629E+01  0.14084186288E+02  0.37462480013E+02  0.40515501434E+02  0.00000000000E+00 0.  1.
         14    1    4    4    0    0 -0.27361590901E+02  0.10119863173E+03 -0.14534916448E+02  0.10583517145E+03  0.00000000000E+00 0. -1.
         -5    1    5    5    0  502  0.63675396830E+02 -0.12131493747E+03  0.16223529465E+03  0.21240115594E+03  0.47000000000E+01 0.  1.
         11    1    6    6    0    0 -0.41519809830E+02 -0.57099934125E+02  0.84067354798E+02  0.10977985803E+03  0.00000000000E+00 0. -1.
        -12    1    6    6    0    0 -0.17573039276E+02  0.16866339827E+02  0.10817194776E+03  0.11088036531E+03  0.00000000000E+00 0.  1.
<mgrwt>
<rscale>  2 0.24576810E+03</rscale>
<asrwt>0</asrwt>
<pdfrwt beam="1">  1       21 0.74899694E-01 0.24877684E+03</pdfrwt>
<pdfrwt beam="2">  1       21 0.29246558E-01 0.24877684E+03</pdfrwt>
<totfact> 0.17295599E+04</totfact>
</mgrwt>
</event>
<event>
12    1  0.1039378E-001  0.2408608E+03  0.7546771E-02  0.1119338E+00
         21   -1    0    0  503  502  0.00000000000E+00  0.00000000000E+00  0.24507475767E+03  0.24507475767E+03  0.00000000000E+00 0. -1.
         21   -1    0    0  501  503 -0.00000000000E+00 -0.00000000000E+00 -0.24593432719E+03  0.24593432719E+03  0.00000000000E+00 0. -1.
          6    2    1    2  501    0  0.40693194128E+02  0.16118343000E+03  0.48848250456E+02  0.24576430200E+03  0.17429258852E+03 0.  0.
         24    2    3    3    0    0  0.83264235742E+01  0.52792431051E+02 -0.39264933527E+02  0.10229918540E+03  0.77891066392E+02 0.  0.
         -6    2    1    2    0  502 -0.40693194128E+02 -0.16118343000E+03 -0.49707819976E+02  0.24524478286E+03  0.17331503685E+03 0.  0.
        -24    2    5    5    0    0 -0.28273597837E+02 -0.17862283032E+03 -0.69008520723E+01  0.19715210611E+03  0.78203704118E+02 0.  0.
          5    1    3    3  501    0  0.32366770554E+02  0.10839099895E+03  0.88113183983E+02  0.14346511660E+03  0.47000000000E+01 0. -1.
        -11    1    4    4    0    0  0.75883745758E+01 -0.18174672374E+02  0.26536618328E+01  0.19873199685E+02  0.00000000000E+00 0.  1.
         12    1    4    4    0    0  0.73804899837E+00  0.70967103425E+02 -0.41918595360E+02  0.82425985720E+02  0.00000000000E+00 0. -1.
         -5    1    5    5    0  502 -0.12419596291E+02  0.17439400322E+02 -0.42806967904E+02  0.48092676747E+02  0.47000000000E+01 0.  1.
         11    1    6    6    0    0  0.20219528830E+02 -0.11141445457E+03  0.54231128335E+01  0.11336410449E+03  0.00000000000E+00 0. -1.
        -12    1    6    6    0    0 -0.48493126667E+02 -0.67208375749E+02 -0.12323964906E+02  0.83788001622E+02  0.00000000000E+00 0.  1.
<mgrwt>
<rscale>  2 0.24068403E+03</rscale>
<asrwt>0</asrwt>
<pdfrwt beam="1">  1       21 0.37703809E-01 0.24086083E+03</pdfrwt>
<pdfrwt beam="2">  1       21 0.37836050E-01 0.24086083E+03</pdfrwt>
<totfact> 0.44690526E+04</totfact>
</mgrwt>
</event>
<event>
12    1  0.1039378E-001  0.2479923E+03  0.7546771E-02  0.1114910E+00
         21   -1    0    0  501  502  0.00000000000E+00  0.00000000000E+00  0.18701845773E+03  0.18701845773E+03  0.00000000000E+00 0.  1.
         21   -1    0    0  502  503 -0.00000000000E+00 -0.00000000000E+00 -0.36121008647E+03  0.36121008647E+03  0.00000000000E+00 0.  1.
         -6    2    1    2    0  503  0.17454917599E+03  0.10024466268E+02 -0.19939517331E+01  0.24800034662E+03  0.17587578378E+03 0.  0.
        -24    2    3    3    0    0  0.17246151367E+03 -0.17038036328E+02 -0.45354434833E+02  0.19662954874E+03  0.81073339008E+02 0.  0.
          6    2    1    2  501    0 -0.17454917599E+03 -0.10024466268E+02 -0.17219767701E+03  0.30022819757E+03  0.17296538928E+03 0.  0.
         24    2    5    5    0    0 -0.10892866722E+03 -0.40067757725E+02 -0.36811274299E+02  0.14673481474E+03  0.81885018116E+02 0.  0.
          5    1    5    5  501    0 -0.65620508774E+02  0.30043291457E+02 -0.13538640271E+03  0.15349338283E+03  0.47000000000E+01 0. -1.
        -13    1    6    6    0    0 -0.30034338528E+02 -0.53920630825E+02 -0.11980470265E+02  0.62873107026E+02  0.00000000000E+00 0.  1.
         14    1    6    6    0    0 -0.78894328688E+02  0.13852873101E+02 -0.24830804034E+02  0.83861707717E+02  0.00000000000E+00 0. -1.
         -5    1    3    3    0  503  0.20876623164E+01  0.27062502595E+02  0.43360483100E+02  0.51370797885E+02  0.47000000000E+01 0.  1.
         11    1    4    4    0    0  0.44667187321E+00 -0.79664751997E+01 -0.21248377458E+02  0.22697087643E+02  0.00000000000E+00 0. -1.
        -12    1    4    4    0    0  0.17201484180E+03 -0.90715611281E+01 -0.24106057375E+02  0.17393246110E+03  0.00000000000E+00 0.  1.
<mgrwt>
<rscale>  2 0.24747685E+03</rscale>
<asrwt>0</asrwt>
<pdfrwt beam="1">  1       21 0.28772071E-01 0.24799233E+03</pdfrwt>
<pdfrwt beam="2">  1       21 0.55570781E-01 0.24799233E+03</pdfrwt>
<totfact> 0.34331633E+04</totfact>
</mgrwt>
</event>
<event>
12    1  0.1039378E-001  0.1983847E+03  0.7546771E-02  0.1151229E+00
         21   -1    0    0  501  502  0.00000000000E+00  0.00000000000E+00  0.10540000889E+03  0.10540000889E+03  0.00000000000E+00 0. -1.
         21   -1    0    0  502  503 -0.00000000000E+00 -0.00000000000E+00 -0.69570689720E+03  0.69570689720E+03  0.00000000000E+00 0. -1.
         -6    2    1    2    0  503  0.76055451489E+02 -0.55938009438E+02 -0.56801149005E+03  0.60147331802E+03  0.17383787523E+03 0.  0.
        -24    2    3    3    0    0  0.10529708254E+03 -0.17190098717E+01 -0.39505908740E+03  0.41781767154E+03  0.86078415010E+02 0.  0.
          6    2    1    2  501    0 -0.76055451489E+02  0.55938009438E+02 -0.22295398253E+02  0.19963358807E+03  0.17447920249E+03 0.  0.
         24    2    5    5    0    0 -0.71675237795E+00 -0.19766162750E+02 -0.30383368445E+02  0.92420965061E+02  0.85013356485E+02 0.  0.
          5    1    5    5  501    0 -0.75338699111E+02  0.75704172188E+02  0.80879701921E+01  0.10721262301E+03  0.47000000000E+01 0. -1.
        -13    1    6    6    0    0 -0.16749723850E+02 -0.47528334262E+02 -0.33028788007E+02  0.60252772915E+02  0.00000000000E+00 0.  1.
         14    1    6    6    0    0  0.16032971472E+02  0.27762171512E+02  0.26454195619E+01  0.32168192146E+02  0.00000000000E+00 0. -1.
         -5    1    3    3    0  503 -0.29241631055E+02 -0.54218999567E+02 -0.17295240266E+03  0.18365564648E+03  0.47000000000E+01 0.  1.
         11    1    4    4    0    0  0.60030344049E+02 -0.38441497642E+02 -0.27874545318E+03  0.28771586438E+03  0.00000000000E+00 0. -1.
        -12    1    4    4    0    0  0.45266738495E+02  0.36722487770E+02 -0.11631363422E+03  0.13010180716E+03  0.00000000000E+00 0.  1.
<mgrwt>
<rscale>  2 0.19824359E+03</rscale>
<asrwt>0</asrwt>
<pdfrwt beam="1">  1       21 0.16215386E-01 0.19838469E+03</pdfrwt>
<pdfrwt beam="2">  1       21 0.10703183E+00 0.19838469E+03</pdfrwt>
<totfact> 0.23656336E+04</totfact>
</mgrwt>
</event>
<event>
12    1  0.1039378E-001  0.2708244E+03  0.7546771E-02  0.1100867E+00
         21   -1    0    0  501  502  0.00000000000E+00  0.00000000000E+00  0.18229988881E+04  0.18229988881E+04  0.00000000000E+00 0.  1.
         21   -1    0    0  502  503 -0.00000000000E+00 -0.00000000000E+00 -0.61596480325E+02  0.61596480325E+02  0.00000000000E+00 0. -1.
         -6    2    1    2    0  503  0.17005210532E+03  0.11797657402E+03  0.32541367103E+03  0.42336736287E+03  0.17467019240E+03 0.  0.
        -24    2    3    3    0    0  0.10172375725E+03  0.14199487794E+03  0.19872133422E+03  0.27735818412E+03  0.83229354664E+02 0.  0.
          6    2    1    2  501    0 -0.17005210532E+03 -0.11797657402E+03  0.14359887367E+04  0.14612280055E+04  0.17403287504E+03 0.  0.
         24    2    5    5    0    0 -0.19573109682E+03 -0.88894705158E+02  0.11603691424E+04  0.11828516120E+04  0.80426727493E+02 0.  0.
          5    1    5    5  501    0  0.25678991498E+02 -0.29081868862E+02  0.27561959432E+03  0.27837639352E+03  0.47000000000E+01 0. -1.
        -13    1    6    6    0    0 -0.52381115338E+02 -0.65268140809E+02  0.46435258822E+03  0.47183369701E+03  0.00000000000E+00 0.  1.
         14    1    6    6    0    0 -0.14334998148E+03 -0.23626564349E+02  0.69601655418E+03  0.71101791498E+03  0.00000000000E+00 0. -1.
         -5    1    3    3    0  503  0.68328348075E+02 -0.24018303916E+02  0.12669233681E+03  0.14600917875E+03  0.47000000000E+01 0.  1.
         13    1    4    4    0    0  0.14986194877E+02  0.22211867563E+01 -0.45925451860E+01  0.15830703673E+02  0.00000000000E+00 0. -1.
        -14    1    4    4    0    0  0.86737562370E+02  0.13977369118E+03  0.20331387941E+03  0.26152748045E+03  0.00000000000E+00 0.  1.
<mgrwt>
<rscale>  2 0.27072171E+03</rscale>
<asrwt>0</asrwt>
<pdfrwt beam="1">  1       21 0.28046133E+00 0.27082442E+03</pdfrwt>
<pdfrwt beam="2">  1       21 0.94763830E-02 0.27082442E+03</pdfrwt>
<totfact> 0.36578087E+03</totfact>
</mgrwt>
</event>
<event>
12    1  0.1039378E-001  0.2057029E+03  0.7546771E-02  0.1145262E+00
         21   -1    0    0  503  502  0.00000000000E+00  0.00000000000E+00  0.56271312378E+03  0.56271312378E+03  0.00000000000E+00 0. -1.
         21   -1    0    0  501  503 -0.00000000000E+00 -0.00000000000E+00 -0.79522637619E+02  0.79522637619E+02  0.00000000000E+00 0.  1.
          6    2    1    2  501    0  0.10016663861E+03 -0.44682986528E+02  0.16229290411E+03  0.26106790615E+03  0.17259067217E+03 0.  0.
         24    2    3    3    0    0  0.84520666458E+02 -0.91533773902E+02  0.10023643637E+03  0.18161422209E+03  0.86105793446E+02 0.  0.
         -6    2    1    2    0  502 -0.10016663861E+03  0.44682986528E+02  0.32089758205E+03  0.38116785525E+03  0.17402227138E+03 0.  0.
        -24    2    5    5    0    0 -0.70116466567E+02  0.31222308852E+02  0.78412947409E+02  0.13641269040E+03  0.81047395563E+02 0.  0.
          5    1    3    3  501    0  0.15645972150E+02  0.46850787374E+02  0.62056467740E+02  0.79453684059E+02  0.47000000000E+01 0. -1.
        -13    1    4    4    0    0  0.67953357886E+02 -0.94664936810E+02  0.11154573988E+03  0.16131199954E+03  0.00000000000E+00 0.  1.
         14    1    4    4    0    0  0.16567308571E+02  0.31311629081E+01 -0.11309303513E+02  0.20302222548E+02  0.00000000000E+00 0. -1.
         -5    1    5    5    0  502 -0.30050172040E+02  0.13460677676E+02  0.24248463464E+03  0.24475516485E+03  0.47000000000E+01 0.  1.
         13    1    6    6    0    0  0.17810670377E+02  0.90557349246E+01  0.21513968442E+02  0.29361150393E+02  0.00000000000E+00 0. -1.
        -14    1    6    6    0    0 -0.87927136944E+02  0.22166573927E+02  0.56898978967E+02  0.10705154001E+03  0.00000000000E+00 0.  1.
<mgrwt>
<rscale>  2 0.20539979E+03</rscale>
<asrwt>0</asrwt>
<pdfrwt beam="1">  1       21 0.86571247E-01 0.20570288E+03</pdfrwt>
<pdfrwt beam="2">  1       21 0.12234252E-01 0.20570288E+03</pdfrwt>
<totfact> 0.64731478E+04</totfact>
</mgrwt>
</event>
<event>
12    1  0.1039378E-001  0.2313812E+03  0.7546771E-02  0.1125866E+00
         21   -1    0    0  503  502  0.00000000000E+00  0.00000000000E+00  0.12421519949E+03  0.12421519949E+03  0.00000000000E+00 0. -1.
         21   -1    0    0  501  503 -0.00000000000E+00 -0.00000000000E+00 -0.43527369637E+03  0.43527369637E+03  0.00000000000E+00 0. -1.
          6    2    1    2  501    0  0.15346519445E+03 -0.28468861541E+01 -0.18966161079E+03  0.29918020736E+03  0.17314040314E+03 0.  0.
         24    2    3    3    0    0  0.48349037850E+02 -0.37487579785E+02 -0.29314247076E+02  0.10428856802E+03  0.79207526408E+02 0.  0.
         -6    2    1    2    0  502 -0.15346519445E+03  0.28468861541E+01 -0.12139688608E+03  0.26030868850E+03  0.17165004716E+03 0.  0.
        -24    2    5    5    0    0 -0.77045514684E+02 -0.68355895249E+02 -0.83037034446E+02  0.14893826265E+03  0.68402611389E+02 0.  0.
          5    1    3    3  501    0  0.10511615660E+03  0.34640693631E+02 -0.16034736372E+03  0.19489163934E+03  0.47000000000E+01 0. -1.
        -11    1    4    4    0    0  0.70468070385E+02 -0.26076169940E+02 -0.20494092686E+02  0.77882754301E+02  0.00000000000E+00 0.  1.
         12    1    4    4    0    0 -0.22119032535E+02 -0.11411409844E+02 -0.88201543907E+01  0.26405813723E+02  0.00000000000E+00 0. -1.
         -5    1    5    5    0  502 -0.76419679767E+02  0.71202781404E+02 -0.38359851638E+02  0.11137042585E+03  0.47000000000E+01 0.  1.
         13    1    6    6    0    0 -0.72996201971E+02 -0.28620928721E+02 -0.74371779211E+02  0.10806833304E+03  0.00000000000E+00 0. -1.
        -14    1    6    6    0    0 -0.40493127127E+01 -0.39734966528E+02 -0.86652552351E+01  0.40869929615E+02  0.00000000000E+00 0.  1.
<mgrwt>
<rscale>  2 0.23110244E+03</rscale>
<asrwt>0</asrwt>
<pdfrwt beam="1">  1       21 0.19110030E-01 0.23138122E+03</pdfrwt>
<pdfrwt beam="2">  1       21 0.66965185E-01 0.23138122E+03</pdfrwt>
<totfact> 0.50397631E+04</totfact>
</mgrwt>
</event>
<event>
12    1  0.1039378E-001  0.2162699E+03  0.7546771E-02  0.1136891E+00
         21   -1    0    0  503  502  0.00000000000E+00  0.00000000000E+00  0.51868800097E+02  0.51868800097E+02  0.00000000000E+00 0. -1.
         21   -1    0    0  501  503 -0.00000000000E+00 -0.00000000000E+00 -0.11174133721E+04  0.11174133721E+04  0.00000000000E+00 0.  1.
          6    2    1    2  501    0 -0.12631660040E+02  0.12869111936E+03 -0.79317502440E+03  0.82213095139E+03  0.17335431598E+03 0.  0.
         24    2    3    3    0    0 -0.25553615875E+02  0.11651205352E+02 -0.32160411356E+03  0.33605839264E+03  0.93366479745E+02 0.  0.
         -6    2    1    2    0  502  0.12631660040E+02 -0.12869111936E+03 -0.27236954764E+03  0.34715122084E+03  0.17206927852E+03 0.  0.
        -24    2    5    5    0    0  0.46781721662E+02 -0.12725643713E+03 -0.14573950777E+03  0.21590510845E+03  0.83619862795E+02 0.  0.
          5    1    3    3  501    0  0.12921955835E+02  0.11703991401E+03 -0.47157091084E+03  0.48607255875E+03  0.47000000000E+01 0. -1.
        -13    1    4    4    0    0  0.87050364636E+01 -0.24771884236E+02 -0.23171213737E+03  0.23319506537E+03  0.00000000000E+00 0.  1.
         14    1    4    4    0    0 -0.34258652339E+02  0.36423089588E+02 -0.89891976185E+02  0.10286332727E+03  0.00000000000E+00 0. -1.
         -5    1    5    5    0  502 -0.34150061622E+02 -0.14346822252E+01 -0.12663003986E+03  0.13124611239E+03  0.47000000000E+01 0.  1.
         13    1    6    6    0    0  0.19126889417E+02 -0.95872875225E+02 -0.46596363676E+02  0.10829897142E+03  0.00000000000E+00 0. -1.
        -14    1    6    6    0    0  0.27654832244E+02 -0.31383561910E+02 -0.99143144097E+02  0.10760613703E+03  0.00000000000E+00 0.  1.
<mgrwt>
<rscale>  2 0.21601230E+03</rscale>
<asrwt>0</asrwt>
<pdfrwt beam="1">  1       21 0.79798161E-02 0.21626993E+03</pdfrwt>
<pdfrwt beam="2">  1       21 0.17190973E+00 0.21626993E+03</pdfrwt>
<totfact> 0.24549058E+04</totfact>
</mgrwt>
</event>
<event>
12    1  0.1039378E-001  0.2099044E+03  0.7546771E-02  0.1141682E+00
         21   -1    0    0  503  502  0.00000000000E+00  0.00000000000E+00  0.56734103982E+03  0.56734103982E+03  0.00000000000E+00 0.  1.
         21   -1    0    0  501  503 -0.00000000000E+00 -0.00000000000E+00 -0.81809562480E+02  0.81809562480E+02  0.00000000000E+00 0.  1.
          6    2    1    2  501    0 -0.11134300398E+03  0.39435991515E+02  0.16889941083E+03  0.26926149888E+03  0.17326939095E+03 0.  0.
         24    2    3    3    0    0  0.11179293506E+02  0.12721101548E+02  0.85355242936E+02  0.11850634402E+03  0.80445217692E+02 0.  0.
         -6    2    1    2    0  502  0.11134300398E+03 -0.39435991515E+02  0.31663206651E+03  0.37988910342E+03  0.17351485063E+03 0.  0.
        -24    2    5    5    0    0  0.16312951464E+02 -0.67977492762E+02  0.18620881593E+03  0.21594508106E+03  0.84092229106E+02 0.  0.
          5    1    3    3  501    0 -0.12252229749E+03  0.26714889966E+02  0.83544167890E+02  0.15075515486E+03  0.47000000000E+01 0. -1.
        -11    1    4    4    0    0 -0.24393297510E+02  0.28631206140E+02  0.63563425012E+02  0.73858567057E+02  0.00000000000E+00 0.  1.
         12    1    4    4    0    0  0.35572591016E+02 -0.15910104592E+02  0.21791817924E+02  0.44647776968E+02  0.00000000000E+00 0. -1.
         -5    1    5    5    0  502  0.95030052516E+02  0.28541501247E+02  0.13042325058E+03  0.16394402236E+03  0.47000000000E+01 0.  1.
         13    1    6    6    0    0  0.29884147595E+02 -0.37583876511E+02  0.30878708976E+02  0.57088569076E+02  0.00000000000E+00 0. -1.
        -14    1    6    6    0    0 -0.13571196131E+02 -0.30393616250E+02  0.15533010695E+03  0.15885651198E+03  0.00000000000E+00 0.  1.
<mgrwt>
<rscale>  2 0.20985369E+03</rscale>
<asrwt>0</asrwt>
<pdfrwt beam="1">  1       21 0.87283234E-01 0.20990442E+03</pdfrwt>
<pdfrwt beam="2">  1       21 0.12586087E-01 0.20990442E+03</pdfrwt>
<totfact> 0.60249693E+04</totfact>
</mgrwt>
</event>
<event>
12    1  0.1039378E-001  0.1942000E+03  0.7546771E-02  0.1155284E+00
         21   -1    0    0  501  502  0.00000000000E+00  0.00000000000E+00  0.22545385499E+03  0.22545385499E+03  0.00000000000E+00 0.  1.
         21   -1    0    0  502  503 -0.00000000000E+00 -0.00000000000E+00 -0.18265860746E+03  0.18265860746E+03  0.00000000000E+00 0. -1.
         -6    2    1    2    0  503  0.85057890904E+02 -0.15368317954E+02 -0.41722452366E+02  0.19863133358E+03  0.17390403574E+03 0.  0.
        -24    2    3    3    0    0  0.94165373108E+02  0.13169383011E+02  0.23329868567E+02  0.12685918670E+03  0.80674781324E+02 0.  0.
          6    2    1    2  501    0 -0.85057890904E+02  0.15368317954E+02  0.84517699894E+02  0.20948112888E+03  0.17107913887E+03 0.  0.
         24    2    5    5    0    0 -0.63297632065E+02  0.68446639255E+02  0.88329437049E+02  0.15179719353E+03  0.80924445402E+02 0.  0.
          5    1    5    5  501    0 -0.21760258839E+02 -0.53078321302E+02 -0.38117371551E+01  0.57683935346E+02  0.47000000000E+01 0. -1.
        -13    1    6    6    0    0 -0.55471843116E+02  0.58626927878E+02  0.21124859897E+02  0.83429621579E+02  0.00000000000E+00 0.  1.
         14    1    6    6    0    0 -0.78257889488E+01  0.98197113771E+01  0.67204577152E+02  0.68367571951E+02  0.00000000000E+00 0. -1.
         -5    1    3    3    0  503 -0.91074822045E+01 -0.28537700964E+02 -0.65052320933E+02  0.71772146876E+02  0.47000000000E+01 0.  1.
         13    1    4    4    0    0  0.25753556365E+02  0.58551410804E+01 -0.29882408674E+02  0.39880906342E+02  0.00000000000E+00 0. -1.
        -14    1    4    4    0    0  0.68411816743E+02  0.73142419304E+01  0.53212277241E+02  0.86978280359E+02  0.00000000000E+00 0.  1.
<mgrwt>
<rscale>  2 0.19356552E+03</rscale>
<asrwt>0</asrwt>
<pdfrwt beam="1">  1       21 0.34685208E-01 0.19420001E+03</pdfrwt>
<pdfrwt beam="2">  1       21 0.28101324E-01 0.19420001E+03</pdfrwt>
<totfact> 0.96876320E+04</totfact>
</mgrwt>
</event>
<event>
12    1  0.1039378E-001  0.1911948E+03  0.7546771E-02  0.1158655E+00
         21   -1    0    0  501  502  0.00000000000E+00  0.00000000000E+00  0.59930863371E+03  0.59930863371E+03  0.00000000000E+00 0.  1.
         21   -1    0    0  502  503 -0.00000000000E+00 -0.00000000000E+00 -0.61339812237E+02  0.61339812237E+02  0.00000000000E+00 0.  1.
         -6    2    1    2    0  503  0.39976872807E+02 -0.60429500652E+02  0.21158465192E+03  0.28517276817E+03  0.17693379516E+03 0.  0.
        -24    2    3    3    0    0  0.14043274955E+02 -0.25438454432E+02  0.22369613473E+03  0.23972276455E+03  0.81133930105E+02 0.  0.
          6    2    1    2  501    0 -0.39976872807E+02  0.60429500652E+02  0.32638416956E+03  0.37547567778E+03  0.17089611920E+03 0.  0.
         24    2    5    5    0    0 -0.16144709383E+02  0.95458869388E+02  0.16150399473E+03  0.20517420762E+03  0.81485383797E+02 0.  0.
          5    1    5    5  501    0 -0.23832163425E+02 -0.35029368735E+02  0.16488017483E+03  0.17030147016E+03  0.47000000000E+01 0. -1.
        -13    1    6    6    0    0 -0.14738120472E+02  0.44378172550E+02  0.14361057589E+03  0.15103189035E+03  0.00000000000E+00 0.  1.
         14    1    6    6    0    0 -0.14065889103E+01  0.51080696838E+02  0.17893418837E+02  0.54142317271E+02  0.00000000000E+00 0. -1.
         -5    1    3    3    0  503  0.25933597853E+02 -0.34991046220E+02 -0.12111482813E+02  0.45450003621E+02  0.47000000000E+01 0.  1.
         13    1    4    4    0    0  0.16056291211E+02  0.24777341995E+02  0.42946018946E+02  0.52116040785E+02  0.00000000000E+00 0. -1.
        -14    1    4    4    0    0 -0.20130162558E+01 -0.50215796427E+02  0.18075011579E+03  0.18760672377E+03  0.00000000000E+00 0.  1.
<mgrwt>
<rscale>  2 0.18978597E+03</rscale>
<asrwt>0</asrwt>
<pdfrwt beam="1">  1       21 0.92201324E-01 0.19119478E+03</pdfrwt>
<pdfrwt beam="2">  1       21 0.94368946E-02 0.19119478E+03</pdfrwt>
<totfact> 0.89331062E+04</totfact>
</mgrwt>
</event>
<event>
12    1  0.1039378E-001  0.1992333E+03  0.7546771E-02  0.1150682E+00
         21   -1    0    0  503  502  0.00000000000E+00  0.00000000000E+00  0.26317992625E+03  0.26317992625E+03  0.00000000000E+00 0.  1.
         21   -1    0    0  501  503 -0.00000000000E+00 -0.00000000000E+00 -0.23688271539E+03  0.23688271539E+03  0.00000000000E+00 0.  1.
          6    2    1    2  501    0  0.23157431890E+02 -0.89784069217E+02 -0.13843983356E+03  0.24260973830E+03  0.17634186079E+03 0.  0.
         24    2    3    3    0    0 -0.32898965282E+02 -0.58177652366E+02 -0.14199942086E+03  0.17798740539E+03  0.83956535190E+02 0.  0.
         -6    2    1    2    0  502 -0.23157431890E+02  0.89784069217E+02  0.16473704442E+03  0.25745290333E+03  0.17477487775E+03 0.  0.
        -24    2    5    5    0    0 -0.24957781825E+02  0.32174267587E+02  0.17677951443E+03  0.19838310066E+03  0.80291864697E+02 0.  0.
          5    1    3    3  501    0  0.56056397172E+02 -0.31606416850E+02  0.35595872984E+01  0.64622332918E+02  0.47000000000E+01 0. -1.
        -13    1    4    4    0    0 -0.50018564119E+02 -0.83077740745E+01 -0.93422153466E+02  0.10629475351E+03  0.00000000000E+00 0.  1.
         14    1    4    4    0    0  0.17119598837E+02 -0.49869878292E+02 -0.48577267391E+02  0.71692651871E+02  0.00000000000E+00 0. -1.
         -5    1    5    5    0  502  0.18003499346E+01  0.57609801630E+02 -0.12042470008E+02  0.59069802671E+02  0.47000000000E+01 0.  1.
         11    1    6    6    0    0 -0.15018985350E+02  0.23105517563E+02  0.74870008981E+01  0.28556786325E+02  0.00000000000E+00 0. -1.
        -12    1    6    6    0    0 -0.99387964750E+01  0.90687500240E+01  0.16929251353E+03  0.16982631433E+03  0.00000000000E+00 0.  1.
<mgrwt>
<rscale>  2 0.19888597E+03</rscale>
<asrwt>0</asrwt>
<pdfrwt beam="1">  1       21 0.40489220E-01 0.19923327E+03</pdfrwt>
<pdfrwt beam="2">  1       21 0.36443495E-01 0.19923327E+03</pdfrwt>
<totfact> 0.42534364E+04</totfact>
</mgrwt>
</event>
<event>
12    1  0.1039378E-001  0.1935307E+03  0.7546771E-02  0.1155838E+00
         21   -1    0    0  503  502  0.00000000000E+00  0.00000000000E+00  0.77288633866E+02  0.77288633866E+02  0.00000000000E+00 0. -1.
         21   -1    0    0  501  503 -0.00000000000E+00 -0.00000000000E+00 -0.49069947598E+03  0.49069947598E+03  0.00000000000E+00 0. -1.
          6    2    1    2  501    0 -0.44425365822E+02 -0.73016137680E+02 -0.16354823326E+03  0.25338145885E+03  0.17363516233E+03 0.  0.
         24    2    3    3    0    0  0.26873295030E+02  0.42218768192E+01 -0.98210216747E+02  0.12952526674E+03  0.79947168936E+02 0.  0.
         -6    2    1    2    0  502  0.44425365822E+02  0.73016137680E+02 -0.24986260885E+03  0.31460665099E+03  0.17100015221E+03 0.  0.
        -24    2    5    5    0    0  0.88961723466E+02  0.21620085967E+02 -0.14549304359E+03  0.18994656340E+03  0.80807517328E+02 0.  0.
          5    1    3    3  501    0 -0.71298660852E+02 -0.77238014499E+02 -0.65338016510E+02  0.12385619211E+03  0.47000000000E+01 0. -1.
        -11    1    4    4    0    0  0.29582512477E+02 -0.11230017372E+02 -0.16353832719E+01  0.31684583208E+02  0.00000000000E+00 0.  1.
         12    1    4    4    0    0 -0.27092174463E+01  0.15451894192E+02 -0.96574833475E+02  0.97840683532E+02  0.00000000000E+00 0. -1.
         -5    1    5    5    0  502 -0.44536357644E+02  0.51396051713E+02 -0.10436956527E+03  0.12466008759E+03  0.47000000000E+01 0.  1.
         13    1    6    6    0    0  0.26704263424E+02  0.25271522019E+02 -0.61406948812E+01  0.37275670937E+02  0.00000000000E+00 0. -1.
        -14    1    6    6    0    0  0.62257460041E+02 -0.36514360520E+01 -0.13935234871E+03  0.15267089247E+03  0.00000000000E+00 0.  1.
<mgrwt>
<rscale>  2 0.19293785E+03</rscale>
<asrwt>0</asrwt>
<pdfrwt beam="1">  1       21 0.11890560E-01 0.19353072E+03</pdfrwt>
<pdfrwt beam="2">  1       21 0.75492223E-01 0.19353072E+03</pdfrwt>
<totfact> 0.93436846E+04</totfact>
</mgrwt>
</event>
<event>
12    1  0.1039378E-001  0.2467787E+03  0.7546771E-02  0.1115496E+00
         21   -1    0    0  503  502  0.00000000000E+00  0.00000000000E+00  0.18428600215E+03  0.18428600215E+03  0.00000000000E+00 0. -1.
         21   -1    0    0  501  503 -0.00000000000E+00 -0.00000000000E+00 -0.53610567044E+03  0.53610567044E+03  0.00000000000E+00 0. -1.
          6    2    1    2  501    0  0.14598467734E+03  0.96477659350E+02 -0.39980631649E+03  0.46983487083E+03  0.17401221329E+03 0.  0.
         24    2    3    3    0    0  0.17616873248E+03  0.95579593538E+02 -0.35263519840E+03  0.41362910521E+03  0.81034391003E+02 0.  0.
         -6    2    1    2    0  502 -0.14598467734E+03 -0.96477659350E+02  0.47986648203E+02  0.25055680176E+03  0.17279041562E+03 0.  0.
        -24    2    5    5    0    0 -0.13552385720E+03 -0.50172503434E+02 -0.20522006766E+02  0.16707553423E+03  0.81296281616E+02 0.  0.
          5    1    3    3  501    0 -0.30184055141E+02  0.89806581221E+00 -0.47171118096E+02  0.56205765624E+02  0.47000000000E+01 0. -1.
        -13    1    4    4    0    0  0.30615446666E+02 -0.10332020094E+02 -0.29574045293E+02  0.43802743850E+02  0.00000000000E+00 0.  1.
         14    1    4    4    0    0  0.14555328581E+03  0.10591161363E+03 -0.32306115310E+03  0.36982636136E+03  0.00000000000E+00 0. -1.
         -5    1    5    5    0  502 -0.10460820138E+02 -0.46305155916E+02  0.68508654969E+02  0.83481267528E+02  0.47000000000E+01 0.  1.
         11    1    6    6    0    0 -0.57682694640E+02 -0.29985136672E+02  0.30530229841E+02  0.71822674806E+02  0.00000000000E+00 0. -1.
        -12    1    6    6    0    0 -0.77841162560E+02 -0.20187366762E+02 -0.51052236607E+02  0.95252859421E+02  0.00000000000E+00 0.  1.
<mgrwt>
<rscale>  2 0.24656339E+03</rscale>
<asrwt>0</asrwt>
<pdfrwt beam="1">  1       21 0.28351692E-01 0.24677868E+03</pdfrwt>
<pdfrwt beam="2">  1       21 0.82477796E-01 0.24677868E+03</pdfrwt>
<totfact> 0.14783939E+04</totfact>
</mgrwt>
</event>
<event>
12    1  0.1039378E-001  0.2093914E+03  0.7546771E-02  0.1142055E+00
         21   -1    0    0  503  502  0.00000000000E+00  0.00000000000E+00  0.44118643585E+03  0.44118643585E+03  0.00000000000E+00 0. -1.
         21   -1    0    0  501  503 -0.00000000000E+00 -0.00000000000E+00 -0.10017093152E+03  0.10017093152E+03  0.00000000000E+00 0.  1.
          6    2    1    2  501    0  0.19897303200E+01  0.11747329546E+03  0.19478974959E+03  0.28596215540E+03  0.17328408351E+03 0.  0.
         24    2    3    3    0    0  0.62195815804E+02  0.64581384732E+02  0.84525879040E+02  0.14957103362E+03  0.84780865255E+02 0.  0.
         -6    2    1    2    0  502 -0.19897303200E+01 -0.11747329546E+03  0.14622575474E+03  0.25539521197E+03  0.17332284551E+03 0.  0.
        -24    2    5    5    0    0  0.22061503272E+02 -0.42790001312E+02  0.14952497418E+03  0.17672481658E+03  0.80970665986E+02 0.  0.
          5    1    3    3  501    0 -0.60206085484E+02  0.52891910731E+02  0.11026387056E+03  0.13639112178E+03  0.47000000000E+01 0. -1.
        -13    1    4    4    0    0  0.67849397595E+02  0.76461590509E+02  0.89137212485E+02  0.13562948878E+03  0.00000000000E+00 0.  1.
         14    1    4    4    0    0 -0.56535817911E+01 -0.11880205778E+02 -0.46113334451E+01  0.13941544840E+02  0.00000000000E+00 0. -1.
         -5    1    5    5    0  502 -0.24051233592E+02 -0.74683294151E+02 -0.32992194434E+01  0.78670395394E+02  0.47000000000E+01 0.  1.
         11    1    6    6    0    0  0.15749770793E+02  0.21550892462E+02  0.25778723120E+02  0.37108473583E+02  0.00000000000E+00 0. -1.
        -12    1    6    6    0    0  0.63117324795E+01 -0.64340893774E+02  0.12374625106E+03  0.13961634299E+03  0.00000000000E+00 0.  1.
<mgrwt>
<rscale>  2 0.20938334E+03</rscale>
<asrwt>0</asrwt>
<pdfrwt beam="1">  1       21 0.67874835E-01 0.20939136E+03</pdfrwt>
<pdfrwt beam="2">  1       21 0.15410913E-01 0.20939136E+03</pdfrwt>
<totfact> 0.73496404E+04</totfact>
</mgrwt>
</event>
<event>
12    1  0.1039378E-001  0.2000874E+03  0.7546771E-02  0.1149705E+00
         21   -1    0    0  501  502  0.00000000000E+00  0.00000000000E+00  0.26779830798E+02  0.26779830798E+02  0.00000000000E+00 0. -1.
         21   -1    0    0  502  503 -0.00000000000E+00 -0.00000000000E+00 -0.17051652630E+04  0.17051652630E+04  0.00000000000E+00 0. -1.
         -6    2    1    2    0  503  0.34277297938E+02  0.94283712021E+02 -0.11438971345E+04  0.11612326475E+04  0.17290533800E+03 0.  0.
        -24    2    3    3    0    0  0.86482880639E+02  0.84647943276E+02 -0.88446228729E+03  0.89638023421E+03  0.81113646804E+02 0.  0.
          6    2    1    2  501    0 -0.34277297938E+02 -0.94283712021E+02 -0.53448829768E+03  0.57071244623E+03  0.17312020222E+03 0.  0.
         24    2    5    5    0    0  0.95297408644E+01 -0.76499689372E+02 -0.49818807409E+03  0.51092010271E+03  0.83096183767E+02 0.  0.
          5    1    5    5  501    0 -0.43807038802E+02 -0.17784022649E+02 -0.36300223591E+02  0.59792343514E+02  0.47000000000E+01 0. -1.
        -13    1    6    6    0    0  0.97291001640E+01  0.12686934952E+02 -0.17256123580E+03  0.17330029951E+03  0.00000000000E+00 0.  1.
         14    1    6    6    0    0 -0.19935929957E+00 -0.89186624323E+02 -0.32562683828E+03  0.33761980320E+03  0.00000000000E+00 0. -1.
         -5    1    3    3    0  503 -0.52205582702E+02  0.96357687451E+01 -0.25943484721E+03  0.26485241334E+03  0.47000000000E+01 0.  1.
         13    1    4    4    0    0  0.49324528462E+02  0.95048473000E+02 -0.65551559481E+03  0.66420464946E+03  0.00000000000E+00 0. -1.
        -14    1    4    4    0    0  0.37158352178E+02 -0.10400529725E+02 -0.22894669248E+03  0.23217558474E+03  0.00000000000E+00 0.  1.
<mgrwt>
<rscale>  2 0.20004089E+03</rscale>
<asrwt>0</asrwt>
<pdfrwt beam="1">  1       21 0.41199728E-02 0.20008737E+03</pdfrwt>
<pdfrwt beam="2">  1       21 0.26233319E+00 0.20008737E+03</pdfrwt>
<totfact> 0.20862694E+04</totfact>
</mgrwt>
</event>
<event>
12    1  0.1039378E-001  0.2040978E+03  0.7546771E-02  0.1146454E+00
         21   -1    0    0  503  502  0.00000000000E+00  0.00000000000E+00  0.34003763222E+03  0.34003763222E+03  0.00000000000E+00 0. -1.
         21   -1    0    0  501  503 -0.00000000000E+00 -0.00000000000E+00 -0.21308037400E+03  0.21308037400E+03  0.00000000000E+00 0.  1.
          6    2    1    2  501    0 -0.10673132758E+03  0.13412213107E+02 -0.11714657448E+03  0.23532794475E+03  0.17344871842E+03 0.  0.
         24    2    3    3    0    0 -0.16796361198E+02  0.36385997547E+02 -0.99838992451E+02  0.14078834804E+03  0.90815615201E+02 0.  0.
         -6    2    1    2    0  502  0.10673132758E+03 -0.13412213107E+02  0.24410383270E+03  0.31779006147E+03  0.17272052072E+03 0.  0.
        -24    2    5    5    0    0  0.12451634119E+03  0.34969125712E+02  0.18627049649E+03  0.24017662556E+03  0.79126194323E+02 0.  0.
          5    1    3    3  501    0 -0.89934966381E+02 -0.22973784440E+02 -0.17307582033E+02  0.94539596706E+02  0.47000000000E+01 0. -1.
        -13    1    4    4    0    0 -0.17461766651E+02 -0.28179099906E+02 -0.46103741586E+02  0.56784944786E+02  0.00000000000E+00 0.  1.
         14    1    4    4    0    0  0.66540545346E+00  0.64565097453E+02 -0.53735250865E+02  0.84003403259E+02  0.00000000000E+00 0. -1.
         -5    1    5    5    0  502 -0.17785013610E+02 -0.48381338819E+02  0.57833336213E+02  0.77613435902E+02  0.47000000000E+01 0.  1.
         13    1    6    6    0    0  0.12111823257E+03  0.11774161629E+02  0.12443646515E+03  0.17404795604E+03  0.00000000000E+00 0. -1.
        -14    1    6    6    0    0  0.33981086200E+01  0.23194964083E+02  0.61834031345E+02  0.66128669526E+02  0.00000000000E+00 0.  1.
<mgrwt>
<rscale>  2 0.20394303E+03</rscale>
<asrwt>0</asrwt>
<pdfrwt beam="1">  1       21 0.52313482E-01 0.20409782E+03</pdfrwt>
<pdfrwt beam="2">  1       21 0.32781596E-01 0.20409782E+03</pdfrwt>
<totfact> 0.30854382E+04</totfact>
</mgrwt>
</event>
<event>
12    1  0.1039378E-001  0.1729077E+03  0.7546771E-02  0.1175237E+00
         21   -1    0    0  501  502  0.00000000000E+00  0.00000000000E+00  0.78638778965E+02  0.78638778965E+02  0.00000000000E+00 0. -1.
         21   -1    0    0  502  503 -0.00000000000E+00 -0.00000000000E+00 -0.39749297112E+03  0.39749297112E+03  0.00000000000E+00 0. -1.
         -6    2    1    2    0  503  0.11125461680E+02  0.15156240176E+02 -0.21432644320E+03  0.27537774998E+03  0.17188249887E+03 0.  0.
        -24    2    3    3    0    0 -0.34265774451E+01 -0.38020789119E+01 -0.23180062014E+03  0.24540081609E+03  0.80397983834E+02 0.  0.
          6    2    1    2  501    0 -0.11125461680E+02 -0.15156240176E+02 -0.10452774896E+03  0.20075400010E+03  0.17036029685E+03 0.  0.
         24    2    5    5    0    0  0.97435310645E+01  0.41829286440E+02 -0.10464863385E+03  0.13988553770E+03  0.82292171497E+02 0.  0.
          5    1    5    5  501    0 -0.20868992745E+02 -0.56985526616E+02  0.12088489534E+00  0.60868462401E+02  0.47000000000E+01 0. -1.
        -13    1    6    6    0    0 -0.32378649364E+02  0.38194841602E+02 -0.49653734706E+02  0.70517488823E+02  0.00000000000E+00 0.  1.
         14    1    6    6    0    0  0.42122180428E+02  0.36344448377E+01 -0.54994899146E+02  0.69368048880E+02  0.00000000000E+00 0. -1.
         -5    1    3    3    0  503  0.14552039125E+02  0.18958319088E+02  0.17474176943E+02  0.29976933886E+02  0.47000000000E+01 0.  1.
         11    1    4    4    0    0  0.15275405031E+01  0.23649839144E+02 -0.17927163051E+02  0.29715845043E+02  0.00000000000E+00 0. -1.
        -12    1    4    4    0    0 -0.49541179483E+01 -0.27451918056E+02 -0.21387345709E+03  0.21568497105E+03  0.00000000000E+00 0.  1.
<mgrwt>
<rscale>  2 0.17252820E+03</rscale>
<asrwt>0</asrwt>
<pdfrwt beam="1">  1       21 0.12098274E-01 0.17290772E+03</pdfrwt>
<pdfrwt beam="2">  1       21 0.61152765E-01 0.17290772E+03</pdfrwt>
<totfact> 0.14481285E+05</totfact>
</mgrwt>
</event>
<event>
12    1  0.1039378E-001  0.2523437E+03  0.7546771E-02  0.1111969E+00
         21   -1    0    0  501  502  0.00000000000E+00  0.00000000000E+00  0.96520094413E+03  0.96520094413E+03  0.00000000000E+00 0.  1.
         21   -1    0    0  502  503 -0.00000000000E+00 -0.00000000000E+00 -0.17651326652E+03  0.17651326652E+03  0.00000000000E+00 0. -1.
         -6    2    1    2    0  503  0.16240928498E+03 -0.87346054654E+02 -0.57617789119E+02  0.25883803737E+03  0.17225333336E+03 0.  0.
        -24    2    3    3    0    0  0.15890964189E+03 -0.47965783374E+02  0.48053063384E+01  0.18479895232E+03  0.81083729255E+02 0.  0.
          6    2    1    2  501    0 -0.16240928498E+03  0.87346054654E+02  0.84630546673E+03  0.88287617327E+03  0.17097159181E+03 0.  0.
         24    2    5    5    0    0 -0.53199802225E+02  0.49034274409E+02  0.60406432759E+03  0.61436665180E+03  0.85545847106E+02 0.  0.
          5    1    5    5  501    0 -0.10920948276E+03  0.38311780244E+02  0.24224113914E+03  0.26850952147E+03  0.47000000000E+01 0. -1.
        -13    1    6    6    0    0  0.23649126915E+02  0.13764569341E+02  0.13581822513E+03  0.13854722967E+03  0.00000000000E+00 0.  1.
         14    1    6    6    0    0 -0.76848929140E+02  0.35269705068E+02  0.46824610246E+03  0.47581942213E+03  0.00000000000E+00 0. -1.
         -5    1    3    3    0  503  0.34996430881E+01 -0.39380271279E+02 -0.62423095458E+02  0.74039085045E+02  0.47000000000E+01 0.  1.
         13    1    4    4    0    0  0.82917887106E+02 -0.46765958274E+02 -0.31898562833E+02  0.10039895003E+03  0.00000000000E+00 0. -1.
        -14    1    4    4    0    0  0.75991754786E+02 -0.11998251004E+01  0.36703869172E+02  0.84400002298E+02  0.00000000000E+00 0.  1.
<mgrwt>
<rscale>  2 0.25212507E+03</rscale>
<asrwt>0</asrwt>
<pdfrwt beam="1">  1       21 0.14849245E+00 0.25234365E+03</pdfrwt>
<pdfrwt beam="2">  1       21 0.27155888E-01 0.25234365E+03</pdfrwt>
<totfact> 0.37866399E+03</totfact>
</mgrwt>
</event>
<event>
12    1  0.1039378E-001  0.2532058E+03  0.7546771E-02  0.1111319E+00
         21   -1    0    0  501  502  0.00000000000E+00  0.00000000000E+00  0.15019979510E+03  0.15019979510E+03  0.00000000000E+00 0.  1.
         21   -1    0    0  502  503 -0.00000000000E+00 -0.00000000000E+00 -0.42960096537E+03  0.42960096537E+03  0.00000000000E+00 0. -1.
         -6    2    1    2    0  503  0.62678687282E+02 -0.17268802364E+03 -0.11552172281E+03  0.27831355404E+03  0.17425095287E+03 0.  0.
        -24    2    3    3    0    0  0.51403217696E+02 -0.23507980365E+02 -0.46494361244E+02  0.11348428428E+03  0.86729702067E+02 0.  0.
          6    2    1    2  501    0 -0.62678687282E+02  0.17268802364E+03 -0.16387944746E+03  0.30148720643E+03  0.17403531537E+03 0.  0.
         24    2    5    5    0    0 -0.51702130658E+01  0.10986566178E+03 -0.25337165958E+02  0.13879139358E+03  0.80770565257E+02 0.  0.
          5    1    5    5  501    0 -0.57508474216E+02  0.62822361854E+02 -0.13854228150E+03  0.16269581285E+03  0.47000000000E+01 0. -1.
        -13    1    6    6    0    0  0.34141881949E+02  0.68598363564E+02 -0.51778333877E+00  0.76626833983E+02  0.00000000000E+00 0.  1.
         14    1    6    6    0    0 -0.39312095015E+02  0.41267298218E+02 -0.24819382619E+02  0.62164559600E+02  0.00000000000E+00 0. -1.
         -5    1    3    3    0  503  0.11275469586E+02 -0.14918004327E+03 -0.69027361568E+02  0.16482926976E+03  0.47000000000E+01 0.  1.
         11    1    4    4    0    0  0.12690294524E+00 -0.43218128222E+02 -0.38675281135E+02  0.57996552331E+02  0.00000000000E+00 0. -1.
        -12    1    4    4    0    0  0.51276314751E+02  0.19710147858E+02 -0.78190801086E+01  0.55487731948E+02  0.00000000000E+00 0.  1.
<mgrwt>
<rscale>  2 0.25316868E+03</rscale>
<asrwt>0</asrwt>
<pdfrwt beam="1">  1       21 0.23107661E-01 0.25320578E+03</pdfrwt>
<pdfrwt beam="2">  1       21 0.66092456E-01 0.25320578E+03</pdfrwt>
<totfact> 0.35911972E+04</totfact>
</mgrwt>
</event>
<event>
12    1  0.1039378E-001  0.1867871E+03  0.7546771E-02  0.1161617E+00
         21   -1    0    0  501  502  0.00000000000E+00  0.00000000000E+00  0.32798003145E+03  0.32798003145E+03  0.00000000000E+00 0.  1.
         21   -1    0    0  502  503 -0.00000000000E+00 -0.00000000000E+00 -0.11295173347E+03  0.11295173347E+03  0.00000000000E+00 0.  1.
         -6    2    1    2    0  503 -0.67762807298E+02 -0.25257149574E+02  0.51864541879E+02  0.19291598116E+03  0.17116344068E+03 0.  0.
        -24    2    3    3    0    0 -0.91813398850E+02  0.27074286873E+02  0.18798322786E+02  0.12633914555E+03  0.80283781310E+02 0.  0.
          6    2    1    2  501    0  0.67762807298E+02  0.25257149574E+02  0.16316375611E+03  0.24801578376E+03  0.17221990602E+03 0.  0.
         24    2    5    5    0    0  0.15764901412E+02  0.47182082668E+02  0.23680709804E+02  0.97476436364E+02  0.80412676786E+02 0.  0.
          5    1    5    5  501    0  0.51997905886E+02 -0.21924933094E+02  0.13948304630E+03  0.15053934739E+03  0.47000000000E+01 0. -1.
        -11    1    6    6    0    0  0.39529429474E+02  0.36414465622E+02  0.39738129740E+02  0.66840916034E+02  0.00000000000E+00 0.  1.
         12    1    6    6    0    0 -0.23764528062E+02  0.10767617046E+02 -0.16057419936E+02  0.30635520330E+02  0.00000000000E+00 0. -1.
         -5    1    3    3    0  503  0.24050591552E+02 -0.52331436448E+02  0.33066219093E+02  0.66576835610E+02  0.47000000000E+01 0.  1.
         11    1    4    4    0    0 -0.97088998606E+02  0.43068207205E+02  0.23647559361E+02  0.10881337779E+03  0.00000000000E+00 0. -1.
        -12    1    4    4    0    0  0.52755997553E+01 -0.15993920332E+02 -0.48492365753E+01  0.17525767764E+02  0.00000000000E+00 0.  1.
<mgrwt>
<rscale>  2 0.18654321E+03</rscale>
<asrwt>0</asrwt>
<pdfrwt beam="1">  1       21 0.50458466E-01 0.18678709E+03</pdfrwt>
<pdfrwt beam="2">  1       21 0.17377190E-01 0.18678709E+03</pdfrwt>
<totfact> 0.11225073E+05</totfact>
</mgrwt>
</event>
<event>
12    1  0.1039378E-001  0.2324478E+03  0.7546771E-02  0.1125070E+00
         21   -1    0    0  503  502  0.00000000000E+00  0.00000000000E+00  0.35594754018E+03  0.35594754018E+03  0.00000000000E+00 0.  1.
         21   -1    0    0  501  503 -0.00000000000E+00 -0.00000000000E+00 -0.33477640803E+03  0.33477640803E+03  0.00000000000E+00 0. -1.
          6    2    1    2  501    0  0.69309312479E+01  0.15507025555E+03 -0.24510184200E+03  0.33779710843E+03  0.17302355779E+03 0.  0.
         24    2    3    3    0    0 -0.28386449460E+02  0.13128751127E+03 -0.96946944722E+02  0.18357356972E+03  0.79109697772E+02 0.  0.
         -6    2    1    2    0  502 -0.69309312479E+01 -0.15507025555E+03  0.26627297415E+03  0.35292683979E+03  0.17193381144E+03 0.  0.
        -24    2    5    5    0    0 -0.41816162281E+02 -0.72917835182E+02  0.22677005087E+03  0.25521005277E+03  0.81497932186E+02 0.  0.
          5    1    3    3  501    0  0.35317380708E+02  0.23782744280E+02 -0.14815489727E+03  0.15422353871E+03  0.47000000000E+01 0. -1.
        -11    1    4    4    0    0  0.11889364634E+02  0.30761788457E+02  0.67220154948E+01  0.33657541693E+02  0.00000000000E+00 0.  1.
         12    1    4    4    0    0 -0.40275814094E+02  0.10052572281E+03 -0.10366896022E+03  0.14991602803E+03  0.00000000000E+00 0. -1.
         -5    1    5    5    0  502  0.34885231033E+02 -0.82152420367E+02  0.39502923281E+02  0.97716787013E+02  0.47000000000E+01 0.  1.
         13    1    6    6    0    0 -0.12687780414E+02 -0.14759832532E+02  0.17527270335E+00  0.19464407228E+02  0.00000000000E+00 0. -1.
        -14    1    6    6    0    0 -0.29128381866E+02 -0.58158002650E+02  0.22659477816E+03  0.23574564555E+03  0.00000000000E+00 0.  1.
<mgrwt>
<rscale>  2 0.23224502E+03</rscale>
<asrwt>0</asrwt>
<pdfrwt beam="1">  1       21 0.54761160E-01 0.23244779E+03</pdfrwt>
<pdfrwt beam="2">  1       21 0.51504063E-01 0.23244779E+03</pdfrwt>
<totfact> 0.10992417E+04</totfact>
</mgrwt>
</event>
<event>
12    1  0.1039378E-001  0.1930010E+03  0.7546771E-02  0.1155861E+00
         21   -1    0    0  501  502  0.00000000000E+00  0.00000000000E+00  0.11026040115E+03  0.11026040115E+03  0.00000000000E+00 0.  1.
         21   -1    0    0  502  503 -0.00000000000E+00 -0.00000000000E+00 -0.41441361901E+03  0.41441361901E+03  0.00000000000E+00 0.  1.
         -6    2    1    2    0  503  0.83980797859E+02  0.14582384221E+02 -0.26542361228E+03  0.32817537928E+03  0.17315878630E+03 0.  0.
        -24    2    3    3    0    0  0.10236272350E+03  0.60348725697E+02 -0.20498972837E+03  0.25002937793E+03  0.79836114855E+02 0.  0.
          6    2    1    2  501    0 -0.83980797859E+02 -0.14582384221E+02 -0.38729605588E+02  0.19649864088E+03  0.17276085546E+03 0.  0.
         24    2    5    5    0    0 -0.90962620637E+01 -0.28932925408E+02  0.32472076109E+02  0.92069711892E+02  0.80638328138E+02 0.  0.
          5    1    5    5  501    0 -0.74884535795E+02  0.14350541187E+02 -0.71201681697E+02  0.10442892899E+03  0.47000000000E+01 0. -1.
        -13    1    6    6    0    0 -0.18602065342E+02  0.70247784057E+01  0.47854560939E+02  0.51821263486E+02  0.00000000000E+00 0.  1.
         14    1    6    6    0    0  0.95058032781E+01 -0.35957703814E+02 -0.15382484830E+02  0.40248448406E+02  0.00000000000E+00 0. -1.
         -5    1    3    3    0  503 -0.18381925644E+02 -0.45766341476E+02 -0.60433883903E+02  0.78146001344E+02  0.47000000000E+01 0.  1.
         13    1    4    4    0    0 -0.23077086313E+01  0.35467473049E+02 -0.53036235579E+02  0.63844415950E+02  0.00000000000E+00 0. -1.
        -14    1    4    4    0    0  0.10467043213E+03  0.24881252648E+02 -0.15195349279E+03  0.18618496198E+03  0.00000000000E+00 0.  1.
<mgrwt>
<rscale>  2 0.19291170E+03</rscale>
<asrwt>0</asrwt>
<pdfrwt beam="1">  1       21 0.16963139E-01 0.19300100E+03</pdfrwt>
<pdfrwt beam="2">  1       21 0.63755941E-01 0.19300100E+03</pdfrwt>
<totfact> 0.71187457E+04</totfact>
</mgrwt>
</event>
<event>
12    1  0.1039378E-001  0.1733450E+03  0.7546771E-02  0.1174808E+00
         21   -1    0    0  503  502  0.00000000000E+00  0.00000000000E+00  0.85765462358E+02  0.85765462358E+02  0.00000000000E+00 0. -1.
         21   -1    0    0  501  503 -0.00000000000E+00 -0.00000000000E+00 -0.18913820358E+04  0.18913820358E+04  0.00000000000E+00 0. -1.
          6    2    1    2  501    0 -0.18208045248E+02 -0.88550734232E+01 -0.17952976844E+04  0.18034956308E+04  0.17056602730E+03 0.  0.
         24    2    3    3    0    0  0.12357229536E+02 -0.26038890495E+02 -0.16950107810E+04  0.16971515074E+04  0.80193307445E+02 0.  0.
         -6    2    1    2    0  502  0.18208045248E+02  0.88550734232E+01 -0.10318889073E+02  0.17365186733E+03  0.17215849186E+03 0.  0.
        -24    2    5    5    0    0 -0.36541379868E+02 -0.37983615266E+02  0.11077944217E+02  0.98343987375E+02  0.82284819581E+02 0.  0.
          5    1    3    3  501    0 -0.30565274784E+02  0.17183817072E+02 -0.10028690340E+03  0.10634412342E+03  0.47000000000E+01 0. -1.
        -13    1    4    4    0    0 -0.19429798099E+02 -0.14668842881E+02 -0.16674192494E+03  0.16850982624E+03  0.00000000000E+00 0.  1.
         14    1    4    4    0    0  0.31787027635E+02 -0.11370047614E+02 -0.15282688560E+04  0.15286416812E+04  0.00000000000E+00 0. -1.
         -5    1    5    5    0  502  0.54749425116E+02  0.46838688690E+02 -0.21396833290E+02  0.75307879957E+02  0.47000000000E+01 0.  1.
         13    1    6    6    0    0 -0.62386962592E+02 -0.32713246960E+02  0.20806196288E+01  0.70474240728E+02  0.00000000000E+00 0. -1.
        -14    1    6    6    0    0  0.25845582724E+02 -0.52703683066E+01  0.89973245883E+01  0.27869746647E+02  0.00000000000E+00 0.  1.
<mgrwt>
<rscale>  2 0.17294828E+03</rscale>
<asrwt>0</asrwt>
<pdfrwt beam="1">  1       21 0.13194688E-01 0.17334501E+03</pdfrwt>
<pdfrwt beam="2">  1       21 0.29098182E+00 0.17334501E+03</pdfrwt>
<totfact> 0.19526693E+03</totfact>
</mgrwt>
</event>
<event>
12    1  0.1039378E-001  0.1933565E+03  0.7546771E-02  0.1155896E+00
         21   -1    0    0  501  502  0.00000000000E+00  0.00000000000E+00  0.22852533553E+02  0.22852533553E+02  0.00000000000E+00 0. -1.
         21   -1    0    0  502  503 -0.00000000000E+00 -0.00000000000E+00 -0.17192839805E+04  0.17192839805E+04  0.00000000000E+00 0.  1.
         -6    2    1    2    0  503  0.66886887086E+02 -0.49708629202E+02 -0.10538216003E+04  0.10710671149E+04  0.17233686746E+03 0.  0.
        -24    2    3    3    0    0  0.36134132194E+01  0.13093354824E+02 -0.37251344111E+03  0.38393501737E+03  0.91952928463E+02 0.  0.
          6    2    1    2  501    0 -0.66886887086E+02  0.49708629202E+02 -0.64260984663E+03  0.67106939913E+03  0.17447613013E+03 0.  0.
         24    2    5    5    0    0  0.31068216646E+01  0.60678569902E+02 -0.21387317109E+03  0.23649295497E+03  0.80595553564E+02 0.  0.
          5    1    5    5  501    0 -0.69993708750E+02 -0.10969940700E+02 -0.42873667554E+03  0.43457644416E+03  0.47000000000E+01 0. -1.
        -13    1    6    6    0    0  0.38945272493E+01  0.33386130115E+02 -0.20506805263E+03  0.20780449282E+03  0.00000000000E+00 0.  1.
         14    1    6    6    0    0 -0.78770558467E+00  0.27292439786E+02 -0.88051184558E+01  0.28688462151E+02  0.00000000000E+00 0. -1.
         -5    1    3    3    0  503  0.63273473867E+02 -0.62801984026E+02 -0.68130815917E+03  0.68713209752E+03  0.47000000000E+01 0.  1.
         13    1    4    4    0    0  0.42031354121E+02  0.29059939486E+02 -0.21917084364E+03  0.22504882473E+03  0.00000000000E+00 0. -1.
        -14    1    4    4    0    0 -0.38417940901E+02 -0.15966584662E+02 -0.15334259748E+03  0.15888619263E+03  0.00000000000E+00 0.  1.
<mgrwt>
<rscale>  2 0.19287262E+03</rscale>
<asrwt>0</asrwt>
<pdfrwt beam="1">  1       21 0.35157741E-02 0.19335647E+03</pdfrwt>
<pdfrwt beam="2">  1       21 0.26450525E+00 0.19335647E+03</pdfrwt>
<totfact> 0.26580145E+04</totfact>
</mgrwt>
</event>
<event>
12    1  0.1039378E-001  0.1902030E+03  0.7546771E-02  0.1158391E+00
         21   -1    0    0  501  502  0.00000000000E+00  0.00000000000E+00  0.38598729733E+03  0.38598729733E+03  0.00000000000E+00 0.  1.
         21   -1    0    0  502  503 -0.00000000000E+00 -0.00000000000E+00 -0.12903062092E+03  0.12903062092E+03  0.00000000000E+00 0.  1.
         -6    2    1    2    0  503  0.13920325117E+02  0.79404557257E+02 -0.65665174680E+01  0.19031627692E+03  0.17227392997E+03 0.  0.
        -24    2    3    3    0    0 -0.43233269789E+01 -0.24435669111E+02  0.42102055043E+00  0.84549840181E+02  0.80825151625E+02 0.  0.
          6    2    1    2  501    0 -0.13920325117E+02 -0.79404557257E+02  0.26352319387E+03  0.32470164133E+03  0.17172018812E+03 0.  0.
         24    2    5    5    0    0  0.14945580313E+02 -0.18915430833E+02  0.44434095666E+02  0.95541658204E+02  0.81071916841E+02 0.  0.
          5    1    5    5  501    0 -0.28865905430E+02 -0.60489126424E+02  0.21908909821E+03  0.22915998312E+03  0.47000000000E+01 0. -1.
        -13    1    6    6    0    0  0.16520612729E+02  0.11387806467E+02  0.58682966884E+02  0.62018572891E+02  0.00000000000E+00 0.  1.
         14    1    6    6    0    0 -0.15750324158E+01 -0.30303237300E+02 -0.14248871218E+02  0.33523085314E+02  0.00000000000E+00 0. -1.
         -5    1    3    3    0  503  0.18243652096E+02  0.10384022637E+03 -0.69875380184E+01  0.10576643674E+03  0.47000000000E+01 0.  1.
         13    1    4    4    0    0 -0.42470259237E+02 -0.91841315659E+01 -0.55351106046E+00  0.43455466478E+02  0.00000000000E+00 0. -1.
        -14    1    4    4    0    0  0.38146932258E+02 -0.15251537545E+02  0.97453161088E+00  0.41094373703E+02  0.00000000000E+00 0.  1.
<mgrwt>
<rscale>  2 0.19007749E+03</rscale>
<asrwt>0</asrwt>
<pdfrwt beam="1">  1       21 0.59382661E-01 0.19020296E+03</pdfrwt>
<pdfrwt beam="2">  1       21 0.19850865E-01 0.19020296E+03</pdfrwt>
<totfact> 0.62084632E+04</totfact>
</mgrwt>
</event>
<event>
12    1  0.1039378E-001  0.1821294E+03  0.7546771E-02  0.1165982E+00
         21   -1    0    0  503  502  0.00000000000E+00  0.00000000000E+00  0.28598303321E+03  0.28598303321E+03  0.00000000000E+00 0.  1.
         21   -1    0    0  501  503 -0.00000000000E+00 -0.00000000000E+00 -0.12856400749E+03  0.12856400749E+03  0.00000000000E+00 0.  1.
          6    2    1    2  501    0 -0.88510003786E+01 -0.56421070599E+02  0.12187563214E+02  0.18160220960E+03  0.17195682138E+03 0.  0.
         24    2    3    3    0    0  0.14197919801E+01 -0.49470516447E+02 -0.58157764999E+02  0.11001761223E+03  0.79197232054E+02 0.  0.
         -6    2    1    2    0  502  0.88510003786E+01  0.56421070599E+02  0.14523146251E+03  0.23294483110E+03  0.17294345672E+03 0.  0.
        -24    2    5    5    0    0  0.56679112532E+02  0.82023636357E+02  0.10297201953E+03  0.16401754908E+03  0.79737825929E+02 0.  0.
          5    1    3    3  501    0 -0.10270792359E+02 -0.69505541519E+01  0.70345328212E+02  0.71584597366E+02  0.47000000000E+01 0. -1.
        -13    1    4    4    0    0 -0.14257893165E+02 -0.60376194542E+02 -0.16504281757E+02  0.64194732659E+02  0.00000000000E+00 0.  1.
         14    1    4    4    0    0  0.15677685145E+02  0.10905678095E+02 -0.41653483242E+02  0.45822879574E+02  0.00000000000E+00 0. -1.
         -5    1    5    5    0  502 -0.47828112153E+02 -0.25602565758E+02  0.42259442981E+02  0.68927282020E+02  0.47000000000E+01 0.  1.
         11    1    6    6    0    0  0.20847405162E+02 -0.57139188831E+01 -0.30290613527E+01  0.21827468559E+02  0.00000000000E+00 0. -1.
        -12    1    6    6    0    0  0.35831707369E+02  0.87737555240E+02  0.10600108088E+03  0.14219008053E+03  0.00000000000E+00 0.  1.
<mgrwt>
<rscale>  2 0.18189479E+03</rscale>
<asrwt>0</asrwt>
<pdfrwt beam="1">  1       21 0.43997390E-01 0.18212940E+03</pdfrwt>
<pdfrwt beam="2">  1       21 0.19779078E-01 0.18212940E+03</pdfrwt>
<totfact> 0.11739238E+05</totfact>
</mgrwt>
</event>
<event>
12    1  0.1039378E-001  0.2023555E+03  0.7546771E-02  0.1147787E+00
         21   -1    0    0  503  502  0.00000000000E+00  0.00000000000E+00  0.26336162269E+03  0.26336162269E+03  0.00000000000E+00 0.  1.
         21   -1    0    0  501  503 -0.00000000000E+00 -0.00000000000E+00 -0.15557426528E+03  0.15557426528E+03  0.00000000000E+00 0. -1.
          6    2    1    2  501    0 -0.49470429270E+02  0.92506704212E+02  0.46984966636E+02  0.20773862468E+03  0.17304027104E+03 0.  0.
         24    2    3    3    0    0 -0.58482332950E+02  0.74665751071E+02  0.97561084157E+02  0.15315339151E+03  0.70303901313E+02 0.  0.
         -6    2    1    2    0  502  0.49470429270E+02 -0.92506704212E+02  0.60802390772E+02  0.21119726329E+03  0.17292350795E+03 0.  0.
        -24    2    5    5    0    0  0.45930379450E+01 -0.82614081361E+02  0.98877333169E+02  0.15133378964E+03  0.79240181957E+02 0.  0.
          5    1    3    3  501    0  0.90119036805E+01  0.17840953141E+02 -0.50576117521E+02  0.54585233172E+02  0.47000000000E+01 0. -1.
        -11    1    4    4    0    0  0.16180569964E+02  0.12967094957E+02  0.22648038448E+02  0.30706514643E+02  0.00000000000E+00 0.  1.
         12    1    4    4    0    0 -0.74662902914E+02  0.61698656114E+02  0.74913045709E+02  0.12244687687E+03  0.00000000000E+00 0. -1.
         -5    1    5    5    0  502  0.44877391325E+02 -0.98926228506E+01 -0.38074942396E+02  0.59863473650E+02  0.47000000000E+01 0.  1.
         11    1    6    6    0    0 -0.29681588503E+00 -0.40575648461E+02 -0.33275162438E+01  0.40712942808E+02  0.00000000000E+00 0. -1.
        -12    1    6    6    0    0  0.48898538301E+01 -0.42038432900E+02  0.10220484941E+03  0.11062084684E+03  0.00000000000E+00 0.  1.
<mgrwt>
<rscale>  2 0.20233054E+03</rscale>
<asrwt>0</asrwt>
<pdfrwt beam="1">  1       21 0.40517173E-01 0.20235550E+03</pdfrwt>
<pdfrwt beam="2">  1       21 0.23934502E-01 0.20235550E+03</pdfrwt>
<totfact> 0.96205337E+04</totfact>
</mgrwt>
</event>
<event>
12    1  0.1039378E-001  0.2116634E+03  0.7546771E-02  0.1140690E+00
         21   -1    0    0  501  502  0.00000000000E+00  0.00000000000E+00  0.41962595093E+03  0.41962595093E+03  0.00000000000E+00 0.  1.
         21   -1    0    0  502  503 -0.00000000000E+00 -0.00000000000E+00 -0.10607552449E+03  0.10607552449E+03  0.00000000000E+00 0. -1.
         -6    2    1    2    0  503  0.90274920240E+02  0.82805694116E+02  0.13944316183E+03  0.25163081313E+03  0.16990387439E+03 0.  0.
        -24    2    3    3    0    0  0.92387141083E+02  0.15996420282E+01  0.54709654251E+02  0.13415425513E+03  0.80413153208E+02 0.  0.
          6    2    1    2  501    0 -0.90274920240E+02 -0.82805694116E+02  0.17410726461E+03  0.27407066228E+03  0.17261241014E+03 0.  0.
         24    2    5    5    0    0 -0.46013595979E+02 -0.11437394911E+03  0.87074526708E+02  0.17134575286E+03  0.81109448107E+02 0.  0.
          5    1    5    5  501    0 -0.44261324261E+02  0.31568254998E+02  0.87032737900E+02  0.10272490942E+03  0.47000000000E+01 0. -1.
        -13    1    6    6    0    0  0.73323417770E+01 -0.64675209307E+02  0.71691496289E+02  0.96831382180E+02  0.00000000000E+00 0.  1.
         14    1    6    6    0    0 -0.53345937756E+02 -0.49698739807E+02  0.15383030419E+02  0.74514370683E+02  0.00000000000E+00 0. -1.
         -5    1    3    3    0  503 -0.21122208426E+01  0.81206052087E+02  0.84733507581E+02  0.11747655800E+03  0.47000000000E+01 0.  1.
         11    1    4    4    0    0  0.81909714685E+02  0.22855067021E+02  0.12782993077E+02  0.85993955371E+02  0.00000000000E+00 0. -1.
        -12    1    4    4    0    0  0.10477426397E+02 -0.21255424993E+02  0.41926661173E+02  0.48160299757E+02  0.00000000000E+00 0.  1.
<mgrwt>
<rscale>  2 0.21111048E+03</rscale>
<asrwt>0</asrwt>
<pdfrwt beam="1">  1       21 0.64557838E-01 0.21166338E+03</pdfrwt>
<pdfrwt beam="2">  1       21 0.16319312E-01 0.21166338E+03</pdfrwt>
<totfact> 0.73768022E+04</totfact>
</mgrwt>
</event>
<event>
12    1  0.1039378E-001  0.2042963E+03  0.7546771E-02  0.1146215E+00
         21   -1    0    0  503  502  0.00000000000E+00  0.00000000000E+00  0.45329198267E+03  0.45329198267E+03  0.00000000000E+00 0. -1.
         21   -1    0    0  501  503 -0.00000000000E+00 -0.00000000000E+00 -0.11215924204E+03  0.11215924204E+03  0.00000000000E+00 0.  1.
          6    2    1    2  501    0 -0.30261967180E+02  0.10100527374E+03  0.29062564588E+03  0.35524671785E+03  0.17498317783E+03 0.  0.
         24    2    3    3    0    0  0.49423042168E+02  0.50332244205E+02  0.17928949179E+03  0.20918068537E+03  0.81460821037E+02 0.  0.
         -6    2    1    2    0  502  0.30261967180E+02 -0.10100527374E+03  0.50507094758E+02  0.21020450686E+03  0.17469148835E+03 0.  0.
        -24    2    5    5    0    0  0.50016865742E+02 -0.27601208301E+01  0.55159102738E+02  0.10977494316E+03  0.80614554548E+02 0.  0.
          5    1    3    3  501    0 -0.79685009348E+02  0.50673029531E+02  0.11133615409E+03  0.14606603248E+03  0.47000000000E+01 0. -1.
        -11    1    4    4    0    0  0.23227830782E+02  0.86788557512E+01  0.16487509060E+01  0.24851016871E+02  0.00000000000E+00 0.  1.
         12    1    4    4    0    0  0.26195211386E+02  0.41653388454E+02  0.17764074088E+03  0.18432966850E+03  0.00000000000E+00 0. -1.
         -5    1    5    5    0  502 -0.19754898562E+02 -0.98245152906E+02 -0.46520079804E+01  0.10042956370E+03  0.47000000000E+01 0.  1.
         11    1    6    6    0    0  0.71167549973E+02 -0.90797589167E+01  0.34774000483E+02  0.79727619435E+02  0.00000000000E+00 0. -1.
        -12    1    6    6    0    0 -0.21150684231E+02  0.63196380867E+01  0.20385102256E+02  0.30047323724E+02  0.00000000000E+00 0.  1.
<mgrwt>
<rscale>  2 0.20423379E+03</rscale>
<asrwt>0</asrwt>
<pdfrwt beam="1">  1       21 0.69737227E-01 0.20429627E+03</pdfrwt>
<pdfrwt beam="2">  1       21 0.17255268E-01 0.20429627E+03</pdfrwt>
<totfact> 0.56392801E+04</totfact>
</mgrwt>
</event>
<event>
12    1  0.1039378E-001  0.1941670E+03  0.7546771E-02  0.1156266E+00
         21   -1    0    0  501  502  0.00000000000E+00  0.00000000000E+00  0.12438729359E+03  0.12438729359E+03  0.00000000000E+00 0.  1.
         21   -1    0    0  502  503 -0.00000000000E+00 -0.00000000000E+00 -0.35162674106E+03  0.35162674106E+03  0.00000000000E+00 0.  1.
         -6    2    1    2    0  503  0.25466904385E+02  0.66645296744E+02 -0.14470749393E+02  0.18796653648E+03  0.17329702090E+03 0.  0.
        -24    2    3    3    0    0 -0.36566471885E+02  0.55761350946E+02 -0.52600180025E+02  0.11419294007E+03  0.76333567301E+02 0.  0.
          6    2    1    2  501    0 -0.25466904385E+02 -0.66645296744E+02 -0.21276869808E+03  0.28804749817E+03  0.18058428370E+03 0.  0.
         24    2    5    5    0    0 -0.62059668464E+02 -0.95516756312E+02 -0.11825034632E+03  0.18255626450E+03  0.79804712375E+02 0.  0.
          5    1    5    5  501    0  0.36592764079E+02  0.28871459568E+02 -0.94518351762E+02  0.10549123367E+03  0.47000000000E+01 0. -1.
        -11    1    6    6    0    0  0.26786753386E+00 -0.56317972257E+02 -0.19969926073E+02  0.59754361343E+02  0.00000000000E+00 0.  1.
         12    1    6    6    0    0 -0.62327535998E+02 -0.39198784055E+02 -0.98280420249E+02  0.12280190316E+03  0.00000000000E+00 0. -1.
         -5    1    3    3    0  503  0.62033376270E+02  0.10883945798E+02  0.38129430632E+02  0.73773596415E+02  0.47000000000E+01 0.  1.
         11    1    4    4    0    0 -0.13828753371E+02 -0.12393669696E+02  0.79819505633E+01  0.20212595161E+02  0.00000000000E+00 0. -1.
        -12    1    4    4    0    0 -0.22737718514E+02  0.68155020642E+02 -0.60582130588E+02  0.93980344905E+02  0.00000000000E+00 0.  1.
<mgrwt>
<rscale>  2 0.19245495E+03</rscale>
<asrwt>0</asrwt>
<pdfrwt beam="1">  1       21 0.19136507E-01 0.19416705E+03</pdfrwt>
<pdfrwt beam="2">  1       21 0.54096420E-01 0.19416705E+03</pdfrwt>
<totfact> 0.80910801E+04</totfact>
</mgrwt>
</event>
<event>
11    1  0.1039378E-001  0.2105091E+03  0.7546771E-02  0.1141240E+00
         21   -1    0    0  503  502  0.00000000000E+00  0.00000000000E+00  0.72363827405E+02  0.72363827405E+02  0.00000000000E+00 0. -1.
         21   -1    0    0  501  503 -0.00000000000E+00 -0.00000000000E+00 -0.94729398605E+03  0.94729398605E+03  0.00000000000E+00 0.  1.
          6    2    1    2  501    0 -0.30797065070E+02 -0.11522297441E+03 -0.74085881191E+03  0.77007975057E+03  0.17299205183E+03 0.  0.
         24    2    3    3    0    0 -0.38491563650E+02  0.23558977102E+01 -0.27127325009E+03  0.28591378073E+03  0.81672290706E+02 0.  0.
         -6    2    1    2    0  502  0.30797065070E+02  0.11522297441E+03 -0.13407134674E+03  0.24957806289E+03  0.17346264846E+03 0.  0.
          5    1    3    3  501    0  0.76944985807E+01 -0.11757887212E+03 -0.46958556182E+03  0.48416596984E+03  0.47000000000E+01 0. -1.
        -13    1    4    4    0    0 -0.51432361113E+02  0.12433928750E+02 -0.26154443146E+03  0.26684336226E+03  0.00000000000E+00 0.  1.
         14    1    4    4    0    0  0.12940797462E+02 -0.10078031039E+02 -0.97288186275E+01  0.19070418466E+02  0.00000000000E+00 0. -1.
         -5    1    5    5    0  502  0.33958012985E+02 -0.15401705360E+02 -0.20960967318E+02  0.43032677407E+02  0.47000000000E+01 0.  1.
         11    1    5    5    0    0  0.18496296380E+02  0.75792952627E+02  0.10910957697E+01  0.78024836672E+02  0.00000000000E+00 0. -1.
        -12    1    5    5    0    0 -0.21657244295E+02  0.54831727145E+02 -0.11420147519E+03  0.12852054881E+03  0.00000000000E+00 0.  1.
<mgrwt>
<rscale>  2 0.21041214E+03</rscale>
<asrwt>0</asrwt>
<pdfrwt beam="1">  1       21 0.11132897E-01 0.21050911E+03</pdfrwt>
<pdfrwt beam="2">  1       21 0.14573753E+00 0.21050911E+03</pdfrwt>
<totfact> 0.21375814E+04</totfact>
</mgrwt>
</event>
<event>
12    1  0.1039378E-001  0.2013477E+03  0.7546771E-02  0.1148624E+00
         21   -1    0    0  501  502  0.00000000000E+00  0.00000000000E+00  0.10348160402E+03  0.10348160402E+03  0.00000000000E+00 0.  1.
         21   -1    0    0  502  503 -0.00000000000E+00 -0.00000000000E+00 -0.39918346549E+03  0.39918346549E+03  0.00000000000E+00 0.  1.
         -6    2    1    2    0  503  0.66747430972E+02  0.79129133912E+02 -0.11319210364E+03  0.23091018976E+03  0.17259902674E+03 0.  0.
        -24    2    3    3    0    0  0.25439186505E+02  0.10799483334E+03 -0.41407831944E+02  0.14307698802E+03  0.80289349960E+02 0.  0.
          6    2    1    2  501    0 -0.66747430972E+02 -0.79129133912E+02 -0.18250975783E+03  0.27175487976E+03  0.17269702832E+03 0.  0.
         24    2    5    5    0    0  0.24476477986E+02 -0.54236354091E+02 -0.57632419818E+02  0.11504530250E+03  0.79832610719E+02 0.  0.
          5    1    5    5  501    0 -0.91223908959E+02 -0.24892779820E+02 -0.12487733802E+03  0.15670957725E+03  0.47000000000E+01 0. -1.
        -11    1    6    6    0    0 -0.29131698370E+02 -0.21076289070E+02 -0.26976131943E+02  0.44950834314E+02  0.00000000000E+00 0.  1.
         12    1    6    6    0    0  0.53608176357E+02 -0.33160065021E+02 -0.30656287875E+02  0.70094468190E+02  0.00000000000E+00 0. -1.
         -5    1    3    3    0  503  0.41308244467E+02 -0.28865699428E+02 -0.71784271695E+02  0.87833201736E+02  0.47000000000E+01 0.  1.
         11    1    4    4    0    0  0.42451837784E+02  0.20888881503E+02 -0.67216559214E+01  0.47787912279E+02  0.00000000000E+00 0. -1.
        -12    1    4    4    0    0 -0.17012651279E+02  0.87105951837E+02 -0.34686176023E+02  0.95289075743E+02  0.00000000000E+00 0.  1.
<mgrwt>
<rscale>  2 0.20132670E+03</rscale>
<asrwt>0</asrwt>
<pdfrwt beam="1">  1       21 0.15920247E-01 0.20134772E+03</pdfrwt>
<pdfrwt beam="2">  1       21 0.61412841E-01 0.20134772E+03</pdfrwt>
<totfact> 0.86405948E+04</totfact>
</mgrwt>
</event>
<event>
12    1  0.1039378E-001  0.1757957E+03  0.7546771E-02  0.1174478E+00
         21   -1    0    0  503  502  0.00000000000E+00  0.00000000000E+00  0.55165570634E+03  0.55165570634E+03  0.00000000000E+00 0. -1.
         21   -1    0    0  501  503 -0.00000000000E+00 -0.00000000000E+00 -0.53697695586E+02  0.53697695586E+02  0.00000000000E+00 0. -1.
          6    2    1    2  501    0  0.30680258926E+02  0.35264114212E+01  0.21958588772E+03  0.28128646939E+03  0.17306184419E+03 0.  0.
         24    2    3    3    0    0 -0.13911161924E+02 -0.47641350517E+02  0.17761030652E+03  0.20134540303E+03  0.80816654429E+02 0.  0.
         -6    2    1    2    0  502 -0.30680258926E+02 -0.35264114212E+01  0.27837212303E+03  0.32406693253E+03  0.16301725065E+03 0.  0.
        -24    2    5    5    0    0 -0.60740818394E+02  0.40477490528E+02  0.17264436813E+03  0.20557461725E+03  0.84421390371E+02 0.  0.
          5    1    3    3  501    0  0.44591420849E+02  0.51167761939E+02  0.41975581196E+02  0.79941066367E+02  0.47000000000E+01 0. -1.
        -13    1    4    4    0    0  0.51070612226E+01 -0.25556232794E+02  0.53093764055E+01  0.26596852948E+02  0.00000000000E+00 0.  1.
         14    1    4    4    0    0 -0.19018223146E+02 -0.22085117724E+02  0.17230093011E+03  0.17474855008E+03  0.00000000000E+00 0. -1.
         -5    1    5    5    0  502  0.30060559468E+02 -0.44003901949E+02  0.10572775491E+03  0.11849231528E+03  0.47000000000E+01 0.  1.
         11    1    6    6    0    0  0.14975506424E+02 -0.12236066460E+02  0.30560145169E+02  0.36165032668E+02  0.00000000000E+00 0. -1.
        -12    1    6    6    0    0 -0.75716324818E+02  0.52713556988E+02  0.14208422296E+03  0.16940958458E+03  0.00000000000E+00 0.  1.
<mgrwt>
<rscale>  2 0.17327209E+03</rscale>
<asrwt>0</asrwt>
<pdfrwt beam="1">  1       21 0.84870105E-01 0.17579566E+03</pdfrwt>
<pdfrwt beam="2">  1       21 0.82611843E-02 0.17579566E+03</pdfrwt>
<totfact> 0.13727260E+05</totfact>
</mgrwt>
</event>
<event>
12    1  0.1039378E-001  0.1788283E+03  0.7546771E-02  0.1170310E+00
         21   -1    0    0  501  502  0.00000000000E+00  0.00000000000E+00  0.56012079804E+02  0.56012079804E+02  0.00000000000E+00 0. -1.
         21   -1    0    0  502  503 -0.00000000000E+00 -0.00000000000E+00 -0.15195760917E+04  0.15195760917E+04  0.00000000000E+00 0. -1.
         -6    2    1    2    0  503 -0.72218508097E+01 -0.28895554202E+02 -0.13557300430E+04  0.13667635038E+04  0.17073786269E+03 0.  0.
        -24    2    3    3    0    0 -0.48371363055E+02  0.20531723269E+02 -0.10929362829E+04  0.10961734293E+04  0.65765706097E+02 0.  0.
          6    2    1    2  501    0  0.72218508097E+01  0.28895554202E+02 -0.10783396893E+03  0.20882466770E+03  0.17633056684E+03 0.  0.
         24    2    5    5    0    0 -0.37904503101E+02  0.70921561427E+02 -0.50545714245E+02  0.12452397241E+03  0.80527829018E+02 0.  0.
          5    1    5    5  501    0  0.45126353911E+02 -0.42026007225E+02 -0.57288254685E+02  0.84300695285E+02  0.47000000000E+01 0. -1.
        -13    1    6    6    0    0 -0.44988478117E+02  0.12030286744E+02 -0.45314969625E+02  0.64977976534E+02  0.00000000000E+00 0.  1.
         14    1    6    6    0    0  0.70839750157E+01  0.58891274684E+02 -0.52307446201E+01  0.59545995879E+02  0.00000000000E+00 0. -1.
         -5    1    3    3    0  503  0.41149512245E+02 -0.49427277472E+02 -0.26279376001E+03  0.27059007450E+03  0.47000000000E+01 0.  1.
         13    1    4    4    0    0  0.67683675747E+01  0.82150931844E+01 -0.58629824274E+03  0.58639485673E+03  0.00000000000E+00 0. -1.
        -14    1    4    4    0    0 -0.55139730630E+02  0.12316630085E+02 -0.50663804020E+03  0.50977857257E+03  0.00000000000E+00 0.  1.
<mgrwt>
<rscale>  2 0.17743410E+03</rscale>
<asrwt>0</asrwt>
<pdfrwt beam="1">  1       21 0.86172428E-02 0.17882835E+03</pdfrwt>
<pdfrwt beam="2">  1       21 0.23378094E+00 0.17882835E+03</pdfrwt>
<totfact> 0.88642910E+03</totfact>
</mgrwt>
</event>
<event>
12    1  0.1039378E-001  0.2601370E+03  0.7546771E-02  0.1107278E+00
         21   -1    0    0  501  502  0.00000000000E+00  0.00000000000E+00  0.28454494021E+03  0.28454494021E+03  0.00000000000E+00 0. -1.
         21   -1    0    0  502  503 -0.00000000000E+00 -0.00000000000E+00 -0.42012118090E+03  0.42012118090E+03  0.00000000000E+00 0. -1.
         -6    2    1    2    0  503  0.31077566818E+02 -0.19131959828E+03 -0.30060857704E+03  0.39659645318E+03  0.17133075101E+03 0.  0.
        -24    2    3    3    0    0  0.62045881106E+02 -0.17246457733E+03 -0.17524462733E+03  0.26601024337E+03  0.80355761322E+02 0.  0.
          6    2    1    2  501    0 -0.31077566818E+02  0.19131959828E+03  0.16503233634E+03  0.30806966793E+03  0.17349998390E+03 0.  0.
         24    2    5    5    0    0 -0.69358709059E+02  0.90487690815E+02  0.53301924185E+02  0.15270463192E+03  0.86480961926E+02 0.  0.
          5    1    5    5  501    0  0.38281142241E+02  0.10083190747E+03  0.11173041216E+03  0.15536503602E+03  0.47000000000E+01 0. -1.
        -11    1    6    6    0    0 -0.71392779705E+02  0.10366714218E+03  0.57964708929E+02  0.13857746153E+03  0.00000000000E+00 0.  1.
         12    1    6    6    0    0  0.20340706452E+01 -0.13179451365E+02 -0.46627847443E+01  0.14127170391E+02  0.00000000000E+00 0. -1.
         -5    1    3    3    0  503 -0.30968314288E+02 -0.18855020957E+02 -0.12536394971E+03  0.13058620981E+03  0.47000000000E+01 0.  1.
         11    1    4    4    0    0  0.54666033871E+02 -0.16920153505E+03 -0.18275691719E+03  0.25498553979E+03  0.00000000000E+00 0. -1.
        -12    1    4    4    0    0  0.73798472350E+01 -0.32630422795E+01  0.75122898617E+01  0.11024703583E+02  0.00000000000E+00 0.  1.
<mgrwt>
<rscale>  2 0.25977579E+03</rscale>
<asrwt>0</asrwt>
<pdfrwt beam="1">  1       21 0.43776145E-01 0.26013698E+03</pdfrwt>
<pdfrwt beam="2">  1       21 0.64634027E-01 0.26013698E+03</pdfrwt>
<totfact> 0.10621983E+04</totfact>
</mgrwt>
</event>
<event>
12    1  0.1039378E-001  0.3070532E+03  0.7546771E-02  0.1081777E+00
         21   -1    0    0  503  502  0.00000000000E+00  0.00000000000E+00  0.68496496399E+03  0.68496496399E+03  0.00000000000E+00 0.  1.
         21   -1    0    0  501  503 -0.00000000000E+00 -0.00000000000E+00 -0.30578324926E+03  0.30578324926E+03  0.00000000000E+00 0. -1.
          6    2    1    2  501    0 -0.31173036860E+02 -0.25156772147E+03 -0.17777268782E+03  0.35480244257E+03  0.17327310237E+03 0.  0.
         24    2    3    3    0    0  0.34729908421E+02 -0.18040670881E+03 -0.16249865314E+03  0.25650455829E+03  0.75073490833E+02 0.  0.
         -6    2    1    2    0  502  0.31173036860E+02  0.25156772147E+03  0.55695440256E+03  0.63594577068E+03  0.17312059382E+03 0.  0.
        -24    2    5    5    0    0 -0.15777904553E+02  0.21427943922E+03  0.51106577947E+03  0.56029748833E+03  0.81119813524E+02 0.  0.
          5    1    3    3  501    0 -0.65902945281E+02 -0.71161012655E+02 -0.15274034682E+02  0.98297884282E+02  0.47000000000E+01 0. -1.
        -11    1    4    4    0    0  0.11398653136E+02 -0.23252915736E+02 -0.65316032762E+02  0.70262447433E+02  0.00000000000E+00 0.  1.
         12    1    4    4    0    0  0.23331255285E+02 -0.15715379308E+03 -0.97182620379E+02  0.18624211086E+03  0.00000000000E+00 0. -1.
         -5    1    5    5    0  502  0.46950941413E+02  0.37288282254E+02  0.45888623088E+02  0.75648282346E+02  0.47000000000E+01 0.  1.
         11    1    6    6    0    0 -0.54431141594E+01 -0.62316161947E+01  0.11868322003E+02  0.14467812527E+02  0.00000000000E+00 0. -1.
        -12    1    6    6    0    0 -0.10334790393E+02  0.22051105541E+03  0.49919745746E+03  0.54582967581E+03  0.00000000000E+00 0.  1.
<mgrwt>
<rscale>  2 0.30703165E+03</rscale>
<asrwt>0</asrwt>
<pdfrwt beam="1">  1       21 0.10537922E+00 0.30705316E+03</pdfrwt>
<pdfrwt beam="2">  1       21 0.47043577E-01 0.30705316E+03</pdfrwt>
<totfact> 0.28942064E+03</totfact>
</mgrwt>
</event>
<event>
12    1  0.1039378E-001  0.2447308E+03  0.7546771E-02  0.1118266E+00
         21   -1    0    0  503  502  0.00000000000E+00  0.00000000000E+00  0.10367388028E+04  0.10367388028E+04  0.00000000000E+00 0.  1.
         21   -1    0    0  501  503 -0.00000000000E+00 -0.00000000000E+00 -0.84638147164E+02  0.84638147164E+02  0.00000000000E+00 0. -1.
          6    2    1    2  501    0 -0.40497288062E+01  0.15988248897E+03  0.14110143727E+03  0.27425659934E+03  0.17241883917E+03 0.  0.
         24    2    3    3    0    0 -0.59877311807E+02  0.76211075977E+02  0.11418207012E+03  0.17002432649E+03  0.80481711533E+02 0.  0.
         -6    2    1    2    0  502  0.40497288062E+01 -0.15988248897E+03  0.81099921838E+03  0.84712035063E+03  0.18524131736E+03 0.  0.
        -24    2    5    5    0    0 -0.19885541762E+02 -0.29665079066E+02  0.14674716203E+03  0.16978560667E+03  0.77569136772E+02 0.  0.
          5    1    3    3  501    0  0.55827583001E+02  0.83671412994E+02  0.26919367149E+02  0.10423227285E+03  0.47000000000E+01 0. -1.
        -11    1    4    4    0    0  0.13242559802E+02  0.13876465015E+02  0.52377658327E+02  0.55779393715E+02  0.00000000000E+00 0.  1.
         12    1    4    4    0    0 -0.73119871609E+02  0.62334610963E+02  0.61804411790E+02  0.11424493277E+03  0.00000000000E+00 0. -1.
         -5    1    5    5    0  502  0.23935270568E+02 -0.13021740991E+03  0.66425205635E+03  0.67733474397E+03  0.47000000000E+01 0.  1.
         11    1    6    6    0    0 -0.21093655979E+02 -0.41319657743E+02  0.15049534839E+03  0.15748367003E+03  0.00000000000E+00 0. -1.
        -12    1    6    6    0    0  0.12081142171E+01  0.11654578677E+02 -0.37481863566E+01  0.12301936639E+02  0.00000000000E+00 0.  1.
<mgrwt>
<rscale>  2 0.24230592E+03</rscale>
<asrwt>0</asrwt>
<pdfrwt beam="1">  1       21 0.15949827E+00 0.24473078E+03</pdfrwt>
<pdfrwt beam="2">  1       21 0.13021254E-01 0.24473078E+03</pdfrwt>
<totfact> 0.12416569E+04</totfact>
</mgrwt>
</event>
<event>
12    1  0.1039378E-001  0.1770797E+03  0.7546771E-02  0.1170745E+00
         21   -1    0    0  503  502  0.00000000000E+00  0.00000000000E+00  0.52541999913E+02  0.52541999913E+02  0.00000000000E+00 0. -1.
         21   -1    0    0  501  503 -0.00000000000E+00 -0.00000000000E+00 -0.13329745728E+04  0.13329745728E+04  0.00000000000E+00 0. -1.
          6    2    1    2  501    0 -0.29337912262E+02 -0.23465188265E+02 -0.11557234137E+04  0.11692107656E+04  0.17304877143E+03 0.  0.
         24    2    3    3    0    0  0.18763981792E+02  0.17964120034E+02 -0.31247609859E+03  0.32356408748E+03  0.79859939237E+02 0.  0.
         -6    2    1    2    0  502  0.29337912262E+02  0.23465188265E+02 -0.12470915923E+03  0.21630580714E+03  0.17269771177E+03 0.  0.
        -24    2    5    5    0    0  0.78604592555E+02  0.37599874036E+02 -0.58033575668E+02  0.13207565475E+03  0.80521116326E+02 0.  0.
          5    1    3    3  501    0 -0.48101894054E+02 -0.41429308299E+02 -0.84324731511E+03  0.84564667813E+03  0.47000000000E+01 0. -1.
        -11    1    4    4    0    0  0.10673807997E+02  0.27912095921E+01 -0.42636440609E+00  0.11040960771E+02  0.00000000000E+00 0.  1.
         12    1    4    4    0    0  0.80901737950E+01  0.15172910442E+02 -0.31204973418E+03  0.31252312671E+03  0.00000000000E+00 0. -1.
         -5    1    5    5    0  502 -0.49266680293E+02 -0.14134685771E+02 -0.66675583563E+02  0.84230152395E+02  0.47000000000E+01 0.  1.
         13    1    6    6    0    0  0.11119404466E+02  0.28594142966E+02  0.13324356593E+02  0.33448537281E+02  0.00000000000E+00 0. -1.
        -14    1    6    6    0    0  0.67485188089E+02  0.90057310704E+01 -0.71357932261E+02  0.98627117468E+02  0.00000000000E+00 0.  1.
<mgrwt>
<rscale>  2 0.17699383E+03</rscale>
<asrwt>0</asrwt>
<pdfrwt beam="1">  1       21 0.80833844E-02 0.17707966E+03</pdfrwt>
<pdfrwt beam="2">  1       21 0.20507302E+00 0.17707966E+03</pdfrwt>
<totfact> 0.14878629E+04</totfact>
</mgrwt>
</event>
<event>
12    1  0.1039378E-001  0.2196478E+03  0.7546771E-02  0.1134401E+00
         21   -1    0    0  503  502  0.00000000000E+00  0.00000000000E+00  0.10749547348E+03  0.10749547348E+03  0.00000000000E+00 0.  1.
         21   -1    0    0  501  503 -0.00000000000E+00 -0.00000000000E+00 -0.46118696041E+03  0.46118696041E+03  0.00000000000E+00 0.  1.
          6    2    1    2  501    0  0.10629595102E+03 -0.82748352807E+02 -0.22785874171E+03  0.31554404125E+03  0.17176238442E+03 0.  0.
         24    2    3    3    0    0  0.75442632640E+02  0.49871951666E+01 -0.65749484555E+02  0.12859229644E+03  0.80600999056E+02 0.  0.
         -6    2    1    2    0  502 -0.10629595102E+03  0.82748352807E+02 -0.12583274522E+03  0.25313839263E+03  0.17349076909E+03 0.  0.
        -24    2    5    5    0    0 -0.96137233072E+01  0.18693854318E+02 -0.60289718593E+01  0.86328722518E+02  0.83512968843E+02 0.  0.
          5    1    3    3  501    0  0.30853318376E+02 -0.87735547974E+02 -0.16210925715E+03  0.18695174481E+03  0.47000000000E+01 0. -1.
        -11    1    4    4    0    0  0.92866035171E+02  0.24156172254E+01 -0.55602926003E+02  0.10826643559E+03  0.00000000000E+00 0.  1.
         12    1    4    4    0    0 -0.17423402531E+02  0.25715779412E+01 -0.10146558552E+02  0.20325860850E+02  0.00000000000E+00 0. -1.
         -5    1    5    5    0  502 -0.96682227709E+02  0.64054498490E+02 -0.11980377336E+03  0.16680967011E+03  0.47000000000E+01 0.  1.
         11    1    6    6    0    0 -0.38891276771E+02 -0.14087279921E+02 -0.87989399651E+01  0.42289528361E+02  0.00000000000E+00 0. -1.
        -12    1    6    6    0    0  0.29277553464E+02  0.32781134238E+02  0.27699681059E+01  0.44039194158E+02  0.00000000000E+00 0.  1.
<mgrwt>
<rscale>  2 0.21930638E+03</rscale>
<asrwt>0</asrwt>
<pdfrwt beam="1">  1       21 0.16537765E-01 0.21964782E+03</pdfrwt>
<pdfrwt beam="2">  1       21 0.70951840E-01 0.21964782E+03</pdfrwt>
<totfact> 0.58288181E+04</totfact>
</mgrwt>
</event>
<event>
12    1  0.1039378E-001  0.2473000E+03  0.7546771E-02  0.1115297E+00
         21   -1    0    0  503  502  0.00000000000E+00  0.00000000000E+00  0.39508305539E+03  0.39508305539E+03  0.00000000000E+00 0.  1.
         21   -1    0    0  501  503 -0.00000000000E+00 -0.00000000000E+00 -0.42873055559E+03  0.42873055559E+03  0.00000000000E+00 0. -1.
          6    2    1    2  501    0 -0.13800163765E+03  0.10921342755E+03  0.31304707549E+03  0.39894331735E+03  0.17373909816E+03 0.  0.
         24    2    3    3    0    0 -0.45363344486E+02  0.33434527217E+02  0.24848282463E+03  0.26287374843E+03  0.64677606976E+02 0.  0.
         -6    2    1    2    0  502  0.13800163765E+03 -0.10921342755E+03 -0.34669457570E+03  0.42487029363E+03  0.17130561241E+03 0.  0.
        -24    2    5    5    0    0  0.14794849342E+03 -0.10682011307E+03 -0.21738494274E+03  0.29507145284E+03  0.80694830647E+02 0.  0.
          5    1    3    3  501    0 -0.92638293165E+02  0.75778900337E+02  0.64564250863E+02  0.13606956892E+03  0.47000000000E+01 0. -1.
        -13    1    4    4    0    0 -0.58763634901E+02  0.23717851036E+02  0.14739879597E+03  0.16044346761E+03  0.00000000000E+00 0.  1.
         14    1    4    4    0    0  0.13400290415E+02  0.97166761811E+01  0.10108402865E+03  0.10243028082E+03  0.00000000000E+00 0. -1.
         -5    1    5    5    0  502 -0.99468557733E+01 -0.23933144875E+01 -0.12930963296E+03  0.12979884079E+03  0.47000000000E+01 0.  1.
         11    1    6    6    0    0  0.62033620514E+02 -0.30388225085E+02 -0.14102824959E+03  0.15703687936E+03  0.00000000000E+00 0. -1.
        -12    1    6    6    0    0  0.85914872910E+02 -0.76431887982E+02 -0.76356693146E+02  0.13803457348E+03  0.00000000000E+00 0.  1.
<mgrwt>
<rscale>  2 0.24687303E+03</rscale>
<asrwt>0</asrwt>
<pdfrwt beam="1">  1       21 0.60782008E-01 0.24730002E+03</pdfrwt>
<pdfrwt beam="2">  1       21 0.65958547E-01 0.24730002E+03</pdfrwt>
<totfact> 0.51193695E+03</totfact>
</mgrwt>
</event>
<event>
12    1  0.1039378E-001  0.2247298E+03  0.7546771E-02  0.1130872E+00
         21   -1    0    0  501  502  0.00000000000E+00  0.00000000000E+00  0.45527183183E+03  0.45527183183E+03  0.00000000000E+00 0. -1.
         21   -1    0    0  502  503 -0.00000000000E+00 -0.00000000000E+00 -0.14463209163E+03  0.14463209163E+03  0.00000000000E+00 0. -1.
         -6    2    1    2    0  503 -0.14413101425E+03 -0.72460721996E+01  0.71728385058E+01  0.22228555185E+03  0.16891761932E+03 0.  0.
        -24    2    3    3    0    0 -0.80346135654E+02  0.49344188866E+02  0.42865742642E+02  0.12972723623E+03  0.78111032755E+02 0.  0.
          6    2    1    2  501    0  0.14413101425E+03  0.72460721996E+01  0.30346690169E+03  0.37761837161E+03  0.17227077327E+03 0.  0.
         24    2    5    5    0    0  0.15195710327E+03 -0.33836986006E+02  0.19936311372E+03  0.26532966331E+03  0.80114145235E+02 0.  0.
          5    1    5    5  501    0 -0.78260890160E+01  0.41083058206E+02  0.10410378798E+03  0.11228870830E+03  0.47000000000E+01 0. -1.
        -13    1    6    6    0    0  0.32649707723E+02 -0.44497112529E+02  0.67302424329E+02  0.87037996062E+02  0.00000000000E+00 0.  1.
         14    1    6    6    0    0  0.11930739555E+03  0.10660126523E+02  0.13206068939E+03  0.17829166725E+03  0.00000000000E+00 0. -1.
         -5    1    3    3    0  503 -0.63784878600E+02 -0.56590261066E+02 -0.35692904136E+02  0.92558315624E+02  0.47000000000E+01 0.  1.
         11    1    4    4    0    0 -0.57637850381E+02 -0.88475219903E+01  0.31360896343E+02  0.66211073556E+02  0.00000000000E+00 0. -1.
        -12    1    4    4    0    0 -0.22708285273E+02  0.58191710857E+02  0.11504846299E+02  0.63516162674E+02  0.00000000000E+00 0.  1.
<mgrwt>
<rscale>  2 0.22408703E+03</rscale>
<asrwt>0</asrwt>
<pdfrwt beam="1">  1       21 0.70041820E-01 0.22472978E+03</pdfrwt>
<pdfrwt beam="2">  1       21 0.22251091E-01 0.22472978E+03</pdfrwt>
<totfact> 0.34386760E+04</totfact>
</mgrwt>
</event>
<event>
12    1  0.1039378E-001  0.1857463E+03  0.7546771E-02  0.1162561E+00
         21   -1    0    0  501  502  0.00000000000E+00  0.00000000000E+00  0.10177391956E+04  0.10177391956E+04  0.00000000000E+00 0.  1.
         21   -1    0    0  502  503 -0.00000000000E+00 -0.00000000000E+00 -0.53183558489E+02  0.53183558489E+02  0.00000000000E+00 0.  1.
         -6    2    1    2    0  503  0.38416719140E+02  0.55990481517E+02  0.15923625067E+03  0.24465869744E+03  0.17288989668E+03 0.  0.
        -24    2    3    3    0    0 -0.68478643318E+01 -0.22305297428E+02  0.11693350522E+03  0.14470508925E+03  0.81985966315E+02 0.  0.
          6    2    1    2  501    0 -0.38416719140E+02 -0.55990481517E+02  0.80531938640E+03  0.82626405661E+03  0.17193661275E+03 0.  0.
         24    2    5    5    0    0 -0.49840088854E+02  0.27414759441E+02  0.49761479335E+03  0.50721682785E+03  0.80080112398E+02 0.  0.
          5    1    5    5  501    0  0.11423369713E+02 -0.83405240957E+02  0.30770459305E+03  0.31904722876E+03  0.47000000000E+01 0. -1.
        -13    1    6    6    0    0  0.53546796159E+01  0.16058202726E+02  0.32899616995E+03  0.32943135599E+03  0.00000000000E+00 0.  1.
         14    1    6    6    0    0 -0.55194768470E+02  0.11356556714E+02  0.16861862340E+03  0.17778547186E+03  0.00000000000E+00 0. -1.
         -5    1    3    3    0  503  0.45264583472E+02  0.78295778945E+02  0.42302745454E+02  0.99953608191E+02  0.47000000000E+01 0.  1.
         13    1    4    4    0    0  0.12591870763E+02 -0.86740606086E+01  0.11981635385E+03  0.12078805067E+03  0.00000000000E+00 0. -1.
        -14    1    4    4    0    0 -0.19439735095E+02 -0.13631236819E+02 -0.28828486311E+01  0.23917038572E+02  0.00000000000E+00 0.  1.
<mgrwt>
<rscale>  2 0.18552418E+03</rscale>
<asrwt>0</asrwt>
<pdfrwt beam="1">  1       21 0.15657525E+00 0.18574632E+03</pdfrwt>
<pdfrwt beam="2">  1       21 0.81820867E-02 0.18574632E+03</pdfrwt>
<totfact> 0.30915607E+04</totfact>
</mgrwt>
</event>
<event>
12    1  0.1039378E-001  0.2061679E+03  0.7546771E-02  0.1147249E+00
         21   -1    0    0  503  502  0.00000000000E+00  0.00000000000E+00  0.19058149970E+03  0.19058149970E+03  0.00000000000E+00 0.  1.
         21   -1    0    0  501  503 -0.00000000000E+00 -0.00000000000E+00 -0.24178736818E+03  0.24178736818E+03  0.00000000000E+00 0. -1.
          6    2    1    2  501    0  0.70980141598E+00  0.11135466069E+03 -0.10356568067E+03  0.21965605177E+03  0.15850099871E+03 0.  0.
         24    2    3    3    0    0  0.17007099007E+02  0.45883064089E+01 -0.62809870715E+02  0.10412344875E+03  0.81156138078E+02 0.  0.
         -6    2    1    2    0  502 -0.70980141598E+00 -0.11135466069E+03  0.52359812192E+02  0.21271281611E+03  0.17350742903E+03 0.  0.
        -24    2    5    5    0    0 -0.18944694455E+02 -0.83629167485E+02 -0.31827262599E+02  0.12209952868E+03  0.80886223524E+02 0.  0.
          5    1    3    3  501    0 -0.16297297591E+02  0.10676635429E+03 -0.40755809957E+02  0.11553260302E+03  0.47000000000E+01 0. -1.
        -11    1    4    4    0    0 -0.29775401666E+02 -0.80879831935E+01 -0.99813365510E+01  0.32428646223E+02  0.00000000000E+00 0.  1.
         12    1    4    4    0    0  0.46782500673E+02  0.12676289602E+02 -0.52828534164E+02  0.71694802526E+02  0.00000000000E+00 0. -1.
         -5    1    5    5    0  502  0.18234893039E+02 -0.27725493210E+02  0.84187074791E+02  0.90613287435E+02  0.47000000000E+01 0.  1.
         11    1    6    6    0    0  0.31727463357E+02 -0.33475911979E+02 -0.17797018620E+02  0.49436853517E+02  0.00000000000E+00 0. -1.
        -12    1    6    6    0    0 -0.50672157811E+02 -0.50153255506E+02 -0.14030243979E+02  0.72662675159E+02  0.00000000000E+00 0.  1.
<mgrwt>
<rscale>  2 0.20297981E+03</rscale>
<asrwt>0</asrwt>
<pdfrwt beam="1">  1       21 0.29320231E-01 0.20616787E+03</pdfrwt>
<pdfrwt beam="2">  1       21 0.37198057E-01 0.20616787E+03</pdfrwt>
<totfact> 0.77210114E+04</totfact>
</mgrwt>
</event>
<event>
12    1  0.1039378E-001  0.2204002E+03  0.7546771E-02  0.1134620E+00
         21   -1    0    0  503  502  0.00000000000E+00  0.00000000000E+00  0.25471222295E+03  0.25471222295E+03  0.00000000000E+00 0.  1.
         21   -1    0    0  501  503 -0.00000000000E+00 -0.00000000000E+00 -0.55942083553E+03  0.55942083553E+03  0.00000000000E+00 0. -1.
          6    2    1    2  501    0  0.12472364804E+03  0.53574949090E+02 -0.48429119594E+03  0.52983362685E+03  0.16661166265E+03 0.  0.
         24    2    3    3    0    0  0.98724738044E+02  0.35890771767E+02 -0.47992574958E+03  0.49774280931E+03  0.79902801602E+02 0.  0.
         -6    2    1    2    0  502 -0.12472364804E+03 -0.53574949090E+02  0.17958258336E+03  0.28429943163E+03  0.17363755075E+03 0.  0.
        -24    2    5    5    0    0 -0.48324899515E+02 -0.53805688215E+02  0.17695638805E+03  0.20771086252E+03  0.81239714038E+02 0.  0.
          5    1    3    3  501    0  0.25998910000E+02  0.17684177323E+02 -0.43654463516E+01  0.32090817544E+02  0.47000000000E+01 0. -1.
        -13    1    4    4    0    0 -0.72539677640E+01 -0.85614294379E+00 -0.31578536662E+01  0.79577049982E+01  0.00000000000E+00 0.  1.
         14    1    4    4    0    0  0.10597870581E+03  0.36746914711E+02 -0.47676789592E+03  0.48978510431E+03  0.00000000000E+00 0. -1.
         -5    1    5    5    0  502 -0.76398748529E+02  0.23073912505E+00  0.26261953017E+01  0.76588569115E+02  0.47000000000E+01 0.  1.
         13    1    6    6    0    0  0.16297118239E+02 -0.38791038528E+02  0.76893235769E+02  0.87652212978E+02  0.00000000000E+00 0. -1.
        -14    1    6    6    0    0 -0.64622017754E+02 -0.15014649687E+02  0.10006315229E+03  0.12005864954E+03  0.00000000000E+00 0.  1.
<mgrwt>
<rscale>  2 0.21901431E+03</rscale>
<asrwt>0</asrwt>
<pdfrwt beam="1">  1       21 0.39186496E-01 0.22040023E+03</pdfrwt>
<pdfrwt beam="2">  1       21 0.86064743E-01 0.22040023E+03</pdfrwt>
<totfact> 0.71684896E+03</totfact>
</mgrwt>
</event>
<event>
12    1  0.1039378E-001  0.2602825E+03  0.7546771E-02  0.1107008E+00
         21   -1    0    0  503  502  0.00000000000E+00  0.00000000000E+00  0.40050392356E+03  0.40050392356E+03  0.00000000000E+00 0. -1.
         21   -1    0    0  501  503 -0.00000000000E+00 -0.00000000000E+00 -0.22067110979E+03  0.22067110979E+03  0.00000000000E+00 0.  1.
          6    2    1    2  501    0 -0.12265356611E+03 -0.15081396318E+03 -0.60395838834E+02  0.26697621132E+03  0.17274226840E+03 0.  0.
         24    2    3    3    0    0 -0.13620766723E+03 -0.16160858232E+03 -0.80118304016E+02  0.24030594524E+03  0.81597439846E+02 0.  0.
         -6    2    1    2    0  502  0.12265356611E+03  0.15081396318E+03  0.24022865259E+03  0.35419882203E+03  0.17308452049E+03 0.  0.
        -24    2    5    5    0    0  0.31688696847E+02  0.46127508152E+01  0.92865917553E+02  0.12751122287E+03  0.81299337860E+02 0.  0.
          5    1    3    3  501    0  0.13554101115E+02  0.10794619149E+02  0.19722465182E+02  0.26670266074E+02  0.47000000000E+01 0. -1.
        -11    1    4    4    0    0 -0.70257355224E+02 -0.25263994294E+02 -0.33531846218E+02  0.81845892271E+02  0.00000000000E+00 0.  1.
         12    1    4    4    0    0 -0.65950312002E+02 -0.13634458803E+03 -0.46586457798E+02  0.15846005297E+03  0.00000000000E+00 0. -1.
         -5    1    5    5    0  502  0.90964869264E+02  0.14620121236E+03  0.14736273504E+03  0.22668759916E+03  0.47000000000E+01 0.  1.
         13    1    6    6    0    0 -0.14691083538E+02  0.28274998237E+02  0.53372546300E+02  0.62160535386E+02  0.00000000000E+00 0. -1.
        -14    1    6    6    0    0  0.46379780384E+02 -0.23662247422E+02  0.39493371253E+02  0.65350687483E+02  0.00000000000E+00 0.  1.
<mgrwt>
<rscale>  2 0.26022565E+03</rscale>
<asrwt>0</asrwt>
<pdfrwt beam="1">  1       21 0.61615988E-01 0.26028254E+03</pdfrwt>
<pdfrwt beam="2">  1       21 0.33949402E-01 0.26028254E+03</pdfrwt>
<totfact> 0.19727709E+04</totfact>
</mgrwt>
</event>
<event>
12    1  0.1039378E-001  0.2061550E+03  0.7546771E-02  0.1145333E+00
         21   -1    0    0  501  502  0.00000000000E+00  0.00000000000E+00  0.13194018549E+04  0.13194018549E+04  0.00000000000E+00 0.  1.
         21   -1    0    0  502  503 -0.00000000000E+00 -0.00000000000E+00 -0.83185437148E+02  0.83185437148E+02  0.00000000000E+00 0.  1.
         -6    2    1    2    0  503 -0.38775697171E+02 -0.10210594934E+03  0.64411148232E+02  0.21278584854E+03  0.17087961183E+03 0.  0.
        -24    2    3    3    0    0 -0.90228689396E+02 -0.84337122193E+02  0.50918689451E+02  0.15650727294E+03  0.81534330060E+02 0.  0.
          6    2    1    2  501    0  0.38775697171E+02  0.10210594934E+03  0.11718052695E+04  0.11898014435E+04  0.17484480468E+03 0.  0.
         24    2    5    5    0    0  0.14901681821E+02  0.92317725409E+02  0.11474936069E+04  0.11540393843E+04  0.79502831422E+02 0.  0.
          5    1    5    5  501    0  0.23874015350E+02  0.97882239289E+01  0.24311662638E+02  0.35762059180E+02  0.47000000000E+01 0. -1.
        -13    1    6    6    0    0  0.38912502291E+02  0.15042075608E+02  0.36834337559E+03  0.37069838038E+03  0.00000000000E+00 0.  1.
         14    1    6    6    0    0 -0.24010820470E+02  0.77275649800E+02  0.77915023128E+03  0.78334100394E+03  0.00000000000E+00 0. -1.
         -5    1    3    3    0  503  0.51452992225E+02 -0.17768827144E+02  0.13492458781E+02  0.56278575595E+02  0.47000000000E+01 0.  1.
         13    1    4    4    0    0 -0.39022345791E+02 -0.68123636767E+02  0.63926040305E+02  0.10124283672E+03  0.00000000000E+00 0. -1.
        -14    1    4    4    0    0 -0.51206343606E+02 -0.16213485426E+02 -0.13007350853E+02  0.55264436226E+02  0.00000000000E+00 0.  1.
<mgrwt>
<rscale>  2 0.20531182E+03</rscale>
<asrwt>0</asrwt>
<pdfrwt beam="1">  1       21 0.20298489E+00 0.20615500E+03</pdfrwt>
<pdfrwt beam="2">  1       21 0.12797761E-01 0.20615500E+03</pdfrwt>
<totfact> 0.66387126E+03</totfact>
</mgrwt>
</event>
<event>
12    1  0.1039378E-001  0.1992741E+03  0.7546771E-02  0.1150749E+00
         21   -1    0    0  503  502  0.00000000000E+00  0.00000000000E+00  0.27339726205E+02  0.27339726205E+02  0.00000000000E+00 0. -1.
         21   -1    0    0  501  503 -0.00000000000E+00 -0.00000000000E+00 -0.23559815397E+04  0.23559815397E+04  0.00000000000E+00 0.  1.
          6    2    1    2  501    0 -0.86713575961E+02 -0.49722102531E+02 -0.42419837734E+03  0.46867304247E+03  0.17239090946E+03 0.  0.
         24    2    3    3    0    0 -0.39120701595E+02 -0.98501930740E+01 -0.38531861101E+03  0.39526611443E+03  0.78341646838E+02 0.  0.
         -6    2    1    2    0  502  0.86713575961E+02  0.49722102531E+02 -0.19044434361E+04  0.19146482234E+04  0.17023949672E+03 0.  0.
        -24    2    5    5    0    0 -0.23008428970E+01  0.42993073292E+02 -0.57814752206E+03  0.58534322143E+03  0.80736803149E+02 0.  0.
          5    1    3    3  501    0 -0.47592874366E+02 -0.39871909457E+02 -0.38879766324E+02  0.73406928035E+02  0.47000000000E+01 0. -1.
        -13    1    4    4    0    0 -0.39580268210E+02 -0.32369701788E+02 -0.34754994346E+03  0.35129098825E+03  0.00000000000E+00 0.  1.
         14    1    4    4    0    0  0.45956661499E+00  0.22519508714E+02 -0.37768667550E+02  0.43975126181E+02  0.00000000000E+00 0. -1.
         -5    1    5    5    0  502  0.89014418858E+02  0.67290292393E+01 -0.13262959141E+04  0.13293050020E+04  0.47000000000E+01 0.  1.
         13    1    6    6    0    0 -0.68236726531E+01 -0.23156365943E+02 -0.11807997884E+03  0.12052245100E+03  0.00000000000E+00 0. -1.
        -14    1    6    6    0    0  0.45228297561E+01  0.66149439235E+02 -0.46006754322E+03  0.46482077043E+03  0.00000000000E+00 0.  1.
<mgrwt>
<rscale>  2 0.19880789E+03</rscale>
<asrwt>0</asrwt>
<pdfrwt beam="1">  1       21 0.42061116E-02 0.19927408E+03</pdfrwt>
<pdfrwt beam="2">  1       21 0.36245871E+00 0.19927408E+03</pdfrwt>
<totfact> 0.52676374E+03</totfact>
</mgrwt>
</event>
<event>
12    1  0.1039378E-001  0.2044251E+03  0.7546771E-02  0.1146294E+00
         21   -1    0    0  501  502  0.00000000000E+00  0.00000000000E+00  0.10079450638E+04  0.10079450638E+04  0.00000000000E+00 0.  1.
         21   -1    0    0  502  503 -0.00000000000E+00 -0.00000000000E+00 -0.42254303931E+02  0.42254303931E+02  0.00000000000E+00 0.  1.
         -6    2    1    2    0  503 -0.85813285291E+02  0.65419861603E+02  0.39968746038E+03  0.44841091295E+03  0.17227478818E+03 0.  0.
        -24    2    3    3    0    0 -0.73103563415E+02 -0.23373289248E+02  0.17491772647E+03  0.20635867902E+03  0.78084900841E+02 0.  0.
          6    2    1    2  501    0  0.85813285291E+02 -0.65419861603E+02  0.56600329946E+03  0.60178845475E+03  0.17362583635E+03 0.  0.
         24    2    5    5    0    0  0.40676942126E+00 -0.32500409356E+02  0.42517479857E+03  0.43376250452E+03  0.79497540319E+02 0.  0.
          5    1    5    5  501    0  0.85406515869E+02 -0.32919452246E+02  0.14082850089E+03  0.16802595024E+03  0.47000000000E+01 0. -1.
        -11    1    6    6    0    0  0.51308890601E+01 -0.54331680844E+02  0.19457282011E+03  0.20208127051E+03  0.00000000000E+00 0.  1.
         12    1    6    6    0    0 -0.47241196389E+01  0.21831271488E+02  0.23060197846E+03  0.23168123401E+03  0.00000000000E+00 0. -1.
         -5    1    3    3    0  503 -0.12709721875E+02  0.88793150851E+02  0.22476973392E+03  0.24205223394E+03  0.47000000000E+01 0.  1.
         11    1    4    4    0    0  0.64768811778E-01 -0.25418522025E+01  0.98487168374E+02  0.98519985495E+02  0.00000000000E+00 0. -1.
        -12    1    4    4    0    0 -0.73168332227E+02 -0.20831437045E+02  0.76430558091E+02  0.10783869352E+03  0.00000000000E+00 0.  1.
<mgrwt>
<rscale>  2 0.20413790E+03</rscale>
<asrwt>0</asrwt>
<pdfrwt beam="1">  1       21 0.15506845E+00 0.20442507E+03</pdfrwt>
<pdfrwt beam="2">  1       21 0.65006629E-02 0.20442507E+03</pdfrwt>
<totfact> 0.46721874E+04</totfact>
</mgrwt>
</event>
<event>
12    1  0.1039378E-001  0.1971204E+03  0.7546771E-02  0.1152818E+00
         21   -1    0    0  501  502  0.00000000000E+00  0.00000000000E+00  0.13799926160E+03  0.13799926160E+03  0.00000000000E+00 0. -1.
         21   -1    0    0  502  503 -0.00000000000E+00 -0.00000000000E+00 -0.50548555963E+03  0.50548555963E+03  0.00000000000E+00 0.  1.
         -6    2    1    2    0  503  0.85952249477E+02  0.22529680416E+01 -0.39909360525E+03  0.44384647628E+03  0.17415832940E+03 0.  0.
        -24    2    3    3    0    0  0.31445258940E+02 -0.44013479235E+02 -0.11236925385E+03  0.14830537957E+03  0.80259863775E+02 0.  0.
          6    2    1    2  501    0 -0.85952249477E+02 -0.22529680416E+01  0.31607307218E+02  0.19963834495E+03  0.17737976731E+03 0.  0.
         24    2    5    5    0    0 -0.11245219053E+03 -0.18780702744E+02 -0.17952767513E+02  0.14087012312E+03  0.80770537794E+02 0.  0.
          5    1    5    5  501    0  0.26499941054E+02  0.16527734703E+02  0.49560074731E+02  0.58768221835E+02  0.47000000000E+01 0. -1.
        -11    1    6    6    0    0 -0.81875383315E+01 -0.32726851185E+02 -0.10850192170E+02  0.35437398925E+02  0.00000000000E+00 0.  1.
         12    1    6    6    0    0 -0.10426465220E+03  0.13946148441E+02 -0.71025753431E+01  0.10543272420E+03  0.00000000000E+00 0. -1.
         -5    1    3    3    0  503  0.54506990537E+02  0.46266447277E+02 -0.28672435140E+03  0.29554109671E+03  0.47000000000E+01 0.  1.
         11    1    4    4    0    0  0.31449030488E+02 -0.36743992881E+01 -0.30839250933E+01  0.31812785523E+02  0.00000000000E+00 0. -1.
        -12    1    4    4    0    0 -0.37715478858E-02 -0.40339079947E+02 -0.10928532876E+03  0.11649259405E+03  0.00000000000E+00 0.  1.
<mgrwt>
<rscale>  2 0.19639293E+03</rscale>
<asrwt>0</asrwt>
<pdfrwt beam="1">  1       21 0.21230656E-01 0.19712039E+03</pdfrwt>
<pdfrwt beam="2">  1       21 0.77767009E-01 0.19712039E+03</pdfrwt>
<totfact> 0.30183145E+04</totfact>
</mgrwt>
</event>
<event>
12    1  0.1039378E-001  0.2121944E+03  0.7546771E-02  0.1139943E+00
         21   -1    0    0  501  502  0.00000000000E+00  0.00000000000E+00  0.27079561921E+03  0.27079561921E+03  0.00000000000E+00 0. -1.
         21   -1    0    0  502  503 -0.00000000000E+00 -0.00000000000E+00 -0.23399742474E+03  0.23399742474E+03  0.00000000000E+00 0. -1.
         -6    2    1    2    0  503  0.36679549345E+02 -0.11276477524E+03 -0.11781481232E+03  0.24224465535E+03  0.17533071370E+03 0.  0.
        -24    2    3    3    0    0 -0.34475275672E+02 -0.36814968526E+02 -0.97257836268E+02  0.13605585402E+03  0.80673553024E+02 0.  0.
          6    2    1    2  501    0 -0.36679549345E+02  0.11276477524E+03  0.15461300679E+03  0.26254838860E+03  0.17596928884E+03 0.  0.
         24    2    5    5    0    0  0.32399033907E+02  0.89597998413E+01  0.51843982787E+02  0.10089788327E+03  0.79765963203E+02 0.  0.
          5    1    5    5  501    0 -0.69078583252E+02  0.10380497540E+03  0.10276902400E+03  0.16165050533E+03  0.47000000000E+01 0. -1.
        -11    1    6    6    0    0  0.36605295159E+02  0.30661282459E+02  0.36658177863E+01  0.47890501101E+02  0.00000000000E+00 0.  1.
         12    1    6    6    0    0 -0.42062612518E+01 -0.21701482617E+02  0.48178165001E+02  0.53007382169E+02  0.00000000000E+00 0. -1.
         -5    1    3    3    0  503  0.71154825017E+02 -0.75949806711E+02 -0.20556976055E+02  0.10618880133E+03  0.47000000000E+01 0.  1.
         13    1    4    4    0    0  0.53237479111E+01 -0.51359396038E+02 -0.63730966800E+02  0.82022960093E+02  0.00000000000E+00 0. -1.
        -14    1    4    4    0    0 -0.39799023583E+02  0.14544427512E+02 -0.33526869468E+02  0.54032893928E+02  0.00000000000E+00 0.  1.
<mgrwt>
<rscale>  2 0.21206199E+03</rscale>
<asrwt>0</asrwt>
<pdfrwt beam="1">  1       21 0.41660865E-01 0.21219443E+03</pdfrwt>
<pdfrwt beam="2">  1       21 0.35999604E-01 0.21219443E+03</pdfrwt>
<totfact> 0.40868677E+04</totfact>
</mgrwt>
</event>
<event>
12    1  0.1039378E-001  0.1794937E+03  0.7546771E-02  0.1168710E+00
         21   -1    0    0  503  502  0.00000000000E+00  0.00000000000E+00  0.17434971261E+03  0.17434971261E+03  0.00000000000E+00 0.  1.
         21   -1    0    0  501  503 -0.00000000000E+00 -0.00000000000E+00 -0.24253100999E+03  0.24253100999E+03  0.00000000000E+00 0.  1.
          6    2    1    2  501    0  0.22396632710E+02  0.44558070002E+02 -0.13744873767E+03  0.22607555602E+03  0.17242671133E+03 0.  0.
         24    2    3    3    0    0  0.48914384251E+02  0.81852107148E+02 -0.12963426991E+03  0.17941516318E+03  0.79324475489E+02 0.  0.
         -6    2    1    2    0  502 -0.22396632710E+02 -0.44558070002E+02  0.69267440296E+02  0.19080516658E+03  0.17065052754E+03 0.  0.
        -24    2    5    5    0    0 -0.37783444932E+02 -0.80054292659E+02  0.13013378072E+02  0.12237019504E+03  0.83479567211E+02 0.  0.
          5    1    3    3  501    0 -0.26517751541E+02 -0.37294037146E+02 -0.78144677635E+01  0.46660392839E+02  0.47000000000E+01 0. -1.
        -11    1    4    4    0    0 -0.21724786270E+02  0.16625134164E+02 -0.22122449025E+02  0.35181872823E+02  0.00000000000E+00 0.  1.
         12    1    4    4    0    0  0.70639170521E+02  0.65226972984E+02 -0.10751182089E+03  0.14423329036E+03  0.00000000000E+00 0. -1.
         -5    1    5    5    0  502  0.15386812223E+02  0.35496222657E+02  0.56254062224E+02  0.68434971543E+02  0.47000000000E+01 0.  1.
         11    1    6    6    0    0 -0.56557004467E+01 -0.64173633596E+02 -0.25930877122E+02  0.69445320827E+02  0.00000000000E+00 0. -1.
        -12    1    6    6    0    0 -0.32127744486E+02 -0.15880659063E+02  0.38944255195E+02  0.52924874215E+02  0.00000000000E+00 0.  1.
<mgrwt>
<rscale>  2 0.17906582E+03</rscale>
<asrwt>0</asrwt>
<pdfrwt beam="1">  1       21 0.26823033E-01 0.17949374E+03</pdfrwt>
<pdfrwt beam="2">  1       21 0.37312463E-01 0.17949374E+03</pdfrwt>
<totfact> 0.92156795E+04</totfact>
</mgrwt>
</event>
<event>
12    1  0.1039378E-001  0.1916573E+03  0.7546771E-02  0.1157127E+00
         21   -1    0    0  501  502  0.00000000000E+00  0.00000000000E+00  0.20888510282E+03  0.20888510282E+03  0.00000000000E+00 0.  1.
         21   -1    0    0  502  503 -0.00000000000E+00 -0.00000000000E+00 -0.19135997383E+03  0.19135997383E+03  0.00000000000E+00 0. -1.
         -6    2    1    2    0  503 -0.42260431939E+02  0.68216259368E+02 -0.49330264264E+02  0.19790397096E+03  0.17404914420E+03 0.  0.
        -24    2    3    3    0    0 -0.10744064669E+02  0.11618759092E+02 -0.88097352590E+02  0.12226313819E+03  0.83286859344E+02 0.  0.
          6    2    1    2  501    0  0.42260431939E+02 -0.68216259368E+02  0.66855393260E+02  0.20234110569E+03  0.17329996334E+03 0.  0.
         24    2    5    5    0    0  0.21570642587E+02 -0.12030576541E+03  0.38548761893E+02  0.13937492903E+03  0.54777677807E+02 0.  0.
          5    1    5    5  501    0  0.20689789353E+02  0.52089506047E+02  0.28306631367E+02  0.62966176659E+02  0.47000000000E+01 0. -1.
        -11    1    6    6    0    0  0.10904744395E+02  0.19120812450E+01  0.52560245790E+01  0.12255419184E+02  0.00000000000E+00 0.  1.
         12    1    6    6    0    0  0.10665898192E+02 -0.12221784666E+03  0.33292737314E+02  0.12711950985E+03  0.00000000000E+00 0. -1.
         -5    1    3    3    0  503 -0.31516367270E+02  0.56597500276E+02  0.38767088326E+02  0.75640832760E+02  0.47000000000E+01 0.  1.
         13    1    4    4    0    0  0.30680705099E+02 -0.11460068022E+02 -0.56416925503E+02  0.65234257163E+02  0.00000000000E+00 0. -1.
        -14    1    4    4    0    0 -0.41424769768E+02  0.23078827114E+02 -0.31680427088E+02  0.57028881032E+02  0.00000000000E+00 0.  1.
<mgrwt>
<rscale>  2 0.19148701E+03</rscale>
<asrwt>0</asrwt>
<pdfrwt beam="1">  1       21 0.32136170E-01 0.19165726E+03</pdfrwt>
<pdfrwt beam="2">  1       21 0.29439996E-01 0.19165726E+03</pdfrwt>
<totfact> 0.10300666E+05</totfact>
</mgrwt>
</event>
<event>
12    1  0.1039378E-001  0.1922974E+03  0.7546771E-02  0.1156620E+00
         21   -1    0    0  501  502  0.00000000000E+00  0.00000000000E+00  0.27897916478E+03  0.27897916478E+03  0.00000000000E+00 0. -1.
         21   -1    0    0  502  503 -0.00000000000E+00 -0.00000000000E+00 -0.29055273825E+03  0.29055273825E+03  0.00000000000E+00 0.  1.
         -6    2    1    2    0  503 -0.68119224673E+02  0.47570928758E+02 -0.21621588656E+03  0.28871740191E+03  0.17235198441E+03 0.  0.
        -24    2    3    3    0    0  0.30583633779E+01  0.73047341378E+02 -0.89996155850E+02  0.14151411709E+03  0.81127489785E+02 0.  0.
          6    2    1    2  501    0  0.68119224673E+02 -0.47570928758E+02  0.20464231310E+03  0.28081450112E+03  0.17342169904E+03 0.  0.
         24    2    5    5    0    0  0.12384379238E+01 -0.82451187536E+02  0.14494968023E+03  0.18450784244E+03  0.78949363945E+02 0.  0.
          5    1    5    5  501    0  0.66880786749E+02  0.34880258778E+02  0.59692632869E+02  0.96306658687E+02  0.47000000000E+01 0. -1.
        -13    1    6    6    0    0 -0.49946235988E+01 -0.64564981993E+02  0.36337216217E+02  0.74256154271E+02  0.00000000000E+00 0.  1.
         14    1    6    6    0    0  0.62330615226E+01 -0.17886205543E+02  0.10861246401E+03  0.11025168816E+03  0.00000000000E+00 0. -1.
         -5    1    3    3    0  503 -0.71177588051E+02 -0.25476412620E+02 -0.12621973071E+03  0.14720328482E+03  0.47000000000E+01 0.  1.
         11    1    4    4    0    0 -0.94206559178E+01 -0.49331458090E+01  0.96558132582E+01  0.14363823139E+02  0.00000000000E+00 0. -1.
        -12    1    4    4    0    0  0.12479019296E+02  0.77980487187E+02 -0.99651969108E+02  0.12715029395E+03  0.00000000000E+00 0.  1.
<mgrwt>
<rscale>  2 0.19205595E+03</rscale>
<asrwt>0</asrwt>
<pdfrwt beam="1">  1       21 0.42919871E-01 0.19229745E+03</pdfrwt>
<pdfrwt beam="2">  1       21 0.44700422E-01 0.19229745E+03</pdfrwt>
<totfact> 0.25086906E+04</totfact>
</mgrwt>
</event>
<event>
12    1  0.1039378E-001  0.2717213E+03  0.7546771E-02  0.1100317E+00
         21   -1    0    0  503  502  0.00000000000E+00  0.00000000000E+00  0.24822051526E+03  0.24822051526E+03  0.00000000000E+00 0.  1.
         21   -1    0    0  501  503 -0.00000000000E+00 -0.00000000000E+00 -0.30162153187E+03  0.30162153187E+03  0.00000000000E+00 0. -1.
          6    2    1    2  501    0  0.11248549405E+03  0.17671522558E+03 -0.59609304838E+02  0.27818293358E+03  0.17306420193E+03 0.  0.
         24    2    3    3    0    0  0.57276252625E+02  0.14268848233E+03  0.27571050556E+02  0.16942455937E+03  0.65604469236E+02 0.  0.
         -6    2    1    2    0  502 -0.11248549405E+03 -0.17671522558E+03  0.62082882290E+01  0.27165911354E+03  0.17285506589E+03 0.  0.
        -24    2    5    5    0    0 -0.73972578149E+02 -0.63964656333E+02 -0.54244069057E+02  0.13797099493E+03  0.80809385824E+02 0.  0.
          5    1    3    3  501    0  0.55209241429E+02  0.34026743242E+02 -0.87180355393E+02  0.10875837421E+03  0.47000000000E+01 0. -1.
        -11    1    4    4    0    0  0.69694825949E+02  0.11395828416E+03  0.11061868409E+02  0.13403814467E+03  0.00000000000E+00 0.  1.
         12    1    4    4    0    0 -0.12418573324E+02  0.28730198174E+02  0.16509182147E+02  0.35386414705E+02  0.00000000000E+00 0. -1.
         -5    1    5    5    0  502 -0.38512915905E+02 -0.11275056924E+03  0.60452357286E+02  0.13368811861E+03  0.47000000000E+01 0.  1.
         13    1    6    6    0    0 -0.23837118503E+02 -0.69446418864E+02 -0.17247343849E+02  0.75422040422E+02  0.00000000000E+00 0. -1.
        -14    1    6    6    0    0 -0.50135459646E+02  0.54817625311E+01 -0.36996725207E+02  0.62548954511E+02  0.00000000000E+00 0.  1.
<mgrwt>
<rscale>  2 0.27168802E+03</rscale>
<asrwt>0</asrwt>
<pdfrwt beam="1">  1       21 0.38187771E-01 0.27172132E+03</pdfrwt>
<pdfrwt beam="2">  1       21 0.46403313E-01 0.27172132E+03</pdfrwt>
<totfact> 0.28312204E+04</totfact>
</mgrwt>
</event>
<event>
12    1  0.1039378E-001  0.2346511E+03  0.7546771E-02  0.1123425E+00
         21   -1    0    0  501  502  0.00000000000E+00  0.00000000000E+00  0.35161364969E+03  0.35161364969E+03  0.00000000000E+00 0. -1.
         21   -1    0    0  502  503 -0.00000000000E+00 -0.00000000000E+00 -0.16381125262E+03  0.16381125262E+03  0.00000000000E+00 0. -1.
         -6    2    1    2    0  503 -0.14826891517E+03 -0.57343316932E+02  0.39557968728E+02  0.23786850569E+03  0.17246641965E+03 0.  0.
        -24    2    3    3    0    0 -0.66733696255E+02 -0.17328268586E+02  0.87025620162E+02  0.13527969563E+03  0.77288306856E+02 0.  0.
          6    2    1    2  501    0  0.14826891517E+03  0.57343316932E+02  0.14824442834E+03  0.27755639662E+03  0.17259552592E+03 0.  0.
         24    2    5    5    0    0  0.12882406978E+03  0.94364755881E+02  0.15353992962E+03  0.23514388328E+03  0.78852950152E+02 0.  0.
          5    1    5    5  501    0  0.19444845389E+02 -0.37021438949E+02 -0.52955012800E+01  0.42412513340E+02  0.47000000000E+01 0. -1.
        -13    1    6    6    0    0 -0.77994630062E+01  0.20927809115E+02  0.26446108268E+02  0.34615046729E+02  0.00000000000E+00 0.  1.
         14    1    6    6    0    0  0.13662353279E+03  0.73436946767E+02  0.12709382136E+03  0.20052883655E+03  0.00000000000E+00 0. -1.
         -5    1    3    3    0  503 -0.81535218916E+02 -0.40015048346E+02 -0.47467651434E+02  0.10258881006E+03  0.47000000000E+01 0.  1.
         13    1    4    4    0    0 -0.41391299582E+02 -0.48224191370E+02  0.51170858296E+02  0.81592089403E+02  0.00000000000E+00 0. -1.
        -14    1    4    4    0    0 -0.25342396673E+02  0.30895922783E+02  0.35854761866E+02  0.53687606226E+02  0.00000000000E+00 0.  1.
<mgrwt>
<rscale>  2 0.23462737E+03</rscale>
<asrwt>0</asrwt>
<pdfrwt beam="1">  1       21 0.54094407E-01 0.23465111E+03</pdfrwt>
<pdfrwt beam="2">  1       21 0.25201731E-01 0.23465111E+03</pdfrwt>
<totfact> 0.47250443E+04</totfact>
</mgrwt>
</event>
<event>
12    1  0.1039378E-001  0.1821257E+03  0.7546771E-02  0.1165863E+00
         21   -1    0    0  503  502  0.00000000000E+00  0.00000000000E+00  0.25306425336E+03  0.25306425336E+03  0.00000000000E+00 0. -1.
         21   -1    0    0  501  503 -0.00000000000E+00 -0.00000000000E+00 -0.21563075465E+03  0.21563075465E+03  0.00000000000E+00 0. -1.
          6    2    1    2  501    0 -0.32543369289E+02  0.43397282599E+02 -0.12831447064E+03  0.22243874313E+03  0.17341279090E+03 0.  0.
         24    2    3    3    0    0 -0.59005944635E+01 -0.46285218634E+02 -0.85003110237E+02  0.11923626052E+03  0.69387452707E+02 0.  0.
         -6    2    1    2    0  502  0.32543369289E+02 -0.43397282599E+02  0.16574796934E+03  0.24625626488E+03  0.17386018415E+03 0.  0.
        -24    2    5    5    0    0 -0.39625701475E+01  0.31413923405E+02  0.41571370141E+02  0.96685820120E+02  0.81347602614E+02 0.  0.
          5    1    3    3  501    0 -0.26642774825E+02  0.89682501232E+02 -0.43311360398E+02  0.10320248261E+03  0.47000000000E+01 0. -1.
        -13    1    4    4    0    0 -0.31580627698E+02 -0.33557866028E+02 -0.24273735798E+02  0.52083401077E+02  0.00000000000E+00 0.  1.
         14    1    4    4    0    0  0.25680033234E+02 -0.12727352605E+02 -0.60729374439E+02  0.67152859440E+02  0.00000000000E+00 0. -1.
         -5    1    5    5    0  502  0.36505939436E+02 -0.74811206004E+02  0.12417659920E+03  0.14957044476E+03  0.47000000000E+01 0.  1.
         11    1    6    6    0    0 -0.21900282671E+02 -0.21090784845E+02  0.23179806455E+02  0.38232800234E+02  0.00000000000E+00 0. -1.
        -12    1    6    6    0    0  0.17937712523E+02  0.52504708250E+02  0.18391563686E+02  0.58453019886E+02  0.00000000000E+00 0.  1.
<mgrwt>
<rscale>  2 0.18201881E+03</rscale>
<asrwt>0</asrwt>
<pdfrwt beam="1">  1       21 0.38932962E-01 0.18212567E+03</pdfrwt>
<pdfrwt beam="2">  1       21 0.33173963E-01 0.18212567E+03</pdfrwt>
<totfact> 0.55921225E+04</totfact>
</mgrwt>
</event>
<event>
12    1  0.1039378E-001  0.1896576E+03  0.7546771E-02  0.1159124E+00
         21   -1    0    0  503  502  0.00000000000E+00  0.00000000000E+00  0.76293336847E+03  0.76293336847E+03  0.00000000000E+00 0. -1.
         21   -1    0    0  501  503 -0.00000000000E+00 -0.00000000000E+00 -0.63131794611E+02  0.63131794611E+02  0.00000000000E+00 0.  1.
          6    2    1    2  501    0  0.54569545767E+02  0.55212497632E+02  0.13850229715E+03  0.23358993082E+03  0.17133334247E+03 0.  0.
         24    2    3    3    0    0  0.43239459381E+01  0.90430872220E+01  0.22441591896E+01  0.81128116184E+02  0.80475220099E+02 0.  0.
         -6    2    1    2    0  502 -0.54569545767E+02 -0.55212497632E+02  0.56129927670E+03  0.59247523226E+03  0.17304267565E+03 0.  0.
        -24    2    5    5    0    0 -0.85812232503E+02 -0.50824984538E+02  0.53701656702E+03  0.55238663370E+03  0.82445627711E+02 0.  0.
          5    1    3    3  501    0  0.50245599829E+02  0.46169410410E+02  0.13625813797E+03  0.15246181463E+03  0.47000000000E+01 0. -1.
        -11    1    4    4    0    0 -0.23369601622E+02  0.34501255872E+02 -0.73321025599E+01  0.42311164776E+02  0.00000000000E+00 0.  1.
         12    1    4    4    0    0  0.27693547560E+02 -0.25458168650E+02  0.95762617495E+01  0.38816951408E+02  0.00000000000E+00 0. -1.
         -5    1    5    5    0  502  0.31242686736E+02 -0.43875130945E+01  0.24282709681E+02  0.40088598567E+02  0.47000000000E+01 0.  1.
         11    1    6    6    0    0 -0.15619260980E+02  0.16918307414E+02  0.20635248776E+03  0.20763318532E+03  0.00000000000E+00 0. -1.
        -12    1    6    6    0    0 -0.70192971522E+02 -0.67743291952E+02  0.33066407926E+03  0.34475344838E+03  0.00000000000E+00 0.  1.
<mgrwt>
<rscale>  2 0.18926687E+03</rscale>
<asrwt>0</asrwt>
<pdfrwt beam="1">  1       21 0.11737436E+00 0.18965765E+03</pdfrwt>
<pdfrwt beam="2">  1       21 0.97125843E-02 0.18965765E+03</pdfrwt>
<totfact> 0.47720775E+04</totfact>
</mgrwt>
</event>
<event>
12    1  0.1039378E-001  0.1786633E+03  0.7546771E-02  0.1169127E+00
         21   -1    0    0  503  502  0.00000000000E+00  0.00000000000E+00  0.13069508413E+04  0.13069508413E+04  0.00000000000E+00 0.  1.
         21   -1    0    0  501  503 -0.00000000000E+00 -0.00000000000E+00 -0.24590892666E+02  0.24590892666E+02  0.00000000000E+00 0.  1.
          6    2    1    2  501    0  0.43377577912E+02 -0.67464473755E+01  0.69809469160E+03  0.72056999777E+03  0.17308320088E+03 0.  0.
         24    2    3    3    0    0  0.56314546372E+02 -0.18299919223E-02  0.69841516015E+03  0.70523873179E+03  0.80041269058E+02 0.  0.
         -6    2    1    2    0  502 -0.43377577912E+02  0.67464473755E+01  0.58426525702E+03  0.61097173619E+03  0.17318615140E+03 0.  0.
        -24    2    5    5    0    0 -0.42771860342E+02  0.36918489615E+02  0.17251094730E+03  0.19808625496E+03  0.79282599327E+02 0.  0.
          5    1    3    3  501    0 -0.12936968460E+02 -0.67446173836E+01 -0.32046854442E+00  0.15331265984E+02  0.47000000000E+01 0. -1.
        -13    1    4    4    0    0  0.23412906333E+02 -0.39278028214E+02  0.28198529002E+03  0.28566874430E+03  0.00000000000E+00 0.  1.
         14    1    4    4    0    0  0.32901640039E+02  0.39276198222E+02  0.41642987013E+03  0.41956998748E+03  0.00000000000E+00 0. -1.
         -5    1    5    5    0  502 -0.60571757052E+00 -0.30172042239E+02  0.41175430973E+03  0.41288548122E+03  0.47000000000E+01 0.  1.
         13    1    6    6    0    0  0.12082969698E+02 -0.13600932253E+02  0.14160130700E+02  0.23054127967E+02  0.00000000000E+00 0. -1.
        -14    1    6    6    0    0 -0.54854830039E+02  0.50519421868E+02  0.15835081660E+03  0.17503212700E+03  0.00000000000E+00 0.  1.
<mgrwt>
<rscale>  2 0.17863834E+03</rscale>
<asrwt>0</asrwt>
<pdfrwt beam="1">  1       21 0.20106931E+00 0.17866329E+03</pdfrwt>
<pdfrwt beam="2">  1       21 0.37832153E-02 0.17866329E+03</pdfrwt>
<totfact> 0.57371117E+04</totfact>
</mgrwt>
</event>
<event>
12    1  0.1039378E-001  0.2815862E+03  0.7546771E-02  0.1094870E+00
         21   -1    0    0  501  502  0.00000000000E+00  0.00000000000E+00  0.52427616463E+03  0.52427616463E+03  0.00000000000E+00 0.  1.
         21   -1    0    0  502  503 -0.00000000000E+00 -0.00000000000E+00 -0.26809620643E+03  0.26809620643E+03  0.00000000000E+00 0. -1.
         -6    2    1    2    0  503  0.14072602351E+03 -0.17173121013E+03 -0.13371564453E+03  0.31142605252E+03  0.17265830525E+03 0.  0.
        -24    2    3    3    0    0  0.40608493676E+02 -0.83407678427E+02 -0.12863466951E+03  0.17773808620E+03  0.80237513082E+02 0.  0.
          6    2    1    2  501    0 -0.14072602351E+03  0.17173121013E+03  0.38989560273E+03  0.48094631854E+03  0.17319168011E+03 0.  0.
         24    2    5    5    0    0 -0.40854357954E+02  0.91134507784E+02  0.29135279667E+03  0.31907305751E+03  0.83346186651E+02 0.  0.
          5    1    5    5  501    0 -0.99871665552E+02  0.80596702347E+02  0.98542806066E+02  0.16187326103E+03  0.47000000000E+01 0. -1.
        -13    1    6    6    0    0 -0.32778107956E+02  0.81597221333E+02  0.12830150871E+03  0.15554352454E+03  0.00000000000E+00 0.  1.
         14    1    6    6    0    0 -0.80762499981E+01  0.95372864508E+01  0.16305128796E+03  0.16352953297E+03  0.00000000000E+00 0. -1.
         -5    1    3    3    0  503  0.10011752983E+03 -0.88323531704E+02 -0.50809750181E+01  0.13368796632E+03  0.47000000000E+01 0.  1.
         11    1    4    4    0    0 -0.13162702718E+02 -0.24511167243E+02 -0.17562064636E+01  0.27877200785E+02  0.00000000000E+00 0. -1.
        -12    1    4    4    0    0  0.53771196393E+02 -0.58896511183E+02 -0.12687846305E+03  0.14986088541E+03  0.00000000000E+00 0.  1.
<mgrwt>
<rscale>  2 0.28150422E+03</rscale>
<asrwt>0</asrwt>
<pdfrwt beam="1">  1       21 0.80657872E-01 0.28158619E+03</pdfrwt>
<pdfrwt beam="2">  1       21 0.41245570E-01 0.28158619E+03</pdfrwt>
<totfact> 0.72319163E+03</totfact>
</mgrwt>
</event>
<event>
12    1  0.1039378E-001  0.3884579E+03  0.7546771E-02  0.1047860E+00
         21   -1    0    0  501  502  0.00000000000E+00  0.00000000000E+00  0.82205519045E+03  0.82205519045E+03  0.00000000000E+00 0. -1.
         21   -1    0    0  502  503 -0.00000000000E+00 -0.00000000000E+00 -0.21568710819E+03  0.21568710819E+03  0.00000000000E+00 0. -1.
         -6    2    1    2    0  503  0.29834274060E+03  0.17848965512E+03  0.10277089056E+03  0.40173153697E+03  0.17308790830E+03 0.  0.
        -24    2    3    3    0    0  0.49583914549E+02  0.31159656482E+02  0.27164456911E+02  0.10285780971E+03  0.80077041190E+02 0.  0.
          6    2    1    2  501    0 -0.29834274060E+03 -0.17848965512E+03  0.50359719170E+03  0.63601076167E+03  0.17329919105E+03 0.  0.
         24    2    5    5    0    0 -0.13895850147E+03 -0.44055430851E+02  0.14374034773E+03  0.22008416420E+03  0.80779982941E+02 0.  0.
          5    1    5    5  501    0 -0.15938423913E+03 -0.13443422427E+03  0.35985684397E+03  0.41592659747E+03  0.47000000000E+01 0. -1.
        -13    1    6    6    0    0 -0.73431056610E+02 -0.41348598790E+02  0.31265552936E+02  0.89885268521E+02  0.00000000000E+00 0.  1.
         14    1    6    6    0    0 -0.65527444864E+02 -0.27068320610E+01  0.11247479480E+03  0.13019889568E+03  0.00000000000E+00 0. -1.
         -5    1    3    3    0  503  0.24875882605E+03  0.14732999863E+03  0.75606433649E+02  0.29887372726E+03  0.47000000000E+01 0.  1.
         11    1    4    4    0    0  0.61278994185E+02  0.76762551422E+01 -0.42807020501E+01  0.61906093653E+02  0.00000000000E+00 0. -1.
        -12    1    4    4    0    0 -0.11695079636E+02  0.23483401340E+02  0.31445158961E+02  0.40951716060E+02  0.00000000000E+00 0.  1.
<mgrwt>
<rscale>  2 0.38843437E+03</rscale>
<asrwt>0</asrwt>
<pdfrwt beam="1">  1       21 0.12647003E+00 0.38845792E+03</pdfrwt>
<pdfrwt beam="2">  1       21 0.33182632E-01 0.38845792E+03</pdfrwt>
<totfact> 0.36063222E+03</totfact>
</mgrwt>
</event>
<event>
12    1  0.1039378E-001  0.1883573E+03  0.7546771E-02  0.1160003E+00
         21   -1    0    0  501  502  0.00000000000E+00  0.00000000000E+00  0.90363424756E+02  0.90363424756E+02  0.00000000000E+00 0. -1.
         21   -1    0    0  502  503 -0.00000000000E+00 -0.00000000000E+00 -0.55953599333E+03  0.55953599333E+03  0.00000000000E+00 0. -1.
         -6    2    1    2    0  503 -0.47512616516E+02  0.63585831819E+02 -0.41241429815E+03  0.45339169981E+03  0.17081531957E+03 0.  0.
        -24    2    3    3    0    0 -0.20340553238E+02  0.13856523028E+02 -0.37702421918E+03  0.38641504070E+03  0.81015927424E+02 0.  0.
          6    2    1    2  501    0  0.47512616516E+02 -0.63585831819E+02 -0.56758270427E+02  0.19650771828E+03  0.17056721650E+03 0.  0.
         24    2    5    5    0    0  0.18842141234E+02  0.22046550506E+02  0.76225103335E+01  0.85503772465E+02  0.80073190061E+02 0.  0.
          5    1    5    5  501    0  0.28670475282E+02 -0.85632382325E+02 -0.64380780760E+02  0.11100394582E+03  0.47000000000E+01 0. -1.
        -13    1    6    6    0    0 -0.19257639938E+02  0.32320223889E+02 -0.14435069763E+02  0.40296709634E+02  0.00000000000E+00 0.  1.
         14    1    6    6    0    0  0.38099781172E+02 -0.10273673383E+02  0.22057580096E+02  0.45207062832E+02  0.00000000000E+00 0. -1.
         -5    1    3    3    0  503 -0.27172063277E+02  0.49729308790E+02 -0.35390078973E+02  0.66976659108E+02  0.47000000000E+01 0.  1.
         11    1    4    4    0    0 -0.48856762260E+02  0.23660509235E+02 -0.22836007644E+03  0.23472351272E+03  0.00000000000E+00 0. -1.
        -12    1    4    4    0    0  0.28516209022E+02 -0.98039862062E+01 -0.14866414274E+03  0.15169152798E+03  0.00000000000E+00 0.  1.
<mgrwt>
<rscale>  2 0.18830105E+03</rscale>
<asrwt>0</asrwt>
<pdfrwt beam="1">  1       21 0.13902066E-01 0.18835732E+03</pdfrwt>
<pdfrwt beam="2">  1       21 0.86082459E-01 0.18835732E+03</pdfrwt>
<totfact> 0.52527498E+04</totfact>
</mgrwt>
</event>
<event>
12    1  0.1039378E-001  0.9868496E+03  0.7546771E-02  0.9323438E-01
         21   -1    0    0  501  502  0.00000000000E+00  0.00000000000E+00  0.37972080928E+03  0.37972080928E+03  0.00000000000E+00 0. -1.
         21   -1    0    0  502  503 -0.00000000000E+00 -0.00000000000E+00 -0.31401909207E+04  0.31401909207E+04  0.00000000000E+00 0. -1.
         -6    2    1    2    0  503 -0.96532286593E+03  0.11226026869E+03 -0.21350834958E+04  0.23515878866E+04  0.16411413916E+03 0.  0.
        -24    2    3    3    0    0 -0.63409811439E+03  0.10407598508E+03 -0.12794521905E+04  0.14340347060E+04  0.80903651687E+02 0.  0.
          6    2    1    2  501    0  0.96532286593E+03 -0.11226026869E+03 -0.62538661557E+03  0.11683238434E+04  0.17152720106E+03 0.  0.
         24    2    5    5    0    0  0.56534545211E+03 -0.13256471431E+03 -0.36373095763E+03  0.68990982248E+03  0.80538623738E+02 0.  0.
          5    1    5    5  501    0  0.39997741382E+03  0.20304445622E+02 -0.26165565794E+03  0.47841402092E+03  0.47000000000E+01 0. -1.
        -11    1    6    6    0    0  0.34749470000E+03 -0.87762688210E+02 -0.26919662127E+03  0.44824287710E+03  0.00000000000E+00 0.  1.
         12    1    6    6    0    0  0.21785075211E+03 -0.44802026105E+02 -0.94534336368E+02  0.24166694538E+03  0.00000000000E+00 0. -1.
         -5    1    3    3    0  503 -0.33122475154E+03  0.81842836085E+01 -0.85563130536E+03  0.91755318060E+03  0.47000000000E+01 0.  1.
         13    1    4    4    0    0 -0.10261487521E+03  0.51512082675E+01 -0.27087099540E+03  0.28970233639E+03  0.00000000000E+00 0. -1.
        -14    1    4    4    0    0 -0.53148323918E+03  0.98924776816E+02 -0.10085811951E+04  0.11443323696E+04  0.00000000000E+00 0.  1.
<mgrwt>
<rscale>  2 0.98653411E+03</rscale>
<asrwt>0</asrwt>
<pdfrwt beam="1">  1       21 0.58418583E-01 0.98684963E+03</pdfrwt>
<pdfrwt beam="2">  1       21 0.48310632E+00 0.98684963E+03</pdfrwt>
<totfact> 0.36232273E+00</totfact>
</mgrwt>
</event>
<event>
12    1  0.1039378E-001  0.2174218E+03  0.7546771E-02  0.1135974E+00
         21   -1    0    0  501  502  0.00000000000E+00  0.00000000000E+00  0.85925275210E+03  0.85925275210E+03  0.00000000000E+00 0.  1.
         21   -1    0    0  502  503 -0.00000000000E+00 -0.00000000000E+00 -0.55743268853E+02  0.55743268853E+02  0.00000000000E+00 0. -1.
         -6    2    1    2    0  503  0.80079455834E+02  0.10610356582E+03  0.34329536964E+03  0.40635444738E+03  0.17205098129E+03 0.  0.
        -24    2    3    3    0    0 -0.24312831302E+02  0.34820636504E+02  0.12850399425E+03  0.15708264679E+03  0.79737637870E+02 0.  0.
          6    2    1    2  501    0 -0.80079455834E+02 -0.10610356582E+03  0.46021411361E+03  0.50864157358E+03  0.17102202805E+03 0.  0.
         24    2    5    5    0    0 -0.14725459148E+02 -0.81441715179E+02  0.40000631577E+03  0.41630295391E+03  0.80333708158E+02 0.  0.
          5    1    5    5  501    0 -0.65353996687E+02 -0.24661850640E+02  0.60207797842E+02  0.92338619661E+02  0.47000000000E+01 0. -1.
        -13    1    6    6    0    0  0.32676629641E+02 -0.22375834214E+02  0.13658237633E+03  0.14220824732E+03  0.00000000000E+00 0.  1.
         14    1    6    6    0    0 -0.47402088788E+02 -0.59065880965E+02  0.26342393944E+03  0.27409470660E+03  0.00000000000E+00 0. -1.
         -5    1    3    3    0  503  0.10439228714E+03  0.71282929315E+02  0.21479137539E+03  0.24927180059E+03  0.47000000000E+01 0.  1.
         11    1    4    4    0    0 -0.16152925886E+02 -0.91255450000E+01 -0.24473876734E+01  0.18713158276E+02  0.00000000000E+00 0. -1.
        -12    1    4    4    0    0 -0.81599054160E+01  0.43946181505E+02  0.13095138192E+03  0.13836948852E+03  0.00000000000E+00 0.  1.
<mgrwt>
<rscale>  2 0.21721815E+03</rscale>
<asrwt>0</asrwt>
<pdfrwt beam="1">  1       21 0.13219272E+00 0.21742177E+03</pdfrwt>
<pdfrwt beam="2">  1       21 0.85758881E-02 0.21742177E+03</pdfrwt>
<totfact> 0.43452190E+04</totfact>
</mgrwt>
</event>
<event>
12    1  0.1039378E-001  0.3706343E+03  0.7546771E-02  0.1054477E+00
         21   -1    0    0  501  502  0.00000000000E+00  0.00000000000E+00  0.20379757023E+04  0.20379757023E+04  0.00000000000E+00 0. -1.
         21   -1    0    0  502  503 -0.00000000000E+00 -0.00000000000E+00 -0.72549297753E+02  0.72549297753E+02  0.00000000000E+00 0.  1.
         -6    2    1    2    0  503  0.84275115599E+02  0.31625309033E+03  0.70068161919E+03  0.79266924942E+03  0.17392956979E+03 0.  0.
        -24    2    3    3    0    0  0.76046189642E+01  0.56364020918E+02  0.20203277521E+03  0.22513647234E+03  0.81452169001E+02 0.  0.
          6    2    1    2  501    0 -0.84275115599E+02 -0.31625309033E+03  0.12647447854E+04  0.13178557507E+04  0.17333809489E+03 0.  0.
         24    2    5    5    0    0 -0.27473843796E+02 -0.21157355601E+03  0.58865542220E+03  0.63134056045E+03  0.80978487790E+02 0.  0.
          5    1    5    5  501    0 -0.56801271803E+02 -0.10467953432E+03  0.67608936318E+03  0.68651519021E+03  0.47000000000E+01 0. -1.
        -13    1    6    6    0    0  0.22542127460E+02 -0.13230145726E+03  0.33161918100E+03  0.35774726318E+03  0.00000000000E+00 0.  1.
         14    1    6    6    0    0 -0.50015971256E+02 -0.79272098750E+02  0.25703624119E+03  0.27359329727E+03  0.00000000000E+00 0. -1.
         -5    1    3    3    0  503  0.76670496635E+02  0.25988906942E+03  0.49864884398E+03  0.56753277708E+03  0.47000000000E+01 0.  1.
         13    1    4    4    0    0  0.40062066770E+02  0.12184303332E+02  0.11380374472E+03  0.12126301478E+03  0.00000000000E+00 0. -1.
        -14    1    4    4    0    0 -0.32457447805E+02  0.44179717585E+02  0.88229030490E+02  0.10387345756E+03  0.00000000000E+00 0.  1.
<mgrwt>
<rscale>  2 0.37056501E+03</rscale>
<asrwt>0</asrwt>
<pdfrwt beam="1">  1       21 0.31353468E+00 0.37063433E+03</pdfrwt>
<pdfrwt beam="2">  1       21 0.11161432E-01 0.37063433E+03</pdfrwt>
<totfact> 0.16173564E+03</totfact>
</mgrwt>
</event>
<event>
12    1  0.1039378E-001  0.2539935E+03  0.7546771E-02  0.1110835E+00
         21   -1    0    0  501  502  0.00000000000E+00  0.00000000000E+00  0.24976935928E+03  0.24976935928E+03  0.00000000000E+00 0. -1.
         21   -1    0    0  502  503 -0.00000000000E+00 -0.00000000000E+00 -0.92913738560E+03  0.92913738560E+03  0.00000000000E+00 0. -1.
         -6    2    1    2    0  503  0.18517694010E+03  0.20099367509E+02 -0.84058539267E+03  0.87806839305E+03  0.17241176524E+03 0.  0.
        -24    2    3    3    0    0  0.20795176263E+03  0.22995790786E+02 -0.80229807870E+03  0.83317863676E+03  0.82046887145E+02 0.  0.
          6    2    1    2  501    0 -0.18517694010E+03 -0.20099367509E+02  0.16121736634E+03  0.30083835183E+03  0.17267944580E+03 0.  0.
         24    2    5    5    0    0 -0.90410379552E+02 -0.11208979254E+02  0.10480191286E+02  0.12250292084E+03  0.81224708423E+02 0.  0.
          5    1    5    5  501    0 -0.94766560546E+02 -0.88903882545E+01  0.15073717506E+03  0.17833543099E+03  0.47000000000E+01 0. -1.
        -13    1    6    6    0    0 -0.61636865776E+01 -0.29761846084E+02 -0.13064311592E+02  0.33082242245E+02  0.00000000000E+00 0.  1.
         14    1    6    6    0    0 -0.84246692974E+02  0.18552866830E+02  0.23544502878E+02  0.89420678595E+02  0.00000000000E+00 0. -1.
         -5    1    3    3    0  503 -0.22774822534E+02 -0.28964232774E+01 -0.38287313963E+02  0.44889756290E+02  0.47000000000E+01 0.  1.
         13    1    4    4    0    0  0.14804135466E+02 -0.17934262384E+02 -0.14551108814E+03  0.14735764983E+03  0.00000000000E+00 0. -1.
        -14    1    4    4    0    0  0.19314762717E+03  0.40930053170E+02 -0.65678699057E+03  0.68582098693E+03  0.00000000000E+00 0.  1.
<mgrwt>
<rscale>  2 0.25394796E+03</rscale>
<asrwt>0</asrwt>
<pdfrwt beam="1">  1       21 0.38426055E-01 0.25399345E+03</pdfrwt>
<pdfrwt beam="2">  1       21 0.14294421E+00 0.25399345E+03</pdfrwt>
<totfact> 0.21036294E+03</totfact>
</mgrwt>
</event>
<event>
12    1  0.1039378E-001  0.2033809E+03  0.7546771E-02  0.1147123E+00
         21   -1    0    0  501  502  0.00000000000E+00  0.00000000000E+00  0.21551611572E+04  0.21551611572E+04  0.00000000000E+00 0.  1.
         21   -1    0    0  502  503 -0.00000000000E+00 -0.00000000000E+00 -0.28398050827E+02  0.28398050827E+02  0.00000000000E+00 0. -1.
         -6    2    1    2    0  503 -0.68126825881E+02 -0.80782971699E+02  0.16863777169E+04  0.16984786977E+04  0.17260628472E+03 0.  0.
        -24    2    3    3    0    0 -0.56080850705E+02 -0.11942398633E+03  0.11189221492E+04  0.11295620563E+04  0.80724920256E+02 0.  0.
          6    2    1    2  501    0  0.68126825881E+02  0.80782971699E+02  0.44038538949E+03  0.48508051035E+03  0.17377185424E+03 0.  0.
         24    2    5    5    0    0  0.43999417977E+02 -0.24567481345E+02  0.23341996318E+03  0.25154758450E+03  0.79068313100E+02 0.  0.
          5    1    5    5  501    0  0.24127407904E+02  0.10535045304E+03  0.20696542631E+03  0.23353292585E+03  0.47000000000E+01 0. -1.
        -13    1    6    6    0    0  0.23326244737E+01  0.20947151401E+02  0.18833940023E+02  0.28265554753E+02  0.00000000000E+00 0.  1.
         14    1    6    6    0    0  0.41666793503E+02 -0.45514632745E+02  0.21458602316E+03  0.22328202975E+03  0.00000000000E+00 0. -1.
         -5    1    3    3    0  503 -0.12045975176E+02  0.38641014626E+02  0.56745556765E+03  0.56891664133E+03  0.47000000000E+01 0.  1.
         11    1    4    4    0    0 -0.30011488462E+02 -0.19120534701E+02  0.11693489130E+03  0.12222950990E+03  0.00000000000E+00 0. -1.
        -12    1    4    4    0    0 -0.26069362243E+02 -0.10030345162E+03  0.10019872579E+04  0.10073325464E+04  0.00000000000E+00 0.  1.
<mgrwt>
<rscale>  2 0.20313175E+03</rscale>
<asrwt>0</asrwt>
<pdfrwt beam="1">  1       21 0.33156313E+00 0.20338095E+03</pdfrwt>
<pdfrwt beam="2">  1       21 0.43689326E-02 0.20338095E+03</pdfrwt>
<totfact> 0.74835033E+03</totfact>
</mgrwt>
</event>
<event>
12    1  0.1039378E-001  0.2293933E+03  0.7546771E-02  0.1128969E+00
         21   -1    0    0  501  502  0.00000000000E+00  0.00000000000E+00  0.11230792281E+03  0.11230792281E+03  0.00000000000E+00 0. -1.
         21   -1    0    0  502  503 -0.00000000000E+00 -0.00000000000E+00 -0.48500481663E+03  0.48500481663E+03  0.00000000000E+00 0.  1.
         -6    2    1    2    0  503 -0.15072458973E+03 -0.14295083523E+00 -0.27358034645E+03  0.35702587767E+03  0.17292584820E+03 0.  0.
        -24    2    3    3    0    0 -0.82705298405E+02  0.17673949249E+02 -0.58448717009E+02  0.13064616588E+03  0.80620303111E+02 0.  0.
          6    2    1    2  501    0  0.15072458973E+03  0.14295083523E+00 -0.99116547367E+02  0.24028686178E+03  0.15873173469E+03 0.  0.
         24    2    5    5    0    0  0.11488411670E+03  0.55837486675E+02 -0.85429045573E+02  0.17249410011E+03  0.78357562219E+02 0.  0.
          5    1    5    5  501    0  0.35840473024E+02 -0.55694535839E+02 -0.13687501794E+02  0.67792761666E+02  0.47000000000E+01 0. -1.
        -13    1    6    6    0    0  0.10982319128E+03  0.26277595936E+02 -0.43650767737E+02  0.12106624185E+03  0.00000000000E+00 0.  1.
         14    1    6    6    0    0  0.50609254236E+01  0.29559890739E+02 -0.41778277836E+02  0.51427858264E+02  0.00000000000E+00 0. -1.
         -5    1    3    3    0  503 -0.68019291323E+02 -0.17816900084E+02 -0.21513162944E+03  0.22637971178E+03  0.47000000000E+01 0.  1.
         13    1    4    4    0    0 -0.90367987440E+01  0.34219386941E+02 -0.39025695286E+02  0.52684296206E+02  0.00000000000E+00 0. -1.
        -14    1    4    4    0    0 -0.73668499661E+02 -0.16545437692E+02 -0.19423021723E+02  0.77961869678E+02  0.00000000000E+00 0.  1.
<mgrwt>
<rscale>  2 0.22672163E+03</rscale>
<asrwt>0</asrwt>
<pdfrwt beam="1">  1       21 0.17278142E-01 0.22939327E+03</pdfrwt>
<pdfrwt beam="2">  1       21 0.74616125E-01 0.22939327E+03</pdfrwt>
<totfact> 0.47846877E+04</totfact>
</mgrwt>
</event>
<event>
12    1  0.1039378E-001  0.2113020E+03  0.7546771E-02  0.1140598E+00
         21   -1    0    0  501  502  0.00000000000E+00  0.00000000000E+00  0.68789407029E+02  0.68789407029E+02  0.00000000000E+00 0.  1.
         21   -1    0    0  502  503 -0.00000000000E+00 -0.00000000000E+00 -0.10609146625E+04  0.10609146625E+04  0.00000000000E+00 0.  1.
         -6    2    1    2    0  503  0.26179755887E+02 -0.11735277530E+03 -0.84817805938E+03  0.87402981547E+03  0.17339274620E+03 0.  0.
        -24    2    3    3    0    0 -0.68427805419E+01 -0.23096079413E+02 -0.18929403826E+03  0.20760273325E+03  0.81770467790E+02 0.  0.
          6    2    1    2  501    0 -0.26179755887E+02  0.11735277530E+03 -0.14394719605E+03  0.25567425401E+03  0.17375694353E+03 0.  0.
         24    2    5    5    0    0 -0.74426117589E+02  0.11462971652E+03 -0.88824318762E+02  0.18221849817E+03  0.81453069805E+02 0.  0.
          5    1    5    5  501    0  0.48246361702E+02  0.27230587764E+01 -0.55122877283E+02  0.73455755844E+02  0.47000000000E+01 0. -1.
        -13    1    6    6    0    0 -0.55326695563E+02  0.11834196407E+03 -0.95309979868E+02  0.16170917093E+03  0.00000000000E+00 0.  1.
         14    1    6    6    0    0 -0.19099422026E+02 -0.37122475451E+01  0.64856611053E+01  0.20509327233E+02  0.00000000000E+00 0. -1.
         -5    1    3    3    0  503  0.33022536428E+02 -0.94256695887E+02 -0.65888402112E+03  0.66642708223E+03  0.47000000000E+01 0.  1.
         11    1    4    4    0    0 -0.84003379220E+00 -0.50275959224E+02 -0.77404740375E+02  0.92303150353E+02  0.00000000000E+00 0. -1.
        -12    1    4    4    0    0 -0.60027467497E+01  0.27179879811E+02 -0.11188929788E+03  0.11529958289E+03  0.00000000000E+00 0.  1.
<mgrwt>
<rscale>  2 0.21122710E+03</rscale>
<asrwt>0</asrwt>
<pdfrwt beam="1">  1       21 0.10582985E-01 0.21130199E+03</pdfrwt>
<pdfrwt beam="2">  1       21 0.16321765E+00 0.21130199E+03</pdfrwt>
<totfact> 0.17278852E+04</totfact>
</mgrwt>
</event>
<event>
12    1  0.1039378E-001  0.1842215E+03  0.7546771E-02  0.1167396E+00
         21   -1    0    0  503  502  0.00000000000E+00  0.00000000000E+00  0.18686588646E+03  0.18686588646E+03  0.00000000000E+00 0. -1.
         21   -1    0    0  501  503 -0.00000000000E+00 -0.00000000000E+00 -0.40016746559E+03  0.40016746559E+03  0.00000000000E+00 0. -1.
          6    2    1    2  501    0 -0.54188860320E+02 -0.29331826719E+02 -0.32858070694E+03  0.36971594871E+03  0.15788544303E+03 0.  0.
         24    2    3    3    0    0  0.26934510461E+02 -0.12998400125E+02 -0.16518386693E+03  0.18649913880E+03  0.81251416102E+02 0.  0.
         -6    2    1    2    0  502  0.54188860320E+02  0.29331826719E+02  0.11527912781E+03  0.21731740333E+03  0.17361102454E+03 0.  0.
        -24    2    5    5    0    0 -0.53996955696E+01  0.22653064878E+02  0.13068191676E+03  0.15523086888E+03  0.80476960826E+02 0.  0.
          5    1    3    3  501    0 -0.81123370781E+02 -0.16333426594E+02 -0.16339684001E+03  0.18321680991E+03  0.47000000000E+01 0. -1.
        -13    1    4    4    0    0  0.22151078607E+01  0.17180910502E+02 -0.57695082147E+00  0.17332722255E+02  0.00000000000E+00 0.  1.
         14    1    4    4    0    0  0.24719402600E+02 -0.30179310627E+02 -0.16460691611E+03  0.16916641655E+03  0.00000000000E+00 0. -1.
         -5    1    5    5    0  502  0.59588555890E+02  0.66787618403E+01 -0.15402788953E+02  0.62086534452E+02  0.47000000000E+01 0.  1.
         13    1    6    6    0    0 -0.24028058204E+02 -0.22097675887E+02  0.72445093808E+02  0.79460345315E+02  0.00000000000E+00 0. -1.
        -14    1    6    6    0    0  0.18628362635E+02  0.44750740765E+02  0.58236822953E+02  0.75770523564E+02  0.00000000000E+00 0.  1.
<mgrwt>
<rscale>  2 0.18042099E+03</rscale>
<asrwt>0</asrwt>
<pdfrwt beam="1">  1       21 0.28748598E-01 0.18422154E+03</pdfrwt>
<pdfrwt beam="2">  1       21 0.61564225E-01 0.18422154E+03</pdfrwt>
<totfact> 0.28512222E+04</totfact>
</mgrwt>
</event>
<event>
12    1  0.1039378E-001  0.1839334E+03  0.7546771E-02  0.1164600E+00
         21   -1    0    0  501  502  0.00000000000E+00  0.00000000000E+00  0.45819086068E+02  0.45819086068E+02  0.00000000000E+00 0. -1.
         21   -1    0    0  502  503 -0.00000000000E+00 -0.00000000000E+00 -0.98841977331E+03  0.98841977331E+03  0.00000000000E+00 0. -1.
         -6    2    1    2    0  503 -0.32886167234E+02  0.43354953734E+02 -0.73397205856E+03  0.75610684268E+03  0.17326691201E+03 0.  0.
        -24    2    3    3    0    0 -0.66894995311E+02  0.32955793664E+02 -0.69160344825E+03  0.70059169109E+03  0.83380832645E+02 0.  0.
          6    2    1    2  501    0  0.32886167234E+02 -0.43354953734E+02 -0.20862862869E+03  0.27813201670E+03  0.17569963573E+03 0.  0.
         24    2    5    5    0    0 -0.50189209787E+02 -0.31268532829E+02 -0.11618113944E+03  0.15316710920E+03  0.80407886776E+02 0.  0.
          5    1    5    5  501    0  0.83075377021E+02 -0.12086420905E+02 -0.92447489252E+02  0.12496490750E+03  0.47000000000E+01 0. -1.
        -11    1    6    6    0    0  0.81382805791E+01  0.19462547594E+02 -0.36447107377E+02  0.42111922371E+02  0.00000000000E+00 0.  1.
         12    1    6    6    0    0 -0.58327490366E+02 -0.50731080423E+02 -0.79734032059E+02  0.11105518683E+03  0.00000000000E+00 0. -1.
         -5    1    3    3    0  503  0.34008828076E+02  0.10399160070E+02 -0.42368610305E+02  0.55515151593E+02  0.47000000000E+01 0.  1.
         11    1    4    4    0    0  0.79979935192E+01 -0.59964694239E+01 -0.11366933794E+02  0.15137130830E+02  0.00000000000E+00 0. -1.
        -12    1    4    4    0    0 -0.74892988830E+02  0.38952263088E+02 -0.68023651446E+03  0.68545456026E+03  0.00000000000E+00 0.  1.
<mgrwt>
<rscale>  2 0.18335008E+03</rscale>
<asrwt>0</asrwt>
<pdfrwt beam="1">  1       21 0.70490901E-02 0.18393345E+03</pdfrwt>
<pdfrwt beam="2">  1       21 0.15206458E+00 0.18393345E+03</pdfrwt>
<totfact> 0.43307783E+04</totfact>
</mgrwt>
</event>
<event>
12    1  0.1039378E-001  0.1945224E+03  0.7546771E-02  0.1154972E+00
         21   -1    0    0  503  502  0.00000000000E+00  0.00000000000E+00  0.16371552048E+03  0.16371552048E+03  0.00000000000E+00 0. -1.
         21   -1    0    0  501  503 -0.00000000000E+00 -0.00000000000E+00 -0.34898240421E+03  0.34898240421E+03  0.00000000000E+00 0. -1.
          6    2    1    2  501    0 -0.79960440749E+02  0.37100774109E+02 -0.24301212389E+03  0.30978544272E+03  0.17071024761E+03 0.  0.
         24    2    3    3    0    0 -0.86351733030E+01  0.91996611502E+01 -0.21086781564E+03  0.22659221924E+03  0.81973155137E+02 0.  0.
         -6    2    1    2    0  502  0.79960440749E+02 -0.37100774109E+02  0.57745240171E+02  0.20291248197E+03  0.17340364198E+03 0.  0.
        -24    2    5    5    0    0  0.89722014955E+02 -0.71620795485E+02  0.78276373543E+02  0.16131275066E+03  0.81945314439E+02 0.  0.
          5    1    3    3  501    0 -0.71325267446E+02  0.27901112959E+02 -0.32144308254E+02  0.83193223485E+02  0.47000000000E+01 0. -1.
        -11    1    4    4    0    0  0.47121219276E+01 -0.26553641348E+02 -0.24757085146E+02  0.36608922776E+02  0.00000000000E+00 0.  1.
         12    1    4    4    0    0 -0.13347295231E+02  0.35753302498E+02 -0.18611073049E+03  0.18998329646E+03  0.00000000000E+00 0. -1.
         -5    1    5    5    0  502 -0.97615742061E+01  0.34520021376E+02 -0.20531133372E+02  0.41599731301E+02  0.47000000000E+01 0.  1.
         11    1    6    6    0    0  0.56423837519E+02 -0.87767104356E+01  0.69040297839E+02  0.89594881618E+02  0.00000000000E+00 0. -1.
        -12    1    6    6    0    0  0.33298177437E+02 -0.62844085049E+02  0.92360757041E+01  0.71717869047E+02  0.00000000000E+00 0.  1.
<mgrwt>
<rscale>  2 0.19392033E+03</rscale>
<asrwt>0</asrwt>
<pdfrwt beam="1">  1       21 0.25187004E-01 0.19452240E+03</pdfrwt>
<pdfrwt beam="2">  1       21 0.53689600E-01 0.19452240E+03</pdfrwt>
<totfact> 0.48968465E+04</totfact>
</mgrwt>
</event>
<event>
12    1  0.1039378E-001  0.1937612E+03  0.7546771E-02  0.1155470E+00
         21   -1    0    0  503  502  0.00000000000E+00  0.00000000000E+00  0.69050910634E+02  0.69050910634E+02  0.00000000000E+00 0.  1.
         21   -1    0    0  501  503 -0.00000000000E+00 -0.00000000000E+00 -0.15591357479E+04  0.15591357479E+04  0.00000000000E+00 0.  1.
          6    2    1    2  501    0 -0.57922201895E+02 -0.66715421150E+02 -0.14045752288E+04  0.14178769224E+04  0.17244554136E+03 0.  0.
         24    2    3    3    0    0 -0.18498495687E+02 -0.76513202006E+02 -0.13104833464E+04  0.13152825880E+04  0.80032621788E+02 0.  0.
         -6    2    1    2    0  502  0.57922201895E+02  0.66715421150E+02 -0.85509608459E+02  0.21030973616E+03  0.17062345411E+03 0.  0.
        -24    2    5    5    0    0  0.22412030161E+01  0.78202968482E+02 -0.10136087622E+03  0.15110086799E+03  0.80229158106E+02 0.  0.
          5    1    3    3  501    0 -0.39423706208E+02  0.97977808553E+01 -0.94091882389E+02  0.10259433441E+03  0.47000000000E+01 0. -1.
        -11    1    4    4    0    0 -0.89559743124E+01 -0.92863084429E+02 -0.10773377312E+04  0.10813696635E+04  0.00000000000E+00 0.  1.
         12    1    4    4    0    0 -0.95425213751E+01  0.16349882423E+02 -0.23314561521E+03  0.23391292452E+03  0.00000000000E+00 0. -1.
         -5    1    5    5    0  502  0.55680998879E+02 -0.11487547331E+02  0.15851267758E+02  0.59208868165E+02  0.47000000000E+01 0.  1.
         13    1    6    6    0    0  0.15076974146E+02  0.90572478472E+02 -0.95140023401E+02  0.13222069830E+03  0.00000000000E+00 0. -1.
        -14    1    6    6    0    0 -0.12835771130E+02 -0.12369509991E+02 -0.62208528163E+01  0.18880169694E+02  0.00000000000E+00 0.  1.
<mgrwt>
<rscale>  2 0.19335494E+03</rscale>
<asrwt>0</asrwt>
<pdfrwt beam="1">  1       21 0.10623218E-01 0.19376118E+03</pdfrwt>
<pdfrwt beam="2">  1       21 0.23986702E+00 0.19376118E+03</pdfrwt>
<totfact> 0.55588028E+03</totfact>
</mgrwt>
</event>
<event>
12    1  0.1039378E-001  0.2278377E+03  0.7546771E-02  0.1128427E+00
         21   -1    0    0  501  502  0.00000000000E+00  0.00000000000E+00  0.10056749114E+04  0.10056749114E+04  0.00000000000E+00 0. -1.
         21   -1    0    0  502  503 -0.00000000000E+00 -0.00000000000E+00 -0.51477445349E+02  0.51477445349E+02  0.00000000000E+00 0. -1.
         -6    2    1    2    0  503 -0.10533731129E+03  0.10307942189E+03  0.44698295253E+03  0.50170088101E+03  0.17374895045E+03 0.  0.
        -24    2    3    3    0    0 -0.64529163756E+02  0.52078694927E+00  0.29781516095E+03  0.31607572498E+03  0.83938725480E+02 0.  0.
          6    2    1    2  501    0  0.10533731129E+03 -0.10307942189E+03  0.50721451347E+03  0.55545147569E+03  0.17186757347E+03 0.  0.
         24    2    5    5    0    0  0.17581153272E+02 -0.11076271739E+03  0.31838036552E+03  0.34702738464E+03  0.80526219505E+02 0.  0.
          5    1    5    5  501    0  0.87756158016E+02  0.76832955030E+01  0.18883414795E+03  0.20842409105E+03  0.47000000000E+01 0. -1.
        -13    1    6    6    0    0  0.99245205963E+01 -0.46685926386E+02  0.24369026747E+03  0.24832039443E+03  0.00000000000E+00 0.  1.
         14    1    6    6    0    0  0.76566326754E+01 -0.64076791003E+02  0.74690098053E+02  0.98706990210E+02  0.00000000000E+00 0. -1.
         -5    1    3    3    0  503 -0.40808147531E+02  0.10255863494E+03  0.14916779158E+03  0.18562515603E+03  0.47000000000E+01 0.  1.
         13    1    4    4    0    0 -0.23357313254E+02 -0.39678105637E+02  0.16560235427E+03  0.17188384418E+03  0.00000000000E+00 0. -1.
        -14    1    4    4    0    0 -0.41171850503E+02  0.40198892586E+02  0.13221280668E+03  0.14419188080E+03  0.00000000000E+00 0.  1.
<mgrwt>
<rscale>  2 0.22747898E+03</rscale>
<asrwt>0</asrwt>
<pdfrwt beam="1">  1       21 0.15471920E+00 0.22783769E+03</pdfrwt>
<pdfrwt beam="2">  1       21 0.79196077E-02 0.22783769E+03</pdfrwt>
<totfact> 0.32937439E+04</totfact>
</mgrwt>
</event>
<event>
12    1  0.1039378E-001  0.2245134E+03  0.7546771E-02  0.1131828E+00
         21   -1    0    0  501  502  0.00000000000E+00  0.00000000000E+00  0.23554548225E+03  0.23554548225E+03  0.00000000000E+00 0. -1.
         21   -1    0    0  502  503 -0.00000000000E+00 -0.00000000000E+00 -0.25282352349E+03  0.25282352349E+03  0.00000000000E+00 0. -1.
         -6    2    1    2    0  503  0.10071441012E+03 -0.98844596823E+02 -0.11211208728E+03  0.25094894079E+03  0.17462131612E+03 0.  0.
        -24    2    3    3    0    0  0.27680194602E+02 -0.53084024229E+02  0.11539519283E+02  0.10015160512E+03  0.79454872107E+02 0.  0.
          6    2    1    2  501    0 -0.10071441012E+03  0.98844596823E+02  0.94834046034E+02  0.23742006494E+03  0.16571404353E+03 0.  0.
         24    2    5    5    0    0 -0.66492790690E+01  0.71450597657E+02  0.46709117392E+01  0.10419033532E+03  0.75395011370E+02 0.  0.
          5    1    5    5  501    0 -0.94065131053E+02  0.27393999165E+02  0.90163134294E+02  0.13322972963E+03  0.47000000000E+01 0. -1.
        -13    1    6    6    0    0  0.39941789511E+01 -0.12511887037E+02  0.13816825782E+02  0.19063196411E+02  0.00000000000E+00 0.  1.
         14    1    6    6    0    0 -0.10643458020E+02  0.83962484695E+02 -0.91459140425E+01  0.85127138907E+02  0.00000000000E+00 0. -1.
         -5    1    3    3    0  503  0.73034215520E+02 -0.45760572593E+02 -0.12365160656E+03  0.15079733567E+03  0.47000000000E+01 0.  1.
         11    1    4    4    0    0  0.45597293825E+02 -0.63508445941E+02  0.13466035329E+02  0.79333284424E+02  0.00000000000E+00 0. -1.
        -12    1    4    4    0    0 -0.17917099223E+02  0.10424421712E+02 -0.19265160466E+01  0.20818320698E+02  0.00000000000E+00 0.  1.
<mgrwt>
<rscale>  2 0.22277942E+03</rscale>
<asrwt>0</asrwt>
<pdfrwt beam="1">  1       21 0.36237767E-01 0.22451336E+03</pdfrwt>
<pdfrwt beam="2">  1       21 0.38895927E-01 0.22451336E+03</pdfrwt>
<totfact> 0.46095883E+04</totfact>
</mgrwt>
</event>
<event>
12    1  0.1039378E-001  0.1759291E+03  0.7546771E-02  0.1172049E+00
         21   -1    0    0  503  502  0.00000000000E+00  0.00000000000E+00  0.45252061900E+03  0.45252061900E+03  0.00000000000E+00 0. -1.
         21   -1    0    0  501  503 -0.00000000000E+00 -0.00000000000E+00 -0.11002063434E+03  0.11002063434E+03  0.00000000000E+00 0. -1.
          6    2    1    2  501    0  0.11451612735E+02  0.26080436923E+02 -0.22503323987E+01  0.17594348033E+03  0.17360793660E+03 0.  0.
         24    2    3    3    0    0 -0.95551591613E+01 -0.26347062762E+02 -0.52863471884E+02  0.99958566846E+02  0.80073089384E+02 0.  0.
         -6    2    1    2    0  502 -0.11451612735E+02 -0.26080436923E+02  0.34475031706E+03  0.38659777301E+03  0.17260859874E+03 0.  0.
        -24    2    5    5    0    0  0.64117548876E+02 -0.93925454821E+01  0.16619934082E+03  0.19193980368E+03  0.70847634842E+02 0.  0.
          5    1    3    3  501    0  0.21006771897E+02  0.52427499685E+02  0.50613139485E+02  0.75984913485E+02  0.47000000000E+01 0. -1.
        -13    1    4    4    0    0  0.29917830609E+02  0.78382444209E+01 -0.29539745487E+02  0.42768109935E+02  0.00000000000E+00 0.  1.
         14    1    4    4    0    0 -0.39472989771E+02 -0.34185307183E+02 -0.23323726397E+02  0.57190456911E+02  0.00000000000E+00 0. -1.
         -5    1    5    5    0  502 -0.75569161611E+02 -0.16687891441E+02  0.17855097624E+03  0.19465796933E+03  0.47000000000E+01 0.  1.
         13    1    6    6    0    0  0.13348969130E+02 -0.28731394265E+02  0.24088933100E+02  0.39799053897E+02  0.00000000000E+00 0. -1.
        -14    1    6    6    0    0  0.50768579746E+02  0.19338848783E+02  0.14211040772E+03  0.15214074978E+03  0.00000000000E+00 0.  1.
<mgrwt>
<rscale>  2 0.17568205E+03</rscale>
<asrwt>0</asrwt>
<pdfrwt beam="1">  1       21 0.69618556E-01 0.17592909E+03</pdfrwt>
<pdfrwt beam="2">  1       21 0.16926252E-01 0.17592909E+03</pdfrwt>
<totfact> 0.59430160E+04</totfact>
</mgrwt>
</event>
<event>
12    1  0.1039378E-001  0.1906240E+03  0.7546771E-02  0.1158392E+00
         21   -1    0    0  501  502  0.00000000000E+00  0.00000000000E+00  0.96668109048E+02  0.96668109048E+02  0.00000000000E+00 0.  1.
         21   -1    0    0  502  503 -0.00000000000E+00 -0.00000000000E+00 -0.70056991188E+03  0.70056991188E+03  0.00000000000E+00 0.  1.
         -6    2    1    2    0  503  0.48470007113E+02  0.63552654797E+02 -0.57602109169E+03  0.60674360102E+03  0.17305842303E+03 0.  0.
        -24    2    3    3    0    0  0.14079465322E+02  0.70854228174E+02 -0.18555835349E+03  0.21467311978E+03  0.80212797045E+02 0.  0.
          6    2    1    2  501    0 -0.48470007113E+02 -0.63552654797E+02 -0.27880711139E+02  0.19049441991E+03  0.17065318175E+03 0.  0.
         24    2    5    5    0    0  0.17100284866E+02 -0.71238017943E+02 -0.50648993133E+02  0.12050147268E+03  0.81166553887E+02 0.  0.
          5    1    5    5  501    0 -0.65570291979E+02  0.76853631460E+01  0.22768281994E+02  0.69992947229E+02  0.47000000000E+01 0. -1.
        -11    1    6    6    0    0 -0.28283818405E+02 -0.93740713196E+01 -0.24609963148E+01  0.29898229036E+02  0.00000000000E+00 0.  1.
         12    1    6    6    0    0  0.45384103271E+02 -0.61863946623E+02 -0.48187996818E+02  0.90603243644E+02  0.00000000000E+00 0. -1.
         -5    1    3    3    0  503  0.34390541791E+02 -0.73015733773E+01 -0.39046273820E+03  0.39207048124E+03  0.47000000000E+01 0.  1.
         13    1    4    4    0    0 -0.26866783712E+01 -0.17510765290E+02 -0.25023360761E+02  0.30659643271E+02  0.00000000000E+00 0. -1.
        -14    1    4    4    0    0  0.16766143693E+02  0.88364993464E+02 -0.16053499273E+03  0.18401347651E+03  0.00000000000E+00 0.  1.
<mgrwt>
<rscale>  2 0.19007639E+03</rscale>
<asrwt>0</asrwt>
<pdfrwt beam="1">  1       21 0.14872017E-01 0.19062397E+03</pdfrwt>
<pdfrwt beam="2">  1       21 0.10777998E+00 0.19062397E+03</pdfrwt>
<totfact> 0.27369805E+04</totfact>
</mgrwt>
</event>
<event>
12    1  0.1039378E-001  0.2408534E+03  0.7546771E-02  0.1119431E+00
         21   -1    0    0  503  502  0.00000000000E+00  0.00000000000E+00  0.12392490913E+03  0.12392490913E+03  0.00000000000E+00 0.  1.
         21   -1    0    0  501  503 -0.00000000000E+00 -0.00000000000E+00 -0.46667426809E+03  0.46667426809E+03  0.00000000000E+00 0.  1.
          6    2    1    2  501    0 -0.12611122359E+03 -0.10968718603E+03 -0.18526102364E+03  0.30386182017E+03  0.17342156550E+03 0.  0.
         24    2    3    3    0    0 -0.64375822334E+01 -0.75328271537E+02 -0.98052630467E+02  0.15177727368E+03  0.87785143995E+02 0.  0.
         -6    2    1    2    0  502  0.12611122359E+03  0.10968718603E+03 -0.15748833532E+03  0.28673735705E+03  0.17169862163E+03 0.  0.
        -24    2    5    5    0    0  0.12382207000E+03  0.17988715028E+02 -0.11149478813E+03  0.18401761118E+03  0.75999306287E+02 0.  0.
          5    1    3    3  501    0 -0.11967364136E+03 -0.34358914491E+02 -0.87208393177E+02  0.15208454649E+03  0.47000000000E+01 0. -1.
        -13    1    4    4    0    0 -0.24622472193E+02 -0.80426425487E+02 -0.10228084536E+03  0.13242374176E+03  0.00000000000E+00 0.  1.
         14    1    4    4    0    0  0.18184889959E+02  0.50981539495E+01  0.42282148972E+01  0.19353531919E+02  0.00000000000E+00 0. -1.
         -5    1    5    5    0  502  0.22891535874E+01  0.91698471001E+02 -0.45993547188E+02  0.10271974587E+03  0.47000000000E+01 0.  1.
         13    1    6    6    0    0  0.15258421481E+02  0.11151524851E+01  0.11469263885E+02  0.19120852628E+02  0.00000000000E+00 0. -1.
        -14    1    6    6    0    0  0.10856364852E+03  0.16873562543E+02 -0.12296405201E+03  0.16489675855E+03  0.00000000000E+00 0.  1.
<mgrwt>
<rscale>  2 0.24054340E+03</rscale>
<asrwt>0</asrwt>
<pdfrwt beam="1">  1       21 0.19065370E-01 0.24085340E+03</pdfrwt>
<pdfrwt beam="2">  1       21 0.71796042E-01 0.24085340E+03</pdfrwt>
<totfact> 0.43211679E+04</totfact>
</mgrwt>
</event>
<event>
12    1  0.1039378E-001  0.2485015E+03  0.7546771E-02  0.1114813E+00
         21   -1    0    0  503  502  0.00000000000E+00  0.00000000000E+00  0.98590832294E+02  0.98590832294E+02  0.00000000000E+00 0. -1.
         21   -1    0    0  501  503 -0.00000000000E+00 -0.00000000000E+00 -0.62986116364E+03  0.62986116364E+03  0.00000000000E+00 0. -1.
          6    2    1    2  501    0  0.17213759145E+03  0.18299267813E+02 -0.31456800957E+03  0.39873563663E+03  0.17340952016E+03 0.  0.
         24    2    3    3    0    0  0.13980144244E+03  0.68843748153E+02 -0.17546811625E+03  0.24717297188E+03  0.77598410030E+02 0.  0.
         -6    2    1    2    0  502 -0.17213759145E+03 -0.18299267813E+02 -0.21670232177E+03  0.32971635930E+03  0.17828843970E+03 0.  0.
        -24    2    5    5    0    0 -0.65193503262E+02 -0.56540761648E+02 -0.59707494288E+02  0.13588933407E+03  0.86335830601E+02 0.  0.
          5    1    3    3  501    0  0.32336149010E+02 -0.50544480339E+02 -0.13909989332E+03  0.15156266475E+03  0.47000000000E+01 0. -1.
        -11    1    4    4    0    0  0.26769923402E+02  0.41606230618E+02 -0.20777382789E+02  0.53660104927E+02  0.00000000000E+00 0.  1.
         12    1    4    4    0    0  0.11303151904E+03  0.27237517535E+02 -0.15469073346E+03  0.19351286695E+03  0.00000000000E+00 0. -1.
         -5    1    5    5    0  502 -0.10694408819E+03  0.38241493835E+02 -0.15699482749E+03  0.19382702522E+03  0.47000000000E+01 0.  1.
         11    1    6    6    0    0 -0.75130465288E+02 -0.13487862459E+02 -0.27193496021E+02  0.81030830392E+02  0.00000000000E+00 0. -1.
        -12    1    6    6    0    0  0.99369620265E+01 -0.43052899189E+02 -0.32513998267E+02  0.54858503682E+02  0.00000000000E+00 0.  1.
<mgrwt>
<rscale>  2 0.24762767E+03</rscale>
<asrwt>0</asrwt>
<pdfrwt beam="1">  1       21 0.15167821E-01 0.24850147E+03</pdfrwt>
<pdfrwt beam="2">  1       21 0.96901715E-01 0.24850147E+03</pdfrwt>
<totfact> 0.33036565E+04</totfact>
</mgrwt>
</event>
<event>
12    1  0.1039378E-001  0.2730629E+03  0.7546771E-02  0.1099597E+00
         21   -1    0    0  503  502  0.00000000000E+00  0.00000000000E+00  0.72999497112E+02  0.72999497112E+02  0.00000000000E+00 0. -1.
         21   -1    0    0  501  503 -0.00000000000E+00 -0.00000000000E+00 -0.10198931379E+04  0.10198931379E+04  0.00000000000E+00 0.  1.
          6    2    1    2  501    0  0.14441721796E+03 -0.15371448457E+03 -0.47184455759E+03  0.54495560396E+03  0.17278555538E+03 0.  0.
         24    2    3    3    0    0  0.70772789168E+01 -0.80284687708E+02 -0.17165769416E+03  0.20674200740E+03  0.82341816229E+02 0.  0.
         -6    2    1    2    0  502 -0.14441721796E+03  0.15371448457E+03 -0.47504908319E+03  0.54793703105E+03  0.17343264671E+03 0.  0.
        -24    2    5    5    0    0 -0.95513355938E+02  0.15779502908E+02 -0.19756904653E+03  0.23419365242E+03  0.80257989100E+02 0.  0.
          5    1    3    3  501    0  0.13733993904E+03 -0.73429796859E+02 -0.30018686343E+03  0.33821359656E+03  0.47000000000E+01 0. -1.
        -13    1    4    4    0    0 -0.15498984694E+02 -0.89315565083E+02 -0.14075471945E+03  0.16741977106E+03  0.00000000000E+00 0.  1.
         14    1    4    4    0    0  0.22576263611E+02  0.90308773744E+01 -0.30902974709E+02  0.39322236339E+02  0.00000000000E+00 0. -1.
         -5    1    5    5    0  502 -0.48903862023E+02  0.13793498166E+03 -0.27748003667E+03  0.31374337863E+03  0.47000000000E+01 0.  1.
         13    1    6    6    0    0 -0.33926977305E+02 -0.31232978713E+02 -0.53657509869E+02  0.70750739316E+02  0.00000000000E+00 0. -1.
        -14    1    6    6    0    0 -0.61586378633E+02  0.47012481621E+02 -0.14391153666E+03  0.16344291310E+03  0.00000000000E+00 0.  1.
<mgrwt>
<rscale>  2 0.27296023E+03</rscale>
<asrwt>0</asrwt>
<pdfrwt beam="1">  1       21 0.11230693E-01 0.27306292E+03</pdfrwt>
<pdfrwt beam="2">  1       21 0.15690662E+00 0.27306292E+03</pdfrwt>
<totfact> 0.16682461E+04</totfact>
</mgrwt>
</event>
<event>
12    1  0.1039378E-001  0.1842701E+03  0.7546771E-02  0.1164025E+00
         21   -1    0    0  501  502  0.00000000000E+00  0.00000000000E+00  0.13174854672E+04  0.13174854672E+04  0.00000000000E+00 0.  1.
         21   -1    0    0  502  503 -0.00000000000E+00 -0.00000000000E+00 -0.46145807004E+02  0.46145807004E+02  0.00000000000E+00 0.  1.
         -6    2    1    2    0  503  0.54064144545E+02  0.29208687320E+02  0.17953143864E+03  0.25638212796E+03  0.17240701534E+03 0.  0.
        -24    2    3    3    0    0 -0.27356595904E+02  0.45710451907E+02  0.67075324847E+02  0.11648890890E+03  0.78947691167E+02 0.  0.
          6    2    1    2  501    0 -0.54064144545E+02 -0.29208687320E+02  0.10918082215E+04  0.11072491462E+04  0.17372219219E+03 0.  0.
         24    2    5    5    0    0  0.27091978258E+02 -0.81244558930E+01  0.75934966020E+03  0.76434734382E+03  0.82552852737E+02 0.  0.
          5    1    5    5  501    0 -0.81156122803E+02 -0.21084231427E+02  0.33245856134E+03  0.34290180240E+03  0.47000000000E+01 0. -1.
        -13    1    6    6    0    0 -0.10246656608E+02  0.13074046996E+02  0.56786447835E+03  0.56810737581E+03  0.00000000000E+00 0.  1.
         14    1    6    6    0    0  0.37338634867E+02 -0.21198502889E+02  0.19148518185E+03  0.19623996801E+03  0.00000000000E+00 0. -1.
         -5    1    3    3    0  503  0.81420740449E+02 -0.16501764587E+02  0.11245611380E+03  0.13989321906E+03  0.47000000000E+01 0.  1.
         11    1    4    4    0    0 -0.19523413141E+02  0.68230745882E+02  0.54844486811E+02  0.89691226315E+02  0.00000000000E+00 0. -1.
        -12    1    4    4    0    0 -0.78331827629E+01 -0.22520293975E+02  0.12230838037E+02  0.26797682587E+02  0.00000000000E+00 0.  1.
<mgrwt>
<rscale>  2 0.18395950E+03</rscale>
<asrwt>0</asrwt>
<pdfrwt beam="1">  1       21 0.20269004E+00 0.18427013E+03</pdfrwt>
<pdfrwt beam="2">  1       21 0.70993559E-02 0.18427013E+03</pdfrwt>
<totfact> 0.19176297E+04</totfact>
</mgrwt>
</event>
<event>
12    1  0.1039378E-001  0.1741348E+03  0.7546771E-02  0.1173762E+00
         21   -1    0    0  501  502  0.00000000000E+00  0.00000000000E+00  0.25316342455E+03  0.25316342455E+03  0.00000000000E+00 0. -1.
         21   -1    0    0  502  503 -0.00000000000E+00 -0.00000000000E+00 -0.15041332858E+03  0.15041332858E+03  0.00000000000E+00 0. -1.
         -6    2    1    2    0  503 -0.54791575545E+01  0.60734830202E+01 -0.40407976034E+02  0.17815014559E+03  0.17331405449E+03 0.  0.
        -24    2    3    3    0    0  0.11649969922E+02 -0.63550474248E+02 -0.40717998671E+01  0.97631140799E+02  0.73081293936E+02 0.  0.
          6    2    1    2  501    0  0.54791575545E+01 -0.60734830202E+01  0.14315807200E+03  0.22542660754E+03  0.17394255789E+03 0.  0.
         24    2    5    5    0    0  0.34296203827E+02 -0.62908678718E+02  0.96827711895E+02  0.14650098500E+03  0.83385858276E+02 0.  0.
          5    1    5    5  501    0 -0.28817046273E+02  0.56835195698E+02  0.46330360106E+02  0.78925622541E+02  0.47000000000E+01 0. -1.
        -13    1    6    6    0    0 -0.17955633028E+02 -0.50898708682E+02  0.33493824871E+02  0.63521017053E+02  0.00000000000E+00 0.  1.
         14    1    6    6    0    0  0.52251836856E+02 -0.12009970036E+02  0.63333887024E+02  0.82979967948E+02  0.00000000000E+00 0. -1.
         -5    1    3    3    0  503 -0.17129127477E+02  0.69623957268E+02 -0.36336176167E+02  0.80519004789E+02  0.47000000000E+01 0.  1.
         11    1    4    4    0    0 -0.16852363918E+02 -0.41635238925E+02 -0.29372339768E+02  0.53667770900E+02  0.00000000000E+00 0. -1.
        -12    1    4    4    0    0  0.28502333840E+02 -0.21915235323E+02  0.25300539901E+02  0.43963369899E+02  0.00000000000E+00 0.  1.
<mgrwt>
<rscale>  2 0.17397762E+03</rscale>
<asrwt>0</asrwt>
<pdfrwt beam="1">  1       21 0.38948219E-01 0.17413478E+03</pdfrwt>
<pdfrwt beam="2">  1       21 0.23140512E-01 0.17413478E+03</pdfrwt>
<totfact> 0.11227147E+05</totfact>
</mgrwt>
</event>
<event>
12    1  0.1039378E-001  0.2459332E+03  0.7546771E-02  0.1116040E+00
         21   -1    0    0  501  502  0.00000000000E+00  0.00000000000E+00  0.23159167389E+03  0.23159167389E+03  0.00000000000E+00 0.  1.
         21   -1    0    0  502  503 -0.00000000000E+00 -0.00000000000E+00 -0.48692948017E+03  0.48692948017E+03  0.00000000000E+00 0.  1.
         -6    2    1    2    0  503  0.12605910794E+03 -0.12042798271E+03 -0.37290457873E+03  0.44670006845E+03  0.17346275854E+03 0.  0.
        -24    2    3    3    0    0  0.42402097167E+02  0.93804867784E+01 -0.16042654848E+03  0.18398779705E+03  0.78923384567E+02 0.  0.
          6    2    1    2  501    0 -0.12605910794E+03  0.12042798271E+03  0.11756677245E+03  0.27182108561E+03  0.17225260197E+03 0.  0.
         24    2    5    5    0    0 -0.13615111585E+03  0.14371558450E+03  0.84875091300E+02  0.23016778998E+03  0.81130357114E+02 0.  0.
          5    1    5    5  501    0  0.10092007910E+02 -0.23287601793E+02  0.32691681152E+02  0.41653295637E+02  0.47000000000E+01 0. -1.
        -11    1    6    6    0    0 -0.64960586158E+02  0.10149900425E+03  0.84883140340E+02  0.14740106218E+03  0.00000000000E+00 0.  1.
         12    1    6    6    0    0 -0.71190529691E+02  0.42216580249E+02 -0.80490407423E-02  0.82766727798E+02  0.00000000000E+00 0. -1.
         -5    1    3    3    0  503  0.83657010773E+02 -0.12980846948E+03 -0.21247803026E+03  0.26271227140E+03  0.47000000000E+01 0.  1.
         11    1    4    4    0    0 -0.16823437379E+02  0.69881336436E+01 -0.70106910949E+01  0.19519524756E+02  0.00000000000E+00 0. -1.
        -12    1    4    4    0    0  0.59225534546E+02  0.23923531347E+01 -0.15341585738E+03  0.16446827230E+03  0.00000000000E+00 0.  1.
<mgrwt>
<rscale>  2 0.24571988E+03</rscale>
<asrwt>0</asrwt>
<pdfrwt beam="1">  1       21 0.35629489E-01 0.24593317E+03</pdfrwt>
<pdfrwt beam="2">  1       21 0.74912227E-01 0.24593317E+03</pdfrwt>
<totfact> 0.11718131E+04</totfact>
</mgrwt>
</event>
<event>
12    1  0.1039378E-001  0.1798996E+03  0.7546771E-02  0.1168156E+00
         21   -1    0    0  503  502  0.00000000000E+00  0.00000000000E+00  0.31977513547E+02  0.31977513547E+02  0.00000000000E+00 0. -1.
         21   -1    0    0  501  503 -0.00000000000E+00 -0.00000000000E+00 -0.10597475609E+04  0.10597475609E+04  0.00000000000E+00 0. -1.
          6    2    1    2  501    0  0.18526824386E+02 -0.45176746244E+02 -0.63518686139E+03  0.65988551142E+03  0.17205335708E+03 0.  0.
         24    2    3    3    0    0  0.31808724246E+01  0.28669214745E+02 -0.19167950283E+03  0.20998597676E+03  0.80752936830E+02 0.  0.
         -6    2    1    2    0  502 -0.18526824386E+02  0.45176746244E+02 -0.39258318600E+03  0.43183956306E+03  0.17314637932E+03 0.  0.
        -24    2    5    5    0    0 -0.20176471326E+02  0.63732206312E+02 -0.12299483962E+03  0.16156749100E+03  0.80668701846E+02 0.  0.
          5    1    3    3  501    0  0.15345951961E+02 -0.73845960990E+02 -0.44350735856E+03  0.44989953466E+03  0.47000000000E+01 0. -1.
        -13    1    4    4    0    0  0.41845468531E+02  0.11605919232E+02 -0.93126992277E+02  0.10275396483E+03  0.00000000000E+00 0.  1.
         14    1    4    4    0    0 -0.38664596107E+02  0.17063295514E+02 -0.98552510554E+02  0.10723201193E+03  0.00000000000E+00 0. -1.
         -5    1    5    5    0  502  0.16496469409E+01 -0.18555460067E+02 -0.26958834638E+03  0.27027207206E+03  0.47000000000E+01 0.  1.
         13    1    6    6    0    0 -0.33537885627E+02  0.16370734742E+02 -0.10098334399E+03  0.10765884307E+03  0.00000000000E+00 0. -1.
        -14    1    6    6    0    0  0.13361414301E+02  0.47361471570E+02 -0.22011495634E+02  0.53908647929E+02  0.00000000000E+00 0.  1.
<mgrwt>
<rscale>  2 0.17963604E+03</rscale>
<asrwt>0</asrwt>
<pdfrwt beam="1">  1       21 0.49196182E-02 0.17989956E+03</pdfrwt>
<pdfrwt beam="2">  1       21 0.16303806E+00 0.17989956E+03</pdfrwt>
<totfact> 0.66601156E+04</totfact>
</mgrwt>
</event>
<event>
12    1  0.1039378E-001  0.1964048E+03  0.7546771E-02  0.1152861E+00
         21   -1    0    0  501  502  0.00000000000E+00  0.00000000000E+00  0.57129133472E+03  0.57129133472E+03  0.00000000000E+00 0. -1.
         21   -1    0    0  502  503 -0.00000000000E+00 -0.00000000000E+00 -0.67531192028E+02  0.67531192028E+02  0.00000000000E+00 0. -1.
         -6    2    1    2    0  503 -0.83002774205E+02 -0.42566899155E+02  0.23986699304E+03  0.30986289180E+03  0.17256139758E+03 0.  0.
        -24    2    3    3    0    0 -0.11132232173E+03 -0.62045792298E+02  0.14818036260E+03  0.21183252788E+03  0.81690025995E+02 0.  0.
          6    2    1    2  501    0  0.83002774205E+02  0.42566899155E+02  0.26389314965E+03  0.32895963494E+03  0.17283936346E+03 0.  0.
         24    2    5    5    0    0 -0.38862003317E+02  0.29994216293E+02  0.94260139036E+02  0.11965950440E+03  0.54986497159E+02 0.  0.
          5    1    5    5  501    0  0.12186477752E+03  0.12572682863E+02  0.16963301061E+03  0.20930013054E+03  0.47000000000E+01 0. -1.
        -11    1    6    6    0    0 -0.24909856824E+02 -0.11876521023E+02  0.50267752217E+02  0.57344569330E+02  0.00000000000E+00 0.  1.
         12    1    6    6    0    0 -0.13952146493E+02  0.41870737316E+02  0.43992386818E+02  0.62314935072E+02  0.00000000000E+00 0. -1.
         -5    1    3    3    0  503  0.28319547529E+02  0.19478893143E+02  0.91686630436E+02  0.98030363924E+02  0.47000000000E+01 0.  1.
         13    1    4    4    0    0 -0.50650034186E+02 -0.59981648023E+02  0.12341378793E+03  0.14626751900E+03  0.00000000000E+00 0. -1.
        -14    1    4    4    0    0 -0.60672287548E+02 -0.20641442753E+01  0.24766574668E+02  0.65565008874E+02  0.00000000000E+00 0.  1.
<mgrwt>
<rscale>  2 0.19634363E+03</rscale>
<asrwt>0</asrwt>
<pdfrwt beam="1">  1       21 0.87890971E-01 0.19640480E+03</pdfrwt>
<pdfrwt beam="2">  1       21 0.10389415E-01 0.19640480E+03</pdfrwt>
<totfact> 0.84025186E+04</totfact>
</mgrwt>
</event>
<event>
12    1  0.1039378E-001  0.2106450E+03  0.7546771E-02  0.1141073E+00
         21   -1    0    0  501  502  0.00000000000E+00  0.00000000000E+00  0.11061860329E+03  0.11061860329E+03  0.00000000000E+00 0.  1.
         21   -1    0    0  502  503 -0.00000000000E+00 -0.00000000000E+00 -0.53238339294E+03  0.53238339294E+03  0.00000000000E+00 0. -1.
         -6    2    1    2    0  503  0.99994037316E+02  0.67453508384E+02 -0.37059049257E+03  0.42622992821E+03  0.17258579091E+03 0.  0.
        -24    2    3    3    0    0  0.59308594585E+02  0.78631534002E+02 -0.36081976328E+03  0.38266605949E+03  0.80882531978E+02 0.  0.
          6    2    1    2  501    0 -0.99994037316E+02 -0.67453508384E+02 -0.51174297086E+02  0.21677206802E+03  0.17269203080E+03 0.  0.
         24    2    5    5    0    0 -0.10757369700E+03 -0.77503783186E+02  0.76856581087E+01  0.15639787163E+03  0.82597144110E+02 0.  0.
          5    1    5    5  501    0  0.75796596882E+01  0.10050274803E+02 -0.58859955194E+02  0.60374196393E+02  0.47000000000E+01 0. -1.
        -13    1    6    6    0    0 -0.77670679392E+02 -0.73549189437E+02 -0.27108044171E+02  0.11034973386E+03  0.00000000000E+00 0.  1.
         14    1    6    6    0    0 -0.29903017612E+02 -0.39545937497E+01  0.34793702280E+02  0.46048137773E+02  0.00000000000E+00 0. -1.
         -5    1    3    3    0  503  0.40685442731E+02 -0.11178025619E+02 -0.97707292882E+01  0.43563868719E+02  0.47000000000E+01 0.  1.
         13    1    4    4    0    0  0.96245931578E+01 -0.11650933210E+02 -0.13107045753E+02  0.20004291702E+02  0.00000000000E+00 0. -1.
        -14    1    4    4    0    0  0.49684001427E+02  0.90282467212E+02 -0.34771271753E+03  0.36266176779E+03  0.00000000000E+00 0.  1.
<mgrwt>
<rscale>  2 0.21062324E+03</rscale>
<asrwt>0</asrwt>
<pdfrwt beam="1">  1       21 0.17018247E-01 0.21064501E+03</pdfrwt>
<pdfrwt beam="2">  1       21 0.81905136E-01 0.21064501E+03</pdfrwt>
<totfact> 0.40220618E+04</totfact>
</mgrwt>
</event>
<event>
12    1  0.1039378E-001  0.1985215E+03  0.7546771E-02  0.1151330E+00
         21   -1    0    0  503  502  0.00000000000E+00  0.00000000000E+00  0.10936453291E+03  0.10936453291E+03  0.00000000000E+00 0.  1.
         21   -1    0    0  501  503 -0.00000000000E+00 -0.00000000000E+00 -0.40321166354E+03  0.40321166354E+03  0.00000000000E+00 0.  1.
          6    2    1    2  501    0 -0.47631814021E+02 -0.80579338446E+02 -0.23373538955E+03  0.30666436198E+03  0.17506849827E+03 0.  0.
         24    2    3    3    0    0 -0.77074064833E+02 -0.19287597556E+02 -0.77975773613E+02  0.13664474078E+03  0.79241031183E+02 0.  0.
         -6    2    1    2    0  502  0.47631814021E+02  0.80579338446E+02 -0.60111741070E+02  0.20591183447E+03  0.17327562630E+03 0.  0.
        -24    2    5    5    0    0 -0.34831314427E+02  0.46288604766E+01 -0.24682111088E+02  0.88242843918E+02  0.77090505777E+02 0.  0.
          5    1    3    3  501    0  0.29442250812E+02 -0.61291740890E+02 -0.15575961594E+03  0.17001962120E+03  0.47000000000E+01 0. -1.
        -11    1    4    4    0    0 -0.39924827878E+02 -0.50011601300E+02 -0.43543668857E+02  0.77402863275E+02  0.00000000000E+00 0.  1.
         12    1    4    4    0    0 -0.37149236955E+02  0.30724003744E+02 -0.34432104756E+02  0.59241877505E+02  0.00000000000E+00 0. -1.
         -5    1    5    5    0  502  0.82463128448E+02  0.75950477969E+02 -0.35429629982E+02  0.11766899055E+03  0.47000000000E+01 0.  1.
         13    1    6    6    0    0 -0.21834289726E+02  0.68946675428E+01 -0.52598403021E+02  0.57366058333E+02  0.00000000000E+00 0. -1.
        -14    1    6    6    0    0 -0.12997024701E+02 -0.22658070662E+01  0.27916291933E+02  0.30876785585E+02  0.00000000000E+00 0.  1.
<mgrwt>
<rscale>  2 0.19812554E+03</rscale>
<asrwt>0</asrwt>
<pdfrwt beam="1">  1       21 0.16825312E-01 0.19852153E+03</pdfrwt>
<pdfrwt beam="2">  1       21 0.62032565E-01 0.19852153E+03</pdfrwt>
<totfact> 0.76487138E+04</totfact>
</mgrwt>
</event>
<event>
12    1  0.1039378E-001  0.1955736E+03  0.7546771E-02  0.1154106E+00
         21   -1    0    0  501  502  0.00000000000E+00  0.00000000000E+00  0.15713385519E+03  0.15713385519E+03  0.00000000000E+00 0.  1.
         21   -1    0    0  502  503 -0.00000000000E+00 -0.00000000000E+00 -0.27329316336E+03  0.27329316336E+03  0.00000000000E+00 0.  1.
         -6    2    1    2    0  503 -0.83227470590E+02  0.93193568289E+01  0.16530667887E+02  0.19627098889E+03  0.17673532704E+03 0.  0.
        -24    2    3    3    0    0  0.98967399322E+01 -0.33889202456E+02 -0.79855870307E+01  0.90619510261E+02  0.83076486055E+02 0.  0.
          6    2    1    2  501    0  0.83227470590E+02 -0.93193568289E+01 -0.13268997606E+03  0.23415602967E+03  0.17380665755E+03 0.  0.
         24    2    5    5    0    0  0.10688754323E+03 -0.59128855871E+01 -0.15230299424E+03  0.20288042310E+03  0.80649580946E+02 0.  0.
          5    1    5    5  501    0 -0.23660072643E+02 -0.34064712418E+01  0.19613018185E+02  0.31275606566E+02  0.47000000000E+01 0. -1.
        -13    1    6    6    0    0 -0.90864777523E+01 -0.14257907768E+02 -0.12399080097E+02  0.20966382595E+02  0.00000000000E+00 0.  1.
         14    1    6    6    0    0  0.11597402099E+03  0.83450221813E+01 -0.13990391415E+03  0.18191404050E+03  0.00000000000E+00 0. -1.
         -5    1    3    3    0  503 -0.93124210523E+02  0.43208559284E+02  0.24516254918E+02  0.10565147863E+03  0.47000000000E+01 0.  1.
         13    1    4    4    0    0 -0.21122654729E+02 -0.39529990271E+01 -0.34034978416E+02  0.40251366435E+02  0.00000000000E+00 0. -1.
        -14    1    4    4    0    0  0.31019394661E+02 -0.29936203428E+02  0.26049391386E+02  0.50368143825E+02  0.00000000000E+00 0.  1.
<mgrwt>
<rscale>  2 0.19490962E+03</rscale>
<asrwt>0</asrwt>
<pdfrwt beam="1">  1       21 0.24174440E-01 0.19557361E+03</pdfrwt>
<pdfrwt beam="2">  1       21 0.42045101E-01 0.19557361E+03</pdfrwt>
<totfact> 0.87810120E+04</totfact>
</mgrwt>
</event>
<event>
12    1  0.1039378E-001  0.1809420E+03  0.7546771E-02  0.1166981E+00
         21   -1    0    0  501  502  0.00000000000E+00  0.00000000000E+00  0.71040386009E+03  0.71040386009E+03  0.00000000000E+00 0.  1.
         21   -1    0    0  502  503 -0.00000000000E+00 -0.00000000000E+00 -0.49118328675E+02  0.49118328675E+02  0.00000000000E+00 0.  1.
         -6    2    1    2    0  503  0.52671417684E+02  0.50156886422E+01  0.23518159044E+03  0.29673284333E+03  0.17303342006E+03 0.  0.
        -24    2    3    3    0    0  0.74965577189E+01 -0.27916209418E+02  0.22386614879E+03  0.23950167086E+03  0.80059257083E+02 0.  0.
          6    2    1    2  501    0 -0.52671417684E+02 -0.50156886422E+01  0.42610394098E+03  0.46278934543E+03  0.17265565256E+03 0.  0.
         24    2    5    5    0    0 -0.42978331533E+02  0.63069797327E+02  0.23409103335E+03  0.25877798297E+03  0.79639790683E+02 0.  0.
          5    1    5    5  501    0 -0.96930861503E+01 -0.68085485970E+02  0.19201290763E+03  0.20401136246E+03  0.47000000000E+01 0. -1.
        -13    1    6    6    0    0  0.24176344370E+01 -0.39987742585E+01  0.11302140542E+03  0.11311796160E+03  0.00000000000E+00 0.  1.
         14    1    6    6    0    0 -0.45395965970E+02  0.67068571586E+02  0.12106962793E+03  0.14566002138E+03  0.00000000000E+00 0. -1.
         -5    1    3    3    0  503  0.45174859965E+02  0.32931898061E+02  0.11315441651E+02  0.57231172471E+02  0.47000000000E+01 0.  1.
         11    1    4    4    0    0 -0.32638742571E+02  0.43599524611E+01  0.10250589151E+03  0.10766501055E+03  0.00000000000E+00 0. -1.
        -12    1    4    4    0    0  0.40135300290E+02 -0.32276161879E+02  0.12136025728E+03  0.13183666031E+03  0.00000000000E+00 0.  1.
<mgrwt>
<rscale>  2 0.18085161E+03</rscale>
<asrwt>0</asrwt>
<pdfrwt beam="1">  1       21 0.10929289E+00 0.18094198E+03</pdfrwt>
<pdfrwt beam="2">  1       21 0.75566664E-02 0.18094198E+03</pdfrwt>
<totfact> 0.88346767E+04</totfact>
</mgrwt>
</event>
<event>
12    1  0.1039378E-001  0.2441137E+03  0.7546771E-02  0.1117884E+00
         21   -1    0    0  501  502  0.00000000000E+00  0.00000000000E+00  0.40621016964E+03  0.40621016964E+03  0.00000000000E+00 0. -1.
         21   -1    0    0  502  503 -0.00000000000E+00 -0.00000000000E+00 -0.19938940920E+03  0.19938940920E+03  0.00000000000E+00 0. -1.
         -6    2    1    2    0  503 -0.15641870895E+03 -0.69694106731E+02  0.26405182574E+03  0.35960375327E+03  0.17397531913E+03 0.  0.
        -24    2    3    3    0    0 -0.15644362823E+03 -0.97450970046E+02  0.26396896145E+03  0.33145164947E+03  0.78799003492E+02 0.  0.
          6    2    1    2  501    0  0.15641870895E+03  0.69694106731E+02 -0.57231065299E+02  0.24599582557E+03  0.16707624110E+03 0.  0.
         24    2    5    5    0    0  0.29210413265E+02 -0.19507359347E+01  0.11088508908E+02  0.84736443854E+02  0.78741706061E+02 0.  0.
          5    1    5    5  501    0  0.12720829569E+03  0.71644842666E+02 -0.68319574208E+02  0.16125938172E+03  0.47000000000E+01 0. -1.
        -13    1    6    6    0    0 -0.47500227094E+01  0.31120202294E+02  0.18864867538E+02  0.36700312448E+02  0.00000000000E+00 0.  1.
         14    1    6    6    0    0  0.33960435975E+02 -0.33070938229E+02 -0.77763586294E+01  0.48036131406E+02  0.00000000000E+00 0. -1.
         -5    1    3    3    0  503  0.24919273655E-01  0.27756863315E+02  0.82864294490E-01  0.28152103803E+02  0.47000000000E+01 0.  1.
         13    1    4    4    0    0 -0.54282507718E+02 -0.80009987794E+02  0.12154394523E+03  0.15530975311E+03  0.00000000000E+00 0. -1.
        -14    1    4    4    0    0 -0.10216112051E+03 -0.17440982252E+02  0.14242501622E+03  0.17614189635E+03  0.00000000000E+00 0.  1.
<mgrwt>
<rscale>  2 0.24288751E+03</rscale>
<asrwt>0</asrwt>
<pdfrwt beam="1">  1       21 0.62493872E-01 0.24411369E+03</pdfrwt>
<pdfrwt beam="2">  1       21 0.30675294E-01 0.24411369E+03</pdfrwt>
<totfact> 0.23558892E+04</totfact>
</mgrwt>
</event>
<event>
12    1  0.1039378E-001  0.2009628E+03  0.7546771E-02  0.1149042E+00
         21   -1    0    0  501  502  0.00000000000E+00  0.00000000000E+00  0.23484115251E+03  0.23484115251E+03  0.00000000000E+00 0.  1.
         21   -1    0    0  502  503 -0.00000000000E+00 -0.00000000000E+00 -0.51746679458E+03  0.51746679458E+03  0.00000000000E+00 0.  1.
         -6    2    1    2    0  503 -0.66515006242E+02  0.76524841636E+02 -0.44881298265E+03  0.49153165325E+03  0.17288717509E+03 0.  0.
        -24    2    3    3    0    0  0.35613508177E+02  0.29729213792E+01 -0.16228709466E+03  0.17854716015E+03  0.65305643554E+02 0.  0.
          6    2    1    2  501    0  0.66515006242E+02 -0.76524841636E+02  0.16618734058E+03  0.26077629383E+03  0.17351007410E+03 0.  0.
         24    2    5    5    0    0 -0.30858894810E+02 -0.24667935989E+02  0.85447250932E+02  0.12398496609E+03  0.80686186367E+02 0.  0.
          5    1    5    5  501    0  0.97373901051E+02 -0.51856905647E+02  0.80740089644E+02  0.13679132774E+03  0.47000000000E+01 0. -1.
        -13    1    6    6    0    0  0.57882413706E+01 -0.46630570857E+02  0.41467970507E+02  0.62669820923E+02  0.00000000000E+00 0.  1.
         14    1    6    6    0    0 -0.36647136180E+02  0.21962634867E+02  0.43979280426E+02  0.61315145171E+02  0.00000000000E+00 0. -1.
         -5    1    3    3    0  503 -0.10212851442E+03  0.73551920257E+02 -0.28652588799E+03  0.31298449310E+03  0.47000000000E+01 0.  1.
         13    1    4    4    0    0  0.14542827845E+01 -0.48825658532E+01 -0.13236054428E+03  0.13245855227E+03  0.00000000000E+00 0. -1.
        -14    1    4    4    0    0  0.34159225392E+02  0.78554872325E+01 -0.29926550380E+02  0.46088607884E+02  0.00000000000E+00 0.  1.
<mgrwt>
<rscale>  2 0.20082827E+03</rscale>
<asrwt>0</asrwt>
<pdfrwt beam="1">  1       21 0.36129408E-01 0.20096279E+03</pdfrwt>
<pdfrwt beam="2">  1       21 0.79610277E-01 0.20096279E+03</pdfrwt>
<totfact> 0.10214492E+04</totfact>
</mgrwt>
</event>
<event>
12    1  0.1039378E-001  0.2140951E+03  0.7546771E-02  0.1139753E+00
         21   -1    0    0  503  502  0.00000000000E+00  0.00000000000E+00  0.19310434759E+04  0.19310434759E+04  0.00000000000E+00 0. -1.
         21   -1    0    0  501  503 -0.00000000000E+00 -0.00000000000E+00 -0.49451274801E+02  0.49451274801E+02  0.00000000000E+00 0.  1.
          6    2    1    2  501    0  0.30692527842E+02  0.10588906855E+03  0.20872558617E+03  0.29398373246E+03  0.17522995898E+03 0.  0.
         24    2    3    3    0    0  0.36054419255E+02  0.27009499395E+02  0.17358266887E+02  0.86874396116E+02  0.72224767676E+02 0.  0.
         -6    2    1    2    0  502 -0.30692527842E+02 -0.10588906855E+03  0.16728666149E+04  0.16865110182E+04  0.18352704760E+03 0.  0.
        -24    2    5    5    0    0 -0.74006775425E+02 -0.31459944273E+02  0.62821778868E+03  0.63830823310E+03  0.79454889927E+02 0.  0.
          5    1    3    3  501    0 -0.53618914128E+01  0.78879569159E+02  0.19136731928E+03  0.20710933634E+03  0.47000000000E+01 0. -1.
        -13    1    4    4    0    0  0.57161300021E+01  0.43850402251E+02  0.25753747466E+02  0.51174089423E+02  0.00000000000E+00 0.  1.
         14    1    4    4    0    0  0.30338289253E+02 -0.16840902856E+02 -0.83954805794E+01  0.35700306693E+02  0.00000000000E+00 0. -1.
         -5    1    5    5    0  502  0.43314247582E+02 -0.74429124281E+02  0.10446488262E+04  0.10482027851E+04  0.47000000000E+01 0.  1.
         11    1    6    6    0    0 -0.56458332766E+02  0.80041481370E+01  0.20158650684E+03  0.20949637101E+03  0.00000000000E+00 0. -1.
        -12    1    6    6    0    0 -0.17548442658E+02 -0.39464092410E+02  0.42663128184E+03  0.42881186210E+03  0.00000000000E+00 0.  1.
<mgrwt>
<rscale>  2 0.21230568E+03</rscale>
<asrwt>0</asrwt>
<pdfrwt beam="1">  1       21 0.29708355E+00 0.21409508E+03</pdfrwt>
<pdfrwt beam="2">  1       21 0.76078899E-02 0.21409508E+03</pdfrwt>
<totfact> 0.45368906E+03</totfact>
</mgrwt>
</event>
<event>
12    1  0.1039378E-001  0.2185988E+03  0.7546771E-02  0.1135709E+00
         21   -1    0    0  501  502  0.00000000000E+00  0.00000000000E+00  0.35995232521E+03  0.35995232521E+03  0.00000000000E+00 0.  1.
         21   -1    0    0  502  503 -0.00000000000E+00 -0.00000000000E+00 -0.18860110195E+03  0.18860110195E+03  0.00000000000E+00 0.  1.
         -6    2    1    2    0  503  0.94498308720E+02  0.92660637357E+02 -0.67400348949E+02  0.22484408961E+03  0.16880797827E+03 0.  0.
        -24    2    3    3    0    0  0.10105520679E+03  0.62246330670E+02  0.69774395596E+01  0.14408414665E+03  0.81392850736E+02 0.  0.
          6    2    1    2  501    0 -0.94498308720E+02 -0.92660637357E+02  0.23875157221E+03  0.32370933755E+03  0.17398131485E+03 0.  0.
         24    2    5    5    0    0 -0.71938689304E+02 -0.49339426838E+02  0.46274375125E+02  0.12507594381E+03  0.76766658569E+02 0.  0.
          5    1    5    5  501    0 -0.22559619415E+02 -0.43321210519E+02  0.19247719709E+03  0.19863339374E+03  0.47000000000E+01 0. -1.
        -11    1    6    6    0    0 -0.58191064961E+02 -0.44203583715E+02  0.67360112233E+02  0.99385821799E+02  0.00000000000E+00 0.  1.
         12    1    6    6    0    0 -0.13747624343E+02 -0.51358431234E+01 -0.21085737108E+02  0.25690122014E+02  0.00000000000E+00 0. -1.
         -5    1    3    3    0  503 -0.65568980688E+01  0.30414306687E+02 -0.74377788509E+02  0.80759942960E+02  0.47000000000E+01 0.  1.
         13    1    4    4    0    0  0.74707412899E+02  0.20240184152E+01 -0.11939448907E+02  0.75682525280E+02  0.00000000000E+00 0. -1.
        -14    1    4    4    0    0  0.26347793890E+02  0.60222312255E+02  0.18916888467E+02  0.68401621366E+02  0.00000000000E+00 0.  1.
<mgrwt>
<rscale>  2 0.21756786E+03</rscale>
<asrwt>0</asrwt>
<pdfrwt beam="1">  1       21 0.55377281E-01 0.21859877E+03</pdfrwt>
<pdfrwt beam="2">  1       21 0.29015554E-01 0.21859877E+03</pdfrwt>
<totfact> 0.34489213E+04</totfact>
</mgrwt>
</event>
<event>
12    1  0.1039378E-001  0.2010915E+03  0.7546771E-02  0.1148928E+00
         21   -1    0    0  501  502  0.00000000000E+00  0.00000000000E+00  0.61767458658E+02  0.61767458658E+02  0.00000000000E+00 0. -1.
         21   -1    0    0  502  503 -0.00000000000E+00 -0.00000000000E+00 -0.77389890698E+03  0.77389890698E+03  0.00000000000E+00 0. -1.
         -6    2    1    2    0  503  0.57737057613E+02  0.85775899554E+02 -0.52081558773E+03  0.55810635985E+03  0.17188007364E+03 0.  0.
        -24    2    3    3    0    0  0.89855986360E+02  0.13558859713E+02 -0.30416259521E+03  0.32743877306E+03  0.80270323378E+02 0.  0.
          6    2    1    2  501    0 -0.57737057613E+02 -0.85775899554E+02 -0.19131586059E+03  0.27756000579E+03  0.17247239064E+03 0.  0.
         24    2    5    5    0    0  0.25703974175E+01  0.69836208346E-01 -0.43375032016E+02  0.96134929683E+02  0.85754996838E+02 0.  0.
          5    1    5    5  501    0 -0.60307455030E+02 -0.85845735763E+02 -0.14794082858E+03  0.18142507611E+03  0.47000000000E+01 0. -1.
        -13    1    6    6    0    0  0.23764460187E+02 -0.22601638800E+02 -0.54129066308E+02  0.63289331358E+02  0.00000000000E+00 0.  1.
         14    1    6    6    0    0 -0.21194062769E+02  0.22671475009E+02  0.10754034292E+02  0.32845598324E+02  0.00000000000E+00 0. -1.
         -5    1    3    3    0  503 -0.32118928748E+02  0.72217039841E+02 -0.21665299252E+03  0.23066758679E+03  0.47000000000E+01 0.  1.
         11    1    4    4    0    0  0.18702089780E+02  0.40422504293E+02 -0.12915325598E+03  0.13661738742E+03  0.00000000000E+00 0. -1.
        -12    1    4    4    0    0  0.71153896580E+02 -0.26863644580E+02 -0.17500933923E+03  0.19082138564E+03  0.00000000000E+00 0.  1.
<mgrwt>
<rscale>  2 0.20096445E+03</rscale>
<asrwt>0</asrwt>
<pdfrwt beam="1">  1       21 0.95026856E-02 0.20109152E+03</pdfrwt>
<pdfrwt beam="2">  1       21 0.11906137E+00 0.20109152E+03</pdfrwt>
<totfact> 0.47591816E+04</totfact>
</mgrwt>
</event>
<event>
12    1  0.1039378E-001  0.1763355E+03  0.7546771E-02  0.1171982E+00
         21   -1    0    0  501  502  0.00000000000E+00  0.00000000000E+00  0.77650239023E+03  0.77650239023E+03  0.00000000000E+00 0.  1.
         21   -1    0    0  502  503 -0.00000000000E+00 -0.00000000000E+00 -0.53055643825E+03  0.53055643825E+03  0.00000000000E+00 0.  1.
         -6    2    1    2    0  503  0.35253022584E+02  0.35464352268E+01 -0.50580832746E+03  0.53490035917E+03  0.17035544401E+03 0.  0.
        -24    2    3    3    0    0 -0.41850792373E+02  0.24332223818E+02 -0.30157342645E+03  0.31555808764E+03  0.79289527646E+02 0.  0.
          6    2    1    2  501    0 -0.35253022584E+02 -0.35464352268E+01  0.75175427945E+03  0.77215846931E+03  0.17273926089E+03 0.  0.
         24    2    5    5    0    0  0.23195615302E+02 -0.27545699621E+02  0.61817214145E+03  0.62431231429E+03  0.79575543797E+02 0.  0.
          5    1    5    5  501    0 -0.58448637886E+02  0.23999264394E+02  0.13358213801E+03  0.14784615503E+03  0.47000000000E+01 0. -1.
        -13    1    6    6    0    0 -0.11003884949E+02  0.23432741793E+02  0.17219832765E+03  0.17413340551E+03  0.00000000000E+00 0.  1.
         14    1    6    6    0    0  0.34199500251E+02 -0.50978441413E+02  0.44597381380E+03  0.45017890877E+03  0.00000000000E+00 0. -1.
         -5    1    3    3    0  503  0.77103814956E+02 -0.20785788591E+02 -0.20423490101E+03  0.21934227153E+03  0.47000000000E+01 0.  1.
         11    1    4    4    0    0  0.97196187420E+01 -0.13904485044E+02 -0.17706156767E+02  0.24521698152E+02  0.00000000000E+00 0. -1.
        -12    1    4    4    0    0 -0.51570411115E+02  0.38236708862E+02 -0.28386726969E+03  0.29103638949E+03  0.00000000000E+00 0.  1.
<mgrwt>
<rscale>  2 0.17574893E+03</rscale>
<asrwt>0</asrwt>
<pdfrwt beam="1">  1       21 0.11946191E+00 0.17633549E+03</pdfrwt>
<pdfrwt beam="2">  1       21 0.81624068E-01 0.17633549E+03</pdfrwt>
<totfact> 0.71459078E+02</totfact>
</mgrwt>
</event>
<event>
12    1  0.1039378E-001  0.3778855E+03  0.7546771E-02  0.1051769E+00
         21   -1    0    0  501  502  0.00000000000E+00  0.00000000000E+00  0.13399339294E+03  0.13399339294E+03  0.00000000000E+00 0. -1.
         21   -1    0    0  502  503 -0.00000000000E+00 -0.00000000000E+00 -0.24165698360E+04  0.24165698360E+04  0.00000000000E+00 0. -1.
         -6    2    1    2    0  503 -0.28406766156E+03 -0.17747050587E+03 -0.20956736219E+04  0.21294706743E+04  0.17494915432E+03 0.  0.
        -24    2    3    3    0    0 -0.10121231632E+03 -0.14139490937E+03 -0.10934113965E+04  0.11100153372E+04  0.79681324613E+02 0.  0.
          6    2    1    2  501    0  0.28406766156E+03  0.17747050587E+03 -0.18690282115E+03  0.42109255457E+03  0.17377013025E+03 0.  0.
         24    2    5    5    0    0  0.87168601329E+02  0.86435754311E+02 -0.13362921877E+03  0.19767202593E+03  0.78408909210E+02 0.  0.
          5    1    5    5  501    0  0.19689906023E+03  0.91034751557E+02 -0.53273602379E+02  0.22342052865E+03  0.47000000000E+01 0. -1.
        -11    1    6    6    0    0  0.67102710414E+01  0.22540312646E+02  0.60419944101E+01  0.24281662383E+02  0.00000000000E+00 0.  1.
         12    1    6    6    0    0  0.80458330287E+02  0.63895441665E+02 -0.13967121318E+03  0.17339036355E+03  0.00000000000E+00 0. -1.
         -5    1    3    3    0  503 -0.18285534524E+03 -0.36075596494E+02 -0.10022622254E+04  0.10194553371E+04  0.47000000000E+01 0.  1.
         13    1    4    4    0    0 -0.17499084362E+02 -0.76681519722E+02 -0.61714745741E+03  0.62213925902E+03  0.00000000000E+00 0. -1.
        -14    1    4    4    0    0 -0.83713231959E+02 -0.64713389652E+02 -0.47626393908E+03  0.48787607819E+03  0.00000000000E+00 0.  1.
<mgrwt>
<rscale>  2 0.37774929E+03</rscale>
<asrwt>0</asrwt>
<pdfrwt beam="1">  1       21 0.20614368E-01 0.37788546E+03</pdfrwt>
<pdfrwt beam="2">  1       21 0.37177997E+00 0.37788546E+03</pdfrwt>
<totfact> 0.22904039E+02</totfact>
</mgrwt>
</event>
<event>
12    1  0.1039378E-001  0.2347128E+03  0.7546771E-02  0.1125053E+00
         21   -1    0    0  503  502  0.00000000000E+00  0.00000000000E+00  0.22289171216E+03  0.22289171216E+03  0.00000000000E+00 0. -1.
         21   -1    0    0  501  503 -0.00000000000E+00 -0.00000000000E+00 -0.24415545731E+03  0.24415545731E+03  0.00000000000E+00 0.  1.
          6    2    1    2  501    0  0.79158203759E+02 -0.12060783022E+03 -0.50452525398E+02  0.24007408212E+03  0.18514274940E+03 0.  0.
         24    2    3    3    0    0  0.76317308301E+02 -0.67817300535E+02 -0.10247060807E+03  0.16575798941E+03  0.80944226084E+02 0.  0.
         -6    2    1    2    0  502 -0.79158203759E+02  0.12060783022E+03  0.29188780245E+02  0.22697308734E+03  0.17277884001E+03 0.  0.
        -24    2    5    5    0    0 -0.88748451090E+02  0.70694396439E+02  0.74924869764E+02  0.15843693922E+03  0.81329836716E+02 0.  0.
          5    1    3    3  501    0  0.28408954581E+01 -0.52790529685E+02  0.52018082671E+02  0.74316092714E+02  0.47000000000E+01 0. -1.
        -11    1    4    4    0    0  0.26035399244E+01  0.11536525697E+02 -0.37809419659E+02  0.39615931899E+02  0.00000000000E+00 0.  1.
         12    1    4    4    0    0  0.73713768376E+02 -0.79353826232E+02 -0.64661188411E+02  0.12614205751E+03  0.00000000000E+00 0. -1.
         -5    1    5    5    0  502  0.95902473314E+01  0.49913433781E+02 -0.45736089519E+02  0.68536148128E+02  0.47000000000E+01 0.  1.
         13    1    6    6    0    0  0.14204531996E+02  0.78519461368E+00  0.24797260257E+01  0.14440716775E+02  0.00000000000E+00 0. -1.
        -14    1    6    6    0    0 -0.10295298309E+03  0.69909201825E+02  0.72445143738E+02  0.14399622244E+03  0.00000000000E+00 0.  1.
<mgrwt>
<rscale>  2 0.23226881E+03</rscale>
<asrwt>0</asrwt>
<pdfrwt beam="1">  1       21 0.34291033E-01 0.23471282E+03</pdfrwt>
<pdfrwt beam="2">  1       21 0.37562378E-01 0.23471282E+03</pdfrwt>
<totfact> 0.54972946E+04</totfact>
</mgrwt>
</event>
<event>
12    1  0.1039378E-001  0.2069666E+03  0.7546771E-02  0.1143999E+00
         21   -1    0    0  503  502  0.00000000000E+00  0.00000000000E+00  0.55705403887E+02  0.55705403887E+02  0.00000000000E+00 0.  1.
         21   -1    0    0  501  503 -0.00000000000E+00 -0.00000000000E+00 -0.78886153765E+03  0.78886153765E+03  0.00000000000E+00 0.  1.
          6    2    1    2  501    0 -0.10474238618E+03 -0.44466844977E+02 -0.29923413793E+03  0.36381390400E+03  0.17283292417E+03 0.  0.
         24    2    3    3    0    0 -0.14046747407E+03 -0.31878482705E+02 -0.26337403368E+03  0.31144229101E+03  0.82964269937E+02 0.  0.
         -6    2    1    2    0  502  0.10474238618E+03  0.44466844977E+02 -0.43392199583E+03  0.48075303754E+03  0.17287832967E+03 0.  0.
        -24    2    5    5    0    0  0.10872144242E+01 -0.84549852889E+01 -0.25240078344E+03  0.26507467678E+03  0.80534216193E+02 0.  0.
          5    1    3    3  501    0  0.35725087893E+02 -0.12588362272E+02 -0.35860104251E+02  0.52371612984E+02  0.47000000000E+01 0. -1.
        -11    1    4    4    0    0 -0.49090714813E+02  0.19556322532E+02 -0.13934345928E+03  0.14902666767E+03  0.00000000000E+00 0.  1.
         12    1    4    4    0    0 -0.91376759255E+02 -0.51434805237E+02 -0.12403057439E+03  0.16241562334E+03  0.00000000000E+00 0. -1.
         -5    1    5    5    0  502  0.10365517175E+03  0.52921830266E+02 -0.18152121240E+03  0.21567836076E+03  0.47000000000E+01 0.  1.
         13    1    6    6    0    0 -0.24349189172E+01  0.34709831782E+02 -0.14824721896E+03  0.15227586540E+03  0.00000000000E+00 0. -1.
        -14    1    6    6    0    0  0.35221333414E+01 -0.43164817071E+02 -0.10415356448E+03  0.11279881138E+03  0.00000000000E+00 0.  1.
<mgrwt>
<rscale>  2 0.20695714E+03</rscale>
<asrwt>0</asrwt>
<pdfrwt beam="1">  1       21 0.85700620E-02 0.20696663E+03</pdfrwt>
<pdfrwt beam="2">  1       21 0.12136332E+00 0.20696663E+03</pdfrwt>
<totfact> 0.54241864E+04</totfact>
</mgrwt>
</event>
<event>
12    1  0.1039378E-001  0.3611729E+03  0.7546771E-02  0.1058138E+00
         21   -1    0    0  501  502  0.00000000000E+00  0.00000000000E+00  0.86626841696E+03  0.86626841696E+03  0.00000000000E+00 0.  1.
         21   -1    0    0  502  503 -0.00000000000E+00 -0.00000000000E+00 -0.19389312216E+03  0.19389312216E+03  0.00000000000E+00 0.  1.
         -6    2    1    2    0  503 -0.30376487795E+03 -0.91869603871E+02  0.85513269200E+02  0.37115816810E+03  0.17243184551E+03 0.  0.
        -24    2    3    3    0    0 -0.71505418490E+02 -0.23517491986E+02  0.65494291067E+02  0.12817809238E+03  0.80461319290E+02 0.  0.
          6    2    1    2  501    0  0.30376487795E+03  0.91869603871E+02  0.58686202561E+03  0.68900337102E+03  0.17206243919E+03 0.  0.
         24    2    5    5    0    0  0.32138465117E+03  0.85963053133E+02  0.55501536452E+03  0.65183290462E+03  0.78526047768E+02 0.  0.
          5    1    5    5  501    0 -0.17619773219E+02  0.59065507381E+01  0.31846661092E+02  0.37170466403E+02  0.47000000000E+01 0. -1.
        -11    1    6    6    0    0  0.11597858251E+03  0.42686557235E+02  0.13995633714E+03  0.18671087294E+03  0.00000000000E+00 0.  1.
         12    1    6    6    0    0  0.20540606867E+03  0.43276495898E+02  0.41505902738E+03  0.46512203168E+03  0.00000000000E+00 0. -1.
         -5    1    3    3    0  503 -0.23225945947E+03 -0.68352111886E+02  0.20018978133E+02  0.24298007572E+03  0.47000000000E+01 0.  1.
         13    1    4    4    0    0 -0.55669644740E+02  0.23210439231E+02  0.42237594704E+02  0.73633200672E+02  0.00000000000E+00 0. -1.
        -14    1    4    4    0    0 -0.15835773750E+02 -0.46727931217E+02  0.23256696363E+02  0.54544891711E+02  0.00000000000E+00 0.  1.
<mgrwt>
<rscale>  2 0.36112884E+03</rscale>
<asrwt>0</asrwt>
<pdfrwt beam="1">  1       21 0.13327206E+00 0.36117290E+03</pdfrwt>
<pdfrwt beam="2">  1       21 0.29829712E-01 0.36117290E+03</pdfrwt>
<totfact> 0.39411267E+03</totfact>
</mgrwt>
</event>
<event>
12    1  0.1039378E-001  0.2065086E+03  0.7546771E-02  0.1145921E+00
         21   -1    0    0  503  502  0.00000000000E+00  0.00000000000E+00  0.41518775975E+03  0.41518775975E+03  0.00000000000E+00 0. -1.
         21   -1    0    0  501  503 -0.00000000000E+00 -0.00000000000E+00 -0.16437623969E+03  0.16437623969E+03  0.00000000000E+00 0.  1.
          6    2    1    2  501    0  0.83982378827E+02 -0.74339788474E+02 -0.58750418680E+02  0.20744253160E+03  0.16432086939E+03 0.  0.
         24    2    3    3    0    0 -0.22261271128E+01 -0.97769333027E+01 -0.55818244579E+02  0.99595619687E+02  0.81872260053E+02 0.  0.
         -6    2    1    2    0  502 -0.83982378827E+02  0.74339788474E+02  0.30956193874E+03  0.37212146784E+03  0.17339650749E+03 0.  0.
        -24    2    5    5    0    0 -0.40512452931E+02  0.77669541363E+01  0.26685819562E+03  0.28174848291E+03  0.80419690585E+02 0.  0.
          5    1    3    3  501    0  0.86208505939E+02 -0.64562855171E+02 -0.29321741010E+01  0.10784691191E+03  0.47000000000E+01 0. -1.
        -11    1    4    4    0    0  0.36213462158E+02  0.84648618764E+01 -0.38871595852E+02  0.53796558367E+02  0.00000000000E+00 0.  1.
         12    1    4    4    0    0 -0.38439589271E+02 -0.18241795179E+02 -0.16946648727E+02  0.45799061320E+02  0.00000000000E+00 0. -1.
         -5    1    5    5    0  502 -0.43469925896E+02  0.66572834338E+02  0.42703743121E+02  0.90372984933E+02  0.47000000000E+01 0.  1.
         13    1    6    6    0    0 -0.42486008456E+02 -0.72785994857E+00  0.54009967363E+02  0.68721665209E+02  0.00000000000E+00 0. -1.
        -14    1    6    6    0    0  0.19735555253E+01  0.84948140848E+01  0.21284822825E+03  0.21302681770E+03  0.00000000000E+00 0.  1.
<mgrwt>
<rscale>  2 0.20459223E+03</rscale>
<asrwt>0</asrwt>
<pdfrwt beam="1">  1       21 0.63875040E-01 0.20650858E+03</pdfrwt>
<pdfrwt beam="2">  1       21 0.25288652E-01 0.20650858E+03</pdfrwt>
<totfact> 0.33295431E+04</totfact>
</mgrwt>
</event>
<event>
12    1  0.1039378E-001  0.2043850E+03  0.7546771E-02  0.1147010E+00
         21   -1    0    0  503  502  0.00000000000E+00  0.00000000000E+00  0.30459498917E+03  0.30459498917E+03  0.00000000000E+00 0.  1.
         21   -1    0    0  501  503 -0.00000000000E+00 -0.00000000000E+00 -0.33769541448E+03  0.33769541448E+03  0.00000000000E+00 0. -1.
          6    2    1    2  501    0 -0.45160365006E+02  0.90148091742E+02 -0.26577576265E+03  0.33259534696E+03  0.17267533639E+03 0.  0.
         24    2    3    3    0    0 -0.12552926208E+02 -0.16778926569E+02 -0.99324640535E+02  0.13203438774E+03  0.84430959941E+02 0.  0.
         -6    2    1    2    0  502  0.45160365006E+02 -0.90148091742E+02  0.23267533734E+03  0.30969505669E+03  0.17778379711E+03 0.  0.
        -24    2    5    5    0    0 -0.34624442106E+02 -0.34025846993E+02  0.59551535405E+02  0.11092568631E+03  0.80009451066E+02 0.  0.
          5    1    3    3  501    0 -0.32607438797E+02  0.10692701831E+03 -0.16645112211E+03  0.20056095922E+03  0.47000000000E+01 0. -1.
        -13    1    4    4    0    0  0.10365520109E+02  0.30967682371E+02 -0.26889502197E+02  0.42302324841E+02  0.00000000000E+00 0.  1.
         14    1    4    4    0    0 -0.22918446317E+02 -0.47746608940E+02 -0.72435138338E+02  0.89732062903E+02  0.00000000000E+00 0. -1.
         -5    1    5    5    0  502  0.79784807111E+02 -0.56122244749E+02  0.17312380194E+03  0.19876937038E+03  0.47000000000E+01 0.  1.
         13    1    6    6    0    0 -0.41640433404E+02  0.22223768051E+01  0.10075784957E+01  0.41711867222E+02  0.00000000000E+00 0. -1.
        -14    1    6    6    0    0  0.70159912982E+01 -0.36248223798E+02  0.58543956909E+02  0.69213819090E+02  0.00000000000E+00 0.  1.
<mgrwt>
<rscale>  2 0.20326894E+03</rscale>
<asrwt>0</asrwt>
<pdfrwt beam="1">  1       21 0.46860767E-01 0.20438497E+03</pdfrwt>
<pdfrwt beam="2">  1       21 0.51953141E-01 0.20438497E+03</pdfrwt>
<totfact> 0.15217918E+04</totfact>
</mgrwt>
</event>
<event>
12    1  0.1039378E-001  0.1855460E+03  0.7546771E-02  0.1162567E+00
         21   -1    0    0  501  502  0.00000000000E+00  0.00000000000E+00  0.90692221159E+02  0.90692221159E+02  0.00000000000E+00 0.  1.
         21   -1    0    0  502  503 -0.00000000000E+00 -0.00000000000E+00 -0.38204855349E+03  0.38204855349E+03  0.00000000000E+00 0.  1.
         -6    2    1    2    0  503  0.39914005437E+02 -0.52709183212E+02 -0.16540512965E+03  0.24848421032E+03  0.17324595244E+03 0.  0.
        -24    2    3    3    0    0 -0.32057105943E+02 -0.68310641732E+02 -0.10019937744E+03  0.15001022136E+03  0.82274840965E+02 0.  0.
          6    2    1    2  501    0 -0.39914005437E+02  0.52709183212E+02 -0.12595120268E+03  0.22425656433E+03  0.17336641936E+03 0.  0.
         24    2    5    5    0    0  0.29733164188E+02  0.42924013576E+02 -0.21729533486E+02  0.98436358833E+02  0.80566817740E+02 0.  0.
          5    1    5    5  501    0 -0.69647169625E+02  0.97851696358E+01 -0.10422166919E+03  0.12582020549E+03  0.47000000000E+01 0. -1.
        -11    1    6    6    0    0 -0.11014259392E+02  0.48547058843E+02  0.39626943537E+01  0.49938299719E+02  0.00000000000E+00 0.  1.
         12    1    6    6    0    0  0.40747423580E+02 -0.56230452671E+01 -0.25692227839E+02  0.48498059114E+02  0.00000000000E+00 0. -1.
         -5    1    3    3    0  503  0.71971111381E+02  0.15601458519E+02 -0.65205752210E+02  0.98473988964E+02  0.47000000000E+01 0.  1.
         13    1    4    4    0    0  0.21650892223E+02  0.34041629464E+01 -0.22582557092E+02  0.31469371525E+02  0.00000000000E+00 0. -1.
        -14    1    4    4    0    0 -0.53707998166E+02 -0.71714804678E+02 -0.77616820352E+02  0.11854084983E+03  0.00000000000E+00 0.  1.
<mgrwt>
<rscale>  2 0.18551781E+03</rscale>
<asrwt>0</asrwt>
<pdfrwt beam="1">  1       21 0.13952649E-01 0.18554595E+03</pdfrwt>
<pdfrwt beam="2">  1       21 0.58776701E-01 0.18554595E+03</pdfrwt>
<totfact> 0.12146441E+05</totfact>
</mgrwt>
</event>
<event>
12    1  0.1039378E-001  0.2455007E+03  0.7546771E-02  0.1116265E+00
         21   -1    0    0  503  502  0.00000000000E+00  0.00000000000E+00  0.13927404369E+04  0.13927404369E+04  0.00000000000E+00 0. -1.
         21   -1    0    0  501  503 -0.00000000000E+00 -0.00000000000E+00 -0.71885377923E+02  0.71885377923E+02  0.00000000000E+00 0.  1.
          6    2    1    2  501    0  0.80695184274E+02  0.15387038035E+03  0.11235773976E+04  0.11500855357E+04  0.17344383656E+03 0.  0.
         24    2    3    3    0    0 -0.81458960281E+01  0.17525699190E+02  0.31968364496E+03  0.32987223108E+03  0.79022466610E+02 0.  0.
         -6    2    1    2    0  502 -0.80695184274E+02 -0.15387038035E+03  0.19727766145E+03  0.31454027914E+03  0.17271162317E+03 0.  0.
        -24    2    5    5    0    0 -0.12207312173E+03 -0.12247521847E+03  0.17248649901E+03  0.25679530851E+03  0.79310856390E+02 0.  0.
          5    1    3    3  501    0  0.88841080302E+02  0.13634468116E+03  0.80389375261E+03  0.82021330464E+03  0.47000000000E+01 0. -1.
        -11    1    4    4    0    0  0.30955665778E+02 -0.10253400370E+02  0.10762482016E+03  0.11245660220E+03  0.00000000000E+00 0.  1.
         12    1    4    4    0    0 -0.39101561806E+02  0.27779099560E+02  0.21205882480E+03  0.21741562888E+03  0.00000000000E+00 0. -1.
         -5    1    5    5    0  502  0.41377937461E+02 -0.31395161883E+02  0.24791162439E+02  0.57744970632E+02  0.47000000000E+01 0.  1.
         11    1    6    6    0    0 -0.22734385277E+02  0.60948975690E+01  0.62666586828E+01  0.24357156265E+02  0.00000000000E+00 0. -1.
        -12    1    6    6    0    0 -0.99338736458E+02 -0.12857011604E+03  0.16621984033E+03  0.23243815224E+03  0.00000000000E+00 0.  1.
<mgrwt>
<rscale>  2 0.24537136E+03</rscale>
<asrwt>0</asrwt>
<pdfrwt beam="1">  1       21 0.21426774E+00 0.24550065E+03</pdfrwt>
<pdfrwt beam="2">  1       21 0.11059290E-01 0.24550065E+03</pdfrwt>
<totfact> 0.70921508E+03</totfact>
</mgrwt>
</event>
<event>
12    1  0.1039378E-001  0.1800404E+03  0.7546771E-02  0.1167770E+00
         21   -1    0    0  501  502  0.00000000000E+00  0.00000000000E+00  0.19078207598E+03  0.19078207598E+03  0.00000000000E+00 0.  1.
         21   -1    0    0  502  503 -0.00000000000E+00 -0.00000000000E+00 -0.18122798490E+03  0.18122798490E+03  0.00000000000E+00 0.  1.
         -6    2    1    2    0  503 -0.37342216042E+02 -0.32265725661E+02  0.51320530019E+02  0.18718858205E+03  0.17311917946E+03 0.  0.
        -24    2    3    3    0    0 -0.26689188068E+02 -0.87629665007E+02  0.41829250542E+02  0.12982285037E+03  0.81932992923E+02 0.  0.
          6    2    1    2  501    0  0.37342216042E+02  0.32265725661E+02 -0.41766438935E+02  0.18482147883E+03  0.17314452190E+03 0.  0.
         24    2    5    5    0    0 -0.41934512037E+02  0.48314679288E+01 -0.44312700831E+02  0.10076190733E+03  0.80046862092E+02 0.  0.
          5    1    5    5  501    0  0.79276728079E+02  0.27434257732E+02  0.25462618965E+01  0.84059571507E+02  0.47000000000E+01 0. -1.
        -11    1    6    6    0    0  0.27207202775E+01 -0.29381383070E+02 -0.58851202166E+00  0.29512952010E+02  0.00000000000E+00 0.  1.
         12    1    6    6    0    0 -0.44655232314E+02  0.34212850999E+02 -0.43724188810E+02  0.71248955316E+02  0.00000000000E+00 0. -1.
         -5    1    3    3    0  503 -0.10653027974E+02  0.55363939345E+02  0.94912794766E+01  0.57365731678E+02  0.47000000000E+01 0.  1.
         13    1    4    4    0    0 -0.25750056394E+02 -0.28271050996E+02 -0.20797660417E+02  0.43529994343E+02  0.00000000000E+00 0. -1.
        -14    1    4    4    0    0 -0.93913167430E+00 -0.59358614011E+02  0.62626910959E+02  0.86292856030E+02  0.00000000000E+00 0.  1.
<mgrwt>
<rscale>  2 0.18003430E+03</rscale>
<asrwt>0</asrwt>
<pdfrwt beam="1">  1       21 0.29351089E-01 0.18004039E+03</pdfrwt>
<pdfrwt beam="2">  1       21 0.27881228E-01 0.18004039E+03</pdfrwt>
<totfact> 0.13716772E+05</totfact>
</mgrwt>
</event>
<event>
12    1  0.1039378E-001  0.2014026E+03  0.7546771E-02  0.1149672E+00
         21   -1    0    0  501  502  0.00000000000E+00  0.00000000000E+00  0.83579158809E+02  0.83579158809E+02  0.00000000000E+00 0.  1.
         21   -1    0    0  502  503 -0.00000000000E+00 -0.00000000000E+00 -0.48562281672E+03  0.48562281672E+03  0.00000000000E+00 0. -1.
         -6    2    1    2    0  503  0.63235034042E+02 -0.79891237425E+02 -0.24989073012E+03  0.32094919555E+03  0.17372889735E+03 0.  0.
        -24    2    3    3    0    0 -0.19338651971E+02  0.51632532983E+01 -0.10124727243E+03  0.13076600090E+03  0.80300025973E+02 0.  0.
          6    2    1    2  501    0 -0.63235034042E+02  0.79891237425E+02 -0.15215292778E+03  0.24825277998E+03  0.16762353649E+03 0.  0.
         24    2    5    5    0    0 -0.35608068962E+02  0.67681573667E+02 -0.19495655335E+02  0.11211914334E+03  0.79635995241E+02 0.  0.
          5    1    5    5  501    0 -0.27626965080E+02  0.12209663758E+02 -0.13265727245E+03  0.13613363663E+03  0.47000000000E+01 0. -1.
        -13    1    6    6    0    0  0.21819635319E+02  0.26178059196E+02 -0.23102969231E+02  0.41172010590E+02  0.00000000000E+00 0.  1.
         14    1    6    6    0    0 -0.57427704281E+02  0.41503514472E+02  0.36073138967E+01  0.70947132754E+02  0.00000000000E+00 0. -1.
         -5    1    3    3    0  503  0.82573686013E+02 -0.85054490724E+02 -0.14864345769E+03  0.19018319466E+03  0.47000000000E+01 0.  1.
         13    1    4    4    0    0  0.67420984323E+01 -0.32776412069E+02 -0.25286769490E+02  0.41942458090E+02  0.00000000000E+00 0. -1.
        -14    1    4    4    0    0 -0.26080750404E+02  0.37939665367E+02 -0.75960502939E+02  0.88823542806E+02  0.00000000000E+00 0.  1.
<mgrwt>
<rscale>  2 0.20007908E+03</rscale>
<asrwt>0</asrwt>
<pdfrwt beam="1">  1       21 0.12858332E-01 0.20140260E+03</pdfrwt>
<pdfrwt beam="2">  1       21 0.74711201E-01 0.20140260E+03</pdfrwt>
<totfact> 0.82821580E+04</totfact>
</mgrwt>
</event>
<event>
12    1  0.1039378E-001  0.2163785E+03  0.7546771E-02  0.1136752E+00
         21   -1    0    0  503  502  0.00000000000E+00  0.00000000000E+00  0.98556723821E+02  0.98556723821E+02  0.00000000000E+00 0.  1.
         21   -1    0    0  501  503 -0.00000000000E+00 -0.00000000000E+00 -0.49349237696E+03  0.49349237696E+03  0.00000000000E+00 0. -1.
          6    2    1    2  501    0  0.11768405437E+03  0.51124606135E+02 -0.25681107618E+03  0.33534294080E+03  0.17331963852E+03 0.  0.
         24    2    3    3    0    0  0.11486509569E+03  0.95963817436E+02 -0.19004769911E+03  0.25473314044E+03  0.79798498941E+02 0.  0.
         -6    2    1    2    0  502 -0.11768405437E+03 -0.51124606135E+02 -0.13812457696E+03  0.25670615997E+03  0.17423085778E+03 0.  0.
        -24    2    5    5    0    0 -0.12928575565E+03 -0.74124338000E+02 -0.15106688400E+03  0.22749690716E+03  0.82002531830E+02 0.  0.
          5    1    3    3  501    0  0.28189586726E+01 -0.44839211302E+02 -0.66763377067E+02  0.80609800369E+02  0.47000000000E+01 0. -1.
        -11    1    4    4    0    0  0.11169796541E+02 -0.24958160011E+01  0.53243990473E+01  0.12623100946E+02  0.00000000000E+00 0.  1.
         12    1    4    4    0    0  0.10369529915E+03  0.98459633437E+02 -0.19537209816E+03  0.24211003949E+03  0.00000000000E+00 0. -1.
         -5    1    5    5    0  502  0.11601701286E+02  0.22999731865E+02  0.12942307039E+02  0.29209252817E+02  0.47000000000E+01 0.  1.
         13    1    6    6    0    0 -0.35865796435E+02 -0.13116543220E+01 -0.84087277114E+02  0.91426177671E+02  0.00000000000E+00 0. -1.
        -14    1    6    6    0    0 -0.93419959216E+02 -0.72812683678E+02 -0.66979606882E+02  0.13607072948E+03  0.00000000000E+00 0.  1.
<mgrwt>
<rscale>  2 0.21619500E+03</rscale>
<asrwt>0</asrwt>
<pdfrwt beam="1">  1       21 0.15162573E-01 0.21637850E+03</pdfrwt>
<pdfrwt beam="2">  1       21 0.75921904E-01 0.21637850E+03</pdfrwt>
<totfact> 0.58852314E+04</totfact>
</mgrwt>
</event>
<event>
12    1  0.1039378E-001  0.1797089E+03  0.7546771E-02  0.1168131E+00
         21   -1    0    0  503  502  0.00000000000E+00  0.00000000000E+00  0.25922158598E+02  0.25922158598E+02  0.00000000000E+00 0.  1.
         21   -1    0    0  501  503 -0.00000000000E+00 -0.00000000000E+00 -0.12646737714E+04  0.12646737714E+04  0.00000000000E+00 0.  1.
          6    2    1    2  501    0  0.37445452095E+02 -0.33053520886E+02 -0.70113151238E+03  0.72379603181E+03  0.17262850542E+03 0.  0.
         24    2    3    3    0    0  0.62321175171E+02  0.24095675197E+02 -0.55600943192E+03  0.56578546112E+03  0.80636029141E+02 0.  0.
         -6    2    1    2    0  502 -0.37445452095E+02  0.33053520886E+02 -0.53762010046E+03  0.56679989823E+03  0.17242985555E+03 0.  0.
        -24    2    5    5    0    0  0.11640477406E+01  0.13772691545E+02 -0.50905649508E+03  0.51483439611E+03  0.75663057021E+02 0.  0.
          5    1    3    3  501    0 -0.24875723076E+02 -0.57149196083E+02 -0.14512208046E+03  0.15801057068E+03  0.47000000000E+01 0. -1.
        -13    1    4    4    0    0  0.39382320007E+02  0.13690976872E+01 -0.49665598151E+03  0.49821682581E+03  0.00000000000E+00 0.  1.
         14    1    4    4    0    0  0.22938855164E+02  0.22726577510E+02 -0.59353450415E+02  0.67568635310E+02  0.00000000000E+00 0. -1.
         -5    1    5    5    0  502 -0.38609499836E+02  0.19280829341E+02 -0.28563605377E+02  0.51965502112E+02  0.47000000000E+01 0.  1.
         11    1    6    6    0    0 -0.17159565016E+02 -0.22714613549E+02 -0.32791235707E+03  0.32914574015E+03  0.00000000000E+00 0. -1.
        -12    1    6    6    0    0  0.18323612757E+02  0.36487305094E+02 -0.18114413802E+03  0.18568865597E+03  0.00000000000E+00 0.  1.
<mgrwt>
<rscale>  2 0.17966120E+03</rscale>
<asrwt>0</asrwt>
<pdfrwt beam="1">  1       21 0.39880250E-02 0.17970893E+03</pdfrwt>
<pdfrwt beam="2">  1       21 0.19456517E+00 0.17970893E+03</pdfrwt>
<totfact> 0.57806276E+04</totfact>
</mgrwt>
</event>
<event>
12    1  0.1039378E-001  0.2017479E+03  0.7546771E-02  0.1151283E+00
         21   -1    0    0  501  502  0.00000000000E+00  0.00000000000E+00  0.13640756210E+04  0.13640756210E+04  0.00000000000E+00 0. -1.
         21   -1    0    0  502  503 -0.00000000000E+00 -0.00000000000E+00 -0.31841489475E+02  0.31841489475E+02  0.00000000000E+00 0. -1.
         -6    2    1    2    0  503 -0.65896641967E+01 -0.62676842176E+02  0.39743665563E+03  0.43959680017E+03  0.17696791028E+03 0.  0.
        -24    2    3    3    0    0  0.55788607215E+01 -0.37755951080E+02  0.76259678348E+02  0.11719043463E+03  0.80382982637E+02 0.  0.
          6    2    1    2  501    0  0.65896641967E+01  0.62676842176E+02  0.93479747587E+03  0.95632031027E+03  0.19165177986E+03 0.  0.
         24    2    5    5    0    0  0.10658805787E+02  0.49132177854E+02  0.20087977980E+03  0.22225131457E+03  0.80717902935E+02 0.  0.
          5    1    5    5  501    0 -0.40691415900E+01  0.13544664322E+02  0.73391769607E+03  0.73406899570E+03  0.47000000000E+01 0. -1.
        -11    1    6    6    0    0 -0.25727638539E+02  0.30939909546E+02  0.15841187250E+03  0.16344268334E+03  0.00000000000E+00 0.  1.
         12    1    6    6    0    0  0.36386444326E+02  0.18192268307E+02  0.42467907293E+02  0.58808631226E+02  0.00000000000E+00 0. -1.
         -5    1    3    3    0  503 -0.12168524918E+02 -0.24920891096E+02  0.32117697728E+03  0.32240636555E+03  0.47000000000E+01 0.  1.
         13    1    4    4    0    0  0.30475775070E+02  0.87015506856E+01  0.11554126212E+02  0.33734073027E+02  0.00000000000E+00 0. -1.
        -14    1    4    4    0    0 -0.24896914349E+02 -0.46457501765E+02  0.64705552136E+02  0.83456361601E+02  0.00000000000E+00 0.  1.
<mgrwt>
<rscale>  2 0.19818117E+03</rscale>
<asrwt>0</asrwt>
<pdfrwt beam="1">  1       21 0.20985774E+00 0.20174790E+03</pdfrwt>
<pdfrwt beam="2">  1       21 0.48986917E-02 0.20174790E+03</pdfrwt>
<totfact> 0.32169369E+04</totfact>
</mgrwt>
</event>
<event>
12    1  0.1039378E-001  0.2054098E+03  0.7546771E-02  0.1145579E+00
         21   -1    0    0  503  502  0.00000000000E+00  0.00000000000E+00  0.63099561109E+03  0.63099561109E+03  0.00000000000E+00 0. -1.
         21   -1    0    0  501  503 -0.00000000000E+00 -0.00000000000E+00 -0.82937626043E+02  0.82937626043E+02  0.00000000000E+00 0.  1.
          6    2    1    2  501    0  0.74968392890E+02 -0.84231514207E+02  0.11353494862E+03  0.23330506728E+03  0.16978180686E+03 0.  0.
         24    2    3    3    0    0 -0.22089531919E+02 -0.38049219383E+02  0.44691393997E+02  0.10557656562E+03  0.84931737260E+02 0.  0.
         -6    2    1    2    0  502 -0.74968392890E+02  0.84231514207E+02  0.43452303642E+03  0.48062816985E+03  0.17169146908E+03 0.  0.
        -24    2    5    5    0    0 -0.19294405954E+02  0.84747905155E+00  0.30946020875E+03  0.32026829019E+03  0.80207010775E+02 0.  0.
          5    1    3    3  501    0  0.97057924810E+02 -0.46182294824E+02  0.68843554622E+02  0.12772850166E+03  0.47000000000E+01 0. -1.
        -11    1    4    4    0    0  0.29974248370E+02 -0.29719313030E+02  0.26309983898E+02  0.49738399502E+02  0.00000000000E+00 0.  1.
         12    1    4    4    0    0 -0.52063780289E+02 -0.83299063528E+01  0.18381410100E+02  0.55838166115E+02  0.00000000000E+00 0. -1.
         -5    1    5    5    0  502 -0.55673986937E+02  0.83384035155E+02  0.12506282767E+03  0.16035987966E+03  0.47000000000E+01 0.  1.
         11    1    6    6    0    0 -0.40330771644E+02  0.23392503481E+02  0.23662949613E+03  0.24117897669E+03  0.00000000000E+00 0. -1.
        -12    1    6    6    0    0  0.21036365690E+02 -0.22545024430E+02  0.72830712626E+02  0.79089313498E+02  0.00000000000E+00 0.  1.
<mgrwt>
<rscale>  2 0.20501022E+03</rscale>
<asrwt>0</asrwt>
<pdfrwt beam="1">  1       21 0.97076245E-01 0.20540976E+03</pdfrwt>
<pdfrwt beam="2">  1       21 0.12759635E-01 0.20540976E+03</pdfrwt>
<totfact> 0.45980118E+04</totfact>
</mgrwt>
</event>
<event>
12    1  0.1039378E-001  0.2097201E+03  0.7546771E-02  0.1142056E+00
         21   -1    0    0  501  502  0.00000000000E+00  0.00000000000E+00  0.18699318773E+04  0.18699318773E+04  0.00000000000E+00 0.  1.
         21   -1    0    0  502  503 -0.00000000000E+00 -0.00000000000E+00 -0.12948726305E+03  0.12948726305E+03  0.00000000000E+00 0. -1.
         -6    2    1    2    0  503 -0.27339488254E+02 -0.11492073112E+03 -0.34280444803E+02  0.21250337642E+03  0.17328679706E+03 0.  0.
        -24    2    3    3    0    0  0.44108117351E+02 -0.19746502527E+02 -0.38776546079E+01  0.89583427727E+02  0.75330630820E+02 0.  0.
          6    2    1    2  501    0  0.27339488254E+02  0.11492073112E+03  0.17747250590E+04  0.17869157639E+04  0.17165281838E+03 0.  0.
         24    2    5    5    0    0 -0.44762052469E+02  0.99300657447E+02  0.11433024036E+04  0.11511805370E+04  0.78816120651E+02 0.  0.
          5    1    5    5  501    0  0.72101540723E+02  0.15620073674E+02  0.63142265545E+03  0.63573522688E+03  0.47000000000E+01 0. -1.
        -11    1    6    6    0    0 -0.40034505250E+02  0.72071720061E+02  0.10642123119E+04  0.10674010208E+04  0.00000000000E+00 0.  1.
         12    1    6    6    0    0 -0.47275472188E+01  0.27228937386E+02  0.79090091738E+02  0.83779516262E+02  0.00000000000E+00 0. -1.
         -5    1    3    3    0  503 -0.71447605606E+02 -0.95174228595E+02 -0.30402790195E+02  0.12291994869E+03  0.47000000000E+01 0.  1.
         13    1    4    4    0    0  0.29512407766E+02  0.20407164891E+02 -0.23163502276E+02  0.42708107295E+02  0.00000000000E+00 0. -1.
        -14    1    4    4    0    0  0.14595709586E+02 -0.40153667418E+02  0.19285847668E+02  0.46875320433E+02  0.00000000000E+00 0.  1.
<mgrwt>
<rscale>  2 0.20938230E+03</rscale>
<asrwt>0</asrwt>
<pdfrwt beam="1">  1       21 0.28768181E+00 0.20972014E+03</pdfrwt>
<pdfrwt beam="2">  1       21 0.19921119E-01 0.20972014E+03</pdfrwt>
<totfact> 0.91427732E+02</totfact>
</mgrwt>
</event>
<event>
12    1  0.1039378E-001  0.2184107E+03  0.7546771E-02  0.1135414E+00
         21   -1    0    0  501  502  0.00000000000E+00  0.00000000000E+00  0.31983109657E+03  0.31983109657E+03  0.00000000000E+00 0. -1.
         21   -1    0    0  502  503 -0.00000000000E+00 -0.00000000000E+00 -0.14837488654E+03  0.14837488654E+03  0.00000000000E+00 0. -1.
         -6    2    1    2    0  503  0.13243762568E+03  0.83591254007E+01  0.99007614828E+02  0.23980353006E+03  0.17347514392E+03 0.  0.
        -24    2    3    3    0    0  0.59804902511E+02  0.44797324880E+02  0.11209728970E+03  0.15736152350E+03  0.81322936740E+02 0.  0.
          6    2    1    2  501    0 -0.13243762568E+03 -0.83591254007E+01  0.72448595208E+02  0.22840245305E+03  0.17119953837E+03 0.  0.
         24    2    5    5    0    0 -0.70303847503E+02  0.61218026319E+02  0.43701673142E+02  0.13067803461E+03  0.80477542039E+02 0.  0.
          5    1    5    5  501    0 -0.62133778181E+02 -0.69577151719E+02  0.28746922066E+02  0.97724418446E+02  0.47000000000E+01 0. -1.
        -11    1    6    6    0    0 -0.86820581380E+02  0.60764741016E+02  0.42275116858E+02  0.11409361335E+03  0.00000000000E+00 0.  1.
         12    1    6    6    0    0  0.16516733877E+02  0.45328530228E+00  0.14265562840E+01  0.16584421255E+02  0.00000000000E+00 0. -1.
         -5    1    3    3    0  503  0.72632723173E+02 -0.36438199479E+02 -0.13089674870E+02  0.82442006556E+02  0.47000000000E+01 0.  1.
         13    1    4    4    0    0  0.26578567783E+01  0.40951763257E+02  0.13258887344E+02  0.43126664722E+02  0.00000000000E+00 0. -1.
        -14    1    4    4    0    0  0.57147045733E+02  0.38455616232E+01  0.98838402354E+02  0.11423485878E+03  0.00000000000E+00 0.  1.
<mgrwt>
<rscale>  2 0.21795852E+03</rscale>
<asrwt>0</asrwt>
<pdfrwt beam="1">  1       21 0.49204784E-01 0.21841068E+03</pdfrwt>
<pdfrwt beam="2">  1       21 0.22826906E-01 0.21841068E+03</pdfrwt>
<totfact> 0.70139080E+04</totfact>
</mgrwt>
</event>
<event>
12    1  0.1039378E-001  0.1896239E+03  0.7546771E-02  0.1158882E+00
         21   -1    0    0  503  502  0.00000000000E+00  0.00000000000E+00  0.20073783480E+04  0.20073783480E+04  0.00000000000E+00 0. -1.
         21   -1    0    0  501  503 -0.00000000000E+00 -0.00000000000E+00 -0.18115558041E+02  0.18115558041E+02  0.00000000000E+00 0. -1.
          6    2    1    2  501    0 -0.76948010080E+02  0.13105278840E+02  0.87972563506E+03  0.89993023709E+03  0.17281346605E+03 0.  0.
         24    2    3    3    0    0  0.17278348544E+02 -0.17217961036E+02  0.38381372543E+03  0.39421409373E+03  0.86583926667E+02 0.  0.
         -6    2    1    2    0  502  0.76948010080E+02 -0.13105278840E+02  0.11095371549E+04  0.11255636690E+04  0.17241847402E+03 0.  0.
        -24    2    5    5    0    0  0.11193905067E+03  0.21644143796E+02  0.75707579395E+03  0.76963812020E+03  0.78614618564E+02 0.  0.
          5    1    3    3  501    0 -0.94226358624E+02  0.30323239876E+02  0.49591190963E+03  0.50571614335E+03  0.47000000000E+01 0. -1.
        -13    1    4    4    0    0  0.26762633301E+02 -0.49508097648E+02  0.24432534237E+03  0.25072328013E+03  0.00000000000E+00 0.  1.
         14    1    4    4    0    0 -0.94842847569E+01  0.32290136612E+02  0.13948838306E+03  0.14349081360E+03  0.00000000000E+00 0. -1.
         -5    1    5    5    0  502 -0.34991040595E+02 -0.34749422637E+02  0.35246136095E+03  0.35592554876E+03  0.47000000000E+01 0.  1.
         13    1    6    6    0    0  0.10192787916E+03  0.74895311752E+00  0.43723168599E+03  0.44895590063E+03  0.00000000000E+00 0. -1.
        -14    1    6    6    0    0  0.10011171518E+02  0.20895190679E+02  0.31984410796E+03  0.32068221956E+03  0.00000000000E+00 0.  1.
<mgrwt>
<rscale>  2 0.18953390E+03</rscale>
<asrwt>0</asrwt>
<pdfrwt beam="1">  1       21 0.30882726E+00 0.18962394E+03</pdfrwt>
<pdfrwt beam="2">  1       21 0.27870105E-02 0.18962394E+03</pdfrwt>
<totfact> 0.21765596E+04</totfact>
</mgrwt>
</event>
<event>
12    1  0.1039378E-001  0.3303093E+03  0.7546771E-02  0.1071016E+00
         21   -1    0    0  503  502  0.00000000000E+00  0.00000000000E+00  0.79649777467E+03  0.79649777467E+03  0.00000000000E+00 0. -1.
         21   -1    0    0  501  503 -0.00000000000E+00 -0.00000000000E+00 -0.13900023974E+03  0.13900023974E+03  0.00000000000E+00 0.  1.
          6    2    1    2  501    0  0.24896068700E+03 -0.13157526066E+03  0.38602386882E+03  0.50805381476E+03  0.17265798129E+03 0.  0.
         24    2    3    3    0    0  0.11147171210E+03 -0.91624268472E+02  0.29247015783E+03  0.33695826591E+03  0.84741551628E+02 0.  0.
         -6    2    1    2    0  502 -0.24896068700E+03  0.13157526066E+03  0.27147366611E+03  0.42744419965E+03  0.17238654104E+03 0.  0.
        -24    2    5    5    0    0 -0.73545481489E+02  0.17357054215E+01  0.12022266852E+03  0.16187357119E+03  0.79609123236E+02 0.  0.
          5    1    3    3  501    0  0.13748897490E+03 -0.39950992186E+02  0.93553710993E+02  0.17109554885E+03  0.47000000000E+01 0. -1.
        -13    1    4    4    0    0  0.67255200299E+02 -0.22344574826E+01  0.12813022047E+03  0.14472597612E+03  0.00000000000E+00 0.  1.
         14    1    4    4    0    0  0.44216511799E+02 -0.89389810989E+02  0.16433993736E+03  0.19223228978E+03  0.00000000000E+00 0. -1.
         -5    1    5    5    0  502 -0.17541520551E+03  0.12983955524E+03  0.15125099759E+03  0.26557062846E+03  0.47000000000E+01 0.  1.
         13    1    6    6    0    0 -0.60574757140E+02  0.36632857195E+02  0.72258723982E+02  0.10115626832E+03  0.00000000000E+00 0. -1.
        -14    1    6    6    0    0 -0.12970724349E+02 -0.34897151773E+02  0.47963944540E+02  0.60717302871E+02  0.00000000000E+00 0.  1.
<mgrwt>
<rscale>  2 0.33027387E+03</rscale>
<asrwt>0</asrwt>
<pdfrwt beam="1">  1       21 0.12253812E+00 0.33030933E+03</pdfrwt>
<pdfrwt beam="2">  1       21 0.21384653E-01 0.33030933E+03</pdfrwt>
<totfact> 0.94444188E+03</totfact>
</mgrwt>
</event>
<event>
12    1  0.1039378E-001  0.1813836E+03  0.7546771E-02  0.1166670E+00
         21   -1    0    0  501  502  0.00000000000E+00  0.00000000000E+00  0.17271399606E+02  0.17271399606E+02  0.00000000000E+00 0. -1.
         21   -1    0    0  502  503 -0.00000000000E+00 -0.00000000000E+00 -0.19171500600E+04  0.19171500600E+04  0.00000000000E+00 0. -1.
         -6    2    1    2    0  503 -0.45793678149E+02 -0.23741170936E+02 -0.10489467873E+04  0.10643725657E+04  0.17302858668E+03 0.  0.
        -24    2    3    3    0    0 -0.11573932588E+02 -0.78834228870E+02 -0.60519705301E+03  0.61588382256E+03  0.81857304844E+02 0.  0.
          6    2    1    2  501    0  0.45793678149E+02  0.23741170936E+02 -0.85093187315E+03  0.87004889399E+03  0.17389456874E+03 0.  0.
         24    2    5    5    0    0  0.39070579075E+02 -0.41991202883E+02 -0.31478456706E+03  0.32982489522E+03  0.80033534056E+02 0.  0.
          5    1    5    5  501    0  0.67230990745E+01  0.65732373819E+02 -0.53614730609E+03  0.54022399878E+03  0.47000000000E+01 0. -1.
        -13    1    6    6    0    0 -0.22276518776E+02 -0.98627154113E+01 -0.43672210764E+02  0.50007783765E+02  0.00000000000E+00 0.  1.
         14    1    6    6    0    0  0.61347097851E+02 -0.32128487472E+02 -0.27111235630E+03  0.27981711145E+03  0.00000000000E+00 0. -1.
         -5    1    3    3    0  503 -0.34219745561E+02  0.55093057934E+02 -0.44374973428E+03  0.44848874310E+03  0.47000000000E+01 0.  1.
         11    1    4    4    0    0 -0.15202192974E+02 -0.41777664673E+02 -0.53110290115E+03  0.53296038459E+03  0.00000000000E+00 0. -1.
        -12    1    4    4    0    0  0.36282603854E+01 -0.37056564197E+02 -0.74094151862E+02  0.82923437964E+02  0.00000000000E+00 0.  1.
<mgrwt>
<rscale>  2 0.18117577E+03</rscale>
<asrwt>0</asrwt>
<pdfrwt beam="1">  1       21 0.26571397E-02 0.18138364E+03</pdfrwt>
<pdfrwt beam="2">  1       21 0.29494602E+00 0.18138364E+03</pdfrwt>
<totfact> 0.28527861E+04</totfact>
</mgrwt>
</event>
<event>
12    1  0.1039378E-001  0.1967665E+03  0.7546771E-02  0.1152614E+00
         21   -1    0    0  501  502  0.00000000000E+00  0.00000000000E+00  0.11065898959E+04  0.11065898959E+04  0.00000000000E+00 0.  1.
         21   -1    0    0  502  503 -0.00000000000E+00 -0.00000000000E+00 -0.34960798180E+02  0.34960798180E+02  0.00000000000E+00 0. -1.
         -6    2    1    2    0  503 -0.61955816446E+02 -0.69257924879E+02  0.51106167305E+03  0.54763226777E+03  0.17344129752E+03 0.  0.
        -24    2    3    3    0    0 -0.10923838583E+03 -0.42459157888E+02  0.37946820786E+03  0.40517966034E+03  0.80241082690E+02 0.  0.
          6    2    1    2  501    0  0.61955816446E+02  0.69257924879E+02  0.56056742470E+03  0.59391842634E+03  0.17282382986E+03 0.  0.
         24    2    5    5    0    0  0.11919142123E+00  0.86388770194E+02  0.30121698172E+03  0.32670694394E+03  0.92426853888E+02 0.  0.
          5    1    5    5  501    0  0.61836625024E+02 -0.17130845315E+02  0.25935044298E+03  0.26721148240E+03  0.47000000000E+01 0. -1.
        -11    1    6    6    0    0 -0.37727008774E+02  0.45124868547E+02  0.22226672684E+03  0.22991754786E+03  0.00000000000E+00 0.  1.
         12    1    6    6    0    0  0.37846200195E+02  0.41263901648E+02  0.78950254879E+02  0.96789396082E+02  0.00000000000E+00 0. -1.
         -5    1    3    3    0  503  0.47282569389E+02 -0.26798766991E+02  0.13159346520E+03  0.14245260743E+03  0.47000000000E+01 0.  1.
         11    1    4    4    0    0 -0.52230556064E+02  0.21390010859E+02  0.15121821785E+03  0.16140790861E+03  0.00000000000E+00 0. -1.
        -12    1    4    4    0    0 -0.57007829770E+02 -0.63849168748E+02  0.22824999001E+03  0.24377175173E+03  0.00000000000E+00 0.  1.
<mgrwt>
<rscale>  2 0.19663037E+03</rscale>
<asrwt>0</asrwt>
<pdfrwt beam="1">  1       21 0.17024457E+00 0.19676653E+03</pdfrwt>
<pdfrwt beam="2">  1       21 0.53785852E-02 0.19676653E+03</pdfrwt>
<totfact> 0.50380226E+04</totfact>
</mgrwt>
</event>
<event>
12    1  0.1039378E-001  0.2376689E+03  0.7546771E-02  0.1121837E+00
         21   -1    0    0  503  502  0.00000000000E+00  0.00000000000E+00  0.19817207291E+02  0.19817207291E+02  0.00000000000E+00 0.  1.
         21   -1    0    0  501  503 -0.00000000000E+00 -0.00000000000E+00 -0.30469156511E+04  0.30469156511E+04  0.00000000000E+00 0.  1.
          6    2    1    2  501    0  0.80160402431E+02 -0.13676642992E+03 -0.19268360903E+04  0.19410935973E+04  0.17325209493E+03 0.  0.
         24    2    3    3    0    0  0.10462733272E+03 -0.96975844858E+02 -0.17694830018E+04  0.17768863935E+04  0.76837286289E+02 0.  0.
         -6    2    1    2    0  502 -0.80160402431E+02  0.13676642992E+03 -0.11002623535E+04  0.11256392610E+04  0.17707555714E+03 0.  0.
        -24    2    5    5    0    0  0.11475202573E+02  0.22589792555E+02 -0.27924475315E+03  0.29165761931E+03  0.80277990348E+02 0.  0.
          5    1    3    3  501    0 -0.24466930288E+02 -0.39790585060E+02 -0.15735308850E+03  0.16420720385E+03  0.47000000000E+01 0. -1.
        -11    1    4    4    0    0  0.61442050870E+02 -0.57615793374E+02 -0.59287363170E+03  0.59882706054E+03  0.00000000000E+00 0.  1.
         12    1    4    4    0    0  0.43185281849E+02 -0.39360051484E+02 -0.11766093701E+04  0.11780593330E+04  0.00000000000E+00 0. -1.
         -5    1    5    5    0  502 -0.91635605004E+02  0.11417663736E+03 -0.82101760037E+03  0.83398164173E+03  0.47000000000E+01 0.  1.
         11    1    6    6    0    0 -0.24895490835E+02  0.64539943072E+01 -0.31162253450E+02  0.40404523837E+02  0.00000000000E+00 0. -1.
        -12    1    6    6    0    0  0.36370693408E+02  0.16135798248E+02 -0.24808249970E+03  0.25125309547E+03  0.00000000000E+00 0.  1.
<mgrwt>
<rscale>  2 0.23695699E+03</rscale>
<asrwt>0</asrwt>
<pdfrwt beam="1">  1       21 0.30488008E-02 0.23766889E+03</pdfrwt>
<pdfrwt beam="2">  1       21 0.46875630E+00 0.23766889E+03</pdfrwt>
<totfact> 0.18026371E+03</totfact>
</mgrwt>
</event>
<event>
12    1  0.1039378E-001  0.2830171E+03  0.7546771E-02  0.1094081E+00
         21   -1    0    0  503  502  0.00000000000E+00  0.00000000000E+00  0.63319648258E+03  0.63319648258E+03  0.00000000000E+00 0. -1.
         21   -1    0    0  501  503 -0.00000000000E+00 -0.00000000000E+00 -0.20254018685E+03  0.20254018685E+03  0.00000000000E+00 0.  1.
          6    2    1    2  501    0 -0.15690072406E+03  0.15868390825E+03  0.47147609546E+03  0.54979097468E+03  0.17372963854E+03 0.  0.
         24    2    3    3    0    0 -0.14936774597E+03  0.81729388440E+02  0.23635036845E+03  0.30223301909E+03  0.80578438111E+02 0.  0.
         -6    2    1    2    0  502  0.15690072406E+03 -0.15868390825E+03 -0.40819799724E+02  0.28594569474E+03  0.17406971116E+03 0.  0.
        -24    2    5    5    0    0  0.10253815177E+03 -0.11984885845E+03 -0.93903014423E+02  0.20048594959E+03  0.80616489778E+02 0.  0.
          5    1    3    3  501    0 -0.75329780904E+01  0.76954519809E+02  0.23512572701E+03  0.24755795559E+03  0.47000000000E+01 0. -1.
        -11    1    4    4    0    0  0.81836930528E+01  0.13008368948E+02  0.29698455598E+02  0.33439329532E+02  0.00000000000E+00 0.  1.
         12    1    4    4    0    0 -0.15755143903E+03  0.68721019491E+02  0.20665191285E+03  0.26879368956E+03  0.00000000000E+00 0. -1.
         -5    1    5    5    0  502  0.54362572293E+02 -0.38835049802E+02  0.53083214700E+02  0.85459745157E+02  0.47000000000E+01 0.  1.
         13    1    6    6    0    0  0.54582966441E+01 -0.64461447171E+02 -0.42944108836E+02  0.77648359013E+02  0.00000000000E+00 0. -1.
        -14    1    6    6    0    0  0.97079855127E+02 -0.55387411275E+02 -0.50958905588E+02  0.12283759057E+03  0.00000000000E+00 0.  1.
<mgrwt>
<rscale>  2 0.28296484E+03</rscale>
<asrwt>0</asrwt>
<pdfrwt beam="1">  1       21 0.97414843E-01 0.28301711E+03</pdfrwt>
<pdfrwt beam="2">  1       21 0.31160029E-01 0.28301711E+03</pdfrwt>
<totfact> 0.81747485E+03</totfact>
</mgrwt>
</event>
<event>
12    1  0.1039378E-001  0.2292093E+03  0.7546771E-02  0.1127235E+00
         21   -1    0    0  501  502  0.00000000000E+00  0.00000000000E+00  0.60677504290E+03  0.60677504290E+03  0.00000000000E+00 0.  1.
         21   -1    0    0  502  503 -0.00000000000E+00 -0.00000000000E+00 -0.10700529607E+03  0.10700529607E+03  0.00000000000E+00 0.  1.
         -6    2    1    2    0  503  0.91771946625E+02  0.11843756045E+03  0.93570831115E+02  0.24737441729E+03  0.17317348522E+03 0.  0.
        -24    2    3    3    0    0 -0.13718962547E+02  0.60243696634E+02 -0.23539099819E+01  0.93301370794E+02  0.69871968501E+02 0.  0.
          6    2    1    2  501    0 -0.91771946625E+02 -0.11843756045E+03  0.40619891572E+03  0.46640592167E+03  0.17345713802E+03 0.  0.
         24    2    5    5    0    0 -0.10761319007E+03 -0.12744601795E+03  0.25972461649E+03  0.31872752909E+03  0.79418355711E+02 0.  0.
          5    1    5    5  501    0  0.15841243449E+02  0.90084575006E+01  0.14647429923E+03  0.14767839258E+03  0.47000000000E+01 0. -1.
        -13    1    6    6    0    0 -0.43279119963E+02 -0.97963077603E+02  0.19668867392E+03  0.22395598060E+03  0.00000000000E+00 0.  1.
         14    1    6    6    0    0 -0.64334070111E+02 -0.29482940344E+02  0.63035942569E+02  0.94771548494E+02  0.00000000000E+00 0. -1.
         -5    1    3    3    0  503  0.10549090917E+03  0.58193863811E+02  0.95924741097E+02  0.15407304650E+03  0.47000000000E+01 0.  1.
         11    1    4    4    0    0  0.13334407918E+02 -0.44484801327E+01 -0.16595492479E+02  0.21748696068E+02  0.00000000000E+00 0. -1.
        -12    1    4    4    0    0 -0.27053370465E+02  0.64692176767E+02  0.14241582498E+02  0.71552674726E+02  0.00000000000E+00 0.  1.
<mgrwt>
<rscale>  2 0.22915568E+03</rscale>
<asrwt>0</asrwt>
<pdfrwt beam="1">  1       21 0.93350004E-01 0.22920935E+03</pdfrwt>
<pdfrwt beam="2">  1       21 0.16462354E-01 0.22920935E+03</pdfrwt>
<totfact> 0.31318053E+04</totfact>
</mgrwt>
</event>
<event>
12    1  0.1039378E-001  0.1899554E+03  0.7546771E-02  0.1159159E+00
         21   -1    0    0  501  502  0.00000000000E+00  0.00000000000E+00  0.10571631251E+04  0.10571631251E+04  0.00000000000E+00 0.  1.
         21   -1    0    0  502  503 -0.00000000000E+00 -0.00000000000E+00 -0.76224640066E+02  0.76224640066E+02  0.00000000000E+00 0.  1.
         -6    2    1    2    0  503 -0.55800749939E+02 -0.56503676100E+02  0.68434149817E+02  0.20190665793E+03  0.17255919723E+03 0.  0.
        -24    2    3    3    0    0 -0.30668692025E+02 -0.34141968942E+02  0.11314867291E+03  0.14575378750E+03  0.79594608338E+02 0.  0.
          6    2    1    2  501    0  0.55800749939E+02  0.56503676100E+02  0.91250433526E+03  0.93148110728E+03  0.16937090143E+03 0.  0.
         24    2    5    5    0    0  0.84635191595E+02  0.83655221156E+02  0.69760646064E+03  0.71291345656E+03  0.86194610853E+02 0.  0.
          5    1    5    5  501    0 -0.28834441656E+02 -0.27151545056E+02  0.21489787462E+03  0.21856765072E+03  0.47000000000E+01 0. -1.
        -11    1    6    6    0    0  0.76194870366E+02  0.18522492146E+02  0.44801666948E+03  0.45482708486E+03  0.00000000000E+00 0.  1.
         12    1    6    6    0    0  0.84403212294E+01  0.65132729010E+02  0.24958979116E+03  0.25808637171E+03  0.00000000000E+00 0. -1.
         -5    1    3    3    0  503 -0.25132057913E+02 -0.22361707158E+02 -0.44714523089E+02  0.56152870426E+02  0.47000000000E+01 0.  1.
         13    1    4    4    0    0 -0.44437721934E+02  0.10031306611E+02  0.58598894137E+02  0.74223774069E+02  0.00000000000E+00 0. -1.
        -14    1    4    4    0    0  0.13769029909E+02 -0.44173275553E+02  0.54549778769E+02  0.71530013431E+02  0.00000000000E+00 0.  1.
<mgrwt>
<rscale>  2 0.18922838E+03</rscale>
<asrwt>0</asrwt>
<pdfrwt beam="1">  1       21 0.16264047E+00 0.18995543E+03</pdfrwt>
<pdfrwt beam="2">  1       21 0.11726868E-01 0.18995543E+03</pdfrwt>
<totfact> 0.14753256E+04</totfact>
</mgrwt>
</event>
<event>
12    1  0.1039378E-001  0.1952694E+03  0.7546771E-02  0.1154077E+00
         21   -1    0    0  503  502  0.00000000000E+00  0.00000000000E+00  0.72585388356E+03  0.72585388356E+03  0.00000000000E+00 0.  1.
         21   -1    0    0  501  503 -0.00000000000E+00 -0.00000000000E+00 -0.14849299854E+03  0.14849299854E+03  0.00000000000E+00 0.  1.
          6    2    1    2  501    0 -0.82394947012E+02  0.28040994042E+02 -0.63057293948E+02  0.20519834669E+03  0.17479964109E+03 0.  0.
         24    2    3    3    0    0 -0.12286085282E+03  0.35557037643E+02 -0.63107192360E+02  0.16377283603E+03  0.80498024901E+02 0.  0.
         -6    2    1    2    0  502  0.82394947012E+02 -0.28040994042E+02  0.64041817897E+03  0.66914853541E+03  0.17334674455E+03 0.  0.
        -24    2    5    5    0    0  0.51097263507E+02 -0.84021937197E+02  0.47660602627E+03  0.49316580228E+03  0.79928643104E+02 0.  0.
          5    1    3    3  501    0  0.40465905804E+02 -0.75160436016E+01  0.49898411759E-01  0.41425510665E+02  0.47000000000E+01 0. -1.
        -13    1    4    4    0    0 -0.49651863310E+02  0.42485846065E+02  0.22551618159E+01  0.65386851896E+02  0.00000000000E+00 0.  1.
         14    1    4    4    0    0 -0.73208989506E+02 -0.69288084214E+01 -0.65362354176E+02  0.98385984134E+02  0.00000000000E+00 0. -1.
         -5    1    5    5    0  502  0.31297683505E+02  0.55980943155E+02  0.16381215269E+03  0.17598273313E+03  0.47000000000E+01 0.  1.
         13    1    6    6    0    0  0.36693397395E+02 -0.46276325082E+01  0.76085198041E+02  0.84597740844E+02  0.00000000000E+00 0. -1.
        -14    1    6    6    0    0  0.14403866112E+02 -0.79394304689E+02  0.40052082823E+03  0.40856806143E+03  0.00000000000E+00 0.  1.
<mgrwt>
<rscale>  2 0.19494371E+03</rscale>
<asrwt>0</asrwt>
<pdfrwt beam="1">  1       21 0.11166983E+00 0.19526940E+03</pdfrwt>
<pdfrwt beam="2">  1       21 0.22845077E-01 0.19526940E+03</pdfrwt>
<totfact> 0.11299494E+04</totfact>
</mgrwt>
</event>
<event>
12    1  0.1039378E-001  0.2305762E+03  0.7546771E-02  0.1126242E+00
         21   -1    0    0  501  502  0.00000000000E+00  0.00000000000E+00  0.19374827757E+04  0.19374827757E+04  0.00000000000E+00 0.  1.
         21   -1    0    0  502  503 -0.00000000000E+00 -0.00000000000E+00 -0.30449725371E+02  0.30449725371E+02  0.00000000000E+00 0. -1.
         -6    2    1    2    0  503 -0.15179523494E+03  0.10118297237E+02  0.64385578657E+03  0.68388336147E+03  0.17321086835E+03 0.  0.
        -24    2    3    3    0    0 -0.16158931241E+03  0.50831722684E+02  0.53530212275E+03  0.56743811728E+03  0.82113850321E+02 0.  0.
          6    2    1    2  501    0  0.15179523494E+03 -0.10118297237E+02  0.12631772637E+04  0.12840491396E+04  0.17326632658E+03 0.  0.
         24    2    5    5    0    0  0.17307865525E+03 -0.34291460336E+02  0.11447738460E+04  0.11612534347E+04  0.82887007718E+02 0.  0.
          5    1    5    5  501    0 -0.21283420308E+02  0.24173163099E+02  0.11840341775E+03  0.12279570485E+03  0.47000000000E+01 0. -1.
        -13    1    6    6    0    0  0.15399271813E+02  0.18994388250E+02  0.24481891877E+03  0.24603704466E+03  0.00000000000E+00 0.  1.
         14    1    6    6    0    0  0.15767938343E+03 -0.53285848586E+02  0.89995492723E+03  0.91521639008E+03  0.00000000000E+00 0. -1.
         -5    1    3    3    0  503  0.97940774720E+01 -0.40713425447E+02  0.10855366382E+03  0.11644524419E+03  0.47000000000E+01 0.  1.
         11    1    4    4    0    0 -0.13534774061E+03  0.22701480183E+02  0.31204274662E+03  0.34088860909E+03  0.00000000000E+00 0. -1.
        -12    1    4    4    0    0 -0.26241571801E+02  0.28130242501E+02  0.22325937613E+03  0.22654950820E+03  0.00000000000E+00 0.  1.
<mgrwt>
<rscale>  2 0.23056580E+03</rscale>
<asrwt>0</asrwt>
<pdfrwt beam="1">  1       21 0.29807418E+00 0.23057622E+03</pdfrwt>
<pdfrwt beam="2">  1       21 0.46845747E-02 0.23057622E+03</pdfrwt>
<totfact> 0.10127570E+04</totfact>
</mgrwt>
</event>
<event>
12    1  0.1039378E-001  0.1788859E+03  0.7546771E-02  0.1169455E+00
         21   -1    0    0  501  502  0.00000000000E+00  0.00000000000E+00  0.39245464654E+03  0.39245464654E+03  0.00000000000E+00 0. -1.
         21   -1    0    0  502  503 -0.00000000000E+00 -0.00000000000E+00 -0.18076166884E+03  0.18076166884E+03  0.00000000000E+00 0. -1.
         -6    2    1    2    0  503  0.20430504036E+02 -0.32689049581E+02 -0.10792683911E+03  0.20694184181E+03  0.17231002244E+03 0.  0.
        -24    2    3    3    0    0  0.59637466709E+02 -0.17331037347E+02 -0.13147575005E+02  0.10312347462E+03  0.81268690144E+02 0.  0.
          6    2    1    2  501    0 -0.20430504036E+02  0.32689049581E+02  0.31961981681E+03  0.36627447357E+03  0.17468309373E+03 0.  0.
         24    2    5    5    0    0  0.11760468040E+02 -0.39898555322E+02  0.10148246770E+03  0.13408659244E+03  0.77138315353E+02 0.  0.
          5    1    5    5  501    0 -0.32190972075E+02  0.72587604903E+02  0.21813734911E+03  0.23218788113E+03  0.47000000000E+01 0. -1.
        -13    1    6    6    0    0  0.40802853877E+02 -0.41158414083E+01  0.40379755490E+02  0.57552912075E+02  0.00000000000E+00 0.  1.
         14    1    6    6    0    0 -0.29042385837E+02 -0.35782713913E+02  0.61102712212E+02  0.76533680362E+02  0.00000000000E+00 0. -1.
         -5    1    3    3    0  503 -0.39206962673E+02 -0.15358012234E+02 -0.94779264104E+02  0.10381836719E+03  0.47000000000E+01 0.  1.
         11    1    4    4    0    0  0.43755628412E+02  0.11881788038E+02 -0.39938881811E+02  0.60422232539E+02  0.00000000000E+00 0. -1.
        -12    1    4    4    0    0  0.15881838297E+02 -0.29212825385E+02  0.26791306806E+02  0.42701242078E+02  0.00000000000E+00 0.  1.
<mgrwt>
<rscale>  2 0.17830391E+03</rscale>
<asrwt>0</asrwt>
<pdfrwt beam="1">  1       21 0.60377638E-01 0.17888589E+03</pdfrwt>
<pdfrwt beam="2">  1       21 0.27809488E-01 0.17888589E+03</pdfrwt>
<totfact> 0.31794918E+04</totfact>
</mgrwt>
</event>
<event>
12    1  0.1039378E-001  0.2300016E+03  0.7546771E-02  0.1127411E+00
         21   -1    0    0  501  502  0.00000000000E+00  0.00000000000E+00  0.68181630043E+03  0.68181630043E+03  0.00000000000E+00 0.  1.
         21   -1    0    0  502  503 -0.00000000000E+00 -0.00000000000E+00 -0.85882720971E+02  0.85882720971E+02  0.00000000000E+00 0.  1.
         -6    2    1    2    0  503 -0.89724287057E+02  0.12296891506E+03  0.16609112584E+03  0.28018979001E+03  0.16657807354E+03 0.  0.
        -24    2    3    3    0    0 -0.78963712937E+02  0.86677822388E+02  0.37804992961E+02  0.14635311622E+03  0.79004457344E+02 0.  0.
          6    2    1    2  501    0  0.89724287057E+02 -0.12296891506E+03  0.42984245363E+03  0.48750923139E+03  0.17242074700E+03 0.  0.
         24    2    5    5    0    0  0.41377867417E+01 -0.24569947429E+00  0.14225623368E+03  0.16329639916E+03  0.80073068575E+02 0.  0.
          5    1    5    5  501    0  0.85586500315E+02 -0.12272321559E+03  0.28758621995E+03  0.32421283224E+03  0.47000000000E+01 0. -1.
        -13    1    6    6    0    0  0.37792410926E+02 -0.45270950104E+01  0.11032777224E+03  0.11670894670E+03  0.00000000000E+00 0.  1.
         14    1    6    6    0    0 -0.33654624185E+02  0.42813955361E+01  0.31928461439E+02  0.46587452459E+02  0.00000000000E+00 0. -1.
         -5    1    3    3    0  503 -0.10760574120E+02  0.36291092675E+02  0.12828613288E+03  0.13383667379E+03  0.47000000000E+01 0.  1.
         13    1    4    4    0    0  0.14580245975E+02  0.12405585128E+01  0.52763190753E+01  0.15555131022E+02  0.00000000000E+00 0. -1.
        -14    1    4    4    0    0 -0.93543958913E+02  0.85437263875E+02  0.32528673885E+02  0.13079798520E+03  0.00000000000E+00 0.  1.
<mgrwt>
<rscale>  2 0.22890706E+03</rscale>
<asrwt>0</asrwt>
<pdfrwt beam="1">  1       21 0.10489481E+00 0.23000156E+03</pdfrwt>
<pdfrwt beam="2">  1       21 0.13212727E-01 0.23000156E+03</pdfrwt>
<totfact> 0.35445172E+04</totfact>
</mgrwt>
</event>
<event>
12    1  0.1039378E-001  0.1843005E+03  0.7546771E-02  0.1164110E+00
         21   -1    0    0  501  502  0.00000000000E+00  0.00000000000E+00  0.77032712952E+03  0.77032712952E+03  0.00000000000E+00 0.  1.
         21   -1    0    0  502  503 -0.00000000000E+00 -0.00000000000E+00 -0.69621108865E+02  0.69621108865E+02  0.00000000000E+00 0.  1.
         -6    2    1    2    0  503  0.20202724958E+02  0.57576789898E+02  0.92985977375E+02  0.20489681634E+03  0.17208450404E+03 0.  0.
        -24    2    3    3    0    0 -0.13391487615E+02  0.23797790472E+01  0.11060901497E+03  0.13775560263E+03  0.80976889132E+02 0.  0.
          6    2    1    2  501    0 -0.20202724958E+02 -0.57576789898E+02  0.60772004328E+03  0.63505142204E+03  0.17390635641E+03 0.  0.
         24    2    5    5    0    0 -0.40797808276E+02 -0.58366691068E+02  0.20055746050E+03  0.22734044571E+03  0.79932793702E+02 0.  0.
          5    1    5    5  501    0  0.20595083318E+02  0.78990116938E+00  0.40716258278E+03  0.40771097633E+03  0.47000000000E+01 0. -1.
        -13    1    6    6    0    0 -0.25690187914E+02 -0.12313045964E+02  0.91954888543E+01  0.29935829222E+02  0.00000000000E+00 0.  1.
         14    1    6    6    0    0 -0.15107620362E+02 -0.46053645103E+02  0.19136197164E+03  0.19740461649E+03  0.00000000000E+00 0. -1.
         -5    1    3    3    0  503  0.33594212573E+02  0.55197010851E+02 -0.17623037596E+02  0.67141213717E+02  0.47000000000E+01 0.  1.
         11    1    4    4    0    0 -0.24298935704E+02  0.24359130598E+02  0.10768131970E+03  0.11304455817E+03  0.00000000000E+00 0. -1.
        -12    1    4    4    0    0  0.10907448089E+02 -0.21979351551E+02  0.29276952685E+01  0.24711044454E+02  0.00000000000E+00 0.  1.
<mgrwt>
<rscale>  2 0.18386942E+03</rscale>
<asrwt>0</asrwt>
<pdfrwt beam="1">  1       21 0.11851186E+00 0.18430045E+03</pdfrwt>
<pdfrwt beam="2">  1       21 0.10710940E-01 0.18430045E+03</pdfrwt>
<totfact> 0.39315453E+04</totfact>
</mgrwt>
</event>
<event>
12    1  0.1039378E-001  0.1835894E+03  0.7546771E-02  0.1164397E+00
         21   -1    0    0  503  502  0.00000000000E+00  0.00000000000E+00  0.58101131398E+02  0.58101131398E+02  0.00000000000E+00 0.  1.
         21   -1    0    0  501  503 -0.00000000000E+00 -0.00000000000E+00 -0.64592717102E+03  0.64592717102E+03  0.00000000000E+00 0.  1.
          6    2    1    2  501    0  0.34300037023E+01  0.59434492645E+02 -0.40660983432E+03  0.44613520311E+03  0.17366876012E+03 0.  0.
         24    2    3    3    0    0 -0.46823347391E+02  0.17708115429E+02 -0.34128354293E+03  0.35363599122E+03  0.77961236541E+02 0.  0.
         -6    2    1    2    0  502 -0.34300037023E+01 -0.59434492645E+02 -0.18121620530E+03  0.25789309931E+03  0.17356645346E+03 0.  0.
        -24    2    5    5    0    0 -0.26632699462E+01  0.33466901176E+02 -0.61864345502E+02  0.10657154337E+03  0.80019810865E+02 0.  0.
          5    1    3    3  501    0  0.50253351094E+02  0.41726377216E+02 -0.65326291396E+02  0.92499211884E+02  0.47000000000E+01 0. -1.
        -13    1    4    4    0    0  0.11022723452E+02 -0.11164417989E+02 -0.16720859188E+03  0.16794301968E+03  0.00000000000E+00 0.  1.
         14    1    4    4    0    0 -0.57846070844E+02  0.28872533419E+02 -0.17407495105E+03  0.18569297154E+03  0.00000000000E+00 0. -1.
         -5    1    5    5    0  502 -0.76673375612E+00 -0.92901393821E+02 -0.11935185979E+03  0.15132155594E+03  0.47000000000E+01 0.  1.
         11    1    6    6    0    0 -0.24404619102E+02 -0.26791750985E+01 -0.59451862155E+02  0.64321748471E+02  0.00000000000E+00 0. -1.
        -12    1    6    6    0    0  0.21741349155E+02  0.36146076275E+02 -0.24124833469E+01  0.42249794899E+02  0.00000000000E+00 0.  1.
<mgrwt>
<rscale>  2 0.18356519E+03</rscale>
<asrwt>0</asrwt>
<pdfrwt beam="1">  1       21 0.89386354E-02 0.18358938E+03</pdfrwt>
<pdfrwt beam="2">  1       21 0.99373413E-01 0.18358938E+03</pdfrwt>
<totfact> 0.82702431E+04</totfact>
</mgrwt>
</event>
<event>
12    1  0.1039378E-001  0.1910598E+03  0.7546771E-02  0.1157624E+00
         21   -1    0    0  503  502  0.00000000000E+00  0.00000000000E+00  0.15281962647E+03  0.15281962647E+03  0.00000000000E+00 0. -1.
         21   -1    0    0  501  503 -0.00000000000E+00 -0.00000000000E+00 -0.24845699310E+03  0.24845699310E+03  0.00000000000E+00 0. -1.
          6    2    1    2  501    0  0.63804265867E+01  0.79334685274E+02 -0.88468803604E+02  0.21008236025E+03  0.17312760250E+03 0.  0.
         24    2    3    3    0    0 -0.37875450056E+02 -0.83976577792E+01 -0.58579285218E+02  0.10726689476E+03  0.81052968374E+02 0.  0.
         -6    2    1    2    0  502 -0.63804265867E+01 -0.79334685274E+02 -0.71685630288E+01  0.19119425931E+03  0.17369270096E+03 0.  0.
        -24    2    5    5    0    0  0.31890240455E+02 -0.10402251116E+03  0.21809990488E+02  0.13700958189E+03  0.80363421906E+02 0.  0.
          5    1    3    3  501    0  0.44255876643E+02  0.87732343053E+02 -0.29889518386E+02  0.10281546549E+03  0.47000000000E+01 0. -1.
        -11    1    4    4    0    0 -0.56977013329E+02  0.12683264050E+02 -0.25670991436E+02  0.63767115633E+02  0.00000000000E+00 0.  1.
         12    1    4    4    0    0  0.19101563273E+02 -0.21080921829E+02 -0.32908293782E+02  0.43499779129E+02  0.00000000000E+00 0. -1.
         -5    1    5    5    0  502 -0.38270667042E+02  0.24687825888E+02 -0.28978553516E+02  0.54184677417E+02  0.47000000000E+01 0.  1.
         13    1    6    6    0    0 -0.20954298612E+02 -0.17835026291E+02 -0.12534391865E+02  0.30237092660E+02  0.00000000000E+00 0. -1.
        -14    1    6    6    0    0  0.52844539067E+02 -0.86187484872E+02  0.34344382353E+02  0.10677248923E+03  0.00000000000E+00 0.  1.
<mgrwt>
<rscale>  2 0.19093130E+03</rscale>
<asrwt>0</asrwt>
<pdfrwt beam="1">  1       21 0.23510712E-01 0.19105982E+03</pdfrwt>
<pdfrwt beam="2">  1       21 0.38224153E-01 0.19105982E+03</pdfrwt>
<totfact> 0.11243767E+05</totfact>
</mgrwt>
</event>
<event>
12    1  0.1039378E-001  0.1979248E+03  0.7546771E-02  0.1151712E+00
         21   -1    0    0  501  502  0.00000000000E+00  0.00000000000E+00  0.34860248688E+02  0.34860248688E+02  0.00000000000E+00 0.  1.
         21   -1    0    0  502  503 -0.00000000000E+00 -0.00000000000E+00 -0.12772296787E+04  0.12772296787E+04  0.00000000000E+00 0.  1.
         -6    2    1    2    0  503 -0.95568559652E+02 -0.13178282618E+02 -0.85402928712E+03  0.87666428479E+03  0.17282137668E+03 0.  0.
        -24    2    3    3    0    0 -0.47672828514E+02 -0.65662411335E+02 -0.65893054914E+03  0.66897655672E+03  0.82194367277E+02 0.  0.
          6    2    1    2  501    0  0.95568559652E+02  0.13178282618E+02 -0.38834014288E+03  0.43542564259E+03  0.17169859325E+03 0.  0.
         24    2    5    5    0    0  0.17926187889E+02 -0.36881286695E+02 -0.11425422222E+03  0.14615158520E+03  0.81392143607E+02 0.  0.
          5    1    5    5  501    0  0.77642371763E+02  0.50059569313E+02 -0.27408592067E+03  0.28927405740E+03  0.47000000000E+01 0. -1.
        -11    1    6    6    0    0  0.16298741193E+02 -0.62371157812E+02 -0.91601164132E+02  0.11201153316E+03  0.00000000000E+00 0.  1.
         12    1    6    6    0    0  0.16274466960E+01  0.25489871117E+02 -0.22653058083E+02  0.34140052033E+02  0.00000000000E+00 0. -1.
         -5    1    3    3    0  503 -0.47895731138E+02  0.52484128717E+02 -0.19509873798E+03  0.20768772807E+03  0.47000000000E+01 0.  1.
         13    1    4    4    0    0 -0.51278313967E+02 -0.62350953310E+02 -0.32050492219E+03  0.33051552461E+03  0.00000000000E+00 0. -1.
        -14    1    4    4    0    0  0.36054854526E+01 -0.33114580247E+01 -0.33842562695E+03  0.33846103211E+03  0.00000000000E+00 0.  1.
<mgrwt>
<rscale>  2 0.19767949E+03</rscale>
<asrwt>0</asrwt>
<pdfrwt beam="1">  1       21 0.53631150E-02 0.19792485E+03</pdfrwt>
<pdfrwt beam="2">  1       21 0.19649688E+00 0.19792485E+03</pdfrwt>
<totfact> 0.33651432E+04</totfact>
</mgrwt>
</event>
<event>
12    1  0.1039378E-001  0.1888409E+03  0.7546771E-02  0.1159589E+00
         21   -1    0    0  501  502  0.00000000000E+00  0.00000000000E+00  0.32015689587E+03  0.32015689587E+03  0.00000000000E+00 0. -1.
         21   -1    0    0  502  503 -0.00000000000E+00 -0.00000000000E+00 -0.13106362542E+03  0.13106362542E+03  0.00000000000E+00 0. -1.
         -6    2    1    2    0  503  0.46704379262E+02  0.58087555687E+02  0.67528578831E+01  0.18896164897E+03  0.17350919435E+03 0.  0.
        -24    2    3    3    0    0  0.63986444915E+02 -0.25539362582E+01 -0.38477054218E+02  0.11121915553E+03  0.82391923944E+02 0.  0.
          6    2    1    2  501    0 -0.46704379262E+02 -0.58087555687E+02  0.18234041256E+03  0.26225887232E+03  0.17313644009E+03 0.  0.
         24    2    5    5    0    0 -0.88908222569E+02 -0.55446345794E+02  0.86725959348E+02  0.15760537719E+03  0.79618424949E+02 0.  0.
          5    1    5    5  501    0  0.42203843307E+02 -0.26412098935E+01  0.95614453211E+02  0.10465349513E+03  0.47000000000E+01 0. -1.
        -11    1    6    6    0    0 -0.17572511952E+02 -0.57403501469E+02  0.35280626874E+02  0.69632447823E+02  0.00000000000E+00 0.  1.
         12    1    6    6    0    0 -0.71335710618E+02  0.19571556753E+01  0.51445332474E+02  0.87972929365E+02  0.00000000000E+00 0. -1.
         -5    1    3    3    0  503 -0.17282065654E+02  0.60641491945E+02  0.45229912101E+02  0.77742493447E+02  0.47000000000E+01 0.  1.
         13    1    4    4    0    0  0.80115347631E+02  0.10926767627E+01 -0.13481796040E+02  0.81249133491E+02  0.00000000000E+00 0. -1.
        -14    1    4    4    0    0 -0.16128902716E+02 -0.36466130208E+01 -0.24995258178E+02  0.29970022034E+02  0.00000000000E+00 0.  1.
<mgrwt>
<rscale>  2 0.18875528E+03</rscale>
<asrwt>0</asrwt>
<pdfrwt beam="1">  1       21 0.49254907E-01 0.18884095E+03</pdfrwt>
<pdfrwt beam="2">  1       21 0.20163635E-01 0.18884095E+03</pdfrwt>
<totfact> 0.89513925E+04</totfact>
</mgrwt>
</event>
<event>
12    1  0.1039378E-001  0.3289485E+03  0.7546771E-02  0.1071669E+00
         21   -1    0    0  501  502  0.00000000000E+00  0.00000000000E+00  0.27847565583E+03  0.27847565583E+03  0.00000000000E+00 0.  1.
         21   -1    0    0  502  503 -0.00000000000E+00 -0.00000000000E+00 -0.42527242047E+03  0.42527242047E+03  0.00000000000E+00 0.  1.
         -6    2    1    2    0  503  0.57290309328E+01 -0.27887593635E+03 -0.17769515748E+03  0.37335164905E+03  0.17323762637E+03 0.  0.
        -24    2    3    3    0    0  0.10301950636E+02 -0.24058819772E+03 -0.76323984941E+02  0.26479259994E+03  0.79378581703E+02 0.  0.
          6    2    1    2  501    0 -0.57290309328E+01  0.27887593635E+03  0.30898392831E+02  0.33039642725E+03  0.17436306601E+03 0.  0.
         24    2    5    5    0    0 -0.27146855976E+02  0.20828480737E+03  0.83097485567E+02  0.23990517904E+03  0.80807116337E+02 0.  0.
          5    1    5    5  501    0  0.21417825043E+02  0.70591128978E+02 -0.52199092736E+02  0.90491248210E+02  0.47000000000E+01 0. -1.
        -11    1    6    6    0    0 -0.15020360845E+02  0.15971139052E+03  0.23593749082E+02  0.16214192702E+03  0.00000000000E+00 0.  1.
         12    1    6    6    0    0 -0.12126495131E+02  0.48573416849E+02  0.59503736485E+02  0.77763252017E+02  0.00000000000E+00 0. -1.
         -5    1    3    3    0  503 -0.45729197029E+01 -0.38287738625E+02 -0.10137117254E+03  0.10855904912E+03  0.47000000000E+01 0.  1.
         13    1    4    4    0    0  0.14223010077E+02 -0.13542211974E+01 -0.41444724273E+01  0.14876309434E+02  0.00000000000E+00 0. -1.
        -14    1    4    4    0    0 -0.39210594409E+01 -0.23923397653E+03 -0.72179512514E+02  0.24991629050E+03  0.00000000000E+00 0.  1.
<mgrwt>
<rscale>  2 0.32879957E+03</rscale>
<asrwt>0</asrwt>
<pdfrwt beam="1">  1       21 0.42842409E-01 0.32894846E+03</pdfrwt>
<pdfrwt beam="2">  1       21 0.65426526E-01 0.32894846E+03</pdfrwt>
<totfact> 0.10474927E+04</totfact>
</mgrwt>
</event>
<event>
12    1  0.1039378E-001  0.1844804E+03  0.7546771E-02  0.1165434E+00
         21   -1    0    0  503  502  0.00000000000E+00  0.00000000000E+00  0.12054166977E+03  0.12054166977E+03  0.00000000000E+00 0.  1.
         21   -1    0    0  501  503 -0.00000000000E+00 -0.00000000000E+00 -0.36675100869E+03  0.36675100869E+03  0.00000000000E+00 0.  1.
          6    2    1    2  501    0  0.29429919876E+02 -0.18780592222E+01 -0.24600451996E+03  0.30281211717E+03  0.17408993990E+03 0.  0.
         24    2    3    3    0    0 -0.26275077835E+02  0.33113100344E+02 -0.20823698227E+03  0.22681274269E+03  0.79338025770E+02 0.  0.
         -6    2    1    2    0  502 -0.29429919876E+02  0.18780592222E+01 -0.20481896450E+00  0.18448056130E+03  0.18210817735E+03 0.  0.
        -24    2    5    5    0    0 -0.91509196657E+02 -0.75371287926E+01  0.44786530068E+01  0.12134176752E+03  0.79202429434E+02 0.  0.
          5    1    3    3  501    0  0.55704997711E+02 -0.34991159566E+02 -0.37767537688E+02  0.75999374476E+02  0.47000000000E+01 0. -1.
        -11    1    4    4    0    0 -0.45556869346E+01  0.35822241812E+01 -0.18112620235E+03  0.18121889469E+03  0.00000000000E+00 0.  1.
         12    1    4    4    0    0 -0.21719390900E+02  0.29530876162E+02 -0.27110779916E+02  0.45593848002E+02  0.00000000000E+00 0. -1.
         -5    1    5    5    0  502  0.62079276780E+02  0.94151880148E+01 -0.46834719713E+01  0.63138793785E+02  0.47000000000E+01 0.  1.
         11    1    6    6    0    0 -0.93818557262E+01 -0.33759027003E+02  0.19564284752E+01  0.35093001203E+02  0.00000000000E+00 0. -1.
        -12    1    6    6    0    0 -0.82127340930E+02  0.26221898211E+02  0.25222245316E+01  0.86248766314E+02  0.00000000000E+00 0.  1.
<mgrwt>
<rscale>  2 0.18247021E+03</rscale>
<asrwt>0</asrwt>
<pdfrwt beam="1">  1       21 0.18544872E-01 0.18448045E+03</pdfrwt>
<pdfrwt beam="2">  1       21 0.56423232E-01 0.18448045E+03</pdfrwt>
<totfact> 0.78764442E+04</totfact>
</mgrwt>
</event>
<event>
12    1  0.1039378E-001  0.2593350E+03  0.7546771E-02  0.1107551E+00
         21   -1    0    0  503  502  0.00000000000E+00  0.00000000000E+00  0.25595276222E+03  0.25595276222E+03  0.00000000000E+00 0.  1.
         21   -1    0    0  501  503 -0.00000000000E+00 -0.00000000000E+00 -0.40658293352E+03  0.40658293352E+03  0.00000000000E+00 0. -1.
          6    2    1    2  501    0 -0.10279927445E+03  0.16357016890E+03  0.12174737537E+03  0.28644503910E+03  0.17293191156E+03 0.  0.
         24    2    3    3    0    0 -0.58958220763E+02  0.76926138946E+02  0.13923137298E+03  0.18766748048E+03  0.80249643986E+02 0.  0.
         -6    2    1    2    0  502  0.10279927445E+03 -0.16357016890E+03 -0.27237754667E+03  0.37609065664E+03  0.17300798565E+03 0.  0.
        -24    2    5    5    0    0  0.13908505101E+03 -0.11167389421E+03 -0.18151482674E+03  0.26523938339E+03  0.74756859971E+02 0.  0.
          5    1    3    3  501    0 -0.43841053682E+02  0.86644029956E+02 -0.17483997607E+02  0.98777558622E+02  0.47000000000E+01 0. -1.
        -13    1    4    4    0    0 -0.52623712491E+02  0.92882433549E+02  0.12986467930E+03  0.16811078641E+03  0.00000000000E+00 0.  1.
         14    1    4    4    0    0 -0.63345082724E+01 -0.15956294603E+02  0.93666936829E+01  0.19556694073E+02  0.00000000000E+00 0. -1.
         -5    1    5    5    0  502 -0.36285776561E+02 -0.51896274689E+02 -0.90862719935E+02  0.11085127325E+03  0.47000000000E+01 0.  1.
         13    1    6    6    0    0  0.12660975427E+03 -0.88834763831E+02 -0.18246627503E+03  0.23919779820E+03  0.00000000000E+00 0. -1.
        -14    1    6    6    0    0  0.12475296738E+02 -0.22839130381E+02  0.95144829136E+00  0.26041585188E+02  0.00000000000E+00 0.  1.
<mgrwt>
<rscale>  2 0.25932234E+03</rscale>
<asrwt>0</asrwt>
<pdfrwt beam="1">  1       21 0.39377348E-01 0.25933502E+03</pdfrwt>
<pdfrwt beam="2">  1       21 0.62551220E-01 0.25933502E+03</pdfrwt>
<totfact> 0.14175886E+04</totfact>
</mgrwt>
</event>
<event>
12    1  0.1039378E-001  0.2594676E+03  0.7546771E-02  0.1107716E+00
         21   -1    0    0  503  502  0.00000000000E+00  0.00000000000E+00  0.53949506372E+03  0.53949506372E+03  0.00000000000E+00 0. -1.
         21   -1    0    0  501  503 -0.00000000000E+00 -0.00000000000E+00 -0.20767476230E+03  0.20767476230E+03  0.00000000000E+00 0. -1.
          6    2    1    2  501    0 -0.77176323547E+02  0.17996855807E+03 -0.71561457597E+02  0.26754468128E+03  0.16767303736E+03 0.  0.
         24    2    3    3    0    0 -0.21310850467E+02  0.46635054182E+02 -0.75967804185E+02  0.12283711330E+03  0.81785503019E+02 0.  0.
         -6    2    1    2    0  502  0.77176323547E+02 -0.17996855807E+03  0.40338175902E+03  0.47962514474E+03  0.17023092888E+03 0.  0.
        -24    2    5    5    0    0  0.48039633038E+02 -0.78964711824E+02  0.90148282696E+02  0.14918903234E+03  0.74749063145E+02 0.  0.
          5    1    3    3  501    0 -0.55865473081E+02  0.13333350389E+03  0.44063465881E+01  0.14470756799E+03  0.47000000000E+01 0. -1.
        -11    1    4    4    0    0 -0.11007935420E+02  0.72454228750E+01  0.16903212850E+02  0.21433371165E+02  0.00000000000E+00 0.  1.
         12    1    4    4    0    0 -0.10302915046E+02  0.39389631307E+02 -0.92871017035E+02  0.10140374213E+03  0.00000000000E+00 0. -1.
         -5    1    5    5    0  502  0.29136690509E+02 -0.10100384625E+03  0.31323347632E+03  0.33043611240E+03  0.47000000000E+01 0.  1.
         13    1    6    6    0    0  0.42178936902E+02 -0.79926015539E+02  0.10179044938E+03  0.13611952932E+03  0.00000000000E+00 0. -1.
        -14    1    6    6    0    0  0.58606961366E+01  0.96130371436E+00 -0.11642166683E+02  0.13069503017E+02  0.00000000000E+00 0.  1.
<mgrwt>
<rscale>  2 0.25904885E+03</rscale>
<asrwt>0</asrwt>
<pdfrwt beam="1">  1       21 0.82999240E-01 0.25946760E+03</pdfrwt>
<pdfrwt beam="2">  1       21 0.31949964E-01 0.25946760E+03</pdfrwt>
<totfact> 0.11449999E+04</totfact>
</mgrwt>
</event>
<event>
12    1  0.1039378E-001  0.1746790E+03  0.7546771E-02  0.1174253E+00
         21   -1    0    0  503  502  0.00000000000E+00  0.00000000000E+00  0.20137817955E+03  0.20137817955E+03  0.00000000000E+00 0.  1.
         21   -1    0    0  501  503 -0.00000000000E+00 -0.00000000000E+00 -0.14768381991E+03  0.14768381991E+03  0.00000000000E+00 0.  1.
          6    2    1    2  501    0 -0.31390832630E+02  0.99704815726E+01  0.19936158847E+02  0.17115084382E+03  0.16676440278E+03 0.  0.
         24    2    3    3    0    0 -0.50070753804E+02  0.57505623280E+02  0.37956664417E+02  0.11678764144E+03  0.79904115810E+02 0.  0.
         -6    2    1    2    0  502  0.31390832630E+02 -0.99704815726E+01  0.33758200793E+02  0.17791115564E+03  0.17154581984E+03 0.  0.
        -24    2    5    5    0    0  0.28319911297E+02 -0.48662099840E+02 -0.30962072875E+02  0.10229848669E+03  0.79600961587E+02 0.  0.
          5    1    3    3  501    0  0.18679921174E+02 -0.47535141707E+02 -0.18020505571E+02  0.54363202382E+02  0.47000000000E+01 0. -1.
        -13    1    4    4    0    0 -0.28237619455E+01  0.61847915585E+02  0.13330136365E+02  0.63331120544E+02  0.00000000000E+00 0.  1.
         14    1    4    4    0    0 -0.47246991858E+02 -0.43422923059E+01  0.24626528052E+02  0.53456520893E+02  0.00000000000E+00 0. -1.
         -5    1    5    5    0  502  0.30709213323E+01  0.38691618268E+02  0.64720273668E+02  0.75612668949E+02  0.47000000000E+01 0.  1.
         11    1    6    6    0    0  0.26381265062E+02 -0.85067085248E+00 -0.45227824387E+02  0.52366505382E+02  0.00000000000E+00 0. -1.
        -12    1    6    6    0    0  0.19386462355E+01 -0.47811428988E+02  0.14265751512E+02  0.49931981308E+02  0.00000000000E+00 0.  1.
<mgrwt>
<rscale>  2 0.17349370E+03</rscale>
<asrwt>0</asrwt>
<pdfrwt beam="1">  1       21 0.30981258E-01 0.17467903E+03</pdfrwt>
<pdfrwt beam="2">  1       21 0.22720588E-01 0.17467903E+03</pdfrwt>
<totfact> 0.18273951E+05</totfact>
</mgrwt>
</event>
<event>
12    1  0.1039378E-001  0.2156296E+03  0.7546771E-02  0.1137617E+00
         21   -1    0    0  501  502  0.00000000000E+00  0.00000000000E+00  0.12190171567E+03  0.12190171567E+03  0.00000000000E+00 0.  1.
         21   -1    0    0  502  503 -0.00000000000E+00 -0.00000000000E+00 -0.40408173173E+03  0.40408173173E+03  0.00000000000E+00 0.  1.
         -6    2    1    2    0  503  0.11344070741E+03  0.53607218117E+02 -0.20791557796E+03  0.29792348440E+03  0.17258906995E+03 0.  0.
        -24    2    3    3    0    0  0.73510239170E+02  0.84707360638E+02 -0.21161669972E+03  0.24695830550E+03  0.60230265174E+02 0.  0.
          6    2    1    2  501    0 -0.11344070741E+03 -0.53607218117E+02 -0.74264438099E+02  0.22805996300E+03  0.17536707795E+03 0.  0.
         24    2    5    5    0    0 -0.12449892240E+03 -0.93150793512E+02 -0.57678074790E+02  0.18352709961E+03  0.78602696967E+02 0.  0.
          5    1    5    5  501    0  0.11058214993E+02  0.39543575395E+02 -0.16586363308E+02  0.44532863389E+02  0.47000000000E+01 0. -1.
        -13    1    6    6    0    0 -0.89054202496E+02 -0.89172032647E+02 -0.13496977118E+02  0.12674569334E+03  0.00000000000E+00 0.  1.
         14    1    6    6    0    0 -0.35444719902E+02 -0.39787608654E+01 -0.44181097672E+02  0.56781406274E+02  0.00000000000E+00 0. -1.
         -5    1    3    3    0  503  0.39930468235E+02 -0.31100142521E+02  0.37011217578E+01  0.50965178903E+02  0.47000000000E+01 0.  1.
         11    1    4    4    0    0  0.25484492937E+01  0.13141984494E+02 -0.94411290557E+00  0.13420048413E+02  0.00000000000E+00 0. -1.
        -12    1    4    4    0    0  0.70961789877E+02  0.71565376144E+02 -0.21067258682E+03  0.23353825708E+03  0.00000000000E+00 0.  1.
<mgrwt>
<rscale>  2 0.21506412E+03</rscale>
<asrwt>0</asrwt>
<pdfrwt beam="1">  1       21 0.18754109E-01 0.21562964E+03</pdfrwt>
<pdfrwt beam="2">  1       21 0.62166422E-01 0.21562964E+03</pdfrwt>
<totfact> 0.61812780E+04</totfact>
</mgrwt>
</event>
<event>
12    1  0.1039378E-001  0.4981910E+03  0.7546771E-02  0.1014341E+00
         21   -1    0    0  501  502  0.00000000000E+00  0.00000000000E+00  0.31356445883E+04  0.31356445883E+04  0.00000000000E+00 0.  1.
         21   -1    0    0  502  503 -0.00000000000E+00 -0.00000000000E+00 -0.13736445413E+03  0.13736445413E+03  0.00000000000E+00 0. -1.
         -6    2    1    2    0  503  0.13763701251E+03 -0.44566440870E+03  0.43301710247E+03  0.66007431095E+03  0.17502449127E+03 0.  0.
        -24    2    3    3    0    0  0.71458793769E+02 -0.11311785360E+03  0.10505750969E+03  0.18832612342E+03  0.80793814168E+02 0.  0.
          6    2    1    2  501    0 -0.13763701251E+03  0.44566440870E+03  0.25652630317E+04  0.26129347315E+04  0.17115132721E+03 0.  0.
         24    2    5    5    0    0 -0.21441276103E+02  0.24832092880E+03  0.11589483753E+04  0.11880877569E+04  0.79171771834E+02 0.  0.
          5    1    5    5  501    0 -0.11619573640E+03  0.19734347990E+03  0.14063146564E+04  0.14248469746E+04  0.47000000000E+01 0. -1.
        -13    1    6    6    0    0 -0.22773904641E+02  0.14194325153E+02  0.14462128549E+03  0.14708992425E+03  0.00000000000E+00 0.  1.
         14    1    6    6    0    0  0.13326285382E+01  0.23412660365E+03  0.10143270898E+04  0.10409978327E+04  0.00000000000E+00 0. -1.
         -5    1    3    3    0  503  0.66178218738E+02 -0.33254655510E+03  0.32795959278E+03  0.47174818753E+03  0.47000000000E+01 0.  1.
         13    1    4    4    0    0 -0.76636966135E+01 -0.49402640312E+02  0.14036530909E+02  0.51926653229E+02  0.00000000000E+00 0. -1.
        -14    1    4    4    0    0  0.79122490382E+02 -0.63715213292E+02  0.91020978780E+02  0.13639947019E+03  0.00000000000E+00 0.  1.
<mgrwt>
<rscale>  2 0.49785380E+03</rscale>
<asrwt>0</asrwt>
<pdfrwt beam="1">  1       21 0.48240681E+00 0.49819101E+03</pdfrwt>
<pdfrwt beam="2">  1       21 0.21132995E-01 0.49819101E+03</pdfrwt>
<totfact> 0.37178113E+01</totfact>
</mgrwt>
</event>
<event>
12    1  0.1039378E-001  0.1797947E+03  0.7546771E-02  0.1168500E+00
         21   -1    0    0  501  502  0.00000000000E+00  0.00000000000E+00  0.35285823832E+03  0.35285823832E+03  0.00000000000E+00 0.  1.
         21   -1    0    0  502  503 -0.00000000000E+00 -0.00000000000E+00 -0.15718374470E+03  0.15718374470E+03  0.00000000000E+00 0.  1.
         -6    2    1    2    0  503  0.32966603628E+00  0.52302436568E+02 -0.68495797871E+02  0.19049217792E+03  0.16988214141E+03 0.  0.
        -24    2    3    3    0    0 -0.30042041178E+02  0.16059503887E+02  0.21991556534E+02  0.88286297091E+02  0.78424548402E+02 0.  0.
          6    2    1    2  501    0 -0.32966603628E+00 -0.52302436568E+02  0.26417029149E+03  0.31954980510E+03  0.17201884048E+03 0.  0.
         24    2    5    5    0    0 -0.54826049932E+02 -0.71062515130E+02  0.15094046542E+03  0.19240862405E+03  0.78627461488E+02 0.  0.
          5    1    5    5  501    0  0.54496383896E+02  0.18760078562E+02  0.11322982607E+03  0.12714118104E+03  0.47000000000E+01 0. -1.
        -13    1    6    6    0    0 -0.46498195676E+02 -0.69630384567E+02  0.64852995811E+02  0.10590742996E+03  0.00000000000E+00 0.  1.
         14    1    6    6    0    0 -0.83278542565E+01 -0.14321305630E+01  0.86087469613E+02  0.86501194089E+02  0.00000000000E+00 0. -1.
         -5    1    3    3    0  503  0.30371707214E+02  0.36242932681E+02 -0.90487354405E+02  0.10220588083E+03  0.47000000000E+01 0.  1.
         11    1    4    4    0    0 -0.40586430438E+02 -0.18688241153E+02  0.26092777910E+02  0.51743035784E+02  0.00000000000E+00 0. -1.
        -12    1    4    4    0    0  0.10544389260E+02  0.34747745040E+02 -0.41012213756E+01  0.36543261307E+02  0.00000000000E+00 0.  1.
<mgrwt>
<rscale>  2 0.17928171E+03</rscale>
<asrwt>0</asrwt>
<pdfrwt beam="1">  1       21 0.54285883E-01 0.17979470E+03</pdfrwt>
<pdfrwt beam="2">  1       21 0.24182115E-01 0.17979470E+03</pdfrwt>
<totfact> 0.52059050E+04</totfact>
</mgrwt>
</event>
<event>
12    1  0.1039378E-001  0.2182584E+03  0.7546771E-02  0.1135269E+00
         21   -1    0    0  501  502  0.00000000000E+00  0.00000000000E+00  0.29055003009E+02  0.29055003009E+02  0.00000000000E+00 0.  1.
         21   -1    0    0  502  503 -0.00000000000E+00 -0.00000000000E+00 -0.17414544383E+04  0.17414544383E+04  0.00000000000E+00 0. -1.
         -6    2    1    2    0  503 -0.71412206818E+02 -0.10999683981E+03 -0.10744948180E+04  0.10964378061E+04  0.17446415333E+03 0.  0.
        -24    2    3    3    0    0 -0.85480887339E+02 -0.11476030942E+02 -0.62401061085E+03  0.63506768526E+03  0.80517333737E+02 0.  0.
          6    2    1    2  501    0  0.71412206818E+02  0.10999683981E+03 -0.63790461733E+03  0.67407163519E+03  0.17392889500E+03 0.  0.
         24    2    5    5    0    0  0.85797194032E+02  0.28994557061E+02 -0.42540449376E+03  0.44615346965E+03  0.99408713543E+02 0.  0.
          5    1    5    5  501    0 -0.14384987214E+02  0.81002282750E+02 -0.21250012356E+03  0.22791816554E+03  0.47000000000E+01 0. -1.
        -11    1    6    6    0    0  0.48556628415E+02  0.90926349014E+00 -0.57329632171E+02  0.75134942923E+02  0.00000000000E+00 0.  1.
         12    1    6    6    0    0  0.37240565617E+02  0.28085293571E+02 -0.36807486159E+03  0.37101852673E+03  0.00000000000E+00 0. -1.
         -5    1    3    3    0  503  0.14068680520E+02 -0.98520808869E+02 -0.45048420715E+03  0.46137012088E+03  0.47000000000E+01 0.  1.
         11    1    4    4    0    0 -0.26951478481E+02 -0.42852220395E+02 -0.31062501930E+03  0.31472304904E+03  0.00000000000E+00 0. -1.
        -12    1    4    4    0    0 -0.58529408857E+02  0.31376189453E+02 -0.31338559155E+03  0.32034463622E+03  0.00000000000E+00 0.  1.
<mgrwt>
<rscale>  2 0.21815146E+03</rscale>
<asrwt>0</asrwt>
<pdfrwt beam="1">  1       21 0.44699994E-02 0.21825845E+03</pdfrwt>
<pdfrwt beam="2">  1       21 0.26791613E+00 0.21825845E+03</pdfrwt>
<totfact> 0.16605370E+04</totfact>
</mgrwt>
</event>
<event>
12    1  0.1039378E-001  0.1736342E+03  0.7546771E-02  0.1174617E+00
         21   -1    0    0  503  502  0.00000000000E+00  0.00000000000E+00  0.19785257497E+03  0.19785257497E+03  0.00000000000E+00 0.  1.
         21   -1    0    0  501  503 -0.00000000000E+00 -0.00000000000E+00 -0.15108803770E+03  0.15108803770E+03  0.00000000000E+00 0.  1.
          6    2    1    2  501    0  0.10872382117E+02 -0.18365718633E+02  0.32735657715E+02  0.17474059476E+03  0.17031483745E+03 0.  0.
         24    2    3    3    0    0  0.16760834177E+02 -0.75116432761E+02  0.35420814929E+02  0.11742901224E+03  0.81311344542E+02 0.  0.
         -6    2    1    2    0  502 -0.10872382117E+02  0.18365718633E+02  0.14028879557E+02  0.17420001791E+03  0.17231752222E+03 0.  0.
        -24    2    5    5    0    0  0.47025119123E+02  0.17769275142E+02  0.48438301756E+02  0.10668279988E+03  0.80671195267E+02 0.  0.
          5    1    3    3  501    0 -0.58884520593E+01  0.56750714129E+02 -0.26851572135E+01  0.57311582521E+02  0.47000000000E+01 0. -1.
        -13    1    4    4    0    0 -0.15853780155E+01 -0.34631765222E+02  0.58002951908E+02  0.67573774616E+02  0.00000000000E+00 0.  1.
         14    1    4    4    0    0  0.18346212192E+02 -0.40484667539E+02 -0.22582136979E+02  0.49855237619E+02  0.00000000000E+00 0. -1.
         -5    1    5    5    0  502 -0.57897501240E+02  0.59644349077E+00 -0.34409422199E+02  0.67517218032E+02  0.47000000000E+01 0.  1.
         11    1    6    6    0    0  0.28378705201E+02 -0.31339955286E+02  0.17824749604E+02  0.45883171257E+02  0.00000000000E+00 0. -1.
        -12    1    6    6    0    0  0.18646413922E+02  0.49109230428E+02  0.30613552152E+02  0.60799628623E+02  0.00000000000E+00 0.  1.
<mgrwt>
<rscale>  2 0.17313523E+03</rscale>
<asrwt>0</asrwt>
<pdfrwt beam="1">  1       21 0.30438858E-01 0.17363420E+03</pdfrwt>
<pdfrwt beam="2">  1       21 0.23244313E-01 0.17363420E+03</pdfrwt>
<totfact> 0.18123290E+05</totfact>
</mgrwt>
</event>
<event>
12    1  0.1039378E-001  0.1792149E+03  0.7546771E-02  0.1169264E+00
         21   -1    0    0  503  502  0.00000000000E+00  0.00000000000E+00  0.97087462559E+03  0.97087462559E+03  0.00000000000E+00 0. -1.
         21   -1    0    0  501  503 -0.00000000000E+00 -0.00000000000E+00 -0.65009251844E+02  0.65009251844E+02  0.00000000000E+00 0. -1.
          6    2    1    2  501    0 -0.27591836409E+02 -0.29049909744E+02  0.88815154213E+02  0.20001527916E+03  0.17467905880E+03 0.  0.
         24    2    3    3    0    0  0.36285317119E+02 -0.43240593360E+02  0.91828369471E+02  0.13434309547E+03  0.80182571093E+02 0.  0.
         -6    2    1    2    0  502  0.27591836409E+02  0.29049909744E+02  0.81705021953E+03  0.83586859828E+03  0.17175577329E+03 0.  0.
        -24    2    5    5    0    0  0.11670400743E+02  0.75133645799E+02  0.69055279134E+03  0.70021871003E+03  0.87531830013E+02 0.  0.
          5    1    3    3  501    0 -0.63877153528E+02  0.14190683615E+02 -0.30132152572E+01  0.65672183689E+02  0.47000000000E+01 0. -1.
        -11    1    4    4    0    0  0.31622029945E+02  0.10462150454E+02  0.67359583918E+02  0.75144679889E+02  0.00000000000E+00 0.  1.
         12    1    4    4    0    0  0.46632871735E+01 -0.53702743814E+02  0.24468785552E+02  0.59198415577E+02  0.00000000000E+00 0. -1.
         -5    1    5    5    0  502  0.15921435666E+02 -0.46083736055E+02  0.12649742819E+03  0.13564988825E+03  0.47000000000E+01 0.  1.
         13    1    6    6    0    0  0.46615828137E+02  0.24534584879E+02  0.38023835656E+03  0.38387001587E+03  0.00000000000E+00 0. -1.
        -14    1    6    6    0    0 -0.34945427393E+02  0.50599060921E+02  0.31031443478E+03  0.31634869415E+03  0.00000000000E+00 0.  1.
<mgrwt>
<rscale>  2 0.17849859E+03</rscale>
<asrwt>0</asrwt>
<pdfrwt beam="1">  1       21 0.14936532E+00 0.17921490E+03</pdfrwt>
<pdfrwt beam="2">  1       21 0.10001424E-01 0.17921490E+03</pdfrwt>
<totfact> 0.24735663E+04</totfact>
</mgrwt>
</event>
<event>
12    1  0.1039378E-001  0.2122107E+03  0.7546771E-02  0.1140485E+00
         21   -1    0    0  501  502  0.00000000000E+00  0.00000000000E+00  0.14110940622E+03  0.14110940622E+03  0.00000000000E+00 0. -1.
         21   -1    0    0  502  503 -0.00000000000E+00 -0.00000000000E+00 -0.37349065969E+03  0.37349065969E+03  0.00000000000E+00 0. -1.
         -6    2    1    2    0  503 -0.11919566756E+01 -0.12259033088E+03 -0.14395554115E+02  0.21269844163E+03  0.17321542977E+03 0.  0.
        -24    2    3    3    0    0 -0.34639925187E+02 -0.22911707127E+02 -0.49521371094E+02  0.10174571454E+03  0.78580872305E+02 0.  0.
          6    2    1    2  501    0  0.11919566756E+01  0.12259033088E+03 -0.21798569936E+03  0.30190162427E+03  0.16910652155E+03 0.  0.
         24    2    5    5    0    0  0.12476539041E+02  0.15397890459E+03 -0.19055085416E+03  0.25845803913E+03  0.81398789233E+02 0.  0.
          5    1    5    5  501    0 -0.11284582366E+02 -0.31388573709E+02 -0.27434845201E+02  0.43443585140E+02  0.47000000000E+01 0. -1.
        -13    1    6    6    0    0 -0.19719367661E+02  0.67500132963E+02 -0.13085838021E+03  0.14855651141E+03  0.00000000000E+00 0.  1.
         14    1    6    6    0    0  0.32195906702E+02  0.86478771625E+02 -0.59692473944E+02  0.10990152772E+03  0.00000000000E+00 0. -1.
         -5    1    3    3    0  503  0.33447968511E+02 -0.99678623752E+02  0.35125816979E+02  0.11095272709E+03  0.47000000000E+01 0.  1.
         13    1    4    4    0    0 -0.49843994808E+02 -0.27100971054E+02 -0.60182779681E+02  0.82709451821E+02  0.00000000000E+00 0. -1.
        -14    1    4    4    0    0  0.15204069621E+02  0.41892639268E+01  0.10661408588E+02  0.19036262720E+02  0.00000000000E+00 0.  1.
<mgrwt>
<rscale>  2 0.21137066E+03</rscale>
<asrwt>0</asrwt>
<pdfrwt beam="1">  1       21 0.21709140E-01 0.21221073E+03</pdfrwt>
<pdfrwt beam="2">  1       21 0.57460100E-01 0.21221073E+03</pdfrwt>
<totfact> 0.55745436E+04</totfact>
</mgrwt>
</event>
<event>
12    1  0.1039378E-001  0.1926730E+03  0.7546771E-02  0.1156088E+00
         21   -1    0    0  501  502  0.00000000000E+00  0.00000000000E+00  0.28972651712E+03  0.28972651712E+03  0.00000000000E+00 0.  1.
         21   -1    0    0  502  503 -0.00000000000E+00 -0.00000000000E+00 -0.16608267983E+03  0.16608267983E+03  0.00000000000E+00 0.  1.
         -6    2    1    2    0  503  0.85619387336E+02 -0.96181141265E+01 -0.47183379315E+02  0.19836618793E+03  0.17233596730E+03 0.  0.
        -24    2    3    3    0    0  0.96464254739E+02  0.19659301791E+02 -0.81764662891E+02  0.15153955656E+03  0.81159944036E+02 0.  0.
          6    2    1    2  501    0 -0.85619387336E+02  0.96181141265E+01  0.17082721661E+03  0.25744300901E+03  0.17225497772E+03 0.  0.
         24    2    5    5    0    0 -0.56401049620E+02  0.38555376273E+02  0.28006779645E+02  0.10874585499E+03  0.79835367062E+02 0.  0.
          5    1    5    5  501    0 -0.29218337716E+02 -0.28937262147E+02  0.14282043696E+03  0.14869715402E+03  0.47000000000E+01 0. -1.
        -13    1    6    6    0    0 -0.84389101998E+01  0.19017281532E+02  0.48713599984E+02  0.52970624176E+02  0.00000000000E+00 0.  1.
         14    1    6    6    0    0 -0.47962139421E+02  0.19538094742E+02 -0.20706820340E+02  0.55775230815E+02  0.00000000000E+00 0. -1.
         -5    1    3    3    0  503 -0.10844867403E+02 -0.29277415918E+02  0.34581283576E+02  0.46826631371E+02  0.47000000000E+01 0.  1.
         11    1    4    4    0    0  0.22669522239E+02  0.23333546961E+02 -0.69371930587E+02  0.76621318220E+02  0.00000000000E+00 0. -1.
        -12    1    4    4    0    0  0.73794732500E+02 -0.36742451692E+01 -0.12392732304E+02  0.74918238342E+02  0.00000000000E+00 0.  1.
<mgrwt>
<rscale>  2 0.19265486E+03</rscale>
<asrwt>0</asrwt>
<pdfrwt beam="1">  1       21 0.44573310E-01 0.19267297E+03</pdfrwt>
<pdfrwt beam="2">  1       21 0.25551181E-01 0.19267297E+03</pdfrwt>
<totfact> 0.70208340E+04</totfact>
</mgrwt>
</event>
<event>
12    1  0.1039378E-001  0.2125674E+03  0.7546771E-02  0.1139799E+00
         21   -1    0    0  503  502  0.00000000000E+00  0.00000000000E+00  0.23502132272E+02  0.23502132272E+02  0.00000000000E+00 0.  1.
         21   -1    0    0  501  503 -0.00000000000E+00 -0.00000000000E+00 -0.22828621966E+04  0.22828621966E+04  0.00000000000E+00 0. -1.
          6    2    1    2  501    0 -0.60325109849E+02 -0.10762450037E+03 -0.15979178879E+04  0.16119945630E+04  0.17309749494E+03 0.  0.
         24    2    3    3    0    0 -0.90014951528E+01 -0.63428523808E+02 -0.13770078739E+04  0.13808869646E+04  0.81202953181E+02 0.  0.
         -6    2    1    2    0  502  0.60325109849E+02  0.10762450037E+03 -0.66144217639E+03  0.69436976582E+03  0.17152686968E+03 0.  0.
        -24    2    5    5    0    0  0.98242187675E+02  0.11148329509E+03 -0.58516695016E+03  0.60897307254E+03  0.79673025497E+02 0.  0.
          5    1    3    3  501    0 -0.51323614696E+02 -0.44195976557E+02 -0.22091001399E+03  0.23110759842E+03  0.47000000000E+01 0. -1.
        -11    1    4    4    0    0  0.73569017930E+01 -0.34341601195E+02 -0.17891923876E+03  0.18233366002E+03  0.00000000000E+00 0.  1.
         12    1    4    4    0    0 -0.16358396946E+02 -0.29086922613E+02 -0.11980886352E+04  0.11985533046E+04  0.00000000000E+00 0. -1.
         -5    1    5    5    0  502 -0.37917077826E+02 -0.38587947233E+01 -0.76275226229E+02  0.85396693284E+02  0.47000000000E+01 0.  1.
         13    1    6    6    0    0  0.45195834641E+02  0.10426512768E+03 -0.35901032119E+03  0.37656644970E+03  0.00000000000E+00 0. -1.
        -14    1    6    6    0    0  0.53046353034E+02  0.72181674084E+01 -0.22615662897E+03  0.23240662283E+03  0.00000000000E+00 0.  1.
<mgrwt>
<rscale>  2 0.21224741E+03</rscale>
<asrwt>0</asrwt>
<pdfrwt beam="1">  1       21 0.36157129E-02 0.21256739E+03</pdfrwt>
<pdfrwt beam="2">  1       21 0.35120954E+00 0.21256739E+03</pdfrwt>
<totfact> 0.77974364E+03</totfact>
</mgrwt>
</event>
<event>
12    1  0.1039378E-001  0.1768378E+03  0.7546771E-02  0.1171378E+00
         21   -1    0    0  501  502  0.00000000000E+00  0.00000000000E+00  0.30222108527E+03  0.30222108527E+03  0.00000000000E+00 0.  1.
         21   -1    0    0  502  503 -0.00000000000E+00 -0.00000000000E+00 -0.17604966340E+03  0.17604966340E+03  0.00000000000E+00 0.  1.
         -6    2    1    2    0  503  0.12608299769E+02 -0.32250482797E+02 -0.91437073336E+02  0.19907871728E+03  0.17341434321E+03 0.  0.
        -24    2    3    3    0    0  0.16756335419E+02 -0.42855962980E+02 -0.13045896241E+03  0.15815830384E+03  0.76662245335E+02 0.  0.
          6    2    1    2  501    0 -0.12608299769E+02  0.32250482797E+02  0.21760849520E+03  0.27919203139E+03  0.17145165600E+03 0.  0.
         24    2    5    5    0    0  0.51119869798E+02  0.14353608038E+02  0.16921314507E+03  0.19705934827E+03  0.85907107524E+02 0.  0.
          5    1    5    5  501    0 -0.63728169567E+02  0.17896874759E+02  0.48395350128E+02  0.82132683120E+02  0.47000000000E+01 0. -1.
        -11    1    6    6    0    0  0.84198433424E+01 -0.35788492604E+01  0.14407286684E+03  0.14436305927E+03  0.00000000000E+00 0.  1.
         12    1    6    6    0    0  0.42700026456E+02  0.17932457298E+02  0.25140278231E+02  0.52696288993E+02  0.00000000000E+00 0. -1.
         -5    1    3    3    0  503 -0.41480356505E+01  0.10605480183E+02  0.39021889074E+02  0.40920413446E+02  0.47000000000E+01 0.  1.
         11    1    4    4    0    0 -0.18959031701E+02  0.61935410064E+01 -0.79952259931E+01  0.21487868017E+02  0.00000000000E+00 0. -1.
        -12    1    4    4    0    0  0.35715367121E+02 -0.49049503987E+02 -0.12246373642E+03  0.13667043582E+03  0.00000000000E+00 0.  1.
<mgrwt>
<rscale>  2 0.17635473E+03</rscale>
<asrwt>0</asrwt>
<pdfrwt beam="1">  1       21 0.46495552E-01 0.17683777E+03</pdfrwt>
<pdfrwt beam="2">  1       21 0.27084564E-01 0.17683777E+03</pdfrwt>
<totfact> 0.57966872E+04</totfact>
</mgrwt>
</event>
<event>
12    1  0.1039378E-001  0.2973829E+03  0.7546771E-02  0.1086636E+00
         21   -1    0    0  501  502  0.00000000000E+00  0.00000000000E+00  0.13063229132E+04  0.13063229132E+04  0.00000000000E+00 0.  1.
         21   -1    0    0  502  503 -0.00000000000E+00 -0.00000000000E+00 -0.76958853597E+02  0.76958853597E+02  0.00000000000E+00 0. -1.
         -6    2    1    2    0  503 -0.22110771898E+03  0.97552655499E+02  0.37348438075E+03  0.47741719062E+03  0.17329583735E+03 0.  0.
        -24    2    3    3    0    0 -0.37980857131E+02  0.32296731167E+01  0.88852817172E+02  0.12603493506E+03  0.80851749756E+02 0.  0.
          6    2    1    2  501    0  0.22110771898E+03 -0.97552655499E+02  0.85587967887E+03  0.90586457620E+03  0.17220761225E+03 0.  0.
         24    2    5    5    0    0  0.86766952155E+02 -0.21892379553E+02  0.21009011424E+03  0.24190812372E+03  0.79836733122E+02 0.  0.
          5    1    5    5  501    0  0.13434076683E+03 -0.75660275946E+02  0.64578956464E+03  0.66395645247E+03  0.47000000000E+01 0. -1.
        -11    1    6    6    0    0  0.68102838074E+02 -0.49877102798E+02  0.16811296880E+03  0.18811616681E+03  0.00000000000E+00 0.  1.
         12    1    6    6    0    0  0.18664114081E+02  0.27984723245E+02  0.41977145437E+02  0.53791956914E+02  0.00000000000E+00 0. -1.
         -5    1    3    3    0  503 -0.18312686185E+03  0.94322982382E+02  0.28463156358E+03  0.35138225556E+03  0.47000000000E+01 0.  1.
         11    1    4    4    0    0 -0.47411238869E+02 -0.23719655141E+02  0.30725609558E+02  0.61274062161E+02  0.00000000000E+00 0. -1.
        -12    1    4    4    0    0  0.94303817379E+01  0.26949328257E+02  0.58127207614E+02  0.64760872896E+02  0.00000000000E+00 0.  1.
<mgrwt>
<rscale>  2 0.29722457E+03</rscale>
<asrwt>0</asrwt>
<pdfrwt beam="1">  1       21 0.20097274E+00 0.29738290E+03</pdfrwt>
<pdfrwt beam="2">  1       21 0.11839825E-01 0.29738290E+03</pdfrwt>
<totfact> 0.73809898E+03</totfact>
</mgrwt>
</event>
<event>
12    1  0.1039378E-001  0.1842882E+03  0.7546771E-02  0.1166242E+00
         21   -1    0    0  501  502  0.00000000000E+00  0.00000000000E+00  0.18616825589E+03  0.18616825589E+03  0.00000000000E+00 0.  1.
         21   -1    0    0  502  503 -0.00000000000E+00 -0.00000000000E+00 -0.68621250951E+03  0.68621250951E+03  0.00000000000E+00 0.  1.
         -6    2    1    2    0  503 -0.31300314261E+01 -0.12186896330E+02 -0.62930916665E+03  0.65573788514E+03  0.18385817698E+03 0.  0.
        -24    2    3    3    0    0  0.49484437362E+02 -0.10194446612E+02 -0.55628602988E+03  0.56558955911E+03  0.88796205207E+02 0.  0.
          6    2    1    2  501    0  0.31300314261E+01  0.12186896330E+02  0.12926491302E+03  0.21664288027E+03  0.17339666171E+03 0.  0.
         24    2    5    5    0    0  0.34988081509E+01  0.31005287509E+02  0.15977341129E+03  0.18048867844E+03  0.77942610790E+02 0.  0.
          5    1    5    5  501    0 -0.36877672481E+00 -0.18818391180E+02 -0.30508498270E+02  0.36154201824E+02  0.47000000000E+01 0. -1.
        -11    1    6    6    0    0 -0.13601612119E+02  0.50697974294E+02  0.73221827680E+02  0.90092865969E+02  0.00000000000E+00 0.  1.
         12    1    6    6    0    0  0.17100420270E+02 -0.19692686785E+02  0.86551583615E+02  0.90395812472E+02  0.00000000000E+00 0. -1.
         -5    1    3    3    0  503 -0.52614468788E+02 -0.19924497182E+01 -0.73023136772E+02  0.90148326028E+02  0.47000000000E+01 0.  1.
         13    1    4    4    0    0 -0.95061140877E+01  0.44204115205E+01 -0.62480272214E+01  0.12204265124E+02  0.00000000000E+00 0. -1.
        -14    1    4    4    0    0  0.58990551450E+02 -0.14614858132E+02 -0.55003800265E+03  0.55338529399E+03  0.00000000000E+00 0.  1.
<mgrwt>
<rscale>  2 0.18162200E+03</rscale>
<asrwt>0</asrwt>
<pdfrwt beam="1">  1       21 0.28641270E-01 0.18428822E+03</pdfrwt>
<pdfrwt beam="2">  1       21 0.10557116E+00 0.18428822E+03</pdfrwt>
<totfact> 0.84609959E+03</totfact>
</mgrwt>
</event>
<event>
12    1  0.1039378E-001  0.2016385E+03  0.7546771E-02  0.1148525E+00
         21   -1    0    0  503  502  0.00000000000E+00  0.00000000000E+00  0.11343173080E+04  0.11343173080E+04  0.00000000000E+00 0. -1.
         21   -1    0    0  501  503 -0.00000000000E+00 -0.00000000000E+00 -0.45087681078E+02  0.45087681078E+02  0.00000000000E+00 0. -1.
          6    2    1    2  501    0 -0.63890230150E+02  0.78553596671E+02  0.27646113372E+03  0.34218244387E+03  0.17437154980E+03 0.  0.
         24    2    3    3    0    0 -0.33850320338E+02  0.60985746265E+02  0.59191858596E+02  0.12209370390E+03  0.80858462603E+02 0.  0.
         -6    2    1    2    0  502  0.63890230150E+02 -0.78553596671E+02  0.81276849320E+03  0.83722254520E+03  0.17348296053E+03 0.  0.
        -24    2    5    5    0    0  0.28556708743E+02  0.13175809376E+02  0.21513002524E+03  0.23153568712E+03  0.79616324220E+02 0.  0.
          5    1    3    3  501    0 -0.30039909812E+02  0.17567850406E+02  0.21726927512E+03  0.22008873997E+03  0.47000000000E+01 0. -1.
        -11    1    4    4    0    0  0.26083203363E+02  0.18735016517E+02  0.94155275671E+01  0.33466199380E+02  0.00000000000E+00 0.  1.
         12    1    4    4    0    0 -0.59933523701E+02  0.42250729749E+02  0.49776331029E+02  0.88627504524E+02  0.00000000000E+00 0. -1.
         -5    1    5    5    0  502  0.35333521406E+02 -0.91729406047E+02  0.59763846795E+03  0.60568685807E+03  0.47000000000E+01 0.  1.
         13    1    6    6    0    0  0.25370126538E+02 -0.21501474303E+02  0.35828930145E+02  0.48884240335E+02  0.00000000000E+00 0. -1.
        -14    1    6    6    0    0  0.31865822050E+01  0.34677283679E+02  0.17930109510E+03  0.18265144679E+03  0.00000000000E+00 0.  1.
<mgrwt>
<rscale>  2 0.20144620E+03</rscale>
<asrwt>0</asrwt>
<pdfrwt beam="1">  1       21 0.17451033E+00 0.20163845E+03</pdfrwt>
<pdfrwt beam="2">  1       21 0.69365672E-02 0.20163845E+03</pdfrwt>
<totfact> 0.30315615E+04</totfact>
</mgrwt>
</event>
<event>
12    1  0.1039378E-001  0.2114386E+03  0.7546771E-02  0.1140523E+00
         21   -1    0    0  503  502  0.00000000000E+00  0.00000000000E+00  0.11255285608E+04  0.11255285608E+04  0.00000000000E+00 0. -1.
         21   -1    0    0  501  503 -0.00000000000E+00 -0.00000000000E+00 -0.39859443478E+02  0.39859443478E+02  0.00000000000E+00 0.  1.
          6    2    1    2  501    0  0.63507640403E+02  0.10175574363E+03  0.49833251123E+03  0.54115200245E+03  0.17355905697E+03 0.  0.
         24    2    3    3    0    0  0.91994574691E+02  0.12331475902E+03  0.38500585502E+03  0.42223473046E+03  0.79894478181E+02 0.  0.
         -6    2    1    2    0  502 -0.63507640403E+02 -0.10175574363E+03  0.58733660614E+03  0.62423600188E+03  0.17412307537E+03 0.  0.
        -24    2    5    5    0    0 -0.59610908847E+02 -0.12754705868E+03  0.35642337518E+03  0.39180668642E+03  0.81566810158E+02 0.  0.
          5    1    3    3  501    0 -0.28486934288E+02 -0.21559015386E+02  0.11332665621E+03  0.11891727199E+03  0.47000000000E+01 0. -1.
        -11    1    4    4    0    0 -0.19735748366E+01  0.31588429590E+02  0.29557156073E+02  0.43305304025E+02  0.00000000000E+00 0.  1.
         12    1    4    4    0    0  0.93968149528E+02  0.91726329426E+02  0.35544869894E+03  0.37892942643E+03  0.00000000000E+00 0. -1.
         -5    1    5    5    0  502 -0.38967315562E+01  0.25791315053E+02  0.23091323096E+03  0.23242931545E+03  0.47000000000E+01 0.  1.
         11    1    6    6    0    0 -0.20982442977E+02 -0.72718731852E+02  0.28036291248E+03  0.29039910395E+03  0.00000000000E+00 0. -1.
        -12    1    6    6    0    0 -0.38628465870E+02 -0.54828326831E+02  0.76060462692E+02  0.10140758248E+03  0.00000000000E+00 0.  1.
<mgrwt>
<rscale>  2 0.21132248E+03</rscale>
<asrwt>0</asrwt>
<pdfrwt beam="1">  1       21 0.17315822E+00 0.21143864E+03</pdfrwt>
<pdfrwt beam="2">  1       21 0.61322229E-02 0.21143864E+03</pdfrwt>
<totfact> 0.38073505E+04</totfact>
</mgrwt>
</event>
<event>
12    1  0.1039378E-001  0.1956213E+03  0.7546771E-02  0.1156198E+00
         21   -1    0    0  501  502  0.00000000000E+00  0.00000000000E+00  0.34487663066E+02  0.34487663066E+02  0.00000000000E+00 0.  1.
         21   -1    0    0  502  503 -0.00000000000E+00 -0.00000000000E+00 -0.10450114757E+04  0.10450114757E+04  0.00000000000E+00 0. -1.
         -6    2    1    2    0  503  0.62572854654E+02 -0.63279641334E+02 -0.54934492166E+03  0.58313593763E+03  0.17420678417E+03 0.  0.
        -24    2    3    3    0    0 -0.11634884970E+02  0.17061213357E+02 -0.29543497142E+03  0.30663314490E+03  0.79470797568E+02 0.  0.
          6    2    1    2  501    0 -0.62572854654E+02  0.63279641334E+02 -0.46117889098E+03  0.49636320114E+03  0.16053280917E+03 0.  0.
         24    2    5    5    0    0 -0.15793740537E+01  0.67168960771E+02 -0.17805040270E+03  0.20667515798E+03  0.80613344482E+02 0.  0.
          5    1    5    5  501    0 -0.60993480600E+02 -0.38893194364E+01 -0.28312848828E+03  0.28968804317E+03  0.47000000000E+01 0. -1.
        -11    1    6    6    0    0  0.12740483147E+02 -0.86635216492E+01 -0.34621816336E+01  0.15791238706E+02  0.00000000000E+00 0.  1.
         12    1    6    6    0    0 -0.14319857201E+02  0.75832482420E+02 -0.17458822107E+03  0.19088391927E+03  0.00000000000E+00 0. -1.
         -5    1    3    3    0  503  0.74207739624E+02 -0.80340854692E+02 -0.25390995025E+03  0.27650279273E+03  0.47000000000E+01 0.  1.
         13    1    4    4    0    0 -0.45287251595E+02  0.62636542617E+01 -0.14190672959E+03  0.14908953157E+03  0.00000000000E+00 0. -1.
        -14    1    4    4    0    0  0.33652366625E+02  0.10797559095E+02 -0.15352824183E+03  0.15754361333E+03  0.00000000000E+00 0.  1.
<mgrwt>
<rscale>  2 0.19253089E+03</rscale>
<asrwt>0</asrwt>
<pdfrwt beam="1">  1       21 0.53057945E-02 0.19562126E+03</pdfrwt>
<pdfrwt beam="2">  1       21 0.16077099E+00 0.19562126E+03</pdfrwt>
<totfact> 0.60322591E+04</totfact>
</mgrwt>
</event>
<event>
12    1  0.1039378E-001  0.2175426E+03  0.7546771E-02  0.1138859E+00
         21   -1    0    0  501  502  0.00000000000E+00  0.00000000000E+00  0.41895370564E+03  0.41895370564E+03  0.00000000000E+00 0. -1.
         21   -1    0    0  502  503 -0.00000000000E+00 -0.00000000000E+00 -0.10860164045E+03  0.10860164045E+03  0.00000000000E+00 0. -1.
         -6    2    1    2    0  503 -0.49298251444E+02 -0.11357817138E+03  0.11190496709E+03  0.24463749186E+03  0.17886995878E+03 0.  0.
        -24    2    3    3    0    0 -0.10220781741E+03 -0.61011169196E+02  0.72042848698E+02  0.15993926063E+03  0.78877083724E+02 0.  0.
          6    2    1    2  501    0  0.49298251444E+02  0.11357817138E+03  0.19844709810E+03  0.28291785423E+03  0.15915697563E+03 0.  0.
         24    2    5    5    0    0 -0.53343918739E+01  0.10570033195E+03  0.18407935797E+03  0.22568754734E+03  0.76476421762E+02 0.  0.
          5    1    5    5  501    0  0.54632643318E+02  0.78778394314E+01  0.14367740130E+02  0.57230306888E+02  0.47000000000E+01 0. -1.
        -13    1    6    6    0    0  0.18518589038E+02  0.84731806139E+01  0.74632953015E+02  0.77361557672E+02  0.00000000000E+00 0.  1.
         14    1    6    6    0    0 -0.23852980912E+02  0.97227151336E+02  0.10944640495E+03  0.14832598967E+03  0.00000000000E+00 0. -1.
         -5    1    3    3    0  503  0.52909565967E+02 -0.52567002185E+02  0.39862118392E+02  0.84698231223E+02  0.47000000000E+01 0.  1.
         11    1    4    4    0    0 -0.10142497415E+03 -0.75412602041E+02  0.55629684400E+02  0.13808963652E+03  0.00000000000E+00 0. -1.
        -12    1    4    4    0    0 -0.78284325955E+00  0.14401432845E+02  0.16413164298E+02  0.21849624112E+02  0.00000000000E+00 0.  1.
<mgrwt>
<rscale>  2 0.21345476E+03</rscale>
<asrwt>0</asrwt>
<pdfrwt beam="1">  1       21 0.64454415E-01 0.21754260E+03</pdfrwt>
<pdfrwt beam="2">  1       21 0.16707945E-01 0.21754260E+03</pdfrwt>
<totfact> 0.70712816E+04</totfact>
</mgrwt>
</event>
<event>
12    1  0.1039378E-001  0.2923961E+03  0.7546771E-02  0.1089540E+00
         21   -1    0    0  501  502  0.00000000000E+00  0.00000000000E+00  0.12405137314E+03  0.12405137314E+03  0.00000000000E+00 0.  1.
         21   -1    0    0  502  503 -0.00000000000E+00 -0.00000000000E+00 -0.73611680337E+03  0.73611680337E+03  0.00000000000E+00 0. -1.
         -6    2    1    2    0  503 -0.23268875190E+03  0.64384925038E+01 -0.42173969513E+03  0.51128514150E+03  0.17135523342E+03 0.  0.
        -24    2    3    3    0    0 -0.17072567840E+03  0.32048914419E+02 -0.39556300129E+03  0.43915591380E+03  0.78825366825E+02 0.  0.
          6    2    1    2  501    0  0.23268875190E+03 -0.64384925038E+01 -0.19032573510E+03  0.34888303501E+03  0.17694625520E+03 0.  0.
         24    2    5    5    0    0  0.52662558257E+02  0.22155715132E+01 -0.16007826169E+02  0.98097974458E+02  0.81170858656E+02 0.  0.
          5    1    5    5  501    0  0.18002619364E+03 -0.86540640170E+01 -0.17431790893E+03  0.25078506055E+03  0.47000000000E+01 0. -1.
        -11    1    6    6    0    0  0.28195750062E+02 -0.95746142214E+00  0.32887860808E+02  0.43330456291E+02  0.00000000000E+00 0.  1.
         12    1    6    6    0    0  0.24466808195E+02  0.31730329354E+01 -0.48895686977E+02  0.54767518167E+02  0.00000000000E+00 0. -1.
         -5    1    3    3    0  503 -0.61963073495E+02 -0.25610421915E+02 -0.26176693844E+02  0.72129227697E+02  0.47000000000E+01 0.  1.
         13    1    4    4    0    0 -0.56238343338E+02  0.18896684080E+02 -0.22936118236E+03  0.23691008401E+03  0.00000000000E+00 0. -1.
        -14    1    4    4    0    0 -0.11448733507E+03  0.13152230339E+02 -0.16620181893E+03  0.20224582979E+03  0.00000000000E+00 0.  1.
<mgrwt>
<rscale>  2 0.29155520E+03</rscale>
<asrwt>0</asrwt>
<pdfrwt beam="1">  1       21 0.19084827E-01 0.29239611E+03</pdfrwt>
<pdfrwt beam="2">  1       21 0.11324874E+00 0.29239611E+03</pdfrwt>
<totfact> 0.14500538E+04</totfact>
</mgrwt>
</event>
<event>
12    1  0.1039378E-001  0.3132587E+03  0.7546771E-02  0.1078846E+00
         21   -1    0    0  501  502  0.00000000000E+00  0.00000000000E+00  0.23963529782E+03  0.23963529782E+03  0.00000000000E+00 0.  1.
         21   -1    0    0  502  503 -0.00000000000E+00 -0.00000000000E+00 -0.42072699672E+03  0.42072699672E+03  0.00000000000E+00 0.  1.
         -6    2    1    2    0  503 -0.20387756523E+03  0.16306934290E+03 -0.14576151697E+03  0.34511755807E+03  0.17234278882E+03 0.  0.
        -24    2    3    3    0    0 -0.11641018224E+03  0.13481414883E+03 -0.26270068415E+02  0.19428919417E+03  0.73020471251E+02 0.  0.
          6    2    1    2  501    0  0.20387756523E+03 -0.16306934290E+03 -0.35330181920E+02  0.31524473647E+03  0.17312813151E+03 0.  0.
         24    2    5    5    0    0  0.21116576614E+03 -0.15816626696E+03 -0.66089622227E+02  0.28291222661E+03  0.77871310536E+02 0.  0.
          5    1    5    5  501    0 -0.72882009042E+01 -0.49030759386E+01  0.30759440307E+02  0.32332509864E+02  0.47000000000E+01 0. -1.
        -13    1    6    6    0    0  0.11858659133E+03 -0.12406985883E+03 -0.16294259042E+02  0.17239957190E+03  0.00000000000E+00 0.  1.
         14    1    6    6    0    0  0.92579174806E+02 -0.34096408127E+02 -0.49795363185E+02  0.11051265470E+03  0.00000000000E+00 0. -1.
         -5    1    3    3    0  503 -0.87467382993E+02  0.28255194073E+02 -0.11949144856E+03  0.15082836390E+03  0.47000000000E+01 0.  1.
         13    1    4    4    0    0 -0.89483389185E+02  0.56387944315E+02  0.44499120262E+01  0.10586160268E+03  0.00000000000E+00 0. -1.
        -14    1    4    4    0    0 -0.26926793057E+02  0.78426204511E+02 -0.30719980442E+02  0.88427591490E+02  0.00000000000E+00 0.  1.
<mgrwt>
<rscale>  2 0.31315032E+03</rscale>
<asrwt>0</asrwt>
<pdfrwt beam="1">  1       21 0.36866969E-01 0.31325871E+03</pdfrwt>
<pdfrwt beam="2">  1       21 0.64727229E-01 0.31325871E+03</pdfrwt>
<totfact> 0.14672335E+04</totfact>
</mgrwt>
</event>
<event>
12    1  0.1039378E-001  0.1748951E+03  0.7546771E-02  0.1173175E+00
         21   -1    0    0  501  502  0.00000000000E+00  0.00000000000E+00  0.21303273006E+02  0.21303273006E+02  0.00000000000E+00 0. -1.
         21   -1    0    0  502  503 -0.00000000000E+00 -0.00000000000E+00 -0.14754204010E+04  0.14754204010E+04  0.00000000000E+00 0. -1.
         -6    2    1    2    0  503  0.92571592339E+01 -0.15669245386E+02 -0.86288527154E+03  0.88016596353E+03  0.17259754132E+03 0.  0.
        -24    2    3    3    0    0 -0.70524945071E+01 -0.70275236697E+02 -0.69590223412E+03  0.70366314804E+03  0.76639153675E+02 0.  0.
          6    2    1    2  501    0 -0.92571592339E+01  0.15669245386E+02 -0.59123185644E+03  0.61655771046E+03  0.17394562947E+03 0.  0.
         24    2    5    5    0    0 -0.30561273365E+02 -0.53184399645E+02 -0.31379714987E+03  0.32987531456E+03  0.81157255319E+02 0.  0.
          5    1    5    5  501    0  0.21304114131E+02  0.68853645032E+02 -0.27743470657E+03  0.28668239590E+03  0.47000000000E+01 0. -1.
        -11    1    6    6    0    0  0.37366553145E+01 -0.64657064747E+02 -0.18085380548E+03  0.19210048821E+03  0.00000000000E+00 0.  1.
         12    1    6    6    0    0 -0.34297928680E+02  0.11472665102E+02 -0.13294334440E+03  0.13777482635E+03  0.00000000000E+00 0. -1.
         -5    1    3    3    0  503  0.16309653741E+02  0.54605991311E+02 -0.16698303742E+03  0.17650281549E+03  0.47000000000E+01 0.  1.
         11    1    4    4    0    0 -0.23222456258E+02 -0.57586615368E+02 -0.26134174878E+03  0.26861684683E+03  0.00000000000E+00 0. -1.
        -12    1    4    4    0    0  0.16169961751E+02 -0.12688621329E+02 -0.43456048534E+03  0.43504630121E+03  0.00000000000E+00 0.  1.
<mgrwt>
<rscale>  2 0.17455897E+03</rscale>
<asrwt>0</asrwt>
<pdfrwt beam="1">  1       21 0.32774260E-02 0.17489512E+03</pdfrwt>
<pdfrwt beam="2">  1       21 0.22698780E+00 0.17489512E+03</pdfrwt>
<totfact> 0.50484567E+04</totfact>
</mgrwt>
</event>
<event>
12    1  0.1039378E-001  0.2580450E+03  0.7546771E-02  0.1108729E+00
         21   -1    0    0  501  502  0.00000000000E+00  0.00000000000E+00  0.24534844359E+03  0.24534844359E+03  0.00000000000E+00 0. -1.
         21   -1    0    0  502  503 -0.00000000000E+00 -0.00000000000E+00 -0.31947146042E+03  0.31947146042E+03  0.00000000000E+00 0. -1.
         -6    2    1    2    0  503 -0.18131472671E+03 -0.20638854657E+02 -0.14958042281E+03  0.29596856377E+03  0.17866755556E+03 0.  0.
        -24    2    3    3    0    0 -0.19489023288E+03 -0.40190373576E+02 -0.91125621810E+02  0.23267867501E+03  0.78981123386E+02 0.  0.
          6    2    1    2  501    0  0.18131472671E+03  0.20638854657E+02  0.75457405980E+02  0.26885134024E+03  0.18244514406E+03 0.  0.
         24    2    5    5    0    0  0.69885072196E+02  0.76770616279E+02  0.10877954302E+02  0.12828129313E+03  0.74566141354E+02 0.  0.
          5    1    5    5  501    0  0.11142965451E+03 -0.56131761622E+02  0.64579451678E+02  0.14057004712E+03  0.47000000000E+01 0. -1.
        -13    1    6    6    0    0  0.81070006535E+01  0.53446439399E+02 -0.16906194795E+02  0.56639780777E+02  0.00000000000E+00 0.  1.
         14    1    6    6    0    0  0.61778071543E+02  0.23324176881E+02  0.27784149096E+02  0.71641512349E+02  0.00000000000E+00 0. -1.
         -5    1    3    3    0  503  0.13575506176E+02  0.19551518918E+02 -0.58454800998E+02  0.63289888763E+02  0.47000000000E+01 0.  1.
         11    1    4    4    0    0 -0.31481939902E+02  0.13959345630E+02 -0.40666466660E+02  0.53289186342E+02  0.00000000000E+00 0. -1.
        -12    1    4    4    0    0 -0.16340829298E+03 -0.54149719205E+02 -0.50459155150E+02  0.17938948866E+03  0.00000000000E+00 0.  1.
<mgrwt>
<rscale>  2 0.25737820E+03</rscale>
<asrwt>0</asrwt>
<pdfrwt beam="1">  1       21 0.37745915E-01 0.25804500E+03</pdfrwt>
<pdfrwt beam="2">  1       21 0.49149455E-01 0.25804500E+03</pdfrwt>
<totfact> 0.25858142E+04</totfact>
</mgrwt>
</event>
<event>
12    1  0.1039378E-001  0.2112607E+03  0.7546771E-02  0.1140893E+00
         21   -1    0    0  503  502  0.00000000000E+00  0.00000000000E+00  0.64413035990E+03  0.64413035990E+03  0.00000000000E+00 0.  1.
         21   -1    0    0  501  503 -0.00000000000E+00 -0.00000000000E+00 -0.70160889267E+02  0.70160889267E+02  0.00000000000E+00 0. -1.
          6    2    1    2  501    0 -0.65719418721E+02 -0.10064127391E+03  0.33644141577E+03  0.39640659185E+03  0.17174880437E+03 0.  0.
         24    2    3    3    0    0 -0.96037019651E+02 -0.62653037209E+02  0.31178380019E+03  0.34170420561E+03  0.80025707474E+02 0.  0.
         -6    2    1    2    0  502  0.65719418721E+02  0.10064127391E+03  0.23752805487E+03  0.31788465733E+03  0.17373361938E+03 0.  0.
        -24    2    5    5    0    0  0.51366611203E+02 -0.11758206507E+02  0.88622644091E+02  0.13070945160E+03  0.80338057756E+02 0.  0.
          5    1    3    3  501    0  0.30317600930E+02 -0.37988236697E+02  0.24657615575E+02  0.54702386231E+02  0.47000000000E+01 0. -1.
        -11    1    4    4    0    0 -0.60580323119E+02 -0.76476712872E+02  0.25789321158E+03  0.27573097711E+03  0.00000000000E+00 0.  1.
         12    1    4    4    0    0 -0.35456696532E+02  0.13823675663E+02  0.53890588617E+02  0.65973228504E+02  0.00000000000E+00 0. -1.
         -5    1    5    5    0  502  0.14352807518E+02  0.11239948041E+03  0.14890541078E+03  0.18717520573E+03  0.47000000000E+01 0.  1.
         13    1    6    6    0    0 -0.56266294282E+00  0.80313525576E+01 -0.12764235401E+02  0.15091219926E+02  0.00000000000E+00 0. -1.
        -14    1    6    6    0    0  0.51929274146E+02 -0.19789559065E+02  0.10138687949E+03  0.11561823167E+03  0.00000000000E+00 0.  1.
<mgrwt>
<rscale>  2 0.21085220E+03</rscale>
<asrwt>0</asrwt>
<pdfrwt beam="1">  1       21 0.99096974E-01 0.21126069E+03</pdfrwt>
<pdfrwt beam="2">  1       21 0.10793983E-01 0.21126069E+03</pdfrwt>
<totfact> 0.58911201E+04</totfact>
</mgrwt>
</event>
<event>
12    1  0.1039378E-001  0.2008261E+03  0.7546771E-02  0.1149288E+00
         21   -1    0    0  501  502  0.00000000000E+00  0.00000000000E+00  0.49917569487E+02  0.49917569487E+02  0.00000000000E+00 0.  1.
         21   -1    0    0  502  503 -0.00000000000E+00 -0.00000000000E+00 -0.88623654357E+03  0.88623654357E+03  0.00000000000E+00 0. -1.
         -6    2    1    2    0  503 -0.16698773717E+02 -0.10107494448E+03 -0.56245193383E+03  0.59722969693E+03  0.17273140878E+03 0.  0.
        -24    2    3    3    0    0 -0.43892257268E+02 -0.51011304964E+02 -0.50636734861E+03  0.51714583932E+03  0.80642692842E+02 0.  0.
          6    2    1    2  501    0  0.16698773717E+02  0.10107494448E+03 -0.27386704025E+03  0.33892441613E+03  0.17138147702E+03 0.  0.
         24    2    5    5    0    0 -0.40667317418E+02  0.82882983254E+02 -0.24076819889E+03  0.27008083135E+03  0.80317558774E+02 0.  0.
          5    1    5    5  501    0  0.57366091135E+02  0.18191961230E+02 -0.33098841364E+02  0.68843584779E+02  0.47000000000E+01 0. -1.
        -11    1    6    6    0    0 -0.22992218666E+01  0.35669324045E+01  0.63993284523E+01  0.76785957447E+01  0.00000000000E+00 0.  1.
         12    1    6    6    0    0 -0.38368095552E+02  0.79316050849E+02 -0.24716752734E+03  0.26240223561E+03  0.00000000000E+00 0. -1.
         -5    1    3    3    0  503  0.27193483551E+02 -0.50063639520E+02 -0.56084585221E+02  0.80083857606E+02  0.47000000000E+01 0.  1.
         11    1    4    4    0    0  0.23738229525E+01 -0.44333457971E+02 -0.11979278030E+03  0.12775523764E+03  0.00000000000E+00 0. -1.
        -12    1    4    4    0    0 -0.46266080220E+02 -0.66778469933E+01 -0.38657456831E+03  0.38939060169E+03  0.00000000000E+00 0.  1.
<mgrwt>
<rscale>  2 0.20053552E+03</rscale>
<asrwt>0</asrwt>
<pdfrwt beam="1">  1       21 0.76796264E-02 0.20082613E+03</pdfrwt>
<pdfrwt beam="2">  1       21 0.13634408E+00 0.20082613E+03</pdfrwt>
<totfact> 0.49129091E+04</totfact>
</mgrwt>
</event>
<event>
12    1  0.1039378E-001  0.1773749E+03  0.7546771E-02  0.1170867E+00
         21   -1    0    0  503  502  0.00000000000E+00  0.00000000000E+00  0.24945506317E+03  0.24945506317E+03  0.00000000000E+00 0.  1.
         21   -1    0    0  501  503 -0.00000000000E+00 -0.00000000000E+00 -0.32576233831E+03  0.32576233831E+03  0.00000000000E+00 0.  1.
          6    2    1    2  501    0  0.26872422872E+02 -0.28870035603E+02 -0.26419005757E+03  0.31821098344E+03  0.17293419961E+03 0.  0.
         24    2    3    3    0    0  0.60805402708E+02 -0.70532744000E+02 -0.21807021880E+03  0.24724368167E+03  0.70018946193E+02 0.  0.
         -6    2    1    2    0  502 -0.26872422872E+02  0.28870035603E+02  0.18788278243E+03  0.25700641804E+03  0.17087057358E+03 0.  0.
        -24    2    5    5    0    0  0.30197330471E+02  0.51258894680E+02  0.16076605964E+03  0.18980802213E+03  0.81498504799E+02 0.  0.
          5    1    3    3  501    0 -0.33932979836E+02  0.41662708397E+02 -0.46119838776E+02  0.70967301768E+02  0.47000000000E+01 0. -1.
        -13    1    4    4    0    0  0.16313861132E+02 -0.34193127097E+02 -0.16411911133E+03  0.16843513502E+03  0.00000000000E+00 0.  1.
         14    1    4    4    0    0  0.44491541576E+02 -0.36339616903E+02 -0.53951107468E+02  0.78808546652E+02  0.00000000000E+00 0. -1.
         -5    1    5    5    0  502 -0.57069753343E+02 -0.22388859077E+02  0.27116722789E+02  0.67198395905E+02  0.47000000000E+01 0.  1.
         11    1    6    6    0    0  0.38526441644E+02  0.66793734820E+01  0.24378899985E+02  0.46078536222E+02  0.00000000000E+00 0. -1.
        -12    1    6    6    0    0 -0.83291111730E+01  0.44579521198E+02  0.13638715965E+03  0.14372948591E+03  0.00000000000E+00 0.  1.
<mgrwt>
<rscale>  2 0.17686987E+03</rscale>
<asrwt>0</asrwt>
<pdfrwt beam="1">  1       21 0.38377702E-01 0.17737487E+03</pdfrwt>
<pdfrwt beam="2">  1       21 0.50117283E-01 0.17737487E+03</pdfrwt>
<totfact> 0.25043093E+04</totfact>
</mgrwt>
</event>
<event>
12    1  0.1039378E-001  0.1878916E+03  0.7546771E-02  0.1160684E+00
         21   -1    0    0  503  502  0.00000000000E+00  0.00000000000E+00  0.41328237293E+02  0.41328237293E+02  0.00000000000E+00 0.  1.
         21   -1    0    0  501  503 -0.00000000000E+00 -0.00000000000E+00 -0.91082288846E+03  0.91082288846E+03  0.00000000000E+00 0. -1.
          6    2    1    2  501    0  0.71766347760E+01 -0.71503639393E+02 -0.31130599987E+03  0.36361337304E+03  0.17360583219E+03 0.  0.
         24    2    3    3    0    0  0.30383921335E+02 -0.10600601730E+03 -0.18403114300E+03  0.22963586963E+03  0.81882309730E+02 0.  0.
         -6    2    1    2    0  502 -0.71766347760E+01  0.71503639393E+02 -0.55818865130E+03  0.58853775271E+03  0.17215644452E+03 0.  0.
        -24    2    5    5    0    0 -0.35180375246E+02 -0.78080411213E+01 -0.17296331976E+03  0.19420895817E+03  0.80636128013E+02 0.  0.
          5    1    3    3  501    0 -0.23207286559E+02  0.34502377908E+02 -0.12727485686E+03  0.13397750341E+03  0.47000000000E+01 0. -1.
        -11    1    4    4    0    0  0.41369132041E+02 -0.75022994957E+02 -0.17607822899E+03  0.19581470216E+03  0.00000000000E+00 0.  1.
         12    1    4    4    0    0 -0.10985210706E+02 -0.30983022343E+02 -0.79529140144E+01  0.33821167471E+02  0.00000000000E+00 0. -1.
         -5    1    5    5    0  502  0.28003740470E+02  0.79311680515E+02 -0.38522533154E+03  0.39432879454E+03  0.47000000000E+01 0.  1.
         13    1    6    6    0    0 -0.10246016117E+02  0.33045416495E+02 -0.10875186979E+03  0.11412252004E+03  0.00000000000E+00 0. -1.
        -14    1    6    6    0    0 -0.24934359129E+02 -0.40853457616E+02 -0.64211449973E+02  0.80086438128E+02  0.00000000000E+00 0.  1.
<mgrwt>
<rscale>  2 0.18755613E+03</rscale>
<asrwt>0</asrwt>
<pdfrwt beam="1">  1       21 0.63581913E-02 0.18789162E+03</pdfrwt>
<pdfrwt beam="2">  1       21 0.14012658E+00 0.18789162E+03</pdfrwt>
<totfact> 0.63885320E+04</totfact>
</mgrwt>
</event>
<event>
12    1  0.1039378E-001  0.2171576E+03  0.7546771E-02  0.1136104E+00
         21   -1    0    0  501  502  0.00000000000E+00  0.00000000000E+00  0.14921025555E+03  0.14921025555E+03  0.00000000000E+00 0.  1.
         21   -1    0    0  502  503 -0.00000000000E+00 -0.00000000000E+00 -0.34642055112E+03  0.34642055112E+03  0.00000000000E+00 0.  1.
         -6    2    1    2    0  503  0.15169540333E+02 -0.13034710959E+03 -0.17266807295E+03  0.27709073429E+03  0.17246601892E+03 0.  0.
        -24    2    3    3    0    0 -0.33706015574E+02 -0.12862903104E+03 -0.87417379348E+02  0.17869590455E+03  0.81295171925E+02 0.  0.
          6    2    1    2  501    0 -0.15169540333E+02  0.13034710959E+03 -0.24542222620E+02  0.21854007238E+03  0.17302300024E+03 0.  0.
         24    2    5    5    0    0 -0.14831364407E+02  0.11694628256E+03 -0.76987531261E+02  0.16420502912E+03  0.84497391930E+02 0.  0.
          5    1    5    5  501    0 -0.33817592622E+00  0.13400827026E+02  0.52445308642E+02  0.54335043264E+02  0.47000000000E+01 0. -1.
        -13    1    6    6    0    0  0.36579238076E+00  0.10385727420E+03 -0.22670740339E+02  0.10630347913E+03  0.00000000000E+00 0.  1.
         14    1    6    6    0    0 -0.15197156788E+02  0.13089008358E+02 -0.54316790923E+02  0.57901549982E+02  0.00000000000E+00 0. -1.
         -5    1    3    3    0  503  0.48875555907E+02 -0.17180785425E+01 -0.85250693604E+02  0.98394829738E+02  0.47000000000E+01 0.  1.
         13    1    4    4    0    0  0.20575670003E+02 -0.53720426216E+02 -0.10694032381E+02  0.58511577636E+02  0.00000000000E+00 0. -1.
        -14    1    4    4    0    0 -0.54281685577E+02 -0.74908604826E+02 -0.76723346967E+02  0.12018432691E+03  0.00000000000E+00 0.  1.
<mgrwt>
<rscale>  2 0.21704668E+03</rscale>
<asrwt>0</asrwt>
<pdfrwt beam="1">  1       21 0.22955424E-01 0.21715764E+03</pdfrwt>
<pdfrwt beam="2">  1       21 0.53295470E-01 0.21715764E+03</pdfrwt>
<totfact> 0.58716895E+04</totfact>
</mgrwt>
</event>
<event>
12    1  0.1039378E-001  0.2105805E+03  0.7546771E-02  0.1142919E+00
         21   -1    0    0  503  502  0.00000000000E+00  0.00000000000E+00  0.83922992283E+03  0.83922992283E+03  0.00000000000E+00 0.  1.
         21   -1    0    0  501  503 -0.00000000000E+00 -0.00000000000E+00 -0.57446577688E+02  0.57446577688E+02  0.00000000000E+00 0. -1.
          6    2    1    2  501    0  0.11181556499E+03 -0.76166291089E+01  0.22877294776E+03  0.30492938023E+03  0.16758320825E+03 0.  0.
         24    2    3    3    0    0  0.10878971424E+03  0.11648645166E+01  0.25003861207E+03  0.28125262198E+03  0.68899717063E+02 0.  0.
         -6    2    1    2    0  502 -0.11181556499E+03  0.76166291089E+01  0.55301039739E+03  0.59174712029E+03  0.17827905414E+03 0.  0.
        -24    2    5    5    0    0 -0.43249518330E+02  0.34565612739E+02  0.47551230198E+03  0.48471630574E+03  0.75977926330E+02 0.  0.
          5    1    3    3  501    0  0.30258507462E+01 -0.87814936255E+01 -0.21265664305E+02  0.23676758253E+02  0.47000000000E+01 0. -1.
        -11    1    4    4    0    0  0.98027437440E+02 -0.23791017959E+02  0.20839730918E+03  0.23152716795E+03  0.00000000000E+00 0.  1.
         12    1    4    4    0    0  0.10762276804E+02  0.24955882475E+02  0.41641302891E+02  0.49725454031E+02  0.00000000000E+00 0. -1.
         -5    1    5    5    0  502 -0.68566046660E+02 -0.26948983630E+02  0.77498095400E+02  0.10703081455E+03  0.47000000000E+01 0.  1.
         11    1    6    6    0    0  0.94577765040E+01 -0.46247378391E+01  0.97612049862E+01  0.14356840156E+02  0.00000000000E+00 0. -1.
        -12    1    6    6    0    0 -0.52707294834E+02  0.39190350578E+02  0.46575109700E+03  0.47035946558E+03  0.00000000000E+00 0.  1.
<mgrwt>
<rscale>  2 0.20830004E+03</rscale>
<asrwt>0</asrwt>
<pdfrwt beam="1">  1       21 0.12911229E+00 0.21058052E+03</pdfrwt>
<pdfrwt beam="2">  1       21 0.88379356E-02 0.21058052E+03</pdfrwt>
<totfact> 0.43914807E+04</totfact>
</mgrwt>
</event>
<event>
12    1  0.1039378E-001  0.1738533E+03  0.7546771E-02  0.1174278E+00
         21   -1    0    0  503  502  0.00000000000E+00  0.00000000000E+00  0.57570942639E+03  0.57570942639E+03  0.00000000000E+00 0.  1.
         21   -1    0    0  501  503 -0.00000000000E+00 -0.00000000000E+00 -0.56901774040E+02  0.56901774040E+02  0.00000000000E+00 0.  1.
          6    2    1    2  501    0  0.18978742821E+02 -0.64422896956E+01  0.16588793218E+03  0.23919373525E+03  0.17115239164E+03 0.  0.
         24    2    3    3    0    0 -0.12080670452E+02 -0.15104947785E+02  0.16509297649E+02  0.86302286005E+02  0.82470756118E+02 0.  0.
         -6    2    1    2    0  502 -0.18978742821E+02  0.64422896956E+01  0.35291972018E+03  0.39341746518E+03  0.17269417259E+03 0.  0.
        -24    2    5    5    0    0  0.32747585045E+02  0.38501866171E+01  0.87023276898E+02  0.12248326553E+03  0.79635867236E+02 0.  0.
          5    1    3    3  501    0  0.31059413273E+02  0.86626580896E+01  0.14937863453E+03  0.15289144924E+03  0.47000000000E+01 0. -1.
        -11    1    4    4    0    0  0.18587072456E+02 -0.31689316356E+02 -0.14641646571E+02  0.39548322947E+02  0.00000000000E+00 0.  1.
         12    1    4    4    0    0 -0.30667742908E+02  0.16584368571E+02  0.31150944219E+02  0.46753963059E+02  0.00000000000E+00 0. -1.
         -5    1    5    5    0  502 -0.51726327866E+02  0.25921030785E+01  0.26589644328E+03  0.27093419965E+03  0.47000000000E+01 0.  1.
         13    1    6    6    0    0 -0.90873983699E+01 -0.51967324599E+01 -0.11205303316E+02  0.15334459880E+02  0.00000000000E+00 0. -1.
        -14    1    6    6    0    0  0.41834983415E+02  0.90469190770E+01  0.98228580214E+02  0.10714880565E+03  0.00000000000E+00 0.  1.
<mgrwt>
<rscale>  2 0.17346919E+03</rscale>
<asrwt>0</asrwt>
<pdfrwt beam="1">  1       21 0.88570677E-01 0.17385331E+03</pdfrwt>
<pdfrwt beam="2">  1       21 0.87541195E-02 0.17385331E+03</pdfrwt>
<totfact> 0.11261092E+05</totfact>
</mgrwt>
</event>
<event>
12    1  0.1039378E-001  0.1756924E+03  0.7546771E-02  0.1172649E+00
         21   -1    0    0  501  502  0.00000000000E+00  0.00000000000E+00  0.50759880848E+03  0.50759880848E+03  0.00000000000E+00 0. -1.
         21   -1    0    0  502  503 -0.00000000000E+00 -0.00000000000E+00 -0.87614513578E+02  0.87614513578E+02  0.00000000000E+00 0. -1.
         -6    2    1    2    0  503 -0.63113274756E-02 -0.17733403362E+02  0.41835829134E+02  0.17824320563E+03  0.17235408356E+03 0.  0.
        -24    2    3    3    0    0 -0.64152711341E+02 -0.53927634720E+01  0.60628039927E+01  0.10361846874E+03  0.80965283928E+02 0.  0.
          6    2    1    2  501    0  0.63113274756E-02  0.17733403362E+02  0.37814846576E+03  0.41697011643E+03  0.17479514352E+03 0.  0.
         24    2    5    5    0    0 -0.38142353842E+02 -0.29487674208E+02  0.11552858598E+03  0.14738443045E+03  0.77787878722E+02 0.  0.
          5    1    5    5  501    0  0.38148665170E+02  0.47221077570E+02  0.26261987979E+03  0.26958568597E+03  0.47000000000E+01 0. -1.
        -13    1    6    6    0    0 -0.57841897871E+02 -0.38875977298E+02  0.87553887304E+02  0.11190491474E+03  0.00000000000E+00 0.  1.
         14    1    6    6    0    0  0.19699544028E+02  0.93883030896E+01  0.27974698672E+02  0.35479515718E+02  0.00000000000E+00 0. -1.
         -5    1    3    3    0  503  0.64146400014E+02 -0.12340639890E+02  0.35773025141E+02  0.74624736887E+02  0.47000000000E+01 0.  1.
         11    1    4    4    0    0 -0.58135371112E+02 -0.21247731452E+02 -0.26166181643E+02  0.67200122976E+02  0.00000000000E+00 0. -1.
        -12    1    4    4    0    0 -0.60173402290E+01  0.15854967980E+02  0.32228985636E+02  0.36418345764E+02  0.00000000000E+00 0.  1.
<mgrwt>
<rscale>  2 0.17508211E+03</rscale>
<asrwt>0</asrwt>
<pdfrwt beam="1">  1       21 0.78092123E-01 0.17569239E+03</pdfrwt>
<pdfrwt beam="2">  1       21 0.13479156E-01 0.17569239E+03</pdfrwt>
<totfact> 0.69679069E+04</totfact>
</mgrwt>
</event>
<event>
12    1  0.1039378E-001  0.1835185E+03  0.7546771E-02  0.1164717E+00
         21   -1    0    0  503  502  0.00000000000E+00  0.00000000000E+00  0.45471168006E+02  0.45471168006E+02  0.00000000000E+00 0.  1.
         21   -1    0    0  501  503 -0.00000000000E+00 -0.00000000000E+00 -0.75543945521E+03  0.75543945521E+03  0.00000000000E+00 0.  1.
          6    2    1    2  501    0  0.31634891251E+01  0.59063158584E+02 -0.28958480040E+03  0.34221537600E+03  0.17249215222E+03 0.  0.
         24    2    3    3    0    0  0.24648290144E+02  0.52626382431E+02 -0.72606197435E+02  0.12403005819E+03  0.82065346479E+02 0.  0.
         -6    2    1    2    0  502 -0.31634891251E+01 -0.59063158584E+02 -0.42038348680E+03  0.45869524722E+03  0.17372561550E+03 0.  0.
        -24    2    5    5    0    0  0.80541209776E+00  0.33413629261E+02 -0.16495366907E+03  0.18697077233E+03  0.81432410366E+02 0.  0.
          5    1    3    3  501    0 -0.21484801019E+02  0.64367761523E+01 -0.21697860297E+03  0.21818531781E+03  0.47000000000E+01 0. -1.
        -13    1    4    4    0    0  0.50820198755E+02  0.50695869051E+02 -0.40001257546E+02  0.82175813629E+02  0.00000000000E+00 0.  1.
         14    1    4    4    0    0 -0.26171908611E+02  0.19305133807E+01 -0.32604939889E+02  0.41854244557E+02  0.00000000000E+00 0. -1.
         -5    1    5    5    0  502 -0.39689012229E+01 -0.92476787845E+02 -0.25542981773E+03  0.27172447489E+03  0.47000000000E+01 0.  1.
         13    1    6    6    0    0 -0.35482322245E+02 -0.42293628654E+01 -0.65937379497E+02  0.74997471404E+02  0.00000000000E+00 0. -1.
        -14    1    6    6    0    0  0.36287734342E+02  0.37642992126E+02 -0.99016289571E+02  0.11197330093E+03  0.00000000000E+00 0.  1.
<mgrwt>
<rscale>  2 0.18322604E+03</rscale>
<asrwt>0</asrwt>
<pdfrwt beam="1">  1       21 0.69955639E-02 0.18351854E+03</pdfrwt>
<pdfrwt beam="2">  1       21 0.11622146E+00 0.18351854E+03</pdfrwt>
<totfact> 0.86870177E+04</totfact>
</mgrwt>
</event>
<event>
12    1  0.1039378E-001  0.2307046E+03  0.7546771E-02  0.1129397E+00
         21   -1    0    0  503  502  0.00000000000E+00  0.00000000000E+00  0.15985979350E+04  0.15985979350E+04  0.00000000000E+00 0. -1.
         21   -1    0    0  501  503 -0.00000000000E+00 -0.00000000000E+00 -0.56871793802E+02  0.56871793802E+02  0.00000000000E+00 0.  1.
          6    2    1    2  501    0  0.92136060162E+02  0.84083899427E+02  0.22715354410E+03  0.32376433814E+03  0.19407590868E+03 0.  0.
         24    2    3    3    0    0  0.11458608300E+03  0.32616305621E+02  0.22601607817E+03  0.26740566032E+03  0.78922276755E+02 0.  0.
         -6    2    1    2    0  502 -0.92136060162E+02 -0.84083899427E+02  0.13145725971E+04  0.13317053906E+04  0.17256586783E+03 0.  0.
        -24    2    5    5    0    0  0.31371047153E+00 -0.65535774152E+00  0.71094178501E+03  0.71534548852E+03  0.79249090644E+02 0.  0.
          5    1    3    3  501    0 -0.22450022840E+02  0.51467593806E+02  0.11374659317E+01  0.56358677828E+02  0.47000000000E+01 0. -1.
        -13    1    4    4    0    0  0.10261930843E+02  0.11503044265E+02 -0.22163638460E+01  0.15573680383E+02  0.00000000000E+00 0.  1.
         14    1    4    4    0    0  0.10432415216E+03  0.21113261356E+02  0.22823244202E+03  0.25183197993E+03  0.00000000000E+00 0. -1.
         -5    1    5    5    0  502 -0.92449770634E+02 -0.83428541686E+02  0.60363081205E+03  0.61635990210E+03  0.47000000000E+01 0.  1.
         11    1    6    6    0    0 -0.39236898378E+02 -0.31643008071E+01  0.32544406665E+03  0.32781608794E+03  0.00000000000E+00 0. -1.
        -12    1    6    6    0    0  0.39550608850E+02  0.25089430655E+01  0.38549771835E+03  0.38752940058E+03  0.00000000000E+00 0.  1.
<mgrwt>
<rscale>  2 0.22612582E+03</rscale>
<asrwt>0</asrwt>
<pdfrwt beam="1">  1       21 0.24593811E+00 0.23070460E+03</pdfrwt>
<pdfrwt beam="2">  1       21 0.87495079E-02 0.23070460E+03</pdfrwt>
<totfact> 0.69624004E+03</totfact>
</mgrwt>
</event>
<event>
12    1  0.1039378E-001  0.1854814E+03  0.7546771E-02  0.1162939E+00
         21   -1    0    0  503  502  0.00000000000E+00  0.00000000000E+00  0.17200506501E+03  0.17200506501E+03  0.00000000000E+00 0. -1.
         21   -1    0    0  501  503 -0.00000000000E+00 -0.00000000000E+00 -0.22140143583E+03  0.22140143583E+03  0.00000000000E+00 0. -1.
          6    2    1    2  501    0  0.53815876656E+02  0.33496906984E+02  0.38707898101E+02  0.18806361960E+03  0.17277567040E+03 0.  0.
         24    2    3    3    0    0  0.10304206947E+03  0.28956207545E+02  0.35995037538E+02  0.13833148086E+03  0.79898847507E+02 0.  0.
         -6    2    1    2    0  502 -0.53815876656E+02 -0.33496906984E+02 -0.88104268919E+02  0.20534288124E+03  0.17431335381E+03 0.  0.
        -24    2    5    5    0    0 -0.87667252514E+02 -0.42065629478E+02 -0.10695523977E+03  0.16538305448E+03  0.80355877487E+02 0.  0.
          5    1    3    3  501    0 -0.49226192818E+02  0.45406994386E+01  0.27128605624E+01  0.49732138735E+02  0.47000000000E+01 0. -1.
        -11    1    4    4    0    0  0.12843538683E+01 -0.20396368635E+02  0.66605276932E+01  0.21494744649E+02  0.00000000000E+00 0.  1.
         12    1    4    4    0    0  0.10175771561E+03  0.49352576180E+02  0.29334509845E+02  0.11683673621E+03  0.00000000000E+00 0. -1.
         -5    1    5    5    0  502  0.33851375857E+02  0.85687224945E+01  0.18850970855E+02  0.39959826761E+02  0.47000000000E+01 0.  1.
         13    1    6    6    0    0 -0.67229162177E+02 -0.61332665677E+02 -0.10228828136E+03  0.13691000193E+03  0.00000000000E+00 0. -1.
        -14    1    6    6    0    0 -0.20438090336E+02  0.19267036199E+02 -0.46669584188E+01  0.28473052547E+02  0.00000000000E+00 0.  1.
<mgrwt>
<rscale>  2 0.18511922E+03</rscale>
<asrwt>0</asrwt>
<pdfrwt beam="1">  1       21 0.26462318E-01 0.18548136E+03</pdfrwt>
<pdfrwt beam="2">  1       21 0.34061759E-01 0.18548136E+03</pdfrwt>
<totfact> 0.11310605E+05</totfact>
</mgrwt>
</event>
<event>
12    1  0.1039378E-001  0.2437950E+03  0.7546771E-02  0.1117356E+00
         21   -1    0    0  501  502  0.00000000000E+00  0.00000000000E+00  0.19548809963E+03  0.19548809963E+03  0.00000000000E+00 0.  1.
         21   -1    0    0  502  503 -0.00000000000E+00 -0.00000000000E+00 -0.31019813979E+03  0.31019813979E+03  0.00000000000E+00 0.  1.
         -6    2    1    2    0  503  0.43091782511E+02  0.16615246848E+03 -0.20251381231E+02  0.24423176375E+03  0.17255576339E+03 0.  0.
        -24    2    3    3    0    0 -0.55426992406E+01  0.16206131017E+02 -0.26345144225E+02  0.86407681677E+02  0.80491369917E+02 0.  0.
          6    2    1    2  501    0 -0.43091782511E+02 -0.16615246848E+03 -0.94458658933E+02  0.26145447568E+03  0.17312556166E+03 0.  0.
         24    2    5    5    0    0  0.38365893933E+02 -0.49404944166E+02 -0.35612910495E+02  0.10734331581E+03  0.79633646976E+02 0.  0.
          5    1    5    5  501    0 -0.81457676444E+02 -0.11674752431E+03 -0.58845748437E+02  0.15411115986E+03  0.47000000000E+01 0. -1.
        -11    1    6    6    0    0 -0.67934817600E+01 -0.54164518555E+02 -0.10977634968E+02  0.55681728908E+02  0.00000000000E+00 0.  1.
         12    1    6    6    0    0  0.45159375693E+02  0.47595743888E+01 -0.24635275527E+02  0.51661586906E+02  0.00000000000E+00 0. -1.
         -5    1    3    3    0  503  0.48634481752E+02  0.14994633746E+03  0.60937629945E+01  0.15782408207E+03  0.47000000000E+01 0.  1.
         11    1    4    4    0    0  0.28352260317E+02 -0.76591160511E+01 -0.33271605396E+02  0.44379189373E+02  0.00000000000E+00 0. -1.
        -12    1    4    4    0    0 -0.33894959557E+02  0.23865247068E+02  0.69264611711E+01  0.42028492304E+02  0.00000000000E+00 0.  1.
<mgrwt>
<rscale>  2 0.24369387E+03</rscale>
<asrwt>0</asrwt>
<pdfrwt beam="1">  1       21 0.30075092E-01 0.24379501E+03</pdfrwt>
<pdfrwt beam="2">  1       21 0.47722791E-01 0.24379501E+03</pdfrwt>
<totfact> 0.43468931E+04</totfact>
</mgrwt>
</event>
<event>
12    1  0.1039378E-001  0.1810148E+03  0.7546771E-02  0.1166958E+00
         21   -1    0    0  501  502  0.00000000000E+00  0.00000000000E+00  0.71654167371E+03  0.71654167371E+03  0.00000000000E+00 0. -1.
         21   -1    0    0  502  503 -0.00000000000E+00 -0.00000000000E+00 -0.52178121022E+02  0.52178121022E+02  0.00000000000E+00 0. -1.
         -6    2    1    2    0  503 -0.19100190225E+02 -0.48672365712E+02  0.19514944756E+03  0.26580010040E+03  0.17272107584E+03 0.  0.
        -24    2    3    3    0    0 -0.70774820020E+02 -0.61313989820E+02  0.15871777503E+03  0.20115155217E+03  0.80635812984E+02 0.  0.
          6    2    1    2  501    0  0.19100190225E+02  0.48672365712E+02  0.46921410512E+03  0.50291969432E+03  0.17329894992E+03 0.  0.
         24    2    5    5    0    0  0.64947441713E+02 -0.66377190306E+01  0.19166077406E+03  0.21618093251E+03  0.75750338405E+02 0.  0.
          5    1    5    5  501    0 -0.45847251488E+02  0.55310084743E+02  0.27755333107E+03  0.28673876182E+03  0.47000000000E+01 0. -1.
        -13    1    6    6    0    0  0.47377239664E+02 -0.12925151943E+02  0.39892985387E+02  0.63270156267E+02  0.00000000000E+00 0.  1.
         14    1    6    6    0    0  0.17570202049E+02  0.62874329125E+01  0.15176778867E+03  0.15291077624E+03  0.00000000000E+00 0. -1.
         -5    1    3    3    0  503  0.51674629795E+02  0.12641624108E+02  0.36431672535E+02  0.64648548230E+02  0.47000000000E+01 0.  1.
         13    1    4    4    0    0 -0.38027600049E+02 -0.71086647476E+02  0.14157189142E+03  0.16291718833E+03  0.00000000000E+00 0. -1.
        -14    1    4    4    0    0 -0.32747219970E+02  0.97726576556E+01  0.17145883608E+02  0.38234363838E+02  0.00000000000E+00 0.  1.
<mgrwt>
<rscale>  2 0.18087631E+03</rscale>
<asrwt>0</asrwt>
<pdfrwt beam="1">  1       21 0.11023717E+00 0.18101476E+03</pdfrwt>
<pdfrwt beam="2">  1       21 0.80274038E-02 0.18101476E+03</pdfrwt>
<totfact> 0.77912932E+04</totfact>
</mgrwt>
</event>
<event>
12    1  0.1039378E-001  0.1962553E+03  0.7546771E-02  0.1153464E+00
         21   -1    0    0  501  502  0.00000000000E+00  0.00000000000E+00  0.77532978728E+02  0.77532978728E+02  0.00000000000E+00 0. -1.
         21   -1    0    0  502  503 -0.00000000000E+00 -0.00000000000E+00 -0.50729379081E+03  0.50729379081E+03  0.00000000000E+00 0.  1.
         -6    2    1    2    0  503  0.77953834638E+02  0.41091676298E+02 -0.26652829595E+03  0.32956021025E+03  0.17264783068E+03 0.  0.
        -24    2    3    3    0    0  0.84154481006E+02  0.85079006574E+02 -0.16690297318E+03  0.22037858095E+03  0.79935614398E+02 0.  0.
          6    2    1    2  501    0 -0.77953834638E+02 -0.41091676298E+02 -0.16323251613E+03  0.25526655929E+03  0.17535916222E+03 0.  0.
         24    2    5    5    0    0 -0.65841673814E+02 -0.48430163746E+02 -0.26650095534E+02  0.11787148859E+03  0.80640271939E+02 0.  0.
          5    1    5    5  501    0 -0.12112160823E+02  0.73384874489E+01 -0.13658242060E+03  0.13739507071E+03  0.47000000000E+01 0. -1.
        -13    1    6    6    0    0 -0.47104499899E+02 -0.20649044352E+02 -0.54032533738E+02  0.74597128936E+02  0.00000000000E+00 0.  1.
         14    1    6    6    0    0 -0.18737173915E+02 -0.27781119395E+02  0.27382438204E+02  0.43274359650E+02  0.00000000000E+00 0. -1.
         -5    1    3    3    0  503 -0.62006463689E+01 -0.43987330276E+02 -0.99625322769E+02  0.10918162930E+03  0.47000000000E+01 0.  1.
         13    1    4    4    0    0  0.59360598678E+02  0.15198654042E+02 -0.39297107498E+02  0.72793835026E+02  0.00000000000E+00 0. -1.
        -14    1    4    4    0    0  0.24793882329E+02  0.69880352532E+02 -0.12760586569E+03  0.14758474592E+03  0.00000000000E+00 0.  1.
<mgrwt>
<rscale>  2 0.19564783E+03</rscale>
<asrwt>0</asrwt>
<pdfrwt beam="1">  1       21 0.11928151E-01 0.19625535E+03</pdfrwt>
<pdfrwt beam="2">  1       21 0.78045197E-01 0.19625535E+03</pdfrwt>
<totfact> 0.86127448E+04</totfact>
</mgrwt>
</event>
<event>
12    1  0.1039378E-001  0.3152946E+03  0.7546771E-02  0.1078011E+00
         21   -1    0    0  503  502  0.00000000000E+00  0.00000000000E+00  0.35450017070E+03  0.35450017070E+03  0.00000000000E+00 0.  1.
         21   -1    0    0  501  503 -0.00000000000E+00 -0.00000000000E+00 -0.63447170747E+03  0.63447170747E+03  0.00000000000E+00 0. -1.
          6    2    1    2  501    0 -0.89767754009E+02  0.24675874202E+03 -0.51020519198E+03  0.59976662039E+03  0.17453519582E+03 0.  0.
         24    2    3    3    0    0 -0.56979964086E+02  0.42641081952E+02 -0.14543439023E+03  0.18045899330E+03  0.79682546551E+02 0.  0.
         -6    2    1    2    0  502  0.89767754009E+02 -0.24675874202E+03  0.23023365521E+03  0.38920525779E+03  0.17182860726E+03 0.  0.
        -24    2    5    5    0    0  0.10975241534E+03 -0.10838590483E+03  0.12202948824E+03  0.21235317125E+03  0.80059829530E+02 0.  0.
          5    1    3    3  501    0 -0.32787789923E+02  0.20411766007E+03 -0.36477080175E+03  0.41930762709E+03  0.47000000000E+01 0. -1.
        -11    1    4    4    0    0 -0.49692839790E+02  0.13025567166E+02 -0.26750855652E+02  0.57919357770E+02  0.00000000000E+00 0.  1.
         12    1    4    4    0    0 -0.72871242965E+01  0.29615514787E+02 -0.11868353458E+03  0.12253963553E+03  0.00000000000E+00 0. -1.
         -5    1    5    5    0  502 -0.19984661326E+02 -0.13837283719E+03  0.10820416697E+03  0.17685208653E+03  0.47000000000E+01 0.  1.
         13    1    6    6    0    0  0.46634899579E+01 -0.11737629077E+02 -0.11341970869E+02  0.16975287277E+02  0.00000000000E+00 0. -1.
        -14    1    6    6    0    0  0.10508892538E+03 -0.96648275756E+02  0.13337145911E+03  0.19537788398E+03  0.00000000000E+00 0.  1.
<mgrwt>
<rscale>  2 0.31492136E+03</rscale>
<asrwt>0</asrwt>
<pdfrwt beam="1">  1       21 0.54538489E-01 0.31529456E+03</pdfrwt>
<pdfrwt beam="2">  1       21 0.97611030E-01 0.31529456E+03</pdfrwt>
<totfact> 0.25362812E+03</totfact>
</mgrwt>
</event>
<event>
12    1  0.1039378E-001  0.1828565E+03  0.7546771E-02  0.1165278E+00
         21   -1    0    0  501  502  0.00000000000E+00  0.00000000000E+00  0.85095247563E+03  0.85095247563E+03  0.00000000000E+00 0. -1.
         21   -1    0    0  502  503 -0.00000000000E+00 -0.00000000000E+00 -0.89999256074E+02  0.89999256074E+02  0.00000000000E+00 0. -1.
         -6    2    1    2    0  503 -0.55603616364E+01 -0.59315975842E+02  0.26269319103E+02  0.18385401713E+03  0.17193870965E+03 0.  0.
        -24    2    3    3    0    0  0.55615243194E+02 -0.28557873505E+02 -0.16845007452E+02  0.10280186947E+03  0.79848999214E+02 0.  0.
          6    2    1    2  501    0  0.55603616364E+01  0.59315975842E+02  0.73468390045E+03  0.75709771458E+03  0.17287918678E+03 0.  0.
         24    2    5    5    0    0 -0.48613173110E+02  0.79435605189E+02  0.44145676378E+03  0.45819335691E+03  0.79898823868E+02 0.  0.
          5    1    5    5  501    0  0.54173534746E+02 -0.20119629347E+02  0.29322713667E+03  0.29890435766E+03  0.47000000000E+01 0. -1.
        -13    1    6    6    0    0 -0.23024091429E+02 -0.11632920490E+02  0.62624563588E+02  0.67729384980E+02  0.00000000000E+00 0.  1.
         14    1    6    6    0    0 -0.25589081680E+02  0.91068525679E+02  0.37883220020E+03  0.39046397193E+03  0.00000000000E+00 0. -1.
         -5    1    3    3    0  503 -0.61175604831E+02 -0.30758102337E+02  0.43114326555E+02  0.81052147659E+02  0.47000000000E+01 0.  1.
         11    1    4    4    0    0  0.51478645043E+02 -0.31351490185E+02  0.21604984660E+02  0.64029229220E+02  0.00000000000E+00 0. -1.
        -12    1    4    4    0    0  0.41365981509E+01  0.27936166799E+01 -0.38449992113E+02  0.38772640249E+02  0.00000000000E+00 0.  1.
<mgrwt>
<rscale>  2 0.18263391E+03</rscale>
<asrwt>0</asrwt>
<pdfrwt beam="1">  1       21 0.13091576E+00 0.18285654E+03</pdfrwt>
<pdfrwt beam="2">  1       21 0.13846040E-01 0.18285654E+03</pdfrwt>
<totfact> 0.19387198E+04</totfact>
</mgrwt>
</event>
<event>
12    1  0.1039378E-001  0.1983979E+03  0.7546771E-02  0.1151701E+00
         21   -1    0    0  501  502  0.00000000000E+00  0.00000000000E+00  0.62634015194E+03  0.62634015194E+03  0.00000000000E+00 0. -1.
         21   -1    0    0  502  503 -0.00000000000E+00 -0.00000000000E+00 -0.18029659337E+03  0.18029659337E+03  0.00000000000E+00 0. -1.
         -6    2    1    2    0  503 -0.74980934233E+02 -0.60844483146E+02 -0.10318097217E+03  0.22362481825E+03  0.17331345790E+03 0.  0.
        -24    2    3    3    0    0 -0.76102235103E+02 -0.77936754352E+02 -0.13266286641E+03  0.18920570817E+03  0.79584395524E+02 0.  0.
          6    2    1    2  501    0  0.74980934233E+02  0.60844483146E+02  0.54922453074E+03  0.58301192706E+03  0.17009153509E+03 0.  0.
         24    2    5    5    0    0  0.87025490334E+01  0.17062045389E+02  0.11273352600E+03  0.13932711392E+03  0.79601187405E+02 0.  0.
          5    1    5    5  501    0  0.66278385199E+02  0.43782437758E+02  0.43649100473E+03  0.44368481314E+03  0.47000000000E+01 0. -1.
        -11    1    6    6    0    0  0.42265100281E+02  0.98582196400E+01  0.40542588379E+02  0.59390442570E+02  0.00000000000E+00 0.  1.
         12    1    6    6    0    0 -0.33562551248E+02  0.72038257486E+01  0.72190937623E+02  0.79936671350E+02  0.00000000000E+00 0. -1.
         -5    1    3    3    0  503  0.11213008709E+01  0.17092271205E+02  0.29481894242E+02  0.34419110080E+02  0.47000000000E+01 0.  1.
         11    1    4    4    0    0 -0.55501420740E+01 -0.53865522927E+02 -0.84808812267E+02  0.10062223052E+03  0.00000000000E+00 0. -1.
        -12    1    4    4    0    0 -0.70552093029E+02 -0.24071231425E+02 -0.47854054146E+02  0.88583477643E+02  0.00000000000E+00 0.  1.
<mgrwt>
<rscale>  2 0.19769212E+03</rscale>
<asrwt>0</asrwt>
<pdfrwt beam="1">  1       21 0.96360022E-01 0.19839795E+03</pdfrwt>
<pdfrwt beam="2">  1       21 0.27737938E-01 0.19839795E+03</pdfrwt>
<totfact> 0.11072344E+04</totfact>
</mgrwt>
</event>
<event>
12    1  0.1039378E-001  0.1910195E+03  0.7546771E-02  0.1159289E+00
         21   -1    0    0  501  502  0.00000000000E+00  0.00000000000E+00  0.39042117727E+03  0.39042117727E+03  0.00000000000E+00 0.  1.
         21   -1    0    0  502  503 -0.00000000000E+00 -0.00000000000E+00 -0.90266910241E+02  0.90266910241E+02  0.00000000000E+00 0. -1.
         -6    2    1    2    0  503 -0.73947115082E+02  0.17127587198E+02  0.17097458207E+03  0.25636060744E+03  0.17529096742E+03 0.  0.
        -24    2    3    3    0    0 -0.11199348944E+03 -0.14729765206E+02  0.14289765679E+03  0.19915203083E+03  0.80512628868E+02 0.  0.
          6    2    1    2  501    0  0.73947115082E+02 -0.17127587198E+02  0.12917968496E+03  0.22432748007E+03  0.16695477603E+03 0.  0.
         24    2    5    5    0    0  0.10460800555E+03 -0.37284710691E+02  0.68160421759E+02  0.15297034789E+03  0.80131765012E+02 0.  0.
          5    1    5    5  501    0 -0.30660890466E+02  0.20157123493E+02  0.61019263198E+02  0.71357132180E+02  0.47000000000E+01 0. -1.
        -13    1    6    6    0    0  0.10497839544E+02  0.21261447143E+02  0.23775146939E+02  0.33578436260E+02  0.00000000000E+00 0.  1.
         14    1    6    6    0    0  0.94110166005E+02 -0.58546157834E+02  0.44385274820E+02  0.11939191163E+03  0.00000000000E+00 0. -1.
         -5    1    3    3    0  503  0.38046374360E+02  0.31857352405E+02  0.28076925281E+02  0.57208576607E+02  0.47000000000E+01 0.  1.
         11    1    4    4    0    0 -0.14798578456E+01 -0.26206748677E+02  0.17171428588E+02  0.31366249620E+02  0.00000000000E+00 0. -1.
        -12    1    4    4    0    0 -0.11051363160E+03  0.11476983471E+02  0.12572622820E+03  0.16778578121E+03  0.00000000000E+00 0.  1.
<mgrwt>
<rscale>  2 0.18908536E+03</rscale>
<asrwt>0</asrwt>
<pdfrwt beam="1">  1       21 0.60064796E-01 0.19101951E+03</pdfrwt>
<pdfrwt beam="2">  1       21 0.13887217E-01 0.19101951E+03</pdfrwt>
<totfact> 0.11671779E+05</totfact>
</mgrwt>
</event>
<event>
12    1  0.1039378E-001  0.2129292E+03  0.7546771E-02  0.1139820E+00
         21   -1    0    0  503  502  0.00000000000E+00  0.00000000000E+00  0.42251767577E+02  0.42251767577E+02  0.00000000000E+00 0. -1.
         21   -1    0    0  501  503 -0.00000000000E+00 -0.00000000000E+00 -0.10860300560E+04  0.10860300560E+04  0.00000000000E+00 0. -1.
          6    2    1    2  501    0 -0.10584126915E+03 -0.54377433163E+02 -0.61445478790E+03  0.65030262975E+03  0.17657730428E+03 0.  0.
         24    2    3    3    0    0 -0.14246741799E+03 -0.53172966358E+02 -0.48944425203E+03  0.51994677219E+03  0.87547932781E+02 0.  0.
         -6    2    1    2    0  502  0.10584126915E+03  0.54377433163E+02 -0.42932350051E+03  0.47797919381E+03  0.17316512969E+03 0.  0.
        -24    2    5    5    0    0  0.22218110076E+02  0.29353316389E+01 -0.32325122690E+03  0.33336750767E+03  0.78359931636E+02 0.  0.
          5    1    3    3  501    0  0.36626148834E+02 -0.12044668048E+01 -0.12501053588E+03  0.13035585756E+03  0.47000000000E+01 0. -1.
        -11    1    4    4    0    0 -0.11350409094E+03  0.23305770487E+00 -0.34684452282E+03  0.36494431902E+03  0.00000000000E+00 0.  1.
         12    1    4    4    0    0 -0.28963327049E+02 -0.53406024063E+02 -0.14259972921E+03  0.15500245318E+03  0.00000000000E+00 0. -1.
         -5    1    5    5    0  502  0.83623159076E+02  0.51442101524E+02 -0.10607227360E+03  0.14461168615E+03  0.47000000000E+01 0.  1.
         11    1    6    6    0    0 -0.14414911111E+02  0.29716725190E+02 -0.93092982826E+02  0.98778423099E+02  0.00000000000E+00 0. -1.
        -12    1    6    6    0    0  0.36633021187E+02 -0.26781393551E+02 -0.23015824408E+03  0.23458908457E+03  0.00000000000E+00 0.  1.
<mgrwt>
<rscale>  2 0.21222037E+03</rscale>
<asrwt>0</asrwt>
<pdfrwt beam="1">  1       21 0.65002732E-02 0.21292915E+03</pdfrwt>
<pdfrwt beam="2">  1       21 0.16708152E+00 0.21292915E+03</pdfrwt>
<totfact> 0.37979460E+04</totfact>
</mgrwt>
</event>
<event>
12    1  0.1039378E-001  0.2463781E+03  0.7546771E-02  0.1115626E+00
         21   -1    0    0  501  502  0.00000000000E+00  0.00000000000E+00  0.24770591155E+04  0.24770591155E+04  0.00000000000E+00 0.  1.
         21   -1    0    0  502  503 -0.00000000000E+00 -0.00000000000E+00 -0.39105917513E+02  0.39105917513E+02  0.00000000000E+00 0.  1.
         -6    2    1    2    0  503  0.16609543622E+03  0.56921387265E+02  0.45018587482E+03  0.51319537092E+03  0.17284220717E+03 0.  0.
        -24    2    3    3    0    0  0.13549961459E+03  0.10442413524E+03  0.35763056123E+03  0.40465417395E+03  0.81122355673E+02 0.  0.
          6    2    1    2  501    0 -0.16609543622E+03 -0.56921387265E+02  0.19877673232E+04  0.20029696621E+04  0.17274489275E+03 0.  0.
         24    2    5    5    0    0 -0.15252805461E+03 -0.47419901791E+01  0.17776989140E+04  0.17860420478E+04  0.80283707441E+02 0.  0.
          5    1    5    5  501    0 -0.13567381606E+02 -0.52179397086E+02  0.21006840913E+03  0.21692761428E+03  0.47000000000E+01 0. -1.
        -11    1    6    6    0    0 -0.48626550499E+01  0.11261265695E+02  0.43145234860E+03  0.43162667970E+03  0.00000000000E+00 0.  1.
         12    1    6    6    0    0 -0.14766539956E+03 -0.16003255874E+02  0.13462465654E+04  0.13544153681E+04  0.00000000000E+00 0. -1.
         -5    1    3    3    0  503  0.30595821632E+02 -0.47502747975E+02  0.92555313588E+02  0.10854119697E+03  0.47000000000E+01 0.  1.
         13    1    4    4    0    0  0.71223728291E+02  0.31896055429E+02  0.23930120647E+03  0.25170467862E+03  0.00000000000E+00 0. -1.
        -14    1    4    4    0    0  0.64275886297E+02  0.72528079811E+02  0.11832935476E+03  0.15294949532E+03  0.00000000000E+00 0.  1.
<mgrwt>
<rscale>  2 0.24636103E+03</rscale>
<asrwt>0</asrwt>
<pdfrwt beam="1">  1       21 0.38108590E+00 0.24637810E+03</pdfrwt>
<pdfrwt beam="2">  1       21 0.60162969E-02 0.24637810E+03</pdfrwt>
<totfact> 0.20886457E+03</totfact>
</mgrwt>
</event>
<event>
12    1  0.1039378E-001  0.2453728E+03  0.7546771E-02  0.1116468E+00
         21   -1    0    0  503  502  0.00000000000E+00  0.00000000000E+00  0.13631352478E+03  0.13631352478E+03  0.00000000000E+00 0.  1.
         21   -1    0    0  501  503 -0.00000000000E+00 -0.00000000000E+00 -0.49755055117E+03  0.49755055117E+03  0.00000000000E+00 0. -1.
          6    2    1    2  501    0  0.73922148618E+02  0.15740850537E+03 -0.71893220419E+02  0.25448611172E+03  0.17132607594E+03 0.  0.
         24    2    3    3    0    0 -0.24845610744E+02  0.83472999660E+02 -0.49236261540E+02  0.12895939313E+03  0.81371183971E+02 0.  0.
         -6    2    1    2    0  502 -0.73922148618E+02 -0.15740850537E+03 -0.28934380597E+03  0.37937796424E+03  0.17310655699E+03 0.  0.
        -24    2    5    5    0    0 -0.90701995687E+02 -0.40471830376E+02 -0.14810162437E+03  0.19518460634E+03  0.79360685089E+02 0.  0.
          5    1    3    3  501    0  0.98767759362E+02  0.73935505713E+02 -0.22656958879E+02  0.12552671859E+03  0.47000000000E+01 0. -1.
        -11    1    4    4    0    0  0.27867167463E+01 -0.90311751644E+01 -0.28754017184E+02  0.30267497738E+02  0.00000000000E+00 0.  1.
         12    1    4    4    0    0 -0.27632327491E+02  0.92504174825E+02 -0.20482244356E+02  0.98691895394E+02  0.00000000000E+00 0. -1.
         -5    1    5    5    0  502  0.16779847069E+02 -0.11693667500E+03 -0.14124218161E+03  0.18419335789E+03  0.47000000000E+01 0.  1.
         13    1    6    6    0    0 -0.55548508921E-01 -0.11942851690E+02  0.65860547546E+01  0.13638581648E+02  0.00000000000E+00 0. -1.
        -14    1    6    6    0    0 -0.90646447179E+02 -0.28528978685E+02 -0.15468767912E+03  0.18154602469E+03  0.00000000000E+00 0.  1.
<mgrwt>
<rscale>  2 0.24505897E+03</rscale>
<asrwt>0</asrwt>
<pdfrwt beam="1">  1       21 0.20971312E-01 0.24537278E+03</pdfrwt>
<pdfrwt beam="2">  1       21 0.76546238E-01 0.24537278E+03</pdfrwt>
<totfact> 0.31235253E+04</totfact>
</mgrwt>
</event>
<event>
11    1  0.1039378E-001  0.1800206E+03  0.7546771E-02  0.1168026E+00
         21   -1    0    0  503  502  0.00000000000E+00  0.00000000000E+00  0.19948350714E+04  0.19948350714E+04  0.00000000000E+00 0.  1.
         21   -1    0    0  501  503 -0.00000000000E+00 -0.00000000000E+00 -0.17717300412E+02  0.17717300412E+02  0.00000000000E+00 0.  1.
          6    2    1    2  501    0 -0.15366369804E+02  0.45856263683E+02  0.69230843013E+03  0.71533096982E+03  0.17340274422E+03 0.  0.
         24    2    3    3    0    0 -0.25577898434E+02  0.93250063036E+02  0.56299231191E+03  0.57714560169E+03  0.82382638500E+02 0.  0.
         -6    2    1    2    0  502  0.15366369804E+02 -0.45856263683E+02  0.12848093409E+04  0.12972214020E+04  0.17236415291E+03 0.  0.
          5    1    3    3  501    0  0.10211528630E+02 -0.47393799353E+02  0.12931611822E+03  0.13818536813E+03  0.47000000000E+01 0. -1.
        -13    1    4    4    0    0  0.16891119615E+02  0.17382338301E+02  0.38488653243E+02  0.45484415300E+02  0.00000000000E+00 0.  1.
         14    1    4    4    0    0 -0.42469018048E+02  0.75867724735E+02  0.52450365867E+03  0.53166118639E+03  0.00000000000E+00 0. -1.
         -5    1    5    5    0  502 -0.24062791265E+02 -0.26227605074E+02  0.17218236230E+03  0.17588564774E+03  0.47000000000E+01 0.  1.
         11    1    5    5    0    0  0.31185327071E+02  0.11115601200E+02  0.10548627656E+04  0.10553821751E+04  0.00000000000E+00 0. -1.
        -12    1    5    5    0    0  0.82438339977E+01 -0.30744259810E+02  0.57764213002E+02  0.65953579235E+02  0.00000000000E+00 0.  1.
<mgrwt>
<rscale>  2 0.17977008E+03</rscale>
<asrwt>0</asrwt>
<pdfrwt beam="1">  1       21 0.30689753E+00 0.18002065E+03</pdfrwt>
<pdfrwt beam="2">  1       21 0.27257401E-02 0.18002065E+03</pdfrwt>
<totfact> 0.23395044E+04</totfact>
</mgrwt>
</event>
<event>
12    1  0.1039378E-001  0.2532780E+03  0.7546771E-02  0.1111416E+00
         21   -1    0    0  503  502  0.00000000000E+00  0.00000000000E+00  0.20325298770E+03  0.20325298770E+03  0.00000000000E+00 0.  1.
         21   -1    0    0  501  503 -0.00000000000E+00 -0.00000000000E+00 -0.31630081725E+03  0.31630081725E+03  0.00000000000E+00 0. -1.
          6    2    1    2  501    0 -0.29629586209E+02 -0.18151808662E+03 -0.35939842997E+02  0.25581519894E+03  0.17413504974E+03 0.  0.
         24    2    3    3    0    0  0.23911124043E+02 -0.17438846589E+03 -0.63677917691E+01  0.19405732204E+03  0.81453155716E+02 0.  0.
         -6    2    1    2    0  502  0.29629586209E+02  0.18151808662E+03 -0.77107986553E+02  0.26373860601E+03  0.17258529068E+03 0.  0.
        -24    2    5    5    0    0  0.43570947107E+02  0.16405386762E+03 -0.11618273489E+03  0.21848060731E+03  0.73642711584E+02 0.  0.
          5    1    3    3  501    0 -0.53540710252E+02 -0.71296207261E+01 -0.29572051228E+02  0.61757876905E+02  0.47000000000E+01 0. -1.
        -11    1    4    4    0    0 -0.64693029303E+01 -0.28556019090E+02  0.28723781864E+02  0.41016505839E+02  0.00000000000E+00 0.  1.
         12    1    4    4    0    0  0.30380426973E+02 -0.14583244680E+03 -0.35091573633E+02  0.15304081620E+03  0.00000000000E+00 0. -1.
         -5    1    5    5    0  502 -0.13941360897E+02  0.17464218998E+02  0.39074748337E+02  0.45257998701E+02  0.47000000000E+01 0.  1.
         11    1    6    6    0    0  0.51896868406E+01  0.62044188354E+01 -0.36790853872E+02  0.37669544611E+02  0.00000000000E+00 0. -1.
        -12    1    6    6    0    0  0.38381260266E+02  0.15784944878E+03 -0.79391881018E+02  0.18081106269E+03  0.00000000000E+00 0.  1.
<mgrwt>
<rscale>  2 0.25301183E+03</rscale>
<asrwt>0</asrwt>
<pdfrwt beam="1">  1       21 0.31269690E-01 0.25327800E+03</pdfrwt>
<pdfrwt beam="2">  1       21 0.48661664E-01 0.25327800E+03</pdfrwt>
<totfact> 0.38508562E+04</totfact>
</mgrwt>
</event>
<event>
12    1  0.1039378E-001  0.2049311E+03  0.7546771E-02  0.1145747E+00
         21   -1    0    0  501  502  0.00000000000E+00  0.00000000000E+00  0.68968559701E+02  0.68968559701E+02  0.00000000000E+00 0. -1.
         21   -1    0    0  502  503 -0.00000000000E+00 -0.00000000000E+00 -0.13451178637E+04  0.13451178637E+04  0.00000000000E+00 0. -1.
         -6    2    1    2    0  503 -0.10865176935E+03  0.71564391911E+01 -0.11613227454E+04  0.11791781763E+04  0.17301511755E+03 0.  0.
        -24    2    3    3    0    0 -0.66881155715E+02 -0.23790716859E+02 -0.10589811370E+04  0.10642938631E+04  0.79001842604E+02 0.  0.
          6    2    1    2  501    0  0.10865176935E+03 -0.71564391911E+01 -0.11482655853E+03  0.23490824702E+03  0.17360968974E+03 0.  0.
         24    2    5    5    0    0  0.88805065723E+02 -0.17482783947E+01 -0.23544317799E+01  0.12047394647E+03  0.81357435141E+02 0.  0.
          5    1    5    5  501    0  0.19846703625E+02 -0.54081607964E+01 -0.11247212675E+03  0.11443430055E+03  0.47000000000E+01 0. -1.
        -11    1    6    6    0    0  0.27345025160E+02  0.37910803651E+02 -0.65924490983E+01  0.47206353593E+02  0.00000000000E+00 0.  1.
         12    1    6    6    0    0  0.61460040564E+02 -0.39659082045E+02  0.42380173183E+01  0.73267592874E+02  0.00000000000E+00 0. -1.
         -5    1    3    3    0  503 -0.41770613634E+02  0.30947156050E+02 -0.10234160839E+03  0.11488431329E+03  0.47000000000E+01 0.  1.
         11    1    4    4    0    0 -0.21428850307E+02 -0.44649651017E+02 -0.34157312236E+03  0.34514487521E+03  0.00000000000E+00 0. -1.
        -12    1    4    4    0    0 -0.45452305408E+02  0.20858934158E+02 -0.71740801467E+03  0.71914898785E+03  0.00000000000E+00 0.  1.
<mgrwt>
<rscale>  2 0.20480510E+03</rscale>
<asrwt>0</asrwt>
<pdfrwt beam="1">  1       21 0.10610548E-01 0.20493108E+03</pdfrwt>
<pdfrwt beam="2">  1       21 0.20694120E+00 0.20493108E+03</pdfrwt>
<totfact> 0.87686358E+03</totfact>
</mgrwt>
</event>
<event>
12    1  0.1039378E-001  0.1900455E+03  0.7546771E-02  0.1158645E+00
         21   -1    0    0  503  502  0.00000000000E+00  0.00000000000E+00  0.38707352182E+03  0.38707352182E+03  0.00000000000E+00 0. -1.
         21   -1    0    0  501  503 -0.00000000000E+00 -0.00000000000E+00 -0.93117966760E+02  0.93117966760E+02  0.00000000000E+00 0. -1.
          6    2    1    2  501    0 -0.33597398486E+02  0.69278556107E+02  0.13305999659E+03  0.23118414892E+03  0.17266396409E+03 0.  0.
         24    2    3    3    0    0  0.26525891593E+02  0.86669474841E+02  0.62933868675E+02  0.13707241808E+03  0.81320078569E+02 0.  0.
         -6    2    1    2    0  502  0.33597398486E+02 -0.69278556107E+02  0.16089555847E+03  0.24900733966E+03  0.17374973655E+03 0.  0.
        -24    2    5    5    0    0  0.72828674592E+02 -0.73231807478E+02  0.65624835678E+02  0.14579240934E+03  0.79258400771E+02 0.  0.
          5    1    3    3  501    0 -0.60123290079E+02 -0.17390918735E+02  0.70126127915E+02  0.94111730835E+02  0.47000000000E+01 0. -1.
        -11    1    4    4    0    0 -0.23427678755E+02  0.25164165158E+01  0.82315525827E+01  0.24958905061E+02  0.00000000000E+00 0.  1.
         12    1    4    4    0    0  0.49953570348E+02  0.84153058326E+02  0.54702316093E+02  0.11211351302E+03  0.00000000000E+00 0. -1.
         -5    1    5    5    0  502 -0.39231276106E+02  0.39532513716E+01  0.95270722792E+02  0.10321493033E+03  0.47000000000E+01 0.  1.
         13    1    6    6    0    0 -0.13573152969E+02 -0.17681834378E+02 -0.26583466400E+01  0.22448709436E+02  0.00000000000E+00 0. -1.
        -14    1    6    6    0    0  0.86401827561E+02 -0.55549973101E+02  0.68283182318E+02  0.12334369990E+03  0.00000000000E+00 0.  1.
<mgrwt>
<rscale>  2 0.18979693E+03</rscale>
<asrwt>0</asrwt>
<pdfrwt beam="1">  1       21 0.59549772E-01 0.19004545E+03</pdfrwt>
<pdfrwt beam="2">  1       21 0.14325841E-01 0.19004545E+03</pdfrwt>
<totfact> 0.11242041E+05</totfact>
</mgrwt>
</event>
<event>
12    1  0.1039378E-001  0.1765889E+03  0.7546771E-02  0.1171859E+00
         21   -1    0    0  503  502  0.00000000000E+00  0.00000000000E+00  0.12207032605E+03  0.12207032605E+03  0.00000000000E+00 0. -1.
         21   -1    0    0  501  503 -0.00000000000E+00 -0.00000000000E+00 -0.28691313807E+03  0.28691313807E+03  0.00000000000E+00 0. -1.
          6    2    1    2  501    0 -0.49196636819E+02  0.36993208604E+01 -0.15382803713E+03  0.23205140965E+03  0.16658570666E+03 0.  0.
         24    2    3    3    0    0 -0.88331431746E+02 -0.12941622206E+02 -0.73853932536E+02  0.14135190267E+03  0.80969312823E+02 0.  0.
         -6    2    1    2    0  502  0.49196636819E+02 -0.36993208604E+01 -0.11014774891E+02  0.17693205447E+03  0.16955716613E+03 0.  0.
        -24    2    5    5    0    0 -0.23212199368E+02 -0.36282499353E+02 -0.29670081275E+02  0.95232522438E+02  0.79584506333E+02 0.  0.
          5    1    3    3  501    0  0.39134794927E+02  0.16640943066E+02 -0.79974104593E+02  0.90699506975E+02  0.47000000000E+01 0. -1.
        -11    1    4    4    0    0 -0.23630191823E+02  0.22973799138E+02  0.48610970734E+01  0.33313836122E+02  0.00000000000E+00 0.  1.
         12    1    4    4    0    0 -0.64701239923E+02 -0.35915421344E+02 -0.78715029610E+02  0.10803806655E+03  0.00000000000E+00 0. -1.
         -5    1    5    5    0  502  0.72408836187E+02  0.32583178492E+02  0.18655306384E+02  0.81699532036E+02  0.47000000000E+01 0.  1.
         11    1    6    6    0    0  0.28859391315E+02 -0.41785637148E+01 -0.12239460422E+02  0.31624820208E+02  0.00000000000E+00 0. -1.
        -12    1    6    6    0    0 -0.52071590683E+02 -0.32103935638E+02 -0.17430620853E+02  0.63607702230E+02  0.00000000000E+00 0.  1.
<mgrwt>
<rscale>  2 0.17587172E+03</rscale>
<asrwt>0</asrwt>
<pdfrwt beam="1">  1       21 0.18780051E-01 0.17658886E+03</pdfrwt>
<pdfrwt beam="2">  1       21 0.44140482E-01 0.17658886E+03</pdfrwt>
<totfact> 0.12866046E+05</totfact>
</mgrwt>
</event>
<event>
12    1  0.1039378E-001  0.2130291E+03  0.7546771E-02  0.1140254E+00
         21   -1    0    0  503  502  0.00000000000E+00  0.00000000000E+00  0.13502506077E+03  0.13502506077E+03  0.00000000000E+00 0.  1.
         21   -1    0    0  501  503 -0.00000000000E+00 -0.00000000000E+00 -0.58269000333E+03  0.58269000333E+03  0.00000000000E+00 0.  1.
          6    2    1    2  501    0 -0.36201574039E+02  0.10768407784E+03  0.15199449511E+02  0.20818111264E+03  0.17378704730E+03 0.  0.
         24    2    3    3    0    0 -0.86755866406E+02  0.10265465255E+03  0.20079173864E+02  0.15692749515E+03  0.78476158577E+02 0.  0.
         -6    2    1    2    0  502  0.36201574039E+02 -0.10768407784E+03 -0.46286439207E+03  0.50953395146E+03  0.18020817866E+03 0.  0.
        -24    2    5    5    0    0  0.95412599128E+02 -0.67999568407E+02 -0.30829934902E+03  0.33925991258E+03  0.79506567671E+02 0.  0.
          5    1    3    3  501    0  0.50554292366E+02  0.50294252835E+01 -0.48797243529E+01  0.51253617483E+02  0.47000000000E+01 0. -1.
        -13    1    4    4    0    0 -0.31711883745E+02  0.30274939380E+02  0.44811385421E+02  0.62691911667E+02  0.00000000000E+00 0.  1.
         14    1    4    4    0    0 -0.55043982661E+02  0.72379713174E+02 -0.24732211557E+02  0.94235583486E+02  0.00000000000E+00 0. -1.
         -5    1    5    5    0  502 -0.59211025089E+02 -0.39684509431E+02 -0.15456504305E+03  0.17027403888E+03  0.47000000000E+01 0.  1.
         11    1    6    6    0    0  0.27342816219E+02 -0.22431293320E+00 -0.16168503566E+03  0.16398088508E+03  0.00000000000E+00 0. -1.
        -12    1    6    6    0    0  0.68069782909E+02 -0.67775255474E+02 -0.14661431335E+03  0.17527902750E+03  0.00000000000E+00 0.  1.
<mgrwt>
<rscale>  2 0.21166517E+03</rscale>
<asrwt>0</asrwt>
<pdfrwt beam="1">  1       21 0.20773087E-01 0.21302911E+03</pdfrwt>
<pdfrwt beam="2">  1       21 0.89644614E-01 0.21302911E+03</pdfrwt>
<totfact> 0.22524557E+04</totfact>
</mgrwt>
</event>
<event>
12    1  0.1039378E-001  0.1953955E+03  0.7546771E-02  0.1153890E+00
         21   -1    0    0  503  502  0.00000000000E+00  0.00000000000E+00  0.39523601612E+02  0.39523601612E+02  0.00000000000E+00 0. -1.
         21   -1    0    0  501  503 -0.00000000000E+00 -0.00000000000E+00 -0.11317133681E+04  0.11317133681E+04  0.00000000000E+00 0. -1.
          6    2    1    2  501    0  0.91544860356E+02  0.65972488159E+01 -0.31772168009E+03  0.37250032821E+03  0.17142182874E+03 0.  0.
         24    2    3    3    0    0  0.12088119346E+03 -0.26414152573E+02 -0.27113823868E+03  0.30813822698E+03  0.78251211258E+02 0.  0.
         -6    2    1    2    0  502 -0.91544860356E+02 -0.65972488159E+01 -0.77446808641E+03  0.79873664151E+03  0.17249759557E+03 0.  0.
        -24    2    5    5    0    0 -0.81827198990E+02 -0.42248438235E+02 -0.31243376118E+03  0.33520320373E+03  0.79156248267E+02 0.  0.
          5    1    3    3  501    0 -0.29336333101E+02  0.33011401389E+02 -0.46583441409E+02  0.64362101232E+02  0.47000000000E+01 0. -1.
        -11    1    4    4    0    0  0.94220860532E+02 -0.15610374706E+02 -0.26052113782E+03  0.27747525585E+03  0.00000000000E+00 0.  1.
         12    1    4    4    0    0  0.26660332925E+02 -0.10803777867E+02 -0.10617100862E+02  0.30662971131E+02  0.00000000000E+00 0. -1.
         -5    1    5    5    0  502 -0.97176613655E+01  0.35651189419E+02 -0.46203432523E+03  0.46353343778E+03  0.47000000000E+01 0.  1.
         11    1    6    6    0    0 -0.39793515973E+02 -0.64759393182E+01 -0.24388537582E+03  0.24719534430E+03  0.00000000000E+00 0. -1.
        -12    1    6    6    0    0 -0.42033683018E+02 -0.35772498917E+02 -0.68548385356E+02  0.88007859431E+02  0.00000000000E+00 0.  1.
<mgrwt>
<rscale>  2 0.19515782E+03</rscale>
<asrwt>0</asrwt>
<pdfrwt beam="1">  1       21 0.60805545E-02 0.19539551E+03</pdfrwt>
<pdfrwt beam="2">  1       21 0.17410974E+00 0.19539551E+03</pdfrwt>
<totfact> 0.38429320E+04</totfact>
</mgrwt>
</event>
<event>
12    1  0.1039378E-001  0.1797308E+03  0.7546771E-02  0.1168675E+00
         21   -1    0    0  501  502  0.00000000000E+00  0.00000000000E+00  0.19358945265E+03  0.19358945265E+03  0.00000000000E+00 0. -1.
         21   -1    0    0  502  503 -0.00000000000E+00 -0.00000000000E+00 -0.20961150020E+03  0.20961150020E+03  0.00000000000E+00 0. -1.
         -6    2    1    2    0  503  0.19870668709E+02 -0.42233024815E+02 -0.10143731123E+03  0.20420616312E+03  0.17097414158E+03 0.  0.
        -24    2    3    3    0    0 -0.47219476220E+02 -0.40181410614E+02 -0.90912449816E+02  0.13610212965E+03  0.80090520480E+02 0.  0.
          6    2    1    2  501    0 -0.19870668709E+02  0.42233024815E+02  0.85415263674E+02  0.19899478973E+03  0.17356464851E+03 0.  0.
         24    2    5    5    0    0 -0.74688209206E+02  0.26851388014E+02  0.26367721065E+02  0.11683482512E+03  0.81583049792E+02 0.  0.
          5    1    5    5  501    0  0.54817540498E+02  0.15381636801E+02  0.59047542609E+02  0.82159964612E+02  0.47000000000E+01 0. -1.
        -13    1    6    6    0    0 -0.41741615070E+02 -0.81647881840E+01 -0.22638239197E+02  0.48182113577E+02  0.00000000000E+00 0.  1.
         14    1    6    6    0    0 -0.32946594136E+02  0.35016176198E+02  0.49005960262E+02  0.68652711541E+02  0.00000000000E+00 0. -1.
         -5    1    3    3    0  503  0.67090144929E+02 -0.20516142014E+01 -0.10524861413E+02  0.68104033472E+02  0.47000000000E+01 0.  1.
         13    1    4    4    0    0 -0.60211431140E+02 -0.18790140156E+02 -0.91421713102E+02  0.11106941718E+03  0.00000000000E+00 0. -1.
        -14    1    4    4    0    0  0.12991954920E+02 -0.21391270458E+02  0.50926328520E+00  0.25032712469E+02  0.00000000000E+00 0.  1.
<mgrwt>
<rscale>  2 0.17910242E+03</rscale>
<asrwt>0</asrwt>
<pdfrwt beam="1">  1       21 0.29782993E-01 0.17973080E+03</pdfrwt>
<pdfrwt beam="2">  1       21 0.32247923E-01 0.17973080E+03</pdfrwt>
<totfact> 0.10046960E+05</totfact>
</mgrwt>
</event>
<event>
12    1  0.1039378E-001  0.2380210E+03  0.7546771E-02  0.1121160E+00
         21   -1    0    0  503  502  0.00000000000E+00  0.00000000000E+00  0.35684507874E+03  0.35684507874E+03  0.00000000000E+00 0. -1.
         21   -1    0    0  501  503 -0.00000000000E+00 -0.00000000000E+00 -0.21250732492E+03  0.21250732492E+03  0.00000000000E+00 0.  1.
          6    2    1    2  501    0  0.16284453595E+03 -0.76886398848E+01 -0.71185322840E+02  0.24843784196E+03  0.17342592960E+03 0.  0.
         24    2    3    3    0    0  0.11328768174E+03 -0.56462884564E+02 -0.14620185397E+01  0.14985671849E+03  0.80204378992E+02 0.  0.
         -6    2    1    2    0  502 -0.16284453595E+03  0.76886398848E+01  0.21552307666E+03  0.32091456170E+03  0.17308524278E+03 0.  0.
        -24    2    5    5    0    0 -0.16634558382E+03 -0.39577292492E+02  0.15988644564E+03  0.24767624925E+03  0.80886547733E+02 0.  0.
          5    1    3    3  501    0  0.49556854205E+02  0.48774244679E+02 -0.69723304300E+02  0.98581123473E+02  0.47000000000E+01 0. -1.
        -13    1    4    4    0    0  0.11517410951E+03 -0.24399236863E+02 -0.10253446440E+01  0.11773465757E+03  0.00000000000E+00 0.  1.
         14    1    4    4    0    0 -0.18864277680E+01 -0.32063647701E+02 -0.43667389573E+00  0.32122060919E+02  0.00000000000E+00 0. -1.
         -5    1    5    5    0  502  0.35010478730E+01  0.47265932377E+02  0.55636631023E+02  0.73238312455E+02  0.47000000000E+01 0.  1.
         13    1    6    6    0    0 -0.92324198729E+02 -0.39380650538E+02  0.42717733907E+02  0.10908436230E+03  0.00000000000E+00 0. -1.
        -14    1    6    6    0    0 -0.74021385089E+02 -0.19664195417E+00  0.11716871173E+03  0.13859188695E+03  0.00000000000E+00 0.  1.
<mgrwt>
<rscale>  2 0.23795898E+03</rscale>
<asrwt>0</asrwt>
<pdfrwt beam="1">  1       21 0.54899243E-01 0.23802103E+03</pdfrwt>
<pdfrwt beam="2">  1       21 0.32693435E-01 0.23802103E+03</pdfrwt>
<totfact> 0.27533502E+04</totfact>
</mgrwt>
</event>
<event>
12    1  0.1039378E-001  0.1882896E+03  0.7546771E-02  0.1160333E+00
         21   -1    0    0  503  502  0.00000000000E+00  0.00000000000E+00  0.14201555906E+03  0.14201555906E+03  0.00000000000E+00 0. -1.
         21   -1    0    0  501  503 -0.00000000000E+00 -0.00000000000E+00 -0.45990289091E+03  0.45990289091E+03  0.00000000000E+00 0. -1.
          6    2    1    2  501    0 -0.33693246541E+02 -0.66508058229E+02 -0.36365003548E+03  0.40950498018E+03  0.17290003995E+03 0.  0.
         24    2    3    3    0    0  0.14571415215E+02 -0.96455049932E+02 -0.27326286869E+03  0.30264886287E+03  0.86068786392E+02 0.  0.
         -6    2    1    2    0  502  0.33693246541E+02  0.66508058229E+02  0.45762703624E+02  0.19241346979E+03  0.17137724949E+03 0.  0.
        -24    2    5    5    0    0  0.79304288090E+02  0.73576358705E+02  0.53790853092E+02  0.14532982967E+03  0.80775323253E+02 0.  0.
          5    1    3    3  501    0 -0.48264661756E+02  0.29946991702E+02 -0.90387166788E+02  0.10685611731E+03  0.47000000000E+01 0. -1.
        -13    1    4    4    0    0  0.28881518356E+02 -0.44070784974E+02 -0.49168717344E+02  0.72068987477E+02  0.00000000000E+00 0.  1.
         14    1    4    4    0    0 -0.14310103140E+02 -0.52384264958E+02 -0.22409415135E+03  0.23057987539E+03  0.00000000000E+00 0. -1.
         -5    1    5    5    0  502 -0.45611041549E+02 -0.70683004753E+01 -0.80281494676E+01  0.47083640117E+02  0.47000000000E+01 0.  1.
         13    1    6    6    0    0  0.69702751569E+02  0.10641503713E+02  0.20191883012E+02  0.73344579330E+02  0.00000000000E+00 0. -1.
        -14    1    6    6    0    0  0.96015365212E+01  0.62934854992E+02  0.33598970080E+02  0.71985250343E+02  0.00000000000E+00 0.  1.
<mgrwt>
<rscale>  2 0.18793930E+03</rscale>
<asrwt>0</asrwt>
<pdfrwt beam="1">  1       21 0.21848548E-01 0.18828962E+03</pdfrwt>
<pdfrwt beam="2">  1       21 0.70754290E-01 0.18828962E+03</pdfrwt>
<totfact> 0.35469299E+04</totfact>
</mgrwt>
</event>
<event>
12    1  0.1039378E-001  0.2618000E+03  0.7546771E-02  0.1106237E+00
         21   -1    0    0  501  502  0.00000000000E+00  0.00000000000E+00  0.98092676389E+02  0.98092676389E+02  0.00000000000E+00 0. -1.
         21   -1    0    0  502  503 -0.00000000000E+00 -0.00000000000E+00 -0.69568121965E+03  0.69568121965E+03  0.00000000000E+00 0.  1.
         -6    2    1    2    0  503  0.13811238361E+03  0.13839973958E+03 -0.29891652595E+03  0.39660364913E+03  0.17237704778E+03 0.  0.
        -24    2    3    3    0    0  0.15715867087E+02  0.65334966426E+02 -0.19039589453E+03  0.21738817610E+03  0.80569076814E+02 0.  0.
          6    2    1    2  501    0 -0.13811238361E+03 -0.13839973958E+03 -0.29867201731E+03  0.39717024690E+03  0.17409684856E+03 0.  0.
         24    2    5    5    0    0 -0.19019519654E+02 -0.29225262769E+01 -0.76500809366E+02  0.11095473158E+03  0.78027529371E+02 0.  0.
          5    1    5    5  501    0 -0.11909286395E+03 -0.13547721330E+03 -0.22217120795E+03  0.28621551532E+03  0.47000000000E+01 0. -1.
        -13    1    6    6    0    0  0.29740279934E+02  0.12269250132E+01 -0.18409400915E+02  0.34998509077E+02  0.00000000000E+00 0.  1.
         14    1    6    6    0    0 -0.48759799589E+02 -0.41494512901E+01 -0.58091408450E+02  0.75956222508E+02  0.00000000000E+00 0. -1.
         -5    1    3    3    0  503  0.12239651652E+03  0.73064773152E+02 -0.10852063142E+03  0.17921547303E+03  0.47000000000E+01 0.  1.
         13    1    4    4    0    0  0.50524087374E+01  0.65660322941E+02 -0.68481916757E+02  0.95008303666E+02  0.00000000000E+00 0. -1.
        -14    1    4    4    0    0  0.10663458350E+02 -0.32535651564E+00 -0.12191397777E+03  0.12237987243E+03  0.00000000000E+00 0.  1.
<mgrwt>
<rscale>  2 0.26151439E+03</rscale>
<asrwt>0</asrwt>
<pdfrwt beam="1">  1       21 0.15091181E-01 0.26179998E+03</pdfrwt>
<pdfrwt beam="2">  1       21 0.10702788E+00 0.26179998E+03</pdfrwt>
<totfact> 0.26101559E+04</totfact>
</mgrwt>
</event>
<event>
12    1  0.1039378E-001  0.1824739E+03  0.7546771E-02  0.1165490E+00
         21   -1    0    0  501  502  0.00000000000E+00  0.00000000000E+00  0.67563002418E+03  0.67563002418E+03  0.00000000000E+00 0. -1.
         21   -1    0    0  502  503 -0.00000000000E+00 -0.00000000000E+00 -0.49254398461E+02  0.49254398461E+02  0.00000000000E+00 0. -1.
         -6    2    1    2    0  503  0.28650291285E+02  0.47764963515E+02  0.30303180221E+03  0.35373009594E+03  0.17376529196E+03 0.  0.
        -24    2    3    3    0    0  0.35206332541E+02 -0.37491348428E+02  0.14381253985E+03  0.17294158991E+03  0.81127429678E+02 0.  0.
          6    2    1    2  501    0 -0.28650291285E+02 -0.47764963515E+02  0.32334382351E+03  0.37115432670E+03  0.17349920778E+03 0.  0.
         24    2    5    5    0    0 -0.26233221920E+01  0.20803981457E+02  0.50138794535E+02  0.88237057540E+02  0.69513970841E+02 0.  0.
          5    1    5    5  501    0 -0.26026969093E+02 -0.68568944972E+02  0.27320502897E+03  0.28291726916E+03  0.47000000000E+01 0. -1.
        -13    1    6    6    0    0  0.21303126182E+02  0.28327044555E+02  0.52172894090E+02  0.63073413703E+02  0.00000000000E+00 0.  1.
         14    1    6    6    0    0 -0.23926448374E+02 -0.75230630982E+01 -0.20340995553E+01  0.25163643837E+02  0.00000000000E+00 0. -1.
         -5    1    3    3    0  503 -0.65560412561E+01  0.85256311942E+02  0.15921926237E+03  0.18078850603E+03  0.47000000000E+01 0.  1.
         11    1    4    4    0    0  0.52528676506E+02 -0.27213920569E+02  0.51431872466E+02  0.78390668026E+02  0.00000000000E+00 0. -1.
        -12    1    4    4    0    0 -0.17322343965E+02 -0.10277427859E+02  0.92380667379E+02  0.94550921884E+02  0.00000000000E+00 0.  1.
<mgrwt>
<rscale>  2 0.18241048E+03</rscale>
<asrwt>0</asrwt>
<pdfrwt beam="1">  1       21 0.10394307E+00 0.18247385E+03</pdfrwt>
<pdfrwt beam="2">  1       21 0.75776003E-02 0.18247385E+03</pdfrwt>
<totfact> 0.99127339E+04</totfact>
</mgrwt>
</event>
<event>
12    1  0.1039378E-001  0.1742847E+03  0.7546771E-02  0.1173467E+00
         21   -1    0    0  501  502  0.00000000000E+00  0.00000000000E+00  0.62723431358E+03  0.62723431358E+03  0.00000000000E+00 0.  1.
         21   -1    0    0  502  503 -0.00000000000E+00 -0.00000000000E+00 -0.48697488768E+02  0.48697488768E+02  0.00000000000E+00 0.  1.
         -6    2    1    2    0  503  0.71050341596E+01 -0.23432538748E+02  0.31514757343E+03  0.36010104550E+03  0.17249696967E+03 0.  0.
        -24    2    3    3    0    0  0.44722341424E+02 -0.30742597323E+01  0.81065874767E+02  0.12209715271E+03  0.79539296915E+02 0.  0.
          6    2    1    2  501    0 -0.71050341596E+01  0.23432538748E+02  0.26338925138E+03  0.31583075686E+03  0.17255608899E+03 0.  0.
         24    2    5    5    0    0 -0.22350231316E+02  0.39849786686E+02  0.27513694235E+03  0.29010061288E+03  0.79815350713E+02 0.  0.
          5    1    5    5  501    0  0.15245197156E+02 -0.16417247938E+02 -0.11747690962E+02  0.25730143978E+02  0.47000000000E+01 0. -1.
        -13    1    6    6    0    0  0.11039330513E+02 -0.37410404329E+01  0.24119334760E+01  0.11902925052E+02  0.00000000000E+00 0.  1.
         14    1    6    6    0    0 -0.33389561829E+02  0.43590827119E+02  0.27272500887E+03  0.27819768783E+03  0.00000000000E+00 0. -1.
         -5    1    3    3    0  503 -0.37617307264E+02 -0.20358279016E+02  0.23408169866E+03  0.23800389278E+03  0.47000000000E+01 0.  1.
         13    1    4    4    0    0  0.32240087074E+02  0.37032531877E+02  0.47676310248E+02  0.68438747728E+02  0.00000000000E+00 0. -1.
        -14    1    4    4    0    0  0.12482254350E+02 -0.40106791609E+02  0.33389564519E+02  0.53658404986E+02  0.00000000000E+00 0.  1.
<mgrwt>
<rscale>  2 0.17427010E+03</rscale>
<asrwt>0</asrwt>
<pdfrwt beam="1">  1       21 0.96497581E-01 0.17428474E+03</pdfrwt>
<pdfrwt beam="2">  1       21 0.74919218E-02 0.17428474E+03</pdfrwt>
<totfact> 0.12095897E+05</totfact>
</mgrwt>
</event>
<event>
12    1  0.1039378E-001  0.2720339E+03  0.7546771E-02  0.1100333E+00
         21   -1    0    0  501  502  0.00000000000E+00  0.00000000000E+00  0.79856673576E+03  0.79856673576E+03  0.00000000000E+00 0. -1.
         21   -1    0    0  502  503 -0.00000000000E+00 -0.00000000000E+00 -0.54036526463E+03  0.54036526463E+03  0.00000000000E+00 0. -1.
         -6    2    1    2    0  503 -0.10345004497E+03 -0.18041267734E+03 -0.48054709565E+03  0.55220280212E+03  0.17536184755E+03 0.  0.
        -24    2    3    3    0    0 -0.10251950315E+03 -0.15473934353E+03 -0.25773615587E+03  0.32786646787E+03  0.81326390237E+02 0.  0.
          6    2    1    2  501    0  0.10345004497E+03  0.18041267734E+03  0.73874856678E+03  0.78672919828E+03  0.17303970802E+03 0.  0.
         24    2    5    5    0    0 -0.14896506267E+02  0.66249384233E+02  0.31164492572E+03  0.32904068642E+03  0.80835182805E+02 0.  0.
          5    1    5    5  501    0  0.11834655124E+03  0.11416329311E+03  0.42710364105E+03  0.45768851186E+03  0.47000000000E+01 0. -1.
        -11    1    6    6    0    0  0.11763345667E+02 -0.12859269541E+02  0.10035639872E+03  0.10185845020E+03  0.00000000000E+00 0.  1.
         12    1    6    6    0    0 -0.26659851933E+02  0.79108653774E+02  0.21128852700E+03  0.22718223621E+03  0.00000000000E+00 0. -1.
         -5    1    3    3    0  503 -0.93054182968E+00 -0.25673333811E+02 -0.22281093978E+03  0.22433633425E+03  0.47000000000E+01 0.  1.
         11    1    4    4    0    0  0.21562067248E+01 -0.54098826608E+02 -0.45568056220E+02  0.70765669753E+02  0.00000000000E+00 0. -1.
        -12    1    4    4    0    0 -0.10467570987E+03 -0.10064051692E+03 -0.21216809965E+03  0.25710079812E+03  0.00000000000E+00 0.  1.
<mgrwt>
<rscale>  2 0.27166032E+03</rscale>
<asrwt>0</asrwt>
<pdfrwt beam="1">  1       21 0.12285642E+00 0.27203386E+03</pdfrwt>
<pdfrwt beam="2">  1       21 0.83133118E-01 0.27203386E+03</pdfrwt>
<totfact> 0.58327527E+02</totfact>
</mgrwt>
</event>
<event>
12    1  0.1039378E-001  0.1996448E+03  0.7546771E-02  0.1150139E+00
         21   -1    0    0  501  502  0.00000000000E+00  0.00000000000E+00  0.15323361408E+03  0.15323361408E+03  0.00000000000E+00 0. -1.
         21   -1    0    0  502  503 -0.00000000000E+00 -0.00000000000E+00 -0.38076757700E+03  0.38076757700E+03  0.00000000000E+00 0. -1.
         -6    2    1    2    0  503 -0.85404714520E+02 -0.49699313843E+02 -0.26454028760E+03  0.33142061221E+03  0.17347642889E+03 0.  0.
        -24    2    3    3    0    0 -0.81004455227E+02 -0.14372411681E+01 -0.25794380034E+03  0.28228616824E+03  0.81158420475E+02 0.  0.
          6    2    1    2  501    0  0.85404714520E+02  0.49699313843E+02  0.37006324678E+02  0.20258057887E+03  0.17293188199E+03 0.  0.
         24    2    5    5    0    0 -0.42322806549E+01  0.48694166518E+02 -0.19884031117E+02  0.96305446272E+02  0.80562585831E+02 0.  0.
          5    1    5    5  501    0  0.89636995175E+02  0.10051473252E+01  0.56890355796E+02  0.10627513259E+03  0.47000000000E+01 0. -1.
        -11    1    6    6    0    0 -0.25412991898E+02 -0.72975831823E+01 -0.24785916142E+02  0.36241088787E+02  0.00000000000E+00 0.  1.
         12    1    6    6    0    0  0.21180711243E+02  0.55991749700E+02  0.49018850246E+01  0.60064357485E+02  0.00000000000E+00 0. -1.
         -5    1    3    3    0  503 -0.44002592925E+01 -0.48262072675E+02 -0.65964872517E+01  0.49134443976E+02  0.47000000000E+01 0.  1.
         11    1    4    4    0    0 -0.88435020687E+02  0.56838833674E+01 -0.15278389803E+03  0.17662383450E+03  0.00000000000E+00 0. -1.
        -12    1    4    4    0    0  0.74305654598E+01 -0.71211245355E+01 -0.10515990231E+03  0.10566233374E+03  0.00000000000E+00 0.  1.
<mgrwt>
<rscale>  2 0.19952648E+03</rscale>
<asrwt>0</asrwt>
<pdfrwt beam="1">  1       21 0.23574402E-01 0.19964483E+03</pdfrwt>
<pdfrwt beam="2">  1       21 0.58579628E-01 0.19964483E+03</pdfrwt>
<totfact> 0.46039673E+04</totfact>
</mgrwt>
</event>
<event>
12    1  0.1039378E-001  0.1803469E+03  0.7546771E-02  0.1167551E+00
         21   -1    0    0  503  502  0.00000000000E+00  0.00000000000E+00  0.20261301490E+03  0.20261301490E+03  0.00000000000E+00 0.  1.
         21   -1    0    0  501  503 -0.00000000000E+00 -0.00000000000E+00 -0.16083151498E+03  0.16083151498E+03  0.00000000000E+00 0. -1.
          6    2    1    2  501    0 -0.42940369125E+02 -0.22421312277E+02  0.96774824558E+01  0.18026249927E+03  0.17336183096E+03 0.  0.
         24    2    3    3    0    0 -0.24169590969E+02  0.29796695297E+02 -0.47755401520E+02  0.10026444561E+03  0.79374860638E+02 0.  0.
         -6    2    1    2    0  502  0.42940369125E+02  0.22421312277E+02  0.32104017457E+02  0.18318203061E+03  0.17371930767E+03 0.  0.
        -24    2    5    5    0    0  0.41450543307E+02  0.76746627598E+02  0.45522582409E+02  0.12700723776E+03  0.80314012147E+02 0.  0.
          5    1    3    3  501    0 -0.18770778156E+02 -0.52218007574E+02  0.57432883975E+02  0.79998053659E+02  0.47000000000E+01 0. -1.
        -13    1    4    4    0    0  0.16463928162E+02  0.32736746890E+02  0.10894702341E+01  0.36659820961E+02  0.00000000000E+00 0.  1.
         14    1    4    4    0    0 -0.40633519131E+02 -0.29400515934E+01 -0.48844871754E+02  0.63604624651E+02  0.00000000000E+00 0. -1.
         -5    1    5    5    0  502  0.14898258179E+01 -0.54325315321E+02 -0.13418564952E+02  0.56174792844E+02  0.47000000000E+01 0.  1.
         13    1    6    6    0    0  0.58756187775E+01  0.81019434876E+02  0.22046349304E+02  0.84170738629E+02  0.00000000000E+00 0. -1.
        -14    1    6    6    0    0  0.35574924530E+02 -0.42728072786E+01  0.23476233105E+02  0.42836499135E+02  0.00000000000E+00 0.  1.
<mgrwt>
<rscale>  2 0.18026072E+03</rscale>
<asrwt>0</asrwt>
<pdfrwt beam="1">  1       21 0.31171233E-01 0.18034686E+03</pdfrwt>
<pdfrwt beam="2">  1       21 0.24743310E-01 0.18034686E+03</pdfrwt>
<totfact> 0.15334975E+05</totfact>
</mgrwt>
</event>
<event>
12    1  0.1039378E-001  0.2213335E+03  0.7546771E-02  0.1132914E+00
         21   -1    0    0  503  502  0.00000000000E+00  0.00000000000E+00  0.13142818326E+03  0.13142818326E+03  0.00000000000E+00 0. -1.
         21   -1    0    0  501  503 -0.00000000000E+00 -0.00000000000E+00 -0.37300599829E+03  0.37300599829E+03  0.00000000000E+00 0.  1.
          6    2    1    2  501    0 -0.32685097060E+02  0.13452352006E+03 -0.11199943138E+03  0.24805722272E+03  0.17269516522E+03 0.  0.
         24    2    3    3    0    0 -0.67852911277E+02  0.63293567554E+02 -0.11615303047E+03  0.16837144182E+03  0.79040006779E+02 0.  0.
         -6    2    1    2    0  502  0.32685097060E+02 -0.13452352006E+03 -0.12957838365E+03  0.25637695883E+03  0.17255055633E+03 0.  0.
        -24    2    5    5    0    0 -0.34359015886E+02 -0.60658302131E+02 -0.19374405221E+02  0.10765577553E+03  0.79714658857E+02 0.  0.
          5    1    3    3  501    0  0.35167814217E+02  0.71229952510E+02  0.41535990851E+01  0.79685780894E+02  0.47000000000E+01 0. -1.
        -11    1    4    4    0    0 -0.43606299167E+02 -0.93297468007E+01 -0.34034548311E+02  0.56097272492E+02  0.00000000000E+00 0.  1.
         12    1    4    4    0    0 -0.24246612110E+02  0.72623314355E+02 -0.82118482158E+02  0.11227416933E+03  0.00000000000E+00 0. -1.
         -5    1    5    5    0  502  0.67044112946E+02 -0.73865217933E+02 -0.11020397843E+03  0.14872118330E+03  0.47000000000E+01 0.  1.
         13    1    6    6    0    0 -0.29340763449E+02 -0.11350195480E+01 -0.35221067302E+02  0.45855122408E+02  0.00000000000E+00 0. -1.
        -14    1    6    6    0    0 -0.50182524371E+01 -0.59523282583E+02  0.15846662081E+02  0.61800653120E+02  0.00000000000E+00 0.  1.
<mgrwt>
<rscale>  2 0.22130528E+03</rscale>
<asrwt>0</asrwt>
<pdfrwt beam="1">  1       21 0.20219721E-01 0.22133349E+03</pdfrwt>
<pdfrwt beam="2">  1       21 0.57385537E-01 0.22133349E+03</pdfrwt>
<totfact> 0.63643225E+04</totfact>
</mgrwt>
</event>
<event>
12    1  0.1039378E-001  0.1773563E+03  0.7546771E-02  0.1170409E+00
         21   -1    0    0  501  502  0.00000000000E+00  0.00000000000E+00  0.13312411474E+03  0.13312411474E+03  0.00000000000E+00 0.  1.
         21   -1    0    0  502  503 -0.00000000000E+00 -0.00000000000E+00 -0.53613108132E+03  0.53613108132E+03  0.00000000000E+00 0.  1.
         -6    2    1    2    0  503  0.22704779336E+02 -0.38195602765E+02 -0.45178222227E+03  0.48531417411E+03  0.17160495377E+03 0.  0.
        -24    2    3    3    0    0  0.61262082012E+02  0.25365701738E+02 -0.24605667991E+03  0.26651793603E+03  0.78047799324E+02 0.  0.
          6    2    1    2  501    0 -0.22704779336E+02  0.38195602765E+02  0.48775255686E+02  0.18394102196E+03  0.17169992113E+03 0.  0.
         24    2    5    5    0    0 -0.17239164140E+02  0.19803937049E+01 -0.37893161338E+02  0.89734234375E+02  0.79468423938E+02 0.  0.
          5    1    5    5  501    0 -0.54656151956E+01  0.36215209060E+02  0.86668417024E+02  0.94206787580E+02  0.47000000000E+01 0. -1.
        -13    1    6    6    0    0 -0.42294405014E+02 -0.87552036004E+01 -0.16762845659E+00  0.43191415639E+02  0.00000000000E+00 0.  1.
         14    1    6    6    0    0  0.25055240874E+02  0.10735597305E+02 -0.37725532881E+02  0.46542818736E+02  0.00000000000E+00 0. -1.
         -5    1    3    3    0  503 -0.38557302676E+02 -0.63561304502E+02 -0.20572554236E+03  0.21879623808E+03  0.47000000000E+01 0.  1.
         13    1    4    4    0    0  0.59403898811E+02  0.28814163135E+02 -0.96583198119E+02  0.11699313377E+03  0.00000000000E+00 0. -1.
        -14    1    4    4    0    0  0.18581832009E+01 -0.34484613974E+01 -0.14947348179E+03  0.14952480225E+03  0.00000000000E+00 0.  1.
<mgrwt>
<rscale>  2 0.17733336E+03</rscale>
<asrwt>0</asrwt>
<pdfrwt beam="1">  1       21 0.20480633E-01 0.17735635E+03</pdfrwt>
<pdfrwt beam="2">  1       21 0.82481706E-01 0.17735635E+03</pdfrwt>
<totfact> 0.28581326E+04</totfact>
</mgrwt>
</event>
<event>
12    1  0.1039378E-001  0.2090309E+03  0.7546771E-02  0.1142407E+00
         21   -1    0    0  503  502  0.00000000000E+00  0.00000000000E+00  0.47353332358E+03  0.47353332358E+03  0.00000000000E+00 0. -1.
         21   -1    0    0  501  503 -0.00000000000E+00 -0.00000000000E+00 -0.15238424138E+03  0.15238424138E+03  0.00000000000E+00 0. -1.
          6    2    1    2  501    0 -0.11310671133E+03 -0.29918907810E+02 -0.36329862041E+02  0.21180997714E+03  0.17278697390E+03 0.  0.
         24    2    3    3    0    0 -0.40707804571E+02 -0.44327302784E+02  0.36583059694E+02  0.10794666456E+03  0.81805421624E+02 0.  0.
         -6    2    1    2    0  502  0.11310671133E+03  0.29918907810E+02  0.35747894424E+03  0.41410758782E+03  0.17322133102E+03 0.  0.
        -24    2    5    5    0    0  0.14850603684E+03  0.29448085615E+02  0.27982841751E+03  0.32863812999E+03  0.82327665545E+02 0.  0.
          5    1    3    3  501    0 -0.72398906760E+02  0.14408394974E+02 -0.72912921735E+02  0.10386331259E+03  0.47000000000E+01 0. -1.
        -11    1    4    4    0    0 -0.13072242720E+02 -0.59939430470E+02  0.25382016169E+01  0.61400825094E+02  0.00000000000E+00 0.  1.
         12    1    4    4    0    0 -0.27635561851E+02  0.15612127686E+02  0.34044858078E+02  0.46545839462E+02  0.00000000000E+00 0. -1.
         -5    1    5    5    0  502 -0.35399325506E+02  0.47082219465E+00  0.77650526731E+02  0.85469457828E+02  0.47000000000E+01 0.  1.
         11    1    6    6    0    0  0.15078599812E+03  0.97223136018E+01  0.23217416682E+03  0.27701224584E+03  0.00000000000E+00 0. -1.
        -12    1    6    6    0    0 -0.22799612786E+01  0.19725772014E+02  0.47654250695E+02  0.51625884150E+02  0.00000000000E+00 0.  1.
<mgrwt>
<rscale>  2 0.20894085E+03</rscale>
<asrwt>0</asrwt>
<pdfrwt beam="1">  1       21 0.72851280E-01 0.20903086E+03</pdfrwt>
<pdfrwt beam="2">  1       21 0.23443730E-01 0.20903086E+03</pdfrwt>
<totfact> 0.28771147E+04</totfact>
</mgrwt>
</event>
<event>
12    1  0.1039378E-001  0.2572145E+03  0.7546771E-02  0.1110044E+00
         21   -1    0    0  503  502  0.00000000000E+00  0.00000000000E+00  0.22515883754E+04  0.22515883754E+04  0.00000000000E+00 0.  1.
         21   -1    0    0  501  503 -0.00000000000E+00 -0.00000000000E+00 -0.77156716488E+02  0.77156716488E+02  0.00000000000E+00 0. -1.
          6    2    1    2  501    0 -0.17591157365E+02 -0.17127586475E+03  0.15632762358E+03  0.29431563439E+03  0.18038430113E+03 0.  0.
         24    2    3    3    0    0  0.25747082645E+02 -0.17282912777E+03  0.83549949587E+02  0.20946697203E+03  0.79768406179E+02 0.  0.
         -6    2    1    2    0  502  0.17591157365E+02  0.17127586475E+03  0.20181040354E+04  0.20344294575E+04  0.19108754390E+03 0.  0.
        -24    2    5    5    0    0  0.23085157015E+02  0.19654974347E+02  0.38818059940E+03  0.39745310597E+03  0.79784404530E+02 0.  0.
          5    1    3    3  501    0 -0.43338240010E+02  0.15532630263E+01  0.72777673994E+02  0.84848662365E+02  0.47000000000E+01 0. -1.
        -11    1    4    4    0    0  0.95176808182E+01 -0.11837718245E+03  0.13883400623E+02  0.11956794046E+03  0.00000000000E+00 0.  1.
         12    1    4    4    0    0  0.16229401827E+02 -0.54451945326E+02  0.69666548964E+02  0.89899031574E+02  0.00000000000E+00 0. -1.
         -5    1    5    5    0  502 -0.54939996501E+01  0.15162089040E+03  0.16299234360E+04  0.16369763516E+04  0.47000000000E+01 0.  1.
         11    1    6    6    0    0 -0.53900190878E+01 -0.28573807531E+02  0.14790887167E+03  0.15074000498E+03  0.00000000000E+00 0. -1.
        -12    1    6    6    0    0  0.28475176103E+02  0.48228781877E+02  0.24027172773E+03  0.24671310099E+03  0.00000000000E+00 0.  1.
<mgrwt>
<rscale>  2 0.25522953E+03</rscale>
<asrwt>0</asrwt>
<pdfrwt beam="1">  1       21 0.34639816E+00 0.25721454E+03</pdfrwt>
<pdfrwt beam="2">  1       21 0.11870266E-01 0.25721454E+03</pdfrwt>
<totfact> 0.10134907E+03</totfact>
</mgrwt>
</event>
<event>
12    1  0.1039378E-001  0.2265834E+03  0.7546771E-02  0.1129188E+00
         21   -1    0    0  503  502  0.00000000000E+00  0.00000000000E+00  0.44991747833E+03  0.44991747833E+03  0.00000000000E+00 0. -1.
         21   -1    0    0  501  503 -0.00000000000E+00 -0.00000000000E+00 -0.24317594341E+03  0.24317594341E+03  0.00000000000E+00 0. -1.
          6    2    1    2  501    0 -0.52655311492E+02 -0.13558670844E+03 -0.14935492831E+03  0.27137966809E+03  0.17373454553E+03 0.  0.
         24    2    3    3    0    0 -0.77930373721E+02 -0.35706439302E+02 -0.47526521066E+02  0.12644516063E+03  0.79884388245E+02 0.  0.
         -6    2    1    2    0  502  0.52655311492E+02  0.13558670844E+03  0.35609646323E+03  0.42171375365E+03  0.17286255106E+03 0.  0.
        -24    2    5    5    0    0  0.79485060995E+02  0.11827027770E+03  0.35348197905E+03  0.38933135474E+03  0.79521448413E+02 0.  0.
          5    1    3    3  501    0  0.25275062230E+02 -0.99880269138E+02 -0.10182840724E+03  0.14493450747E+03  0.47000000000E+01 0. -1.
        -11    1    4    4    0    0 -0.54618731739E+02 -0.23983503199E+02 -0.70027139368E+02  0.91990295850E+02  0.00000000000E+00 0.  1.
         12    1    4    4    0    0 -0.23311641983E+02 -0.11722936103E+02  0.22500618302E+02  0.34454864777E+02  0.00000000000E+00 0. -1.
         -5    1    5    5    0  502 -0.26829749503E+02  0.17316430738E+02  0.26144841781E+01  0.32382398914E+02  0.47000000000E+01 0.  1.
         13    1    6    6    0    0  0.12540892284E+02  0.58953133328E+02  0.71557200694E+02  0.93558424952E+02  0.00000000000E+00 0. -1.
        -14    1    6    6    0    0  0.66944168711E+02  0.59317144374E+02  0.28192477836E+03  0.29577292978E+03  0.00000000000E+00 0.  1.
<mgrwt>
<rscale>  2 0.22641622E+03</rscale>
<asrwt>0</asrwt>
<pdfrwt beam="1">  1       21 0.69218074E-01 0.22658338E+03</pdfrwt>
<pdfrwt beam="2">  1       21 0.37411684E-01 0.22658338E+03</pdfrwt>
<totfact> 0.12810929E+04</totfact>
</mgrwt>
</event>
<event>
12    1  0.1039378E-001  0.1857816E+03  0.7546771E-02  0.1162554E+00
         21   -1    0    0  501  502  0.00000000000E+00  0.00000000000E+00  0.21564925443E+02  0.21564925443E+02  0.00000000000E+00 0.  1.
         21   -1    0    0  502  503 -0.00000000000E+00 -0.00000000000E+00 -0.17295382788E+04  0.17295382788E+04  0.00000000000E+00 0.  1.
         -6    2    1    2    0  503  0.11655689643E+02  0.65575843232E+02 -0.60490420492E+03  0.63249856116E+03  0.17236381994E+03 0.  0.
        -24    2    3    3    0    0 -0.32619138739E+02 -0.13633743897E+02 -0.17758615932E+03  0.19562647323E+03  0.74047186717E+02 0.  0.
          6    2    1    2  501    0 -0.11655689643E+02 -0.65575843232E+02 -0.11030691485E+04  0.11186046431E+04  0.17343227777E+03 0.  0.
         24    2    5    5    0    0  0.11842802804E+02 -0.97128857094E+02 -0.10029831175E+04  0.10109613645E+04  0.80582130201E+02 0.  0.
          5    1    5    5  501    0 -0.23498492447E+02  0.31553013862E+02 -0.10008603100E+03  0.10764327863E+03  0.47000000000E+01 0. -1.
        -13    1    6    6    0    0  0.42619131227E+02 -0.57438304140E+02 -0.72114044869E+03  0.72467861557E+03  0.00000000000E+00 0.  1.
         14    1    6    6    0    0 -0.30776328423E+02 -0.39690552954E+02 -0.28184266879E+03  0.28628274893E+03  0.00000000000E+00 0. -1.
         -5    1    3    3    0  503  0.44274828382E+02  0.79209587129E+02 -0.42731804559E+03  0.43687208793E+03  0.47000000000E+01 0.  1.
         11    1    4    4    0    0 -0.50352935710E+01 -0.88899807209E+01 -0.16434730532E+03  0.16466457635E+03  0.00000000000E+00 0. -1.
        -12    1    4    4    0    0 -0.27583845168E+02 -0.47437631758E+01 -0.13238854009E+02  0.30961896886E+02  0.00000000000E+00 0.  1.
<mgrwt>
<rscale>  2 0.18553183E+03</rscale>
<asrwt>0</asrwt>
<pdfrwt beam="1">  1       21 0.33176792E-02 0.18578160E+03</pdfrwt>
<pdfrwt beam="2">  1       21 0.26608294E+00 0.18578160E+03</pdfrwt>
<totfact> 0.28855496E+04</totfact>
</mgrwt>
</event>
<event>
12    1  0.1039378E-001  0.2548082E+03  0.7546771E-02  0.1110745E+00
         21   -1    0    0  501  502  0.00000000000E+00  0.00000000000E+00  0.71661325513E+03  0.71661325513E+03  0.00000000000E+00 0. -1.
         21   -1    0    0  502  503 -0.00000000000E+00 -0.00000000000E+00 -0.89693449901E+02  0.89693449901E+02  0.00000000000E+00 0. -1.
         -6    2    1    2    0  503 -0.14567899440E+03 -0.11047389624E+03  0.29813848629E+03  0.39034469072E+03  0.17336542160E+03 0.  0.
        -24    2    3    3    0    0 -0.71615055413E+02 -0.13502896202E+03  0.18500349189E+03  0.25283092679E+03  0.79596788770E+02 0.  0.
          6    2    1    2  501    0  0.14567899440E+03  0.11047389624E+03  0.32878131894E+03  0.41596201431E+03  0.17748349362E+03 0.  0.
         24    2    5    5    0    0  0.80634726410E+02  0.38984559705E+02  0.69531706752E+02  0.13924205938E+03  0.80820404965E+02 0.  0.
          5    1    5    5  501    0  0.65044267987E+02  0.71489336532E+02  0.25924961219E+03  0.27671995493E+03  0.47000000000E+01 0. -1.
        -11    1    6    6    0    0  0.34040762376E+02  0.60415503132E+02  0.40703218238E+02  0.80408696649E+02  0.00000000000E+00 0.  1.
         12    1    6    6    0    0  0.46593964034E+02 -0.21430943427E+02  0.28828488513E+02  0.58833362734E+02  0.00000000000E+00 0. -1.
         -5    1    3    3    0  503 -0.74063938985E+02  0.24555065781E+02  0.11313499440E+03  0.13751376393E+03  0.47000000000E+01 0.  1.
         11    1    4    4    0    0 -0.32426071920E+01 -0.61048519402E+02  0.30328127006E+02  0.68243911892E+02  0.00000000000E+00 0. -1.
        -12    1    4    4    0    0 -0.68372448221E+02 -0.73980442616E+02  0.15467536489E+03  0.18458701490E+03  0.00000000000E+00 0.  1.
<mgrwt>
<rscale>  2 0.25409247E+03</rscale>
<asrwt>0</asrwt>
<pdfrwt beam="1">  1       21 0.11024819E+00 0.25480824E+03</pdfrwt>
<pdfrwt beam="2">  1       21 0.13798993E-01 0.25480824E+03</pdfrwt>
<totfact> 0.28690502E+04</totfact>
</mgrwt>
</event>
<event>
12    1  0.1039378E-001  0.2569143E+03  0.7546771E-02  0.1109207E+00
         21   -1    0    0  501  502  0.00000000000E+00  0.00000000000E+00  0.12068702654E+03  0.12068702654E+03  0.00000000000E+00 0.  1.
         21   -1    0    0  502  503 -0.00000000000E+00 -0.00000000000E+00 -0.60670215872E+03  0.60670215872E+03  0.00000000000E+00 0.  1.
         -6    2    1    2    0  503 -0.18059004837E+03  0.53100799302E+02 -0.12571823032E+03  0.28487496054E+03  0.17296302856E+03 0.  0.
        -24    2    3    3    0    0 -0.54562389222E+02  0.31760329083E+01 -0.11269631746E+03  0.14861376509E+03  0.79990310053E+02 0.  0.
          6    2    1    2  501    0  0.18059004837E+03 -0.53100799302E+02 -0.36029690185E+03  0.44251422471E+03  0.17484999608E+03 0.  0.
         24    2    5    5    0    0  0.16335016573E+03 -0.31464774454E+02 -0.17559237025E+03  0.25569028321E+03  0.82894702857E+02 0.  0.
          5    1    5    5  501    0  0.17239882645E+02 -0.21636024848E+02 -0.18470453161E+03  0.18682394151E+03  0.47000000000E+01 0. -1.
        -13    1    6    6    0    0  0.13062500656E+03 -0.23517096315E+02 -0.17787600247E+03  0.22193651888E+03  0.00000000000E+00 0.  1.
         14    1    6    6    0    0  0.32725159165E+02 -0.79476781385E+01  0.22836322177E+01  0.33753764327E+02  0.00000000000E+00 0. -1.
         -5    1    3    3    0  503 -0.12602765915E+03  0.49924766393E+02 -0.13021912861E+02  0.13626119545E+03  0.47000000000E+01 0.  1.
         13    1    4    4    0    0  0.90016579829E+01 -0.18140698845E+02 -0.36073851449E+01  0.20570076048E+02  0.00000000000E+00 0. -1.
        -14    1    4    4    0    0 -0.63564047205E+02  0.21316731753E+02 -0.10908893232E+03  0.12804368904E+03  0.00000000000E+00 0.  1.
<mgrwt>
<rscale>  2 0.25659362E+03</rscale>
<asrwt>0</asrwt>
<pdfrwt beam="1">  1       21 0.18567235E-01 0.25691435E+03</pdfrwt>
<pdfrwt beam="2">  1       21 0.93338791E-01 0.25691435E+03</pdfrwt>
<totfact> 0.24733889E+04</totfact>
</mgrwt>
</event>
<event>
12    1  0.1039378E-001  0.2155939E+03  0.7546771E-02  0.1138396E+00
         21   -1    0    0  501  502  0.00000000000E+00  0.00000000000E+00  0.12790471543E+04  0.12790471543E+04  0.00000000000E+00 0. -1.
         21   -1    0    0  502  503 -0.00000000000E+00 -0.00000000000E+00 -0.18016823049E+03  0.18016823049E+03  0.00000000000E+00 0. -1.
         -6    2    1    2    0  503  0.69510400796E+02  0.96243941325E+02 -0.10628732423E+03  0.23491704037E+03  0.17261062686E+03 0.  0.
        -24    2    3    3    0    0  0.10160774399E+03  0.35991585718E+02 -0.95745145135E+02  0.16567967086E+03  0.81627768797E+02 0.  0.
          6    2    1    2  501    0 -0.69510400796E+02 -0.96243941325E+02  0.12051662480E+04  0.12242983444E+04  0.17996154783E+03 0.  0.
         24    2    5    5    0    0  0.19930857928E+02 -0.85406319359E+02  0.56533108034E+03  0.57813402737E+03  0.83356131893E+02 0.  0.
          5    1    5    5  501    0 -0.89441258724E+02 -0.10837621967E+02  0.63983516765E+03  0.64616431700E+03  0.47000000000E+01 0. -1.
        -13    1    6    6    0    0  0.32938719925E+01  0.15070222774E+02  0.37180273366E+02  0.40253371719E+02  0.00000000000E+00 0.  1.
         14    1    6    6    0    0  0.16636985936E+02 -0.10047654213E+03  0.52815080698E+03  0.53788065566E+03  0.00000000000E+00 0. -1.
         -5    1    3    3    0  503 -0.32097343196E+02  0.60252355607E+02 -0.10542179092E+02  0.69237369508E+02  0.47000000000E+01 0.  1.
         11    1    4    4    0    0  0.20567666263E+02 -0.24768818015E+02 -0.35076790594E+02  0.47612020328E+02  0.00000000000E+00 0. -1.
        -12    1    4    4    0    0  0.81040077729E+02  0.60760403733E+02 -0.60668354541E+02  0.11806765053E+03  0.00000000000E+00 0.  1.
<mgrwt>
<rscale>  2 0.21405329E+03</rscale>
<asrwt>0</asrwt>
<pdfrwt beam="1">  1       21 0.19677648E+00 0.21559395E+03</pdfrwt>
<pdfrwt beam="2">  1       21 0.27718190E-01 0.21559395E+03</pdfrwt>
<totfact> 0.17097015E+03</totfact>
</mgrwt>
</event>
<event>
12    1  0.1039378E-001  0.1754866E+03  0.7546771E-02  0.1172818E+00
         21   -1    0    0  501  502  0.00000000000E+00  0.00000000000E+00  0.12979745698E+03  0.12979745698E+03  0.00000000000E+00 0. -1.
         21   -1    0    0  502  503 -0.00000000000E+00 -0.00000000000E+00 -0.37066766321E+03  0.37066766321E+03  0.00000000000E+00 0. -1.
         -6    2    1    2    0  503 -0.19001080315E+02  0.82540488781E+01 -0.27177681970E+03  0.32227767089E+03  0.17196245826E+03 0.  0.
        -24    2    3    3    0    0  0.24041078734E+02  0.61224743027E+02 -0.18616387124E+03  0.21268666378E+03  0.79070774437E+02 0.  0.
          6    2    1    2  501    0  0.19001080315E+02 -0.82540488781E+01  0.30906613466E+02  0.17818744930E+03  0.17425951324E+03 0.  0.
         24    2    5    5    0    0  0.40645349379E+01  0.17923922245E+02 -0.43652470818E+02  0.97629807765E+02  0.85371269891E+02 0.  0.
          5    1    5    5  501    0  0.14936545377E+02 -0.26177971123E+02  0.74559084285E+02  0.80557641533E+02  0.47000000000E+01 0. -1.
        -11    1    6    6    0    0  0.34875738700E+02  0.37187951379E+02 -0.24899339375E+02  0.56738329011E+02  0.00000000000E+00 0.  1.
         12    1    6    6    0    0 -0.30811203762E+02 -0.19264029134E+02 -0.18753131443E+02  0.40891478754E+02  0.00000000000E+00 0. -1.
         -5    1    3    3    0  503 -0.43042159049E+02 -0.52970694149E+02 -0.85612948462E+02  0.10959100711E+03  0.47000000000E+01 0.  1.
         11    1    4    4    0    0 -0.82620543938E+01  0.49894583419E+02 -0.16468056130E+03  0.17227135068E+03  0.00000000000E+00 0. -1.
        -12    1    4    4    0    0  0.32303133128E+02  0.11330159608E+02 -0.21483309941E+02  0.40415313096E+02  0.00000000000E+00 0.  1.
<mgrwt>
<rscale>  2 0.17491361E+03</rscale>
<asrwt>0</asrwt>
<pdfrwt beam="1">  1       21 0.19968840E-01 0.17548660E+03</pdfrwt>
<pdfrwt beam="2">  1       21 0.57025794E-01 0.17548660E+03</pdfrwt>
<totfact> 0.67380234E+04</totfact>
</mgrwt>
</event>
<event>
12    1  0.1039378E-001  0.2361140E+03  0.7546771E-02  0.1122662E+00
         21   -1    0    0  503  502  0.00000000000E+00  0.00000000000E+00  0.50990481136E+02  0.50990481136E+02  0.00000000000E+00 0.  1.
         21   -1    0    0  501  503 -0.00000000000E+00 -0.00000000000E+00 -0.10867678405E+04  0.10867678405E+04  0.00000000000E+00 0. -1.
          6    2    1    2  501    0  0.47901619054E+02  0.15105505715E+03 -0.52546645875E+03  0.57547099719E+03  0.17303084676E+03 0.  0.
         24    2    3    3    0    0  0.65628932431E+02  0.16841801175E+03 -0.38675638351E+03  0.43448055494E+03  0.80753136028E+02 0.  0.
         -6    2    1    2    0  502 -0.47901619054E+02 -0.15105505715E+03 -0.51031090060E+03  0.56228732444E+03  0.17503606643E+03 0.  0.
        -24    2    5    5    0    0 -0.32023512562E+02 -0.18156983166E+03 -0.44905905749E+03  0.49188033605E+03  0.79366987817E+02 0.  0.
          5    1    3    3  501    0 -0.17727313377E+02 -0.17362954603E+02 -0.13871007524E+03  0.14099044224E+03  0.47000000000E+01 0. -1.
        -11    1    4    4    0    0  0.44090163575E+02  0.12667916544E+03 -0.19247397454E+03  0.23460133068E+03  0.00000000000E+00 0.  1.
         12    1    4    4    0    0  0.21538768856E+02  0.41738846312E+02 -0.19428240897E+03  0.19987922426E+03  0.00000000000E+00 0. -1.
         -5    1    5    5    0  502 -0.15878106492E+02  0.30514774509E+02 -0.61251843112E+02  0.70406988387E+02  0.47000000000E+01 0.  1.
         11    1    6    6    0    0 -0.54895910263E+02 -0.13429968041E+03 -0.36485234328E+03  0.39264130898E+03  0.00000000000E+00 0. -1.
        -12    1    6    6    0    0  0.22872397701E+02 -0.47270151254E+02 -0.84206714211E+02  0.99239027073E+02  0.00000000000E+00 0.  1.
<mgrwt>
<rscale>  2 0.23574246E+03</rscale>
<asrwt>0</asrwt>
<pdfrwt beam="1">  1       21 0.78446898E-02 0.23611400E+03</pdfrwt>
<pdfrwt beam="2">  1       21 0.16719504E+00 0.23611400E+03</pdfrwt>
<totfact> 0.26990223E+04</totfact>
</mgrwt>
</event>
<event>
12    1  0.1039378E-001  0.3374851E+03  0.7546771E-02  0.1067973E+00
         21   -1    0    0  503  502  0.00000000000E+00  0.00000000000E+00  0.65981911262E+03  0.65981911262E+03  0.00000000000E+00 0. -1.
         21   -1    0    0  501  503 -0.00000000000E+00 -0.00000000000E+00 -0.28051163414E+03  0.28051163414E+03  0.00000000000E+00 0.  1.
          6    2    1    2  501    0  0.22603941709E+03 -0.17792042086E+03 -0.10242399774E+03  0.35268526412E+03  0.17648435052E+03 0.  0.
         24    2    3    3    0    0  0.18785774916E+03 -0.64952418464E+02 -0.98576151561E+02  0.23328465587E+03  0.72077197661E+02 0.  0.
         -6    2    1    2    0  502 -0.22603941709E+03  0.17792042086E+03  0.48173147622E+03  0.58764548264E+03  0.17467828671E+03 0.  0.
        -24    2    5    5    0    0 -0.90802105218E+02  0.13984514668E+03  0.19956486492E+03  0.27240122249E+03  0.81083927758E+02 0.  0.
          5    1    3    3  501    0  0.38181667930E+02 -0.11296800239E+03 -0.38478461798E+01  0.11940060825E+03  0.47000000000E+01 0. -1.
        -11    1    4    4    0    0  0.81956098320E+02 -0.60229688853E+02 -0.70082624476E+02  0.12351514775E+03  0.00000000000E+00 0.  1.
         12    1    4    4    0    0  0.10590165084E+03 -0.47227296108E+01 -0.28493527085E+02  0.10976950812E+03  0.00000000000E+00 0. -1.
         -5    1    5    5    0  502 -0.13523731188E+03  0.38075274179E+02  0.28216661130E+03  0.31524426015E+03  0.47000000000E+01 0.  1.
         13    1    6    6    0    0 -0.93404662539E+02  0.14308582455E+03  0.20414246730E+03  0.26621820210E+03  0.00000000000E+00 0. -1.
        -14    1    6    6    0    0  0.26025573208E+01 -0.32406778713E+01 -0.45776023778E+01  0.61830203948E+01  0.00000000000E+00 0.  1.
<mgrwt>
<rscale>  2 0.33724966E+03</rscale>
<asrwt>0</asrwt>
<pdfrwt beam="1">  1       21 0.10151063E+00 0.33748514E+03</pdfrwt>
<pdfrwt beam="2">  1       21 0.43155636E-01 0.33748514E+03</pdfrwt>
<totfact> 0.37338959E+03</totfact>
</mgrwt>
</event>
<event>
12    1  0.1039378E-001  0.2019845E+03  0.7546771E-02  0.1150233E+00
         21   -1    0    0  503  502  0.00000000000E+00  0.00000000000E+00  0.70902829838E+03  0.70902829838E+03  0.00000000000E+00 0.  1.
         21   -1    0    0  501  503 -0.00000000000E+00 -0.00000000000E+00 -0.75319081136E+02  0.75319081136E+02  0.00000000000E+00 0.  1.
          6    2    1    2  501    0  0.80197949033E+02 -0.15624895293E+02  0.10583987016E+03  0.21915378149E+03  0.17363885926E+03 0.  0.
         24    2    3    3    0    0  0.11889391795E+03 -0.33470550748E+02  0.70094041665E+02  0.16333532860E+03  0.80679696328E+02 0.  0.
         -6    2    1    2    0  502 -0.80197949033E+02  0.15624895293E+02  0.52786934709E+03  0.56519359802E+03  0.18472116086E+03 0.  0.
        -24    2    5    5    0    0  0.12903143057E+02  0.54811863615E+02  0.21237815654E+03  0.23389280849E+03  0.80190604143E+02 0.  0.
          5    1    3    3  501    0 -0.38695968914E+02  0.17845655455E+02  0.35745828492E+02  0.55818452894E+02  0.47000000000E+01 0. -1.
        -13    1    4    4    0    0  0.61012060893E+02 -0.46309009520E+02  0.72511497755E+01  0.76938775076E+02  0.00000000000E+00 0.  1.
         14    1    4    4    0    0  0.57881857054E+02  0.12838458772E+02  0.62842891890E+02  0.86396553524E+02  0.00000000000E+00 0. -1.
         -5    1    5    5    0  502 -0.93101092090E+02 -0.39186968322E+02  0.31549119055E+03  0.33130078954E+03  0.47000000000E+01 0.  1.
         11    1    6    6    0    0  0.30054392392E+02  0.18922496836E+02  0.27867855962E+02  0.45143601811E+02  0.00000000000E+00 0. -1.
        -12    1    6    6    0    0 -0.17151249335E+02  0.35889366779E+02  0.18451030058E+03  0.18874920667E+03  0.00000000000E+00 0.  1.
<mgrwt>
<rscale>  2 0.19941525E+03</rscale>
<asrwt>0</asrwt>
<pdfrwt beam="1">  1       21 0.10908127E+00 0.20198454E+03</pdfrwt>
<pdfrwt beam="2">  1       21 0.11587551E-01 0.20198454E+03</pdfrwt>
<totfact> 0.41422290E+04</totfact>
</mgrwt>
</event>
<event>
12    1  0.1039378E-001  0.2179151E+03  0.7546771E-02  0.1135606E+00
         21   -1    0    0  503  502  0.00000000000E+00  0.00000000000E+00  0.35850620478E+03  0.35850620478E+03  0.00000000000E+00 0. -1.
         21   -1    0    0  501  503 -0.00000000000E+00 -0.00000000000E+00 -0.15682456109E+03  0.15682456109E+03  0.00000000000E+00 0. -1.
          6    2    1    2  501    0  0.62816288442E+02  0.11650101671E+03 -0.19465359886E+01  0.21708352153E+03  0.17205549492E+03 0.  0.
         24    2    3    3    0    0 -0.65140836028E+01  0.71677093704E+02 -0.52726257127E+02  0.12004458790E+03  0.80315663771E+02 0.  0.
         -6    2    1    2    0  502 -0.62816288442E+02 -0.11650101671E+03  0.20362817968E+03  0.29824724434E+03  0.17311444252E+03 0.  0.
        -24    2    5    5    0    0 -0.80424352433E+02 -0.70401171075E+02  0.59590905486E+02  0.14591843537E+03  0.79477747901E+02 0.  0.
          5    1    3    3  501    0  0.69330372044E+02  0.44823923004E+02  0.50779721138E+02  0.97038933631E+02  0.47000000000E+01 0. -1.
        -13    1    4    4    0    0  0.73164222190E+01 -0.15671434952E+02 -0.42606292414E+00  0.17300446155E+02  0.00000000000E+00 0.  1.
         14    1    4    4    0    0 -0.13830505822E+02  0.87348528656E+02 -0.52300194203E+02  0.10274414175E+03  0.00000000000E+00 0. -1.
         -5    1    5    5    0  502  0.17608063991E+02 -0.46099845633E+02  0.14403727420E+03  0.15232880897E+03  0.47000000000E+01 0.  1.
         11    1    6    6    0    0 -0.37290362290E+02 -0.48147835935E+02  0.73477939985E+02  0.95434757240E+02  0.00000000000E+00 0. -1.
        -12    1    6    6    0    0 -0.43133990142E+02 -0.22253335140E+02 -0.13887034499E+02  0.50483678131E+02  0.00000000000E+00 0.  1.
<mgrwt>
<rscale>  2 0.21770471E+03</rscale>
<asrwt>0</asrwt>
<pdfrwt beam="1">  1       21 0.55154801E-01 0.21791508E+03</pdfrwt>
<pdfrwt beam="2">  1       21 0.24126856E-01 0.21791508E+03</pdfrwt>
<totfact> 0.49653458E+04</totfact>
</mgrwt>
</event>
<event>
12    1  0.1039378E-001  0.2459125E+03  0.7546771E-02  0.1115944E+00
         21   -1    0    0  501  502  0.00000000000E+00  0.00000000000E+00  0.33025501976E+03  0.33025501976E+03  0.00000000000E+00 0. -1.
         21   -1    0    0  502  503 -0.00000000000E+00 -0.00000000000E+00 -0.25022278494E+03  0.25022278494E+03  0.00000000000E+00 0.  1.
         -6    2    1    2    0  503  0.81219666341E+02  0.15527558102E+03 -0.11045467392E+03  0.26941801012E+03  0.17227503859E+03 0.  0.
        -24    2    3    3    0    0  0.74297140437E+02  0.18342353034E+03 -0.81853386181E+02  0.22842591239E+03  0.79461714448E+02 0.  0.
          6    2    1    2  501    0 -0.81219666341E+02 -0.15527558102E+03  0.19048690875E+03  0.31105979458E+03  0.17252765906E+03 0.  0.
         24    2    5    5    0    0  0.27903244135E+02 -0.87698896342E+02  0.10343179818E+03  0.15589826527E+03  0.71668994600E+02 0.  0.
          5    1    5    5  501    0 -0.10912291048E+03 -0.67576684678E+02  0.87055110563E+02  0.15516152931E+03  0.47000000000E+01 0. -1.
        -13    1    6    6    0    0  0.34760332132E+02 -0.89358444027E+01  0.20557994900E+02  0.41361348617E+02  0.00000000000E+00 0.  1.
         14    1    6    6    0    0 -0.68570879962E+01 -0.78763051940E+02  0.82873803282E+02  0.11453691666E+03  0.00000000000E+00 0. -1.
         -5    1    3    3    0  503  0.69225259042E+01 -0.28147949317E+02 -0.28601287741E+02  0.40992097728E+02  0.47000000000E+01 0.  1.
         11    1    4    4    0    0 -0.16019011035E+02  0.46563884016E+02 -0.17045227616E+02  0.52108960781E+02  0.00000000000E+00 0. -1.
        -12    1    4    4    0    0  0.90316151472E+02  0.13685964632E+03 -0.64808158565E+02  0.17631695161E+03  0.00000000000E+00 0.  1.
<mgrwt>
<rscale>  2 0.24586815E+03</rscale>
<asrwt>0</asrwt>
<pdfrwt beam="1">  1       21 0.50808464E-01 0.24591245E+03</pdfrwt>
<pdfrwt beam="2">  1       21 0.38495813E-01 0.24591245E+03</pdfrwt>
<totfact> 0.23307322E+04</totfact>
</mgrwt>
</event>
<event>
12    1  0.1039378E-001  0.2812675E+03  0.7546771E-02  0.1095149E+00
         21   -1    0    0  501  502  0.00000000000E+00  0.00000000000E+00  0.33548412690E+03  0.33548412690E+03  0.00000000000E+00 0. -1.
         21   -1    0    0  502  503 -0.00000000000E+00 -0.00000000000E+00 -0.42320569094E+03  0.42320569094E+03  0.00000000000E+00 0. -1.
         -6    2    1    2    0  503 -0.11781555818E+03 -0.18788553665E+03 -0.29695746658E+03  0.40901727327E+03  0.17300263651E+03 0.  0.
        -24    2    3    3    0    0 -0.46807402033E+02 -0.10888821818E+03 -0.25912235464E+03  0.29616196652E+03  0.80746137947E+02 0.  0.
          6    2    1    2  501    0  0.11781555818E+03  0.18788553665E+03  0.20923590255E+03  0.34967254457E+03  0.17120089042E+03 0.  0.
         24    2    5    5    0    0  0.99032404037E+02  0.58552188725E+02  0.62683495555E+02  0.15325559072E+03  0.79512763870E+02 0.  0.
          5    1    5    5  501    0  0.18783154147E+02  0.12933334793E+03  0.14655240699E+03  0.19641695385E+03  0.47000000000E+01 0. -1.
        -11    1    6    6    0    0  0.10909971063E+02 -0.16594540420E+02  0.24003972626E+02  0.31154404860E+02  0.00000000000E+00 0.  1.
         12    1    6    6    0    0  0.88122432974E+02  0.75146729145E+02  0.38679522929E+02  0.12210118586E+03  0.00000000000E+00 0. -1.
         -5    1    3    3    0  503 -0.71008156150E+02 -0.78997318474E+02 -0.37835111939E+02  0.11285530675E+03  0.47000000000E+01 0.  1.
         11    1    4    4    0    0 -0.59409079360E+02 -0.44544431353E+02 -0.17009463057E+03  0.18559587394E+03  0.00000000000E+00 0. -1.
        -12    1    4    4    0    0  0.12601677327E+02 -0.64343786824E+02 -0.89027724072E+02  0.11056609258E+03  0.00000000000E+00 0.  1.
<mgrwt>
<rscale>  2 0.28099091E+03</rscale>
<asrwt>0</asrwt>
<pdfrwt beam="1">  1       21 0.51612943E-01 0.28126748E+03</pdfrwt>
<pdfrwt beam="2">  1       21 0.65108568E-01 0.28126748E+03</pdfrwt>
<totfact> 0.73314386E+03</totfact>
</mgrwt>
</event>
<event>
12    1  0.1039378E-001  0.3180851E+03  0.7546771E-02  0.1076644E+00
         21   -1    0    0  503  502  0.00000000000E+00  0.00000000000E+00  0.29478624592E+04  0.29478624592E+04  0.00000000000E+00 0.  1.
         21   -1    0    0  501  503 -0.00000000000E+00 -0.00000000000E+00 -0.19602017053E+03  0.19602017053E+03  0.00000000000E+00 0. -1.
          6    2    1    2  501    0 -0.26538175661E+03 -0.25186598611E+02 -0.52593822618E+02  0.32146521822E+03  0.17179038058E+03 0.  0.
         24    2    3    3    0    0 -0.47815958127E+02  0.14481074092E+02 -0.23670851900E+02  0.98379967340E+02  0.81377155183E+02 0.  0.
         -6    2    1    2    0  502  0.26538175661E+03  0.25186598611E+02  0.28044361113E+04  0.28224174115E+04  0.17354048822E+03 0.  0.
        -24    2    5    5    0    0  0.27887761322E+03  0.30571829665E+02  0.27612717135E+04  0.27766310151E+04  0.79692900474E+02 0.  0.
          5    1    3    3  501    0 -0.21756579848E+03 -0.39667672703E+02 -0.28922970718E+02  0.22308525088E+03  0.47000000000E+01 0. -1.
        -11    1    4    4    0    0 -0.19468088120E+02 -0.33241096358E+02 -0.13285789364E+01  0.38545324803E+02  0.00000000000E+00 0.  1.
         12    1    4    4    0    0 -0.28347870007E+02  0.47722170450E+02 -0.22342272964E+02  0.59834642538E+02  0.00000000000E+00 0. -1.
         -5    1    5    5    0  502 -0.13495856616E+02 -0.53852310539E+01  0.43164397786E+02  0.45786396402E+02  0.47000000000E+01 0.  1.
         11    1    6    6    0    0  0.21147782623E+03  0.18333199754E+02  0.17090799218E+04  0.17222117049E+04  0.00000000000E+00 0. -1.
        -12    1    6    6    0    0  0.67399786995E+02  0.12238629911E+02  0.10521917917E+04  0.10544193103E+04  0.00000000000E+00 0.  1.
<mgrwt>
<rscale>  2 0.31784699E+03</rscale>
<asrwt>0</asrwt>
<pdfrwt beam="1">  1       21 0.45351727E+00 0.31808512E+03</pdfrwt>
<pdfrwt beam="2">  1       21 0.30156951E-01 0.31808512E+03</pdfrwt>
<totfact> 0.34452753E+01</totfact>
</mgrwt>
</event>
<event>
12    1  0.1039378E-001  0.1852652E+03  0.7546771E-02  0.1162867E+00
         21   -1    0    0  501  502  0.00000000000E+00  0.00000000000E+00  0.12209561359E+04  0.12209561359E+04  0.00000000000E+00 0. -1.
         21   -1    0    0  502  503 -0.00000000000E+00 -0.00000000000E+00 -0.51402899107E+02  0.51402899107E+02  0.00000000000E+00 0. -1.
         -6    2    1    2    0  503  0.44640682650E+01 -0.62322957294E+02  0.15639577774E+03  0.24245169352E+03  0.17441073787E+03 0.  0.
        -24    2    3    3    0    0 -0.42521111866E+02 -0.65623494415E+02  0.37960664463E+02  0.11490771383E+03  0.75155057571E+02 0.  0.
          6    2    1    2  501    0 -0.44640682650E+01  0.62322957294E+02  0.10131574590E+04  0.10299073415E+04  0.17411782304E+03 0.  0.
         24    2    5    5    0    0  0.61375330793E+02  0.25296130905E+02  0.47514145765E+03  0.48659424566E+03  0.81287942858E+02 0.  0.
          5    1    5    5  501    0 -0.65839399059E+02  0.37026826389E+02  0.53801600139E+03  0.54331309582E+03  0.47000000000E+01 0. -1.
        -13    1    6    6    0    0 -0.19406011045E+02 -0.16694589056E+00  0.11506939134E+03  0.11669441272E+03  0.00000000000E+00 0.  1.
         14    1    6    6    0    0  0.80781341838E+02  0.25463076795E+02  0.36007206631E+03  0.36989983294E+03  0.00000000000E+00 0. -1.
         -5    1    3    3    0  503  0.46985180131E+02  0.33005371211E+01  0.11843511328E+03  0.12754397969E+03  0.47000000000E+01 0.  1.
         13    1    4    4    0    0 -0.45626115518E+02 -0.30347353248E+01  0.17961599832E+02  0.49128109105E+02  0.00000000000E+00 0. -1.
        -14    1    4    4    0    0  0.31050036520E+01 -0.62588759090E+02  0.19999064631E+02  0.65779604728E+02  0.00000000000E+00 0.  1.
<mgrwt>
<rscale>  2 0.18519620E+03</rscale>
<asrwt>0</asrwt>
<pdfrwt beam="1">  1       21 0.18783938E+00 0.18526517E+03</pdfrwt>
<pdfrwt beam="2">  1       21 0.79081392E-02 0.18526517E+03</pdfrwt>
<totfact> 0.19843293E+04</totfact>
</mgrwt>
</event>
<event>
12    1  0.1039378E-001  0.2526067E+03  0.7546771E-02  0.1111906E+00
         21   -1    0    0  501  502  0.00000000000E+00  0.00000000000E+00  0.53362647902E+03  0.53362647902E+03  0.00000000000E+00 0.  1.
         21   -1    0    0  502  503 -0.00000000000E+00 -0.00000000000E+00 -0.15426951099E+03  0.15426951099E+03  0.00000000000E+00 0.  1.
         -6    2    1    2    0  503  0.18063895001E+03 -0.26444947886E+02  0.25336722649E+02  0.25387417094E+03  0.17458630996E+03 0.  0.
        -24    2    3    3    0    0  0.65881718394E+02  0.90750473046E+01 -0.45884345454E+02  0.11414077190E+03  0.80622486623E+02 0.  0.
          6    2    1    2  501    0 -0.18063895001E+03  0.26444947886E+02  0.35402024538E+03  0.43402181907E+03  0.17237992852E+03 0.  0.
         24    2    5    5    0    0 -0.93321195089E+02  0.59537839871E+02  0.11798678961E+03  0.18014505355E+03  0.79232303815E+02 0.  0.
          5    1    5    5  501    0 -0.87317754923E+02 -0.33092891985E+02  0.23603345577E+03  0.25387676552E+03  0.47000000000E+01 0. -1.
        -11    1    6    6    0    0 -0.48761350072E+02 -0.11140208374E+02  0.27883908489E+02  0.57265049166E+02  0.00000000000E+00 0.  1.
         12    1    6    6    0    0 -0.44559845018E+02  0.70678048245E+02  0.90102881123E+02  0.12288000439E+03  0.00000000000E+00 0. -1.
         -5    1    3    3    0  503  0.11475723162E+03 -0.35519995191E+02  0.71221068103E+02  0.13973339905E+03  0.47000000000E+01 0.  1.
         13    1    4    4    0    0 -0.99402750480E+01  0.22381081471E+02 -0.23574759835E+02  0.33992516487E+02  0.00000000000E+00 0. -1.
        -14    1    4    4    0    0  0.75821993442E+02 -0.13306034167E+02 -0.22309585620E+02  0.80148255410E+02  0.00000000000E+00 0.  1.
<mgrwt>
<rscale>  2 0.25222588E+03</rscale>
<asrwt>0</asrwt>
<pdfrwt beam="1">  1       21 0.82096380E-01 0.25260670E+03</pdfrwt>
<pdfrwt beam="2">  1       21 0.23733771E-01 0.25260670E+03</pdfrwt>
<totfact> 0.20992506E+04</totfact>
</mgrwt>
</event>
<event>
12    1  0.1039378E-001  0.1840145E+03  0.7546771E-02  0.1164075E+00
         21   -1    0    0  503  502  0.00000000000E+00  0.00000000000E+00  0.16927581739E+03  0.16927581739E+03  0.00000000000E+00 0.  1.
         21   -1    0    0  501  503 -0.00000000000E+00 -0.00000000000E+00 -0.26110262331E+03  0.26110262331E+03  0.00000000000E+00 0.  1.
          6    2    1    2  501    0  0.61547152469E+02 -0.26932253822E+01 -0.15042073023E+03  0.23767148533E+03  0.17339559803E+03 0.  0.
         24    2    3    3    0    0 -0.32015860685E+02 -0.58947733583E+01 -0.90368330542E+02  0.12634912437E+03  0.82084726819E+02 0.  0.
         -6    2    1    2    0  502 -0.61547152469E+02  0.26932253822E+01  0.58593924310E+02  0.19270695538E+03  0.17293761085E+03 0.  0.
        -24    2    5    5    0    0  0.13283843449E+02 -0.50434000657E+02  0.26502876045E+02  0.95371938681E+02  0.75321679018E+02 0.  0.
          5    1    3    3  501    0  0.93563013153E+02  0.32015479761E+01 -0.60052399686E+02  0.11132236095E+03  0.47000000000E+01 0. -1.
        -13    1    4    4    0    0  0.53039129552E+01  0.18984184543E+02 -0.77093685068E+02  0.79573657907E+02  0.00000000000E+00 0.  1.
         14    1    4    4    0    0 -0.37319773640E+02 -0.24878957902E+02 -0.13274645475E+02  0.46775466468E+02  0.00000000000E+00 0. -1.
         -5    1    5    5    0  502 -0.74830995918E+02  0.53127226039E+02  0.32091048265E+02  0.97335016697E+02  0.47000000000E+01 0.  1.
         13    1    6    6    0    0  0.15562878196E+02 -0.40013087152E+01 -0.22614869424E+02  0.27742493908E+02  0.00000000000E+00 0. -1.
        -14    1    6    6    0    0 -0.22790347470E+01 -0.46432691942E+02  0.49117745469E+02  0.67629444773E+02  0.00000000000E+00 0.  1.
<mgrwt>
<rscale>  2 0.18390654E+03</rscale>
<asrwt>0</asrwt>
<pdfrwt beam="1">  1       21 0.26042434E-01 0.18401451E+03</pdfrwt>
<pdfrwt beam="2">  1       21 0.40169634E-01 0.18401451E+03</pdfrwt>
<totfact> 0.83946816E+04</totfact>
</mgrwt>
</event>
<event>
12    1  0.1039378E-001  0.2821819E+03  0.7546771E-02  0.1095663E+00
         21   -1    0    0  501  502  0.00000000000E+00  0.00000000000E+00  0.11705817184E+04  0.11705817184E+04  0.00000000000E+00 0. -1.
         21   -1    0    0  502  503 -0.00000000000E+00 -0.00000000000E+00 -0.76263896771E+02  0.76263896771E+02  0.00000000000E+00 0. -1.
         -6    2    1    2    0  503 -0.21171494913E+03  0.20531831012E+02  0.32570408799E+03  0.43094057833E+03  0.18542344337E+03 0.  0.
        -24    2    3    3    0    0 -0.12082033180E+03  0.67196002967E+02  0.11561984714E+03  0.19728087993E+03  0.80243013043E+02 0.  0.
          6    2    1    2  501    0  0.21171494913E+03 -0.20531831012E+02  0.76861373368E+03  0.81590503687E+03  0.17230548984E+03 0.  0.
         24    2    5    5    0    0  0.40086133170E+02  0.25370129532E+02  0.20067555324E+03  0.22080898812E+03  0.78964485812E+02 0.  0.
          5    1    5    5  501    0  0.17162881596E+03 -0.45901960544E+02  0.56793818044E+03  0.59509604876E+03  0.47000000000E+01 0. -1.
        -11    1    6    6    0    0  0.25324391255E+02 -0.16065428131E+01  0.93737057932E+01  0.27051287078E+02  0.00000000000E+00 0.  1.
         12    1    6    6    0    0  0.14761741915E+02  0.26976672345E+02  0.19130184745E+03  0.19375770104E+03  0.00000000000E+00 0. -1.
         -5    1    3    3    0  503 -0.90894617328E+02 -0.46664171955E+02  0.21008424085E+03  0.23365969840E+03  0.47000000000E+01 0.  1.
         11    1    4    4    0    0 -0.83961231892E+02  0.39650424662E+02  0.25816437585E+02  0.96374960888E+02  0.00000000000E+00 0. -1.
        -12    1    4    4    0    0 -0.36859099910E+02  0.27545578305E+02  0.89803409550E+02  0.10090591904E+03  0.00000000000E+00 0.  1.
<mgrwt>
<rscale>  2 0.28004751E+03</rscale>
<asrwt>0</asrwt>
<pdfrwt beam="1">  1       21 0.18008948E+00 0.28218191E+03</pdfrwt>
<pdfrwt beam="2">  1       21 0.11732908E-01 0.28218191E+03</pdfrwt>
<totfact> 0.10450195E+04</totfact>
</mgrwt>
</event>
<event>
12    1  0.1039378E-001  0.1971598E+03  0.7546771E-02  0.1152871E+00
         21   -1    0    0  503  502  0.00000000000E+00  0.00000000000E+00  0.22750542676E+02  0.22750542676E+02  0.00000000000E+00 0. -1.
         21   -1    0    0  501  503 -0.00000000000E+00 -0.00000000000E+00 -0.16935930450E+04  0.16935930450E+04  0.00000000000E+00 0. -1.
          6    2    1    2  501    0  0.86076604433E+02 -0.24099079438E+02 -0.76612156867E+03  0.79108423273E+03  0.17573291619E+03 0.  0.
         24    2    3    3    0    0 -0.13832617701E+02  0.16955581197E+02 -0.43245673522E+03  0.44033981167E+03  0.80009304800E+02 0.  0.
         -6    2    1    2    0  502 -0.86076604433E+02  0.24099079438E+02 -0.90472093368E+03  0.92525935497E+03  0.17203185363E+03 0.  0.
        -24    2    5    5    0    0  0.86307582121E+01  0.15518965268E+02 -0.60630352103E+03  0.61202119467E+03  0.81551547115E+02 0.  0.
          5    1    3    3  501    0  0.99909222134E+02 -0.41054660635E+02 -0.33366483344E+03  0.35074442106E+03  0.47000000000E+01 0. -1.
        -11    1    4    4    0    0 -0.38588959008E+02  0.46521876061E+00 -0.11114811663E+03  0.11765724804E+03  0.00000000000E+00 0.  1.
         12    1    4    4    0    0  0.24756341307E+02  0.16490362436E+02 -0.32130861859E+03  0.32268256363E+03  0.00000000000E+00 0. -1.
         -5    1    5    5    0  502 -0.94707362646E+02  0.85801141702E+01 -0.29841741265E+03  0.31323816030E+03  0.47000000000E+01 0.  1.
         13    1    6    6    0    0 -0.24394491361E+02 -0.12175216045E+01 -0.64750520098E+02  0.69204070838E+02  0.00000000000E+00 0. -1.
        -14    1    6    6    0    0  0.33025249573E+02  0.16736486872E+02 -0.54155300094E+03  0.54281712383E+03  0.00000000000E+00 0.  1.
<mgrwt>
<rscale>  2 0.19633175E+03</rscale>
<asrwt>0</asrwt>
<pdfrwt beam="1">  1       21 0.35000828E-02 0.19715985E+03</pdfrwt>
<pdfrwt beam="2">  1       21 0.26055283E+00 0.19715985E+03</pdfrwt>
<totfact> 0.28142837E+04</totfact>
</mgrwt>
</event>
<event>
12    1  0.1039378E-001  0.2546821E+03  0.7546771E-02  0.1110409E+00
         21   -1    0    0  501  502  0.00000000000E+00  0.00000000000E+00  0.23566062861E+03  0.23566062861E+03  0.00000000000E+00 0. -1.
         21   -1    0    0  502  503 -0.00000000000E+00 -0.00000000000E+00 -0.38207262920E+03  0.38207262920E+03  0.00000000000E+00 0.  1.
         -6    2    1    2    0  503 -0.12484485852E+03  0.13837044299E+03 -0.23666318523E+03  0.34753287380E+03  0.17331190651E+03 0.  0.
        -24    2    3    3    0    0 -0.51190813501E+02  0.34616546109E+02 -0.35135482365E+02  0.10915230730E+03  0.82830667120E+02 0.  0.
          6    2    1    2  501    0  0.12484485852E+03 -0.13837044299E+03  0.90251184638E+02  0.27020038402E+03  0.17358096959E+03 0.  0.
         24    2    5    5    0    0  0.14550766581E+03 -0.87685370185E+02  0.35992038445E+02  0.19298592193E+03  0.84183931243E+02 0.  0.
          5    1    5    5  501    0 -0.20662807285E+02 -0.50685072801E+02  0.54259146193E+02  0.77214462087E+02  0.47000000000E+01 0. -1.
        -11    1    6    6    0    0  0.24843013085E+02 -0.34127048148E+02 -0.23356124856E+02  0.48242504938E+02  0.00000000000E+00 0.  1.
         12    1    6    6    0    0  0.12066465272E+03 -0.53558322038E+02  0.59348163301E+02  0.14474341699E+03  0.00000000000E+00 0. -1.
         -5    1    3    3    0  503 -0.73654045019E+02  0.10375389688E+03 -0.20152770286E+03  0.23838056650E+03  0.47000000000E+01 0.  1.
         13    1    4    4    0    0 -0.57322757308E+02  0.17812383659E+02  0.97688479086E+01  0.60816197731E+02  0.00000000000E+00 0. -1.
        -14    1    4    4    0    0  0.61319438071E+01  0.16804162449E+02 -0.44904330273E+02  0.48336109564E+02  0.00000000000E+00 0.  1.
<mgrwt>
<rscale>  2 0.25463626E+03</rscale>
<asrwt>0</asrwt>
<pdfrwt beam="1">  1       21 0.36255482E-01 0.25468210E+03</pdfrwt>
<pdfrwt beam="2">  1       21 0.58780404E-01 0.25468210E+03</pdfrwt>
<totfact> 0.19205989E+04</totfact>
</mgrwt>
</event>
<event>
12    1  0.1039378E-001  0.2253436E+03  0.7546771E-02  0.1130915E+00
         21   -1    0    0  503  502  0.00000000000E+00  0.00000000000E+00  0.32210900757E+02  0.32210900757E+02  0.00000000000E+00 0. -1.
         21   -1    0    0  501  503 -0.00000000000E+00 -0.00000000000E+00 -0.15501086934E+04  0.15501086934E+04  0.00000000000E+00 0. -1.
          6    2    1    2  501    0 -0.19920921687E+02 -0.13364687613E+03 -0.70456037129E+03  0.73971959154E+03  0.18033698097E+03 0.  0.
         24    2    3    3    0    0 -0.49513946408E+02 -0.95612357157E+02 -0.66143239022E+03  0.67487759515E+03  0.79834878787E+02 0.  0.
         -6    2    1    2    0  502  0.19920921687E+02  0.13364687613E+03 -0.81333742133E+03  0.84260000259E+03  0.17377765337E+03 0.  0.
        -24    2    5    5    0    0  0.47869453543E+02  0.52342510645E+02 -0.64115886483E+03  0.65009268949E+03  0.80651050660E+02 0.  0.
          5    1    3    3  501    0  0.29593024721E+02 -0.38034518970E+02 -0.43127981065E+02  0.64841996392E+02  0.47000000000E+01 0. -1.
        -13    1    4    4    0    0 -0.22877769735E+01  0.13115135719E+02 -0.11292667334E+03  0.11370872552E+03  0.00000000000E+00 0.  1.
         14    1    4    4    0    0 -0.47226169435E+02 -0.10872749288E+03 -0.54850571689E+03  0.56116886963E+03  0.00000000000E+00 0. -1.
         -5    1    5    5    0  502 -0.27948531855E+02  0.81304365482E+02 -0.17217855650E+03  0.19250731310E+03  0.47000000000E+01 0.  1.
         11    1    6    6    0    0  0.33924737204E+02  0.64904916010E+02 -0.31529894053E+03  0.32369269039E+03  0.00000000000E+00 0. -1.
        -12    1    6    6    0    0  0.13944716339E+02 -0.12562405365E+02 -0.32585992430E+03  0.32639999909E+03  0.00000000000E+00 0.  1.
<mgrwt>
<rscale>  2 0.22402865E+03</rscale>
<asrwt>0</asrwt>
<pdfrwt beam="1">  1       21 0.49555236E-02 0.22534364E+03</pdfrwt>
<pdfrwt beam="2">  1       21 0.23847824E+00 0.22534364E+03</pdfrwt>
<totfact> 0.20696574E+04</totfact>
</mgrwt>
</event>
<event>
12    1  0.1039378E-001  0.1788987E+03  0.7546771E-02  0.1170599E+00
         21   -1    0    0  503  502  0.00000000000E+00  0.00000000000E+00  0.21083247831E+03  0.21083247831E+03  0.00000000000E+00 0. -1.
         21   -1    0    0  501  503 -0.00000000000E+00 -0.00000000000E+00 -0.17192939657E+03  0.17192939657E+03  0.00000000000E+00 0. -1.
          6    2    1    2  501    0  0.15569512999E+02  0.43211907762E+01 -0.55214133277E+02  0.18061639033E+03  0.17120922148E+03 0.  0.
         24    2    3    3    0    0  0.13317286256E+02  0.86962943385E+01 -0.10317752713E+03  0.13217269925E+03  0.81061980448E+02 0.  0.
         -6    2    1    2    0  502 -0.15569512999E+02 -0.43211907762E+01  0.94117215018E+02  0.20214548455E+03  0.17816751763E+03 0.  0.
        -24    2    5    5    0    0  0.47521065524E+02  0.24179879227E+02  0.19013171628E+02  0.99893641426E+02  0.82306261451E+02 0.  0.
          5    1    3    3  501    0  0.22522267426E+01 -0.43751035623E+01  0.47963393848E+02  0.48443691085E+02  0.47000000000E+01 0. -1.
        -11    1    4    4    0    0  0.29980433857E+02  0.28312009158E+02 -0.21435622220E+02  0.46474532561E+02  0.00000000000E+00 0.  1.
         12    1    4    4    0    0 -0.16663147600E+02 -0.19615714819E+02 -0.81741904906E+02  0.85698166686E+02  0.00000000000E+00 0. -1.
         -5    1    5    5    0  502 -0.63090578523E+02 -0.28501070004E+02  0.75104043390E+02  0.10225184313E+03  0.47000000000E+01 0.  1.
         11    1    6    6    0    0  0.62690217941E+02  0.11318176860E+02  0.36492942720E+02  0.73415934383E+02  0.00000000000E+00 0. -1.
        -12    1    6    6    0    0 -0.15169152417E+02  0.12861702368E+02 -0.17479771092E+02  0.26477707044E+02  0.00000000000E+00 0.  1.
<mgrwt>
<rscale>  2 0.17714079E+03</rscale>
<asrwt>0</asrwt>
<pdfrwt beam="1">  1       21 0.32435766E-01 0.17889871E+03</pdfrwt>
<pdfrwt beam="2">  1       21 0.26450676E-01 0.17889871E+03</pdfrwt>
<totfact> 0.12494172E+05</totfact>
</mgrwt>
</event>
<event>
12    1  0.1039378E-001  0.2515320E+03  0.7546771E-02  0.1112861E+00
         21   -1    0    0  503  502  0.00000000000E+00  0.00000000000E+00  0.18463456493E+03  0.18463456493E+03  0.00000000000E+00 0.  1.
         21   -1    0    0  501  503 -0.00000000000E+00 -0.00000000000E+00 -0.56583951192E+03  0.56583951192E+03  0.00000000000E+00 0.  1.
          6    2    1    2  501    0  0.11072958407E+03 -0.14525299786E+03 -0.42785679945E+03  0.49465232819E+03  0.16810714074E+03 0.  0.
         24    2    3    3    0    0  0.77218662343E+02 -0.10855453772E+03 -0.41558491916E+03  0.44324758232E+03  0.77529250776E+02 0.  0.
         -6    2    1    2    0  502 -0.11072958407E+03  0.14525299786E+03  0.46651852464E+02  0.25582174865E+03  0.17294189073E+03 0.  0.
        -24    2    5    5    0    0 -0.86346141420E+01  0.40402365644E+02 -0.24175618065E+02  0.93169793419E+02  0.79932735383E+02 0.  0.
          5    1    3    3  501    0  0.33510921730E+02 -0.36698460136E+02 -0.12271880289E+02  0.51404745864E+02  0.47000000000E+01 0. -1.
        -13    1    4    4    0    0  0.52584756267E+02 -0.57072720751E+02 -0.12514908387E+03  0.14725741149E+03  0.00000000000E+00 0.  1.
         14    1    4    4    0    0  0.24633906076E+02 -0.51481816970E+02 -0.29043583529E+03  0.29599017083E+03  0.00000000000E+00 0. -1.
         -5    1    5    5    0  502 -0.10209496993E+03  0.10485063221E+03  0.70827470529E+02  0.16265195523E+03  0.47000000000E+01 0.  1.
         11    1    6    6    0    0  0.92094567618E+00  0.50025076148E+02 -0.45677911349E+02  0.67748269127E+02  0.00000000000E+00 0. -1.
        -12    1    6    6    0    0 -0.95555598182E+01 -0.96227105032E+01  0.21502293284E+02  0.25421524292E+02  0.00000000000E+00 0.  1.
<mgrwt>
<rscale>  2 0.25070313E+03</rscale>
<asrwt>0</asrwt>
<pdfrwt beam="1">  1       21 0.28405318E-01 0.25153205E+03</pdfrwt>
<pdfrwt beam="2">  1       21 0.87052230E-01 0.25153205E+03</pdfrwt>
<totfact> 0.12975643E+04</totfact>
</mgrwt>
</event>
<event>
12    1  0.1039378E-001  0.1786911E+03  0.7546771E-02  0.1169216E+00
         21   -1    0    0  503  502  0.00000000000E+00  0.00000000000E+00  0.23545708980E+04  0.23545708980E+04  0.00000000000E+00 0. -1.
         21   -1    0    0  501  503 -0.00000000000E+00 -0.00000000000E+00 -0.30302016401E+02  0.30302016401E+02  0.00000000000E+00 0. -1.
          6    2    1    2  501    0 -0.45466743154E+02  0.58519769862E+01  0.27384188626E+03  0.32667434265E+03  0.17211994976E+03 0.  0.
         24    2    3    3    0    0  0.34936533370E+02 -0.22965421177E+02  0.11192726859E+03  0.14355262704E+03  0.79571799914E+02 0.  0.
         -6    2    1    2    0  502  0.45466743154E+02 -0.58519769862E+01  0.20504269953E+04  0.20581985717E+04  0.17271081953E+03 0.  0.
        -24    2    5    5    0    0 -0.13937886437E+02 -0.23304920690E+02  0.17130869835E+04  0.17151914453E+04  0.80481654603E+02 0.  0.
          5    1    3    3  501    0 -0.80403276524E+02  0.28817398163E+02  0.16191461767E+03  0.18312171561E+03  0.47000000000E+01 0. -1.
        -13    1    4    4    0    0 -0.21550303935E+02 -0.22663236454E+02  0.55530500108E+02  0.63731266490E+02  0.00000000000E+00 0.  1.
         14    1    4    4    0    0  0.56486837305E+02 -0.30218472325E+00  0.56396768483E+02  0.79821360548E+02  0.00000000000E+00 0. -1.
         -5    1    5    5    0  502  0.59404629591E+02  0.17452943704E+02  0.33734001176E+03  0.34300712645E+03  0.47000000000E+01 0.  1.
         13    1    6    6    0    0  0.67365512035E+01 -0.94268436790E+01  0.15637364414E+04  0.15637793657E+04  0.00000000000E+00 0. -1.
        -14    1    6    6    0    0 -0.20674437640E+02 -0.13878077011E+02  0.14935054219E+03  0.15141207959E+03  0.00000000000E+00 0.  1.
<mgrwt>
<rscale>  2 0.17854814E+03</rscale>
<asrwt>0</asrwt>
<pdfrwt beam="1">  1       21 0.36224153E+00 0.17869107E+03</pdfrwt>
<pdfrwt beam="2">  1       21 0.46618505E-02 0.17869107E+03</pdfrwt>
<totfact> 0.45661585E+03</totfact>
</mgrwt>
</event>
<event>
12    1  0.1039378E-001  0.1763837E+03  0.7546771E-02  0.1171680E+00
         21   -1    0    0  503  502  0.00000000000E+00  0.00000000000E+00  0.79759273518E+02  0.79759273518E+02  0.00000000000E+00 0. -1.
         21   -1    0    0  501  503 -0.00000000000E+00 -0.00000000000E+00 -0.73711488675E+03  0.73711488675E+03  0.00000000000E+00 0. -1.
          6    2    1    2  501    0 -0.12771935827E+02  0.21540500424E+02 -0.61075881080E+03  0.63571813640E+03  0.17459698875E+03 0.  0.
         24    2    3    3    0    0 -0.59253792044E+02  0.36251009308E+02 -0.24885019412E+03  0.27051011506E+03  0.80150830861E+02 0.  0.
         -6    2    1    2    0  502  0.12771935827E+02 -0.21540500424E+02 -0.46596802434E+02  0.18115602386E+03  0.17326028824E+03 0.  0.
        -24    2    5    5    0    0  0.13960322106E+02 -0.80065882787E+02 -0.14335586350E+02  0.11415222766E+03  0.78865619022E+02 0.  0.
          5    1    3    3  501    0  0.46481856218E+02 -0.14710508884E+02 -0.36190861667E+03  0.36520802134E+03  0.47000000000E+01 0. -1.
        -11    1    4    4    0    0 -0.52008226949E+02  0.82215296987E+01 -0.61608748848E+02  0.81043736067E+02  0.00000000000E+00 0.  1.
         12    1    4    4    0    0 -0.72455650952E+01  0.28029479609E+02 -0.18724144527E+03  0.18946637899E+03  0.00000000000E+00 0. -1.
         -5    1    5    5    0  502 -0.11883862795E+01  0.58525382363E+02 -0.32261216084E+02  0.67003796206E+02  0.47000000000E+01 0.  1.
         13    1    6    6    0    0 -0.15549009992E+02 -0.45944209033E+02  0.24758628084E+02  0.54457613976E+02  0.00000000000E+00 0. -1.
        -14    1    6    6    0    0  0.29509332098E+02 -0.34121673754E+02 -0.39094214433E+02  0.59694613683E+02  0.00000000000E+00 0.  1.
<mgrwt>
<rscale>  2 0.17605204E+03</rscale>
<asrwt>0</asrwt>
<pdfrwt beam="1">  1       21 0.12270658E-01 0.17638374E+03</pdfrwt>
<pdfrwt beam="2">  1       21 0.11340229E+00 0.17638374E+03</pdfrwt>
<totfact> 0.34517302E+04</totfact>
</mgrwt>
</event>
<event>
12    1  0.1039378E-001  0.2041181E+03  0.7546771E-02  0.1146355E+00
         21   -1    0    0  501  502  0.00000000000E+00  0.00000000000E+00  0.56021329579E+02  0.56021329579E+02  0.00000000000E+00 0. -1.
         21   -1    0    0  502  503 -0.00000000000E+00 -0.00000000000E+00 -0.74355630533E+03  0.74355630533E+03  0.00000000000E+00 0. -1.
         -6    2    1    2    0  503 -0.98106162276E+02 -0.43706548269E+02 -0.33227535327E+03  0.38996297349E+03  0.17357744343E+03 0.  0.
        -24    2    3    3    0    0  0.13878218491E+02  0.42062698118E+01 -0.11763428568E+03  0.14312493435E+03  0.80228573533E+02 0.  0.
          6    2    1    2  501    0  0.98106162276E+02  0.43706548269E+02 -0.35525962249E+03  0.40961466142E+03  0.17331961817E+03 0.  0.
         24    2    5    5    0    0  0.10132867484E+03 -0.12311797967E+02 -0.31422954645E+03  0.33994403029E+03  0.80016592992E+02 0.  0.
          5    1    5    5  501    0 -0.32225125612E+01  0.56018346236E+02 -0.41030076031E+02  0.69670631125E+02  0.47000000000E+01 0. -1.
        -13    1    6    6    0    0  0.60677619979E+02  0.12393665499E+02 -0.26233425003E+03  0.26954523785E+03  0.00000000000E+00 0.  1.
         14    1    6    6    0    0  0.40651054858E+02 -0.24705463466E+02 -0.51895296426E+02  0.70398792442E+02  0.00000000000E+00 0. -1.
         -5    1    3    3    0  503 -0.11198438077E+03 -0.47912818081E+02 -0.21464106759E+03  0.24683803914E+03  0.47000000000E+01 0.  1.
         13    1    4    4    0    0 -0.26907145729E+02  0.19814510420E+02 -0.74939120330E+02  0.82051697547E+02  0.00000000000E+00 0. -1.
        -14    1    4    4    0    0  0.40785364220E+02 -0.15608240608E+02 -0.42695165350E+02  0.61073236804E+02  0.00000000000E+00 0.  1.
<mgrwt>
<rscale>  2 0.20406331E+03</rscale>
<asrwt>0</asrwt>
<pdfrwt beam="1">  1       21 0.86186667E-02 0.20411813E+03</pdfrwt>
<pdfrwt beam="2">  1       21 0.11439327E+00 0.20411813E+03</pdfrwt>
<totfact> 0.62222178E+04</totfact>
</mgrwt>
</event>
<event>
12    1  0.1039378E-001  0.2595688E+03  0.7546771E-02  0.1107617E+00
         21   -1    0    0  503  502  0.00000000000E+00  0.00000000000E+00  0.11583616331E+03  0.11583616331E+03  0.00000000000E+00 0. -1.
         21   -1    0    0  501  503 -0.00000000000E+00 -0.00000000000E+00 -0.62978783976E+03  0.62978783976E+03  0.00000000000E+00 0.  1.
          6    2    1    2  501    0  0.10531903867E+03 -0.15990622881E+03 -0.15120327281E+03  0.30039705111E+03  0.17525369237E+03 0.  0.
         24    2    3    3    0    0  0.84253914132E+02 -0.19018240544E+03 -0.12767629028E+03  0.25639710509E+03  0.78550436085E+02 0.  0.
         -6    2    1    2    0  502 -0.10531903867E+03  0.15990622881E+03 -0.36274840365E+03  0.44522695196E+03  0.17314309829E+03 0.  0.
        -24    2    5    5    0    0 -0.35089812261E+02  0.64181411334E+02 -0.70267681225E+02  0.12953335381E+03  0.80565465555E+02 0.  0.
          5    1    3    3  501    0  0.21065124542E+02  0.30276176633E+02 -0.23526982524E+02  0.43999946025E+02  0.47000000000E+01 0. -1.
        -11    1    4    4    0    0  0.80194473550E+02 -0.15159071138E+03 -0.13327095257E+03  0.21719126171E+03  0.00000000000E+00 0.  1.
         12    1    4    4    0    0  0.40594405824E+01 -0.38591694063E+02  0.55946622890E+01  0.39205843374E+02  0.00000000000E+00 0. -1.
         -5    1    5    5    0  502 -0.70229226412E+02  0.95724817476E+02 -0.29248072242E+03  0.31569359815E+03  0.47000000000E+01 0.  1.
         11    1    6    6    0    0 -0.29454861059E+02 -0.12398963523E+02 -0.18517462320E+02  0.36935342793E+02  0.00000000000E+00 0. -1.
        -12    1    6    6    0    0 -0.56349512021E+01  0.76580374857E+02 -0.51750218905E+02  0.92598011021E+02  0.00000000000E+00 0.  1.
<mgrwt>
<rscale>  2 0.25921298E+03</rscale>
<asrwt>0</asrwt>
<pdfrwt beam="1">  1       21 0.17820948E-01 0.25956879E+03</pdfrwt>
<pdfrwt beam="2">  1       21 0.96890439E-01 0.25956879E+03</pdfrwt>
<totfact> 0.24414928E+04</totfact>
</mgrwt>
</event>
<event>
12    1  0.1039378E-001  0.2168335E+03  0.7546771E-02  0.1136286E+00
         21   -1    0    0  501  502  0.00000000000E+00  0.00000000000E+00  0.74104270701E+02  0.74104270701E+02  0.00000000000E+00 0. -1.
         21   -1    0    0  502  503 -0.00000000000E+00 -0.00000000000E+00 -0.64220610330E+03  0.64220610330E+03  0.00000000000E+00 0. -1.
         -6    2    1    2    0  503  0.95089234125E+02 -0.90182401560E+02 -0.32421807219E+03  0.39004375037E+03  0.17274820078E+03 0.  0.
        -24    2    3    3    0    0  0.97714662493E+02 -0.12660231965E+03 -0.27539302781E+03  0.32889411205E+03  0.82180986660E+02 0.  0.
          6    2    1    2  501    0 -0.95089234125E+02  0.90182401560E+02 -0.24388376041E+03  0.32626662363E+03  0.17261457964E+03 0.  0.
         24    2    5    5    0    0 -0.10560414019E+03  0.10420352947E+03 -0.25453700856E+03  0.30522530776E+03  0.79767097164E+02 0.  0.
          5    1    5    5  501    0  0.10514906066E+02 -0.14021127906E+02  0.10653248152E+02  0.21041315870E+02  0.47000000000E+01 0. -1.
        -11    1    6    6    0    0 -0.20888281382E+02 -0.19439614650E+01 -0.87325321750E+02  0.89809860839E+02  0.00000000000E+00 0.  1.
         12    1    6    6    0    0 -0.84715858810E+02  0.10614749093E+03 -0.16721168681E+03  0.21541544692E+03  0.00000000000E+00 0. -1.
         -5    1    3    3    0  503 -0.26254283676E+01  0.36419918094E+02 -0.48825044385E+02  0.61149638325E+02  0.47000000000E+01 0.  1.
         11    1    4    4    0    0  0.73541137955E+02 -0.12595471982E+03 -0.18643856981E+03  0.23671128137E+03  0.00000000000E+00 0. -1.
        -12    1    4    4    0    0  0.24173524538E+02 -0.64759983573E+00 -0.88954457996E+02  0.92182830677E+02  0.00000000000E+00 0.  1.
<mgrwt>
<rscale>  2 0.21680689E+03</rscale>
<asrwt>0</asrwt>
<pdfrwt beam="1">  1       21 0.11400657E-01 0.21683350E+03</pdfrwt>
<pdfrwt beam="2">  1       21 0.98800936E-01 0.21683350E+03</pdfrwt>
<totfact> 0.53676197E+04</totfact>
</mgrwt>
</event>
<event>
12    1  0.1039378E-001  0.4337667E+03  0.7546771E-02  0.1032791E+00
         21   -1    0    0  501  502  0.00000000000E+00  0.00000000000E+00  0.84743609971E+03  0.84743609971E+03  0.00000000000E+00 0. -1.
         21   -1    0    0  502  503 -0.00000000000E+00 -0.00000000000E+00 -0.64300049699E+03  0.64300049699E+03  0.00000000000E+00 0. -1.
         -6    2    1    2    0  503 -0.29081657346E+03 -0.27127368795E+03 -0.50135946742E+03  0.66200419894E+03  0.16948318698E+03 0.  0.
        -24    2    3    3    0    0 -0.10829962467E+03 -0.15862229283E+03 -0.17816368859E+03  0.27408619875E+03  0.80567387491E+02 0.  0.
          6    2    1    2  501    0  0.29081657346E+03  0.27127368795E+03  0.70579507014E+03  0.82843239776E+03  0.17317581657E+03 0.  0.
         24    2    5    5    0    0  0.21133698920E+03  0.18103428140E+03  0.35755960029E+03  0.45998947508E+03  0.79402237872E+02 0.  0.
          5    1    5    5  501    0  0.79479584259E+02  0.90239406556E+02  0.34823546985E+03  0.36844292268E+03  0.47000000000E+01 0. -1.
        -13    1    6    6    0    0  0.82606591978E+02  0.12278499736E+03  0.18892222734E+03  0.23998252560E+03  0.00000000000E+00 0.  1.
         14    1    6    6    0    0  0.12873039723E+03  0.58249284042E+02  0.16863737295E+03  0.22000694948E+03  0.00000000000E+00 0. -1.
         -5    1    3    3    0  503 -0.18251694879E+03 -0.11265139513E+03 -0.32319577883E+03  0.38791800019E+03  0.47000000000E+01 0.  1.
         13    1    4    4    0    0 -0.12787104879E+02 -0.35592998995E+02 -0.83898938782E+02  0.92029362474E+02  0.00000000000E+00 0. -1.
        -14    1    4    4    0    0 -0.95512519795E+02 -0.12302929383E+03 -0.94264749809E+02  0.18205683628E+03  0.00000000000E+00 0.  1.
<mgrwt>
<rscale>  2 0.43340100E+03</rscale>
<asrwt>0</asrwt>
<pdfrwt beam="1">  1       21 0.13037478E+00 0.43376671E+03</pdfrwt>
<pdfrwt beam="2">  1       21 0.98923153E-01 0.43376671E+03</pdfrwt>
<totfact> 0.30082452E+02</totfact>
</mgrwt>
</event>
<event>
12    1  0.1039378E-001  0.1891322E+03  0.7546771E-02  0.1159430E+00
         21   -1    0    0  501  502  0.00000000000E+00  0.00000000000E+00  0.53459963586E+02  0.53459963586E+02  0.00000000000E+00 0. -1.
         21   -1    0    0  502  503 -0.00000000000E+00 -0.00000000000E+00 -0.66649591395E+03  0.66649591395E+03  0.00000000000E+00 0. -1.
         -6    2    1    2    0  503 -0.58717936459E+02 -0.48755380982E+02 -0.31265548984E+03  0.36499192475E+03  0.17216494002E+03 0.  0.
        -24    2    3    3    0    0 -0.93227233416E+02  0.30922445258E+01 -0.23836711732E+03  0.26793565170E+03  0.79181764354E+02 0.  0.
          6    2    1    2  501    0  0.58717936459E+02  0.48755380982E+02 -0.30038046052E+03  0.35496395278E+03  0.17304942494E+03 0.  0.
         24    2    5    5    0    0  0.65157059522E+02 -0.29664264477E+02 -0.20310537164E+03  0.22976157255E+03  0.80082315377E+02 0.  0.
          5    1    5    5  501    0 -0.64391230622E+01  0.78419645459E+02 -0.97275088881E+02  0.12520238023E+03  0.47000000000E+01 0. -1.
        -11    1    6    6    0    0  0.22397553768E+02  0.12799416517E+02 -0.14056317455E+03  0.14291074668E+03  0.00000000000E+00 0.  1.
         12    1    6    6    0    0  0.42759505753E+02 -0.42463680994E+02 -0.62542197094E+02  0.86850825864E+02  0.00000000000E+00 0. -1.
         -5    1    3    3    0  503  0.34509296956E+02 -0.51847625508E+02 -0.74288372512E+02  0.97056273046E+02  0.47000000000E+01 0.  1.
         11    1    4    4    0    0 -0.13163413175E+02 -0.28015630597E+02 -0.10357853968E+03  0.10810487910E+03  0.00000000000E+00 0. -1.
        -12    1    4    4    0    0 -0.80063820241E+02  0.31107875123E+02 -0.13478857765E+03  0.15983077260E+03  0.00000000000E+00 0.  1.
<mgrwt>
<rscale>  2 0.18892963E+03</rscale>
<asrwt>0</asrwt>
<pdfrwt beam="1">  1       21 0.82246097E-02 0.18913219E+03</pdfrwt>
<pdfrwt beam="2">  1       21 0.10253783E+00 0.18913219E+03</pdfrwt>
<totfact> 0.88567239E+04</totfact>
</mgrwt>
</event>
<event>
12    1  0.1039378E-001  0.1934162E+03  0.7546771E-02  0.1155541E+00
         21   -1    0    0  501  502  0.00000000000E+00  0.00000000000E+00  0.34809235623E+03  0.34809235623E+03  0.00000000000E+00 0. -1.
         21   -1    0    0  502  503 -0.00000000000E+00 -0.00000000000E+00 -0.10817181374E+03  0.10817181374E+03  0.00000000000E+00 0. -1.
         -6    2    1    2    0  503 -0.80818505263E+02 -0.28760881290E+02  0.98032003023E+02  0.21684114649E+03  0.17335221403E+03 0.  0.
        -24    2    3    3    0    0 -0.34742095134E+02  0.19502063378E+02 -0.78397438456E+01  0.91608306616E+02  0.82117456166E+02 0.  0.
          6    2    1    2  501    0  0.80818505263E+02  0.28760881290E+02  0.14188853947E+03  0.23942302347E+03  0.17272002620E+03 0.  0.
         24    2    5    5    0    0  0.95359445485E+02 -0.13457951597E+02  0.48320460028E+02  0.13563986355E+03  0.82393964721E+02 0.  0.
          5    1    5    5  501    0 -0.14540940222E+02  0.42218832887E+02  0.93568079440E+02  0.10378315992E+03  0.47000000000E+01 0. -1.
        -11    1    6    6    0    0  0.55853768127E+02 -0.45375367932E+02  0.44717159055E+02  0.84724209898E+02  0.00000000000E+00 0.  1.
         12    1    6    6    0    0  0.39505677358E+02  0.31917416335E+02  0.36033009730E+01  0.50915653653E+02  0.00000000000E+00 0. -1.
         -5    1    3    3    0  503 -0.46076410128E+02 -0.48262944667E+02  0.10587174687E+03  0.12523283988E+03  0.47000000000E+01 0.  1.
         11    1    4    4    0    0 -0.48086030519E+02  0.30497158300E+02  0.18699699581E+02  0.59933477788E+02  0.00000000000E+00 0. -1.
        -12    1    4    4    0    0  0.13343935385E+02 -0.10995094922E+02 -0.26539443426E+02  0.31674828828E+02  0.00000000000E+00 0.  1.
<mgrwt>
<rscale>  2 0.19327440E+03</rscale>
<asrwt>0</asrwt>
<pdfrwt beam="1">  1       21 0.53552670E-01 0.19341616E+03</pdfrwt>
<pdfrwt beam="2">  1       21 0.16641818E-01 0.19341616E+03</pdfrwt>
<totfact> 0.10702969E+05</totfact>
</mgrwt>
</event>
<event>
12    1  0.1039378E-001  0.1765987E+03  0.7546771E-02  0.1171441E+00
         21   -1    0    0  501  502  0.00000000000E+00  0.00000000000E+00  0.24592616693E+03  0.24592616693E+03  0.00000000000E+00 0. -1.
         21   -1    0    0  502  503 -0.00000000000E+00 -0.00000000000E+00 -0.20911934193E+03  0.20911934193E+03  0.00000000000E+00 0. -1.
         -6    2    1    2    0  503  0.10948539513E+01 -0.34550544500E+02 -0.12513131172E+03  0.21543943863E+03  0.17193419588E+03 0.  0.
        -24    2    3    3    0    0  0.65683915896E+02 -0.16419578652E+02 -0.55721935893E+02  0.11879457173E+03  0.80145098175E+02 0.  0.
          6    2    1    2  501    0 -0.10948539513E+01  0.34550544500E+02  0.16193813671E+03  0.23960607023E+03  0.17318247584E+03 0.  0.
         24    2    5    5    0    0 -0.41864790812E+02 -0.25880496976E+02  0.58316277142E+02  0.11282405926E+03  0.83102462867E+02 0.  0.
          5    1    5    5  501    0  0.40769936861E+02  0.60431041476E+02  0.10362185957E+03  0.12678201097E+03  0.47000000000E+01 0. -1.
        -13    1    6    6    0    0  0.25348252145E+02 -0.30213772378E+01  0.17231032095E+02  0.30798881055E+02  0.00000000000E+00 0.  1.
         14    1    6    6    0    0 -0.67213042957E+02 -0.22859119738E+02  0.41085245048E+02  0.82025178204E+02  0.00000000000E+00 0. -1.
         -5    1    3    3    0  503 -0.64589061945E+02 -0.18130965848E+02 -0.69409375827E+02  0.96644866901E+02  0.47000000000E+01 0.  1.
         13    1    4    4    0    0  0.57741111614E+02 -0.45018789388E+02 -0.49744695103E+02  0.88517015649E+02  0.00000000000E+00 0. -1.
        -14    1    4    4    0    0  0.79428042821E+01  0.28599210736E+02 -0.59772407897E+01  0.30277556078E+02  0.00000000000E+00 0.  1.
<mgrwt>
<rscale>  2 0.17629193E+03</rscale>
<asrwt>0</asrwt>
<pdfrwt beam="1">  1       21 0.37834795E-01 0.17659872E+03</pdfrwt>
<pdfrwt beam="2">  1       21 0.32172207E-01 0.17659872E+03</pdfrwt>
<totfact> 0.63058951E+04</totfact>
</mgrwt>
</event>
<event>
12    1  0.1039378E-001  0.2007532E+03  0.7546771E-02  0.1149427E+00
         21   -1    0    0  501  502  0.00000000000E+00  0.00000000000E+00  0.73466077115E+02  0.73466077115E+02  0.00000000000E+00 0.  1.
         21   -1    0    0  502  503 -0.00000000000E+00 -0.00000000000E+00 -0.85159749023E+03  0.85159749023E+03  0.00000000000E+00 0.  1.
         -6    2    1    2    0  503 -0.49526175138E+01  0.10186332065E+03 -0.66780857446E+03  0.69733071892E+03  0.17291956197E+03 0.  0.
        -24    2    3    3    0    0  0.50351738405E+02  0.78445494920E+02 -0.29488148587E+03  0.31956932631E+03  0.80501368761E+02 0.  0.
          6    2    1    2  501    0  0.49526175138E+01 -0.10186332065E+03 -0.11032283866E+03  0.22773284843E+03  0.17114455004E+03 0.  0.
         24    2    5    5    0    0 -0.47809620059E+00  0.14749072842E+02 -0.39970565892E+02  0.91352955295E+02  0.80808121978E+02 0.  0.
          5    1    5    5  501    0  0.54307137144E+01 -0.11661239349E+03 -0.70352272763E+02  0.13637989313E+03  0.47000000000E+01 0. -1.
        -13    1    6    6    0    0 -0.99373561029E+01  0.23652622512E+02  0.18389015429E+02  0.31565067503E+02  0.00000000000E+00 0.  1.
         14    1    6    6    0    0  0.94592599023E+01 -0.89035496701E+01 -0.58359581321E+02  0.59787887792E+02  0.00000000000E+00 0. -1.
         -5    1    3    3    0  503 -0.55304355919E+02  0.23417825731E+02 -0.37292708859E+03  0.37776139261E+03  0.47000000000E+01 0.  1.
         11    1    4    4    0    0  0.41168136880E+02  0.95379680121E+02 -0.24690087905E+03  0.26786590479E+03  0.00000000000E+00 0. -1.
        -12    1    4    4    0    0  0.91836015255E+01 -0.16934185201E+02 -0.47980606821E+02  0.51703421515E+02  0.00000000000E+00 0.  1.
<mgrwt>
<rscale>  2 0.20037037E+03</rscale>
<asrwt>0</asrwt>
<pdfrwt beam="1">  1       21 0.11302473E-01 0.20075318E+03</pdfrwt>
<pdfrwt beam="2">  1       21 0.13101500E+00 0.20075318E+03</pdfrwt>
<totfact> 0.27541195E+04</totfact>
</mgrwt>
</event>
<event>
12    1  0.1039378E-001  0.1985931E+03  0.7546771E-02  0.1152826E+00
         21   -1    0    0  503  502  0.00000000000E+00  0.00000000000E+00  0.83489356176E+02  0.83489356176E+02  0.00000000000E+00 0. -1.
         21   -1    0    0  501  503 -0.00000000000E+00 -0.00000000000E+00 -0.58635262202E+03  0.58635262202E+03  0.00000000000E+00 0. -1.
          6    2    1    2  501    0 -0.10191719571E+03  0.27409689497E+02 -0.41608429951E+03  0.46104811932E+03  0.16822847016E+03 0.  0.
         24    2    3    3    0    0 -0.10517801259E+03  0.49757381783E+02 -0.21221748214E+03  0.25588033066E+03  0.83067878990E+02 0.  0.
         -6    2    1    2    0  502  0.10191719571E+03 -0.27409689497E+02 -0.86778966337E+02  0.20879385888E+03  0.15787932305E+03 0.  0.
        -24    2    5    5    0    0  0.34323957870E+02  0.13255137285E+02 -0.79621290018E+01  0.97184460590E+02  0.89596825466E+02 0.  0.
          5    1    3    3  501    0  0.32608168865E+01 -0.22347692286E+02 -0.20386681737E+03  0.20516778866E+03  0.47000000000E+01 0. -1.
        -11    1    4    4    0    0 -0.51128034434E+02 -0.91334192349E+01 -0.13539385004E+03  0.14501375755E+03  0.00000000000E+00 0.  1.
         12    1    4    4    0    0 -0.54049978161E+02  0.58890801018E+02 -0.76823632100E+02  0.11086657311E+03  0.00000000000E+00 0. -1.
         -5    1    5    5    0  502  0.67593237839E+02 -0.40664826782E+02 -0.78816837335E+02  0.11160939829E+03  0.47000000000E+01 0.  1.
         13    1    6    6    0    0 -0.58797542247E+01 -0.33332761133E+02  0.52313810320E+01  0.34249260168E+02  0.00000000000E+00 0. -1.
        -14    1    6    6    0    0  0.40203712095E+02  0.46587898418E+02 -0.13193510034E+02  0.62935200423E+02  0.00000000000E+00 0.  1.
<mgrwt>
<rscale>  2 0.19638477E+03</rscale>
<asrwt>0</asrwt>
<pdfrwt beam="1">  1       21 0.12844516E-01 0.19859311E+03</pdfrwt>
<pdfrwt beam="2">  1       21 0.90208097E-01 0.19859311E+03</pdfrwt>
<totfact> 0.54120212E+04</totfact>
</mgrwt>
</event>
<event>
12    1  0.1039378E-001  0.1752138E+03  0.7546771E-02  0.1172868E+00
         21   -1    0    0  501  502  0.00000000000E+00  0.00000000000E+00  0.19259850549E+04  0.19259850549E+04  0.00000000000E+00 0. -1.
         21   -1    0    0  502  503 -0.00000000000E+00 -0.00000000000E+00 -0.32492119897E+02  0.32492119897E+02  0.00000000000E+00 0. -1.
         -6    2    1    2    0  503 -0.26883443851E+02  0.89323265854E+00  0.24332310929E+03  0.29903137988E+03  0.17172685643E+03 0.  0.
        -24    2    3    3    0    0 -0.73918149814E+01  0.32706598537E+02  0.45026913393E+02  0.97201042339E+02  0.79348970917E+02 0.  0.
          6    2    1    2  501    0  0.26883443851E+02 -0.89323265854E+00  0.16501698257E+04  0.16594457949E+04  0.17313686828E+03 0.  0.
         24    2    5    5    0    0  0.79363764243E+02  0.22412584972E+02  0.11086550840E+04  0.11148747246E+04  0.83836896252E+02 0.  0.
          5    1    5    5  501    0 -0.52480320391E+02 -0.23305817630E+02  0.54151474167E+03  0.54457107031E+03  0.47000000000E+01 0. -1.
        -13    1    6    6    0    0  0.35744504589E+02 -0.10913536995E+02  0.14776904150E+03  0.15242199489E+03  0.00000000000E+00 0.  1.
         14    1    6    6    0    0  0.43619259654E+02  0.33326121967E+02  0.96088604253E+03  0.96245272972E+03  0.00000000000E+00 0. -1.
         -5    1    3    3    0  503 -0.19491628870E+02 -0.31813365878E+02  0.19829619590E+03  0.20183033754E+03  0.47000000000E+01 0.  1.
         13    1    4    4    0    0 -0.32836528022E+02  0.40662549256E+02  0.10050804511E+02  0.53223107348E+02  0.00000000000E+00 0. -1.
        -14    1    4    4    0    0  0.25444713040E+02 -0.79559507188E+01  0.34976108882E+02  0.43977934991E+02  0.00000000000E+00 0.  1.
<mgrwt>
<rscale>  2 0.17486451E+03</rscale>
<asrwt>0</asrwt>
<pdfrwt beam="1">  1       21 0.29630530E+00 0.17521385E+03</pdfrwt>
<pdfrwt beam="2">  1       21 0.49987892E-02 0.17521385E+03</pdfrwt>
<totfact> 0.98364897E+03</totfact>
</mgrwt>
</event>
<event>
12    1  0.1039378E-001  0.2562472E+03  0.7546771E-02  0.1110029E+00
         21   -1    0    0  503  502  0.00000000000E+00  0.00000000000E+00  0.85659363650E+02  0.85659363650E+02  0.00000000000E+00 0. -1.
         21   -1    0    0  501  503 -0.00000000000E+00 -0.00000000000E+00 -0.90303604425E+03  0.90303604425E+03  0.00000000000E+00 0.  1.
          6    2    1    2  501    0 -0.57227982711E+02 -0.17916882527E+03 -0.60633281760E+03  0.65672832039E+03  0.16815496173E+03 0.  0.
         24    2    3    3    0    0 -0.90996587402E+02 -0.17625592827E+03 -0.55357539422E+03  0.59384557751E+03  0.82827058783E+02 0.  0.
         -6    2    1    2    0  502  0.57227982711E+02  0.17916882527E+03 -0.21104386300E+03  0.33196708751E+03  0.17402909275E+03 0.  0.
        -24    2    5    5    0    0  0.62220589594E+01  0.16507914566E+03 -0.20952871044E+03  0.27882097743E+03  0.80926006987E+02 0.  0.
          5    1    3    3  501    0  0.33768604691E+02 -0.29128970036E+01 -0.52757423375E+02  0.62882742887E+02  0.47000000000E+01 0. -1.
        -11    1    4    4    0    0 -0.67927083241E+02 -0.13094806361E+03 -0.28947545878E+03  0.32489617609E+03  0.00000000000E+00 0.  1.
         12    1    4    4    0    0 -0.23069504161E+02 -0.45307864655E+02 -0.26409993544E+03  0.26894940141E+03  0.00000000000E+00 0. -1.
         -5    1    5    5    0  502  0.51005923752E+02  0.14089679608E+02 -0.15151525661E+01  0.53146110079E+02  0.47000000000E+01 0.  1.
         13    1    6    6    0    0 -0.33514925714E+02  0.10036215058E+03 -0.10035830522E+03  0.14583415561E+03  0.00000000000E+00 0. -1.
        -14    1    6    6    0    0  0.39736984673E+02  0.64716995081E+02 -0.10917040521E+03  0.13298682182E+03  0.00000000000E+00 0.  1.
<mgrwt>
<rscale>  2 0.25525331E+03</rscale>
<asrwt>0</asrwt>
<pdfrwt beam="1">  1       21 0.13178363E-01 0.25624721E+03</pdfrwt>
<pdfrwt beam="2">  1       21 0.13892863E+00 0.25624721E+03</pdfrwt>
<totfact> 0.17420916E+04</totfact>
</mgrwt>
</event>
<event>
12    1  0.1039378E-001  0.1866915E+03  0.7546771E-02  0.1161735E+00
         21   -1    0    0  501  502  0.00000000000E+00  0.00000000000E+00  0.11001574729E+03  0.11001574729E+03  0.00000000000E+00 0.  1.
         21   -1    0    0  502  503 -0.00000000000E+00 -0.00000000000E+00 -0.44505376641E+03  0.44505376641E+03  0.00000000000E+00 0. -1.
         -6    2    1    2    0  503  0.64499438861E+02 -0.26634082782E+02 -0.31793230620E+03  0.36869316953E+03  0.17315931956E+03 0.  0.
        -24    2    3    3    0    0  0.10672269813E+03  0.41557152218E-01 -0.21160975570E+03  0.25113055585E+03  0.83054989926E+02 0.  0.
          6    2    1    2  501    0 -0.64499438861E+02  0.26634082782E+02 -0.17105712920E+02  0.18637634417E+03  0.17197088204E+03 0.  0.
         24    2    5    5    0    0  0.10482458076E+02  0.62043056495E+02 -0.98274634993E+01  0.10300282797E+03  0.80955424433E+02 0.  0.
          5    1    5    5  501    0 -0.74981896937E+02 -0.35408973713E+02 -0.72782494210E+01  0.83373516193E+02  0.47000000000E+01 0. -1.
        -11    1    6    6    0    0  0.25204973003E+02  0.26161657456E+02  0.30219133588E+02  0.47253772545E+02  0.00000000000E+00 0.  1.
         12    1    6    6    0    0 -0.14722514928E+02  0.35881399039E+02 -0.40046597088E+02  0.55749055428E+02  0.00000000000E+00 0. -1.
         -5    1    3    3    0  503 -0.42223259268E+02 -0.26675639934E+02 -0.10632255051E+03  0.11756261368E+03  0.47000000000E+01 0.  1.
         11    1    4    4    0    0  0.73688004165E+02  0.31505126297E+01 -0.20422891399E+03  0.21713888873E+03  0.00000000000E+00 0. -1.
        -12    1    4    4    0    0  0.33034693964E+02 -0.31089554775E+01 -0.73808417072E+01  0.33991667122E+02  0.00000000000E+00 0.  1.
<mgrwt>
<rscale>  2 0.18641541E+03</rscale>
<asrwt>0</asrwt>
<pdfrwt beam="1">  1       21 0.16925499E-01 0.18669146E+03</pdfrwt>
<pdfrwt beam="2">  1       21 0.68469811E-01 0.18669146E+03</pdfrwt>
<totfact> 0.61342275E+04</totfact>
</mgrwt>
</event>
<event>
12    1  0.1039378E-001  0.1832790E+03  0.7546771E-02  0.1165439E+00
         21   -1    0    0  503  502  0.00000000000E+00  0.00000000000E+00  0.19657876163E+03  0.19657876163E+03  0.00000000000E+00 0. -1.
         21   -1    0    0  501  503 -0.00000000000E+00 -0.00000000000E+00 -0.12840568644E+04  0.12840568644E+04  0.00000000000E+00 0. -1.
          6    2    1    2  501    0  0.31542663506E+02 -0.56580453995E+02 -0.12345985884E+04  0.12481285518E+04  0.17144946769E+03 0.  0.
         24    2    3    3    0    0  0.46821818268E+02 -0.17552355876E+02 -0.35151915017E+03  0.36404256660E+03  0.80379782915E+02 0.  0.
         -6    2    1    2    0  502 -0.31542663506E+02  0.56580453995E+02  0.14712048562E+03  0.23250707423E+03  0.16798456739E+03 0.  0.
        -24    2    5    5    0    0 -0.79205082980E+02  0.28009861562E+02  0.64675600947E+02  0.13297198498E+03  0.80253460469E+02 0.  0.
          5    1    3    3  501    0 -0.15279154762E+02 -0.39028098118E+02 -0.88307943820E+03  0.88408598517E+03  0.47000000000E+01 0. -1.
        -11    1    4    4    0    0  0.31750237830E+01  0.27428998547E+02 -0.62858675724E+02  0.68655981904E+02  0.00000000000E+00 0.  1.
         12    1    4    4    0    0  0.43646794485E+02 -0.44981354423E+02 -0.28866047444E+03  0.29538658470E+03  0.00000000000E+00 0. -1.
         -5    1    5    5    0  502  0.47662419474E+02  0.28570592433E+02  0.82444884676E+02  0.99535089247E+02  0.47000000000E+01 0.  1.
         13    1    6    6    0    0 -0.26327558216E+02  0.29672972461E+02  0.69316752409E+02  0.79865122430E+02  0.00000000000E+00 0. -1.
        -14    1    6    6    0    0 -0.52877524764E+02 -0.16631108987E+01 -0.46411514626E+01  0.53106862550E+02  0.00000000000E+00 0.  1.
<mgrwt>
<rscale>  2 0.18246435E+03</rscale>
<asrwt>0</asrwt>
<pdfrwt beam="1">  1       21 0.30242887E-01 0.18327904E+03</pdfrwt>
<pdfrwt beam="2">  1       21 0.19754720E+00 0.18327904E+03</pdfrwt>
<totfact> 0.14757826E+03</totfact>
</mgrwt>
</event>
<event>
12    1  0.1039378E-001  0.3184013E+03  0.7546771E-02  0.1077129E+00
         21   -1    0    0  503  502  0.00000000000E+00  0.00000000000E+00  0.12578951347E+04  0.12578951347E+04  0.00000000000E+00 0.  1.
         21   -1    0    0  501  503 -0.00000000000E+00 -0.00000000000E+00 -0.10175949439E+03  0.10175949439E+03  0.00000000000E+00 0. -1.
          6    2    1    2  501    0  0.48567914668E+02  0.26151605587E+03  0.89506180996E+03  0.94790358728E+03  0.16320562898E+03 0.  0.
         24    2    3    3    0    0  0.51180114536E+02  0.19603971412E+03  0.47351746198E+03  0.52127060423E+03  0.80332324742E+02 0.  0.
         -6    2    1    2    0  502 -0.48567914668E+02 -0.26151605587E+03  0.26107383033E+03  0.41175104179E+03  0.17501395865E+03 0.  0.
        -24    2    5    5    0    0 -0.62110995109E+02 -0.27132184896E+03  0.21076506817E+03  0.35852858266E+03  0.81532258538E+02 0.  0.
          5    1    3    3  501    0 -0.26121998681E+01  0.65476341743E+02  0.42154434798E+03  0.42663298305E+03  0.47000000000E+01 0. -1.
        -11    1    4    4    0    0  0.39643475536E+02  0.19247638918E+03  0.46877205409E+03  0.50829716135E+03  0.00000000000E+00 0.  1.
         12    1    4    4    0    0  0.11536639000E+02  0.35633249450E+01  0.47454078897E+01  0.12973442878E+02  0.00000000000E+00 0. -1.
         -5    1    5    5    0  502  0.13543080441E+02  0.98057930994E+01  0.50308762162E+02  0.53222459135E+02  0.47000000000E+01 0.  1.
         11    1    6    6    0    0 -0.95407751075E+01 -0.19886163717E+03  0.12857096614E+03  0.23699677311E+03  0.00000000000E+00 0. -1.
        -12    1    6    6    0    0 -0.52570220002E+02 -0.72460211790E+02  0.82194102033E+02  0.12153180955E+03  0.00000000000E+00 0.  1.
<mgrwt>
<rscale>  2 0.31680566E+03</rscale>
<asrwt>0</asrwt>
<pdfrwt beam="1">  1       21 0.19352232E+00 0.31840128E+03</pdfrwt>
<pdfrwt beam="2">  1       21 0.15655308E-01 0.31840128E+03</pdfrwt>
<totfact> 0.49052914E+03</totfact>
</mgrwt>
</event>
<event>
12    1  0.1039378E-001  0.1873502E+03  0.7546771E-02  0.1160933E+00
         21   -1    0    0  503  502  0.00000000000E+00  0.00000000000E+00  0.43334249961E+03  0.43334249961E+03  0.00000000000E+00 0. -1.
         21   -1    0    0  501  503 -0.00000000000E+00 -0.00000000000E+00 -0.10623380927E+03  0.10623380927E+03  0.00000000000E+00 0. -1.
          6    2    1    2  501    0 -0.40911178639E+02  0.58876063853E+02  0.31686625361E+02  0.18975591623E+03  0.17280957752E+03 0.  0.
         24    2    3    3    0    0  0.42871157795E+02  0.41609238076E+02  0.29910949010E+02  0.10406539051E+03  0.79785185141E+02 0.  0.
         -6    2    1    2    0  502  0.40911178639E+02 -0.58876063853E+02  0.29542206498E+03  0.34982039265E+03  0.17308955833E+03 0.  0.
        -24    2    5    5    0    0  0.46022901203E+02  0.31634726252E+02  0.13500450185E+03  0.16549942967E+03  0.77749484632E+02 0.  0.
          5    1    3    3  501    0 -0.83782336434E+02  0.17266825778E+02  0.17756763516E+01  0.85690525715E+02  0.47000000000E+01 0. -1.
        -11    1    4    4    0    0  0.53529156845E+02  0.35198178091E+02 -0.76302769900E+01  0.64517466631E+02  0.00000000000E+00 0.  1.
         12    1    4    4    0    0 -0.10657999050E+02  0.64110599844E+01  0.37541226000E+02  0.39547923883E+02  0.00000000000E+00 0. -1.
         -5    1    5    5    0  502 -0.51117225639E+01 -0.90510790105E+02  0.16041756313E+03  0.18432096298E+03  0.47000000000E+01 0.  1.
         11    1    6    6    0    0  0.45991649307E+02 -0.10309719584E+02  0.40646479251E+02  0.62238721062E+02  0.00000000000E+00 0. -1.
        -12    1    6    6    0    0  0.31251896252E-01  0.41944445836E+02  0.94358022603E+02  0.10326070861E+03  0.00000000000E+00 0.  1.
<mgrwt>
<rscale>  2 0.18728554E+03</rscale>
<asrwt>0</asrwt>
<pdfrwt beam="1">  1       21 0.66668076E-01 0.18735024E+03</pdfrwt>
<pdfrwt beam="2">  1       21 0.16343663E-01 0.18735024E+03</pdfrwt>
<totfact> 0.69321577E+04</totfact>
</mgrwt>
</event>
<event>
12    1  0.1039378E-001  0.1761105E+03  0.7546771E-02  0.1171675E+00
         21   -1    0    0  501  502  0.00000000000E+00  0.00000000000E+00  0.21268948985E+03  0.21268948985E+03  0.00000000000E+00 0.  1.
         21   -1    0    0  502  503 -0.00000000000E+00 -0.00000000000E+00 -0.14597706221E+03  0.14597706221E+03  0.00000000000E+00 0.  1.
         -6    2    1    2    0  503 -0.12849345617E+02 -0.34186165268E+02  0.41914149606E+02  0.18081872953E+03  0.17206050516E+03 0.  0.
        -24    2    3    3    0    0 -0.52997265590E+02 -0.26322415908E+02 -0.23235545075E+02  0.10374560355E+03  0.81985852202E+02 0.  0.
          6    2    1    2  501    0  0.12849345617E+02  0.34186165268E+02  0.24798278028E+02  0.17784782252E+03  0.17228201823E+03 0.  0.
         24    2    5    5    0    0 -0.22842642639E+02  0.56574962336E+02  0.63567185085E+02  0.12039963357E+03  0.82053470724E+02 0.  0.
          5    1    5    5  501    0  0.35691988255E+02 -0.22388797068E+02 -0.38768907057E+02  0.57448188955E+02  0.47000000000E+01 0. -1.
        -13    1    6    6    0    0  0.34327325743E+01  0.19831545932E+02  0.71726757671E+02  0.74496990765E+02  0.00000000000E+00 0.  1.
         14    1    6    6    0    0 -0.26275375213E+02  0.36743416403E+02 -0.81595725868E+01  0.45902642804E+02  0.00000000000E+00 0. -1.
         -5    1    3    3    0  503  0.40147919973E+02 -0.78637493601E+01  0.65149694681E+02  0.77073125985E+02  0.47000000000E+01 0.  1.
         11    1    4    4    0    0 -0.40359031823E+02 -0.24124195462E+02  0.25403685851E+02  0.53443198924E+02  0.00000000000E+00 0. -1.
        -12    1    4    4    0    0 -0.12638233767E+02 -0.21982204458E+01 -0.48639230926E+02  0.50302404624E+02  0.00000000000E+00 0.  1.
<mgrwt>
<rscale>  2 0.17605626E+03</rscale>
<asrwt>0</asrwt>
<pdfrwt beam="1">  1       21 0.32721460E-01 0.17611046E+03</pdfrwt>
<pdfrwt beam="2">  1       21 0.22458010E-01 0.17611046E+03</pdfrwt>
<totfact> 0.16776038E+05</totfact>
</mgrwt>
</event>
<event>
12    1  0.1039378E-001  0.1920272E+03  0.7546771E-02  0.1157108E+00
         21   -1    0    0  501  502  0.00000000000E+00  0.00000000000E+00  0.16472982630E+04  0.16472982630E+04  0.00000000000E+00 0.  1.
         21   -1    0    0  502  503 -0.00000000000E+00 -0.00000000000E+00 -0.26362725516E+02  0.26362725516E+02  0.00000000000E+00 0.  1.
         -6    2    1    2    0  503 -0.53788698573E+02 -0.59115073550E+02  0.47941550312E+03  0.51644327028E+03  0.17460415451E+03 0.  0.
        -24    2    3    3    0    0 -0.16642757081E+02  0.70787688894E+01  0.99726831967E+02  0.12921333504E+03  0.80147081080E+02 0.  0.
          6    2    1    2  501    0  0.53788698573E+02  0.59115073550E+02  0.11415200344E+04  0.11572177183E+04  0.17232829868E+03 0.  0.
         24    2    5    5    0    0 -0.12981272517E+02  0.61984669597E+02  0.90859933479E+03  0.91485310466E+03  0.85981621489E+02 0.  0.
          5    1    5    5  501    0  0.66769971090E+02 -0.28695960473E+01  0.23292069963E+03  0.24236461362E+03  0.47000000000E+01 0. -1.
        -11    1    6    6    0    0  0.16035143535E+02  0.34756373507E+02  0.13751608502E+03  0.14274384388E+03  0.00000000000E+00 0.  1.
         12    1    6    6    0    0 -0.29016416052E+02  0.27228296091E+02  0.77108324977E+03  0.77210926078E+03  0.00000000000E+00 0. -1.
         -5    1    3    3    0  503 -0.37145941491E+02 -0.66193842439E+02  0.37968867115E+03  0.38722993524E+03  0.47000000000E+01 0.  1.
         11    1    4    4    0    0  0.22906858104E+02  0.27709216954E+02  0.32081818476E+02  0.48184727135E+02  0.00000000000E+00 0. -1.
        -12    1    4    4    0    0 -0.39549615185E+02 -0.20630448065E+02  0.67645013491E+02  0.81028607904E+02  0.00000000000E+00 0.  1.
<mgrwt>
<rscale>  2 0.19150830E+03</rscale>
<asrwt>0</asrwt>
<pdfrwt beam="1">  1       21 0.25343042E+00 0.19202715E+03</pdfrwt>
<pdfrwt beam="2">  1       21 0.40558052E-02 0.19202715E+03</pdfrwt>
<totfact> 0.24316418E+04</totfact>
</mgrwt>
</event>
<event>
12    1  0.1039378E-001  0.1765634E+03  0.7546771E-02  0.1171200E+00
         21   -1    0    0  501  502  0.00000000000E+00  0.00000000000E+00  0.14076750887E+04  0.14076750887E+04  0.00000000000E+00 0.  1.
         21   -1    0    0  502  503 -0.00000000000E+00 -0.00000000000E+00 -0.50677538338E+02  0.50677538338E+02  0.00000000000E+00 0.  1.
         -6    2    1    2    0  503  0.20917928973E+02 -0.27793703739E+02  0.13113929014E+03  0.21984421058E+03  0.17298529934E+03 0.  0.
        -24    2    3    3    0    0  0.11233009346E+02 -0.28138100173E+02  0.16381802529E+03  0.18543627534E+03  0.81439140603E+02 0.  0.
          6    2    1    2  501    0 -0.20917928973E+02  0.27793703739E+02  0.12258582602E+04  0.12385084165E+04  0.17310278380E+03 0.  0.
         24    2    5    5    0    0  0.45613875690E+02 -0.14842141135E+02  0.78557094510E+03  0.79116145250E+03  0.80708235850E+02 0.  0.
          5    1    5    5  501    0 -0.66531804663E+02  0.42635844874E+02  0.44028731513E+03  0.44734696396E+03  0.47000000000E+01 0. -1.
        -11    1    6    6    0    0 -0.18258297885E+02  0.99227589819E+01  0.97571129493E+02  0.99759470217E+02  0.00000000000E+00 0.  1.
         12    1    6    6    0    0  0.63872173575E+02 -0.24764900117E+02  0.68799981560E+03  0.69140198228E+03  0.00000000000E+00 0. -1.
         -5    1    3    3    0  503  0.96849196274E+01  0.34439643441E+00 -0.32678735146E+02  0.34407935245E+02  0.47000000000E+01 0.  1.
         13    1    4    4    0    0 -0.28129927828E+02  0.91517999838E+01  0.83005816766E+02  0.88119316268E+02  0.00000000000E+00 0. -1.
        -14    1    4    4    0    0  0.39362937173E+02 -0.37289900157E+02  0.80812208520E+02  0.97316959070E+02  0.00000000000E+00 0.  1.
<mgrwt>
<rscale>  2 0.17653457E+03</rscale>
<asrwt>0</asrwt>
<pdfrwt beam="1">  1       21 0.21656537E+00 0.17656337E+03</pdfrwt>
<pdfrwt beam="2">  1       21 0.77965454E-02 0.17656337E+03</pdfrwt>
<totfact> 0.13441372E+04</totfact>
</mgrwt>
</event>
<event>
12    1  0.1039378E-001  0.1905873E+03  0.7546771E-02  0.1161242E+00
         21   -1    0    0  501  502  0.00000000000E+00  0.00000000000E+00  0.12763413875E+03  0.12763413875E+03  0.00000000000E+00 0.  1.
         21   -1    0    0  502  503 -0.00000000000E+00 -0.00000000000E+00 -0.48223137139E+03  0.48223137139E+03  0.00000000000E+00 0.  1.
         -6    2    1    2    0  503 -0.31861886649E+02  0.86970198898E+00 -0.37867206771E+03  0.41776364657E+03  0.17354536388E+03 0.  0.
        -24    2    3    3    0    0  0.18128649643E+02  0.54257545370E+02 -0.17252912220E+03  0.19897991882E+03  0.80957895973E+02 0.  0.
          6    2    1    2  501    0  0.31861886649E+02 -0.86970198898E+00  0.24074835078E+02  0.19210186357E+03  0.18790314554E+03 0.  0.
         24    2    5    5    0    0  0.74461539881E+02  0.52791636038E+02  0.19325320206E+02  0.12326206734E+03  0.80551793812E+02 0.  0.
          5    1    5    5  501    0 -0.42599653232E+02 -0.53661338027E+02  0.47495148725E+01  0.68839796236E+02  0.47000000000E+01 0. -1.
        -11    1    6    6    0    0 -0.36930105893E+01 -0.42091536067E+01  0.25715871678E+02  0.26318460393E+02  0.00000000000E+00 0.  1.
         12    1    6    6    0    0  0.78154550470E+02  0.57000789644E+02 -0.63905514722E+01  0.96943606945E+02  0.00000000000E+00 0. -1.
         -5    1    3    3    0  503 -0.49990536292E+02 -0.53387843381E+02 -0.20614294551E+03  0.21878372774E+03  0.47000000000E+01 0.  1.
         13    1    4    4    0    0 -0.25307682506E+02  0.23304154154E+02 -0.26230954518E+02  0.43262285765E+02  0.00000000000E+00 0. -1.
        -14    1    4    4    0    0  0.43436332149E+02  0.30953391216E+02 -0.14629816768E+03  0.15571763306E+03  0.00000000000E+00 0.  1.
<mgrwt>
<rscale>  2 0.18694969E+03</rscale>
<asrwt>0</asrwt>
<pdfrwt beam="1">  1       21 0.19636022E-01 0.19058732E+03</pdfrwt>
<pdfrwt beam="2">  1       21 0.74189439E-01 0.19058732E+03</pdfrwt>
<totfact> 0.38954099E+04</totfact>
</mgrwt>
</event>
<event>
12    1  0.1039378E-001  0.1948950E+03  0.7546771E-02  0.1154268E+00
         21   -1    0    0  503  502  0.00000000000E+00  0.00000000000E+00  0.66134255898E+02  0.66134255898E+02  0.00000000000E+00 0.  1.
         21   -1    0    0  501  503 -0.00000000000E+00 -0.00000000000E+00 -0.97729171753E+03  0.97729171753E+03  0.00000000000E+00 0.  1.
          6    2    1    2  501    0  0.83708721936E+02 -0.30815650056E+02 -0.79187944206E+03  0.81551034163E+03  0.17328390615E+03 0.  0.
         24    2    3    3    0    0  0.12433120735E+03 -0.45741012122E+02 -0.63069750578E+03  0.64855328327E+03  0.72742890578E+02 0.  0.
         -6    2    1    2    0  502 -0.83708721936E+02  0.30815650056E+02 -0.11927801957E+03  0.22791563180E+03  0.17251531772E+03 0.  0.
        -24    2    5    5    0    0  0.15247145919E+02  0.13418340724E+01 -0.83593910949E+02  0.11857023766E+03  0.82684238720E+02 0.  0.
          5    1    3    3  501    0 -0.40622485414E+02  0.14925362066E+02 -0.16118193628E+03  0.16695705836E+03  0.47000000000E+01 0. -1.
        -11    1    4    4    0    0  0.45833577218E+02  0.34069192835E+01 -0.10298078891E+03  0.11277130302E+03  0.00000000000E+00 0.  1.
         12    1    4    4    0    0  0.78497630132E+02 -0.49147931406E+02 -0.52771671687E+03  0.53578198026E+03  0.00000000000E+00 0. -1.
         -5    1    5    5    0  502 -0.98955867855E+02  0.29473815984E+02 -0.35684108621E+02  0.10934539414E+03  0.47000000000E+01 0.  1.
         11    1    6    6    0    0 -0.16506647188E+02  0.25655658947E+02 -0.69950924849E+02  0.76313918289E+02  0.00000000000E+00 0. -1.
        -12    1    6    6    0    0  0.31753793107E+02 -0.24313824875E+02 -0.13642986100E+02  0.42256319367E+02  0.00000000000E+00 0.  1.
<mgrwt>
<rscale>  2 0.19472403E+03</rscale>
<asrwt>0</asrwt>
<pdfrwt beam="1">  1       21 0.10174501E-01 0.19489501E+03</pdfrwt>
<pdfrwt beam="2">  1       21 0.15035257E+00 0.19489501E+03</pdfrwt>
<totfact> 0.23345088E+04</totfact>
</mgrwt>
</event>
<event>
12    1  0.1039378E-001  0.3145476E+03  0.7546771E-02  0.1078335E+00
         21   -1    0    0  503  502  0.00000000000E+00  0.00000000000E+00  0.17669290881E+04  0.17669290881E+04  0.00000000000E+00 0. -1.
         21   -1    0    0  501  503 -0.00000000000E+00 -0.00000000000E+00 -0.57356241366E+02  0.57356241366E+02  0.00000000000E+00 0.  1.
          6    2    1    2  501    0  0.33930891660E+02 -0.25984309963E+03  0.70149427850E+03  0.76827272827E+03  0.17169455555E+03 0.  0.
         24    2    3    3    0    0  0.23789081197E+01 -0.26179433811E+03  0.56210703270E+03  0.62526843012E+03  0.80339024311E+02 0.  0.
         -6    2    1    2    0  502 -0.33930891660E+02  0.25984309963E+03  0.10080785682E+04  0.10560126012E+04  0.17398411512E+03 0.  0.
        -24    2    5    5    0    0 -0.32143401526E+02  0.13648076554E+03  0.78064368802E+03  0.79722663687E+03  0.80656960426E+02 0.  0.
          5    1    3    3  501    0  0.31551983540E+02  0.19512384849E+01  0.13938724580E+03  0.14300429815E+03  0.47000000000E+01 0. -1.
        -11    1    4    4    0    0 -0.15079748072E+02 -0.59702340590E+02  0.21075293617E+03  0.21956449708E+03  0.00000000000E+00 0.  1.
         12    1    4    4    0    0  0.17458656192E+02 -0.20209199752E+03  0.35135409653E+03  0.40570393304E+03  0.00000000000E+00 0. -1.
         -5    1    5    5    0  502 -0.17874901331E+01  0.12336233409E+03  0.22743488019E+03  0.25878596430E+03  0.47000000000E+01 0.  1.
         11    1    6    6    0    0 -0.20634244626E+02  0.92022076761E+02  0.30194033336E+03  0.31632546462E+03  0.00000000000E+00 0. -1.
        -12    1    6    6    0    0 -0.11509156900E+02  0.44458688782E+02  0.47870335467E+03  0.48090117225E+03  0.00000000000E+00 0.  1.
<mgrwt>
<rscale>  2 0.31423201E+03</rscale>
<asrwt>0</asrwt>
<pdfrwt beam="1">  1       21 0.27183520E+00 0.31454763E+03</pdfrwt>
<pdfrwt beam="2">  1       21 0.88240385E-02 0.31454763E+03</pdfrwt>
<totfact> 0.45203932E+03</totfact>
</mgrwt>
</event>
<event>
12    1  0.1039378E-001  0.3381477E+03  0.7546771E-02  0.1068090E+00
         21   -1    0    0  501  502  0.00000000000E+00  0.00000000000E+00  0.50921424620E+03  0.50921424620E+03  0.00000000000E+00 0.  1.
         21   -1    0    0  502  503 -0.00000000000E+00 -0.00000000000E+00 -0.48719376592E+03  0.48719376592E+03  0.00000000000E+00 0. -1.
         -6    2    1    2    0  503  0.79915992677E+02 -0.27409616530E+03 -0.35695284438E+03  0.48850577631E+03  0.17235801884E+03 0.  0.
        -24    2    3    3    0    0  0.64623693211E+02 -0.11464387216E+03 -0.97649432031E+02  0.18367920616E+03  0.82965053205E+02 0.  0.
          6    2    1    2  501    0 -0.79915992677E+02  0.27409616530E+03  0.37897332466E+03  0.50790223582E+03  0.18118671758E+03 0.  0.
         24    2    5    5    0    0 -0.10092968288E+03  0.25779468707E+03  0.38378858976E+03  0.48046885931E+03  0.83136884555E+02 0.  0.
          5    1    5    5  501    0  0.21013690201E+02  0.16301478233E+02 -0.48152651014E+01  0.27433376504E+02  0.47000000000E+01 0. -1.
        -13    1    6    6    0    0  0.68672801379E+01  0.38820937090E+02  0.91800782775E+02  0.99907999735E+02  0.00000000000E+00 0.  1.
         14    1    6    6    0    0 -0.10779696302E+03  0.21897374998E+03  0.29198780699E+03  0.38056085958E+03  0.00000000000E+00 0. -1.
         -5    1    3    3    0  503  0.15292299466E+02 -0.15945229314E+03 -0.25930341235E+03  0.30482657014E+03  0.47000000000E+01 0.  1.
         11    1    4    4    0    0  0.34463302640E+02 -0.11144851464E+03 -0.99454885790E+02  0.15329633052E+03  0.00000000000E+00 0. -1.
        -12    1    4    4    0    0  0.30160390571E+02 -0.31953575222E+01  0.18054537595E+01  0.30382875643E+02  0.00000000000E+00 0.  1.
<mgrwt>
<rscale>  2 0.33697989E+03</rscale>
<asrwt>0</asrwt>
<pdfrwt beam="1">  1       21 0.78340653E-01 0.33814775E+03</pdfrwt>
<pdfrwt beam="2">  1       21 0.74952887E-01 0.33814775E+03</pdfrwt>
<totfact> 0.20806870E+03</totfact>
</mgrwt>
</event>
<event>
12    1  0.1039378E-001  0.2320677E+03  0.7546771E-02  0.1126364E+00
         21   -1    0    0  503  502  0.00000000000E+00  0.00000000000E+00  0.24327614755E+04  0.24327614755E+04  0.00000000000E+00 0. -1.
         21   -1    0    0  501  503 -0.00000000000E+00 -0.00000000000E+00 -0.35846576723E+02  0.35846576723E+02  0.00000000000E+00 0.  1.
          6    2    1    2  501    0  0.45825655569E+02  0.15023033374E+03  0.42832946250E+03  0.48715656932E+03  0.17083983934E+03 0.  0.
         24    2    3    3    0    0 -0.34992066070E+01  0.13927413288E+03  0.22026735199E+03  0.27299562004E+03  0.81236529189E+02 0.  0.
         -6    2    1    2    0  502 -0.45825655569E+02 -0.15023033374E+03  0.19685854363E+04  0.19814514829E+04  0.16171646570E+03 0.  0.
        -24    2    5    5    0    0  0.33861894510E+02 -0.73532189427E+02  0.10858294985E+04  0.10917814055E+04  0.80045779111E+02 0.  0.
          5    1    3    3  501    0  0.49324862176E+02  0.10956200862E+02  0.20806211051E+03  0.21416094928E+03  0.47000000000E+01 0. -1.
        -13    1    4    4    0    0  0.16310843459E+02  0.31131355983E+02  0.11379631454E+02  0.36941859072E+02  0.00000000000E+00 0.  1.
         14    1    4    4    0    0 -0.19810050066E+02  0.10814277690E+03  0.20888772053E+03  0.23605376097E+03  0.00000000000E+00 0. -1.
         -5    1    5    5    0  502 -0.79687550079E+02 -0.76698144313E+02  0.88275593776E+03  0.88967007740E+03  0.47000000000E+01 0.  1.
         11    1    6    6    0    0 -0.19859732036E+02 -0.45664955802E+02  0.35907861443E+03  0.36251503208E+03  0.00000000000E+00 0. -1.
        -12    1    6    6    0    0  0.53721626547E+02 -0.27867233625E+02  0.72675088411E+03  0.72926637343E+03  0.00000000000E+00 0.  1.
<mgrwt>
<rscale>  2 0.23039165E+03</rscale>
<asrwt>0</asrwt>
<pdfrwt beam="1">  1       21 0.37427087E+00 0.23206765E+03</pdfrwt>
<pdfrwt beam="2">  1       21 0.55148599E-02 0.23206765E+03</pdfrwt>
<totfact> 0.27122154E+03</totfact>
</mgrwt>
</event>
<event>
12    1  0.1039378E-001  0.2283846E+03  0.7546771E-02  0.1127814E+00
         21   -1    0    0  503  502  0.00000000000E+00  0.00000000000E+00  0.18778534695E+03  0.18778534695E+03  0.00000000000E+00 0.  1.
         21   -1    0    0  501  503 -0.00000000000E+00 -0.00000000000E+00 -0.51732649825E+03  0.51732649825E+03  0.00000000000E+00 0.  1.
          6    2    1    2  501    0 -0.14373142526E+03  0.38819016405E+02 -0.40475940223E+03  0.46465950493E+03  0.17295271950E+03 0.  0.
         24    2    3    3    0    0 -0.16890832322E+03  0.16338046652E+02 -0.37472037902E+03  0.41923150577E+03  0.80887202666E+02 0.  0.
         -6    2    1    2    0  502  0.14373142526E+03 -0.38819016405E+02  0.75218250931E+02  0.24045234028E+03  0.17318748231E+03 0.  0.
        -24    2    5    5    0    0  0.13772182068E+03 -0.70989664229E+02  0.97384734201E+02  0.20064644989E+03  0.82270159109E+02 0.  0.
          5    1    3    3  501    0  0.25176897960E+02  0.22480969753E+02 -0.30039023212E+02  0.45427999158E+02  0.47000000000E+01 0. -1.
        -13    1    4    4    0    0 -0.29992807156E+02  0.15689080817E+02 -0.15964367913E+03  0.16319258569E+03  0.00000000000E+00 0.  1.
         14    1    4    4    0    0 -0.13891551606E+03  0.64896583502E+00 -0.21507669989E+03  0.25603892008E+03  0.00000000000E+00 0. -1.
         -5    1    5    5    0  502  0.60096045755E+01  0.32170647824E+02 -0.22166483271E+02  0.39805890383E+02  0.47000000000E+01 0.  1.
         13    1    6    6    0    0  0.51154455110E+02 -0.65985681561E+02  0.23526960247E+02  0.86743335808E+02  0.00000000000E+00 0. -1.
        -14    1    6    6    0    0  0.86567365572E+02 -0.50039826679E+01  0.73857773955E+02  0.11390311409E+03  0.00000000000E+00 0.  1.
<mgrwt>
<rscale>  2 0.22834013E+03</rscale>
<asrwt>0</asrwt>
<pdfrwt beam="1">  1       21 0.28890054E-01 0.22838464E+03</pdfrwt>
<pdfrwt beam="2">  1       21 0.79588691E-01 0.22838464E+03</pdfrwt>
<totfact> 0.15612668E+04</totfact>
</mgrwt>
</event>
<event>
12    1  0.1039378E-001  0.1898406E+03  0.7546771E-02  0.1158606E+00
         21   -1    0    0  501  502  0.00000000000E+00  0.00000000000E+00  0.83093385407E+02  0.83093385407E+02  0.00000000000E+00 0.  1.
         21   -1    0    0  502  503 -0.00000000000E+00 -0.00000000000E+00 -0.45603588403E+03  0.45603588403E+03  0.00000000000E+00 0.  1.
         -6    2    1    2    0  503 -0.73829406899E+02  0.21015259542E+02 -0.24611138760E+03  0.31082193963E+03  0.17362903153E+03 0.  0.
        -24    2    3    3    0    0 -0.26681353334E+02 -0.24000552885E+02 -0.21846365522E+03  0.23985822052E+03  0.92291257145E+02 0.  0.
          6    2    1    2  501    0  0.73829406899E+02 -0.21015259542E+02 -0.12683111102E+03  0.22830732980E+03  0.17362512394E+03 0.  0.
         24    2    5    5    0    0  0.10132557432E+03  0.23603543804E+02 -0.99469744144E+02  0.16899787666E+03  0.88555367000E+02 0.  0.
          5    1    5    5  501    0 -0.27496167420E+02 -0.44618803347E+02 -0.27361366873E+02  0.59309453142E+02  0.47000000000E+01 0. -1.
        -13    1    6    6    0    0  0.46334830913E+02  0.39920072924E+02 -0.89171075113E+01  0.61806501149E+02  0.00000000000E+00 0.  1.
         14    1    6    6    0    0  0.54990743406E+02 -0.16316529120E+02 -0.90552636633E+02  0.10719137551E+03  0.00000000000E+00 0. -1.
         -5    1    3    3    0  503 -0.47148053565E+02  0.45015812427E+02 -0.27647732379E+02  0.70963719105E+02  0.47000000000E+01 0.  1.
         13    1    4    4    0    0 -0.21757339596E+02  0.14811299834E+02 -0.18914795278E+03  0.19097042826E+03  0.00000000000E+00 0. -1.
        -14    1    4    4    0    0 -0.49240137383E+01 -0.38811852719E+02 -0.29315702444E+02  0.48887792265E+02  0.00000000000E+00 0.  1.
<mgrwt>
<rscale>  2 0.18983973E+03</rscale>
<asrwt>0</asrwt>
<pdfrwt beam="1">  1       21 0.12783598E-01 0.18984063E+03</pdfrwt>
<pdfrwt beam="2">  1       21 0.70159363E-01 0.18984063E+03</pdfrwt>
<totfact> 0.96695611E+04</totfact>
</mgrwt>
</event>
<event>
12    1  0.1039378E-001  0.1901913E+03  0.7546771E-02  0.1158325E+00
         21   -1    0    0  501  502  0.00000000000E+00  0.00000000000E+00  0.76911875269E+02  0.76911875269E+02  0.00000000000E+00 0.  1.
         21   -1    0    0  502  503 -0.00000000000E+00 -0.00000000000E+00 -0.54233735075E+03  0.54233735075E+03  0.00000000000E+00 0.  1.
         -6    2    1    2    0  503  0.61217475307E+02  0.48045884182E+02 -0.11948596392E+03  0.22447476907E+03  0.17336677914E+03 0.  0.
        -24    2    3    3    0    0 -0.25814975279E+02  0.51826965492E+02 -0.41111130165E+02  0.10719881844E+03  0.80305755406E+02 0.  0.
          6    2    1    2  501    0 -0.61217475307E+02 -0.48045884182E+02 -0.34593951157E+03  0.39477445695E+03  0.17354175269E+03 0.  0.
         24    2    5    5    0    0  0.14003980549E+02 -0.69155008499E+02 -0.23964498593E+03  0.26277264359E+03  0.81493657814E+02 0.  0.
          5    1    5    5  501    0 -0.75221455856E+02  0.21109124318E+02 -0.10629452563E+03  0.13200181336E+03  0.47000000000E+01 0. -1.
        -13    1    6    6    0    0  0.19499912567E+02 -0.68969051439E+02 -0.10006974286E+03  0.12308911439E+03  0.00000000000E+00 0.  1.
         14    1    6    6    0    0 -0.54959320173E+01 -0.18595706055E+00 -0.13957524308E+03  0.13968352920E+03  0.00000000000E+00 0. -1.
         -5    1    3    3    0  503  0.87032450586E+02 -0.37810813099E+01 -0.78374833753E+02  0.11727595063E+03  0.47000000000E+01 0.  1.
         13    1    4    4    0    0 -0.26927455387E+02  0.46523193955E+02 -0.64056291513E+02  0.83622388819E+02  0.00000000000E+00 0. -1.
        -14    1    4    4    0    0  0.11124801080E+01  0.53037715364E+01  0.22945161348E+02  0.23576429624E+02  0.00000000000E+00 0.  1.
<mgrwt>
<rscale>  2 0.19015137E+03</rscale>
<asrwt>0</asrwt>
<pdfrwt beam="1">  1       21 0.11832596E-01 0.19019129E+03</pdfrwt>
<pdfrwt beam="2">  1       21 0.83436518E-01 0.19019129E+03</pdfrwt>
<totfact> 0.75308874E+04</totfact>
</mgrwt>
</event>
<event>
12    1  0.1039378E-001  0.2219360E+03  0.7546771E-02  0.1133402E+00
         21   -1    0    0  501  502  0.00000000000E+00  0.00000000000E+00  0.27735387253E+02  0.27735387253E+02  0.00000000000E+00 0.  1.
         21   -1    0    0  502  503 -0.00000000000E+00 -0.00000000000E+00 -0.17943179706E+04  0.17943179706E+04  0.00000000000E+00 0. -1.
         -6    2    1    2    0  503  0.27108954753E+02 -0.13524829903E+03 -0.10386462524E+04  0.10610363453E+04  0.16728744955E+03 0.  0.
        -24    2    3    3    0    0  0.30659293543E+02 -0.15660700470E+03 -0.10050123635E+04  0.10207606990E+04  0.80229717042E+02 0.  0.
          6    2    1    2  501    0 -0.27108954753E+02  0.13524829903E+03 -0.72793633096E+03  0.76101701249E+03  0.17386372118E+03 0.  0.
         24    2    5    5    0    0 -0.15434349196E+02  0.11770456007E+03 -0.30345360559E+03  0.33598553914E+03  0.81912204051E+02 0.  0.
          5    1    5    5  501    0 -0.11674605557E+02  0.17543738957E+02 -0.42448272537E+03  0.42503147334E+03  0.47000000000E+01 0. -1.
        -13    1    6    6    0    0 -0.43050212821E+02  0.46739278759E+02 -0.97243572287E+02  0.11616450987E+03  0.00000000000E+00 0.  1.
         14    1    6    6    0    0  0.27615863625E+02  0.70965281312E+02 -0.20621003330E+03  0.21982102927E+03  0.00000000000E+00 0. -1.
         -5    1    3    3    0  503 -0.35503387893E+01  0.21358705667E+02 -0.33633888812E+02  0.40275646362E+02  0.47000000000E+01 0.  1.
         11    1    4    4    0    0 -0.20167616699E+01 -0.18089626401E+02 -0.34964007012E+03  0.35011352522E+03  0.00000000000E+00 0. -1.
        -12    1    4    4    0    0  0.32676055212E+02 -0.13851737829E+03 -0.65537229342E+03  0.67064717375E+03  0.00000000000E+00 0.  1.
<mgrwt>
<rscale>  2 0.22064649E+03</rscale>
<asrwt>0</asrwt>
<pdfrwt beam="1">  1       21 0.42669838E-02 0.22193601E+03</pdfrwt>
<pdfrwt beam="2">  1       21 0.27604884E+00 0.22193601E+03</pdfrwt>
<totfact> 0.16052530E+04</totfact>
</mgrwt>
</event>
<event>
12    1  0.1039378E-001  0.1764576E+03  0.7546771E-02  0.1171803E+00
         21   -1    0    0  501  502  0.00000000000E+00  0.00000000000E+00  0.12735841228E+03  0.12735841228E+03  0.00000000000E+00 0. -1.
         21   -1    0    0  502  503 -0.00000000000E+00 -0.00000000000E+00 -0.51157381847E+03  0.51157381847E+03  0.00000000000E+00 0. -1.
         -6    2    1    2    0  503 -0.47891544414E+01 -0.21574182569E+02 -0.42364812586E+03  0.45812231552E+03  0.17294490474E+03 0.  0.
        -24    2    3    3    0    0  0.11071117211E+02  0.39373886709E+02 -0.34788059136E+03  0.35948649722E+03  0.80850252026E+02 0.  0.
          6    2    1    2  501    0  0.47891544414E+01  0.21574182569E+02  0.39432719672E+02  0.18080991523E+03  0.17506828585E+03 0.  0.
         24    2    5    5    0    0  0.36252166496E+02  0.31210525343E+02 -0.35692511715E+02  0.98659622347E+02  0.78558571916E+02 0.  0.
          5    1    5    5  501    0 -0.31463012054E+02 -0.96363427731E+01  0.75125231387E+02  0.82150292881E+02  0.47000000000E+01 0. -1.
        -11    1    6    6    0    0  0.47523208635E+02 -0.10495435559E+02 -0.21274612938E+02  0.53115145506E+02  0.00000000000E+00 0.  1.
         12    1    6    6    0    0 -0.11271042139E+02  0.41705960901E+02 -0.14417898776E+02  0.45544476841E+02  0.00000000000E+00 0. -1.
         -5    1    3    3    0  503 -0.15860271652E+02 -0.60948069278E+02 -0.75767534504E+02  0.98635818294E+02  0.47000000000E+01 0.  1.
         11    1    4    4    0    0  0.33125234142E+02 -0.87230213564E+01 -0.91474344203E+02  0.97677673426E+02  0.00000000000E+00 0. -1.
        -12    1    4    4    0    0 -0.22054116931E+02  0.48096908065E+02 -0.25640624715E+03  0.26180882380E+03  0.00000000000E+00 0.  1.
<mgrwt>
<rscale>  2 0.17592862E+03</rscale>
<asrwt>0</asrwt>
<pdfrwt beam="1">  1       21 0.19593602E-01 0.17645760E+03</pdfrwt>
<pdfrwt beam="2">  1       21 0.78703664E-01 0.17645760E+03</pdfrwt>
<totfact> 0.34524460E+04</totfact>
</mgrwt>
</event>
<event>
12    1  0.1039378E-001  0.2160218E+03  0.7546771E-02  0.1137225E+00
         21   -1    0    0  503  502  0.00000000000E+00  0.00000000000E+00  0.26045254771E+03  0.26045254771E+03  0.00000000000E+00 0.  1.
         21   -1    0    0  501  503 -0.00000000000E+00 -0.00000000000E+00 -0.17772220290E+03  0.17772220290E+03  0.00000000000E+00 0.  1.
          6    2    1    2  501    0  0.75561719386E+02  0.10455056200E+03  0.38782615820E+02  0.21772789104E+03  0.17105832279E+03 0.  0.
         24    2    3    3    0    0  0.31479218352E+01  0.11033344155E+03  0.36099216913E+02  0.14488222953E+03  0.86627531629E+02 0.  0.
         -6    2    1    2    0  502 -0.75561719386E+02 -0.10455056200E+03  0.43947728989E+02  0.22044685958E+03  0.17327729673E+03 0.  0.
        -24    2    5    5    0    0  0.17381986263E+02 -0.91112724586E+02  0.27801984082E+02  0.12504307049E+03  0.79114835079E+02 0.  0.
          5    1    3    3  501    0  0.72413797551E+02 -0.57828795429E+01  0.26833989079E+01  0.72845661513E+02  0.47000000000E+01 0. -1.
        -13    1    4    4    0    0  0.32858145828E+02  0.59320484860E+02  0.49976393595E+02  0.84239050256E+02  0.00000000000E+00 0.  1.
         14    1    4    4    0    0 -0.29710223993E+02  0.51012956686E+02 -0.13877176682E+02  0.60643179272E+02  0.00000000000E+00 0. -1.
         -5    1    5    5    0  502 -0.92943705649E+02 -0.13437837418E+02  0.16145744907E+02  0.95403789090E+02  0.47000000000E+01 0.  1.
         13    1    6    6    0    0  0.31579142148E+02 -0.46715687618E+02 -0.18497648608E+02  0.59344424274E+02  0.00000000000E+00 0. -1.
        -14    1    6    6    0    0 -0.14197155885E+02 -0.44397036968E+02  0.46299632690E+02  0.65698646211E+02  0.00000000000E+00 0.  1.
<mgrwt>
<rscale>  2 0.21557647E+03</rscale>
<asrwt>0</asrwt>
<pdfrwt beam="1">  1       21 0.40069623E-01 0.21602179E+03</pdfrwt>
<pdfrwt beam="2">  1       21 0.27341877E-01 0.21602179E+03</pdfrwt>
<totfact> 0.75806491E+04</totfact>
</mgrwt>
</event>
<event>
12    1  0.1039378E-001  0.2204340E+03  0.7546771E-02  0.1133825E+00
         21   -1    0    0  501  502  0.00000000000E+00  0.00000000000E+00  0.89896311519E+03  0.89896311519E+03  0.00000000000E+00 0. -1.
         21   -1    0    0  502  503 -0.00000000000E+00 -0.00000000000E+00 -0.64056496217E+02  0.64056496217E+02  0.00000000000E+00 0.  1.
         -6    2    1    2    0  503  0.13183189033E+03 -0.31684857956E+02  0.61215910316E+03  0.65063809408E+03  0.17380329212E+03 0.  0.
        -24    2    3    3    0    0  0.19873888103E+01 -0.61322923143E+01  0.31957843814E+03  0.32948694006E+03  0.79935666761E+02 0.  0.
          6    2    1    2  501    0 -0.13183189033E+03  0.31684857956E+02  0.22274751581E+03  0.31238151733E+03  0.17199470642E+03 0.  0.
         24    2    5    5    0    0 -0.93372067979E+02  0.82355564084E+02  0.11928463102E+03  0.19083590069E+03  0.81784691606E+02 0.  0.
          5    1    5    5  501    0 -0.38459822348E+02 -0.50670706128E+02  0.10346288479E+03  0.12154561663E+03  0.47000000000E+01 0. -1.
        -11    1    6    6    0    0 -0.64589974516E+02  0.81774327044E+01  0.31393098477E+02  0.72279055373E+02  0.00000000000E+00 0.  1.
         12    1    6    6    0    0 -0.28782093463E+02  0.74178131380E+02  0.87891532546E+02  0.11855684532E+03  0.00000000000E+00 0. -1.
         -5    1    3    3    0  503  0.12984450152E+03 -0.25552565642E+02  0.29258066503E+03  0.32115115403E+03  0.47000000000E+01 0.  1.
         13    1    4    4    0    0 -0.38005079783E+02  0.54919460378E+01  0.16331780732E+03  0.16777143305E+03  0.00000000000E+00 0. -1.
        -14    1    4    4    0    0  0.39992468593E+02 -0.11624238352E+02  0.15626063082E+03  0.16171550700E+03  0.00000000000E+00 0.  1.
<mgrwt>
<rscale>  2 0.22007737E+03</rscale>
<asrwt>0</asrwt>
<pdfrwt beam="1">  1       21 0.13830201E+00 0.22043403E+03</pdfrwt>
<pdfrwt beam="2">  1       21 0.98548462E-02 0.22043403E+03</pdfrwt>
<totfact> 0.30247509E+04</totfact>
</mgrwt>
</event>
<event>
12    1  0.1039378E-001  0.1827484E+03  0.7546771E-02  0.1166016E+00
         21   -1    0    0  503  502  0.00000000000E+00  0.00000000000E+00  0.55699821994E+03  0.55699821994E+03  0.00000000000E+00 0.  1.
         21   -1    0    0  501  503 -0.00000000000E+00 -0.00000000000E+00 -0.58954462636E+02  0.58954462636E+02  0.00000000000E+00 0.  1.
          6    2    1    2  501    0  0.47411614943E+02  0.25670873546E+02  0.26208140882E+03  0.31749798202E+03  0.17091357103E+03 0.  0.
         24    2    3    3    0    0 -0.33647828488E+02  0.33761533136E+02  0.95124648652E+02  0.13166810846E+03  0.77561424198E+02 0.  0.
         -6    2    1    2    0  502 -0.47411614943E+02 -0.25670873546E+02  0.23596234849E+03  0.29845470056E+03  0.17461421305E+03 0.  0.
        -24    2    5    5    0    0 -0.33645799666E+02  0.47203813190E+02  0.17938973126E+03  0.20505893696E+03  0.80673738799E+02 0.  0.
          5    1    3    3  501    0  0.81059443432E+02 -0.80906595900E+01  0.16695676017E+03  0.18582987356E+03  0.47000000000E+01 0. -1.
        -13    1    4    4    0    0  0.21460992303E+02  0.26486128255E+02  0.47518779568E+02  0.58481822751E+02  0.00000000000E+00 0.  1.
         14    1    4    4    0    0 -0.55108820792E+02  0.72754048810E+01  0.47605869084E+02  0.73186285713E+02  0.00000000000E+00 0. -1.
         -5    1    5    5    0  502 -0.13765815277E+02 -0.72874686736E+02  0.56572617231E+02  0.93395763595E+02  0.47000000000E+01 0.  1.
         11    1    6    6    0    0  0.62414942436E+01  0.18998829362E+02  0.14236255899E+03  0.14376025170E+03  0.00000000000E+00 0. -1.
        -12    1    6    6    0    0 -0.39887293910E+02  0.28204983828E+02  0.37027172268E+02  0.61298685258E+02  0.00000000000E+00 0.  1.
<mgrwt>
<rscale>  2 0.18185878E+03</rscale>
<asrwt>0</asrwt>
<pdfrwt beam="1">  1       21 0.85692031E-01 0.18274840E+03</pdfrwt>
<pdfrwt beam="2">  1       21 0.90699177E-02 0.18274840E+03</pdfrwt>
<totfact> 0.11377401E+05</totfact>
</mgrwt>
</event>
<event>
11    1  0.1039378E-001  0.1978446E+03  0.7546771E-02  0.1153318E+00
         21   -1    0    0  503  502  0.00000000000E+00  0.00000000000E+00  0.72702641139E+02  0.72702641139E+02  0.00000000000E+00 0. -1.
         21   -1    0    0  501  503 -0.00000000000E+00 -0.00000000000E+00 -0.51729433765E+03  0.51729433765E+03  0.00000000000E+00 0. -1.
          6    2    1    2  501    0  0.42421212562E+02  0.66189170932E+02 -0.23543234252E+03  0.30752380253E+03  0.18155422219E+03 0.  0.
         24    2    3    3    0    0 -0.23564366671E+02  0.10038608990E+02 -0.39221419040E+02  0.92982900215E+02  0.80320899981E+02 0.  0.
         -6    2    1    2    0  502 -0.42421212562E+02 -0.66189170932E+02 -0.20915935400E+03  0.28247317627E+03  0.17280883751E+03 0.  0.
          5    1    3    3  501    0  0.65985579233E+02  0.56150561941E+02 -0.19621092348E+03  0.21454090231E+03  0.47000000000E+01 0. -1.
        -11    1    4    4    0    0 -0.23034982764E+02 -0.19880604226E+01 -0.62574651993E+02  0.66709443764E+02  0.00000000000E+00 0.  1.
         12    1    4    4    0    0 -0.52938390714E+00  0.12026669413E+02  0.23353232954E+02  0.26273456451E+02  0.00000000000E+00 0. -1.
         -5    1    5    5    0  502  0.59778082952E+02 -0.46104376363E+02 -0.98904151607E+02  0.12451166181E+03  0.47000000000E+01 0.  1.
         11    1    5    5    0    0 -0.12987443348E+02 -0.93847459986E+01 -0.42520343927E+02  0.45439264847E+02  0.00000000000E+00 0. -1.
        -12    1    5    5    0    0 -0.89211852166E+02 -0.10700048570E+02 -0.67734858462E+02  0.11252224961E+03  0.00000000000E+00 0.  1.
<mgrwt>
<rscale>  2 0.19581526E+03</rscale>
<asrwt>0</asrwt>
<pdfrwt beam="1">  1       21 0.11185021E-01 0.19784464E+03</pdfrwt>
<pdfrwt beam="2">  1       21 0.79583746E-01 0.19784464E+03</pdfrwt>
<totfact> 0.92382097E+04</totfact>
</mgrwt>
</event>
<event>
12    1  0.1039378E-001  0.2097558E+03  0.7546771E-02  0.1141797E+00
         21   -1    0    0  501  502  0.00000000000E+00  0.00000000000E+00  0.22423499480E+03  0.22423499480E+03  0.00000000000E+00 0. -1.
         21   -1    0    0  502  503 -0.00000000000E+00 -0.00000000000E+00 -0.29343167555E+03  0.29343167555E+03  0.00000000000E+00 0. -1.
         -6    2    1    2    0  503 -0.72828532276E+02  0.95154858068E+02 -0.18372799762E+03  0.27884311697E+03  0.17215999722E+03 0.  0.
        -24    2    3    3    0    0 -0.59165559440E+02  0.42635777233E+02 -0.19405530270E+03  0.22340239269E+03  0.83263411092E+02 0.  0.
          6    2    1    2  501    0  0.72828532276E+02 -0.95154858068E+02  0.11453131687E+03  0.23882355338E+03  0.17193261756E+03 0.  0.
         24    2    5    5    0    0  0.70676161514E+02  0.61708140019E+00  0.90641247486E+02  0.13998164676E+03  0.79896965456E+02 0.  0.
          5    1    5    5  501    0  0.21523707627E+01 -0.95771939468E+02  0.23890069382E+02  0.98841906621E+02  0.47000000000E+01 0. -1.
        -13    1    6    6    0    0  0.50644679603E+02 -0.24226273124E+02  0.15342903348E+02  0.58199661208E+02  0.00000000000E+00 0.  1.
         14    1    6    6    0    0  0.20031481910E+02  0.24843354524E+02  0.75298344138E+02  0.81781985556E+02  0.00000000000E+00 0. -1.
         -5    1    3    3    0  503 -0.13662972836E+02  0.52519080834E+02  0.10327305084E+02  0.55440724280E+02  0.47000000000E+01 0.  1.
         13    1    4    4    0    0 -0.61108936592E+02  0.64430860966E+02 -0.15511168574E+03  0.17873240621E+03  0.00000000000E+00 0. -1.
        -14    1    4    4    0    0  0.19433771519E+01 -0.21795083733E+02 -0.38943616964E+02  0.44669986478E+02  0.00000000000E+00 0.  1.
<mgrwt>
<rscale>  2 0.20970916E+03</rscale>
<asrwt>0</asrwt>
<pdfrwt beam="1">  1       21 0.34497692E-01 0.20975583E+03</pdfrwt>
<pdfrwt beam="2">  1       21 0.45143335E-01 0.20975583E+03</pdfrwt>
<totfact> 0.37789283E+04</totfact>
</mgrwt>
</event>
<event>
12    1  0.1039378E-001  0.2099290E+03  0.7546771E-02  0.1141768E+00
         21   -1    0    0  501  502  0.00000000000E+00  0.00000000000E+00  0.98687000251E+02  0.98687000251E+02  0.00000000000E+00 0. -1.
         21   -1    0    0  502  503 -0.00000000000E+00 -0.00000000000E+00 -0.80673387754E+03  0.80673387754E+03  0.00000000000E+00 0. -1.
         -6    2    1    2    0  503 -0.72501082811E+02 -0.92101368439E+02 -0.65750551023E+03  0.69020553585E+03  0.17415830920E+03 0.  0.
        -24    2    3    3    0    0  0.14464785417E+02 -0.70837068830E+02 -0.23744411708E+03  0.26068382897E+03  0.79682053246E+02 0.  0.
          6    2    1    2  501    0  0.72501082811E+02  0.92101368439E+02 -0.50541367058E+02  0.21521534194E+03  0.17327476603E+03 0.  0.
         24    2    5    5    0    0  0.97329694615E+02  0.96232037851E+02 -0.78510099877E+02  0.17729618570E+03  0.80848173257E+02 0.  0.
          5    1    5    5  501    0 -0.24828611805E+02 -0.41306694125E+01  0.27968732819E+02  0.37919156234E+02  0.47000000000E+01 0. -1.
        -11    1    6    6    0    0  0.59516261904E+02  0.35100737882E+02 -0.79601186310E+02  0.10540681236E+03  0.00000000000E+00 0.  1.
         12    1    6    6    0    0  0.37813432711E+02  0.61131299970E+02  0.10910864324E+01  0.71889373338E+02  0.00000000000E+00 0. -1.
         -5    1    3    3    0  503 -0.86965868227E+02 -0.21264299609E+02 -0.42006139314E+03  0.42952170688E+03  0.47000000000E+01 0.  1.
         11    1    4    4    0    0  0.31924321113E+02 -0.81146659494E+02 -0.19724045373E+03  0.21565653065E+03  0.00000000000E+00 0. -1.
        -12    1    4    4    0    0 -0.17459535696E+02  0.10309590664E+02 -0.40203663354E+02  0.45027298314E+02  0.00000000000E+00 0.  1.
<mgrwt>
<rscale>  2 0.20974566E+03</rscale>
<asrwt>0</asrwt>
<pdfrwt beam="1">  1       21 0.15182615E-01 0.20992900E+03</pdfrwt>
<pdfrwt beam="2">  1       21 0.12411291E+00 0.20992900E+03</pdfrwt>
<totfact> 0.18427408E+04</totfact>
</mgrwt>
</event>
<event>
12    1  0.1039378E-001  0.2262920E+03  0.7546771E-02  0.1129420E+00
         21   -1    0    0  503  502  0.00000000000E+00  0.00000000000E+00  0.95662061866E+03  0.95662061866E+03  0.00000000000E+00 0.  1.
         21   -1    0    0  501  503 -0.00000000000E+00 -0.00000000000E+00 -0.55007122090E+02  0.55007122090E+02  0.00000000000E+00 0. -1.
          6    2    1    2  501    0 -0.13633653743E+03 -0.50023588030E+02  0.36359493864E+03  0.42826318362E+03  0.17354556822E+03 0.  0.
         24    2    3    3    0    0 -0.13410547477E+03 -0.93944605318E+02  0.29864495382E+03  0.34968440833E+03  0.79249667189E+02 0.  0.
         -6    2    1    2    0  502  0.13633653743E+03  0.50023588030E+02  0.53801855794E+03  0.58336455713E+03  0.17251152724E+03 0.  0.
        -24    2    5    5    0    0  0.16960859518E+03  0.56588854795E+02  0.41433691235E+03  0.45503150601E+03  0.58388530357E+02 0.  0.
          5    1    3    3  501    0 -0.22310626558E+01  0.43921017288E+02  0.64949984812E+02  0.78578775298E+02  0.47000000000E+01 0. -1.
        -13    1    4    4    0    0 -0.10047569271E+03 -0.87650489055E+02  0.16717291547E+03  0.21383347896E+03  0.00000000000E+00 0.  1.
         14    1    4    4    0    0 -0.33629782066E+02 -0.62941162628E+01  0.13147203835E+03  0.13585092937E+03  0.00000000000E+00 0. -1.
         -5    1    5    5    0  502 -0.33272057753E+02 -0.65652667655E+01  0.12368164558E+03  0.12833305112E+03  0.47000000000E+01 0.  1.
         11    1    6    6    0    0  0.96317042051E+02  0.37049356874E+01  0.18679940159E+03  0.21020160697E+03  0.00000000000E+00 0. -1.
        -12    1    6    6    0    0  0.73291553132E+02  0.52883919108E+02  0.22753751076E+03  0.24482989904E+03  0.00000000000E+00 0.  1.
<mgrwt>
<rscale>  2 0.22609374E+03</rscale>
<asrwt>0</asrwt>
<pdfrwt beam="1">  1       21 0.14717239E+00 0.22629201E+03</pdfrwt>
<pdfrwt beam="2">  1       21 0.84626349E-02 0.22629201E+03</pdfrwt>
<totfact> 0.33519424E+04</totfact>
</mgrwt>
</event>
<event>
12    1  0.1039378E-001  0.2976768E+03  0.7546771E-02  0.1086408E+00
         21   -1    0    0  501  502  0.00000000000E+00  0.00000000000E+00  0.24437581226E+03  0.24437581226E+03  0.00000000000E+00 0.  1.
         21   -1    0    0  502  503 -0.00000000000E+00 -0.00000000000E+00 -0.64994779189E+03  0.64994779189E+03  0.00000000000E+00 0. -1.
         -6    2    1    2    0  503 -0.20131124459E+03 -0.13462394077E+03 -0.50011002284E+03  0.58199786107E+03  0.17309434630E+03 0.  0.
        -24    2    3    3    0    0 -0.19778215877E+03 -0.13693693930E+03 -0.50981574080E+03  0.57041790554E+03  0.87149238200E+02 0.  0.
          6    2    1    2  501    0  0.20131124459E+03  0.13462394077E+03  0.94538043213E+02  0.31232574308E+03  0.17308987709E+03 0.  0.
         24    2    5    5    0    0  0.31601127002E+02  0.80435205778E+02  0.48074072897E+02  0.12815480740E+03  0.81511254556E+02 0.  0.
          5    1    5    5  501    0  0.16971011759E+03  0.54188734993E+02  0.46463970316E+02  0.18417093568E+03  0.47000000000E+01 0. -1.
        -13    1    6    6    0    0  0.53385930319E+02  0.80985575959E+02  0.39747340187E+02  0.10482639039E+03  0.00000000000E+00 0.  1.
         14    1    6    6    0    0 -0.21784803317E+02 -0.55037018111E+00  0.83267327097E+01  0.23328417017E+02  0.00000000000E+00 0. -1.
         -5    1    3    3    0  503 -0.35290858189E+01  0.23129985325E+01  0.97057179632E+01  0.11579955531E+02  0.47000000000E+01 0.  1.
         13    1    4    4    0    0 -0.77654532736E+02 -0.10003309721E+02 -0.12088208560E+03  0.14402350946E+03  0.00000000000E+00 0. -1.
        -14    1    4    4    0    0 -0.12012762603E+03 -0.12693362958E+03 -0.38893365521E+03  0.42639439608E+03  0.00000000000E+00 0.  1.
<mgrwt>
<rscale>  2 0.29767615E+03</rscale>
<asrwt>0</asrwt>
<pdfrwt beam="1">  1       21 0.37596279E-01 0.29767680E+03</pdfrwt>
<pdfrwt beam="2">  1       21 0.99991967E-01 0.29767680E+03</pdfrwt>
<totfact> 0.52375610E+03</totfact>
</mgrwt>
</event>
<event>
12    1  0.1039378E-001  0.1947349E+03  0.7546771E-02  0.1154368E+00
         21   -1    0    0  503  502  0.00000000000E+00  0.00000000000E+00  0.11064411196E+03  0.11064411196E+03  0.00000000000E+00 0.  1.
         21   -1    0    0  501  503 -0.00000000000E+00 -0.00000000000E+00 -0.43013238169E+03  0.43013238169E+03  0.00000000000E+00 0.  1.
          6    2    1    2  501    0 -0.60462118521E+02  0.60801635734E+02 -0.28239560720E+03  0.34302906787E+03  0.17484037221E+03 0.  0.
         24    2    3    3    0    0 -0.47716443918E+02 -0.24793114472E+02 -0.20835605488E+03  0.22904284593E+03  0.78465419920E+02 0.  0.
         -6    2    1    2    0  502  0.60462118521E+02 -0.60801635734E+02 -0.37092662528E+02  0.19774742577E+03  0.17428617875E+03 0.  0.
        -24    2    5    5    0    0  0.27356585906E+01 -0.23248551503E+02  0.41993725401E+02  0.92774452742E+02  0.79345114113E+02 0.  0.
          5    1    3    3  501    0 -0.12745674603E+02  0.85594750205E+02 -0.74039552319E+02  0.11398622194E+03  0.47000000000E+01 0. -1.
        -11    1    4    4    0    0 -0.63158762267E+02 -0.11678124461E+02 -0.19360652298E+03  0.20398258156E+03  0.00000000000E+00 0.  1.
         12    1    4    4    0    0  0.15442318349E+02 -0.13114990011E+02 -0.14749531902E+02  0.25060264370E+02  0.00000000000E+00 0. -1.
         -5    1    5    5    0  502  0.57726459930E+02 -0.37553084231E+02 -0.79086387929E+02  0.10497297303E+03  0.47000000000E+01 0.  1.
         11    1    6    6    0    0 -0.20879103277E+02 -0.31673457250E+02 -0.62090443694E+01  0.38440825691E+02  0.00000000000E+00 0. -1.
        -12    1    6    6    0    0  0.23614761868E+02  0.84249057473E+01  0.48202769770E+02  0.54333627050E+02  0.00000000000E+00 0.  1.
<mgrwt>
<rscale>  2 0.19461038E+03</rscale>
<asrwt>0</asrwt>
<pdfrwt beam="1">  1       21 0.17022171E-01 0.19473485E+03</pdfrwt>
<pdfrwt beam="2">  1       21 0.66174213E-01 0.19473485E+03</pdfrwt>
<totfact> 0.65175125E+04</totfact>
</mgrwt>
</event>
<event>
12    1  0.1039378E-001  0.1908988E+03  0.7546771E-02  0.1157739E+00
         21   -1    0    0  501  502  0.00000000000E+00  0.00000000000E+00  0.90791104055E+03  0.90791104055E+03  0.00000000000E+00 0.  1.
         21   -1    0    0  502  503 -0.00000000000E+00 -0.00000000000E+00 -0.50995406212E+02  0.50995406212E+02  0.00000000000E+00 0.  1.
         -6    2    1    2    0  503 -0.52735508286E+02 -0.61144736719E+02  0.20607405931E+03  0.28064610191E+03  0.17255724829E+03 0.  0.
        -24    2    3    3    0    0 -0.71461018330E+02  0.16757030003E+02  0.10244301323E+03  0.14957049894E+03  0.80556117066E+02 0.  0.
          6    2    1    2  501    0  0.52735508286E+02  0.61144736719E+02  0.65084157503E+03  0.67826034485E+03  0.17298157978E+03 0.  0.
         24    2    5    5    0    0  0.33614828455E+02  0.10908056166E+03  0.48709274660E+03  0.50650699693E+03  0.79129441569E+02 0.  0.
          5    1    5    5  501    0  0.19120679831E+02 -0.47935824939E+02  0.16374882843E+03  0.17175334792E+03  0.47000000000E+01 0. -1.
        -11    1    6    6    0    0  0.53999870934E+02  0.94047980092E+02  0.32939686994E+03  0.34679000353E+03  0.00000000000E+00 0.  1.
         12    1    6    6    0    0 -0.20385042479E+02  0.15032581567E+02  0.15769587666E+03  0.15971699340E+03  0.00000000000E+00 0. -1.
         -5    1    3    3    0  503  0.18725510044E+02 -0.77901766722E+02  0.10363104608E+03  0.13107560298E+03  0.47000000000E+01 0.  1.
         11    1    4    4    0    0 -0.71750390333E+02  0.20988211726E+02  0.11452556892E+03  0.13676523491E+03  0.00000000000E+00 0. -1.
        -12    1    4    4    0    0  0.28937200358E+00 -0.42311817236E+01 -0.12082555684E+02  0.12805264026E+02  0.00000000000E+00 0.  1.
<mgrwt>
<rscale>  2 0.19080259E+03</rscale>
<asrwt>0</asrwt>
<pdfrwt beam="1">  1       21 0.13967861E+00 0.19089877E+03</pdfrwt>
<pdfrwt beam="2">  1       21 0.78454478E-02 0.19089877E+03</pdfrwt>
<totfact> 0.44731907E+04</totfact>
</mgrwt>
</event>
<event>
12    1  0.1039378E-001  0.2320557E+03  0.7546771E-02  0.1125783E+00
         21   -1    0    0  501  502  0.00000000000E+00  0.00000000000E+00  0.23814418356E+03  0.23814418356E+03  0.00000000000E+00 0.  1.
         21   -1    0    0  502  503 -0.00000000000E+00 -0.00000000000E+00 -0.22441824361E+03  0.22441824361E+03  0.00000000000E+00 0.  1.
         -6    2    1    2    0  503 -0.14338356256E+03  0.54570412206E+02 -0.12211055950E+02  0.22906170619E+03  0.16965665166E+03 0.  0.
        -24    2    3    3    0    0 -0.15953875543E+02 -0.10359646224E+02 -0.22852799459E+02  0.85571029398E+02  0.80239031739E+02 0.  0.
          6    2    1    2  501    0  0.14338356256E+03 -0.54570412206E+02  0.25936995894E+02  0.23350072098E+03  0.17410652786E+03 0.  0.
         24    2    5    5    0    0  0.78225537322E+02 -0.83979724753E+02 -0.27477017771E+02  0.14413840917E+03  0.82759081873E+02 0.  0.
          5    1    5    5  501    0  0.65158025238E+02  0.29409312547E+02  0.53414013665E+02  0.89362311816E+02  0.47000000000E+01 0. -1.
        -13    1    6    6    0    0  0.81415968596E+02 -0.94538164427E+02 -0.12288754075E+02  0.12536761126E+03  0.00000000000E+00 0.  1.
         14    1    6    6    0    0 -0.31904312731E+01  0.10558439674E+02 -0.15188263696E+02  0.18770797909E+02  0.00000000000E+00 0. -1.
         -5    1    3    3    0  503 -0.12742968702E+03  0.64930058430E+02  0.10641743509E+02  0.14349067679E+03  0.47000000000E+01 0.  1.
         13    1    4    4    0    0  0.75646937384E+00 -0.44391196520E+02 -0.97299663995E+01  0.45451323638E+02  0.00000000000E+00 0. -1.
        -14    1    4    4    0    0 -0.16710344917E+02  0.34031550295E+02 -0.13122833059E+02  0.40119705760E+02  0.00000000000E+00 0.  1.
<mgrwt>
<rscale>  2 0.23122130E+03</rscale>
<asrwt>0</asrwt>
<pdfrwt beam="1">  1       21 0.36637567E-01 0.23205572E+03</pdfrwt>
<pdfrwt beam="2">  1       21 0.34525883E-01 0.23205572E+03</pdfrwt>
<totfact> 0.57078111E+04</totfact>
</mgrwt>
</event>
<event>
12    1  0.1039378E-001  0.1871405E+03  0.7546771E-02  0.1161399E+00
         21   -1    0    0  503  502  0.00000000000E+00  0.00000000000E+00  0.32452294086E+03  0.32452294086E+03  0.00000000000E+00 0.  1.
         21   -1    0    0  501  503 -0.00000000000E+00 -0.00000000000E+00 -0.13410759209E+03  0.13410759209E+03  0.00000000000E+00 0.  1.
          6    2    1    2  501    0  0.20726447114E+02 -0.67433305107E+02 -0.80155635025E+01  0.18587354119E+03  0.17177860114E+03 0.  0.
         24    2    3    3    0    0 -0.56091998874E+01 -0.60154853217E+02 -0.67707002089E+02  0.12005788952E+03  0.78610363277E+02 0.  0.
         -6    2    1    2    0  502 -0.20726447114E+02  0.67433305107E+02  0.19843091227E+03  0.27275699176E+03  0.17333410905E+03 0.  0.
        -24    2    5    5    0    0  0.54702986427E+02  0.27310711388E+02  0.10969948204E+03  0.14948988875E+03  0.81086119651E+02 0.  0.
          5    1    3    3  501    0  0.26335647002E+02 -0.72784518897E+01  0.59691438587E+02  0.65815651676E+02  0.47000000000E+01 0. -1.
        -13    1    4    4    0    0 -0.21680494515E+02  0.63612475620E+01  0.16128370224E+01  0.22651943763E+02  0.00000000000E+00 0.  1.
         14    1    4    4    0    0  0.16071294628E+02 -0.66516100779E+02 -0.69319839112E+02  0.97405945755E+02  0.00000000000E+00 0. -1.
         -5    1    5    5    0  502 -0.75429433541E+02  0.40122593719E+02  0.88731430235E+02  0.12326710300E+03  0.47000000000E+01 0.  1.
         13    1    6    6    0    0  0.47719535240E+01  0.25083096732E+02 -0.34768497563E+01  0.25768619798E+02  0.00000000000E+00 0. -1.
        -14    1    6    6    0    0  0.49931032903E+02  0.22276146566E+01  0.11317633179E+03  0.12372126896E+03  0.00000000000E+00 0.  1.
<mgrwt>
<rscale>  2 0.18677945E+03</rscale>
<asrwt>0</asrwt>
<pdfrwt beam="1">  1       21 0.49926606E-01 0.18714045E+03</pdfrwt>
<pdfrwt beam="2">  1       21 0.20631937E-01 0.18714045E+03</pdfrwt>
<totfact> 0.83423209E+04</totfact>
</mgrwt>
</event>
<event>
12    1  0.1039378E-001  0.1895058E+03  0.7546771E-02  0.1159623E+00
         21   -1    0    0  501  502  0.00000000000E+00  0.00000000000E+00  0.22758204422E+04  0.22758204422E+04  0.00000000000E+00 0. -1.
         21   -1    0    0  502  503 -0.00000000000E+00 -0.00000000000E+00 -0.15619648702E+02  0.15619648702E+02  0.00000000000E+00 0. -1.
         -6    2    1    2    0  503 -0.31391608514E+02  0.66342111457E+02  0.12121673954E+04  0.12264112319E+04  0.17131259896E+03 0.  0.
        -24    2    3    3    0    0 -0.50602559897E+02  0.67352721405E+02  0.47913559001E+03  0.49311197538E+03  0.80569836163E+02 0.  0.
          6    2    1    2  501    0  0.31391608514E+02 -0.66342111457E+02  0.10480333981E+04  0.10650288590E+04  0.17471622140E+03 0.  0.
         24    2    5    5    0    0  0.11785684132E+02 -0.21157865510E+02  0.22867884211E+03  0.24418174360E+03  0.82122794979E+02 0.  0.
          5    1    5    5  501    0  0.19605924383E+02 -0.45184245947E+02  0.81935455599E+03  0.82084711535E+03  0.47000000000E+01 0. -1.
        -11    1    6    6    0    0  0.22925258329E+02 -0.36903196498E+02  0.58259842835E+02  0.72674773260E+02  0.00000000000E+00 0.  1.
         12    1    6    6    0    0 -0.11139574197E+02  0.15745330988E+02  0.17041899928E+03  0.17150697034E+03  0.00000000000E+00 0. -1.
         -5    1    3    3    0  503  0.19210951383E+02 -0.10106099482E+01  0.73303180535E+03  0.73329925653E+03  0.47000000000E+01 0.  1.
         13    1    4    4    0    0 -0.21599877373E+02  0.10980637995E+02  0.25912370654E+02  0.35476472009E+02  0.00000000000E+00 0. -1.
        -14    1    4    4    0    0 -0.29002682524E+02  0.56372083410E+02  0.45322321935E+03  0.45763550337E+03  0.00000000000E+00 0.  1.
<mgrwt>
<rscale>  2 0.18871761E+03</rscale>
<asrwt>0</asrwt>
<pdfrwt beam="1">  1       21 0.35012596E+00 0.18950585E+03</pdfrwt>
<pdfrwt beam="2">  1       21 0.24030247E-02 0.18950585E+03</pdfrwt>
<totfact> 0.15976717E+04</totfact>
</mgrwt>
</event>
<event>
12    1  0.1039378E-001  0.2296245E+03  0.7546771E-02  0.1127316E+00
         21   -1    0    0  503  502  0.00000000000E+00  0.00000000000E+00  0.21692161389E+03  0.21692161389E+03  0.00000000000E+00 0.  1.
         21   -1    0    0  501  503 -0.00000000000E+00 -0.00000000000E+00 -0.34051296361E+03  0.34051296361E+03  0.00000000000E+00 0.  1.
          6    2    1    2  501    0  0.90841870163E+02  0.11753766702E+03 -0.21297800478E+03  0.31318852069E+03  0.17510017255E+03 0.  0.
         24    2    3    3    0    0 -0.18374088387E+02  0.31122469011E+02 -0.11690378035E+03  0.14393114670E+03  0.75785657805E+02 0.  0.
         -6    2    1    2    0  502 -0.90841870163E+02 -0.11753766702E+03  0.89386655063E+02  0.24424605681E+03  0.17204305746E+03 0.  0.
        -24    2    5    5    0    0 -0.10135108161E+03 -0.57259781543E+02  0.78909803685E+01  0.14222889160E+03  0.81339201548E+02 0.  0.
          5    1    3    3  501    0  0.10921595855E+03  0.86415198011E+02 -0.96074224429E+02  0.16925737399E+03  0.47000000000E+01 0. -1.
        -11    1    4    4    0    0  0.61768769346E+01  0.45699107200E+02 -0.10150971780E+03  0.11149343037E+03  0.00000000000E+00 0.  1.
         12    1    4    4    0    0 -0.24550965322E+02 -0.14576638188E+02 -0.15394062553E+02  0.32437716334E+02  0.00000000000E+00 0. -1.
         -5    1    5    5    0  502  0.10509211452E+02 -0.60277885480E+02  0.81495674694E+02  0.10201716521E+03  0.47000000000E+01 0.  1.
         13    1    6    6    0    0 -0.78151136779E+02 -0.59753632288E+00  0.17929241699E+02  0.80183632603E+02  0.00000000000E+00 0. -1.
        -14    1    6    6    0    0 -0.23199944835E+02 -0.56662245220E+02 -0.10038261330E+02  0.62045258999E+02  0.00000000000E+00 0.  1.
<mgrwt>
<rscale>  2 0.22904165E+03</rscale>
<asrwt>0</asrwt>
<pdfrwt beam="1">  1       21 0.33372556E-01 0.22962452E+03</pdfrwt>
<pdfrwt beam="2">  1       21 0.52386610E-01 0.22962452E+03</pdfrwt>
<totfact> 0.29309767E+04</totfact>
</mgrwt>
</event>
<event>
12    1  0.1039378E-001  0.2370111E+03  0.7546771E-02  0.1121911E+00
         21   -1    0    0  501  502  0.00000000000E+00  0.00000000000E+00  0.34611467844E+03  0.34611467844E+03  0.00000000000E+00 0.  1.
         21   -1    0    0  502  503 -0.00000000000E+00 -0.00000000000E+00 -0.27772432305E+03  0.27772432305E+03  0.00000000000E+00 0. -1.
         -6    2    1    2    0  503 -0.26396655556E+02 -0.15986625446E+03 -0.16730795037E+03  0.28958166561E+03  0.17208017917E+03 0.  0.
        -24    2    3    3    0    0  0.37548781902E+01 -0.15558620701E+03 -0.18414169914E+03  0.25446900563E+03  0.81394978620E+02 0.  0.
          6    2    1    2  501    0  0.26396655556E+02  0.15986625446E+03  0.23569830575E+03  0.33425733588E+03  0.17297477422E+03 0.  0.
         24    2    5    5    0    0  0.11294712291E+02  0.13419488617E+03  0.81508183434E+02  0.17714663713E+03  0.81249671274E+02 0.  0.
          5    1    5    5  501    0  0.15101943265E+02  0.25671368297E+02  0.15419012232E+03  0.15711069875E+03  0.47000000000E+01 0. -1.
        -11    1    6    6    0    0 -0.27735877551E+02  0.95659352200E+02  0.68185441511E+02  0.12070312755E+03  0.00000000000E+00 0.  1.
         12    1    6    6    0    0  0.39030589842E+02  0.38535533966E+02  0.13322741923E+02  0.56443509581E+02  0.00000000000E+00 0. -1.
         -5    1    3    3    0  503 -0.30151533746E+02 -0.42800474563E+01  0.16833748768E+02  0.35112659983E+02  0.47000000000E+01 0.  1.
         13    1    4    4    0    0 -0.17830526234E+02 -0.64215395555E+02 -0.28028295560E+02  0.72298893795E+02  0.00000000000E+00 0. -1.
        -14    1    4    4    0    0  0.21585404424E+02 -0.91370811451E+02 -0.15611340358E+03  0.18217011183E+03  0.00000000000E+00 0.  1.
<mgrwt>
<rscale>  2 0.23684794E+03</rscale>
<asrwt>0</asrwt>
<pdfrwt beam="1">  1       21 0.53248412E-01 0.23701113E+03</pdfrwt>
<pdfrwt beam="2">  1       21 0.42726819E-01 0.23701113E+03</pdfrwt>
<totfact> 0.17150121E+04</totfact>
</mgrwt>
</event>
<event>
12    1  0.1039378E-001  0.1933766E+03  0.7546771E-02  0.1155556E+00
         21   -1    0    0  503  502  0.00000000000E+00  0.00000000000E+00  0.17576898095E+03  0.17576898095E+03  0.00000000000E+00 0.  1.
         21   -1    0    0  501  503 -0.00000000000E+00 -0.00000000000E+00 -0.26232419507E+03  0.26232419507E+03  0.00000000000E+00 0.  1.
          6    2    1    2  501    0 -0.42384826657E+02 -0.75243929050E+02  0.52409487258E+02  0.20035286072E+03  0.17302136300E+03 0.  0.
         24    2    3    3    0    0 -0.37281471247E+02 -0.71962912777E+02  0.10028101521E+03  0.15187005456E+03  0.80247508053E+02 0.  0.
         -6    2    1    2    0  502  0.42384826657E+02  0.75243929050E+02 -0.13896470138E+03  0.23774031530E+03  0.17248520777E+03 0.  0.
        -24    2    5    5    0    0  0.61146429938E+02  0.72057962655E+02 -0.30384688647E+02  0.12740511101E+03  0.79859859326E+02 0.  0.
          5    1    3    3  501    0 -0.51033554101E+01 -0.32810162730E+01 -0.47871527950E+02  0.48482806154E+02  0.47000000000E+01 0. -1.
        -11    1    4    4    0    0  0.23909733298E+02 -0.33527377672E+02  0.28985107368E+02  0.50357689076E+02  0.00000000000E+00 0.  1.
         12    1    4    4    0    0 -0.61191204545E+02 -0.38435535104E+02  0.71295907840E+02  0.10151236549E+03  0.00000000000E+00 0. -1.
         -5    1    5    5    0  502 -0.18761603281E+02  0.31859663941E+01 -0.10858001273E+03  0.11033520428E+03  0.47000000000E+01 0.  1.
         13    1    6    6    0    0  0.88168085013E+01 -0.16885992979E+02  0.22265750579E+01  0.19178907881E+02  0.00000000000E+00 0. -1.
        -14    1    6    6    0    0  0.52329621437E+02  0.88943955634E+02 -0.32611263705E+02  0.10822620313E+03  0.00000000000E+00 0.  1.
<mgrwt>
<rscale>  2 0.19325661E+03</rscale>
<asrwt>0</asrwt>
<pdfrwt beam="1">  1       21 0.27041382E-01 0.19337661E+03</pdfrwt>
<pdfrwt beam="2">  1       21 0.40357568E-01 0.19337661E+03</pdfrwt>
<totfact> 0.77073312E+04</totfact>
</mgrwt>
</event>
<event>
12    1  0.1039378E-001  0.2540404E+03  0.7546771E-02  0.1110779E+00
         21   -1    0    0  503  502  0.00000000000E+00  0.00000000000E+00  0.17594931094E+03  0.17594931094E+03  0.00000000000E+00 0.  1.
         21   -1    0    0  501  503 -0.00000000000E+00 -0.00000000000E+00 -0.66287173878E+03  0.66287173878E+03  0.00000000000E+00 0. -1.
          6    2    1    2  501    0  0.16793655141E+03  0.80660045964E+02 -0.52376937372E+03  0.58212232101E+03  0.17269427166E+03 0.  0.
         24    2    3    3    0    0  0.14142808868E+03  0.51922480966E+01 -0.43266306317E+03  0.46079410116E+03  0.71449378755E+02 0.  0.
         -6    2    1    2    0  502 -0.16793655141E+03 -0.80660045964E+02  0.36846945878E+02  0.25669872870E+03  0.17270730031E+03 0.  0.
        -24    2    5    5    0    0 -0.10920242145E+03 -0.11774454439E+03  0.48446322149E+02  0.18611832365E+03  0.80647614257E+02 0.  0.
          5    1    3    3  501    0  0.26508462734E+02  0.75467797867E+02 -0.91106310546E+02  0.12132821985E+03  0.47000000000E+01 0. -1.
        -13    1    4    4    0    0  0.12852239163E+03  0.11806017339E+02 -0.29033458050E+03  0.31772874568E+03  0.00000000000E+00 0.  1.
         14    1    4    4    0    0  0.12905697044E+02 -0.66137692426E+01 -0.14232848267E+03  0.14306535548E+03  0.00000000000E+00 0. -1.
         -5    1    5    5    0  502 -0.58734129962E+02  0.37084498429E+02 -0.11599376271E+02  0.70580405043E+02  0.47000000000E+01 0.  1.
         11    1    6    6    0    0 -0.12139229746E+03 -0.10847193343E+03  0.36865670497E+02  0.16691712880E+03  0.00000000000E+00 0. -1.
        -12    1    6    6    0    0  0.12189876011E+02 -0.92726109649E+01  0.11580651652E+02  0.19201194858E+02  0.00000000000E+00 0.  1.
<mgrwt>
<rscale>  2 0.25403822E+03</rscale>
<asrwt>0</asrwt>
<pdfrwt beam="1">  1       21 0.27069125E-01 0.25404043E+03</pdfrwt>
<pdfrwt beam="2">  1       21 0.10198027E+00 0.25404043E+03</pdfrwt>
<totfact> 0.97994091E+03</totfact>
</mgrwt>
</event>
<event>
12    1  0.1039378E-001  0.1783482E+03  0.7546771E-02  0.1171018E+00
         21   -1    0    0  503  502  0.00000000000E+00  0.00000000000E+00  0.88581130307E+02  0.88581130307E+02  0.00000000000E+00 0.  1.
         21   -1    0    0  501  503 -0.00000000000E+00 -0.00000000000E+00 -0.11192972769E+04  0.11192972769E+04  0.00000000000E+00 0.  1.
          6    2    1    2  501    0  0.20637247447E+02 -0.28232470005E+02 -0.10143117141E+04  0.10287773318E+04  0.16831986467E+03 0.  0.
         24    2    3    3    0    0  0.14821331994E+02 -0.70756094759E+02 -0.90104381750E+03  0.90755938791E+03  0.80981384892E+02 0.  0.
         -6    2    1    2    0  502 -0.20637247447E+02  0.28232470005E+02 -0.16404432525E+02  0.17910107538E+03  0.17488602417E+03 0.  0.
        -24    2    5    5    0    0 -0.63170894678E+02  0.27097849151E+02 -0.57668595313E+02  0.11964336232E+03  0.79145510924E+02 0.  0.
          5    1    3    3  501    0  0.58159154528E+01  0.42523624754E+02 -0.11326789656E+03  0.12121794391E+03  0.47000000000E+01 0. -1.
        -13    1    4    4    0    0  0.33317185485E+02 -0.77769140678E+02 -0.60933019000E+03  0.61517587285E+03  0.00000000000E+00 0.  1.
         14    1    4    4    0    0 -0.18495853491E+02  0.70130459185E+01 -0.29171362750E+03  0.29238351506E+03  0.00000000000E+00 0. -1.
         -5    1    5    5    0  502  0.42533647231E+02  0.11346208545E+01  0.41264162788E+02  0.59457713056E+02  0.47000000000E+01 0.  1.
         11    1    6    6    0    0 -0.38888329210E+02 -0.25308776569E+02 -0.19015683197E+02  0.50144117577E+02  0.00000000000E+00 0. -1.
        -12    1    6    6    0    0 -0.24282565468E+02  0.52406625720E+02 -0.38652912116E+02  0.69499244745E+02  0.00000000000E+00 0.  1.
<mgrwt>
<rscale>  2 0.17671753E+03</rscale>
<asrwt>0</asrwt>
<pdfrwt beam="1">  1       21 0.13627867E-01 0.17834823E+03</pdfrwt>
<pdfrwt beam="2">  1       21 0.17219957E+00 0.17834823E+03</pdfrwt>
<totfact> 0.97269092E+03</totfact>
</mgrwt>
</event>
<event>
12    1  0.1039378E-001  0.1924219E+03  0.7546771E-02  0.1156538E+00
         21   -1    0    0  503  502  0.00000000000E+00  0.00000000000E+00  0.18345396663E+03  0.18345396663E+03  0.00000000000E+00 0. -1.
         21   -1    0    0  501  503 -0.00000000000E+00 -0.00000000000E+00 -0.23976120324E+03  0.23976120324E+03  0.00000000000E+00 0.  1.
          6    2    1    2  501    0 -0.54256919661E+02  0.63196390371E+02 -0.11365047719E+03  0.22347843872E+03  0.17346061375E+03 0.  0.
         24    2    3    3    0    0 -0.86504371902E+02  0.87249274432E+02 -0.67457188616E+02  0.16204270550E+03  0.81313737223E+02 0.  0.
         -6    2    1    2    0  502  0.54256919661E+02 -0.63196390371E+02  0.57343240582E+02  0.19973673115E+03  0.17224667614E+03 0.  0.
        -24    2    5    5    0    0  0.40492903893E+02 -0.86509918392E+02 -0.11740900807E+02  0.12538838005E+03  0.80378827156E+02 0.  0.
          5    1    3    3  501    0  0.32247452242E+02 -0.24052884060E+02 -0.46193288579E+02  0.61435733229E+02  0.47000000000E+01 0. -1.
        -11    1    4    4    0    0 -0.39823639091E+02  0.26201972275E+02 -0.70533085086E+02  0.85131555098E+02  0.00000000000E+00 0.  1.
         12    1    4    4    0    0 -0.46680732811E+02  0.61047302157E+02  0.30758964701E+01  0.76911150398E+02  0.00000000000E+00 0. -1.
         -5    1    5    5    0  502  0.13764015768E+02  0.23313528020E+02  0.69084141389E+02  0.74348351093E+02  0.47000000000E+01 0.  1.
         13    1    6    6    0    0 -0.17640476063E+02 -0.56602603944E+02 -0.22762951570E+01  0.59331464574E+02  0.00000000000E+00 0. -1.
        -14    1    6    6    0    0  0.58133379956E+02 -0.29907314448E+02 -0.94646056500E+01  0.66056915480E+02  0.00000000000E+00 0.  1.
<mgrwt>
<rscale>  2 0.19214790E+03</rscale>
<asrwt>0</asrwt>
<pdfrwt beam="1">  1       21 0.28223687E-01 0.19242188E+03</pdfrwt>
<pdfrwt beam="2">  1       21 0.36886339E-01 0.19242188E+03</pdfrwt>
<totfact> 0.85054315E+04</totfact>
</mgrwt>
</event>
<event>
12    1  0.1039378E-001  0.2143405E+03  0.7546771E-02  0.1138207E+00
         21   -1    0    0  501  502  0.00000000000E+00  0.00000000000E+00  0.54976439500E+03  0.54976439500E+03  0.00000000000E+00 0. -1.
         21   -1    0    0  502  503 -0.00000000000E+00 -0.00000000000E+00 -0.20764584489E+03  0.20764584489E+03  0.00000000000E+00 0.  1.
         -6    2    1    2    0  503 -0.73415686433E+02  0.10367577406E+03 -0.12173703817E+03  0.24649898007E+03  0.17263635646E+03 0.  0.
        -24    2    3    3    0    0 -0.34903302833E+02  0.12975941878E+03 -0.57435190942E+02  0.16699817649E+03  0.80832187168E+02 0.  0.
          6    2    1    2  501    0  0.73415686433E+02 -0.10367577406E+03  0.46385558827E+03  0.51091125982E+03  0.17242325683E+03 0.  0.
         24    2    5    5    0    0  0.36605696527E+02 -0.10059554086E+03  0.17734091954E+03  0.22198703343E+03  0.79806023645E+02 0.  0.
          5    1    5    5  501    0  0.36809989906E+02 -0.30802331991E+01  0.28651466873E+03  0.28892422638E+03  0.47000000000E+01 0. -1.
        -11    1    6    6    0    0  0.58856726372E+02 -0.48360508088E+02  0.91363053560E+02  0.11895402699E+03  0.00000000000E+00 0.  1.
         12    1    6    6    0    0 -0.22251029845E+02 -0.52235032773E+02  0.85977865982E+02  0.10303300644E+03  0.00000000000E+00 0. -1.
         -5    1    3    3    0  503 -0.38512383600E+02 -0.26083644722E+02 -0.64301847228E+02  0.79500803578E+02  0.47000000000E+01 0.  1.
         11    1    4    4    0    0  0.18180304929E+02  0.43684830775E+02  0.58871097321E+01  0.47681715449E+02  0.00000000000E+00 0. -1.
        -12    1    4    4    0    0 -0.53083607761E+02  0.86074588007E+02 -0.63322300674E+02  0.11931646104E+03  0.00000000000E+00 0.  1.
<mgrwt>
<rscale>  2 0.21429757E+03</rscale>
<asrwt>0</asrwt>
<pdfrwt beam="1">  1       21 0.84579138E-01 0.21434048E+03</pdfrwt>
<pdfrwt beam="2">  1       21 0.31945515E-01 0.21434048E+03</pdfrwt>
<totfact> 0.11256816E+04</totfact>
</mgrwt>
</event>
<event>
12    1  0.1039378E-001  0.2664770E+03  0.7546771E-02  0.1103361E+00
         21   -1    0    0  503  502  0.00000000000E+00  0.00000000000E+00  0.17431748551E+03  0.17431748551E+03  0.00000000000E+00 0.  1.
         21   -1    0    0  501  503 -0.00000000000E+00 -0.00000000000E+00 -0.42064968126E+03  0.42064968126E+03  0.00000000000E+00 0.  1.
          6    2    1    2  501    0  0.13271276369E+03 -0.15321243206E+03 -0.69223946834E+02  0.27500258947E+03  0.17247533857E+03 0.  0.
         24    2    3    3    0    0  0.15318303616E+03 -0.13483837718E+03 -0.93313331071E+02  0.23813761448E+03  0.79722739209E+02 0.  0.
         -6    2    1    2    0  502 -0.13271276369E+03  0.15321243206E+03 -0.17710824891E+03  0.31996457730E+03  0.17298344404E+03 0.  0.
        -24    2    5    5    0    0 -0.30392628736E+02  0.91867963971E+02 -0.32292753477E+02  0.13227821259E+03  0.84209672323E+02 0.  0.
          5    1    3    3  501    0 -0.20470272471E+02 -0.18374054879E+02  0.24089384237E+02  0.36864974985E+02  0.47000000000E+01 0. -1.
        -13    1    4    4    0    0  0.87463967427E+01 -0.29531031245E+02  0.91159522204E+01  0.32119804596E+02  0.00000000000E+00 0.  1.
         14    1    4    4    0    0  0.14443663942E+03 -0.10530734594E+03 -0.10242928329E+03  0.20601780989E+03  0.00000000000E+00 0. -1.
         -5    1    5    5    0  502 -0.10232013495E+03  0.61344468093E+02 -0.14481549543E+03  0.18768636472E+03  0.47000000000E+01 0.  1.
         11    1    6    6    0    0 -0.58209793975E+02  0.46039438417E+02 -0.13269168216E+02  0.75392843357E+02  0.00000000000E+00 0. -1.
        -12    1    6    6    0    0  0.27817165239E+02  0.45828525554E+02 -0.19023585261E+02  0.56885369231E+02  0.00000000000E+00 0.  1.
<mgrwt>
<rscale>  2 0.26639459E+03</rscale>
<asrwt>0</asrwt>
<pdfrwt beam="1">  1       21 0.26818075E-01 0.26647701E+03</pdfrwt>
<pdfrwt beam="2">  1       21 0.64715335E-01 0.26647701E+03</pdfrwt>
<totfact> 0.28092159E+04</totfact>
</mgrwt>
</event>
<event>
12    1  0.1039378E-001  0.1759604E+03  0.7546771E-02  0.1172746E+00
         21   -1    0    0  503  502  0.00000000000E+00  0.00000000000E+00  0.12675709630E+03  0.12675709630E+03  0.00000000000E+00 0. -1.
         21   -1    0    0  501  503 -0.00000000000E+00 -0.00000000000E+00 -0.24609977576E+03  0.24609977576E+03  0.00000000000E+00 0. -1.
          6    2    1    2  501    0 -0.44709236782E+01  0.24797668976E+02 -0.92147713252E+02  0.19862848355E+03  0.17414694908E+03 0.  0.
         24    2    3    3    0    0  0.50018115701E+02  0.49481394109E+02 -0.27105846750E+02  0.11013624605E+03  0.80281040755E+02 0.  0.
         -6    2    1    2    0  502  0.44709236782E+01 -0.24797668976E+02 -0.27194966205E+02  0.17422838852E+03  0.17023822025E+03 0.  0.
        -24    2    5    5    0    0  0.15601230477E+02 -0.30987145204E+02  0.46462118677E+02  0.99330795105E+02  0.80649096858E+02 0.  0.
          5    1    3    3  501    0 -0.54489039380E+02 -0.24683725132E+02 -0.65041866502E+02  0.88492237495E+02  0.47000000000E+01 0. -1.
        -13    1    4    4    0    0  0.49615931300E+02  0.62023111520E+02 -0.42654766900E+02  0.90155621792E+02  0.00000000000E+00 0.  1.
         14    1    4    4    0    0  0.40218440136E+00 -0.12541717411E+02  0.15548920150E+02  0.19980624258E+02  0.00000000000E+00 0. -1.
         -5    1    5    5    0  502 -0.11130306799E+02  0.61894762279E+01 -0.73657084881E+02  0.74897593410E+02  0.47000000000E+01 0.  1.
         13    1    6    6    0    0  0.41654564353E+02 -0.37152339540E+01  0.45220574136E+02  0.61593879728E+02  0.00000000000E+00 0. -1.
        -14    1    6    6    0    0 -0.26053333876E+02 -0.27271911250E+02  0.12415445401E+01  0.37736915377E+02  0.00000000000E+00 0.  1.
<mgrwt>
<rscale>  2 0.17498547E+03</rscale>
<asrwt>0</asrwt>
<pdfrwt beam="1">  1       21 0.19501092E-01 0.17596043E+03</pdfrwt>
<pdfrwt beam="2">  1       21 0.37861503E-01 0.17596043E+03</pdfrwt>
<totfact> 0.16364083E+05</totfact>
</mgrwt>
</event>
<event>
12    1  0.1039378E-001  0.1761047E+03  0.7546771E-02  0.1171746E+00
         21   -1    0    0  501  502  0.00000000000E+00  0.00000000000E+00  0.10718668055E+03  0.10718668055E+03  0.00000000000E+00 0. -1.
         21   -1    0    0  502  503 -0.00000000000E+00 -0.00000000000E+00 -0.28856271911E+03  0.28856271911E+03  0.00000000000E+00 0. -1.
         -6    2    1    2    0  503  0.31639937748E+02 -0.94926828082E+01 -0.91875164850E+02  0.19820631890E+03  0.17249203531E+03 0.  0.
        -24    2    3    3    0    0 -0.10913993947E+01  0.36870691113E+02 -0.10722131120E+03  0.13922753390E+03  0.80791445112E+02 0.  0.
          6    2    1    2  501    0 -0.31639937748E+02  0.94926828082E+01 -0.89500873710E+02  0.19754308075E+03  0.17297880122E+03 0.  0.
         24    2    5    5    0    0 -0.66326012675E+02 -0.42227643776E+02 -0.46031747353E+02  0.12145253652E+03  0.80308673293E+02 0.  0.
          5    1    5    5  501    0  0.34686074927E+02  0.51720326584E+02 -0.43469126357E+02  0.76090544236E+02  0.47000000000E+01 0. -1.
        -11    1    6    6    0    0 -0.60020817714E+02  0.45361961122E+01 -0.43372582642E+02  0.74190677038E+02  0.00000000000E+00 0.  1.
         12    1    6    6    0    0 -0.63051949605E+01 -0.46763839888E+02 -0.26591647109E+01  0.47261859481E+02  0.00000000000E+00 0. -1.
         -5    1    3    3    0  503  0.32731337142E+02 -0.46363373921E+02  0.15346146350E+02  0.58978785002E+02  0.47000000000E+01 0.  1.
         11    1    4    4    0    0  0.38516055868E+01  0.56648621995E+02 -0.41259443698E+02  0.70187199216E+02  0.00000000000E+00 0. -1.
        -12    1    4    4    0    0 -0.49430049815E+01 -0.19777930882E+02 -0.65961867502E+02  0.69040334679E+02  0.00000000000E+00 0.  1.
<mgrwt>
<rscale>  2 0.17598504E+03</rscale>
<asrwt>0</asrwt>
<pdfrwt beam="1">  1       21 0.16490259E-01 0.17610469E+03</pdfrwt>
<pdfrwt beam="2">  1       21 0.44394264E-01 0.17610469E+03</pdfrwt>
<totfact> 0.16158728E+05</totfact>
</mgrwt>
</event>
<event>
12    1  0.1039378E-001  0.2682208E+03  0.7546771E-02  0.1102321E+00
         21   -1    0    0  503  502  0.00000000000E+00  0.00000000000E+00  0.22292743128E+03  0.22292743128E+03  0.00000000000E+00 0.  1.
         21   -1    0    0  501  503 -0.00000000000E+00 -0.00000000000E+00 -0.44269399909E+03  0.44269399909E+03  0.00000000000E+00 0. -1.
          6    2    1    2  501    0 -0.15629074759E+03  0.13149460037E+03 -0.28323411823E+03  0.38999394203E+03  0.17365506436E+03 0.  0.
         24    2    3    3    0    0 -0.61464070146E+02  0.10153806682E+02 -0.14315725798E+03  0.18176497251E+03  0.93078316543E+02 0.  0.
         -6    2    1    2    0  502  0.15629074759E+03 -0.13149460037E+03  0.63467550416E+02  0.27562748834E+03  0.17385268093E+03 0.  0.
        -24    2    5    5    0    0  0.62694467389E+02 -0.11380776263E+03 -0.13526797136E+02  0.15305788586E+03  0.79755495785E+02 0.  0.
          5    1    3    3  501    0 -0.94826677447E+02  0.12134079369E+03 -0.14007686025E+03  0.20822896951E+03  0.47000000000E+01 0. -1.
        -11    1    4    4    0    0 -0.12781725896E+02  0.39392682762E+02 -0.19674897910E+02  0.45850382549E+02  0.00000000000E+00 0.  1.
         12    1    4    4    0    0 -0.48682344250E+02 -0.29238876080E+02 -0.12348236007E+03  0.13591458996E+03  0.00000000000E+00 0. -1.
         -5    1    5    5    0  502  0.93596280204E+02 -0.17686837737E+02  0.76994347552E+02  0.12256960248E+03  0.47000000000E+01 0.  1.
         13    1    6    6    0    0  0.11723135591E+02  0.53192160890E+01 -0.19477926110E+02  0.23347710240E+02  0.00000000000E+00 0. -1.
        -14    1    6    6    0    0  0.50971331798E+02 -0.11912697872E+03  0.59511289742E+01  0.12971017562E+03  0.00000000000E+00 0.  1.
<mgrwt>
<rscale>  2 0.26818875E+03</rscale>
<asrwt>0</asrwt>
<pdfrwt beam="1">  1       21 0.34296528E-01 0.26822077E+03</pdfrwt>
<pdfrwt beam="2">  1       21 0.68106769E-01 0.26822077E+03</pdfrwt>
<totfact> 0.15461974E+04</totfact>
</mgrwt>
</event>
<event>
12    1  0.1039378E-001  0.2027527E+03  0.7546771E-02  0.1147689E+00
         21   -1    0    0  501  502  0.00000000000E+00  0.00000000000E+00  0.97239862943E+02  0.97239862943E+02  0.00000000000E+00 0.  1.
         21   -1    0    0  502  503 -0.00000000000E+00 -0.00000000000E+00 -0.13590286659E+04  0.13590286659E+04  0.00000000000E+00 0.  1.
         -6    2    1    2    0  503 -0.10320819479E+03  0.55815647161E+01 -0.12354865244E+04  0.12518169192E+04  0.17301896331E+03 0.  0.
        -24    2    3    3    0    0 -0.51663253502E+02 -0.61198266358E+02 -0.84676456959E+03  0.85401888624E+03  0.76965590774E+02 0.  0.
          6    2    1    2  501    0  0.10320819479E+03 -0.55815647161E+01 -0.26302278536E+02  0.20445160971E+03  0.17442925649E+03 0.  0.
         24    2    5    5    0    0  0.80716015611E+02  0.47146344664E+02 -0.57677829023E+02  0.13893332432E+03  0.85075752449E+02 0.  0.
          5    1    5    5  501    0  0.22492179182E+02 -0.52727909380E+02  0.31375550487E+02  0.65518285389E+02  0.47000000000E+01 0. -1.
        -11    1    6    6    0    0  0.51574315686E+02  0.41896610039E+02  0.79631065384E+01  0.66922694484E+02  0.00000000000E+00 0.  1.
         12    1    6    6    0    0  0.29141699925E+02  0.52497346246E+01 -0.65640935561E+02  0.72010629837E+02  0.00000000000E+00 0. -1.
         -5    1    3    3    0  503 -0.51544941290E+02  0.66779831074E+02 -0.38872195486E+03  0.39779803292E+03  0.47000000000E+01 0.  1.
         13    1    4    4    0    0  0.13317009742E+02 -0.40611794322E+02 -0.34987739775E+03  0.35247816109E+03  0.00000000000E+00 0. -1.
        -14    1    4    4    0    0 -0.64980263244E+02 -0.20586472036E+02 -0.49688717184E+03  0.50154072515E+03  0.00000000000E+00 0.  1.
<mgrwt>
<rscale>  2 0.20244900E+03</rscale>
<asrwt>0</asrwt>
<pdfrwt beam="1">  1       21 0.14959978E-01 0.20275268E+03</pdfrwt>
<pdfrwt beam="2">  1       21 0.20908134E+00 0.20275268E+03</pdfrwt>
<totfact> 0.45912824E+03</totfact>
</mgrwt>
</event>
<event>
11    1  0.1039378E-001  0.1937729E+03  0.7546771E-02  0.1155128E+00
         21   -1    0    0  503  502  0.00000000000E+00  0.00000000000E+00  0.92779549961E+03  0.92779549961E+03  0.00000000000E+00 0.  1.
         21   -1    0    0  501  503 -0.00000000000E+00 -0.00000000000E+00 -0.47961228472E+02  0.47961228472E+02  0.00000000000E+00 0.  1.
          6    2    1    2  501    0 -0.83971738437E+02 -0.21301998090E+02  0.24666612136E+03  0.31360126800E+03  0.17319512662E+03 0.  0.
         24    2    3    3    0    0 -0.26256265198E+02  0.45012730459E+02  0.17834146576E+03  0.20216039741E+03  0.79671892829E+02 0.  0.
         -6    2    1    2    0  502  0.83971738437E+02  0.21301998090E+02  0.63316814977E+03  0.66215546008E+03  0.17332893425E+03 0.  0.
          5    1    3    3  501    0 -0.57715473239E+02 -0.66314728548E+02  0.68324655598E+02  0.11144087058E+03  0.47000000000E+01 0. -1.
        -13    1    4    4    0    0  0.26522876516E+02  0.15722806814E+01  0.43257847002E+02  0.50765897732E+02  0.00000000000E+00 0.  1.
         14    1    4    4    0    0 -0.52779141714E+02  0.43440449777E+02  0.13508361876E+03  0.15139449968E+03  0.00000000000E+00 0. -1.
         -5    1    5    5    0  502  0.53559279338E+02 -0.52586808517E+01  0.83859892703E+02  0.99753805599E+02  0.47000000000E+01 0.  1.
         13    1    5    5    0    0  0.59687003939E+02 -0.18141766385E+02  0.21565524321E+03  0.22449687315E+03  0.00000000000E+00 0. -1.
        -14    1    5    5    0    0 -0.29274544840E+02  0.44702445326E+02  0.33365301386E+03  0.33790478134E+03  0.00000000000E+00 0.  1.
<mgrwt>
<rscale>  2 0.19374300E+03</rscale>
<asrwt>0</asrwt>
<pdfrwt beam="1">  1       21 0.14273776E+00 0.19377293E+03</pdfrwt>
<pdfrwt beam="2">  1       21 0.73786513E-02 0.19377293E+03</pdfrwt>
<totfact> 0.46966952E+04</totfact>
</mgrwt>
</event>
<event>
12    1  0.1039378E-001  0.1784261E+03  0.7546771E-02  0.1169368E+00
         21   -1    0    0  501  502  0.00000000000E+00  0.00000000000E+00  0.11194979914E+03  0.11194979914E+03  0.00000000000E+00 0.  1.
         21   -1    0    0  502  503 -0.00000000000E+00 -0.00000000000E+00 -0.32263328743E+03  0.32263328743E+03  0.00000000000E+00 0.  1.
         -6    2    1    2    0  503 -0.32246974289E+02  0.14509818124E+02 -0.18034223921E+03  0.25359562107E+03  0.17474842949E+03 0.  0.
        -24    2    3    3    0    0  0.20981119089E+02  0.61299501150E+02 -0.12382359009E+03  0.16282694773E+03  0.83561338208E+02 0.  0.
          6    2    1    2  501    0  0.32246974289E+02 -0.14509818124E+02 -0.30341249081E+02  0.18098746550E+03  0.17488701810E+03 0.  0.
         24    2    5    5    0    0  0.54417142945E+02 -0.47202937076E+01 -0.79700083042E+02  0.12579928147E+03  0.80559601300E+02 0.  0.
          5    1    5    5  501    0 -0.22170168657E+02 -0.97895244164E+01  0.49358833962E+02  0.55188184031E+02  0.47000000000E+01 0. -1.
        -11    1    6    6    0    0  0.20910753528E+02  0.27232754752E+01  0.14466390273E+02  0.25572490883E+02  0.00000000000E+00 0.  1.
         12    1    6    6    0    0  0.33506389417E+02 -0.74435691828E+01 -0.94166473315E+02  0.10022679058E+03  0.00000000000E+00 0. -1.
         -5    1    3    3    0  503 -0.53228093378E+02 -0.46789683026E+02 -0.56518649118E+02  0.90768673343E+02  0.47000000000E+01 0.  1.
         13    1    4    4    0    0 -0.15794124739E+00  0.41964139556E+02 -0.70027931133E+01  0.42544718421E+02  0.00000000000E+00 0. -1.
        -14    1    4    4    0    0  0.21139060337E+02  0.19335361594E+02 -0.11682079698E+03  0.12028222930E+03  0.00000000000E+00 0.  1.
<mgrwt>
<rscale>  2 0.17839213E+03</rscale>
<asrwt>0</asrwt>
<pdfrwt beam="1">  1       21 0.17223046E-01 0.17842609E+03</pdfrwt>
<pdfrwt beam="2">  1       21 0.49635890E-01 0.17842609E+03</pdfrwt>
<totfact> 0.11843735E+05</totfact>
</mgrwt>
</event>
<event>
12    1  0.1039378E-001  0.2464982E+03  0.7546771E-02  0.1115618E+00
         21   -1    0    0  501  502  0.00000000000E+00  0.00000000000E+00  0.56077988071E+03  0.56077988071E+03  0.00000000000E+00 0.  1.
         21   -1    0    0  502  503 -0.00000000000E+00 -0.00000000000E+00 -0.14281004692E+03  0.14281004692E+03  0.00000000000E+00 0.  1.
         -6    2    1    2    0  503  0.16172728160E+03  0.67024763091E+02  0.35793359327E+02  0.24908333183E+03  0.17353186780E+03 0.  0.
        -24    2    3    3    0    0  0.15261466228E+03  0.28713607376E+02  0.78210617391E+02  0.19101356117E+03  0.79079538988E+02 0.  0.
          6    2    1    2  501    0 -0.16172728160E+03 -0.67024763091E+02  0.38217647446E+03  0.45450659581E+03  0.17282753113E+03 0.  0.
         24    2    5    5    0    0 -0.16781119024E+03 -0.21716916692E+02  0.25853893156E+03  0.32260456055E+03  0.92731350228E+02 0.  0.
          5    1    5    5  501    0  0.60839086396E+01 -0.45307846399E+02  0.12363754290E+03  0.13190203526E+03  0.47000000000E+01 0. -1.
        -13    1    6    6    0    0 -0.18866966781E+02 -0.24357612993E+01  0.10906503701E+03  0.11071168713E+03  0.00000000000E+00 0.  1.
         14    1    6    6    0    0 -0.14894422346E+03 -0.19281155393E+02  0.14947389455E+03  0.21189287342E+03  0.00000000000E+00 0. -1.
         -5    1    3    3    0  503  0.91126193222E+01  0.38311155715E+02 -0.42417258064E+02  0.58069770662E+02  0.47000000000E+01 0.  1.
         13    1    4    4    0    0  0.47680147342E+01 -0.18203449228E+02  0.48756547107E+01  0.19438918106E+02  0.00000000000E+00 0. -1.
        -14    1    4    4    0    0  0.14784664755E+03  0.46917056603E+02  0.73334962680E+02  0.17157464306E+03  0.00000000000E+00 0.  1.
<mgrwt>
<rscale>  2 0.24637423E+03</rscale>
<asrwt>0</asrwt>
<pdfrwt beam="1">  1       21 0.86273826E-01 0.24649816E+03</pdfrwt>
<pdfrwt beam="2">  1       21 0.21970777E-01 0.24649816E+03</pdfrwt>
<totfact> 0.21756211E+04</totfact>
</mgrwt>
</event>
<event>
12    1  0.1039378E-001  0.1857523E+03  0.7546771E-02  0.1163380E+00
         21   -1    0    0  503  502  0.00000000000E+00  0.00000000000E+00  0.17885462780E+03  0.17885462780E+03  0.00000000000E+00 0.  1.
         21   -1    0    0  501  503 -0.00000000000E+00 -0.00000000000E+00 -0.22363836286E+03  0.22363836286E+03  0.00000000000E+00 0. -1.
          6    2    1    2  501    0 -0.28677254051E+02 -0.45910190008E+02 -0.10250664218E+03  0.21215918018E+03  0.17769011114E+03 0.  0.
         24    2    3    3    0    0 -0.55659748182E+02 -0.88767353576E+02 -0.89667940810E+02  0.15970240072E+03  0.80541086146E+02 0.  0.
         -6    2    1    2    0  502  0.28677254051E+02  0.45910190008E+02  0.57722907112E+02  0.19033381048E+03  0.17310371157E+03 0.  0.
        -24    2    5    5    0    0  0.75808340710E+02  0.54633045601E+02  0.12179117019E+02  0.12404840970E+03  0.80672193883E+02 0.  0.
          5    1    3    3  501    0  0.26982494132E+02  0.42857163569E+02 -0.12838701368E+02  0.52456779462E+02  0.47000000000E+01 0. -1.
        -13    1    4    4    0    0  0.62811252193E+01 -0.28173664704E+02  0.71845075669E+01  0.29746009242E+02  0.00000000000E+00 0.  1.
         14    1    4    4    0    0 -0.61940873402E+02 -0.60593688873E+02 -0.96852448377E+02  0.12995639148E+03  0.00000000000E+00 0. -1.
         -5    1    5    5    0  502 -0.47131086659E+02 -0.87228555937E+01  0.45543790093E+02  0.66285400771E+02  0.47000000000E+01 0.  1.
         13    1    6    6    0    0  0.23670973292E+02  0.99592284065E+01 -0.33032300806E+02  0.41840579628E+02  0.00000000000E+00 0. -1.
        -14    1    6    6    0    0  0.52137367417E+02  0.44673817195E+02  0.45211417826E+02  0.82207830076E+02  0.00000000000E+00 0.  1.
<mgrwt>
<rscale>  2 0.18464684E+03</rscale>
<asrwt>0</asrwt>
<pdfrwt beam="1">  1       21 0.27516097E-01 0.18575227E+03</pdfrwt>
<pdfrwt beam="2">  1       21 0.34405902E-01 0.18575227E+03</pdfrwt>
<totfact> 0.10284728E+05</totfact>
</mgrwt>
</event>
<event>
12    1  0.1039378E-001  0.2218168E+03  0.7546771E-02  0.1132831E+00
         21   -1    0    0  503  502  0.00000000000E+00  0.00000000000E+00  0.12123718543E+04  0.12123718543E+04  0.00000000000E+00 0. -1.
         21   -1    0    0  501  503 -0.00000000000E+00 -0.00000000000E+00 -0.42514819815E+02  0.42514819815E+02  0.00000000000E+00 0. -1.
          6    2    1    2  501    0 -0.13704226391E+03 -0.21695122632E+02  0.72638632821E+03  0.75903493419E+03  0.17101366338E+03 0.  0.
         24    2    3    3    0    0 -0.14892253067E+03 -0.54720179705E+02  0.56054974190E+03  0.58945999945E+03  0.89860222552E+02 0.  0.
         -6    2    1    2    0  502  0.13704226391E+03  0.21695122632E+02  0.44347070629E+03  0.49585173994E+03  0.17306478620E+03 0.  0.
        -24    2    5    5    0    0  0.14001993254E+03  0.46065158819E+02  0.25494860977E+03  0.30567961777E+03  0.81936894817E+02 0.  0.
          5    1    3    3  501    0  0.11880266763E+02  0.33025057073E+02  0.16583658631E+03  0.16957493474E+03  0.47000000000E+01 0. -1.
        -11    1    4    4    0    0 -0.33899669134E+02  0.20682492494E+02  0.75737197630E+02  0.85516525702E+02  0.00000000000E+00 0.  1.
         12    1    4    4    0    0 -0.11502286154E+03 -0.75402672199E+02  0.48481254427E+03  0.50394347375E+03  0.00000000000E+00 0. -1.
         -5    1    5    5    0  502 -0.29776686329E+01 -0.24370036186E+02  0.18852209652E+03  0.19017212217E+03  0.47000000000E+01 0.  1.
         11    1    6    6    0    0  0.12680239339E+03  0.33816015048E+02  0.25594797495E+03  0.28763124956E+03  0.00000000000E+00 0. -1.
        -12    1    6    6    0    0  0.13217539154E+02  0.12249143771E+02 -0.99936517898E+00  0.18048368214E+02  0.00000000000E+00 0.  1.
<mgrwt>
<rscale>  2 0.22141655E+03</rscale>
<asrwt>0</asrwt>
<pdfrwt beam="1">  1       21 0.18651872E+00 0.22181677E+03</pdfrwt>
<pdfrwt beam="2">  1       21 0.65407424E-02 0.22181677E+03</pdfrwt>
<totfact> 0.27423661E+04</totfact>
</mgrwt>
</event>
<event>
12    1  0.1039378E-001  0.2477917E+03  0.7546771E-02  0.1115462E+00
         21   -1    0    0  501  502  0.00000000000E+00  0.00000000000E+00  0.66130841684E+03  0.66130841684E+03  0.00000000000E+00 0. -1.
         21   -1    0    0  502  503 -0.00000000000E+00 -0.00000000000E+00 -0.91210191470E+02  0.91210191470E+02  0.00000000000E+00 0.  1.
         -6    2    1    2    0  503  0.14230979334E+03  0.94338113564E+02  0.26970423561E+03  0.36311231991E+03  0.17308502308E+03 0.  0.
        -24    2    3    3    0    0  0.68679220009E+02  0.92227350215E+01  0.21206638996E+03  0.23658050476E+03  0.78716500051E+02 0.  0.
          6    2    1    2  501    0 -0.14230979334E+03 -0.94338113564E+02  0.30039398976E+03  0.38940628840E+03  0.17957993041E+03 0.  0.
         24    2    5    5    0    0 -0.11052213605E+02  0.67324844353E+01  0.98562792365E+02  0.12825165937E+03  0.81033242073E+02 0.  0.
          5    1    5    5  501    0 -0.13125757974E+03 -0.10107059800E+03  0.20183119739E+03  0.26115462902E+03  0.47000000000E+01 0. -1.
        -11    1    6    6    0    0  0.30149832427E+02  0.18403924871E+02  0.64477849515E+02  0.73519452692E+02  0.00000000000E+00 0.  1.
         12    1    6    6    0    0 -0.41202046032E+02 -0.11671440436E+02  0.34084942851E+02  0.54732206681E+02  0.00000000000E+00 0. -1.
         -5    1    3    3    0  503  0.73630573335E+02  0.85115378543E+02  0.57637845648E+02  0.12653181515E+03  0.47000000000E+01 0.  1.
         11    1    4    4    0    0  0.68473975928E+02 -0.22725516487E+02  0.13310261924E+03  0.15139828839E+03  0.00000000000E+00 0. -1.
        -12    1    4    4    0    0  0.20524408158E+00  0.31948251509E+02  0.78963770721E+02  0.85182216372E+02  0.00000000000E+00 0.  1.
<mgrwt>
<rscale>  2 0.24661688E+03</rscale>
<asrwt>0</asrwt>
<pdfrwt beam="1">  1       21 0.10173975E+00 0.24779166E+03</pdfrwt>
<pdfrwt beam="2">  1       21 0.14032338E-01 0.24779166E+03</pdfrwt>
<totfact> 0.33917139E+04</totfact>
</mgrwt>
</event>
<event>
12    1  0.1039378E-001  0.1926099E+03  0.7546771E-02  0.1156179E+00
         21   -1    0    0  501  502  0.00000000000E+00  0.00000000000E+00  0.26170563888E+03  0.26170563888E+03  0.00000000000E+00 0. -1.
         21   -1    0    0  502  503 -0.00000000000E+00 -0.00000000000E+00 -0.28214570413E+03  0.28214570413E+03  0.00000000000E+00 0. -1.
         -6    2    1    2    0  503 -0.52077539289E+02  0.65607530841E+02 -0.20214663708E+03  0.27905737583E+03  0.17318584792E+03 0.  0.
        -24    2    3    3    0    0 -0.14899667839E+02 -0.17569272149E+02 -0.61106207989E+02  0.11108396329E+03  0.89860997211E+02 0.  0.
          6    2    1    2  501    0  0.52077539289E+02 -0.65607530841E+02  0.18170657183E+03  0.26479396718E+03  0.17344206123E+03 0.  0.
         24    2    5    5    0    0 -0.33207710215E+02 -0.48736146242E+02  0.13090648869E+03  0.16399240048E+03  0.79240360079E+02 0.  0.
          5    1    5    5  501    0  0.85285249504E+02 -0.16871384599E+02  0.50800083141E+02  0.10080156670E+03  0.47000000000E+01 0. -1.
        -13    1    6    6    0    0 -0.14808583073E+01 -0.63470695678E+02  0.78087533381E+02  0.10063987789E+03  0.00000000000E+00 0.  1.
         14    1    6    6    0    0 -0.31726851908E+02  0.14734549436E+02  0.52818955310E+02  0.63352522595E+02  0.00000000000E+00 0. -1.
         -5    1    3    3    0  503 -0.37177871450E+02  0.83176802989E+02 -0.14104042909E+03  0.16797341254E+03  0.47000000000E+01 0.  1.
         13    1    4    4    0    0  0.16567147487E+02 -0.12006102776E+02 -0.73887380195E+02  0.76667867009E+02  0.00000000000E+00 0. -1.
        -14    1    4    4    0    0 -0.31466815325E+02 -0.55631693731E+01  0.12781172206E+02  0.34416096280E+02  0.00000000000E+00 0.  1.
<mgrwt>
<rscale>  2 0.19255219E+03</rscale>
<asrwt>0</asrwt>
<pdfrwt beam="1">  1       21 0.40262406E-01 0.19260988E+03</pdfrwt>
<pdfrwt beam="2">  1       21 0.43407031E-01 0.19260988E+03</pdfrwt>
<totfact> 0.30329555E+04</totfact>
</mgrwt>
</event>
<event>
12    1  0.1039378E-001  0.2291672E+03  0.7546771E-02  0.1130290E+00
         21   -1    0    0  503  502  0.00000000000E+00  0.00000000000E+00  0.24498248105E+03  0.24498248105E+03  0.00000000000E+00 0. -1.
         21   -1    0    0  501  503 -0.00000000000E+00 -0.00000000000E+00 -0.26328201142E+03  0.26328201142E+03  0.00000000000E+00 0.  1.
          6    2    1    2  501    0 -0.10447386272E+03 -0.68325379043E+02 -0.13430643941E+03  0.25140813722E+03  0.17200199528E+03 0.  0.
         24    2    3    3    0    0 -0.28874292248E+02 -0.96730685439E+02 -0.90675325766E+02  0.15949556700E+03  0.83822854468E+02 0.  0.
         -6    2    1    2    0  502  0.10447386272E+03  0.68325379043E+02  0.11600690904E+03  0.25685635525E+03  0.19218334702E+03 0.  0.
        -24    2    5    5    0    0  0.17276668155E+02 -0.36583727980E+02  0.29378186597E+02  0.95190350695E+02  0.81001682713E+02 0.  0.
          5    1    3    3  501    0 -0.75599570471E+02  0.28405306395E+02 -0.43631113643E+02  0.91912570220E+02  0.47000000000E+01 0. -1.
        -13    1    4    4    0    0 -0.57421987206E+02 -0.50908804962E+02 -0.59923337567E+02  0.97364251255E+02  0.00000000000E+00 0.  1.
         14    1    4    4    0    0  0.28547694958E+02 -0.45821880477E+02 -0.30751988199E+02  0.62131315744E+02  0.00000000000E+00 0. -1.
         -5    1    5    5    0  502  0.87197194563E+02  0.10490910702E+03  0.86628722443E+02  0.16166600455E+03  0.47000000000E+01 0.  1.
         11    1    6    6    0    0  0.47804471607E+02 -0.26922983897E+02  0.31205833044E+02  0.63118290404E+02  0.00000000000E+00 0. -1.
        -12    1    6    6    0    0 -0.30527803451E+02 -0.96607440826E+01 -0.18276464467E+01  0.32072060291E+02  0.00000000000E+00 0.  1.
<mgrwt>
<rscale>  2 0.22488886E+03</rscale>
<asrwt>0</asrwt>
<pdfrwt beam="1">  1       21 0.37689612E-01 0.22916715E+03</pdfrwt>
<pdfrwt beam="2">  1       21 0.40504925E-01 0.22916715E+03</pdfrwt>
<totfact> 0.39160838E+04</totfact>
</mgrwt>
</event>
<event>
12    1  0.1039378E-001  0.2819525E+03  0.7546771E-02  0.1094753E+00
         21   -1    0    0  503  502  0.00000000000E+00  0.00000000000E+00  0.15274723465E+03  0.15274723465E+03  0.00000000000E+00 0.  1.
         21   -1    0    0  501  503 -0.00000000000E+00 -0.00000000000E+00 -0.55907303209E+03  0.55907303209E+03  0.00000000000E+00 0. -1.
          6    2    1    2  501    0 -0.10629814444E+03  0.19489855903E+03 -0.10724943710E+03  0.30079242050E+03  0.17230465649E+03 0.  0.
         24    2    3    3    0    0 -0.61487740990E+02  0.19973414591E+03 -0.12124532058E+03  0.25336531947E+03  0.76282933926E+02 0.  0.
         -6    2    1    2    0  502  0.10629814444E+03 -0.19489855903E+03 -0.29907636035E+03  0.41102784624E+03  0.17381736749E+03 0.  0.
        -24    2    5    5    0    0  0.12130885597E+03 -0.86392407431E+02 -0.21088677723E+03  0.27032106259E+03  0.80129629153E+02 0.  0.
          5    1    3    3  501    0 -0.44810403446E+02 -0.48355868870E+01  0.13995883488E+02  0.47427101030E+02  0.47000000000E+01 0. -1.
        -13    1    4    4    0    0 -0.29064496967E+02  0.20343400151E+02 -0.20040341755E+01  0.35533295184E+02  0.00000000000E+00 0.  1.
         14    1    4    4    0    0 -0.32423244023E+02  0.17939074576E+03 -0.11924128641E+03  0.21783202428E+03  0.00000000000E+00 0. -1.
         -5    1    5    5    0  502 -0.15010711535E+02 -0.10850615160E+03 -0.88189583114E+02  0.14070678365E+03  0.47000000000E+01 0.  1.
         13    1    6    6    0    0  0.40133556394E+02 -0.68565154274E+02 -0.14051623558E+03  0.16142086356E+03  0.00000000000E+00 0. -1.
        -14    1    6    6    0    0  0.81175299577E+02 -0.17827253157E+02 -0.70370541649E+02  0.10890019903E+03  0.00000000000E+00 0.  1.
<mgrwt>
<rscale>  2 0.28171972E+03</rscale>
<asrwt>0</asrwt>
<pdfrwt beam="1">  1       21 0.23499575E-01 0.28195252E+03</pdfrwt>
<pdfrwt beam="2">  1       21 0.86011234E-01 0.28195252E+03</pdfrwt>
<totfact> 0.18961147E+04</totfact>
</mgrwt>
</event>
<event>
12    1  0.1039378E-001  0.2126592E+03  0.7546771E-02  0.1139543E+00
         21   -1    0    0  501  502  0.00000000000E+00  0.00000000000E+00  0.11005172771E+03  0.11005172771E+03  0.00000000000E+00 0. -1.
         21   -1    0    0  502  503 -0.00000000000E+00 -0.00000000000E+00 -0.69136369540E+03  0.69136369540E+03  0.00000000000E+00 0. -1.
         -6    2    1    2    0  503  0.11913189070E+03  0.31327660971E+02 -0.54601962924E+03  0.58584765144E+03  0.17293410726E+03 0.  0.
        -24    2    3    3    0    0  0.35019531277E+02  0.69790138898E+02 -0.21919380828E+03  0.24615446860E+03  0.80306075532E+02 0.  0.
          6    2    1    2  501    0 -0.11913189070E+03 -0.31327660971E+02 -0.35292338449E+02  0.21556777168E+03  0.17334960430E+03 0.  0.
         24    2    5    5    0    0 -0.81328169548E+02  0.10564670208E+02 -0.85874562687E+02  0.13964188576E+03  0.73481510074E+02 0.  0.
          5    1    5    5  501    0 -0.37803721150E+02 -0.41892331179E+02  0.50582224239E+02  0.75925885924E+02  0.47000000000E+01 0. -1.
        -13    1    6    6    0    0 -0.21501433314E+02 -0.29188506864E+02 -0.41957418769E+02  0.55450027568E+02  0.00000000000E+00 0.  1.
         14    1    6    6    0    0 -0.59826736234E+02  0.39753177072E+02 -0.43917143918E+02  0.84191858190E+02  0.00000000000E+00 0. -1.
         -5    1    3    3    0  503  0.84112359420E+02 -0.38462477928E+02 -0.32682582096E+03  0.33969318283E+03  0.47000000000E+01 0.  1.
         11    1    4    4    0    0 -0.12656873674E+02  0.61605639710E+02 -0.10967362973E+03  0.12642688145E+03  0.00000000000E+00 0. -1.
        -12    1    4    4    0    0  0.47676404951E+02  0.81844991888E+01 -0.10952017854E+03  0.11972758715E+03  0.00000000000E+00 0.  1.
<mgrwt>
<rscale>  2 0.21257446E+03</rscale>
<asrwt>0</asrwt>
<pdfrwt beam="1">  1       21 0.16931035E-01 0.21265915E+03</pdfrwt>
<pdfrwt beam="2">  1       21 0.10636365E+00 0.21265915E+03</pdfrwt>
<totfact> 0.21994691E+04</totfact>
</mgrwt>
</event>
<event>
12    1  0.1039378E-001  0.2767298E+03  0.7546771E-02  0.1098054E+00
         21   -1    0    0  503  502  0.00000000000E+00  0.00000000000E+00  0.11451649823E+04  0.11451649823E+04  0.00000000000E+00 0. -1.
         21   -1    0    0  501  503 -0.00000000000E+00 -0.00000000000E+00 -0.91560218001E+02  0.91560218001E+02  0.00000000000E+00 0.  1.
          6    2    1    2  501    0  0.21091898860E+03  0.83435923149E+01  0.20223248907E+03  0.34274971608E+03  0.17894958216E+03 0.  0.
         24    2    3    3    0    0  0.28584579837E+02  0.10171072952E+02  0.10685254122E+03  0.13691337149E+03  0.80045467059E+02 0.  0.
         -6    2    1    2    0  502 -0.21091898860E+03 -0.83435923149E+01  0.85137227528E+03  0.89397548427E+03  0.17262960370E+03 0.  0.
        -24    2    5    5    0    0 -0.48232111544E+02  0.27041114036E+02  0.20727712936E+03  0.22869378122E+03  0.79243162370E+02 0.  0.
          5    1    3    3  501    0  0.18233440876E+03 -0.18274806366E+01  0.95379947844E+02  0.20583634459E+03  0.47000000000E+01 0. -1.
        -11    1    4    4    0    0  0.50217281219E+02 -0.19618534615E+01  0.35929025875E+02  0.61777982343E+02  0.00000000000E+00 0.  1.
         12    1    4    4    0    0 -0.21632701383E+02  0.12132926413E+02  0.70923515348E+02  0.75135389144E+02  0.00000000000E+00 0. -1.
         -5    1    5    5    0  502 -0.16268687706E+03 -0.35384706351E+02  0.64409514592E+03  0.66528170305E+03  0.47000000000E+01 0.  1.
         11    1    6    6    0    0 -0.14974325792E+02  0.22904283276E+02  0.18810157496E+03  0.19008166436E+03  0.00000000000E+00 0. -1.
        -12    1    6    6    0    0 -0.33257785752E+02  0.41368307602E+01  0.19175554402E+02  0.38612116861E+02  0.00000000000E+00 0.  1.
<mgrwt>
<rscale>  2 0.27571316E+03</rscale>
<asrwt>0</asrwt>
<pdfrwt beam="1">  1       21 0.17617922E+00 0.27672981E+03</pdfrwt>
<pdfrwt beam="2">  1       21 0.14086188E-01 0.27672981E+03</pdfrwt>
<totfact> 0.80112248E+03</totfact>
</mgrwt>
</event>
<event>
12    1  0.1039378E-001  0.1958055E+03  0.7546771E-02  0.1156547E+00
         21   -1    0    0  501  502  0.00000000000E+00  0.00000000000E+00  0.29320121675E+03  0.29320121675E+03  0.00000000000E+00 0.  1.
         21   -1    0    0  502  503 -0.00000000000E+00 -0.00000000000E+00 -0.17150651547E+03  0.17150651547E+03  0.00000000000E+00 0.  1.
         -6    2    1    2    0  503 -0.36598180207E+02 -0.44242618326E+02  0.18473138596E+03  0.25900545866E+03  0.17222458182E+03 0.  0.
        -24    2    3    3    0    0 -0.54063604665E+01  0.18914707067E+02  0.16631676270E+03  0.18604680105E+03  0.81025624031E+02 0.  0.
          6    2    1    2  501    0  0.36598180207E+02  0.44242618326E+02 -0.63036684680E+02  0.20570227357E+03  0.18719766469E+03 0.  0.
         24    2    5    5    0    0  0.70040578186E+01  0.78814911239E+02 -0.10034811210E+03  0.14666594464E+03  0.71974361108E+02 0.  0.
          5    1    5    5  501    0  0.29594122388E+02 -0.34572292913E+02  0.37311427416E+02  0.59036328926E+02  0.47000000000E+01 0. -1.
        -11    1    6    6    0    0  0.38643494792E+02  0.53421304286E+02 -0.55414382135E+02  0.86127284810E+02  0.00000000000E+00 0.  1.
         12    1    6    6    0    0 -0.31639436973E+02  0.25393606953E+02 -0.44933729962E+02  0.60538659833E+02  0.00000000000E+00 0. -1.
         -5    1    3    3    0  503 -0.31191819740E+02 -0.63157325393E+02  0.18414623260E+02  0.72958657604E+02  0.47000000000E+01 0.  1.
         11    1    4    4    0    0  0.29818081225E+02  0.33855288028E+02  0.90808227475E+02  0.10139739973E+03  0.00000000000E+00 0. -1.
        -12    1    4    4    0    0 -0.35224441691E+02 -0.14940580961E+02  0.75508535225E+02  0.84649401320E+02  0.00000000000E+00 0.  1.
<mgrwt>
<rscale>  2 0.19213834E+03</rscale>
<asrwt>0</asrwt>
<pdfrwt beam="1">  1       21 0.45107880E-01 0.19580552E+03</pdfrwt>
<pdfrwt beam="2">  1       21 0.26385618E-01 0.19580552E+03</pdfrwt>
<totfact> 0.64324470E+04</totfact>
</mgrwt>
</event>
<event>
12    1  0.1039378E-001  0.2867354E+03  0.7546771E-02  0.1092194E+00
         21   -1    0    0  501  502  0.00000000000E+00  0.00000000000E+00  0.11807119786E+03  0.11807119786E+03  0.00000000000E+00 0. -1.
         21   -1    0    0  502  503 -0.00000000000E+00 -0.00000000000E+00 -0.69841450440E+03  0.69841450440E+03  0.00000000000E+00 0.  1.
         -6    2    1    2    0  503 -0.17933511830E+03 -0.14031416579E+03 -0.25718265458E+03  0.38445559845E+03  0.17266742480E+03 0.  0.
        -24    2    3    3    0    0 -0.18374131395E+03 -0.16293162693E+03 -0.23913349785E+03  0.35481059606E+03  0.91641386787E+02 0.  0.
          6    2    1    2  501    0  0.17933511830E+03  0.14031416579E+03 -0.32316065196E+03  0.43203010381E+03  0.17426432177E+03 0.  0.
         24    2    5    5    0    0  0.46603347060E+02  0.11203026308E+03 -0.12398106038E+03  0.19096517075E+03  0.79835714459E+02 0.  0.
          5    1    5    5  501    0  0.13273177124E+03  0.28283902718E+02 -0.19917959159E+03  0.24106493307E+03  0.47000000000E+01 0. -1.
        -13    1    6    6    0    0  0.21222894098E+02  0.10841037673E+03 -0.12297804774E+03  0.16530826126E+03  0.00000000000E+00 0.  1.
         14    1    6    6    0    0  0.25380452962E+02  0.36198863474E+01 -0.10030126379E+01  0.25656909480E+02  0.00000000000E+00 0. -1.
         -5    1    3    3    0  503  0.44061956514E+01  0.22617461138E+02 -0.18049156723E+02  0.29645002393E+02  0.47000000000E+01 0.  1.
         11    1    4    4    0    0 -0.17714225630E+03 -0.12241004838E+03 -0.16973705131E+03  0.27417925796E+03  0.00000000000E+00 0. -1.
        -12    1    4    4    0    0 -0.65990576574E+01 -0.40521578556E+02 -0.69396446540E+02  0.80631338095E+02  0.00000000000E+00 0.  1.
<mgrwt>
<rscale>  2 0.28649319E+03</rscale>
<asrwt>0</asrwt>
<pdfrwt beam="1">  1       21 0.18164800E-01 0.28673542E+03</pdfrwt>
<pdfrwt beam="2">  1       21 0.10744838E+00 0.28673542E+03</pdfrwt>
<totfact> 0.18139899E+04</totfact>
</mgrwt>
</event>
<event>
12    1  0.1039378E-001  0.2071918E+03  0.7546771E-02  0.1144112E+00
         21   -1    0    0  503  502  0.00000000000E+00  0.00000000000E+00  0.76082439538E+03  0.76082439538E+03  0.00000000000E+00 0.  1.
         21   -1    0    0  501  503 -0.00000000000E+00 -0.00000000000E+00 -0.87207448369E+02  0.87207448369E+02  0.00000000000E+00 0. -1.
          6    2    1    2  501    0  0.76178775136E+02  0.81807920902E+02  0.82444758799E+02  0.22160307070E+03  0.17267032457E+03 0.  0.
         24    2    3    3    0    0  0.21730268025E+02  0.10636369320E+03  0.90705729854E+02  0.16112200323E+03  0.77118938771E+02 0.  0.
         -6    2    1    2    0  502 -0.76178775136E+02 -0.81807920902E+02  0.59117218821E+03  0.62642877304E+03  0.17444973454E+03 0.  0.
        -24    2    5    5    0    0 -0.79155064113E+02 -0.11770079562E+02  0.49616655004E+03  0.50826651680E+03  0.75825772516E+02 0.  0.
          5    1    3    3  501    0  0.54448507111E+02 -0.24555772299E+02 -0.82609710550E+01  0.60481067472E+02  0.47000000000E+01 0. -1.
        -13    1    4    4    0    0  0.45706973826E+02  0.83642685048E+02  0.84774491897E+02  0.12756151730E+03  0.00000000000E+00 0.  1.
         14    1    4    4    0    0 -0.23976705801E+02  0.22721008153E+02  0.59312379572E+01  0.33560485936E+02  0.00000000000E+00 0. -1.
         -5    1    5    5    0  502  0.29762889769E+01 -0.70037841340E+02  0.95005638175E+02  0.11816225624E+03  0.47000000000E+01 0.  1.
         13    1    6    6    0    0 -0.59231898471E+02 -0.24857219385E+02  0.17849293555E+03  0.18969983446E+03  0.00000000000E+00 0. -1.
        -14    1    6    6    0    0 -0.19923165642E+02  0.13087139823E+02  0.31767361449E+03  0.31856668234E+03  0.00000000000E+00 0.  1.
<mgrwt>
<rscale>  2 0.20681681E+03</rscale>
<asrwt>0</asrwt>
<pdfrwt beam="1">  1       21 0.11704990E+00 0.20719182E+03</pdfrwt>
<pdfrwt beam="2">  1       21 0.13416531E-01 0.20719182E+03</pdfrwt>
<totfact> 0.26730937E+04</totfact>
</mgrwt>
</event>
<event>
12    1  0.1039378E-001  0.2227071E+03  0.7546771E-02  0.1132067E+00
         21   -1    0    0  503  502  0.00000000000E+00  0.00000000000E+00  0.12393938793E+03  0.12393938793E+03  0.00000000000E+00 0. -1.
         21   -1    0    0  501  503 -0.00000000000E+00 -0.00000000000E+00 -0.63640412034E+03  0.63640412034E+03  0.00000000000E+00 0. -1.
          6    2    1    2  501    0 -0.12776305031E+02 -0.13858618847E+03 -0.48910569184E+03  0.53742240931E+03  0.17386518523E+03 0.  0.
         24    2    3    3    0    0 -0.39481810314E+02 -0.56635690814E+02 -0.39852787789E+03  0.41230047495E+03  0.80004983391E+02 0.  0.
         -6    2    1    2    0  502  0.12776305031E+02  0.13858618847E+03 -0.23359040580E+02  0.22292109896E+03  0.17256536727E+03 0.  0.
        -24    2    5    5    0    0 -0.54544151576E+02  0.53148146694E+02  0.89400183814E+01  0.10935604241E+03  0.77968135246E+02 0.  0.
          5    1    3    3  501    0  0.26705505283E+02 -0.81950497657E+02 -0.90577813943E+02  0.12512193436E+03  0.47000000000E+01 0. -1.
        -11    1    4    4    0    0  0.13350645762E+02  0.17807057017E+01 -0.12689936702E+02  0.18505273533E+02  0.00000000000E+00 0.  1.
         12    1    4    4    0    0 -0.52832456076E+02 -0.58416396515E+02 -0.38583794119E+03  0.39379520142E+03  0.00000000000E+00 0. -1.
         -5    1    5    5    0  502  0.67320456607E+02  0.85438041777E+02 -0.32299058962E+02  0.11356505655E+03  0.47000000000E+01 0.  1.
         13    1    6    6    0    0 -0.48504366552E+01  0.33668004190E+02 -0.28320281541E+02  0.44261716962E+02  0.00000000000E+00 0. -1.
        -14    1    6    6    0    0 -0.49693714921E+02  0.19480142504E+02  0.37260299922E+02  0.65094325444E+02  0.00000000000E+00 0.  1.
<mgrwt>
<rscale>  2 0.22245339E+03</rscale>
<asrwt>0</asrwt>
<pdfrwt beam="1">  1       21 0.19067598E-01 0.22270714E+03</pdfrwt>
<pdfrwt beam="2">  1       21 0.97908326E-01 0.22270714E+03</pdfrwt>
<totfact> 0.21392036E+04</totfact>
</mgrwt>
</event>
<event>
11    1  0.1039378E-001  0.2677959E+03  0.7546771E-02  0.1103231E+00
         21   -1    0    0  503  502  0.00000000000E+00  0.00000000000E+00  0.22693177321E+04  0.22693177321E+04  0.00000000000E+00 0. -1.
         21   -1    0    0  501  503 -0.00000000000E+00 -0.00000000000E+00 -0.50034332251E+02  0.50034332251E+02  0.00000000000E+00 0.  1.
          6    2    1    2  501    0 -0.20349039782E+03 -0.95932374096E+01  0.40143688672E+03  0.48256214290E+03  0.17382254034E+03 0.  0.
         -6    2    1    2    0  502  0.20349039782E+03  0.95932374096E+01  0.18178465131E+04  0.18367899214E+04  0.16652596806E+03 0.  0.
        -24    2    4    4    0    0  0.93319879130E+02 -0.22038785267E+02  0.12740698092E+04  0.12810441866E+04  0.92876377304E+02 0.  0.
          5    1    3    3  501    0 -0.16460322489E+03 -0.66135772194E+02  0.35299861642E+03  0.39509274254E+03  0.47000000000E+01 0. -1.
        -13    1    3    3    0    0 -0.60745510261E+01  0.19642748451E+02  0.38080471179E+01  0.20910259677E+02  0.00000000000E+00 0.  1.
         14    1    3    3    0    0 -0.32812621912E+02  0.36899786333E+02  0.44630223180E+02  0.66559140689E+02  0.00000000000E+00 0. -1.
         -5    1    4    4    0  502  0.11017051869E+03  0.31632022677E+02  0.54377670396E+03  0.55574573486E+03  0.47000000000E+01 0.  1.
         13    1    5    5    0    0  0.96339621815E+02 -0.32624703297E+02  0.75078370457E+03  0.75764230680E+03  0.00000000000E+00 0. -1.
        -14    1    5    5    0    0 -0.30197426858E+01  0.10585918030E+02  0.52328610459E+03  0.52340187978E+03  0.00000000000E+00 0.  1.
<mgrwt>
<rscale>  2 0.26661878E+03</rscale>
<asrwt>0</asrwt>
<pdfrwt beam="1">  1       21 0.34912573E+00 0.26779591E+03</pdfrwt>
<pdfrwt beam="2">  1       21 0.76975913E-02 0.26779591E+03</pdfrwt>
<totfact> 0.20816726E+03</totfact>
</mgrwt>
</event>
<event>
12    1  0.1039378E-001  0.2456469E+03  0.7546771E-02  0.1116110E+00
         21   -1    0    0  503  502  0.00000000000E+00  0.00000000000E+00  0.23793757049E+03  0.23793757049E+03  0.00000000000E+00 0. -1.
         21   -1    0    0  501  503 -0.00000000000E+00 -0.00000000000E+00 -0.58216089020E+03  0.58216089020E+03  0.00000000000E+00 0. -1.
          6    2    1    2  501    0 -0.97011577882E+02  0.14468210250E+03 -0.48024959807E+03  0.53942753881E+03  0.17319998890E+03 0.  0.
         24    2    3    3    0    0 -0.14633161159E+02  0.89492658428E+02 -0.37558078149E+03  0.39517176096E+03  0.82926062966E+02 0.  0.
         -6    2    1    2    0  502  0.97011577882E+02 -0.14468210250E+03  0.13602627837E+03  0.28067092188E+03  0.17299959814E+03 0.  0.
        -24    2    5    5    0    0  0.40273022463E+02 -0.52723367390E+02 -0.31947111420E+01  0.10437501565E+03  0.80512532598E+02 0.  0.
          5    1    3    3  501    0 -0.82378416723E+02  0.55189444069E+02 -0.10466881658E+03  0.14425577785E+03  0.47000000000E+01 0. -1.
        -11    1    4    4    0    0 -0.41763487991E+02  0.16491393704E+02 -0.14510967875E+03  0.15189790605E+03  0.00000000000E+00 0.  1.
         12    1    4    4    0    0  0.27130326833E+02  0.73001264724E+02 -0.23047110274E+03  0.24327385491E+03  0.00000000000E+00 0. -1.
         -5    1    5    5    0  502  0.56738555419E+02 -0.91958735107E+02  0.13922098951E+03  0.17629590623E+03  0.47000000000E+01 0.  1.
         11    1    6    6    0    0 -0.23390158999E+02 -0.42031847222E+01  0.36262283354E+01  0.24039880028E+02  0.00000000000E+00 0. -1.
        -12    1    6    6    0    0  0.63663181462E+02 -0.48520182668E+02 -0.68209394774E+01  0.80335135622E+02  0.00000000000E+00 0.  1.
<mgrwt>
<rscale>  2 0.24561157E+03</rscale>
<asrwt>0</asrwt>
<pdfrwt beam="1">  1       21 0.36605780E-01 0.24564689E+03</pdfrwt>
<pdfrwt beam="2">  1       21 0.89563213E-01 0.24564689E+03</pdfrwt>
<totfact> 0.73794522E+03</totfact>
</mgrwt>
</event>
<event>
12    1  0.1039378E-001  0.1804357E+03  0.7546771E-02  0.1167773E+00
         21   -1    0    0  503  502  0.00000000000E+00  0.00000000000E+00  0.14982803867E+04  0.14982803867E+04  0.00000000000E+00 0.  1.
         21   -1    0    0  501  503 -0.00000000000E+00 -0.00000000000E+00 -0.21577081996E+02  0.21577081996E+02  0.00000000000E+00 0.  1.
          6    2    1    2  501    0  0.43529693593E+02  0.10479080310E+02  0.77498846085E+03  0.79571612158E+03  0.17479240929E+03 0.  0.
         24    2    3    3    0    0  0.93176843181E+02 -0.11464349094E+02  0.48301485029E+03  0.49870259862E+03  0.81163913582E+02 0.  0.
         -6    2    1    2    0  502 -0.43529693593E+02 -0.10479080310E+02  0.70171484383E+03  0.72414134709E+03  0.17312516619E+03 0.  0.
        -24    2    5    5    0    0 -0.26848328888E+01 -0.99421311647E+01  0.66077865083E+03  0.66612020562E+03  0.83556260336E+02 0.  0.
          5    1    3    3  501    0 -0.49647149588E+02  0.21943429405E+02  0.29197361056E+03  0.29701352296E+03  0.47000000000E+01 0. -1.
        -13    1    4    4    0    0  0.70037571564E+02 -0.24479693153E+02  0.18231597722E+03  0.19683402236E+03  0.00000000000E+00 0.  1.
         14    1    4    4    0    0  0.23139271617E+02  0.13015344058E+02  0.30069887307E+03  0.30186857627E+03  0.00000000000E+00 0. -1.
         -5    1    5    5    0  502 -0.40844860704E+02 -0.53694914570E+00  0.40936192995E+02  0.58021141468E+02  0.47000000000E+01 0.  1.
         11    1    6    6    0    0  0.28799675604E+02 -0.24520119684E+02  0.17190954044E+03  0.17602144096E+03  0.00000000000E+00 0. -1.
        -12    1    6    6    0    0 -0.31484508492E+02  0.14577988519E+02  0.48886911040E+03  0.49009876466E+03  0.00000000000E+00 0.  1.
<mgrwt>
<rscale>  2 0.18003066E+03</rscale>
<asrwt>0</asrwt>
<pdfrwt beam="1">  1       21 0.23050459E+00 0.18043567E+03</pdfrwt>
<pdfrwt beam="2">  1       21 0.33195523E-02 0.18043567E+03</pdfrwt>
<totfact> 0.46879002E+04</totfact>
</mgrwt>
</event>
<event>
12    1  0.1039378E-001  0.2068141E+03  0.7546771E-02  0.1144264E+00
         21   -1    0    0  503  502  0.00000000000E+00  0.00000000000E+00  0.16734949695E+03  0.16734949695E+03  0.00000000000E+00 0.  1.
         21   -1    0    0  501  503 -0.00000000000E+00 -0.00000000000E+00 -0.26201049303E+03  0.26201049303E+03  0.00000000000E+00 0. -1.
          6    2    1    2  501    0  0.11044206403E+03  0.28071272573E+02 -0.83347779136E+02  0.22297744177E+03  0.17258806853E+03 0.  0.
         24    2    3    3    0    0  0.15365910601E+02  0.26432608651E+02 -0.93114283742E+02  0.12727146086E+03  0.81197049840E+02 0.  0.
         -6    2    1    2    0  502 -0.11044206403E+03 -0.28071272573E+02 -0.11313216951E+02  0.20638254821E+03  0.17169834442E+03 0.  0.
        -24    2    5    5    0    0 -0.76196090972E+02  0.42648704090E+02  0.21162724598E+02  0.12123045752E+03  0.81389229494E+02 0.  0.
          5    1    3    3  501    0  0.95076153430E+02  0.16386639216E+01  0.97665046065E+01  0.95705980914E+02  0.47000000000E+01 0. -1.
        -11    1    4    4    0    0 -0.22039138765E+02 -0.16893847109E+02 -0.19088040088E+02  0.33696869024E+02  0.00000000000E+00 0.  1.
         12    1    4    4    0    0  0.37405049366E+02  0.43326455760E+02 -0.74026243655E+02  0.93574591831E+02  0.00000000000E+00 0. -1.
         -5    1    5    5    0  502 -0.34245973060E+02 -0.70719976663E+02 -0.32475941549E+02  0.85152090694E+02  0.47000000000E+01 0.  1.
         13    1    6    6    0    0 -0.18724728363E+02  0.17580879127E+02 -0.30580953441E+02  0.39936167524E+02  0.00000000000E+00 0. -1.
        -14    1    6    6    0    0 -0.57471362608E+02  0.25067824963E+02  0.51743678039E+02  0.81294289993E+02  0.00000000000E+00 0.  1.
<mgrwt>
<rscale>  2 0.20662841E+03</rscale>
<asrwt>0</asrwt>
<pdfrwt beam="1">  1       21 0.25746077E-01 0.20681414E+03</pdfrwt>
<pdfrwt beam="2">  1       21 0.40309306E-01 0.20681414E+03</pdfrwt>
<totfact> 0.84409759E+04</totfact>
</mgrwt>
</event>
<event>
12    1  0.1039378E-001  0.2059599E+03  0.7546771E-02  0.1145010E+00
         21   -1    0    0  503  502  0.00000000000E+00  0.00000000000E+00  0.17796551625E+03  0.17796551625E+03  0.00000000000E+00 0.  1.
         21   -1    0    0  501  503 -0.00000000000E+00 -0.00000000000E+00 -0.25400646770E+03  0.25400646770E+03  0.00000000000E+00 0. -1.
          6    2    1    2  501    0  0.83127591863E+02 -0.73782393066E+02 -0.93670096459E+02  0.22625994373E+03  0.17339387852E+03 0.  0.
         24    2    3    3    0    0  0.76792289136E+02 -0.23128797039E+02  0.62000667944E+01  0.11400103602E+03  0.80782414315E+02 0.  0.
         -6    2    1    2    0  502 -0.83127591863E+02  0.73782393066E+02  0.17629145008E+02  0.20571204022E+03  0.17219935738E+03 0.  0.
        -24    2    5    5    0    0 -0.12187472714E+03  0.66637188722E+02  0.34747276280E+02  0.16249728747E+03  0.76837693802E+02 0.  0.
          5    1    3    3  501    0  0.63353027264E+01 -0.50653596027E+02 -0.99870163253E+02  0.11225890771E+03  0.47000000000E+01 0. -1.
        -13    1    4    4    0    0 -0.12713697317E+02 -0.28648528107E+01  0.17192600016E+02  0.21573849365E+02  0.00000000000E+00 0.  1.
         14    1    4    4    0    0  0.89505986453E+02 -0.20263944228E+02 -0.10992533222E+02  0.92427186657E+02  0.00000000000E+00 0. -1.
         -5    1    5    5    0  502  0.38747135277E+02  0.71452043434E+01 -0.17118131271E+02  0.43214752753E+02  0.47000000000E+01 0.  1.
         13    1    6    6    0    0 -0.84873038503E+01 -0.71175431096E+01 -0.14763097427E+02  0.18456510835E+02  0.00000000000E+00 0. -1.
        -14    1    6    6    0    0 -0.11338742329E+03  0.73754731832E+02  0.49510373707E+02  0.14404077663E+03  0.00000000000E+00 0.  1.
<mgrwt>
<rscale>  2 0.20570827E+03</rscale>
<asrwt>0</asrwt>
<pdfrwt beam="1">  1       21 0.27379310E-01 0.20595989E+03</pdfrwt>
<pdfrwt beam="2">  1       21 0.39077918E-01 0.20595989E+03</pdfrwt>
<totfact> 0.79868691E+04</totfact>
</mgrwt>
</event>
<event>
12    1  0.1039378E-001  0.1915589E+03  0.7546771E-02  0.1157397E+00
         21   -1    0    0  503  502  0.00000000000E+00  0.00000000000E+00  0.53460684544E+03  0.53460684544E+03  0.00000000000E+00 0.  1.
         21   -1    0    0  501  503 -0.00000000000E+00 -0.00000000000E+00 -0.35622169904E+03  0.35622169904E+03  0.00000000000E+00 0. -1.
          6    2    1    2  501    0 -0.99497346117E+01  0.75046582653E+02 -0.31145274313E+03  0.36486660614E+03  0.17433829838E+03 0.  0.
         24    2    3    3    0    0  0.14942857466E+01  0.11992700261E+03 -0.23719778225E+03  0.27722468174E+03  0.78778280099E+02 0.  0.
         -6    2    1    2    0  502  0.99497346117E+01 -0.75046582653E+02  0.48983788953E+03  0.52596193835E+03  0.17596538233E+03 0.  0.
        -24    2    5    5    0    0 -0.18910213166E+02 -0.72728112099E+02  0.48450956361E+03  0.49614997852E+03  0.75949387794E+02 0.  0.
          5    1    3    3  501    0 -0.11444020358E+02 -0.44880419954E+02 -0.74254960880E+02  0.87641924400E+02  0.47000000000E+01 0. -1.
        -13    1    4    4    0    0  0.18760446679E+02  0.20210055061E+02 -0.11501272084E+02  0.29877749994E+02  0.00000000000E+00 0.  1.
         14    1    4    4    0    0 -0.17266160932E+02  0.99716947547E+02 -0.22569651017E+03  0.24734693175E+03  0.00000000000E+00 0. -1.
         -5    1    5    5    0  502  0.28859947778E+02 -0.23184705548E+01  0.53283259266E+01  0.29811959826E+02  0.47000000000E+01 0.  1.
         11    1    6    6    0    0 -0.24522961377E+02 -0.40473565357E+02  0.10430320055E+03  0.11453664380E+03  0.00000000000E+00 0. -1.
        -12    1    6    6    0    0  0.56127482113E+01 -0.32254546741E+02  0.38020636306E+03  0.38161333472E+03  0.00000000000E+00 0.  1.
<mgrwt>
<rscale>  2 0.19118439E+03</rscale>
<asrwt>0</asrwt>
<pdfrwt beam="1">  1       21 0.82247207E-01 0.19155887E+03</pdfrwt>
<pdfrwt beam="2">  1       21 0.54803338E-01 0.19155887E+03</pdfrwt>
<totfact> 0.40633617E+03</totfact>
</mgrwt>
</event>
<event>
12    1  0.1039378E-001  0.1739317E+03  0.7546771E-02  0.1174004E+00
         21   -1    0    0  503  502  0.00000000000E+00  0.00000000000E+00  0.47339854798E+03  0.47339854798E+03  0.00000000000E+00 0.  1.
         21   -1    0    0  501  503 -0.00000000000E+00 -0.00000000000E+00 -0.65314654889E+02  0.65314654889E+02  0.00000000000E+00 0.  1.
          6    2    1    2  501    0  0.74955018795E+01 -0.10927806739E+02  0.16110905541E+03  0.23708306706E+03  0.17342621902E+03 0.  0.
         24    2    3    3    0    0 -0.41184934381E+02  0.39207677488E+00  0.21787854922E+02  0.88993865757E+02  0.75821138057E+02 0.  0.
         -6    2    1    2    0  502 -0.74955018795E+01  0.10927806739E+02  0.24697483768E+03  0.30163013581E+03  0.17265158230E+03 0.  0.
        -24    2    5    5    0    0 -0.22996536613E+02  0.16131425591E+02  0.26417457457E+03  0.27743756100E+03  0.79964559731E+02 0.  0.
          5    1    3    3  501    0  0.48680436260E+02 -0.11319883514E+02  0.13932120049E+03  0.14808920131E+03  0.47000000000E+01 0. -1.
        -13    1    4    4    0    0 -0.54287075378E+02  0.10025507904E+02  0.37215552521E+02  0.66577734351E+02  0.00000000000E+00 0.  1.
         14    1    4    4    0    0  0.13102140997E+02 -0.96334311287E+01 -0.15427697599E+02  0.22416131407E+02  0.00000000000E+00 0. -1.
         -5    1    5    5    0  502  0.15501034734E+02 -0.52036188522E+01 -0.17199736890E+02  0.24192574813E+02  0.47000000000E+01 0.  1.
         11    1    6    6    0    0 -0.34204723794E+02  0.25820522543E+02  0.65896190237E+02  0.78606427231E+02  0.00000000000E+00 0. -1.
        -12    1    6    6    0    0  0.11208187180E+02 -0.96890969520E+01  0.19827838434E+03  0.19883113377E+03  0.00000000000E+00 0.  1.
<mgrwt>
<rscale>  2 0.17373833E+03</rscale>
<asrwt>0</asrwt>
<pdfrwt beam="1">  1       21 0.72830544E-01 0.17393175E+03</pdfrwt>
<pdfrwt beam="2">  1       21 0.10048409E-01 0.17393175E+03</pdfrwt>
<totfact> 0.13746298E+05</totfact>
</mgrwt>
</event>
<event>
12    1  0.1039378E-001  0.1987755E+03  0.7546771E-02  0.1151609E+00
         21   -1    0    0  501  502  0.00000000000E+00  0.00000000000E+00  0.56440578066E+03  0.56440578066E+03  0.00000000000E+00 0. -1.
         21   -1    0    0  502  503 -0.00000000000E+00 -0.00000000000E+00 -0.12880531691E+03  0.12880531691E+03  0.00000000000E+00 0. -1.
         -6    2    1    2    0  503 -0.88436405151E+02  0.30234367750E+01 -0.17924004601E+02  0.19958200301E+03  0.17799316577E+03 0.  0.
        -24    2    3    3    0    0 -0.67723242882E+02 -0.53104538630E+02 -0.53589798064E+02  0.12977137676E+03  0.81007494225E+02 0.  0.
          6    2    1    2  501    0  0.88436405151E+02 -0.30234367750E+01  0.45352446835E+03  0.49362909455E+03  0.17365224061E+03 0.  0.
         24    2    5    5    0    0  0.28856508987E+01  0.45465412503E+02  0.27494973681E+03  0.28971459089E+03  0.79131256080E+02 0.  0.
          5    1    5    5  501    0  0.85550754252E+02 -0.48488849278E+02  0.17857473154E+03  0.20391450366E+03  0.47000000000E+01 0. -1.
        -13    1    6    6    0    0 -0.53238093239E+01 -0.89435184513E+01  0.17748607348E+03  0.17779098894E+03  0.00000000000E+00 0.  1.
         14    1    6    6    0    0  0.82094602226E+01  0.54408930954E+02  0.97463663326E+02  0.11192360195E+03  0.00000000000E+00 0. -1.
         -5    1    3    3    0  503 -0.20713162269E+02  0.56127975405E+02  0.35665793463E+02  0.69810626251E+02  0.47000000000E+01 0.  1.
         13    1    4    4    0    0 -0.70993354292E+02 -0.68158815391E+01 -0.26796712079E+02  0.76187770496E+02  0.00000000000E+00 0. -1.
        -14    1    4    4    0    0  0.32701114107E+01 -0.46288657091E+02 -0.26793085985E+02  0.53583606266E+02  0.00000000000E+00 0.  1.
<mgrwt>
<rscale>  2 0.19779897E+03</rscale>
<asrwt>0</asrwt>
<pdfrwt beam="1">  1       21 0.86831657E-01 0.19877552E+03</pdfrwt>
<pdfrwt beam="2">  1       21 0.19816203E-01 0.19877552E+03</pdfrwt>
<totfact> 0.26703162E+04</totfact>
</mgrwt>
</event>
<event>
12    1  0.1039378E-001  0.1978931E+03  0.7546771E-02  0.1151891E+00
         21   -1    0    0  503  502  0.00000000000E+00  0.00000000000E+00  0.18466579765E+03  0.18466579765E+03  0.00000000000E+00 0. -1.
         21   -1    0    0  501  503 -0.00000000000E+00 -0.00000000000E+00 -0.21187500329E+03  0.21187500329E+03  0.00000000000E+00 0.  1.
          6    2    1    2  501    0  0.57668412463E+02  0.75218110654E+02 -0.30840776823E+02  0.19861441116E+03  0.17179383236E+03 0.  0.
         24    2    3    3    0    0 -0.12900885624E+02  0.55659189857E+02  0.30013315357E+02  0.10328399759E+03  0.80637502409E+02 0.  0.
         -6    2    1    2    0  502 -0.57668412463E+02 -0.75218110654E+02  0.36315711843E+01  0.19792638979E+03  0.17371890369E+03 0.  0.
        -24    2    5    5    0    0 -0.10468606686E+03 -0.46546417357E+02 -0.12051164545E+02  0.14047411375E+03  0.80386594059E+02 0.  0.
          5    1    3    3  501    0  0.70569298087E+02  0.19558920797E+02 -0.60854092180E+02  0.95330413564E+02  0.47000000000E+01 0. -1.
        -13    1    4    4    0    0 -0.39947905445E+02  0.54352276455E+02  0.71267251506E+01  0.67829162730E+02  0.00000000000E+00 0.  1.
         14    1    4    4    0    0  0.27047019822E+02  0.13069134015E+01  0.22886590207E+02  0.35454834863E+02  0.00000000000E+00 0. -1.
         -5    1    5    5    0  502  0.47017654398E+02 -0.28671693297E+02  0.15682735730E+02  0.57452276034E+02  0.47000000000E+01 0.  1.
         13    1    6    6    0    0 -0.55406881749E+02 -0.42476737493E+02  0.29591770783E+02  0.75827888479E+02  0.00000000000E+00 0. -1.
        -14    1    6    6    0    0 -0.49279185112E+02 -0.40696798641E+01 -0.41642935328E+02  0.64646225274E+02  0.00000000000E+00 0.  1.
<mgrwt>
<rscale>  2 0.19746978E+03</rscale>
<asrwt>0</asrwt>
<pdfrwt beam="1">  1       21 0.28410123E-01 0.19789307E+03</pdfrwt>
<pdfrwt beam="2">  1       21 0.32596154E-01 0.19789307E+03</pdfrwt>
<totfact> 0.10707143E+05</totfact>
</mgrwt>
</event>
<event>
12    1  0.1039378E-001  0.1939933E+03  0.7546771E-02  0.1155590E+00
         21   -1    0    0  503  502  0.00000000000E+00  0.00000000000E+00  0.63888845828E+03  0.63888845828E+03  0.00000000000E+00 0. -1.
         21   -1    0    0  501  503 -0.00000000000E+00 -0.00000000000E+00 -0.70959839192E+02  0.70959839192E+02  0.00000000000E+00 0. -1.
          6    2    1    2  501    0 -0.55224327989E+02 -0.69037389098E+02  0.13026871505E+03  0.23112122929E+03  0.16920755601E+03 0.  0.
         24    2    3    3    0    0 -0.62045973766E+01 -0.75580111968E+02  0.22722304265E+02  0.11265578418E+03  0.80150934148E+02 0.  0.
         -6    2    1    2    0  502  0.55224327989E+02  0.69037389098E+02  0.43765990404E+03  0.47872706818E+03  0.17267752232E+03 0.  0.
        -24    2    5    5    0    0  0.18845000738E+00  0.78190458847E+02  0.15326525130E+03  0.18887342398E+03  0.77904747366E+02 0.  0.
          5    1    3    3  501    0 -0.49019730612E+02  0.65427228700E+01  0.10754641079E+03  0.11846544511E+03  0.47000000000E+01 0. -1.
        -11    1    4    4    0    0  0.19513736578E+02 -0.30277882473E+01 -0.16980568887E+02  0.26044061447E+02  0.00000000000E+00 0.  1.
         12    1    4    4    0    0 -0.25718333955E+02 -0.72552323720E+02  0.39702873151E+02  0.86611722735E+02  0.00000000000E+00 0. -1.
         -5    1    5    5    0  502  0.55035877981E+02 -0.91530697490E+01  0.28439465274E+03  0.28985364420E+03  0.47000000000E+01 0.  1.
         13    1    6    6    0    0  0.28175483171E+02  0.39529053702E+01  0.24093534503E+02  0.37282458579E+02  0.00000000000E+00 0. -1.
        -14    1    6    6    0    0 -0.27987033164E+02  0.74237553477E+02  0.12917171679E+03  0.15159096540E+03  0.00000000000E+00 0.  1.
<mgrwt>
<rscale>  2 0.19321817E+03</rscale>
<asrwt>0</asrwt>
<pdfrwt beam="1">  1       21 0.98290528E-01 0.19399334E+03</pdfrwt>
<pdfrwt beam="2">  1       21 0.10916899E-01 0.19399334E+03</pdfrwt>
<totfact> 0.59363244E+04</totfact>
</mgrwt>
</event>
<event>
12    1  0.1039378E-001  0.2669893E+03  0.7546771E-02  0.1103253E+00
         21   -1    0    0  503  502  0.00000000000E+00  0.00000000000E+00  0.11815767675E+04  0.11815767675E+04  0.00000000000E+00 0.  1.
         21   -1    0    0  501  503 -0.00000000000E+00 -0.00000000000E+00 -0.68118385811E+02  0.68118385811E+02  0.00000000000E+00 0.  1.
          6    2    1    2  501    0  0.80361130732E+02  0.18580795612E+03  0.33900053937E+03  0.43050761232E+03  0.17156028295E+03 0.  0.
         24    2    3    3    0    0 -0.13451131499E-01  0.13099873106E+03  0.27133673311E+03  0.31191332393E+03  0.80657493093E+02 0.  0.
         -6    2    1    2    0  502 -0.80361130732E+02 -0.18580795612E+03  0.77445784231E+03  0.81918754098E+03  0.17407116331E+03 0.  0.
        -24    2    5    5    0    0 -0.45885391270E+02 -0.13419604246E+03  0.30820706915E+03  0.34880021152E+03  0.80968778794E+02 0.  0.
          5    1    3    3  501    0  0.80374581863E+02  0.54809225053E+02  0.67663806265E+02  0.11859428839E+03  0.47000000000E+01 0. -1.
        -11    1    4    4    0    0  0.10140040861E+02  0.95426014811E+02  0.10815373616E+03  0.14458967936E+03  0.00000000000E+00 0.  1.
         12    1    4    4    0    0 -0.10153491992E+02  0.35572716254E+02  0.16318299695E+03  0.16732364457E+03  0.00000000000E+00 0. -1.
         -5    1    5    5    0  502 -0.34475739462E+02 -0.51611913653E+02  0.46625077316E+03  0.47038732946E+03  0.47000000000E+01 0.  1.
         13    1    6    6    0    0 -0.83624163911E+00  0.66148322647E+01 -0.32534193603E+00  0.66754140953E+01  0.00000000000E+00 0. -1.
        -14    1    6    6    0    0 -0.45049149631E+02 -0.14081087473E+03  0.30853241108E+03  0.34212479742E+03  0.00000000000E+00 0.  1.
<mgrwt>
<rscale>  2 0.26658080E+03</rscale>
<asrwt>0</asrwt>
<pdfrwt beam="1">  1       21 0.18178103E+00 0.26698928E+03</pdfrwt>
<pdfrwt beam="2">  1       21 0.10479753E-01 0.26698928E+03</pdfrwt>
<totfact> 0.12566983E+04</totfact>
</mgrwt>
</event>
<event>
12    1  0.1039378E-001  0.2752324E+03  0.7546771E-02  0.1098457E+00
         21   -1    0    0  503  502  0.00000000000E+00  0.00000000000E+00  0.61647701741E+03  0.61647701741E+03  0.00000000000E+00 0. -1.
         21   -1    0    0  501  503 -0.00000000000E+00 -0.00000000000E+00 -0.16952538774E+03  0.16952538774E+03  0.00000000000E+00 0. -1.
          6    2    1    2  501    0 -0.65303822863E+02 -0.20355644395E+03  0.16661680967E+02  0.27573628628E+03  0.17335822104E+03 0.  0.
         24    2    3    3    0    0  0.13471492040E+02 -0.52361764187E+02 -0.26808857420E+02  0.99732993310E+02  0.79402264903E+02 0.  0.
         -6    2    1    2    0  502  0.65303822863E+02  0.20355644395E+03  0.43028994870E+03  0.51026611887E+03  0.17182042065E+03 0.  0.
        -24    2    5    5    0    0  0.51603770382E+02  0.73180581539E+02  0.30815978332E+03  0.33103603145E+03  0.81265339667E+02 0.  0.
          5    1    3    3  501    0 -0.78775314903E+02 -0.15119467977E+03  0.43470538388E+02  0.17600329297E+03  0.47000000000E+01 0. -1.
        -13    1    4    4    0    0  0.33533277603E+02 -0.28427280239E+02  0.15965793085E+02  0.46770690795E+02  0.00000000000E+00 0.  1.
         14    1    4    4    0    0 -0.20061785563E+02 -0.23934483948E+02 -0.42774650505E+02  0.52962302515E+02  0.00000000000E+00 0. -1.
         -5    1    5    5    0  502  0.13700052481E+02  0.13037586241E+03  0.12213016538E+03  0.17923008741E+03  0.47000000000E+01 0.  1.
         11    1    6    6    0    0  0.53317029205E+02  0.88148318621E+02  0.23904894080E+03  0.26030218550E+03  0.00000000000E+00 0. -1.
        -12    1    6    6    0    0 -0.17132588228E+01 -0.14967737081E+02  0.69110842521E+02  0.70733845952E+02  0.00000000000E+00 0.  1.
<mgrwt>
<rscale>  2 0.27499061E+03</rscale>
<asrwt>0</asrwt>
<pdfrwt beam="1">  1       21 0.94842617E-01 0.27523243E+03</pdfrwt>
<pdfrwt beam="2">  1       21 0.26080829E-01 0.27523243E+03</pdfrwt>
<totfact> 0.12381898E+04</totfact>
</mgrwt>
</event>
<event>
12    1  0.1039378E-001  0.1970980E+03  0.7546771E-02  0.1152797E+00
         21   -1    0    0  501  502  0.00000000000E+00  0.00000000000E+00  0.21935057727E+03  0.21935057727E+03  0.00000000000E+00 0. -1.
         21   -1    0    0  502  503 -0.00000000000E+00 -0.00000000000E+00 -0.17699451397E+03  0.17699451397E+03  0.00000000000E+00 0.  1.
         -6    2    1    2    0  503  0.59771492044E+02 -0.58487918050E+02 -0.16303851395E+01  0.19439849068E+03  0.17548403689E+03 0.  0.
        -24    2    3    3    0    0 -0.22205847690E+02 -0.29092035100E+02 -0.42152802385E+02  0.98229064849E+02  0.80824775004E+02 0.  0.
          6    2    1    2  501    0 -0.59771492044E+02  0.58487918050E+02  0.43986448437E+02  0.20194660057E+03  0.17847732073E+03 0.  0.
         24    2    5    5    0    0 -0.62130879384E+02  0.97367573824E+02  0.67686353079E+02  0.15611026322E+03  0.80301191043E+02 0.  0.
          5    1    5    5  501    0  0.23593873394E+01 -0.38879655774E+02 -0.23699904641E+02  0.45836337351E+02  0.47000000000E+01 0. -1.
        -11    1    6    6    0    0 -0.53162548951E+01 -0.12086874932E+02 -0.35754189714E+01  0.13679865955E+02  0.00000000000E+00 0.  1.
         12    1    6    6    0    0 -0.56814624489E+02  0.10945444876E+03  0.71261772050E+02  0.14243039726E+03  0.00000000000E+00 0. -1.
         -5    1    3    3    0  503  0.81977339734E+02 -0.29395882950E+02  0.40522417245E+02  0.96169425826E+02  0.47000000000E+01 0.  1.
         13    1    4    4    0    0 -0.28176061143E+02  0.77402493981E+01  0.12722713739E+02  0.31869567414E+02  0.00000000000E+00 0. -1.
        -14    1    4    4    0    0  0.59702134536E+01 -0.36832284498E+02 -0.54875516123E+02  0.66359497435E+02  0.00000000000E+00 0.  1.
<mgrwt>
<rscale>  2 0.19641790E+03</rscale>
<asrwt>0</asrwt>
<pdfrwt beam="1">  1       21 0.33746243E-01 0.19709800E+03</pdfrwt>
<pdfrwt beam="2">  1       21 0.27229925E-01 0.19709800E+03</pdfrwt>
<totfact> 0.10857478E+05</totfact>
</mgrwt>
</event>
<event>
12    1  0.1039378E-001  0.2901280E+03  0.7546771E-02  0.1090471E+00
         21   -1    0    0  503  502  0.00000000000E+00  0.00000000000E+00  0.55793140467E+03  0.55793140467E+03  0.00000000000E+00 0.  1.
         21   -1    0    0  501  503 -0.00000000000E+00 -0.00000000000E+00 -0.18192733787E+03  0.18192733787E+03  0.00000000000E+00 0.  1.
          6    2    1    2  501    0  0.14149818184E+03  0.18288048268E+03  0.33708669223E+02  0.29207964313E+03  0.17523480574E+03 0.  0.
         24    2    3    3    0    0  0.14206322526E+03  0.20233345455E+03  0.51641144908E+02  0.26520212330E+03  0.80898526289E+02 0.  0.
         -6    2    1    2    0  502 -0.14149818184E+03 -0.18288048268E+03  0.34229539758E+03  0.44777909940E+03  0.17283800578E+03 0.  0.
        -24    2    5    5    0    0 -0.11231581085E+03 -0.69966312078E+02  0.26498072323E+03  0.30777599383E+03  0.83672889877E+02 0.  0.
          5    1    3    3  501    0 -0.56504341216E+00 -0.19452971863E+02 -0.17932475685E+02  0.26877519836E+02  0.47000000000E+01 0. -1.
        -11    1    4    4    0    0  0.46323321270E+02  0.19722693475E+02  0.28148648282E+02  0.57681722682E+02  0.00000000000E+00 0.  1.
         12    1    4    4    0    0  0.95739903986E+02  0.18261076107E+03  0.23492496625E+02  0.20752040062E+03  0.00000000000E+00 0. -1.
         -5    1    5    5    0  502 -0.29182370997E+02 -0.11291417060E+03  0.77314674352E+02  0.14000310557E+03  0.47000000000E+01 0.  1.
         13    1    6    6    0    0 -0.26734511128E+02 -0.70076983850E+00  0.75492449351E+01  0.27788779439E+02  0.00000000000E+00 0. -1.
        -14    1    6    6    0    0 -0.85581299719E+02 -0.69265542240E+02  0.25743147829E+03  0.27998721439E+03  0.00000000000E+00 0.  1.
<mgrwt>
<rscale>  2 0.28976697E+03</rscale>
<asrwt>0</asrwt>
<pdfrwt beam="1">  1       21 0.85835600E-01 0.29012798E+03</pdfrwt>
<pdfrwt beam="2">  1       21 0.27988821E-01 0.29012798E+03</pdfrwt>
<totfact> 0.13540671E+04</totfact>
</mgrwt>
</event>
<event>
12    1  0.1039378E-001  0.1797726E+03  0.7546771E-02  0.1168257E+00
         21   -1    0    0  501  502  0.00000000000E+00  0.00000000000E+00  0.95449595400E+03  0.95449595400E+03  0.00000000000E+00 0.  1.
         21   -1    0    0  502  503 -0.00000000000E+00 -0.00000000000E+00 -0.52896361233E+02  0.52896361233E+02  0.00000000000E+00 0.  1.
         -6    2    1    2    0  503  0.35360529492E+02  0.22877446153E+02  0.14796252832E+03  0.23283280512E+03  0.17476973640E+03 0.  0.
        -24    2    3    3    0    0  0.12648393189E+02  0.74969329325E+02  0.55296076297E+02  0.12402762712E+03  0.80900025003E+02 0.  0.
          6    2    1    2  501    0 -0.35360529492E+02 -0.22877446153E+02  0.75363706444E+03  0.77455951012E+03  0.17378108418E+03 0.  0.
         24    2    5    5    0    0 -0.64934810122E+02 -0.70231823762E+02  0.53647286553E+03  0.55028411146E+03  0.76553440408E+02 0.  0.
          5    1    5    5  501    0  0.29574280629E+02  0.47354377608E+02  0.21716419891E+03  0.22427539865E+03  0.47000000000E+01 0. -1.
        -13    1    6    6    0    0 -0.34526405368E+02  0.21911063301E+01  0.80860995544E+02  0.87950976202E+02  0.00000000000E+00 0.  1.
         14    1    6    6    0    0 -0.30408404754E+02 -0.72422930092E+02  0.45561186999E+03  0.46233313526E+03  0.00000000000E+00 0. -1.
         -5    1    3    3    0  503  0.22712136304E+02 -0.52091883172E+02  0.92666452027E+02  0.10880517800E+03  0.47000000000E+01 0.  1.
         13    1    4    4    0    0 -0.18544619128E+02  0.65616707118E+02  0.60368058729E+02  0.91070070091E+02  0.00000000000E+00 0. -1.
        -14    1    4    4    0    0  0.31193012317E+02  0.93526222067E+01 -0.50719824320E+01  0.32957557029E+02  0.00000000000E+00 0.  1.
<mgrwt>
<rscale>  2 0.17953192E+03</rscale>
<asrwt>0</asrwt>
<pdfrwt beam="1">  1       21 0.14684552E+00 0.17977265E+03</pdfrwt>
<pdfrwt beam="2">  1       21 0.81379024E-02 0.17977265E+03</pdfrwt>
<totfact> 0.37097359E+04</totfact>
</mgrwt>
</event>
<event>
12    1  0.1039378E-001  0.2180411E+03  0.7546771E-02  0.1135416E+00
         21   -1    0    0  501  502  0.00000000000E+00  0.00000000000E+00  0.22953953243E+03  0.22953953243E+03  0.00000000000E+00 0. -1.
         21   -1    0    0  502  503 -0.00000000000E+00 -0.00000000000E+00 -0.32283370048E+03  0.32283370048E+03  0.00000000000E+00 0.  1.
         -6    2    1    2    0  503  0.13258179096E+03 -0.76290151850E+01 -0.21220668573E+03  0.30401438602E+03  0.17250198917E+03 0.  0.
        -24    2    3    3    0    0  0.29178793946E+02  0.47502413063E+02 -0.11982112566E+03  0.15471992570E+03  0.80456646649E+02 0.  0.
          6    2    1    2  501    0 -0.13258179096E+03  0.76290151850E+01  0.11891251768E+03  0.24835884688E+03  0.17293292571E+03 0.  0.
         24    2    5    5    0    0 -0.12182222839E+02  0.45643352127E+02  0.37421449046E+02  0.98012479834E+02  0.77293979118E+02 0.  0.
          5    1    5    5  501    0 -0.12039956812E+03 -0.38014336942E+02  0.81491068637E+02  0.15034636705E+03  0.47000000000E+01 0. -1.
        -13    1    6    6    0    0 -0.55578521323E+01 -0.51765985663E+01 -0.19793306006E+02  0.21200515458E+02  0.00000000000E+00 0.  1.
         14    1    6    6    0    0 -0.66243707066E+01  0.50819950693E+02  0.57214755052E+02  0.76811964376E+02  0.00000000000E+00 0. -1.
         -5    1    3    3    0  503  0.10340299702E+03 -0.55131428248E+02 -0.92385560069E+02  0.14929446032E+03  0.47000000000E+01 0.  1.
         13    1    4    4    0    0 -0.17571009509E+02  0.19266521354E+02 -0.87399383174E+02  0.91206312278E+02  0.00000000000E+00 0. -1.
        -14    1    4    4    0    0  0.46749803455E+02  0.28235891709E+02 -0.32421742491E+02  0.63513613421E+02  0.00000000000E+00 0.  1.
<mgrwt>
<rscale>  2 0.21795566E+03</rscale>
<asrwt>0</asrwt>
<pdfrwt beam="1">  1       21 0.35313774E-01 0.21804112E+03</pdfrwt>
<pdfrwt beam="2">  1       21 0.49666723E-01 0.21804112E+03</pdfrwt>
<totfact> 0.29466708E+04</totfact>
</mgrwt>
</event>
<event>
12    1  0.1039378E-001  0.2460374E+03  0.7546771E-02  0.1115872E+00
         21   -1    0    0  503  502  0.00000000000E+00  0.00000000000E+00  0.52387051842E+03  0.52387051842E+03  0.00000000000E+00 0.  1.
         21   -1    0    0  501  503 -0.00000000000E+00 -0.00000000000E+00 -0.12694170233E+03  0.12694170233E+03  0.00000000000E+00 0. -1.
          6    2    1    2  501    0 -0.12941723248E+03 -0.10983697394E+03  0.10045112240E+03  0.26554165329E+03  0.17778909059E+03 0.  0.
         24    2    3    3    0    0 -0.18328930294E+02 -0.22761269205E+02  0.88904516697E+02  0.12384407624E+03  0.81112989528E+02 0.  0.
         -6    2    1    2    0  502  0.12941723248E+03  0.10983697394E+03  0.29647769369E+03  0.38527056746E+03  0.17810504312E+03 0.  0.
        -24    2    5    5    0    0 -0.71487661874E+01  0.31319190247E+02  0.82630455372E+02  0.11962409998E+03  0.80312742481E+02 0.  0.
          5    1    3    3  501    0 -0.11108830218E+03 -0.87075704731E+02  0.11546605703E+02  0.14169757704E+03  0.47000000000E+01 0. -1.
        -11    1    4    4    0    0  0.20907936986E+02  0.19452134965E+02  0.28009921980E+02  0.40001038899E+02  0.00000000000E+00 0.  1.
         12    1    4    4    0    0 -0.39236867280E+02 -0.42213404170E+02  0.60894594717E+02  0.83843037345E+02  0.00000000000E+00 0. -1.
         -5    1    5    5    0  502  0.13656599867E+03  0.78517783689E+02  0.21384723832E+03  0.26564646748E+03  0.47000000000E+01 0.  1.
         13    1    6    6    0    0  0.30041723530E+02  0.67141452906E+01  0.66019211706E+01  0.31482856649E+02  0.00000000000E+00 0. -1.
        -14    1    6    6    0    0 -0.37190489717E+02  0.24605044956E+02  0.76028534201E+02  0.88141243329E+02  0.00000000000E+00 0.  1.
<mgrwt>
<rscale>  2 0.24598019E+03</rscale>
<asrwt>0</asrwt>
<pdfrwt beam="1">  1       21 0.80595463E-01 0.24603737E+03</pdfrwt>
<pdfrwt beam="2">  1       21 0.19529493E-01 0.24603737E+03</pdfrwt>
<totfact> 0.31764567E+04</totfact>
</mgrwt>
</event>
<event>
12    1  0.1039378E-001  0.3783608E+03  0.7546771E-02  0.1051584E+00
         21   -1    0    0  503  502  0.00000000000E+00  0.00000000000E+00  0.11855541821E+03  0.11855541821E+03  0.00000000000E+00 0. -1.
         21   -1    0    0  501  503 -0.00000000000E+00 -0.00000000000E+00 -0.13228169187E+04  0.13228169187E+04  0.00000000000E+00 0.  1.
          6    2    1    2  501    0  0.28894151941E+03  0.17271840367E+03 -0.81591131497E+03  0.89917977569E+03  0.17173859938E+03 0.  0.
         24    2    3    3    0    0  0.28246966658E+03  0.16680198412E+03 -0.82120105927E+03  0.88791210983E+03  0.80029498259E+02 0.  0.
         -6    2    1    2    0  502 -0.28894151941E+03 -0.17271840367E+03 -0.38835018554E+03  0.54219256123E+03  0.17273696258E+03 0.  0.
        -24    2    5    5    0    0 -0.25896632493E+03 -0.17286242991E+03 -0.39682907273E+03  0.51068836222E+03  0.79901897477E+02 0.  0.
          5    1    3    3  501    0  0.64718528319E+01  0.59164195501E+01  0.52897442984E+01  0.11267665868E+02  0.47000000000E+01 0. -1.
        -13    1    4    4    0    0  0.24921798927E+03  0.13128906138E+03 -0.62124921419E+03  0.68212682834E+03  0.00000000000E+00 0.  1.
         14    1    4    4    0    0  0.33251677310E+02  0.35512922733E+02 -0.19995184508E+03  0.20578528149E+03  0.00000000000E+00 0. -1.
         -5    1    5    5    0  502 -0.29975194477E+02  0.14402624351E+00  0.84788871880E+01  0.31504199013E+02  0.47000000000E+01 0.  1.
         13    1    6    6    0    0 -0.97594491662E+02 -0.31571313160E+02 -0.16970161418E+03  0.19829289063E+03  0.00000000000E+00 0. -1.
        -14    1    6    6    0    0 -0.16137183327E+03 -0.14129111675E+03 -0.22712745855E+03  0.31239547160E+03  0.00000000000E+00 0.  1.
<mgrwt>
<rscale>  2 0.37824708E+03</rscale>
<asrwt>0</asrwt>
<pdfrwt beam="1">  1       21 0.18239296E-01 0.37836082E+03</pdfrwt>
<pdfrwt beam="2">  1       21 0.20351028E+00 0.37836082E+03</pdfrwt>
<totfact> 0.30706055E+03</totfact>
</mgrwt>
</event>
<event>
12    1  0.1039378E-001  0.2073212E+03  0.7546771E-02  0.1143995E+00
         21   -1    0    0  503  502  0.00000000000E+00  0.00000000000E+00  0.36757883766E+03  0.36757883766E+03  0.00000000000E+00 0.  1.
         21   -1    0    0  501  503 -0.00000000000E+00 -0.00000000000E+00 -0.18315931561E+03  0.18315931561E+03  0.00000000000E+00 0.  1.
          6    2    1    2  501    0 -0.18090466846E+02  0.11087537705E+03 -0.74175421963E+02  0.22019098608E+03  0.17424540999E+03 0.  0.
         24    2    3    3    0    0 -0.26808135725E+02  0.87348549199E+01  0.12056306187E+02  0.86151122789E+02  0.80508928744E+02 0.  0.
         -6    2    1    2    0  502  0.18090466846E+02 -0.11087537705E+03  0.25859494402E+03  0.33054716719E+03  0.17253831587E+03 0.  0.
        -24    2    5    5    0    0  0.71168559174E+02 -0.10896193219E+03  0.19376062896E+03  0.24660359349E+03  0.79576909384E+02 0.  0.
          5    1    3    3  501    0  0.87176688795E+01  0.10214052213E+03 -0.86231728150E+02  0.13403986329E+03  0.47000000000E+01 0. -1.
        -11    1    4    4    0    0  0.11982669252E+02  0.33758614785E+02 -0.64856704804E+01  0.36404565046E+02  0.00000000000E+00 0.  1.
         12    1    4    4    0    0 -0.38790804977E+02 -0.25023759866E+02  0.18541976668E+02  0.49746557743E+02  0.00000000000E+00 0. -1.
         -5    1    5    5    0  502 -0.53078092329E+02 -0.19134448545E+01  0.64834315059E+02  0.83943573701E+02  0.47000000000E+01 0.  1.
         13    1    6    6    0    0  0.25586550586E+02 -0.56204980756E+02  0.30077294571E+02  0.68689992586E+02  0.00000000000E+00 0. -1.
        -14    1    6    6    0    0  0.45582008588E+02 -0.52756951438E+02  0.16368333439E+03  0.17791360091E+03  0.00000000000E+00 0.  1.
<mgrwt>
<rscale>  2 0.20696209E+03</rscale>
<asrwt>0</asrwt>
<pdfrwt beam="1">  1       21 0.56550590E-01 0.20732119E+03</pdfrwt>
<pdfrwt beam="2">  1       21 0.28178356E-01 0.20732119E+03</pdfrwt>
<totfact> 0.35115751E+04</totfact>
</mgrwt>
</event>
<event>
12    1  0.1039378E-001  0.3569949E+03  0.7546771E-02  0.1059813E+00
         21   -1    0    0  503  502  0.00000000000E+00  0.00000000000E+00  0.10018551539E+04  0.10018551539E+04  0.00000000000E+00 0.  1.
         21   -1    0    0  501  503 -0.00000000000E+00 -0.00000000000E+00 -0.43118285973E+03  0.43118285973E+03  0.00000000000E+00 0.  1.
          6    2    1    2  501    0  0.11573875770E+03  0.28976098453E+03 -0.31642931469E+03  0.47679817013E+03  0.17277759016E+03 0.  0.
         24    2    3    3    0    0  0.12124073438E+03  0.19014883564E+03 -0.15002675662E+03  0.28272407788E+03  0.81049251329E+02 0.  0.
         -6    2    1    2    0  502 -0.11573875770E+03 -0.28976098453E+03  0.88710160889E+03  0.95623984353E+03  0.17346032878E+03 0.  0.
        -24    2    5    5    0    0  0.92721724311E+00 -0.16926139570E+03  0.40693509110E+03  0.44760139096E+03  0.78106062620E+02 0.  0.
          5    1    3    3  501    0 -0.55019766796E+01  0.99612148882E+02 -0.16640255807E+03  0.19407409226E+03  0.47000000000E+01 0. -1.
        -13    1    4    4    0    0  0.16254895564E+02  0.59228779939E+02 -0.62422100110E+01  0.61735202184E+02  0.00000000000E+00 0.  1.
         14    1    4    4    0    0  0.10498583881E+03  0.13092005570E+03 -0.14378454661E+03  0.22098887569E+03  0.00000000000E+00 0. -1.
         -5    1    5    5    0  502 -0.11666597494E+03 -0.12049958883E+03  0.48016651779E+03  0.50863845256E+03  0.47000000000E+01 0.  1.
         13    1    6    6    0    0 -0.19107846279E+02 -0.13061947525E+03  0.22809939266E+03  0.26354485394E+03  0.00000000000E+00 0. -1.
        -14    1    6    6    0    0  0.20035063522E+02 -0.38641920449E+02  0.17883569844E+03  0.18405653702E+03  0.00000000000E+00 0.  1.
<mgrwt>
<rscale>  2 0.35691208E+03</rscale>
<asrwt>0</asrwt>
<pdfrwt beam="1">  1       21 0.15413156E+00 0.35699492E+03</pdfrwt>
<pdfrwt beam="2">  1       21 0.66335825E-01 0.35699492E+03</pdfrwt>
<totfact> 0.50669284E+02</totfact>
</mgrwt>
</event>
<event>
12    1  0.1039378E-001  0.1757074E+03  0.7546771E-02  0.1172742E+00
         21   -1    0    0  501  502  0.00000000000E+00  0.00000000000E+00  0.54974494957E+02  0.54974494957E+02  0.00000000000E+00 0.  1.
         21   -1    0    0  502  503 -0.00000000000E+00 -0.00000000000E+00 -0.55443045706E+03  0.55443045706E+03  0.00000000000E+00 0. -1.
         -6    2    1    2    0  503  0.11969392523E+02 -0.21636288969E+02 -0.26970064380E+03  0.32188744913E+03  0.17395889538E+03 0.  0.
        -24    2    3    3    0    0  0.10231421733E+02  0.54515531044E+02 -0.17582887211E+03  0.20090761711E+03  0.79821383301E+02 0.  0.
          6    2    1    2  501    0 -0.11969392523E+02  0.21636288969E+02 -0.22975531831E+03  0.28751750289E+03  0.17107721304E+03 0.  0.
         24    2    5    5    0    0 -0.17576415503E+02  0.99938788311E+01 -0.31488881490E+02  0.88774819029E+02  0.80502241212E+02 0.  0.
          5    1    5    5  501    0  0.56070229793E+01  0.11642410138E+02 -0.19826643681E+03  0.19874268386E+03  0.47000000000E+01 0. -1.
        -11    1    6    6    0    0  0.22022532908E+02  0.30551009249E+02 -0.20267871260E+02  0.42768478196E+02  0.00000000000E+00 0.  1.
         12    1    6    6    0    0 -0.39598948411E+02 -0.20557130418E+02 -0.11221010231E+02  0.46006340833E+02  0.00000000000E+00 0. -1.
         -5    1    3    3    0  503  0.17379707899E+01 -0.76151820014E+02 -0.93871771693E+02  0.12097983202E+03  0.47000000000E+01 0.  1.
         11    1    4    4    0    0  0.98500428047E+01  0.45453635938E+02 -0.31222237459E+02  0.56016823144E+02  0.00000000000E+00 0. -1.
        -12    1    4    4    0    0  0.38137892879E+00  0.90618951064E+01 -0.14460663465E+03  0.14489079397E+03  0.00000000000E+00 0.  1.
<mgrwt>
<rscale>  2 0.17498989E+03</rscale>
<asrwt>0</asrwt>
<pdfrwt beam="1">  1       21 0.84576151E-02 0.17570741E+03</pdfrwt>
<pdfrwt beam="2">  1       21 0.85296988E-01 0.17570741E+03</pdfrwt>
<totfact> 0.13027197E+05</totfact>
</mgrwt>
</event>
<event>
12    1  0.1039378E-001  0.2082421E+03  0.7546771E-02  0.1144147E+00
         21   -1    0    0  501  502  0.00000000000E+00  0.00000000000E+00  0.12041852753E+04  0.12041852753E+04  0.00000000000E+00 0. -1.
         21   -1    0    0  502  503 -0.00000000000E+00 -0.00000000000E+00 -0.82072450883E+02  0.82072450883E+02  0.00000000000E+00 0.  1.
         -6    2    1    2    0  503 -0.11256219713E+03 -0.35916765120E+02  0.70697936666E+02  0.21441909528E+03  0.16436875595E+03 0.  0.
        -24    2    3    3    0    0 -0.97807142191E+02  0.22086141444E+01  0.10383849589E+03  0.16158309565E+03  0.75865331550E+02 0.  0.
          6    2    1    2  501    0  0.11256219713E+03  0.35916765120E+02  0.10514148878E+04  0.10718386309E+04  0.17147746873E+03 0.  0.
         24    2    5    5    0    0  0.11127460571E+03 -0.28853928409E+01  0.48105077168E+03  0.50013540347E+03  0.79594054475E+02 0.  0.
          5    1    5    5  501    0  0.12875914204E+01  0.38802157961E+02  0.57036411610E+03  0.57170322746E+03  0.47000000000E+01 0. -1.
        -11    1    6    6    0    0  0.69541292891E+02  0.33823193839E+02  0.33640467930E+03  0.34517837144E+03  0.00000000000E+00 0.  1.
         12    1    6    6    0    0  0.41733312816E+02 -0.36708586680E+02  0.14464609238E+03  0.15495703203E+03  0.00000000000E+00 0. -1.
         -5    1    3    3    0  503 -0.14755054937E+02 -0.38125379265E+02 -0.33140559229E+02  0.52835999624E+02  0.47000000000E+01 0.  1.
         13    1    4    4    0    0 -0.95702348265E+02  0.31285095336E+01  0.50610982995E+02  0.10830604154E+03  0.00000000000E+00 0. -1.
        -14    1    4    4    0    0 -0.21047939259E+01 -0.91989538918E+00  0.53227512899E+02  0.53277054108E+02  0.00000000000E+00 0.  1.
<mgrwt>
<rscale>  2 0.20677329E+03</rscale>
<asrwt>0</asrwt>
<pdfrwt beam="1">  1       21 0.18525926E+00 0.20824213E+03</pdfrwt>
<pdfrwt beam="2">  1       21 0.12626532E-01 0.20824213E+03</pdfrwt>
<totfact> 0.88688392E+03</totfact>
</mgrwt>
</event>
<event>
12    1  0.1039378E-001  0.1885892E+03  0.7546771E-02  0.1160277E+00
         21   -1    0    0  503  502  0.00000000000E+00  0.00000000000E+00  0.10151171519E+04  0.10151171519E+04  0.00000000000E+00 0.  1.
         21   -1    0    0  501  503 -0.00000000000E+00 -0.00000000000E+00 -0.17030528612E+03  0.17030528612E+03  0.00000000000E+00 0. -1.
          6    2    1    2  501    0  0.68646713874E+02 -0.22251682839E+01 -0.10721197540E+03  0.21489923472E+03  0.17311831420E+03 0.  0.
         24    2    3    3    0    0 -0.33444239504E+02 -0.86585722532E+00 -0.58750361813E+02  0.10178412308E+03  0.76086370879E+02 0.  0.
         -6    2    1    2    0  502 -0.68646713874E+02  0.22251682839E+01  0.95202384118E+03  0.97052320330E+03  0.17563761348E+03 0.  0.
        -24    2    5    5    0    0  0.58015680516E+01  0.25477751873E+01  0.22769159607E+03  0.24235979989E+03  0.82792876097E+02 0.  0.
          5    1    3    3  501    0  0.10209095338E+03 -0.13593110586E+01 -0.48461613591E+02  0.11311511163E+03  0.47000000000E+01 0. -1.
        -11    1    4    4    0    0 -0.35919081946E+02 -0.30681327850E+02 -0.16549536751E+02  0.50054085679E+02  0.00000000000E+00 0.  1.
         12    1    4    4    0    0  0.24748424417E+01  0.29815470625E+02 -0.42200825062E+02  0.51730037402E+02  0.00000000000E+00 0. -1.
         -5    1    5    5    0  502 -0.74448281925E+02 -0.32260690337E+00  0.72433224511E+03  0.72816340340E+03  0.47000000000E+01 0.  1.
         13    1    6    6    0    0  0.17491824928E+02 -0.35458017239E+02  0.14948189416E+03  0.15462235158E+03  0.00000000000E+00 0. -1.
        -14    1    6    6    0    0 -0.11690256877E+02  0.38005792426E+02  0.78209701910E+02  0.87737448314E+02  0.00000000000E+00 0.  1.
<mgrwt>
<rscale>  2 0.18800046E+03</rscale>
<asrwt>0</asrwt>
<pdfrwt beam="1">  1       21 0.15617187E+00 0.18858922E+03</pdfrwt>
<pdfrwt beam="2">  1       21 0.26200814E-01 0.18858922E+03</pdfrwt>
<totfact> 0.37328602E+03</totfact>
</mgrwt>
</event>
<event>
12    1  0.1039378E-001  0.2878647E+03  0.7546771E-02  0.1091904E+00
         21   -1    0    0  501  502  0.00000000000E+00  0.00000000000E+00  0.69510361512E+02  0.69510361512E+02  0.00000000000E+00 0. -1.
         21   -1    0    0  502  503 -0.00000000000E+00 -0.00000000000E+00 -0.12596983031E+04  0.12596983031E+04  0.00000000000E+00 0.  1.
         -6    2    1    2    0  503  0.15812334901E+03  0.16141916343E+03 -0.76692126005E+03  0.81916683549E+03  0.17834501793E+03 0.  0.
        -24    2    3    3    0    0  0.71309675825E+02  0.12528744469E+02 -0.38801704331E+03  0.40287911507E+03  0.80698922864E+02 0.  0.
          6    2    1    2  501    0 -0.15812334901E+03 -0.16141916343E+03 -0.42326668149E+03  0.51004182908E+03  0.17299954891E+03 0.  0.
         24    2    5    5    0    0 -0.30262986598E+02 -0.12360657004E+03 -0.24488580027E+03  0.28728659731E+03  0.79812914403E+02 0.  0.
          5    1    5    5  501    0 -0.12786036241E+03 -0.37812593394E+02 -0.17838088122E+03  0.22275523176E+03  0.47000000000E+01 0. -1.
        -13    1    6    6    0    0 -0.33447380939E+02 -0.99880225524E+02 -0.11804644727E+03  0.15820793424E+03  0.00000000000E+00 0.  1.
         14    1    6    6    0    0  0.31843943410E+01 -0.23726344516E+02 -0.12683935300E+03  0.12907866308E+03  0.00000000000E+00 0. -1.
         -5    1    3    3    0  503  0.86813673184E+02  0.14889041896E+03 -0.37890421674E+03  0.41628772042E+03  0.47000000000E+01 0.  1.
         13    1    4    4    0    0  0.36307029169E+02 -0.28742063621E+02 -0.10533952761E+03  0.11506833911E+03  0.00000000000E+00 0. -1.
        -14    1    4    4    0    0  0.35002646655E+02  0.41270808090E+02 -0.28267751570E+03  0.28781077595E+03  0.00000000000E+00 0.  1.
<mgrwt>
<rscale>  2 0.28704097E+03</rscale>
<asrwt>0</asrwt>
<pdfrwt beam="1">  1       21 0.10693903E-01 0.28786470E+03</pdfrwt>
<pdfrwt beam="2">  1       21 0.19379972E+00 0.28786470E+03</pdfrwt>
<totfact> 0.99361763E+03</totfact>
</mgrwt>
</event>
<event>
12    1  0.1039378E-001  0.2010166E+03  0.7546771E-02  0.1149204E+00
         21   -1    0    0  503  502  0.00000000000E+00  0.00000000000E+00  0.60539309955E+03  0.60539309955E+03  0.00000000000E+00 0. -1.
         21   -1    0    0  501  503 -0.00000000000E+00 -0.00000000000E+00 -0.79893390513E+02  0.79893390513E+02  0.00000000000E+00 0. -1.
          6    2    1    2  501    0 -0.96792572493E+02  0.29002689948E+02  0.40355525005E+03  0.45017352268E+03  0.17201570442E+03 0.  0.
         24    2    3    3    0    0 -0.99362087656E+02 -0.35720613017E+02  0.29638003933E+03  0.32485662778E+03  0.80882100877E+02 0.  0.
         -6    2    1    2    0  502  0.96792572493E+02 -0.29002689948E+02  0.12194445898E+03  0.23511296738E+03  0.17377484927E+03 0.  0.
        -24    2    5    5    0    0  0.43449724066E+02  0.68309667072E+01  0.14117447708E+03  0.16787165549E+03  0.79474015322E+02 0.  0.
          5    1    3    3  501    0  0.25695151633E+01  0.64723302965E+02  0.10717521073E+03  0.12531689491E+03  0.47000000000E+01 0. -1.
        -13    1    4    4    0    0  0.22325987020E+01 -0.30207880515E+02  0.85693104285E+02  0.90888990885E+02  0.00000000000E+00 0.  1.
         14    1    4    4    0    0 -0.10159468636E+03 -0.55127325026E+01  0.21068693504E+03  0.23396763689E+03  0.00000000000E+00 0. -1.
         -5    1    5    5    0  502  0.53342848427E+02 -0.35833656656E+02 -0.19230018099E+02  0.67241311882E+02  0.47000000000E+01 0.  1.
         13    1    6    6    0    0  0.28665676835E+02 -0.26420438266E+02  0.11908141860E+03  0.12530021885E+03  0.00000000000E+00 0. -1.
        -14    1    6    6    0    0  0.14784047231E+02  0.33251404974E+02  0.22093058479E+02  0.42571436647E+02  0.00000000000E+00 0.  1.
<mgrwt>
<rscale>  2 0.20063578E+03</rscale>
<asrwt>0</asrwt>
<pdfrwt beam="1">  1       21 0.93137397E-01 0.20101656E+03</pdfrwt>
<pdfrwt beam="2">  1       21 0.12291291E-01 0.20101656E+03</pdfrwt>
<totfact> 0.54313070E+04</totfact>
</mgrwt>
</event>
<event>
12    1  0.1039378E-001  0.3134286E+03  0.7546771E-02  0.1078744E+00
         21   -1    0    0  501  502  0.00000000000E+00  0.00000000000E+00  0.11779173683E+04  0.11779173683E+04  0.00000000000E+00 0. -1.
         21   -1    0    0  502  503 -0.00000000000E+00 -0.00000000000E+00 -0.86375971772E+02  0.86375971772E+02  0.00000000000E+00 0. -1.
         -6    2    1    2    0  503 -0.25971514299E+03  0.29020311130E+02  0.66422572497E+03  0.73435357152E+03  0.17258395155E+03 0.  0.
        -24    2    3    3    0    0 -0.20718625061E+03  0.53727294886E+02  0.62041963395E+03  0.66147845100E+03  0.82586041674E+02 0.  0.
          6    2    1    2  501    0  0.25971514299E+03 -0.29020311130E+02  0.42731567158E+03  0.52993976857E+03  0.17304144354E+03 0.  0.
         24    2    5    5    0    0  0.91202363320E+02  0.40537842335E+02  0.14551318856E+03  0.19427680806E+03  0.81290850461E+02 0.  0.
          5    1    5    5  501    0  0.16851277967E+03 -0.69558153465E+02  0.28180248301E+03  0.33566296051E+03  0.47000000000E+01 0. -1.
        -13    1    6    6    0    0  0.13234482771E+02 -0.18527513044E+02  0.54033611846E+01  0.23401209069E+02  0.00000000000E+00 0.  1.
         14    1    6    6    0    0  0.77967880550E+02  0.59065355378E+02  0.14010982738E+03  0.17087559899E+03  0.00000000000E+00 0. -1.
         -5    1    3    3    0  503 -0.52528892379E+02 -0.24706983756E+02  0.43806091015E+02  0.72875120521E+02  0.47000000000E+01 0.  1.
         11    1    4    4    0    0 -0.14739168054E+03  0.30271283268E+01  0.45774302410E+03  0.48089723134E+03  0.00000000000E+00 0. -1.
        -12    1    4    4    0    0 -0.59794570066E+02  0.50700166559E+02  0.16267660985E+03  0.18058121965E+03  0.00000000000E+00 0.  1.
<mgrwt>
<rscale>  2 0.31336548E+03</rscale>
<asrwt>0</asrwt>
<pdfrwt beam="1">  1       21 0.18121805E+00 0.31342858E+03</pdfrwt>
<pdfrwt beam="2">  1       21 0.13288612E-01 0.31342858E+03</pdfrwt>
<totfact> 0.80555109E+03</totfact>
</mgrwt>
</event>
<event>
12    1  0.1039378E-001  0.1782823E+03  0.7546771E-02  0.1170013E+00
         21   -1    0    0  503  502  0.00000000000E+00  0.00000000000E+00  0.22306693536E+02  0.22306693536E+02  0.00000000000E+00 0.  1.
         21   -1    0    0  501  503 -0.00000000000E+00 -0.00000000000E+00 -0.23599479280E+04  0.23599479280E+04  0.00000000000E+00 0.  1.
          6    2    1    2  501    0 -0.25473205813E+02 -0.37648163165E+02 -0.19212209907E+04  0.19292751552E+04  0.17013600757E+03 0.  0.
         24    2    3    3    0    0 -0.15110610123E+02 -0.88386082720E+02 -0.15196579490E+04  0.15243595019E+04  0.79190774999E+02 0.  0.
         -6    2    1    2    0  502  0.25473205813E+02  0.37648163165E+02 -0.41642024380E+03  0.45297946634E+03  0.17238999123E+03 0.  0.
        -24    2    5    5    0    0  0.28883663304E+02  0.72940790473E+02 -0.39738724706E+03  0.41246347286E+03  0.77813028464E+02 0.  0.
          5    1    3    3  501    0 -0.10362595690E+02  0.50737919555E+02 -0.40156304167E+03  0.40491565332E+03  0.47000000000E+01 0. -1.
        -11    1    4    4    0    0 -0.47382386306E+02 -0.54986782199E+02 -0.99958103054E+03  0.10022129880E+04  0.00000000000E+00 0.  1.
         12    1    4    4    0    0  0.32271776183E+02 -0.33399300521E+02 -0.52007691845E+03  0.52214651385E+03  0.00000000000E+00 0. -1.
         -5    1    5    5    0  502 -0.34104574917E+01 -0.35292627307E+02 -0.19032996733E+02  0.40515993474E+02  0.47000000000E+01 0.  1.
         11    1    6    6    0    0 -0.25768834389E+02  0.36966367956E+02 -0.16404204621E+03  0.17011860013E+03  0.00000000000E+00 0. -1.
        -12    1    6    6    0    0  0.54652497693E+02  0.35974422517E+02 -0.23334520085E+03  0.24234487273E+03  0.00000000000E+00 0.  1.
<mgrwt>
<rscale>  2 0.17773515E+03</rscale>
<asrwt>0</asrwt>
<pdfrwt beam="1">  1       21 0.34318000E-02 0.17828230E+03</pdfrwt>
<pdfrwt beam="2">  1       21 0.36306881E+00 0.17828230E+03</pdfrwt>
<totfact> 0.75434265E+03</totfact>
</mgrwt>
</event>
<event>
12    1  0.1039378E-001  0.1746346E+03  0.7546771E-02  0.1173300E+00
         21   -1    0    0  503  502  0.00000000000E+00  0.00000000000E+00  0.64931058426E+03  0.64931058426E+03  0.00000000000E+00 0. -1.
         21   -1    0    0  501  503 -0.00000000000E+00 -0.00000000000E+00 -0.11557882584E+03  0.11557882584E+03  0.00000000000E+00 0. -1.
          6    2    1    2  501    0  0.72471853000E+01  0.22281852416E+02 -0.28008335074E+02  0.17686634099E+03  0.17305557806E+03 0.  0.
         24    2    3    3    0    0 -0.60861602842E+01 -0.40388157792E+02  0.30064160156E+02  0.90264880342E+02  0.74670276954E+02 0.  0.
         -6    2    1    2    0  502 -0.72471853000E+01 -0.22281852416E+02  0.56174009349E+03  0.58802306911E+03  0.17225038323E+03 0.  0.
        -24    2    5    5    0    0 -0.81627493124E+01  0.45405696680E+02  0.45871567638E+03  0.46465952878E+03  0.57966353737E+02 0.  0.
          5    1    3    3  501    0  0.13333345584E+02  0.62670010208E+02 -0.58072495230E+02  0.86601460647E+02  0.47000000000E+01 0. -1.
        -11    1    4    4    0    0 -0.30749900576E+02  0.53773795426E+01  0.22343848842E+01  0.31296406694E+02  0.00000000000E+00 0.  1.
         12    1    4    4    0    0  0.24663740291E+02 -0.45765537335E+02  0.27829775272E+02  0.58968473648E+02  0.00000000000E+00 0. -1.
         -5    1    5    5    0  502  0.91556401237E+00 -0.67687549095E+02  0.10302441712E+03  0.12336354033E+03  0.47000000000E+01 0.  1.
         13    1    6    6    0    0 -0.90683872827E+01 -0.73421433963E+01  0.23287168764E+02  0.26046783805E+02  0.00000000000E+00 0. -1.
        -14    1    6    6    0    0  0.90563797030E+00  0.52747840076E+02  0.43542850761E+03  0.43861274498E+03  0.00000000000E+00 0.  1.
<mgrwt>
<rscale>  2 0.17443476E+03</rscale>
<asrwt>0</asrwt>
<pdfrwt beam="1">  1       21 0.99893934E-01 0.17463458E+03</pdfrwt>
<pdfrwt beam="2">  1       21 0.17781358E-01 0.17463458E+03</pdfrwt>
<totfact> 0.23893223E+04</totfact>
</mgrwt>
</event>
<event>
12    1  0.1039378E-001  0.1874288E+03  0.7546771E-02  0.1160947E+00
         21   -1    0    0  501  502  0.00000000000E+00  0.00000000000E+00  0.18925161440E+03  0.18925161440E+03  0.00000000000E+00 0.  1.
         21   -1    0    0  502  503 -0.00000000000E+00 -0.00000000000E+00 -0.43706067262E+03  0.43706067262E+03  0.00000000000E+00 0.  1.
         -6    2    1    2    0  503  0.53164857211E+02 -0.44924042753E+02 -0.36163389792E+03  0.40702790867E+03  0.17334350479E+03 0.  0.
        -24    2    3    3    0    0  0.82681321434E+02 -0.76631805524E+02 -0.25830236698E+03  0.29488470038E+03  0.86765426272E+02 0.  0.
          6    2    1    2  501    0 -0.53164857211E+02  0.44924042753E+02  0.11382483970E+03  0.21928437836E+03  0.17402549468E+03 0.  0.
         24    2    5    5    0    0 -0.67889166551E+02  0.37282710860E+02  0.14538136317E+03  0.18332468686E+03  0.80456575808E+02 0.  0.
          5    1    5    5  501    0  0.14724309340E+02  0.76413318925E+01 -0.31556523476E+02  0.35959691497E+02  0.47000000000E+01 0. -1.
        -13    1    6    6    0    0  0.13040520816E+02 -0.11309182362E+02  0.23770449751E+02  0.29376641575E+02  0.00000000000E+00 0.  1.
         14    1    6    6    0    0 -0.80929687367E+02  0.48591893222E+02  0.12161091342E+03  0.15394804529E+03  0.00000000000E+00 0. -1.
         -5    1    3    3    0  503 -0.29516464223E+02  0.31707762772E+02 -0.10333153094E+03  0.11214320829E+03  0.47000000000E+01 0.  1.
         13    1    4    4    0    0  0.10611892763E+02 -0.68685410891E+02 -0.11769458716E+03  0.13668326080E+03  0.00000000000E+00 0. -1.
        -14    1    4    4    0    0  0.72069428671E+02 -0.79463946335E+01 -0.14060777982E+03  0.15820143957E+03  0.00000000000E+00 0.  1.
<mgrwt>
<rscale>  2 0.18727031E+03</rscale>
<asrwt>0</asrwt>
<pdfrwt beam="1">  1       21 0.29115633E-01 0.18742877E+03</pdfrwt>
<pdfrwt beam="2">  1       21 0.67240103E-01 0.18742877E+03</pdfrwt>
<totfact> 0.22931469E+04</totfact>
</mgrwt>
</event>
<event>
12    1  0.1039378E-001  0.2146125E+03  0.7546771E-02  0.1138392E+00
         21   -1    0    0  501  502  0.00000000000E+00  0.00000000000E+00  0.42254355284E+03  0.42254355284E+03  0.00000000000E+00 0.  1.
         21   -1    0    0  502  503 -0.00000000000E+00 -0.00000000000E+00 -0.11145398531E+03  0.11145398531E+03  0.00000000000E+00 0.  1.
         -6    2    1    2    0  503  0.12462953165E+03 -0.59647707016E+01  0.10697876545E+03  0.23782234421E+03  0.17189215369E+03 0.  0.
        -24    2    3    3    0    0  0.11942763360E+03 -0.22815046022E+01  0.12908354399E+02  0.14341917463E+03  0.78321574975E+02 0.  0.
          6    2    1    2  501    0 -0.12462953165E+03  0.59647707016E+01  0.20411080208E+03  0.29617519394E+03  0.17461508335E+03 0.  0.
         24    2    5    5    0    0 -0.12250226704E+03  0.47028689790E+02  0.20282323882E+03  0.25476844903E+03  0.80939442307E+02 0.  0.
          5    1    5    5  501    0 -0.21272646134E+01 -0.41063919088E+02  0.12875632595E+01  0.41406744918E+02  0.47000000000E+01 0. -1.
        -11    1    6    6    0    0 -0.18136727428E+02 -0.20130513915E+02  0.58174862467E+02  0.64175486716E+02  0.00000000000E+00 0.  1.
         12    1    6    6    0    0 -0.10436553961E+03  0.67159203704E+02  0.14464837635E+03  0.19059296231E+03  0.00000000000E+00 0. -1.
         -5    1    3    3    0  503  0.52018980540E+01 -0.36832660994E+01  0.94070411049E+02  0.94403169583E+02  0.47000000000E+01 0.  1.
         11    1    4    4    0    0  0.93633019213E+01 -0.94927716056E+01 -0.23707718696E+02  0.27200001128E+02  0.00000000000E+00 0. -1.
        -12    1    4    4    0    0  0.11006433168E+03  0.72112670034E+01  0.36616073094E+02  0.11621917350E+03  0.00000000000E+00 0.  1.
<mgrwt>
<rscale>  2 0.21405797E+03</rscale>
<asrwt>0</asrwt>
<pdfrwt beam="1">  1       21 0.65006700E-01 0.21461250E+03</pdfrwt>
<pdfrwt beam="2">  1       21 0.17146767E-01 0.21461250E+03</pdfrwt>
<totfact> 0.66251497E+04</totfact>
</mgrwt>
</event>
<event>
12    1  0.1039378E-001  0.1953628E+03  0.7546771E-02  0.1153834E+00
         21   -1    0    0  503  502  0.00000000000E+00  0.00000000000E+00  0.18338841301E+03  0.18338841301E+03  0.00000000000E+00 0.  1.
         21   -1    0    0  501  503 -0.00000000000E+00 -0.00000000000E+00 -0.20771521548E+03  0.20771521548E+03  0.00000000000E+00 0.  1.
          6    2    1    2  501    0 -0.78750406768E+02  0.47933272429E+02 -0.18179979100E+02  0.19620690729E+03  0.17224231088E+03 0.  0.
         24    2    3    3    0    0 -0.84906092517E+02  0.39866301289E+02  0.46503675153E+02  0.13056367750E+03  0.78012278227E+02 0.  0.
         -6    2    1    2    0  502  0.78750406768E+02 -0.47933272429E+02 -0.61468233729E+01  0.19489672120E+03  0.17160338961E+03 0.  0.
        -24    2    5    5    0    0 -0.22958251709E+01 -0.23195025336E+02  0.45377816737E+02  0.95612527499E+02  0.80866118674E+02 0.  0.
          5    1    3    3  501    0  0.61556857489E+01  0.80669711400E+01 -0.64683654253E+02  0.65643229795E+02  0.47000000000E+01 0. -1.
        -11    1    4    4    0    0 -0.82369726140E+02  0.39098079830E+02  0.75173566328E+01  0.91487388648E+02  0.00000000000E+00 0.  1.
         12    1    4    4    0    0 -0.25363663768E+01  0.76822145857E+00  0.38986318520E+02  0.39076288851E+02  0.00000000000E+00 0. -1.
         -5    1    5    5    0  502  0.81046231939E+02 -0.24738247093E+02 -0.51524640109E+02  0.99284193702E+02  0.47000000000E+01 0.  1.
         13    1    6    6    0    0 -0.14899093025E+02 -0.35418182526E+02  0.61012073990E+02  0.72103424322E+02  0.00000000000E+00 0. -1.
        -14    1    6    6    0    0  0.12603267855E+02  0.12223157190E+02 -0.15634257253E+02  0.23509103177E+02  0.00000000000E+00 0.  1.
<mgrwt>
<rscale>  2 0.19522192E+03</rscale>
<asrwt>0</asrwt>
<pdfrwt beam="1">  1       21 0.28213602E-01 0.19536284E+03</pdfrwt>
<pdfrwt beam="2">  1       21 0.31956187E-01 0.19536284E+03</pdfrwt>
<totfact> 0.11295114E+05</totfact>
</mgrwt>
</event>
<event>
12    1  0.1039378E-001  0.1872386E+03  0.7546771E-02  0.1161179E+00
         21   -1    0    0  503  502  0.00000000000E+00  0.00000000000E+00  0.37730151839E+03  0.37730151839E+03  0.00000000000E+00 0.  1.
         21   -1    0    0  501  503 -0.00000000000E+00 -0.00000000000E+00 -0.11108736161E+03  0.11108736161E+03  0.00000000000E+00 0.  1.
          6    2    1    2  501    0 -0.30402926953E+02 -0.61093102198E+02  0.32908370350E+02  0.18924031360E+03  0.17341346646E+03 0.  0.
         24    2    3    3    0    0 -0.54727799737E+02 -0.10615306731E+03  0.22984568268E+02  0.13686979003E+03  0.62780914934E+02 0.  0.
         -6    2    1    2    0  502  0.30402926953E+02  0.61093102198E+02  0.23330578642E+03  0.29914856640E+03  0.17436045909E+03 0.  0.
        -24    2    5    5    0    0  0.14075810867E+02  0.17331877181E+02  0.39447000033E+02  0.99686944536E+02  0.88785689619E+02 0.  0.
          5    1    3    3  501    0  0.24324872784E+02  0.45059965112E+02  0.99238020819E+01  0.52370523576E+02  0.47000000000E+01 0. -1.
        -13    1    4    4    0    0 -0.49679704585E+02 -0.10148918281E+03  0.12164990708E+00  0.11299620380E+03  0.00000000000E+00 0.  1.
         14    1    4    4    0    0 -0.50480951523E+01 -0.46638845032E+01  0.22862918361E+02  0.23873586227E+02  0.00000000000E+00 0. -1.
         -5    1    5    5    0  502  0.16327116087E+02  0.43761225016E+02  0.19385878639E+03  0.19946162186E+03  0.47000000000E+01 0.  1.
         13    1    6    6    0    0 -0.27024079162E+02 -0.21019127997E+02  0.22524317177E+02  0.40981086621E+02  0.00000000000E+00 0. -1.
        -14    1    6    6    0    0  0.41099890028E+02  0.38351005179E+02  0.16922682856E+02  0.58705857915E+02  0.00000000000E+00 0.  1.
<mgrwt>
<rscale>  2 0.18701778E+03</rscale>
<asrwt>0</asrwt>
<pdfrwt beam="1">  1       21 0.58046387E-01 0.18723855E+03</pdfrwt>
<pdfrwt beam="2">  1       21 0.17090363E-01 0.18723855E+03</pdfrwt>
<totfact> 0.86119988E+04</totfact>
</mgrwt>
</event>
<event>
12    1  0.1039378E-001  0.1809733E+03  0.7546771E-02  0.1167737E+00
         21   -1    0    0  503  502  0.00000000000E+00  0.00000000000E+00  0.48437928803E+03  0.48437928803E+03  0.00000000000E+00 0.  1.
         21   -1    0    0  501  503 -0.00000000000E+00 -0.00000000000E+00 -0.13008778617E+03  0.13008778617E+03  0.00000000000E+00 0.  1.
          6    2    1    2  501    0 -0.33310905469E+02  0.28711207168E+02 -0.38927234051E+02  0.18160182441E+03  0.17184278640E+03 0.  0.
         24    2    3    3    0    0 -0.25542287148E+02 -0.21702991487E+02 -0.78247116307E+02  0.11702562138E+03  0.80305395693E+02 0.  0.
         -6    2    1    2    0  502  0.33310905469E+02 -0.28711207168E+02  0.39321873590E+03  0.43286524979E+03  0.17554885465E+03 0.  0.
        -24    2    5    5    0    0 -0.30356436682E+02  0.24676053368E+02  0.26775534687E+03  0.28231000401E+03  0.80471061436E+02 0.  0.
          5    1    3    3  501    0 -0.77686183211E+01  0.50414198655E+02  0.39319882257E+02  0.64576203027E+02  0.47000000000E+01 0. -1.
        -11    1    4    4    0    0 -0.51708521509E+02 -0.15137628834E+02 -0.29792081135E+02  0.61566931885E+02  0.00000000000E+00 0.  1.
         12    1    4    4    0    0  0.26166234360E+02 -0.65653626534E+01 -0.48455035172E+02  0.55458689499E+02  0.00000000000E+00 0. -1.
         -5    1    5    5    0  502  0.63667342151E+02 -0.53387260536E+02  0.12546338903E+03  0.15055524578E+03  0.47000000000E+01 0.  1.
         11    1    6    6    0    0 -0.71970541805E+01 -0.12867117650E+02  0.45434508838E+01  0.15427353999E+02  0.00000000000E+00 0. -1.
        -12    1    6    6    0    0 -0.23159382501E+02  0.37543171018E+02  0.26321189599E+03  0.26688265001E+03  0.00000000000E+00 0.  1.
<mgrwt>
<rscale>  2 0.18006840E+03</rscale>
<asrwt>0</asrwt>
<pdfrwt beam="1">  1       21 0.74519890E-01 0.18097334E+03</pdfrwt>
<pdfrwt beam="2">  1       21 0.20013506E-01 0.18097334E+03</pdfrwt>
<totfact> 0.37408853E+04</totfact>
</mgrwt>
</event>
<event>
12    1  0.1039378E-001  0.2076991E+03  0.7546771E-02  0.1143865E+00
         21   -1    0    0  501  502  0.00000000000E+00  0.00000000000E+00  0.78492936477E+02  0.78492936477E+02  0.00000000000E+00 0. -1.
         21   -1    0    0  502  503 -0.00000000000E+00 -0.00000000000E+00 -0.96301807580E+03  0.96301807580E+03  0.00000000000E+00 0. -1.
         -6    2    1    2    0  503  0.69039998983E+02  0.91334730947E+02 -0.78734771298E+03  0.81428209737E+03  0.17329269583E+03 0.  0.
        -24    2    3    3    0    0 -0.11839399659E+02  0.37442488927E+02 -0.21238301527E+03  0.23114202459E+03  0.82328482274E+02 0.  0.
          6    2    1    2  501    0 -0.69039998983E+02 -0.91334730947E+02 -0.97177426339E+02  0.22722891490E+03  0.17053144297E+03 0.  0.
         24    2    5    5    0    0 -0.46733122255E+01  0.12733487870E+02 -0.23837222025E+02  0.84490902792E+02  0.79915692703E+02 0.  0.
          5    1    5    5  501    0 -0.64366686758E+02 -0.10406821882E+03 -0.73340204314E+02  0.14273801211E+03  0.47000000000E+01 0. -1.
        -13    1    6    6    0    0  0.24833484046E+02  0.13214636499E+02 -0.41472126709E+02  0.50112531780E+02  0.00000000000E+00 0.  1.
         14    1    6    6    0    0 -0.29506796271E+02 -0.48114862830E+00  0.17634904684E+02  0.34378371012E+02  0.00000000000E+00 0. -1.
         -5    1    3    3    0  503  0.80879398642E+02  0.53892242020E+02 -0.57496469771E+03  0.58314007278E+03  0.47000000000E+01 0.  1.
         13    1    4    4    0    0 -0.15266821284E+02  0.41083841372E+02 -0.21872082534E+03  0.22306895188E+03  0.00000000000E+00 0. -1.
        -14    1    4    4    0    0  0.34274216246E+01 -0.36413524447E+01  0.63378100656E+01  0.80730727141E+01  0.00000000000E+00 0.  1.
<mgrwt>
<rscale>  2 0.20712214E+03</rscale>
<asrwt>0</asrwt>
<pdfrwt beam="1">  1       21 0.12075836E-01 0.20769909E+03</pdfrwt>
<pdfrwt beam="2">  1       21 0.14815663E+00 0.20769909E+03</pdfrwt>
<totfact> 0.17733915E+04</totfact>
</mgrwt>
</event>
<event>
12    1  0.1039378E-001  0.1976007E+03  0.7546771E-02  0.1151858E+00
         21   -1    0    0  503  502  0.00000000000E+00  0.00000000000E+00  0.99154009548E+02  0.99154009548E+02  0.00000000000E+00 0. -1.
         21   -1    0    0  501  503 -0.00000000000E+00 -0.00000000000E+00 -0.39627427615E+03  0.39627427615E+03  0.00000000000E+00 0.  1.
          6    2    1    2  501    0 -0.28302057278E+02 -0.92292665298E+02 -0.17073647674E+03  0.26086723905E+03  0.17199369002E+03 0.  0.
         24    2    3    3    0    0 -0.77265548553E+02 -0.30710443698E+02 -0.69176943651E+02  0.13231288379E+03  0.76211241553E+02 0.  0.
         -6    2    1    2    0  502  0.28302057278E+02  0.92292665298E+02 -0.12638378986E+03  0.23456104665E+03  0.17241542782E+03 0.  0.
        -24    2    5    5    0    0 -0.12628809989E+02  0.97313253481E+02 -0.30735550906E+02  0.13029591433E+03  0.80018716921E+02 0.  0.
          5    1    3    3  501    0  0.48963491274E+02 -0.61582221601E+02 -0.10155953309E+03  0.12855435526E+03  0.47000000000E+01 0. -1.
        -13    1    4    4    0    0 -0.19169491444E+02 -0.15757463398E+02 -0.67919021014E+02  0.72310168513E+02  0.00000000000E+00 0.  1.
         14    1    4    4    0    0 -0.58096057108E+02 -0.14952980300E+02 -0.12579226373E+01  0.60002715278E+02  0.00000000000E+00 0. -1.
         -5    1    5    5    0  502  0.40930867267E+02 -0.50205881823E+01 -0.95648238957E+02  0.10426513231E+03  0.47000000000E+01 0.  1.
         11    1    6    6    0    0  0.29446243385E+02  0.60809654133E+02 -0.31594638035E+02  0.74586301945E+02  0.00000000000E+00 0. -1.
        -12    1    6    6    0    0 -0.42075053374E+02  0.36503599348E+02  0.85908712899E+00  0.55709612388E+02  0.00000000000E+00 0.  1.
<mgrwt>
<rscale>  2 0.19750863E+03</rscale>
<asrwt>0</asrwt>
<pdfrwt beam="1">  1       21 0.15254463E-01 0.19760066E+03</pdfrwt>
<pdfrwt beam="2">  1       21 0.60965274E-01 0.19760066E+03</pdfrwt>
<totfact> 0.95060795E+04</totfact>
</mgrwt>
</event>
<event>
12    1  0.1039378E-001  0.2994454E+03  0.7546771E-02  0.1085624E+00
         21   -1    0    0  501  502  0.00000000000E+00  0.00000000000E+00  0.88015391468E+03  0.88015391468E+03  0.00000000000E+00 0.  1.
         21   -1    0    0  502  503 -0.00000000000E+00 -0.00000000000E+00 -0.10493265641E+03  0.10493265641E+03  0.00000000000E+00 0. -1.
         -6    2    1    2    0  503  0.46411675499E+02  0.23971546330E+03  0.47497567547E+03  0.56104063166E+03  0.17189284775E+03 0.  0.
        -24    2    3    3    0    0  0.67241117418E+02  0.69899176801E+02  0.17464712519E+03  0.21536626910E+03  0.80459609372E+02 0.  0.
          6    2    1    2  501    0 -0.46411675499E+02 -0.23971546330E+03  0.30024558279E+03  0.42404593944E+03  0.17334936341E+03 0.  0.
         24    2    5    5    0    0  0.42099660926E+02 -0.10280422991E+03  0.12482107133E+03  0.18451558285E+03  0.78259883262E+02 0.  0.
          5    1    5    5  501    0 -0.88511336425E+02 -0.13691123339E+03  0.17542451146E+03  0.23953035658E+03  0.47000000000E+01 0. -1.
        -11    1    6    6    0    0  0.11976997844E+02 -0.94731176562E+02  0.11936265902E+03  0.15285577732E+03  0.00000000000E+00 0.  1.
         12    1    6    6    0    0  0.30122663082E+02 -0.80730533509E+01  0.54584123114E+01  0.31659805535E+02  0.00000000000E+00 0. -1.
         -5    1    3    3    0  503 -0.20829441919E+02  0.16981628650E+03  0.30032855028E+03  0.34567436255E+03  0.47000000000E+01 0.  1.
         13    1    4    4    0    0  0.81659465938E+02  0.65806928249E+02  0.12326464736E+03  0.16184249588E+03  0.00000000000E+00 0. -1.
        -14    1    4    4    0    0 -0.14418348520E+02  0.40922485520E+01  0.51382477829E+02  0.53523773224E+02  0.00000000000E+00 0.  1.
<mgrwt>
<rscale>  2 0.29923498E+03</rscale>
<asrwt>0</asrwt>
<pdfrwt beam="1">  1       21 0.13540829E+00 0.29944540E+03</pdfrwt>
<pdfrwt beam="2">  1       21 0.16143486E-01 0.29944540E+03</pdfrwt>
<totfact> 0.12567156E+04</totfact>
</mgrwt>
</event>
<event>
12    1  0.1039378E-001  0.2047642E+03  0.7546771E-02  0.1145847E+00
         21   -1    0    0  501  502  0.00000000000E+00  0.00000000000E+00  0.12825728786E+03  0.12825728786E+03  0.00000000000E+00 0.  1.
         21   -1    0    0  502  503 -0.00000000000E+00 -0.00000000000E+00 -0.18062912365E+04  0.18062912365E+04  0.00000000000E+00 0. -1.
         -6    2    1    2    0  503 -0.96195684184E+02  0.51941182549E+02 -0.17144289760E+04  0.17265750466E+04  0.17275179139E+03 0.  0.
        -24    2    3    3    0    0 -0.12411991984E+02  0.57562735180E+02 -0.53894195828E+03  0.54808315951E+03  0.80431270750E+02 0.  0.
          6    2    1    2  501    0  0.96195684184E+02 -0.51941182549E+02  0.36395027435E+02  0.20797347776E+03  0.17313830694E+03 0.  0.
         24    2    5    5    0    0  0.12340920055E+03 -0.71994996178E+02  0.98684663942E+01  0.16474756708E+03  0.81432573177E+02 0.  0.
          5    1    5    5  501    0 -0.27213516363E+02  0.20053813629E+02  0.26526561040E+02  0.43225910685E+02  0.47000000000E+01 0. -1.
        -11    1    6    6    0    0  0.93971507685E+02 -0.38173201577E+02  0.41796453021E+02  0.10970314973E+03  0.00000000000E+00 0.  1.
         12    1    6    6    0    0  0.29437692862E+02 -0.33821794602E+02 -0.31927986627E+02  0.55044417348E+02  0.00000000000E+00 0. -1.
         -5    1    3    3    0  503 -0.83783692200E+02 -0.56215526303E+01 -0.11754870178E+04  0.11784918871E+04  0.47000000000E+01 0.  1.
         11    1    4    4    0    0 -0.43419935407E+02  0.32327004384E+02 -0.39501117198E+03  0.39870308751E+03  0.00000000000E+00 0. -1.
        -12    1    4    4    0    0  0.31007943423E+02  0.25235730796E+02 -0.14393078630E+03  0.14938007199E+03  0.00000000000E+00 0.  1.
<mgrwt>
<rscale>  2 0.20468245E+03</rscale>
<asrwt>0</asrwt>
<pdfrwt beam="1">  1       21 0.19731891E-01 0.20476418E+03</pdfrwt>
<pdfrwt beam="2">  1       21 0.27789095E+00 0.20476418E+03</pdfrwt>
<totfact> 0.10669583E+03</totfact>
</mgrwt>
</event>
<event>
12    1  0.1039378E-001  0.2011748E+03  0.7546771E-02  0.1149024E+00
         21   -1    0    0  501  502  0.00000000000E+00  0.00000000000E+00  0.10878112624E+04  0.10878112624E+04  0.00000000000E+00 0.  1.
         21   -1    0    0  502  503 -0.00000000000E+00 -0.00000000000E+00 -0.64506255851E+02  0.64506255851E+02  0.00000000000E+00 0.  1.
         -6    2    1    2    0  503  0.51393793858E+02 -0.85995349457E+02  0.13423319662E+03  0.24076939701E+03  0.17295903933E+03 0.  0.
        -24    2    3    3    0    0  0.61904396136E+02 -0.65616734281E+02  0.16395496218E+03  0.20293774274E+03  0.78516162183E+02 0.  0.
          6    2    1    2  501    0 -0.51393793858E+02  0.85995349457E+02  0.88907180992E+03  0.91154812123E+03  0.17445564466E+03 0.  0.
         24    2    5    5    0    0 -0.38205285269E+02  0.80513641028E+02  0.31720107527E+03  0.33947975728E+03  0.81779540451E+02 0.  0.
          5    1    5    5  501    0 -0.13188508589E+02  0.54817084289E+01  0.57187073465E+03  0.57206836396E+03  0.47000000000E+01 0. -1.
        -11    1    6    6    0    0  0.16834028168E+02  0.40692006281E+02  0.19252012825E+03  0.19749233824E+03  0.00000000000E+00 0.  1.
         12    1    6    6    0    0 -0.55039313437E+02  0.39821634747E+02  0.12468094701E+03  0.14198741904E+03  0.00000000000E+00 0. -1.
         -5    1    3    3    0  503 -0.10510602278E+02 -0.20378615176E+02 -0.29721765564E+02  0.37831654272E+02  0.47000000000E+01 0.  1.
         11    1    4    4    0    0  0.29897625560E+02  0.14566390293E+02  0.45871180609E+02  0.56658741168E+02  0.00000000000E+00 0. -1.
        -12    1    4    4    0    0  0.32006770576E+02 -0.80183124574E+02  0.11808378157E+03  0.14627900157E+03  0.00000000000E+00 0.  1.
<mgrwt>
<rscale>  2 0.20084989E+03</rscale>
<asrwt>0</asrwt>
<pdfrwt beam="1">  1       21 0.16735557E+00 0.20117479E+03</pdfrwt>
<pdfrwt beam="2">  1       21 0.99240401E-02 0.20117479E+03</pdfrwt>
<totfact> 0.18210170E+04</totfact>
</mgrwt>
</event>
<event>
12    1  0.1039378E-001  0.2653968E+03  0.7546771E-02  0.1104140E+00
         21   -1    0    0  501  502  0.00000000000E+00  0.00000000000E+00  0.49162014661E+03  0.49162014661E+03  0.00000000000E+00 0. -1.
         21   -1    0    0  502  503 -0.00000000000E+00 -0.00000000000E+00 -0.14473260943E+03  0.14473260943E+03  0.00000000000E+00 0. -1.
         -6    2    1    2    0  503 -0.17870843944E+03 -0.88408075046E+02  0.21210319624E+03  0.33869142363E+03  0.17312255925E+03 0.  0.
        -24    2    3    3    0    0 -0.21811028099E+02 -0.62906314071E+02  0.92142293632E+02  0.13949341748E+03  0.80841115451E+02 0.  0.
          6    2    1    2  501    0  0.17870843944E+03  0.88408075046E+02  0.13478434094E+03  0.29766133242E+03  0.17516493996E+03 0.  0.
         24    2    5    5    0    0  0.29952353912E+02  0.29510608042E+02  0.47301060925E+01  0.91424869580E+02  0.81043897872E+02 0.  0.
          5    1    5    5  501    0  0.14875608553E+03  0.58897467004E+02  0.13005423485E+03  0.20623646284E+03  0.47000000000E+01 0. -1.
        -13    1    6    6    0    0  0.20309347731E+02  0.13019160822E+02  0.42629983942E+02  0.48982483447E+02  0.00000000000E+00 0.  1.
         14    1    6    6    0    0  0.96430061809E+01  0.16491447221E+02 -0.37899877850E+02  0.42442386133E+02  0.00000000000E+00 0. -1.
         -5    1    3    3    0  503 -0.15689741134E+03 -0.25501760975E+02  0.11996090261E+03  0.19919800615E+03  0.47000000000E+01 0.  1.
         13    1    4    4    0    0 -0.39898597487E+02 -0.34096161317E+01  0.21757901718E+02  0.45573345837E+02  0.00000000000E+00 0. -1.
        -14    1    4    4    0    0  0.18087569389E+02 -0.59496697939E+02  0.70384391914E+02  0.93920071641E+02  0.00000000000E+00 0.  1.
<mgrwt>
<rscale>  2 0.26506026E+03</rscale>
<asrwt>0</asrwt>
<pdfrwt beam="1">  1       21 0.75633868E-01 0.26539678E+03</pdfrwt>
<pdfrwt beam="2">  1       21 0.22266556E-01 0.26539678E+03</pdfrwt>
<totfact> 0.28396728E+04</totfact>
</mgrwt>
</event>
<event>
12    1  0.1039378E-001  0.1708347E+03  0.7546771E-02  0.1177530E+00
         21   -1    0    0  501  502  0.00000000000E+00  0.00000000000E+00  0.13921469927E+03  0.13921469927E+03  0.00000000000E+00 0. -1.
         21   -1    0    0  502  503 -0.00000000000E+00 -0.00000000000E+00 -0.30857680089E+03  0.30857680089E+03  0.00000000000E+00 0. -1.
         -6    2    1    2    0  503 -0.63724035515E+01  0.74162408062E+01 -0.21345337779E+03  0.27339866597E+03  0.17055461855E+03 0.  0.
        -24    2    3    3    0    0  0.59332666962E+02  0.17372523837E+02 -0.10566619826E+03  0.14668461807E+03  0.80801372340E+02 0.  0.
          6    2    1    2  501    0  0.63724035515E+01 -0.74162408062E+01  0.44091276166E+02  0.17439283418E+03  0.16844349743E+03 0.  0.
         24    2    5    5    0    0  0.35400753096E+02 -0.62314318115E+02  0.20678892857E+02  0.10785958188E+03  0.77908826409E+02 0.  0.
          5    1    5    5  501    0 -0.29028349544E+02  0.54898077309E+02  0.23412383309E+02  0.66533252300E+02  0.47000000000E+01 0. -1.
        -13    1    6    6    0    0 -0.23679698053E+02 -0.30470331799E+02  0.47649206078E+01  0.38882819962E+02  0.00000000000E+00 0.  1.
         14    1    6    6    0    0  0.59080451149E+02 -0.31843986316E+02  0.15913972249E+02  0.68976761921E+02  0.00000000000E+00 0. -1.
         -5    1    3    3    0  503 -0.65705070513E+02 -0.99562830304E+01 -0.10778717953E+03  0.12671404790E+03  0.47000000000E+01 0.  1.
         11    1    4    4    0    0  0.16291943906E+02 -0.62684902373E+01 -0.94796015311E+02  0.96389864223E+02  0.00000000000E+00 0. -1.
        -12    1    4    4    0    0  0.43040723056E+02  0.23641014074E+02 -0.10870182946E+02  0.50294753851E+02  0.00000000000E+00 0.  1.
<mgrwt>
<rscale>  2 0.17030532E+03</rscale>
<asrwt>0</asrwt>
<pdfrwt beam="1">  1       21 0.21417646E-01 0.17083467E+03</pdfrwt>
<pdfrwt beam="2">  1       21 0.47473354E-01 0.17083467E+03</pdfrwt>
<totfact> 0.86925615E+04</totfact>
</mgrwt>
</event>
<event>
12    1  0.1039378E-001  0.1757366E+03  0.7546771E-02  0.1172051E+00
         21   -1    0    0  503  502  0.00000000000E+00  0.00000000000E+00  0.43878778996E+03  0.43878778996E+03  0.00000000000E+00 0. -1.
         21   -1    0    0  501  503 -0.00000000000E+00 -0.00000000000E+00 -0.10617540893E+03  0.10617540893E+03  0.00000000000E+00 0. -1.
          6    2    1    2  501    0 -0.16842419719E+01 -0.28085374225E+02  0.78306390909E+01  0.17568479411E+03  0.17324030437E+03 0.  0.
         24    2    3    3    0    0 -0.20289780046E+01 -0.42993691830E+02 -0.61631961562E+02  0.10448423466E+03  0.72566399372E+02 0.  0.
         -6    2    1    2    0  502  0.16842419719E+01  0.28085374225E+02  0.32478174194E+03  0.36927840477E+03  0.17346969597E+03 0.  0.
        -24    2    5    5    0    0  0.65099689140E+02 -0.88674502936E+01  0.20118959908E+03  0.22545859405E+03  0.77702777649E+02 0.  0.
          5    1    3    3  501    0  0.34473603263E+00  0.14908317605E+02  0.69462600653E+02  0.71200559452E+02  0.47000000000E+01 0. -1.
        -11    1    4    4    0    0  0.34984596284E+02 -0.24502846311E+02 -0.35582445562E+02  0.55591563089E+02  0.00000000000E+00 0.  1.
         12    1    4    4    0    0 -0.37013574289E+02 -0.18490845519E+02 -0.26049516001E+02  0.48892671572E+02  0.00000000000E+00 0. -1.
         -5    1    5    5    0  502 -0.63415447168E+02  0.36952824519E+02  0.12359214286E+03  0.14381981072E+03  0.47000000000E+01 0.  1.
         11    1    6    6    0    0 -0.54124121914E-01  0.66195900568E+00  0.12398809337E+03  0.12398987223E+03  0.00000000000E+00 0. -1.
        -12    1    6    6    0    0  0.65153813262E+02 -0.95294092993E+01  0.77201505713E+02  0.10146872182E+03  0.00000000000E+00 0.  1.
<mgrwt>
<rscale>  2 0.17567999E+03</rscale>
<asrwt>0</asrwt>
<pdfrwt beam="1">  1       21 0.67505813E-01 0.17573662E+03</pdfrwt>
<pdfrwt beam="2">  1       21 0.16334679E-01 0.17573662E+03</pdfrwt>
<totfact> 0.67870604E+04</totfact>
</mgrwt>
</event>
<event>
12    1  0.1039378E-001  0.2503090E+03  0.7546771E-02  0.1113137E+00
         21   -1    0    0  503  502  0.00000000000E+00  0.00000000000E+00  0.31944139490E+03  0.31944139490E+03  0.00000000000E+00 0. -1.
         21   -1    0    0  501  503 -0.00000000000E+00 -0.00000000000E+00 -0.64231451426E+03  0.64231451426E+03  0.00000000000E+00 0.  1.
          6    2    1    2  501    0  0.31742573751E+02  0.17765846311E+03 -0.56226841532E+03  0.61539666486E+03  0.17319689302E+03 0.  0.
         24    2    3    3    0    0 -0.49338843965E+02  0.86756612123E+02 -0.31449850891E+03  0.33926379950E+03  0.78927702816E+02 0.  0.
         -6    2    1    2    0  502 -0.31742573751E+02 -0.17765846311E+03  0.23939529596E+03  0.34635924430E+03  0.17344883360E+03 0.  0.
        -24    2    5    5    0    0 -0.61228519040E+02 -0.77045585491E+02  0.19507531442E+03  0.23243504636E+03  0.79288830811E+02 0.  0.
          5    1    3    3  501    0  0.81081417715E+02  0.90901850992E+02 -0.24776990641E+03  0.27613286536E+03  0.47000000000E+01 0. -1.
        -13    1    4    4    0    0 -0.31854962597E+02  0.46682319484E+02 -0.27366275054E+03  0.27943743240E+03  0.00000000000E+00 0.  1.
         14    1    4    4    0    0 -0.17483881368E+02  0.40074292639E+02 -0.40835758372E+02  0.59826367097E+02  0.00000000000E+00 0. -1.
         -5    1    5    5    0  502  0.29485945289E+02 -0.10061287762E+03  0.44319981547E+02  0.11392419795E+03  0.47000000000E+01 0.  1.
         13    1    6    6    0    0 -0.61458532644E+02 -0.86856958937E+02  0.19553521867E+03  0.22261020707E+03  0.00000000000E+00 0. -1.
        -14    1    6    6    0    0  0.23001360404E+00  0.98113734456E+01 -0.45990424939E+00  0.98248392896E+01  0.00000000000E+00 0.  1.
<mgrwt>
<rscale>  2 0.25026541E+03</rscale>
<asrwt>0</asrwt>
<pdfrwt beam="1">  1       21 0.49144830E-01 0.25030905E+03</pdfrwt>
<pdfrwt beam="2">  1       21 0.98817617E-01 0.25030905E+03</pdfrwt>
<totfact> 0.31918200E+03</totfact>
</mgrwt>
</event>
<event>
12    1  0.1039378E-001  0.2421472E+03  0.7546771E-02  0.1118659E+00
         21   -1    0    0  501  502  0.00000000000E+00  0.00000000000E+00  0.31940770566E+03  0.31940770566E+03  0.00000000000E+00 0.  1.
         21   -1    0    0  502  503 -0.00000000000E+00 -0.00000000000E+00 -0.32587355579E+03  0.32587355579E+03  0.00000000000E+00 0. -1.
         -6    2    1    2    0  503 -0.12698957538E+03  0.11091307222E+03 -0.21741463641E+03  0.32413541850E+03  0.17136680996E+03 0.  0.
        -24    2    3    3    0    0 -0.15619376254E+03  0.10687813547E+03 -0.16432393937E+03  0.26322665579E+03  0.80414476152E+02 0.  0.
          6    2    1    2  501    0  0.12698957538E+03 -0.11091307222E+03  0.21094878628E+03  0.32114584294E+03  0.17380218687E+03 0.  0.
         24    2    5    5    0    0  0.76655191411E+02 -0.33800330777E+02  0.19637332069E+03  0.22779457461E+03  0.79431772059E+02 0.  0.
          5    1    5    5  501    0  0.50334383973E+02 -0.77112741440E+02  0.14575465598E+02  0.93351268335E+02  0.47000000000E+01 0. -1.
        -11    1    6    6    0    0 -0.11444646534E+02 -0.23402780147E+02  0.34813314646E+02  0.43481455008E+02  0.00000000000E+00 0.  1.
         12    1    6    6    0    0  0.88099837945E+02 -0.10397550630E+02  0.16156000604E+03  0.18431311960E+03  0.00000000000E+00 0. -1.
         -5    1    3    3    0  503  0.29204187153E+02  0.40349367507E+01 -0.53090697047E+02  0.60908762710E+02  0.47000000000E+01 0.  1.
         11    1    4    4    0    0 -0.14045453101E+03  0.10764306899E+03 -0.17103010296E+03  0.24610120215E+03  0.00000000000E+00 0. -1.
        -12    1    4    4    0    0 -0.15739231525E+02 -0.76493352252E+00  0.67061635911E+01  0.17125453641E+02  0.00000000000E+00 0.  1.
<mgrwt>
<rscale>  2 0.24171051E+03</rscale>
<asrwt>0</asrwt>
<pdfrwt beam="1">  1       21 0.49139647E-01 0.24214719E+03</pdfrwt>
<pdfrwt beam="2">  1       21 0.50134393E-01 0.24214719E+03</pdfrwt>
<totfact> 0.14538297E+04</totfact>
</mgrwt>
</event>
<event>
12    1  0.1039378E-001  0.1850486E+03  0.7546771E-02  0.1163199E+00
         21   -1    0    0  503  502  0.00000000000E+00  0.00000000000E+00  0.35402242237E+03  0.35402242237E+03  0.00000000000E+00 0.  1.
         21   -1    0    0  501  503 -0.00000000000E+00 -0.00000000000E+00 -0.20582880037E+03  0.20582880037E+03  0.00000000000E+00 0. -1.
          6    2    1    2  501    0 -0.61626542969E+02  0.22566299994E+02 -0.13018723538E+03  0.22557753570E+03  0.17213204136E+03 0.  0.
         24    2    3    3    0    0 -0.10329657012E+03  0.28386612432E+02 -0.67527272531E+02  0.14995592408E+03  0.80317280005E+02 0.  0.
         -6    2    1    2    0  502  0.61626542969E+02 -0.22566299994E+02  0.27838085737E+03  0.33427368704E+03  0.17302002024E+03 0.  0.
        -24    2    5    5    0    0  0.36845098145E+01  0.35223234814E+01  0.73602721361E+02  0.11981140489E+03  0.94400369563E+02 0.  0.
          5    1    3    3  501    0  0.41670027153E+02 -0.58203124387E+01 -0.62659962845E+02  0.75621611617E+02  0.47000000000E+01 0. -1.
        -11    1    4    4    0    0 -0.57903197955E+02  0.56155079770E+02 -0.39511179522E+02  0.89818186492E+02  0.00000000000E+00 0.  1.
         12    1    4    4    0    0 -0.45393372167E+02 -0.27768467338E+02 -0.28016093009E+02  0.60137737591E+02  0.00000000000E+00 0. -1.
         -5    1    5    5    0  502  0.57942033155E+02 -0.26088623475E+02  0.20477813601E+03  0.21446228215E+03  0.47000000000E+01 0.  1.
         11    1    6    6    0    0  0.15887646026E+02 -0.18998624253E+02 -0.14062867275E+02  0.28480331033E+02  0.00000000000E+00 0. -1.
        -12    1    6    6    0    0 -0.12203136211E+02  0.22520947734E+02  0.87665588636E+02  0.91331073853E+02  0.00000000000E+00 0.  1.
<mgrwt>
<rscale>  2 0.18484078E+03</rscale>
<asrwt>0</asrwt>
<pdfrwt beam="1">  1       21 0.54464988E-01 0.18504863E+03</pdfrwt>
<pdfrwt beam="2">  1       21 0.31665969E-01 0.18504863E+03</pdfrwt>
<totfact> 0.30654520E+04</totfact>
</mgrwt>
</event>
<event>
12    1  0.1039378E-001  0.2823283E+03  0.7546771E-02  0.1095508E+00
         21   -1    0    0  501  502  0.00000000000E+00  0.00000000000E+00  0.14400324368E+04  0.14400324368E+04  0.00000000000E+00 0. -1.
         21   -1    0    0  502  503 -0.00000000000E+00 -0.00000000000E+00 -0.57121329824E+02  0.57121329824E+02  0.00000000000E+00 0. -1.
         -6    2    1    2    0  503 -0.14255431563E+02 -0.21259472631E+03  0.52059267515E+03  0.59222125243E+03  0.18522835483E+03 0.  0.
        -24    2    3    3    0    0 -0.16329451534E+02 -0.97262456546E+02  0.42041734720E+03  0.43937158663E+03  0.81055591233E+02 0.  0.
          6    2    1    2  501    0  0.14255431563E+02  0.21259472631E+03  0.86231843185E+03  0.90493251422E+03  0.17294520055E+03 0.  0.
         24    2    5    5    0    0 -0.49204439143E+02  0.69454552114E+02  0.41860235789E+03  0.43437719447E+03  0.78807368921E+02 0.  0.
          5    1    5    5  501    0  0.63459870706E+02  0.14314017419E+03  0.44371607396E+03  0.47055531975E+03  0.47000000000E+01 0. -1.
        -11    1    6    6    0    0 -0.29953443081E+02  0.17454031239E+02  0.31470860198E+03  0.31661231202E+03  0.00000000000E+00 0.  1.
         12    1    6    6    0    0 -0.19250996062E+02  0.52000520875E+02  0.10389375591E+03  0.11776488245E+03  0.00000000000E+00 0. -1.
         -5    1    3    3    0  503  0.20740199704E+01 -0.11533226976E+03  0.10017532795E+03  0.15284966580E+03  0.47000000000E+01 0.  1.
         13    1    4    4    0    0 -0.15269153302E+02  0.57469301673E+01  0.19469458210E+02  0.25401457673E+02  0.00000000000E+00 0. -1.
        -14    1    4    4    0    0 -0.10602982318E+01 -0.10300938671E+03  0.40094788899E+03  0.41397012895E+03  0.00000000000E+00 0.  1.
<mgrwt>
<rscale>  2 0.28033173E+03</rscale>
<asrwt>0</asrwt>
<pdfrwt beam="1">  1       21 0.22154342E+00 0.28232832E+03</pdfrwt>
<pdfrwt beam="2">  1       21 0.87878980E-02 0.28232832E+03</pdfrwt>
<totfact> 0.93726718E+03</totfact>
</mgrwt>
</event>
<event>
12    1  0.1039378E-001  0.2212991E+03  0.7546771E-02  0.1133523E+00
         21   -1    0    0  501  502  0.00000000000E+00  0.00000000000E+00  0.13803526193E+03  0.13803526193E+03  0.00000000000E+00 0. -1.
         21   -1    0    0  502  503 -0.00000000000E+00 -0.00000000000E+00 -0.70305837064E+03  0.70305837064E+03  0.00000000000E+00 0. -1.
         -6    2    1    2    0  503 -0.78278692511E+02 -0.11077172189E+03  0.14631282373E+02  0.22178229850E+03  0.17485818663E+03 0.  0.
        -24    2    3    3    0    0 -0.40611669633E+02 -0.12692925472E+03  0.54044249180E+02  0.16472669025E+03  0.80335286129E+02 0.  0.
          6    2    1    2  501    0  0.78278692511E+02  0.11077172189E+03 -0.57965439107E+03  0.61931133407E+03  0.17073191662E+03 0.  0.
         24    2    5    5    0    0  0.17155072173E+02  0.44141639072E+02 -0.11867389817E+03  0.14952332897E+03  0.77659197776E+02 0.  0.
          5    1    5    5  501    0  0.61123620339E+02  0.66630082817E+02 -0.46098049290E+03  0.46978800510E+03  0.47000000000E+01 0. -1.
        -13    1    6    6    0    0  0.26695355413E+02 -0.82884409239E+01 -0.12283456699E+02  0.30532336335E+02  0.00000000000E+00 0.  1.
         14    1    6    6    0    0 -0.95402832406E+01  0.52430079996E+02 -0.10639044147E+03  0.11899099264E+03  0.00000000000E+00 0. -1.
         -5    1    3    3    0  503 -0.37667022879E+02  0.16157532830E+02 -0.39412966807E+02  0.57055608245E+02  0.47000000000E+01 0.  1.
         11    1    4    4    0    0  0.13171674135E+02 -0.29817118010E+01  0.22081857174E+02  0.25884204083E+02  0.00000000000E+00 0. -1.
        -12    1    4    4    0    0 -0.53783343768E+02 -0.12394754292E+03  0.31962392006E+02  0.13884248617E+03  0.00000000000E+00 0.  1.
<mgrwt>
<rscale>  2 0.22048323E+03</rscale>
<asrwt>0</asrwt>
<pdfrwt beam="1">  1       21 0.21236194E-01 0.22129915E+03</pdfrwt>
<pdfrwt beam="2">  1       21 0.10816283E+00 0.22129915E+03</pdfrwt>
<totfact> 0.13774691E+04</totfact>
</mgrwt>
</event>
<event>
12    1  0.1039378E-001  0.1841118E+03  0.7546771E-02  0.1163961E+00
         21   -1    0    0  503  502  0.00000000000E+00  0.00000000000E+00  0.17518999276E+03  0.17518999276E+03  0.00000000000E+00 0. -1.
         21   -1    0    0  501  503 -0.00000000000E+00 -0.00000000000E+00 -0.27625629683E+03  0.27625629683E+03  0.00000000000E+00 0. -1.
          6    2    1    2  501    0  0.61310862100E+02 -0.93519985384E+01 -0.17431581792E+03  0.25329821979E+03  0.17299567070E+03 0.  0.
         24    2    3    3    0    0 -0.21455120599E+02 -0.41029032130E+02 -0.10202791937E+03  0.13883742901E+03  0.81990436541E+02 0.  0.
         -6    2    1    2    0  502 -0.61310862100E+02  0.93519985384E+01  0.73249513858E+02  0.19814806980E+03  0.17335133284E+03 0.  0.
        -24    2    5    5    0    0 -0.75121313791E+02  0.19294992440E+02  0.11036040850E+03  0.15705183877E+03  0.80438496870E+02 0.  0.
          5    1    3    3  501    0  0.82765982699E+02  0.31677033592E+02 -0.72287898549E+02  0.11446079078E+03  0.47000000000E+01 0. -1.
        -13    1    4    4    0    0  0.51350591679E+01 -0.32507172335E+02  0.15246509525E+00  0.32910611229E+02  0.00000000000E+00 0.  1.
         14    1    4    4    0    0 -0.26590179767E+02 -0.85218597954E+01 -0.10218038447E+03  0.10592681778E+03  0.00000000000E+00 0. -1.
         -5    1    5    5    0  502  0.13810451691E+02 -0.99429939020E+01 -0.37110894643E+02  0.41096231030E+02  0.47000000000E+01 0.  1.
         13    1    6    6    0    0 -0.42649539159E+02 -0.30240025903E+02  0.56764028738E+02  0.77172516582E+02  0.00000000000E+00 0. -1.
        -14    1    6    6    0    0 -0.32471774631E+02  0.49535018343E+02  0.53596379764E+02  0.79879322191E+02  0.00000000000E+00 0.  1.
<mgrwt>
<rscale>  2 0.18402806E+03</rscale>
<asrwt>0</asrwt>
<pdfrwt beam="1">  1       21 0.26952307E-01 0.18411183E+03</pdfrwt>
<pdfrwt beam="2">  1       21 0.42500969E-01 0.18411183E+03</pdfrwt>
<totfact> 0.70097793E+04</totfact>
</mgrwt>
</event>
<event>
12    1  0.1039378E-001  0.3507689E+03  0.7546771E-02  0.1062350E+00
         21   -1    0    0  501  502  0.00000000000E+00  0.00000000000E+00  0.58550792550E+03  0.58550792550E+03  0.00000000000E+00 0.  1.
         21   -1    0    0  502  503 -0.00000000000E+00 -0.00000000000E+00 -0.21050219148E+03  0.21050219148E+03  0.00000000000E+00 0. -1.
         -6    2    1    2    0  503 -0.22743403594E+03 -0.20324408954E+03  0.20985207522E+03  0.40875022293E+03  0.17321792815E+03 0.  0.
        -24    2    3    3    0    0 -0.13473670122E+03 -0.20091888230E+03  0.13043849851E+03  0.28657490374E+03  0.81170177042E+02 0.  0.
          6    2    1    2  501    0  0.22743403594E+03  0.20324408954E+03  0.16515365880E+03  0.38725989405E+03  0.17222106111E+03 0.  0.
         24    2    5    5    0    0  0.71008179143E+02  0.58294089258E+02  0.76575006887E+01  0.12210582360E+03  0.80067674458E+02 0.  0.
          5    1    5    5  501    0  0.15642585679E+03  0.14495000029E+03  0.15749615811E+03  0.26515407045E+03  0.47000000000E+01 0. -1.
        -13    1    6    6    0    0  0.17303322163E+02 -0.11458966607E+02  0.24885286354E+02  0.32403554596E+02  0.00000000000E+00 0.  1.
         14    1    6    6    0    0  0.53704856981E+02  0.69753055865E+02 -0.17227785665E+02  0.89702269006E+02  0.00000000000E+00 0. -1.
         -5    1    3    3    0  503 -0.92697334720E+02 -0.23252072466E+01  0.79413576708E+02  0.12217531919E+03  0.47000000000E+01 0.  1.
         11    1    4    4    0    0 -0.12174719309E+03 -0.11241586051E+03  0.85768458507E+02  0.18659028162E+03  0.00000000000E+00 0. -1.
        -12    1    4    4    0    0 -0.12989508127E+02 -0.88503021787E+02  0.44670040008E+02  0.99984622123E+02  0.00000000000E+00 0.  1.
<mgrwt>
<rscale>  2 0.35064608E+03</rscale>
<asrwt>0</asrwt>
<pdfrwt beam="1">  1       21 0.90078141E-01 0.35076894E+03</pdfrwt>
<pdfrwt beam="2">  1       21 0.32384953E-01 0.35076894E+03</pdfrwt>
<totfact> 0.88424601E+03</totfact>
</mgrwt>
</event>
<event>
12    1  0.1039378E-001  0.1981836E+03  0.7546771E-02  0.1151345E+00
         21   -1    0    0  503  502  0.00000000000E+00  0.00000000000E+00  0.57014795037E+03  0.57014795037E+03  0.00000000000E+00 0. -1.
         21   -1    0    0  501  503 -0.00000000000E+00 -0.00000000000E+00 -0.10995517743E+03  0.10995517743E+03  0.00000000000E+00 0. -1.
          6    2    1    2  501    0 -0.23752765347E+02  0.93295123229E+02  0.21905973403E+02  0.19909163824E+03  0.17288561209E+03 0.  0.
         24    2    3    3    0    0 -0.77171282965E+02  0.41037998558E+02 -0.10599952272E+02  0.11746400623E+03  0.77755446961E+02 0.  0.
         -6    2    1    2    0  502  0.23752765347E+02 -0.93295123229E+02  0.43828679954E+03  0.48101148957E+03  0.17322979122E+03 0.  0.
        -24    2    5    5    0    0  0.21656501109E+02  0.57643515925E+01  0.29626755132E+03  0.30778120717E+03  0.80327938669E+02 0.  0.
          5    1    3    3  501    0  0.53418517618E+02  0.52257124671E+02  0.32505925676E+02  0.81627632010E+02  0.47000000000E+01 0. -1.
        -13    1    4    4    0    0 -0.34388419713E+02  0.14756570393E+02 -0.43541275359E+02  0.57412215077E+02  0.00000000000E+00 0.  1.
         14    1    4    4    0    0 -0.42782863252E+02  0.26281428165E+02  0.32941323087E+02  0.60051791157E+02  0.00000000000E+00 0. -1.
         -5    1    5    5    0  502  0.20962642384E+01 -0.99059474822E+02  0.14201924821E+03  0.17323028240E+03  0.47000000000E+01 0.  1.
         11    1    6    6    0    0  0.49818216825E+01 -0.31664143812E+02  0.20814087116E+03  0.21059453648E+03  0.00000000000E+00 0. -1.
        -12    1    6    6    0    0  0.16674679426E+02  0.37428495404E+02  0.88126680167E+02  0.97186670688E+02  0.00000000000E+00 0.  1.
<mgrwt>
<rscale>  2 0.19810835E+03</rscale>
<asrwt>0</asrwt>
<pdfrwt beam="1">  1       21 0.87715068E-01 0.19818359E+03</pdfrwt>
<pdfrwt beam="2">  1       21 0.16916181E-01 0.19818359E+03</pdfrwt>
<totfact> 0.34991339E+04</totfact>
</mgrwt>
</event>
<event>
12    1  0.1039378E-001  0.2206248E+03  0.7546771E-02  0.1133487E+00
         21   -1    0    0  501  502  0.00000000000E+00  0.00000000000E+00  0.16183937107E+04  0.16183937107E+04  0.00000000000E+00 0.  1.
         21   -1    0    0  502  503 -0.00000000000E+00 -0.00000000000E+00 -0.30076181839E+02  0.30076181839E+02  0.00000000000E+00 0.  1.
         -6    2    1    2    0  503  0.60478840323E+02 -0.12311414399E+03  0.75972491807E+03  0.79100793011E+03  0.17232762919E+03 0.  0.
        -24    2    3    3    0    0  0.54662945530E+02 -0.11535127526E+03  0.34799996287E+03  0.37914191367E+03  0.79691042316E+02 0.  0.
          6    2    1    2  501    0 -0.60478840323E+02  0.12311414399E+03  0.82859261076E+03  0.85746196240E+03  0.17280196694E+03 0.  0.
         24    2    5    5    0    0 -0.63457117150E+01  0.27085585036E+02  0.57213989681E+03  0.57828108153E+03  0.79316144413E+02 0.  0.
          5    1    5    5  501    0 -0.54133128607E+02  0.96028558957E+02  0.25645271395E+03  0.27918088087E+03  0.47000000000E+01 0. -1.
        -13    1    6    6    0    0  0.24958222396E+02 -0.14081753917E+02  0.29238195852E+03  0.29378294424E+03  0.00000000000E+00 0.  1.
         14    1    6    6    0    0 -0.31303934111E+02  0.41167338953E+02  0.27975793828E+03  0.28449813728E+03  0.00000000000E+00 0. -1.
         -5    1    3    3    0  503  0.58158947930E+01 -0.77628687329E+01  0.41172495520E+03  0.41186601644E+03  0.47000000000E+01 0.  1.
         11    1    4    4    0    0  0.17846373084E+02 -0.29724377944E+02  0.20854089849E+03  0.21140325924E+03  0.00000000000E+00 0. -1.
        -12    1    4    4    0    0  0.36816572446E+02 -0.85626897316E+02  0.13945906439E+03  0.16773865443E+03  0.00000000000E+00 0.  1.
<mgrwt>
<rscale>  2 0.22053191E+03</rscale>
<asrwt>0</asrwt>
<pdfrwt beam="1">  1       21 0.24898358E+00 0.22062480E+03</pdfrwt>
<pdfrwt beam="2">  1       21 0.46271062E-02 0.22062480E+03</pdfrwt>
<totfact> 0.20199703E+04</totfact>
</mgrwt>
</event>
<event>
12    1  0.1039378E-001  0.2254056E+03  0.7546771E-02  0.1129997E+00
         21   -1    0    0  501  502  0.00000000000E+00  0.00000000000E+00  0.46819949423E+03  0.46819949423E+03  0.00000000000E+00 0. -1.
         21   -1    0    0  502  503 -0.00000000000E+00 -0.00000000000E+00 -0.11389862406E+03  0.11389862406E+03  0.00000000000E+00 0.  1.
         -6    2    1    2    0  503  0.28627934464E+01  0.14442893208E+03  0.24150448480E+03  0.33004516591E+03  0.17244559533E+03 0.  0.
        -24    2    3    3    0    0  0.13613588670E+02  0.14376679420E+03  0.26015219676E+03  0.30800326976E+03  0.79577809658E+02 0.  0.
          6    2    1    2  501    0 -0.28627934464E+01 -0.14442893208E+03  0.11279638537E+03  0.25205295239E+03  0.17303107885E+03 0.  0.
         24    2    5    5    0    0 -0.10134908417E+02 -0.74163926866E+02  0.13942684687E+03  0.17641350439E+03  0.77967137227E+02 0.  0.
          5    1    5    5  501    0  0.72721149703E+01 -0.70265005212E+02 -0.26630461499E+02  0.75639447996E+02  0.47000000000E+01 0. -1.
        -13    1    6    6    0    0 -0.32834946875E+02 -0.70602835650E+01  0.67857829806E+02  0.75714373842E+02  0.00000000000E+00 0.  1.
         14    1    6    6    0    0  0.22700038458E+02 -0.67103643301E+02  0.71569017059E+02  0.10069913055E+03  0.00000000000E+00 0. -1.
         -5    1    3    3    0  503 -0.10750795223E+02  0.66213787807E+00 -0.18647711959E+02  0.22041896148E+02  0.47000000000E+01 0.  1.
         11    1    4    4    0    0 -0.20667750808E+02  0.12308764623E+03  0.19978023430E+03  0.23556287186E+03  0.00000000000E+00 0. -1.
        -12    1    4    4    0    0  0.34281339478E+02  0.20679147969E+02  0.60371962458E+02  0.72440397902E+02  0.00000000000E+00 0.  1.
<mgrwt>
<rscale>  2 0.22529319E+03</rscale>
<asrwt>0</asrwt>
<pdfrwt beam="1">  1       21 0.72030690E-01 0.22540556E+03</pdfrwt>
<pdfrwt beam="2">  1       21 0.17522866E-01 0.22540556E+03</pdfrwt>
<totfact> 0.50526721E+04</totfact>
</mgrwt>
</event>
<event>
12    1  0.1039378E-001  0.2053734E+03  0.7546771E-02  0.1145919E+00
         21   -1    0    0  501  502  0.00000000000E+00  0.00000000000E+00  0.13267740160E+03  0.13267740160E+03  0.00000000000E+00 0.  1.
         21   -1    0    0  502  503 -0.00000000000E+00 -0.00000000000E+00 -0.31707971545E+03  0.31707971545E+03  0.00000000000E+00 0. -1.
         -6    2    1    2    0  503  0.74561321693E+02  0.81848003922E+02 -0.11799556651E+03  0.23685686826E+03  0.17297322304E+03 0.  0.
        -24    2    3    3    0    0  0.70514755203E+02  0.11599214669E+03 -0.12553653927E+03  0.20134414581E+03  0.79709055713E+02 0.  0.
          6    2    1    2  501    0 -0.74561321693E+02 -0.81848003922E+02 -0.66406747348E+02  0.21290024879E+03  0.16928725116E+03 0.  0.
         24    2    5    5    0    0  0.10790176414E+02 -0.70871862605E+02 -0.60013624341E+02  0.12648083009E+03  0.85185189192E+02 0.  0.
          5    1    5    5  501    0 -0.85351498107E+02 -0.10976141317E+02 -0.63931230074E+01  0.86419418704E+02  0.47000000000E+01 0. -1.
        -13    1    6    6    0    0  0.16528497046E+02 -0.61823882850E+02  0.15280872535E+01  0.64013426372E+02  0.00000000000E+00 0.  1.
         14    1    6    6    0    0 -0.57383206325E+01 -0.90479797553E+01 -0.61541711594E+02  0.62467403718E+02  0.00000000000E+00 0. -1.
         -5    1    3    3    0  503  0.40465664907E+01 -0.34144142771E+02  0.75409727623E+01  0.35512722455E+02  0.47000000000E+01 0.  1.
         11    1    4    4    0    0  0.20163863244E+02  0.78353592795E+02 -0.28609077897E+02  0.85815769081E+02  0.00000000000E+00 0. -1.
        -12    1    4    4    0    0  0.50350891959E+02  0.37638553898E+02 -0.96927461372E+02  0.11552837672E+03  0.00000000000E+00 0.  1.
<mgrwt>
<rscale>  2 0.20459529E+03</rscale>
<asrwt>0</asrwt>
<pdfrwt beam="1">  1       21 0.20411908E-01 0.20537337E+03</pdfrwt>
<pdfrwt beam="2">  1       21 0.48781494E-01 0.20537337E+03</pdfrwt>
<totfact> 0.88654615E+04</totfact>
</mgrwt>
</event>
<event>
12    1  0.1039378E-001  0.1887170E+03  0.7546771E-02  0.1160523E+00
         21   -1    0    0  503  502  0.00000000000E+00  0.00000000000E+00  0.12573619147E+04  0.12573619147E+04  0.00000000000E+00 0.  1.
         21   -1    0    0  501  503 -0.00000000000E+00 -0.00000000000E+00 -0.29601712037E+02  0.29601712037E+02  0.00000000000E+00 0.  1.
          6    2    1    2  501    0  0.68974780038E+02 -0.25998357417E+02  0.44653139978E+03  0.48326434823E+03  0.16947183958E+03 0.  0.
         24    2    3    3    0    0  0.68645471508E+02 -0.29042555031E+02  0.45761697670E+03  0.47084035535E+03  0.81985804280E+02 0.  0.
         -6    2    1    2    0  502 -0.68974780038E+02  0.25998357417E+02  0.78122880287E+03  0.80369927849E+03  0.17372579816E+03 0.  0.
        -24    2    5    5    0    0  0.25395535578E+02 -0.99960382231E+01  0.35761822220E+03  0.36818881129E+03  0.83230726910E+02 0.  0.
          5    1    3    3  501    0  0.32930853069E+00  0.30441976143E+01 -0.11085576924E+02  0.12423992875E+02  0.47000000000E+01 0. -1.
        -11    1    4    4    0    0  0.24484238512E+02 -0.64118074473E+01  0.25658258431E+02  0.36040746884E+02  0.00000000000E+00 0.  1.
         12    1    4    4    0    0  0.44161232996E+02 -0.22630747584E+02  0.43195871827E+03  0.43479960847E+03  0.00000000000E+00 0. -1.
         -5    1    5    5    0  502 -0.94370315616E+02  0.35994395640E+02  0.42361058067E+03  0.43551046720E+03  0.47000000000E+01 0.  1.
         13    1    6    6    0    0  0.14523067261E+02 -0.14022747124E+02  0.14454314719E+02  0.24829098526E+02  0.00000000000E+00 0. -1.
        -14    1    6    6    0    0  0.10872468317E+02  0.40267089014E+01  0.34316390748E+03  0.34335971276E+03  0.00000000000E+00 0.  1.
<mgrwt>
<rscale>  2 0.18773213E+03</rscale>
<asrwt>0</asrwt>
<pdfrwt beam="1">  1       21 0.19344025E+00 0.18871695E+03</pdfrwt>
<pdfrwt beam="2">  1       21 0.45541105E-02 0.18871695E+03</pdfrwt>
<totfact> 0.46765432E+04</totfact>
</mgrwt>
</event>
<event>
12    1  0.1039378E-001  0.1765702E+03  0.7546771E-02  0.1171281E+00
         21   -1    0    0  503  502  0.00000000000E+00  0.00000000000E+00  0.61334160397E+03  0.61334160397E+03  0.00000000000E+00 0. -1.
         21   -1    0    0  501  503 -0.00000000000E+00 -0.00000000000E+00 -0.77886732727E+02  0.77886732727E+02  0.00000000000E+00 0. -1.
          6    2    1    2  501    0 -0.31682040967E+02 -0.83088515325E+01  0.63753879999E+02  0.18772747190E+03  0.17350578595E+03 0.  0.
         24    2    3    3    0    0 -0.69045120258E+02  0.19401735306E+02  0.84267638307E+02  0.13667083083E+03  0.80213622102E+02 0.  0.
         -6    2    1    2    0  502  0.31682040967E+02  0.83088515325E+01  0.47170099124E+03  0.50350086479E+03  0.17302747463E+03 0.  0.
        -24    2    5    5    0    0  0.33673753053E+02 -0.93011138906E+00  0.48113499148E+03  0.48934403911E+03  0.82655440468E+02 0.  0.
          5    1    3    3  501    0  0.37363079291E+02 -0.27710586839E+02 -0.20513758309E+02  0.51056641067E+02  0.47000000000E+01 0. -1.
        -13    1    4    4    0    0  0.37437544980E+01  0.24813893031E+02  0.50197974552E+02  0.56121133579E+02  0.00000000000E+00 0.  1.
         14    1    4    4    0    0 -0.72788874756E+02 -0.54121577248E+01  0.34069663756E+02  0.80549697255E+02  0.00000000000E+00 0. -1.
         -5    1    5    5    0  502 -0.19917120858E+01  0.92389629216E+01 -0.94340002360E+01  0.14156825681E+02  0.47000000000E+01 0.  1.
         11    1    6    6    0    0  0.21365093016E+02 -0.39335531239E+02  0.17819519309E+03  0.18373153801E+03  0.00000000000E+00 0. -1.
        -12    1    6    6    0    0  0.12308660037E+02  0.38405419850E+02  0.30293979839E+03  0.30561250111E+03  0.00000000000E+00 0.  1.
<mgrwt>
<rscale>  2 0.17645262E+03</rscale>
<asrwt>0</asrwt>
<pdfrwt beam="1">  1       21 0.94360244E-01 0.17657023E+03</pdfrwt>
<pdfrwt beam="2">  1       21 0.11982575E-01 0.17657023E+03</pdfrwt>
<totfact> 0.55802213E+04</totfact>
</mgrwt>
</event>
<event>
12    1  0.1039378E-001  0.1785000E+03  0.7546771E-02  0.1170232E+00
         21   -1    0    0  501  502  0.00000000000E+00  0.00000000000E+00  0.10076486755E+03  0.10076486755E+03  0.00000000000E+00 0. -1.
         21   -1    0    0  502  503 -0.00000000000E+00 -0.00000000000E+00 -0.19003945326E+04  0.19003945326E+04  0.00000000000E+00 0. -1.
         -6    2    1    2    0  503  0.46435350998E+02 -0.15742013905E+02 -0.18137210029E+04  0.18221040870E+04  0.16755707900E+03 0.  0.
        -24    2    3    3    0    0  0.91546278250E+02 -0.33165865277E+02 -0.12511446776E+04  0.12574335653E+04  0.79344004568E+02 0.  0.
          6    2    1    2  501    0 -0.46435350998E+02  0.15742013905E+02  0.14091337821E+02  0.17905531316E+03  0.17163387353E+03 0.  0.
         24    2    5    5    0    0 -0.37157622601E+02 -0.96055762616E+00 -0.57173707824E+02  0.10512393369E+03  0.80003731030E+02 0.  0.
          5    1    5    5  501    0 -0.92777283964E+01  0.16702571531E+02  0.71265045644E+02  0.73931379472E+02  0.47000000000E+01 0. -1.
        -13    1    6    6    0    0 -0.17523204999E+01 -0.33784893139E+02 -0.52724033787E+01  0.34238689650E+02  0.00000000000E+00 0.  1.
         14    1    6    6    0    0 -0.35405302101E+02  0.32824335513E+02 -0.51901304445E+02  0.70885244035E+02  0.00000000000E+00 0. -1.
         -5    1    3    3    0  503 -0.45110927253E+02  0.17423851372E+02 -0.56257632526E+03  0.56467052172E+03  0.47000000000E+01 0.  1.
         11    1    4    4    0    0  0.35512169655E+02 -0.34337684357E+02 -0.93891013356E+03  0.94020871601E+03  0.00000000000E+00 0. -1.
        -12    1    4    4    0    0  0.56034108596E+02  0.11718190798E+01 -0.31223454405E+03  0.31722484925E+03  0.00000000000E+00 0.  1.
<mgrwt>
<rscale>  2 0.17751271E+03</rscale>
<asrwt>0</asrwt>
<pdfrwt beam="1">  1       21 0.15502290E-01 0.17849997E+03</pdfrwt>
<pdfrwt beam="2">  1       21 0.29236834E+00 0.17849997E+03</pdfrwt>
<totfact> 0.14220272E+03</totfact>
</mgrwt>
</event>
<event>
12    1  0.1039378E-001  0.1819348E+03  0.7546771E-02  0.1167328E+00
         21   -1    0    0  503  502  0.00000000000E+00  0.00000000000E+00  0.13391944453E+04  0.13391944453E+04  0.00000000000E+00 0.  1.
         21   -1    0    0  501  503 -0.00000000000E+00 -0.00000000000E+00 -0.24172632585E+02  0.24172632585E+02  0.00000000000E+00 0.  1.
          6    2    1    2  501    0 -0.32970485258E+02  0.77177691921E+01  0.60210730523E+03  0.62899400747E+03  0.17875580428E+03 0.  0.
         24    2    3    3    0    0 -0.17599268183E+02  0.66802854486E+02  0.20886173782E+03  0.23100972650E+03  0.70497607061E+02 0.  0.
         -6    2    1    2    0  502  0.32970485258E+02 -0.77177691921E+01  0.71291450749E+03  0.73437307042E+03  0.17294535179E+03 0.  0.
        -24    2    5    5    0    0  0.52078402253E+02 -0.63256799118E+02  0.40984573876E+03  0.42562970626E+03  0.80458278934E+02 0.  0.
          5    1    3    3  501    0 -0.15371217075E+02 -0.59085085294E+02  0.39324556741E+03  0.39798428098E+03  0.47000000000E+01 0. -1.
        -11    1    4    4    0    0 -0.53012451228E+01  0.41188570849E+02  0.19504099182E+03  0.19941311406E+03  0.00000000000E+00 0.  1.
         12    1    4    4    0    0 -0.12298023060E+02  0.25614283637E+02  0.13820746002E+02  0.31596612436E+02  0.00000000000E+00 0. -1.
         -5    1    5    5    0  502 -0.19107916995E+02  0.55539029926E+02  0.30306876873E+03  0.30874336417E+03  0.47000000000E+01 0.  1.
         11    1    6    6    0    0  0.16825005234E+02 -0.17482022302E+02  0.19768558881E+02  0.31296929963E+02  0.00000000000E+00 0. -1.
        -12    1    6    6    0    0  0.35253397019E+02 -0.45774776816E+02  0.39007717988E+03  0.39433277629E+03  0.00000000000E+00 0.  1.
<mgrwt>
<rscale>  2 0.18049126E+03</rscale>
<asrwt>0</asrwt>
<pdfrwt beam="1">  1       21 0.20602986E+00 0.18193475E+03</pdfrwt>
<pdfrwt beam="2">  1       21 0.37188676E-02 0.18193475E+03</pdfrwt>
<totfact> 0.54795209E+04</totfact>
</mgrwt>
</event>
<event>
12    1  0.1039378E-001  0.2151648E+03  0.7546771E-02  0.1137808E+00
         21   -1    0    0  501  502  0.00000000000E+00  0.00000000000E+00  0.26001726128E+03  0.26001726128E+03  0.00000000000E+00 0. -1.
         21   -1    0    0  502  503 -0.00000000000E+00 -0.00000000000E+00 -0.24612541987E+03  0.24612541987E+03  0.00000000000E+00 0.  1.
         -6    2    1    2    0  503  0.12748403980E+03  0.20525317526E+02 -0.12728438294E+03  0.24879738245E+03  0.17036829021E+03 0.  0.
        -24    2    3    3    0    0  0.98286754330E+02  0.62945913917E+01 -0.11332248057E+02  0.12829019333E+03  0.81425093809E+02 0.  0.
          6    2    1    2  501    0 -0.12748403980E+03 -0.20525317526E+02  0.14117622435E+03  0.25734529870E+03  0.17211161314E+03 0.  0.
         24    2    5    5    0    0 -0.85028884632E+02 -0.55606019056E+02  0.23630477012E+02  0.12745230991E+03  0.73237635680E+02 0.  0.
          5    1    5    5  501    0 -0.42455155167E+02  0.35080701529E+02  0.11754574734E+03  0.12989298879E+03  0.47000000000E+01 0. -1.
        -13    1    6    6    0    0 -0.68407163145E+02 -0.43455494754E+01  0.26496807285E+02  0.73488125341E+02  0.00000000000E+00 0.  1.
         14    1    6    6    0    0 -0.16621721487E+02 -0.51260469580E+02 -0.28663302730E+01  0.53964184567E+02  0.00000000000E+00 0. -1.
         -5    1    3    3    0  503  0.29197285470E+02  0.14230726134E+02 -0.11595213488E+03  0.12050718912E+03  0.47000000000E+01 0.  1.
         13    1    4    4    0    0  0.23568833639E+02 -0.19536714127E+02  0.26644653722E+02  0.40584611492E+02  0.00000000000E+00 0. -1.
        -14    1    4    4    0    0  0.74717920691E+02  0.25831305519E+02 -0.37976901779E+02  0.87705581841E+02  0.00000000000E+00 0.  1.
<mgrwt>
<rscale>  2 0.21481593E+03</rscale>
<asrwt>0</asrwt>
<pdfrwt beam="1">  1       21 0.40002656E-01 0.21516477E+03</pdfrwt>
<pdfrwt beam="2">  1       21 0.37865449E-01 0.21516477E+03</pdfrwt>
<totfact> 0.40053213E+04</totfact>
</mgrwt>
</event>
<event>
12    1  0.1039378E-001  0.2376382E+03  0.7546771E-02  0.1121734E+00
         21   -1    0    0  501  502  0.00000000000E+00  0.00000000000E+00  0.17978276763E+03  0.17978276763E+03  0.00000000000E+00 0.  1.
         21   -1    0    0  502  503 -0.00000000000E+00 -0.00000000000E+00 -0.37104633209E+03  0.37104633209E+03  0.00000000000E+00 0.  1.
         -6    2    1    2    0  503 -0.96234858503E+02 -0.13041292675E+03 -0.20576605076E+03  0.31274876248E+03  0.17089014406E+03 0.  0.
        -24    2    3    3    0    0 -0.91309532502E+02 -0.29952844200E+02 -0.15042640889E+03  0.19785292712E+03  0.85340920282E+02 0.  0.
          6    2    1    2  501    0  0.96234858503E+02  0.13041292675E+03  0.14502486298E+02  0.23808033724E+03  0.17379080935E+03 0.  0.
         24    2    5    5    0    0 -0.72700318209E+01  0.57322161907E+02  0.43898222691E+02  0.10791996867E+03  0.79881049532E+02 0.  0.
          5    1    5    5  501    0  0.10350489032E+03  0.73090764848E+02 -0.29395736392E+02  0.13016036857E+03  0.47000000000E+01 0. -1.
        -11    1    6    6    0    0  0.78730515300E+01  0.37637045582E+02  0.64872800025E+02  0.75412282312E+02  0.00000000000E+00 0.  1.
         12    1    6    6    0    0 -0.15143083351E+02  0.19685116325E+02 -0.20974577334E+02  0.32507686360E+02  0.00000000000E+00 0. -1.
         -5    1    3    3    0  503 -0.49253260014E+01 -0.10046008256E+03 -0.55339641861E+02  0.11489583537E+03  0.47000000000E+01 0.  1.
         11    1    4    4    0    0  0.14071755333E+02 -0.11773548483E+02 -0.40654412313E+02  0.44602824827E+02  0.00000000000E+00 0. -1.
        -12    1    4    4    0    0 -0.10538128783E+03 -0.18179295717E+02 -0.10977199658E+03  0.15325010229E+03  0.00000000000E+00 0.  1.
<mgrwt>
<rscale>  2 0.23710820E+03</rscale>
<asrwt>0</asrwt>
<pdfrwt beam="1">  1       21 0.27658887E-01 0.23763822E+03</pdfrwt>
<pdfrwt beam="2">  1       21 0.57084051E-01 0.23763822E+03</pdfrwt>
<totfact> 0.35164688E+04</totfact>
</mgrwt>
</event>
<event>
12    1  0.1039378E-001  0.2169290E+03  0.7546771E-02  0.1136798E+00
         21   -1    0    0  503  502  0.00000000000E+00  0.00000000000E+00  0.28835569348E+03  0.28835569348E+03  0.00000000000E+00 0.  1.
         21   -1    0    0  501  503 -0.00000000000E+00 -0.00000000000E+00 -0.27432923647E+03  0.27432923647E+03  0.00000000000E+00 0.  1.
          6    2    1    2  501    0  0.12953766500E+03 -0.13097825466E+02 -0.17398226135E+03  0.27562137783E+03  0.16954573710E+03 0.  0.
         24    2    3    3    0    0  0.16273574484E+03 -0.14623957790E+02 -0.13603273430E+03  0.22495878622E+03  0.73517126613E+02 0.  0.
         -6    2    1    2    0  502 -0.12953766500E+03  0.13097825466E+02  0.18800871836E+03  0.28706355211E+03  0.17351266550E+03 0.  0.
        -24    2    5    5    0    0 -0.47407915633E+02 -0.21967363047E+02  0.20572312570E+02  0.97242838914E+02  0.79390642847E+02 0.  0.
          5    1    3    3  501    0 -0.33198079846E+02  0.15261323236E+01 -0.37949527051E+02  0.50662591611E+02  0.47000000000E+01 0. -1.
        -11    1    4    4    0    0  0.61286495321E+02 -0.38841902350E+02 -0.38400396095E+02  0.82093351175E+02  0.00000000000E+00 0.  1.
         12    1    4    4    0    0  0.10144924952E+03  0.24217944560E+02 -0.97632338204E+02  0.14286543505E+03  0.00000000000E+00 0. -1.
         -5    1    5    5    0  502 -0.82129749365E+02  0.35065188513E+02  0.16743640579E+03  0.18982071320E+03  0.47000000000E+01 0.  1.
         13    1    6    6    0    0 -0.63254206476E+02 -0.56231427740E+01  0.32722337447E+02  0.71438545195E+02  0.00000000000E+00 0. -1.
        -14    1    6    6    0    0  0.15846290843E+02 -0.16344220273E+02 -0.12150024877E+02  0.25804293719E+02  0.00000000000E+00 0.  1.
<mgrwt>
<rscale>  2 0.21613475E+03</rscale>
<asrwt>0</asrwt>
<pdfrwt beam="1">  1       21 0.44362414E-01 0.21692903E+03</pdfrwt>
<pdfrwt beam="2">  1       21 0.42204498E-01 0.21692903E+03</pdfrwt>
<totfact> 0.26009170E+04</totfact>
</mgrwt>
</event>
<event>
12    1  0.1039378E-001  0.1953992E+03  0.7546771E-02  0.1154403E+00
         21   -1    0    0  501  502  0.00000000000E+00  0.00000000000E+00  0.83813149084E+03  0.83813149084E+03  0.00000000000E+00 0.  1.
         21   -1    0    0  502  503 -0.00000000000E+00 -0.00000000000E+00 -0.60625194079E+02  0.60625194079E+02  0.00000000000E+00 0.  1.
         -6    2    1    2    0  503  0.79003411811E+02  0.30260282348E+02  0.15664327945E+03  0.24787134729E+03  0.17246989316E+03 0.  0.
        -24    2    3    3    0    0  0.86075905436E+00  0.56112453591E+02  0.12659204556E+03  0.16012298209E+03  0.80401959174E+02 0.  0.
          6    2    1    2  501    0 -0.79003411811E+02 -0.30260282348E+02  0.62086301730E+03  0.65088533762E+03  0.17613521144E+03 0.  0.
         24    2    5    5    0    0 -0.36719160504E+02  0.23913608650E+02  0.15229650639E+03  0.17728272622E+03  0.79465600929E+02 0.  0.
          5    1    5    5  501    0 -0.42284251307E+02 -0.54173890998E+02  0.46856651091E+03  0.47360261140E+03  0.47000000000E+01 0. -1.
        -13    1    6    6    0    0 -0.46917939417E+02  0.25080768197E+02  0.15716223541E+03  0.16592259103E+03  0.00000000000E+00 0.  1.
         14    1    6    6    0    0  0.10198778913E+02 -0.11671595476E+01 -0.48657290240E+01  0.11360135195E+02  0.00000000000E+00 0. -1.
         -5    1    3    3    0  503  0.78142652757E+02 -0.25852171243E+02  0.30051233890E+02  0.87748365205E+02  0.47000000000E+01 0.  1.
         11    1    4    4    0    0 -0.28758442446E+01 -0.20153467440E+02  0.16829546893E+02  0.26413374995E+02  0.00000000000E+00 0. -1.
        -12    1    4    4    0    0  0.37366032990E+01  0.76265921031E+02  0.10976249867E+03  0.13370960709E+03  0.00000000000E+00 0.  1.
<mgrwt>
<rscale>  2 0.19456955E+03</rscale>
<asrwt>0</asrwt>
<pdfrwt beam="1">  1       21 0.12894330E+00 0.19539917E+03</pdfrwt>
<pdfrwt beam="2">  1       21 0.93269535E-02 0.19539917E+03</pdfrwt>
<totfact> 0.40420873E+04</totfact>
</mgrwt>
</event>
<event>
11    1  0.1039378E-001  0.1946818E+03  0.7546771E-02  0.1155013E+00
         21   -1    0    0  503  502  0.00000000000E+00  0.00000000000E+00  0.15888717051E+04  0.15888717051E+04  0.00000000000E+00 0. -1.
         21   -1    0    0  501  503 -0.00000000000E+00 -0.00000000000E+00 -0.31333023966E+02  0.31333023966E+02  0.00000000000E+00 0. -1.
          6    2    1    2  501    0 -0.58659291715E+02 -0.57065243553E+02  0.36790404274E+03  0.41474566013E+03  0.17309888333E+03 0.  0.
         24    2    3    3    0    0 -0.36897061730E+02  0.76520011921E+01  0.31736885787E+03  0.32967033274E+03  0.80867731854E+02 0.  0.
         -6    2    1    2    0  502  0.58659291715E+02  0.57065243553E+02  0.11896346384E+04  0.12054590689E+04  0.17664551927E+03 0.  0.
          5    1    3    3  501    0 -0.21762229985E+02 -0.64717244746E+02  0.50535184866E+02  0.85075327392E+02  0.47000000000E+01 0. -1.
        -13    1    4    4    0    0 -0.24813489279E+02 -0.35952144937E+02  0.14274781990E+03  0.14928230324E+03  0.00000000000E+00 0.  1.
         14    1    4    4    0    0 -0.12083572450E+02  0.43604146129E+02  0.17462103797E+03  0.18038802950E+03  0.00000000000E+00 0. -1.
         -5    1    5    5    0  502  0.30639653592E+02  0.10987804921E+03  0.56994179494E+03  0.58126389333E+03  0.47000000000E+01 0.  1.
         13    1    5    5    0    0  0.38738622140E+02 -0.41232487521E+02  0.40635177524E+03  0.41027132987E+03  0.00000000000E+00 0. -1.
        -14    1    5    5    0    0 -0.10718984016E+02 -0.11580318131E+02  0.21334106822E+03  0.21392384574E+03  0.00000000000E+00 0.  1.
<mgrwt>
<rscale>  2 0.19387370E+03</rscale>
<asrwt>0</asrwt>
<pdfrwt beam="1">  1       21 0.24444174E+00 0.19468178E+03</pdfrwt>
<pdfrwt beam="2">  1       21 0.48204665E-02 0.19468178E+03</pdfrwt>
<totfact> 0.20484951E+04</totfact>
</mgrwt>
</event>
<event>
12    1  0.1039378E-001  0.1959974E+03  0.7546771E-02  0.1156237E+00
         21   -1    0    0  503  502  0.00000000000E+00  0.00000000000E+00  0.18232046892E+03  0.18232046892E+03  0.00000000000E+00 0. -1.
         21   -1    0    0  501  503 -0.00000000000E+00 -0.00000000000E+00 -0.23850936287E+03  0.23850936287E+03  0.00000000000E+00 0.  1.
          6    2    1    2  501    0 -0.89501390531E+02 -0.22399643403E+02 -0.11576618666E+03  0.21597762979E+03  0.15726501094E+03 0.  0.
         24    2    3    3    0    0 -0.25484903628E+02 -0.66186172698E+02 -0.50862233171E+02  0.11473542554E+03  0.74479267864E+02 0.  0.
         -6    2    1    2    0  502  0.89501390531E+02  0.22399643403E+02  0.59577292711E+02  0.20485220200E+03  0.17292405247E+03 0.  0.
        -24    2    5    5    0    0 -0.21223478153E+02  0.13033511771E+02  0.15047881830E+02  0.85049533411E+02  0.79916681186E+02 0.  0.
          5    1    3    3  501    0 -0.64016486903E+02  0.43786529295E+02 -0.64903953491E+02  0.10124220425E+03  0.47000000000E+01 0. -1.
        -13    1    4    4    0    0 -0.40115826910E+02 -0.67299031191E+01 -0.27974984518E+02  0.49367711345E+02  0.00000000000E+00 0.  1.
         14    1    4    4    0    0  0.14630923281E+02 -0.59456269579E+02 -0.22887248653E+02  0.65367714196E+02  0.00000000000E+00 0. -1.
         -5    1    5    5    0  502  0.11072486868E+03  0.93661316324E+01  0.44529410880E+02  0.11980266859E+03  0.47000000000E+01 0.  1.
         11    1    6    6    0    0 -0.28609264012E+02 -0.27125403735E+02 -0.46799964889E+01  0.39701132002E+02  0.00000000000E+00 0. -1.
        -12    1    6    6    0    0  0.73857858592E+01  0.40158915506E+02  0.19727878319E+02  0.45348401409E+02  0.00000000000E+00 0.  1.
<mgrwt>
<rscale>  2 0.19248758E+03</rscale>
<asrwt>0</asrwt>
<pdfrwt beam="1">  1       21 0.28049303E-01 0.19599737E+03</pdfrwt>
<pdfrwt beam="2">  1       21 0.36693748E-01 0.19599737E+03</pdfrwt>
<totfact> 0.86853014E+04</totfact>
</mgrwt>
</event>
<event>
12    1  0.1039378E-001  0.2119007E+03  0.7546771E-02  0.1140217E+00
         21   -1    0    0  501  502  0.00000000000E+00  0.00000000000E+00  0.13514122179E+03  0.13514122179E+03  0.00000000000E+00 0.  1.
         21   -1    0    0  502  503 -0.00000000000E+00 -0.00000000000E+00 -0.39072906645E+03  0.39072906645E+03  0.00000000000E+00 0. -1.
         -6    2    1    2    0  503 -0.50356003055E+02 -0.11250055310E+03 -0.23033438927E+03  0.31247012569E+03  0.17143963100E+03 0.  0.
        -24    2    3    3    0    0 -0.10065957128E+03 -0.61677579830E+02 -0.15648173667E+03  0.20956372218E+03  0.74121161593E+02 0.  0.
          6    2    1    2  501    0  0.50356003055E+02  0.11250055310E+03 -0.25253455389E+02  0.21340016256E+03  0.17236528328E+03 0.  0.
         24    2    5    5    0    0 -0.41125387681E+01 -0.48582183528E+01  0.25621169941E+00  0.81442834605E+02  0.81193315017E+02 0.  0.
          5    1    5    5  501    0  0.54468541824E+02  0.11735877145E+03 -0.25509667089E+02  0.13195732795E+03  0.47000000000E+01 0. -1.
        -13    1    6    6    0    0  0.21558478260E+02  0.21238795060E+02  0.23294258437E+02  0.38190010168E+02  0.00000000000E+00 0.  1.
         14    1    6    6    0    0 -0.25671017028E+02 -0.26097013413E+02 -0.23038046738E+02  0.43252824437E+02  0.00000000000E+00 0. -1.
         -5    1    3    3    0  503  0.50303568228E+02 -0.50822973270E+02 -0.73852652600E+02  0.10290640352E+03  0.47000000000E+01 0.  1.
         11    1    4    4    0    0 -0.35653930630E+02 -0.57895616450E+02 -0.11088316257E+03  0.13006990780E+03  0.00000000000E+00 0. -1.
        -12    1    4    4    0    0 -0.65005640653E+02 -0.37819633797E+01 -0.45598574096E+02  0.79493814372E+02  0.00000000000E+00 0.  1.
<mgrwt>
<rscale>  2 0.21171235E+03</rscale>
<asrwt>0</asrwt>
<pdfrwt beam="1">  1       21 0.20790958E-01 0.21190067E+03</pdfrwt>
<pdfrwt beam="2">  1       21 0.60112162E-01 0.21190067E+03</pdfrwt>
<totfact> 0.54899853E+04</totfact>
</mgrwt>
</event>
<event>
12    1  0.1039378E-001  0.2219878E+03  0.7546771E-02  0.1133195E+00
         21   -1    0    0  501  502  0.00000000000E+00  0.00000000000E+00  0.42572284745E+02  0.42572284745E+02  0.00000000000E+00 0. -1.
         21   -1    0    0  502  503 -0.00000000000E+00 -0.00000000000E+00 -0.12646360977E+04  0.12646360977E+04  0.00000000000E+00 0. -1.
         -6    2    1    2    0  503 -0.11735906047E+03 -0.54851977085E+02 -0.81451610474E+03  0.84312463391E+03  0.17504506552E+03 0.  0.
        -24    2    3    3    0    0 -0.12774027765E+03  0.29983641496E+01 -0.67388178147E+03  0.69063025850E+03  0.80789416605E+02 0.  0.
          6    2    1    2  501    0  0.11735906047E+03  0.54851977085E+02 -0.40754770822E+03  0.46408374853E+03  0.18026841852E+03 0.  0.
         24    2    5    5    0    0 -0.29167596517E+01  0.60899714996E+02 -0.19259074402E+03  0.21764626255E+03  0.81002581113E+02 0.  0.
          5    1    5    5  501    0  0.12027582013E+03 -0.60477379107E+01 -0.21495696420E+03  0.24643748598E+03  0.47000000000E+01 0. -1.
        -11    1    6    6    0    0  0.65722577483E+01 -0.15523790351E+02 -0.76496641747E+02  0.78332106044E+02  0.00000000000E+00 0.  1.
         12    1    6    6    0    0 -0.94890174001E+01  0.76423505347E+02 -0.11609410227E+03  0.13931415651E+03  0.00000000000E+00 0. -1.
         -5    1    3    3    0  503  0.10381217171E+02 -0.57850341235E+02 -0.14063432327E+03  0.15249437541E+03  0.47000000000E+01 0.  1.
         13    1    4    4    0    0 -0.62563492263E+02 -0.38585710103E+02 -0.35214013658E+03  0.35973007016E+03  0.00000000000E+00 0. -1.
        -14    1    4    4    0    0 -0.65176785383E+02  0.41584074252E+02 -0.32174164489E+03  0.33090018833E+03  0.00000000000E+00 0.  1.
<mgrwt>
<rscale>  2 0.22092512E+03</rscale>
<asrwt>0</asrwt>
<pdfrwt beam="1">  1       21 0.65495804E-02 0.22198782E+03</pdfrwt>
<pdfrwt beam="2">  1       21 0.19455945E+00 0.22198782E+03</pdfrwt>
<totfact> 0.24198091E+04</totfact>
</mgrwt>
</event>
<event>
12    1  0.1039378E-001  0.3499945E+03  0.7546771E-02  0.1062632E+00
         21   -1    0    0  503  502  0.00000000000E+00  0.00000000000E+00  0.55142787343E+03  0.55142787343E+03  0.00000000000E+00 0. -1.
         21   -1    0    0  501  503 -0.00000000000E+00 -0.00000000000E+00 -0.24197941317E+03  0.24197941317E+03  0.00000000000E+00 0.  1.
          6    2    1    2  501    0 -0.17369776080E+03  0.25005273437E+03  0.40916253715E+02  0.35237801269E+03  0.17262341075E+03 0.  0.
         24    2    3    3    0    0 -0.69270983984E+02  0.68815165365E+02  0.63815060388E+02  0.14190603479E+03  0.80814383444E+02 0.  0.
         -6    2    1    2    0  502  0.17369776080E+03 -0.25005273437E+03  0.26853220654E+03  0.44102927391E+03  0.17233685741E+03 0.  0.
        -24    2    5    5    0    0  0.10318409013E+03 -0.76208389502E+02  0.17332885004E+03  0.23060160681E+03  0.81728426633E+02 0.  0.
          5    1    3    3  501    0 -0.10442677681E+03  0.18123756900E+03 -0.22898806672E+02  0.21047197790E+03  0.47000000000E+01 0. -1.
        -11    1    4    4    0    0  0.19072431800E+01  0.17217842288E+02 -0.15691731306E+02  0.23373534200E+02  0.00000000000E+00 0.  1.
         12    1    4    4    0    0 -0.71178227164E+02  0.51597323077E+02  0.79506791694E+02  0.11853250059E+03  0.00000000000E+00 0. -1.
         -5    1    5    5    0  502  0.70513670668E+02 -0.17384434486E+03  0.95203356506E+02  0.21042766710E+03  0.47000000000E+01 0.  1.
         11    1    6    6    0    0  0.10869976967E+03 -0.74928538602E+02  0.17911022632E+03  0.22250932339E+03  0.00000000000E+00 0. -1.
        -12    1    6    6    0    0 -0.55156795423E+01 -0.12798508997E+01 -0.57813762826E+01  0.80922834144E+01  0.00000000000E+00 0.  1.
<mgrwt>
<rscale>  2 0.34995915E+03</rscale>
<asrwt>0</asrwt>
<pdfrwt beam="1">  1       21 0.84835057E-01 0.34999446E+03</pdfrwt>
<pdfrwt beam="2">  1       21 0.37227602E-01 0.34999446E+03</pdfrwt>
<totfact> 0.76897241E+03</totfact>
</mgrwt>
</event>
<event>
12    1  0.1039378E-001  0.2437386E+03  0.7546771E-02  0.1117336E+00
         21   -1    0    0  503  502  0.00000000000E+00  0.00000000000E+00  0.10363499917E+04  0.10363499917E+04  0.00000000000E+00 0. -1.
         21   -1    0    0  501  503 -0.00000000000E+00 -0.00000000000E+00 -0.33732941540E+03  0.33732941540E+03  0.00000000000E+00 0. -1.
          6    2    1    2  501    0 -0.17089468304E+03  0.11897199295E+02 -0.27626185539E+03  0.36841430667E+03  0.17338383019E+03 0.  0.
         24    2    3    3    0    0 -0.11819052564E+03 -0.55555342341E+02 -0.20574581060E+03  0.25740900881E+03  0.82901524848E+02 0.  0.
         -6    2    1    2    0  502  0.17089468304E+03 -0.11897199295E+02  0.97528243169E+03  0.10052651004E+04  0.17330771636E+03 0.  0.
        -24    2    5    5    0    0  0.14674861627E+03  0.14464110018E+02  0.47756874409E+03  0.50624710878E+03  0.80435458372E+02 0.  0.
          5    1    3    3  501    0 -0.52704157399E+02  0.67452541635E+02 -0.70516044788E+02  0.11100529786E+03  0.47000000000E+01 0. -1.
        -11    1    4    4    0    0 -0.61065852954E+01 -0.38394425551E+02 -0.34221868461E+02  0.51793422153E+02  0.00000000000E+00 0.  1.
         12    1    4    4    0    0 -0.11208394035E+03 -0.17160916790E+02 -0.17152394214E+03  0.20561558666E+03  0.00000000000E+00 0. -1.
         -5    1    5    5    0  502  0.24146066772E+02 -0.26361309312E+02  0.49771368761E+03  0.49901799166E+03  0.47000000000E+01 0.  1.
         13    1    6    6    0    0  0.14393387499E+03  0.13031858201E+02  0.48060600067E+03  0.50186543772E+03  0.00000000000E+00 0. -1.
        -14    1    6    6    0    0  0.28147412773E+01  0.14322518169E+01 -0.30372565827E+01  0.43816710596E+01  0.00000000000E+00 0.  1.
<mgrwt>
<rscale>  2 0.24372503E+03</rscale>
<asrwt>0</asrwt>
<pdfrwt beam="1">  1       21 0.15943846E+00 0.24373857E+03</pdfrwt>
<pdfrwt beam="2">  1       21 0.51896834E-01 0.24373857E+03</pdfrwt>
<totfact> 0.85209999E+02</totfact>
</mgrwt>
</event>
<event>
12    1  0.1039378E-001  0.2114852E+03  0.7546771E-02  0.1140523E+00
         21   -1    0    0  503  502  0.00000000000E+00  0.00000000000E+00  0.52336946309E+03  0.52336946309E+03  0.00000000000E+00 0. -1.
         21   -1    0    0  501  503 -0.00000000000E+00 -0.00000000000E+00 -0.95850680526E+02  0.95850680526E+02  0.00000000000E+00 0.  1.
          6    2    1    2  501    0 -0.35995605609E+02 -0.11593736806E+03  0.31669362427E+03  0.38045626198E+03  0.17238027351E+03 0.  0.
         24    2    3    3    0    0  0.11018146773E+02 -0.12801837861E+03  0.18264693198E+03  0.23781387894E+03  0.81764505953E+02 0.  0.
         -6    2    1    2    0  502  0.35995605609E+02  0.11593736806E+03  0.11082515830E+03  0.23876388163E+03  0.17317279961E+03 0.  0.
        -24    2    5    5    0    0  0.15535528307E+02  0.92918003196E+01  0.99203177690E+02  0.12945216078E+03  0.81172047367E+02 0.  0.
          5    1    3    3  501    0 -0.47013752382E+02  0.12081010543E+02  0.13404669228E+03  0.14264238305E+03  0.47000000000E+01 0. -1.
        -13    1    4    4    0    0 -0.21085347099E+02 -0.41036652284E+02  0.19347981786E+02  0.50029422265E+02  0.00000000000E+00 0.  1.
         14    1    4    4    0    0  0.32103493872E+02 -0.86981726322E+02  0.16329895020E+03  0.18778445667E+03  0.00000000000E+00 0. -1.
         -5    1    5    5    0  502  0.20460077302E+02  0.10664556774E+03  0.11621980606E+02  0.10931172085E+03  0.47000000000E+01 0.  1.
         11    1    6    6    0    0  0.11584970930E+02  0.42100804168E+01  0.11329307509E+03  0.11396164790E+03  0.00000000000E+00 0. -1.
        -12    1    6    6    0    0  0.39505573762E+01  0.50817199028E+01 -0.14089897396E+02  0.15490512884E+02  0.00000000000E+00 0.  1.
<mgrwt>
<rscale>  2 0.21132286E+03</rscale>
<asrwt>0</asrwt>
<pdfrwt beam="1">  1       21 0.80518377E-01 0.21148517E+03</pdfrwt>
<pdfrwt beam="2">  1       21 0.14746259E-01 0.21148517E+03</pdfrwt>
<totfact> 0.54349253E+04</totfact>
</mgrwt>
</event>
<event>
12    1  0.1039378E-001  0.2718409E+03  0.7546771E-02  0.1101186E+00
         21   -1    0    0  501  502  0.00000000000E+00  0.00000000000E+00  0.26634487254E+03  0.26634487254E+03  0.00000000000E+00 0.  1.
         21   -1    0    0  502  503 -0.00000000000E+00 -0.00000000000E+00 -0.29575055597E+03  0.29575055597E+03  0.00000000000E+00 0. -1.
         -6    2    1    2    0  503 -0.20435856670E+03  0.53646674393E+02  0.67244061068E+02  0.27358435998E+03  0.16026930092E+03 0.  0.
        -24    2    3    3    0    0 -0.13403287819E+03  0.94474158405E+02  0.35752931466E+02  0.18625528601E+03  0.80762493881E+02 0.  0.
          6    2    1    2  501    0  0.20435856670E+03 -0.53646674393E+02 -0.96649744505E+02  0.28851106853E+03  0.17104699382E+03 0.  0.
         24    2    5    5    0    0  0.11705053680E+03 -0.37570344450E+02 -0.12755333937E+03  0.19439272471E+03  0.80039478298E+02 0.  0.
          5    1    5    5  501    0  0.87308029897E+02 -0.16076329943E+02  0.30903594864E+02  0.94118343826E+02  0.47000000000E+01 0. -1.
        -11    1    6    6    0    0  0.56754199685E+02 -0.34143743468E+02 -0.16938482047E+02  0.68364805082E+02  0.00000000000E+00 0.  1.
         12    1    6    6    0    0  0.60296337119E+02 -0.34266009815E+01 -0.11061485732E+03  0.12602791962E+03  0.00000000000E+00 0. -1.
         -5    1    3    3    0  503 -0.70325688514E+02 -0.40827484012E+02  0.31491129602E+02  0.87329073964E+02  0.47000000000E+01 0.  1.
         13    1    4    4    0    0 -0.14472875151E+03  0.92718934146E+02  0.32389808982E+02  0.17490658075E+03  0.00000000000E+00 0. -1.
        -14    1    4    4    0    0  0.10695873324E+02  0.17552242592E+01  0.33631224841E+01  0.11348705265E+02  0.00000000000E+00 0.  1.
<mgrwt>
<rscale>  2 0.27016312E+03</rscale>
<asrwt>0</asrwt>
<pdfrwt beam="1">  1       21 0.40976134E-01 0.27184088E+03</pdfrwt>
<pdfrwt beam="2">  1       21 0.45500086E-01 0.27184088E+03</pdfrwt>
<totfact> 0.25552648E+04</totfact>
</mgrwt>
</event>
<event>
12    1  0.1039378E-001  0.2112165E+03  0.7546771E-02  0.1140764E+00
         21   -1    0    0  501  502  0.00000000000E+00  0.00000000000E+00  0.81002567505E+02  0.81002567505E+02  0.00000000000E+00 0. -1.
         21   -1    0    0  502  503 -0.00000000000E+00 -0.00000000000E+00 -0.63138027977E+03  0.63138027977E+03  0.00000000000E+00 0. -1.
         -6    2    1    2    0  503 -0.11519946605E+03  0.31691499105E+02 -0.40456005960E+03  0.45637842766E+03  0.17417565650E+03 0.  0.
        -24    2    3    3    0    0 -0.10892316388E+03  0.24218549346E+02 -0.15826139748E+03  0.20984170036E+03  0.80845998763E+02 0.  0.
          6    2    1    2  501    0  0.11519946605E+03 -0.31691499105E+02 -0.14581765267E+03  0.25600441962E+03  0.17320567814E+03 0.  0.
         24    2    5    5    0    0  0.18696032736E+01 -0.21676362326E+02 -0.10916858847E+03  0.13638333172E+03  0.78798936304E+02 0.  0.
          5    1    5    5  501    0  0.11332986278E+03 -0.10015136778E+02 -0.36649064196E+02  0.11962108789E+03  0.47000000000E+01 0. -1.
        -13    1    6    6    0    0  0.43071814421E+01  0.21181088123E+02 -0.29454887233E+01  0.21814357883E+02  0.00000000000E+00 0.  1.
         14    1    6    6    0    0 -0.24375781686E+01 -0.42857450449E+02 -0.10622309975E+03  0.11456897384E+03  0.00000000000E+00 0. -1.
         -5    1    3    3    0  503 -0.62763021746E+01  0.74729497591E+01 -0.24629866212E+03  0.24653672730E+03  0.47000000000E+01 0.  1.
         11    1    4    4    0    0 -0.68651112517E+02  0.14248055317E+02 -0.15264205556E+03  0.16797493698E+03  0.00000000000E+00 0. -1.
        -12    1    4    4    0    0 -0.40272051361E+02  0.99704940289E+01 -0.56193419243E+01  0.41866763377E+02  0.00000000000E+00 0.  1.
<mgrwt>
<rscale>  2 0.21101647E+03</rscale>
<asrwt>0</asrwt>
<pdfrwt beam="1">  1       21 0.12461933E-01 0.21121654E+03</pdfrwt>
<pdfrwt beam="2">  1       21 0.97135430E-01 0.21121654E+03</pdfrwt>
<totfact> 0.47766356E+04</totfact>
</mgrwt>
</event>
<event>
12    1  0.1039378E-001  0.1777190E+03  0.7546771E-02  0.1172906E+00
         21   -1    0    0  503  502  0.00000000000E+00  0.00000000000E+00  0.19830337940E+03  0.19830337940E+03  0.00000000000E+00 0.  1.
         21   -1    0    0  501  503 -0.00000000000E+00 -0.00000000000E+00 -0.84724785274E+03  0.84724785274E+03  0.00000000000E+00 0.  1.
          6    2    1    2  501    0  0.40912394412E+02 -0.20652970082E+02 -0.79703041320E+03  0.81422143202E+03  0.15999591120E+03 0.  0.
         24    2    3    3    0    0  0.42992180257E+02  0.42574110416E+02 -0.53130811364E+03  0.54103208431E+03  0.82258873027E+02 0.  0.
         -6    2    1    2    0  502 -0.40912394412E+02  0.20652970082E+02  0.14808593986E+03  0.23132980011E+03  0.17170807099E+03 0.  0.
        -24    2    5    5    0    0 -0.24765083952E+02  0.24945209501E+02  0.67903581720E+01  0.88972185773E+02  0.81451629922E+02 0.  0.
          5    1    3    3  501    0 -0.20797858449E+01 -0.63227080497E+02 -0.26572229957E+03  0.27318934771E+03  0.47000000000E+01 0. -1.
        -11    1    4    4    0    0 -0.22468611409E+02  0.24322746588E+02 -0.13965181157E+03  0.14352373662E+03  0.00000000000E+00 0.  1.
         12    1    4    4    0    0  0.65460791666E+02  0.18251363828E+02 -0.39165630207E+03  0.39750834768E+03  0.00000000000E+00 0. -1.
         -5    1    5    5    0  502 -0.16147310461E+02 -0.42922394194E+01  0.14129558169E+03  0.14235761434E+03  0.47000000000E+01 0.  1.
         13    1    6    6    0    0  0.25086190866E+02 -0.29369034870E+01 -0.13146306792E+02  0.28473983854E+02  0.00000000000E+00 0. -1.
        -14    1    6    6    0    0 -0.49851274818E+02  0.27882112988E+02  0.19936664964E+02  0.60498201919E+02  0.00000000000E+00 0.  1.
<mgrwt>
<rscale>  2 0.17482698E+03</rscale>
<asrwt>0</asrwt>
<pdfrwt beam="1">  1       21 0.30508212E-01 0.17771897E+03</pdfrwt>
<pdfrwt beam="2">  1       21 0.13034582E+00 0.17771897E+03</pdfrwt>
<totfact> 0.44846523E+03</totfact>
</mgrwt>
</event>
<event>
12    1  0.1039378E-001  0.2672123E+03  0.7546771E-02  0.1103138E+00
         21   -1    0    0  501  502  0.00000000000E+00  0.00000000000E+00  0.61520899848E+02  0.61520899848E+02  0.00000000000E+00 0.  1.
         21   -1    0    0  502  503 -0.00000000000E+00 -0.00000000000E+00 -0.11679552836E+04  0.11679552836E+04  0.00000000000E+00 0. -1.
         -6    2    1    2    0  503 -0.55938518926E+02 -0.19376952476E+03 -0.62428297534E+03  0.67906673514E+03  0.17529019041E+03 0.  0.
        -24    2    3    3    0    0 -0.78559905396E+02 -0.20826965165E+03 -0.58341547621E+03  0.62993198888E+03  0.83022805272E+02 0.  0.
          6    2    1    2  501    0  0.55938518926E+02  0.19376952476E+03 -0.48215140845E+03  0.55040944834E+03  0.17264076439E+03 0.  0.
         24    2    5    5    0    0  0.24968133545E+02  0.20473482471E+03 -0.34739275811E+03  0.41162405137E+03  0.78821793497E+02 0.  0.
          5    1    5    5  501    0  0.30970385381E+02 -0.10965299953E+02 -0.13475865033E+03  0.13878539698E+03  0.47000000000E+01 0. -1.
        -11    1    6    6    0    0  0.22872190650E+02  0.86445490887E+02 -0.22148102801E+03  0.23885101166E+03  0.00000000000E+00 0.  1.
         12    1    6    6    0    0  0.20959428950E+01  0.11828933382E+03 -0.12591173010E+03  0.17277303971E+03  0.00000000000E+00 0. -1.
         -5    1    3    3    0  503  0.22621386470E+02  0.14500126889E+02 -0.40867499128E+02  0.49134746266E+02  0.47000000000E+01 0.  1.
         11    1    4    4    0    0 -0.60982331802E+02 -0.20908759597E+03 -0.55818006788E+03  0.59916730198E+03  0.00000000000E+00 0. -1.
        -12    1    4    4    0    0 -0.17577573595E+02  0.81794432434E+00 -0.25235408333E+02  0.30764686901E+02  0.00000000000E+00 0.  1.
<mgrwt>
<rscale>  2 0.26677860E+03</rscale>
<asrwt>0</asrwt>
<pdfrwt beam="1">  1       21 0.94647543E-02 0.26721227E+03</pdfrwt>
<pdfrwt beam="2">  1       21 0.17968542E+00 0.26721227E+03</pdfrwt>
<totfact> 0.15571229E+04</totfact>
</mgrwt>
</event>
<event>
12    1  0.1039378E-001  0.2089639E+03  0.7546771E-02  0.1145816E+00
         21   -1    0    0  501  502  0.00000000000E+00  0.00000000000E+00  0.49649309094E+03  0.49649309094E+03  0.00000000000E+00 0. -1.
         21   -1    0    0  502  503 -0.00000000000E+00 -0.00000000000E+00 -0.84506273088E+02  0.84506273088E+02  0.00000000000E+00 0.  1.
         -6    2    1    2    0  503  0.26185283200E+02  0.10668489413E+03  0.15630977597E+03  0.26095718589E+03  0.17775986924E+03 0.  0.
        -24    2    3    3    0    0  0.70870069449E+02  0.49355572293E+02  0.14358382838E+03  0.18701517479E+03  0.83065158573E+02 0.  0.
          6    2    1    2  501    0 -0.26185283200E+02 -0.10668489413E+03  0.25567704188E+03  0.32004217814E+03  0.15807881056E+03 0.  0.
         24    2    5    5    0    0 -0.17450816178E+02 -0.13033828303E+03  0.24993750497E+03  0.29375898951E+03  0.80826904654E+02 0.  0.
          5    1    5    5  501    0 -0.87344670218E+01  0.23653388900E+02  0.57395369103E+01  0.26283188630E+02  0.47000000000E+01 0. -1.
        -11    1    6    6    0    0  0.31158260884E+02 -0.70386872670E+02  0.13225209135E+03  0.15302210537E+03  0.00000000000E+00 0.  1.
         12    1    6    6    0    0 -0.48609077062E+02 -0.59951410361E+02  0.11768541362E+03  0.14073688413E+03  0.00000000000E+00 0. -1.
         -5    1    3    3    0  503 -0.44684786249E+02  0.57329321838E+02  0.12725947597E+02  0.73942011109E+02  0.47000000000E+01 0.  1.
         13    1    4    4    0    0  0.36096767700E+02  0.20026308108E+02  0.13441360968E+03  0.14060955915E+03  0.00000000000E+00 0. -1.
        -14    1    4    4    0    0  0.34773301749E+02  0.29329264184E+02  0.91702186941E+01  0.46405615641E+02  0.00000000000E+00 0.  1.
<mgrwt>
<rscale>  2 0.20472039E+03</rscale>
<asrwt>0</asrwt>
<pdfrwt beam="1">  1       21 0.76383550E-01 0.20896389E+03</pdfrwt>
<pdfrwt beam="2">  1       21 0.13000965E-01 0.20896389E+03</pdfrwt>
<totfact> 0.77010286E+04</totfact>
</mgrwt>
</event>
<event>
12    1  0.1039378E-001  0.3134333E+03  0.7546771E-02  0.1078872E+00
         21   -1    0    0  501  502  0.00000000000E+00  0.00000000000E+00  0.10417224207E+03  0.10417224207E+03  0.00000000000E+00 0. -1.
         21   -1    0    0  502  503 -0.00000000000E+00 -0.00000000000E+00 -0.95219386870E+03  0.95219386870E+03  0.00000000000E+00 0. -1.
         -6    2    1    2    0  503  0.10222555513E+03  0.23968447166E+03 -0.36088242877E+03  0.47710360905E+03  0.17173530881E+03 0.  0.
        -24    2    3    3    0    0  0.53783937934E+02  0.44845139254E+02 -0.89563595288E+02  0.13954627298E+03  0.80918021523E+02 0.  0.
          6    2    1    2  501    0 -0.10222555513E+03 -0.23968447166E+03 -0.48713919786E+03  0.57926250172E+03  0.17418879909E+03 0.  0.
         24    2    5    5    0    0 -0.47620986379E+02 -0.29386240955E+02 -0.14276877338E+03  0.17205237903E+03  0.78024284521E+02 0.  0.
          5    1    5    5  501    0 -0.54604568747E+02 -0.21029823071E+03 -0.34437042448E+03  0.40721012269E+03  0.47000000000E+01 0. -1.
        -13    1    6    6    0    0  0.16859809788E+02  0.74667669424E+01 -0.49518793615E+02  0.52840483682E+02  0.00000000000E+00 0.  1.
         14    1    6    6    0    0 -0.64480796168E+02 -0.36853007898E+02 -0.93249979769E+02  0.11921189535E+03  0.00000000000E+00 0. -1.
         -5    1    3    3    0  503  0.48441617193E+02  0.19483933241E+03 -0.27131883348E+03  0.33755733607E+03  0.47000000000E+01 0.  1.
         11    1    4    4    0    0  0.45547632641E+01  0.34015688018E+02 -0.81588958556E+02  0.88513112351E+02  0.00000000000E+00 0. -1.
        -12    1    4    4    0    0  0.49229174669E+02  0.10829451235E+02 -0.79746367313E+01  0.51033160628E+02  0.00000000000E+00 0.  1.
<mgrwt>
<rscale>  2 0.31309356E+03</rscale>
<asrwt>0</asrwt>
<pdfrwt beam="1">  1       21 0.16026499E-01 0.31343332E+03</pdfrwt>
<pdfrwt beam="2">  1       21 0.14649137E+00 0.31343332E+03</pdfrwt>
<totfact> 0.10288965E+04</totfact>
</mgrwt>
</event>
<event>
12    1  0.1039378E-001  0.3216215E+03  0.7546771E-02  0.1075830E+00
         21   -1    0    0  501  502  0.00000000000E+00  0.00000000000E+00  0.48971748808E+03  0.48971748808E+03  0.00000000000E+00 0.  1.
         21   -1    0    0  502  503 -0.00000000000E+00 -0.00000000000E+00 -0.21255142636E+03  0.21255142636E+03  0.00000000000E+00 0. -1.
         -6    2    1    2    0  503 -0.22862142748E+03 -0.12672297697E+03  0.20182433530E+03  0.37970181260E+03  0.18738712383E+03 0.  0.
        -24    2    3    3    0    0 -0.10302675328E+03 -0.13271171599E+03  0.77796866365E+02  0.20302473363E+03  0.83305333544E+02 0.  0.
          6    2    1    2  501    0  0.22862142748E+03  0.12672297697E+03  0.75341726419E+02  0.32256710185E+03  0.17333980922E+03 0.  0.
         24    2    5    5    0    0  0.17929352701E+03  0.23324335065E+02  0.59846373824E+02  0.20686612145E+03  0.80757726012E+02 0.  0.
          5    1    5    5  501    0  0.49327900464E+02  0.10339864191E+03  0.15495352595E+02  0.11570098040E+03  0.47000000000E+01 0. -1.
        -11    1    6    6    0    0  0.82781761460E+02  0.26649156420E+02  0.67365179077E+02  0.11000484044E+03  0.00000000000E+00 0.  1.
         12    1    6    6    0    0  0.96511765553E+02 -0.33248213546E+01 -0.75188052523E+01  0.96861281014E+02  0.00000000000E+00 0. -1.
         -5    1    3    3    0  503 -0.12559467420E+03  0.59887390194E+01  0.12402746894E+03  0.17667707897E+03  0.47000000000E+01 0.  1.
         11    1    4    4    0    0 -0.23395994502E+02 -0.40441926205E+02 -0.15833903934E+02  0.49331880845E+02  0.00000000000E+00 0. -1.
        -12    1    4    4    0    0 -0.79630758774E+02 -0.92269789787E+02  0.93630770298E+02  0.15369285278E+03  0.00000000000E+00 0.  1.
<mgrwt>
<rscale>  2 0.31960856E+03</rscale>
<asrwt>0</asrwt>
<pdfrwt beam="1">  1       21 0.75341152E-01 0.32162152E+03</pdfrwt>
<pdfrwt beam="2">  1       21 0.32700220E-01 0.32162152E+03</pdfrwt>
<totfact> 0.13253072E+04</totfact>
</mgrwt>
</event>
<event>
12    1  0.1039378E-001  0.1789923E+03  0.7546771E-02  0.1169808E+00
         21   -1    0    0  501  502  0.00000000000E+00  0.00000000000E+00  0.21895315402E+03  0.21895315402E+03  0.00000000000E+00 0.  1.
         21   -1    0    0  502  503 -0.00000000000E+00 -0.00000000000E+00 -0.15484425963E+03  0.15484425963E+03  0.00000000000E+00 0.  1.
         -6    2    1    2    0  503  0.43195625709E+01 -0.46065292166E+02 -0.20099594941E+02  0.17598610091E+03  0.16860143604E+03 0.  0.
        -24    2    3    3    0    0  0.66014488959E+00 -0.65854970900E+02 -0.70483045935E+02  0.12152873358E+03  0.73919282592E+02 0.  0.
          6    2    1    2  501    0 -0.43195625709E+01  0.46065292166E+02  0.84208489328E+02  0.19781131273E+03  0.17290915536E+03 0.  0.
         24    2    5    5    0    0  0.59953569299E+02  0.54331283444E+02  0.57509823513E+02  0.12756694749E+03  0.80122577710E+02 0.  0.
          5    1    5    5  501    0 -0.64273131870E+02 -0.82659912780E+01  0.26698665815E+02  0.70244365244E+02  0.47000000000E+01 0. -1.
        -11    1    6    6    0    0  0.83264907199E+01  0.23433612382E+02  0.62428545328E+02  0.67199612415E+02  0.00000000000E+00 0.  1.
         12    1    6    6    0    0  0.51627078580E+02  0.30897671062E+02 -0.49187218151E+01  0.60367335075E+02  0.00000000000E+00 0. -1.
         -5    1    3    3    0  503  0.36594176813E+01  0.19789678734E+02  0.50383450995E+02  0.54457367328E+02  0.47000000000E+01 0.  1.
         13    1    4    4    0    0  0.25985342760E+02 -0.88736772798E+01 -0.49179595624E-01  0.27458743698E+02  0.00000000000E+00 0. -1.
        -14    1    4    4    0    0 -0.25325197871E+02 -0.56981293620E+02 -0.70433866340E+02  0.94069989887E+02  0.00000000000E+00 0.  1.
<mgrwt>
<rscale>  2 0.17794368E+03</rscale>
<asrwt>0</asrwt>
<pdfrwt beam="1">  1       21 0.33685101E-01 0.17899231E+03</pdfrwt>
<pdfrwt beam="2">  1       21 0.23822194E-01 0.17899231E+03</pdfrwt>
<totfact> 0.14159849E+05</totfact>
</mgrwt>
</event>
<event>
12    1  0.1039378E-001  0.2186132E+03  0.7546771E-02  0.1135027E+00
         21   -1    0    0  501  502  0.00000000000E+00  0.00000000000E+00  0.19326313325E+04  0.19326313325E+04  0.00000000000E+00 0.  1.
         21   -1    0    0  502  503 -0.00000000000E+00 -0.00000000000E+00 -0.35675963393E+02  0.35675963393E+02  0.00000000000E+00 0.  1.
         -6    2    1    2    0  503  0.19092048817E+02  0.13433946223E+03  0.40089114332E+03  0.45635494655E+03  0.17068840326E+03 0.  0.
        -24    2    3    3    0    0 -0.48457831203E+02  0.52740681258E+02  0.15960750346E+03  0.19279995758E+03  0.81040283921E+02 0.  0.
          6    2    1    2  501    0 -0.19092048817E+02 -0.13433946223E+03  0.14960642257E+04  0.15119523493E+04  0.17140636384E+03 0.  0.
         24    2    5    5    0    0 -0.25321559240E+02 -0.15838164216E+03  0.10556156831E+04  0.10707790931E+04  0.80730849147E+02 0.  0.
          5    1    5    5  501    0  0.62295104231E+01  0.24042179937E+02  0.44044854266E+03  0.44117325615E+03  0.47000000000E+01 0. -1.
        -13    1    6    6    0    0 -0.50438817660E+02 -0.82994586409E+02  0.67557507277E+03  0.68252022289E+03  0.00000000000E+00 0.  1.
         14    1    6    6    0    0  0.25117258420E+02 -0.75387055755E+02  0.38004061031E+03  0.38825887025E+03  0.00000000000E+00 0. -1.
         -5    1    3    3    0  503  0.67549880020E+02  0.81598780968E+02  0.24128363986E+03  0.26355498897E+03  0.47000000000E+01 0.  1.
         11    1    4    4    0    0  0.15255329973E+02 -0.82918568917E+01  0.12996238763E+02  0.21688296505E+02  0.00000000000E+00 0. -1.
        -12    1    4    4    0    0 -0.63713161177E+02  0.61032538150E+02  0.14661126470E+03  0.17111166108E+03  0.00000000000E+00 0.  1.
<mgrwt>
<rscale>  2 0.21847246E+03</rscale>
<asrwt>0</asrwt>
<pdfrwt beam="1">  1       21 0.29732782E+00 0.21861322E+03</pdfrwt>
<pdfrwt beam="2">  1       21 0.54886113E-02 0.21861322E+03</pdfrwt>
<totfact> 0.79021689E+03</totfact>
</mgrwt>
</event>
<event>
12    1  0.1039378E-001  0.1822643E+03  0.7546771E-02  0.1166019E+00
         21   -1    0    0  501  502  0.00000000000E+00  0.00000000000E+00  0.72350009188E+02  0.72350009188E+02  0.00000000000E+00 0.  1.
         21   -1    0    0  502  503 -0.00000000000E+00 -0.00000000000E+00 -0.46971799821E+03  0.46971799821E+03  0.00000000000E+00 0.  1.
         -6    2    1    2    0  503 -0.11014333872E+02  0.52160057203E+02 -0.24742101674E+03  0.30730674598E+03  0.17429368744E+03 0.  0.
        -24    2    3    3    0    0 -0.74736656376E+02  0.35567096217E+02 -0.13540684201E+03  0.17728703178E+03  0.79025898513E+02 0.  0.
          6    2    1    2  501    0  0.11014333872E+02 -0.52160057203E+02 -0.14994697228E+03  0.23476126142E+03  0.17258843602E+03 0.  0.
         24    2    5    5    0    0 -0.13460117712E+02  0.27979479947E+02 -0.11376760278E+03  0.14336989983E+03  0.81534254570E+02 0.  0.
          5    1    5    5  501    0  0.24474451584E+02 -0.80139537150E+02 -0.36179369503E+02  0.91391361587E+02  0.47000000000E+01 0. -1.
        -11    1    6    6    0    0 -0.10725544023E+02 -0.16997571901E+02  0.94889608682E+00  0.20121012621E+02  0.00000000000E+00 0.  1.
         12    1    6    6    0    0 -0.27345736898E+01  0.44977051848E+02 -0.11471649887E+03  0.12324888721E+03  0.00000000000E+00 0. -1.
         -5    1    3    3    0  503  0.63722322504E+02  0.16592960987E+02 -0.11201417473E+03  0.13001971419E+03  0.47000000000E+01 0.  1.
         13    1    4    4    0    0  0.16875030428E+01 -0.24248938890E+01  0.90400577649E+01  0.95105426388E+01  0.00000000000E+00 0. -1.
        -14    1    4    4    0    0 -0.76424159419E+02  0.37991990106E+02 -0.14444689977E+03  0.16777648914E+03  0.00000000000E+00 0.  1.
<mgrwt>
<rscale>  2 0.18185543E+03</rscale>
<asrwt>0</asrwt>
<pdfrwt beam="1">  1       21 0.11130770E-01 0.18226430E+03</pdfrwt>
<pdfrwt beam="2">  1       21 0.72264310E-01 0.18226430E+03</pdfrwt>
<totfact> 0.11633710E+05</totfact>
</mgrwt>
</event>
<event>
12    1  0.1039378E-001  0.2321985E+03  0.7546771E-02  0.1125171E+00
         21   -1    0    0  501  502  0.00000000000E+00  0.00000000000E+00  0.11933762254E+03  0.11933762254E+03  0.00000000000E+00 0. -1.
         21   -1    0    0  502  503 -0.00000000000E+00 -0.00000000000E+00 -0.74312010564E+03  0.74312010564E+03  0.00000000000E+00 0.  1.
         -6    2    1    2    0  503 -0.57001749791E+02  0.14589967130E+03 -0.58241355801E+03  0.62699416989E+03  0.17140660127E+03 0.  0.
        -24    2    3    3    0    0 -0.92595162849E+02  0.10217978428E+03 -0.30970268039E+03  0.34847732598E+03  0.80660547837E+02 0.  0.
          6    2    1    2  501    0  0.57001749791E+02 -0.14589967130E+03 -0.41368925089E+02  0.23546355829E+03  0.17086774346E+03 0.  0.
         24    2    5    5    0    0  0.71559901222E+01 -0.16377944028E+02 -0.45061627876E+02  0.96552782448E+02  0.83501163144E+02 0.  0.
          5    1    5    5  501    0  0.49845759669E+02 -0.12952172727E+03  0.36927027870E+01  0.13891077584E+03  0.47000000000E+01 0. -1.
        -13    1    6    6    0    0  0.49531915716E+01 -0.57322099353E+01  0.24758378218E+02  0.25891497243E+02  0.00000000000E+00 0.  1.
         14    1    6    6    0    0  0.22027985505E+01 -0.10645734093E+02 -0.69820006094E+02  0.70661285205E+02  0.00000000000E+00 0. -1.
         -5    1    3    3    0  503  0.35593413058E+02  0.43719887013E+02 -0.27271087762E+03  0.27851684392E+03  0.47000000000E+01 0.  1.
         11    1    4    4    0    0  0.11422438526E+02 -0.24073037055E+00 -0.10296059739E+02  0.15379821167E+02  0.00000000000E+00 0. -1.
        -12    1    4    4    0    0 -0.10401760138E+03  0.10242051465E+03 -0.29940662065E+03  0.33309750481E+03  0.00000000000E+00 0.  1.
<mgrwt>
<rscale>  2 0.23209905E+03</rscale>
<asrwt>0</asrwt>
<pdfrwt beam="1">  1       21 0.18359634E-01 0.23219849E+03</pdfrwt>
<pdfrwt beam="2">  1       21 0.11432617E+00 0.23219849E+03</pdfrwt>
<totfact> 0.15703651E+04</totfact>
</mgrwt>
</event>
<event>
12    1  0.1039378E-001  0.1766673E+03  0.7546771E-02  0.1171605E+00
         21   -1    0    0  501  502  0.00000000000E+00  0.00000000000E+00  0.19218121154E+03  0.19218121154E+03  0.00000000000E+00 0. -1.
         21   -1    0    0  502  503 -0.00000000000E+00 -0.00000000000E+00 -0.21789749684E+03  0.21789749684E+03  0.00000000000E+00 0. -1.
         -6    2    1    2    0  503  0.17814225375E+02 -0.25125999313E+02 -0.11809355239E+03  0.21071749276E+03  0.17177634346E+03 0.  0.
        -24    2    3    3    0    0  0.51050443571E+02 -0.36944423506E+02 -0.13688622996E+03  0.17047353569E+03  0.79701619808E+02 0.  0.
          6    2    1    2  501    0 -0.17814225375E+02  0.25125999313E+02  0.92377267083E+02  0.19936121561E+03  0.17396169794E+03 0.  0.
         24    2    5    5    0    0  0.12528556252E+02  0.56269781927E+02  0.20097660234E+01  0.98967018372E+02  0.80418769489E+02 0.  0.
          5    1    5    5  501    0 -0.30342781627E+02 -0.31143782614E+02  0.90367501059E+02  0.10039419724E+03  0.47000000000E+01 0. -1.
        -13    1    6    6    0    0  0.33969029229E+02  0.45787872677E+02  0.28139538493E+02  0.63578753194E+02  0.00000000000E+00 0.  1.
         14    1    6    6    0    0 -0.21440472977E+02  0.10481909250E+02 -0.26129772470E+02  0.35388265178E+02  0.00000000000E+00 0. -1.
         -5    1    3    3    0  503 -0.33236218196E+02  0.11818424192E+02  0.18792677576E+02  0.40243957072E+02  0.47000000000E+01 0.  1.
         11    1    4    4    0    0  0.59824842306E+02 -0.15437999229E+02 -0.46985763309E+02  0.77620909109E+02  0.00000000000E+00 0. -1.
        -12    1    4    4    0    0 -0.87743987353E+01 -0.21506424277E+02 -0.89900466655E+02  0.92852626582E+02  0.00000000000E+00 0.  1.
<mgrwt>
<rscale>  2 0.17612696E+03</rscale>
<asrwt>0</asrwt>
<pdfrwt beam="1">  1       21 0.29566340E-01 0.17666730E+03</pdfrwt>
<pdfrwt beam="2">  1       21 0.33522692E-01 0.17666730E+03</pdfrwt>
<totfact> 0.94538982E+04</totfact>
</mgrwt>
</event>
<event>
12    1  0.1039378E-001  0.1760565E+03  0.7546771E-02  0.1171797E+00
         21   -1    0    0  501  502  0.00000000000E+00  0.00000000000E+00  0.18549947573E+03  0.18549947573E+03  0.00000000000E+00 0. -1.
         21   -1    0    0  502  503 -0.00000000000E+00 -0.00000000000E+00 -0.19340153483E+03  0.19340153483E+03  0.00000000000E+00 0. -1.
         -6    2    1    2    0  503 -0.16642501150E+02  0.20619964924E+02 -0.74429008021E+02  0.19069436970E+03  0.17355837520E+03 0.  0.
        -24    2    3    3    0    0  0.26460974684E+02  0.43563500033E+02  0.62799662991E+01  0.96246797113E+02  0.81400529860E+02 0.  0.
          6    2    1    2  501    0  0.16642501150E+02 -0.20619964924E+02  0.66526948920E+02  0.18820664085E+03  0.17405099520E+03 0.  0.
         24    2    5    5    0    0  0.78090071206E+02 -0.13639425097E+02  0.52327342885E+02  0.12458077651E+03  0.80610954123E+02 0.  0.
          5    1    5    5  501    0 -0.61447570056E+02 -0.69805398269E+01  0.14199606035E+02  0.63625864344E+02  0.47000000000E+01 0. -1.
        -11    1    6    6    0    0  0.37692461613E+02  0.16717877570E+02 -0.11844600129E+02  0.42901091421E+02  0.00000000000E+00 0.  1.
         12    1    6    6    0    0  0.40397609593E+02 -0.30357302667E+02  0.64171943014E+02  0.81679685089E+02  0.00000000000E+00 0. -1.
         -5    1    3    3    0  503 -0.43103475834E+02 -0.22943535109E+02 -0.80708974320E+02  0.94447572589E+02  0.47000000000E+01 0.  1.
         11    1    4    4    0    0  0.55673885285E+02  0.30599136034E+02 -0.70247804421E+00  0.63532527922E+02  0.00000000000E+00 0. -1.
        -12    1    4    4    0    0 -0.29212910601E+02  0.12964363999E+02  0.69824443433E+01  0.32714269191E+02  0.00000000000E+00 0.  1.
<mgrwt>
<rscale>  2 0.17593466E+03</rscale>
<asrwt>0</asrwt>
<pdfrwt beam="1">  1       21 0.28538381E-01 0.17605654E+03</pdfrwt>
<pdfrwt beam="2">  1       21 0.29754082E-01 0.17605654E+03</pdfrwt>
<totfact> 0.12788191E+05</totfact>
</mgrwt>
</event>
<event>
12    1  0.1039378E-001  0.2809266E+03  0.7546771E-02  0.1095253E+00
         21   -1    0    0  501  502  0.00000000000E+00  0.00000000000E+00  0.29533705732E+03  0.29533705732E+03  0.00000000000E+00 0.  1.
         21   -1    0    0  502  503 -0.00000000000E+00 -0.00000000000E+00 -0.27679249614E+03  0.27679249614E+03  0.00000000000E+00 0.  1.
         -6    2    1    2    0  503 -0.17248607921E+02 -0.22016204829E+03 -0.45247857427E+02  0.28454723140E+03  0.17364019210E+03 0.  0.
        -24    2    3    3    0    0  0.44867863355E+02 -0.93779576012E+02  0.14173760871E+02  0.13162893941E+03  0.79483005440E+02 0.  0.
          6    2    1    2  501    0  0.17248607921E+02  0.22016204829E+03  0.63792418598E+02  0.28758232206E+03  0.17281573224E+03 0.  0.
         24    2    5    5    0    0  0.32254553206E+02  0.95816087847E+02  0.90077390776E+02  0.15951950141E+03  0.84329449821E+02 0.  0.
          5    1    5    5  501    0 -0.15005945286E+02  0.12434596044E+03 -0.26284972178E+02  0.12806282066E+03  0.47000000000E+01 0. -1.
        -11    1    6    6    0    0  0.23203899873E+01  0.80297772495E+02  0.96116177631E+02  0.12526546244E+03  0.00000000000E+00 0.  1.
         12    1    6    6    0    0  0.29934163219E+02  0.15518315353E+02 -0.60387868548E+01  0.34254038969E+02  0.00000000000E+00 0. -1.
         -5    1    3    3    0  503 -0.62116471276E+02 -0.12638247228E+03 -0.59421618298E+02  0.15291829199E+03  0.47000000000E+01 0.  1.
         11    1    4    4    0    0  0.43903047511E+02 -0.35757314095E+02 -0.24706638454E+02  0.61777674573E+02  0.00000000000E+00 0. -1.
        -12    1    4    4    0    0  0.96481584468E+00 -0.58022261917E+02  0.38880399324E+02  0.69851264836E+02  0.00000000000E+00 0.  1.
<mgrwt>
<rscale>  2 0.28079931E+03</rscale>
<asrwt>0</asrwt>
<pdfrwt beam="1">  1       21 0.45436470E-01 0.28092661E+03</pdfrwt>
<pdfrwt beam="2">  1       21 0.42583461E-01 0.28092661E+03</pdfrwt>
<totfact> 0.23593151E+04</totfact>
</mgrwt>
</event>
<event>
12    1  0.1039378E-001  0.1995696E+03  0.7546771E-02  0.1150214E+00
         21   -1    0    0  501  502  0.00000000000E+00  0.00000000000E+00  0.27737856668E+02  0.27737856668E+02  0.00000000000E+00 0.  1.
         21   -1    0    0  502  503 -0.00000000000E+00 -0.00000000000E+00 -0.15737935099E+04  0.15737935099E+04  0.00000000000E+00 0. -1.
         -6    2    1    2    0  503 -0.69188306524E+02 -0.70878575799E+02 -0.10142246386E+04  0.10336728816E+04  0.17325476700E+03 0.  0.
        -24    2    3    3    0    0 -0.10962111337E+03 -0.62214255131E+02 -0.84244280438E+03  0.85692172630E+03  0.93367897685E+02 0.  0.
          6    2    1    2  501    0  0.69188306524E+02  0.70878575799E+02 -0.53183101465E+03  0.56785848501E+03  0.17265062001E+03 0.  0.
         24    2    5    5    0    0  0.55843061877E+02  0.10715396457E+03 -0.47927172903E+03  0.50244772222E+03  0.90287893030E+02 0.  0.
          5    1    5    5  501    0  0.13345244647E+02 -0.36275388769E+02 -0.52559285612E+02  0.65410762792E+02  0.47000000000E+01 0. -1.
        -13    1    6    6    0    0  0.47869501195E+01  0.79681188943E+02 -0.17025811884E+03  0.18804210644E+03  0.00000000000E+00 0.  1.
         14    1    6    6    0    0  0.51056111758E+02  0.27472775625E+02 -0.30901361020E+03  0.31440561578E+03  0.00000000000E+00 0. -1.
         -5    1    3    3    0  503  0.40432806844E+02 -0.86643206680E+01 -0.17178183421E+03  0.17675115527E+03  0.47000000000E+01 0.  1.
         13    1    4    4    0    0 -0.76381650898E+02 -0.81447771296E+02 -0.71973409466E+03  0.72834405541E+03  0.00000000000E+00 0. -1.
        -14    1    4    4    0    0 -0.33239462470E+02  0.19233516164E+02 -0.12270870972E+03  0.12857767089E+03  0.00000000000E+00 0.  1.
<mgrwt>
<rscale>  2 0.19943836E+03</rscale>
<asrwt>0</asrwt>
<pdfrwt beam="1">  1       21 0.42673615E-02 0.19956956E+03</pdfrwt>
<pdfrwt beam="2">  1       21 0.24212214E+00 0.19956956E+03</pdfrwt>
<totfact> 0.25867767E+04</totfact>
</mgrwt>
</event>
<event>
12    1  0.1039378E-001  0.2933401E+03  0.7546771E-02  0.1088707E+00
         21   -1    0    0  501  502  0.00000000000E+00  0.00000000000E+00  0.29330394999E+03  0.29330394999E+03  0.00000000000E+00 0. -1.
         21   -1    0    0  502  503 -0.00000000000E+00 -0.00000000000E+00 -0.45551024091E+03  0.45551024091E+03  0.00000000000E+00 0.  1.
         -6    2    1    2    0  503  0.17228971455E+02 -0.23528288219E+03  0.14280918555E+03  0.32563237250E+03  0.17316785624E+03 0.  0.
        -24    2    3    3    0    0  0.54224115863E+02 -0.53238003427E+02  0.16510029872E+02  0.10094916147E+03  0.64370896882E+02 0.  0.
          6    2    1    2  501    0 -0.17228971455E+02  0.23528288219E+03 -0.30501547647E+03  0.42318181839E+03  0.17433742692E+03 0.  0.
         24    2    5    5    0    0 -0.67871046375E+02  0.88396924965E+02 -0.12844963795E+03  0.18794217566E+03  0.80015352416E+02 0.  0.
          5    1    5    5  501    0  0.50642074920E+02  0.14688595723E+03 -0.17656583851E+03  0.23523964273E+03  0.47000000000E+01 0. -1.
        -13    1    6    6    0    0 -0.86259708750E+02  0.73338742766E+02 -0.10994919026E+03  0.15782310662E+03  0.00000000000E+00 0.  1.
         14    1    6    6    0    0  0.18388662375E+02  0.15058182200E+02 -0.18500447694E+02  0.30119069042E+02  0.00000000000E+00 0. -1.
         -5    1    3    3    0  503 -0.36995144407E+02 -0.18204487877E+03  0.12629915568E+03  0.22468321103E+03  0.47000000000E+01 0.  1.
         13    1    4    4    0    0  0.33650173282E+02 -0.65081587041E+02  0.22164834621E+02  0.76545587904E+02  0.00000000000E+00 0. -1.
        -14    1    4    4    0    0  0.20573942580E+02  0.11843583614E+02 -0.56548047489E+01  0.24403573568E+02  0.00000000000E+00 0.  1.
<mgrwt>
<rscale>  2 0.29316654E+03</rscale>
<asrwt>0</asrwt>
<pdfrwt beam="1">  1       21 0.45123685E-01 0.29334009E+03</pdfrwt>
<pdfrwt beam="2">  1       21 0.70078498E-01 0.29334009E+03</pdfrwt>
<totfact> 0.82061467E+03</totfact>
</mgrwt>
</event>
<event>
12    1  0.1039378E-001  0.1736382E+03  0.7546771E-02  0.1174136E+00
         21   -1    0    0  501  502  0.00000000000E+00  0.00000000000E+00  0.14476353472E+03  0.14476353472E+03  0.00000000000E+00 0.  1.
         21   -1    0    0  502  503 -0.00000000000E+00 -0.00000000000E+00 -0.20891054827E+03  0.20891054827E+03  0.00000000000E+00 0.  1.
         -6    2    1    2    0  503 -0.10246731422E+02  0.63830741040E+01 -0.21263452459E+02  0.17493529301E+03  0.17321802213E+03 0.  0.
        -24    2    3    3    0    0  0.48331880915E+02  0.37521067688E+02  0.79540438288E+01  0.10229384096E+03  0.81590206833E+02 0.  0.
          6    2    1    2  501    0  0.10246731422E+02 -0.63830741040E+01 -0.42883561086E+02  0.17873878998E+03  0.17309770678E+03 0.  0.
         24    2    5    5    0    0 -0.10860048596E+02 -0.68015000716E+02 -0.35588690103E+02  0.11301744121E+03  0.82233850558E+02 0.  0.
          5    1    5    5  501    0  0.21106780017E+02  0.61631926612E+02 -0.72948709831E+01  0.65721348764E+02  0.47000000000E+01 0. -1.
        -13    1    6    6    0    0  0.32640392413E+02 -0.47145588122E+02 -0.29200651961E+02  0.64348890987E+02  0.00000000000E+00 0.  1.
         14    1    6    6    0    0 -0.43500441009E+02 -0.20869412594E+02 -0.63880381412E+01  0.48668550228E+02  0.00000000000E+00 0. -1.
         -5    1    3    3    0  503 -0.58578612337E+02 -0.31137993584E+02 -0.29217496288E+02  0.72641452058E+02  0.47000000000E+01 0.  1.
         13    1    4    4    0    0  0.39863153354E+02  0.59241765567E+02 -0.11000782947E+02  0.72247318346E+02  0.00000000000E+00 0. -1.
        -14    1    4    4    0    0  0.84687275614E+01 -0.21720697879E+02  0.18954826776E+02  0.30046522610E+02  0.00000000000E+00 0.  1.
<mgrwt>
<rscale>  2 0.17360818E+03</rscale>
<asrwt>0</asrwt>
<pdfrwt beam="1">  1       21 0.22271313E-01 0.17363819E+03</pdfrwt>
<pdfrwt beam="2">  1       21 0.32140084E-01 0.17363819E+03</pdfrwt>
<totfact> 0.17665737E+05</totfact>
</mgrwt>
</event>
<event>
12    1  0.1039378E-001  0.2016887E+03  0.7546771E-02  0.1148576E+00
         21   -1    0    0  503  502  0.00000000000E+00  0.00000000000E+00  0.49952616150E+02  0.49952616150E+02  0.00000000000E+00 0.  1.
         21   -1    0    0  501  503 -0.00000000000E+00 -0.00000000000E+00 -0.81398384376E+03  0.81398384376E+03  0.00000000000E+00 0.  1.
          6    2    1    2  501    0  0.80812407354E+02  0.60817063258E+02 -0.34858745528E+03  0.40212281124E+03  0.17309009498E+03 0.  0.
         24    2    3    3    0    0  0.21279558815E+02  0.14265416443E+02 -0.30654331740E+03  0.31551440861E+03  0.70172750210E+02 0.  0.
         -6    2    1    2    0  502 -0.80812407354E+02 -0.60817063258E+02 -0.41544377233E+03  0.46181364867E+03  0.17449629726E+03 0.  0.
        -24    2    5    5    0    0 -0.87407049300E+02 -0.27357986955E+02 -0.40882058534E+03  0.42675718428E+03  0.81234054534E+02 0.  0.
          5    1    3    3  501    0  0.59532848539E+02  0.46551646815E+02 -0.42044137881E+02  0.86608402633E+02  0.47000000000E+01 0. -1.
        -13    1    4    4    0    0 -0.19950825007E+02  0.77028429874E+00 -0.33132910620E+02  0.38683569154E+02  0.00000000000E+00 0.  1.
         14    1    4    4    0    0  0.41230383821E+02  0.13495132144E+02 -0.27341040678E+03  0.27683083946E+03  0.00000000000E+00 0. -1.
         -5    1    5    5    0  502  0.65946419459E+01 -0.33459076303E+02 -0.66231869909E+01  0.35056464388E+02  0.47000000000E+01 0.  1.
         11    1    6    6    0    0 -0.16271589805E+02 -0.17473202948E+02 -0.19385439950E+02  0.30755044109E+02  0.00000000000E+00 0. -1.
        -12    1    6    6    0    0 -0.71135459495E+02 -0.98847840064E+01 -0.38943514539E+03  0.39600214017E+03  0.00000000000E+00 0.  1.
<mgrwt>
<rscale>  2 0.20138413E+03</rscale>
<asrwt>0</asrwt>
<pdfrwt beam="1">  1       21 0.76850188E-02 0.20168867E+03</pdfrwt>
<pdfrwt beam="2">  1       21 0.12522827E+00 0.20168867E+03</pdfrwt>
<totfact> 0.60821357E+04</totfact>
</mgrwt>
</event>
<event>
12    1  0.1039378E-001  0.1874394E+03  0.7546771E-02  0.1160935E+00
         21   -1    0    0  501  502  0.00000000000E+00  0.00000000000E+00  0.40803752940E+03  0.40803752940E+03  0.00000000000E+00 0.  1.
         21   -1    0    0  502  503 -0.00000000000E+00 -0.00000000000E+00 -0.81042484474E+03  0.81042484474E+03  0.00000000000E+00 0.  1.
         -6    2    1    2    0  503  0.42955028746E+02  0.57679839789E+02 -0.77723059269E+03  0.79936691771E+03  0.17241802834E+03 0.  0.
        -24    2    3    3    0    0  0.42141345805E+02  0.19855061145E+02 -0.73887163650E+03  0.74528479978E+03  0.85720598916E+02 0.  0.
          6    2    1    2  501    0 -0.42955028746E+02 -0.57679839789E+02  0.37484327736E+03  0.41909545643E+03  0.17309367583E+03 0.  0.
         24    2    5    5    0    0 -0.56813216184E+02 -0.10152319307E+03  0.29690616792E+03  0.32848324967E+03  0.78824314159E+02 0.  0.
          5    1    5    5  501    0  0.13858187439E+02  0.43843353285E+02  0.77937109439E+02  0.90612206761E+02  0.47000000000E+01 0. -1.
        -13    1    6    6    0    0 -0.24421601102E+02 -0.24576985884E+02  0.18848824375E+03  0.19164618667E+03  0.00000000000E+00 0.  1.
         14    1    6    6    0    0 -0.32391615083E+02 -0.76946207191E+02  0.10841792417E+03  0.13683706300E+03  0.00000000000E+00 0. -1.
         -5    1    3    3    0  503  0.81368294030E+00  0.37824778645E+02 -0.38358956189E+02  0.54082117926E+02  0.47000000000E+01 0.  1.
         13    1    4    4    0    0  0.41948590714E+02 -0.25471840578E+02 -0.28921073505E+03  0.29334510085E+03  0.00000000000E+00 0. -1.
        -14    1    4    4    0    0  0.19275509099E+00  0.45326901722E+02 -0.44966090145E+03  0.45193969893E+03  0.00000000000E+00 0.  1.
<mgrwt>
<rscale>  2 0.18728324E+03</rscale>
<asrwt>0</asrwt>
<pdfrwt beam="1">  1       21 0.62775005E-01 0.18743937E+03</pdfrwt>
<pdfrwt beam="2">  1       21 0.12468075E+00 0.18743937E+03</pdfrwt>
<totfact> 0.11345165E+03</totfact>
</mgrwt>
</event>
<event>
12    1  0.1039378E-001  0.1900507E+03  0.7546771E-02  0.1159935E+00
         21   -1    0    0  501  502  0.00000000000E+00  0.00000000000E+00  0.28623198480E+03  0.28623198480E+03  0.00000000000E+00 0. -1.
         21   -1    0    0  502  503 -0.00000000000E+00 -0.00000000000E+00 -0.12566748233E+03  0.12566748233E+03  0.00000000000E+00 0. -1.
         -6    2    1    2    0  503 -0.78785544064E+02  0.49712024627E+01  0.42945841289E+02  0.18839682428E+03  0.16558122873E+03 0.  0.
        -24    2    3    3    0    0 -0.66617372477E+02 -0.11485883108E+02  0.89363969702E+02  0.13744947193E+03  0.79603005142E+02 0.  0.
          6    2    1    2  501    0  0.78785544064E+02 -0.49712024627E+01  0.11761866118E+03  0.22350264285E+03  0.17287974750E+03 0.  0.
         24    2    5    5    0    0  0.90079174166E+02  0.52422391729E+02  0.69124216858E+02  0.14737530305E+03  0.77967671630E+02 0.  0.
          5    1    5    5  501    0 -0.11293630102E+02 -0.57393594192E+02  0.48494444323E+02  0.76127339802E+02  0.47000000000E+01 0. -1.
        -13    1    6    6    0    0 -0.10274052887E+02  0.23565484384E+02  0.12379029043E+02  0.28532938458E+02  0.00000000000E+00 0.  1.
         14    1    6    6    0    0  0.10035322705E+03  0.28856907345E+02  0.56745187815E+02  0.11884236459E+03  0.00000000000E+00 0. -1.
         -5    1    3    3    0  503 -0.12168171587E+02  0.16457085571E+02 -0.46418128413E+02  0.50947352342E+02  0.47000000000E+01 0.  1.
         11    1    4    4    0    0 -0.26081847823E+02 -0.35060232867E+02  0.93185960659E+01  0.44680185174E+02  0.00000000000E+00 0. -1.
        -12    1    4    4    0    0 -0.40535524653E+02  0.23574349759E+02  0.80045373636E+02  0.92769286761E+02  0.00000000000E+00 0.  1.
<mgrwt>
<rscale>  2 0.18837519E+03</rscale>
<asrwt>0</asrwt>
<pdfrwt beam="1">  1       21 0.44035690E-01 0.19005074E+03</pdfrwt>
<pdfrwt beam="2">  1       21 0.19333459E-01 0.19005074E+03</pdfrwt>
<totfact> 0.12192701E+05</totfact>
</mgrwt>
</event>
<event>
12    1  0.1039378E-001  0.2324224E+03  0.7546771E-02  0.1124965E+00
         21   -1    0    0  503  502  0.00000000000E+00  0.00000000000E+00  0.57624224395E+03  0.57624224395E+03  0.00000000000E+00 0. -1.
         21   -1    0    0  501  503 -0.00000000000E+00 -0.00000000000E+00 -0.93854696447E+02  0.93854696447E+02  0.00000000000E+00 0.  1.
          6    2    1    2  501    0  0.64716999914E+02  0.14148384715E+03  0.22769789915E+03  0.32537134383E+03  0.17266791546E+03 0.  0.
         24    2    3    3    0    0  0.10972499760E+03  0.11667665905E+03  0.18854471200E+03  0.26059342706E+03  0.81895103270E+02 0.  0.
         -6    2    1    2    0  502 -0.64716999914E+02 -0.14148384715E+03  0.25468964835E+03  0.34472559656E+03  0.17251942170E+03 0.  0.
        -24    2    5    5    0    0  0.27305523417E+02 -0.44566277233E+02  0.13121412226E+03  0.16271060898E+03  0.80782743943E+02 0.  0.
          5    1    3    3  501    0 -0.45007997688E+02  0.24807188099E+02  0.39153187148E+02  0.64777916770E+02  0.47000000000E+01 0. -1.
        -13    1    4    4    0    0  0.14760654794E+02 -0.11911864342E+02  0.12066459774E+02  0.22480411330E+02  0.00000000000E+00 0.  1.
         14    1    4    4    0    0  0.94964342808E+02  0.12858852339E+03  0.17647825222E+03  0.23811301573E+03  0.00000000000E+00 0. -1.
         -5    1    5    5    0  502 -0.92022523331E+02 -0.96917569918E+02  0.12347552609E+03  0.18201498757E+03  0.47000000000E+01 0.  1.
         13    1    6    6    0    0  0.11264829834E+02 -0.61189183182E+02  0.12361995816E+03  0.13839402655E+03  0.00000000000E+00 0. -1.
        -14    1    6    6    0    0  0.16040693583E+02  0.16622905948E+02  0.75941641041E+01  0.24316582433E+02  0.00000000000E+00 0.  1.
<mgrwt>
<rscale>  2 0.23239483E+03</rscale>
<asrwt>0</asrwt>
<pdfrwt beam="1">  1       21 0.88652651E-01 0.23242241E+03</pdfrwt>
<pdfrwt beam="2">  1       21 0.14439184E-01 0.23242241E+03</pdfrwt>
<totfact> 0.44852720E+04</totfact>
</mgrwt>
</event>
<event>
12    1  0.1039378E-001  0.1792200E+03  0.7546771E-02  0.1168766E+00
         21   -1    0    0  503  502  0.00000000000E+00  0.00000000000E+00  0.50165183336E+03  0.50165183336E+03  0.00000000000E+00 0.  1.
         21   -1    0    0  501  503 -0.00000000000E+00 -0.00000000000E+00 -0.63978857848E+02  0.63978857848E+02  0.00000000000E+00 0.  1.
          6    2    1    2  501    0 -0.43728956059E+02 -0.22470571355E+01  0.20057590863E+03  0.26841895277E+03  0.17291838600E+03 0.  0.
         24    2    3    3    0    0 -0.82305765638E+01 -0.22161272854E+02  0.21057568807E+03  0.22624317153E+03  0.79277915288E+02 0.  0.
         -6    2    1    2    0  502  0.43728956059E+02  0.22470571355E+01  0.23709706688E+03  0.29721173844E+03  0.17378874383E+03 0.  0.
        -24    2    5    5    0    0  0.25734840099E+02 -0.42128953503E+02  0.23051564559E+03  0.24864813442E+03  0.79065170404E+02 0.  0.
          5    1    3    3  501    0 -0.35498379495E+02  0.19914215718E+02 -0.99997794339E+01  0.42175781240E+02  0.47000000000E+01 0. -1.
        -11    1    4    4    0    0 -0.39382522373E+02 -0.14751116582E+02  0.16671515074E+03  0.17193754679E+03  0.00000000000E+00 0.  1.
         12    1    4    4    0    0  0.31151945810E+02 -0.74101562722E+01  0.43860537326E+02  0.54305624739E+02  0.00000000000E+00 0. -1.
         -5    1    5    5    0  502  0.17994115961E+02  0.44376010639E+02  0.65814212908E+01  0.48563604022E+02  0.47000000000E+01 0.  1.
         11    1    6    6    0    0 -0.20464020972E+00 -0.42827095867E+02  0.21318427294E+03  0.21744363924E+03  0.00000000000E+00 0. -1.
        -12    1    6    6    0    0  0.25939480308E+02  0.69814236421E+00  0.17331372651E+02  0.31204495179E+02  0.00000000000E+00 0.  1.
<mgrwt>
<rscale>  2 0.17900863E+03</rscale>
<asrwt>0</asrwt>
<pdfrwt beam="1">  1       21 0.77177203E-01 0.17921997E+03</pdfrwt>
<pdfrwt beam="2">  1       21 0.98429015E-02 0.17921997E+03</pdfrwt>
<totfact> 0.12504977E+05</totfact>
</mgrwt>
</event>
<event>
12    1  0.1039378E-001  0.1768896E+03  0.7546771E-02  0.1171604E+00
         21   -1    0    0  501  502  0.00000000000E+00  0.00000000000E+00  0.76973557054E+03  0.76973557054E+03  0.00000000000E+00 0. -1.
         21   -1    0    0  502  503 -0.00000000000E+00 -0.00000000000E+00 -0.50660032481E+02  0.50660032481E+02  0.00000000000E+00 0. -1.
         -6    2    1    2    0  503  0.20765137667E+02 -0.29801523205E+02  0.17345024463E+03  0.24773965093E+03  0.17312026327E+03 0.  0.
        -24    2    3    3    0    0  0.35619386579E+02 -0.46744674698E+02  0.29983141039E+02  0.10243783090E+03  0.78362715237E+02 0.  0.
          6    2    1    2  501    0 -0.20765137667E+02  0.29801523205E+02  0.54562529343E+03  0.57265595208E+03  0.17002516550E+03 0.  0.
         24    2    5    5    0    0 -0.70490885084E+02  0.46307535562E+02  0.43295617484E+03  0.44831159683E+03  0.80117949252E+02 0.  0.
          5    1    5    5  501    0  0.49725747417E+02 -0.16506012357E+02  0.11266911858E+03  0.12434435525E+03  0.47000000000E+01 0. -1.
        -13    1    6    6    0    0 -0.34284588985E+01 -0.18554150166E+02  0.37256451533E+02  0.41761872559E+02  0.00000000000E+00 0.  1.
         14    1    6    6    0    0 -0.67062426186E+02  0.64861685728E+02  0.39569972331E+03  0.40654972427E+03  0.00000000000E+00 0. -1.
         -5    1    3    3    0  503 -0.14854248912E+02  0.16943151493E+02  0.14346710359E+03  0.14530182004E+03  0.47000000000E+01 0.  1.
         13    1    4    4    0    0 -0.61446673988E-01 -0.50590769893E+02 -0.68026473223E+01  0.51046114295E+02  0.00000000000E+00 0. -1.
        -14    1    4    4    0    0  0.35680833253E+02  0.38460951946E+01  0.36785788361E+02  0.51391716601E+02  0.00000000000E+00 0.  1.
<mgrwt>
<rscale>  2 0.17612774E+03</rscale>
<asrwt>0</asrwt>
<pdfrwt beam="1">  1       21 0.11842085E+00 0.17688965E+03</pdfrwt>
<pdfrwt beam="2">  1       21 0.77938517E-02 0.17688965E+03</pdfrwt>
<totfact> 0.69049649E+04</totfact>
</mgrwt>
</event>
<event>
12    1  0.1039378E-001  0.2021702E+03  0.7546771E-02  0.1148994E+00
         21   -1    0    0  503  502  0.00000000000E+00  0.00000000000E+00  0.49042810526E+03  0.49042810526E+03  0.00000000000E+00 0. -1.
         21   -1    0    0  501  503 -0.00000000000E+00 -0.00000000000E+00 -0.12388308384E+03  0.12388308384E+03  0.00000000000E+00 0.  1.
          6    2    1    2  501    0  0.95539496485E+02  0.43003414238E+02  0.15765453021E+01  0.19708850982E+03  0.16692605004E+03 0.  0.
         24    2    3    3    0    0 -0.33063455586E+01  0.11926244892E+02 -0.22997313494E+02  0.90494628758E+02  0.86644296800E+02 0.  0.
         -6    2    1    2    0  502 -0.95539496485E+02 -0.43003414238E+02  0.36496847612E+03  0.41722267928E+03  0.17290369146E+03 0.  0.
        -24    2    5    5    0    0 -0.39794097779E+02 -0.88062245899E+02  0.20638654098E+03  0.24313026722E+03  0.84725398592E+02 0.  0.
          5    1    3    3  501    0  0.98845842043E+02  0.31077169347E+02  0.24573858796E+02  0.10659388106E+03  0.47000000000E+01 0. -1.
        -13    1    4    4    0    0 -0.12623772600E+02  0.48205580928E+02 -0.98333427001E+01  0.50792049535E+02  0.00000000000E+00 0.  1.
         14    1    4    4    0    0  0.93174270414E+01 -0.36279336037E+02 -0.13163970794E+02  0.39702579223E+02  0.00000000000E+00 0. -1.
         -5    1    5    5    0  502 -0.55745398706E+02  0.45058831661E+02  0.15858193513E+03  0.17409241206E+03  0.47000000000E+01 0.  1.
         11    1    6    6    0    0 -0.34787522682E+02 -0.61035345296E+02  0.20374509038E+03  0.21551692965E+03  0.00000000000E+00 0. -1.
        -12    1    6    6    0    0 -0.50065750973E+01 -0.27026900603E+02  0.26414506012E+01  0.27613337569E+02  0.00000000000E+00 0.  1.
<mgrwt>
<rscale>  2 0.20088599E+03</rscale>
<asrwt>0</asrwt>
<pdfrwt beam="1">  1       21 0.75450477E-01 0.20217016E+03</pdfrwt>
<pdfrwt beam="2">  1       21 0.19058936E-01 0.20217016E+03</pdfrwt>
<totfact> 0.39418081E+04</totfact>
</mgrwt>
</event>
<event>
12    1  0.1039378E-001  0.2142122E+03  0.7546771E-02  0.1138440E+00
         21   -1    0    0  501  502  0.00000000000E+00  0.00000000000E+00  0.17738670628E+03  0.17738670628E+03  0.00000000000E+00 0. -1.
         21   -1    0    0  502  503 -0.00000000000E+00 -0.00000000000E+00 -0.28916462327E+03  0.28916462327E+03  0.00000000000E+00 0. -1.
         -6    2    1    2    0  503 -0.93179249495E+02  0.82557677364E+02 -0.13301054950E+03  0.25214813520E+03  0.17432364491E+03 0.  0.
        -24    2    3    3    0    0 -0.66234304327E+02  0.11049932472E+03 -0.46710474827E+02  0.15740343288E+03  0.77439578966E+02 0.  0.
          6    2    1    2  501    0  0.93179249495E+02 -0.82557677364E+02  0.21232632513E+02  0.21440319435E+03  0.17326212061E+03 0.  0.
         24    2    5    5    0    0  0.12315992231E+03 -0.91261003297E+02  0.39713687802E+02  0.17782139520E+03  0.80909420980E+02 0.  0.
          5    1    5    5  501    0 -0.29980672818E+02  0.87033259331E+01 -0.18481055290E+02  0.36581799157E+02  0.47000000000E+01 0. -1.
        -11    1    6    6    0    0 -0.55703720380E+01  0.10663806029E+01 -0.10248226711E+02  0.11712914366E+02  0.00000000000E+00 0.  1.
         12    1    6    6    0    0  0.12873029435E+03 -0.92327383900E+02  0.49961914513E+02  0.16610848083E+03  0.00000000000E+00 0. -1.
         -5    1    3    3    0  503 -0.26944945169E+02 -0.27941647360E+02 -0.86300074676E+02  0.94744702313E+02  0.47000000000E+01 0.  1.
         13    1    4    4    0    0 -0.68580789646E+02  0.39636781988E+02 -0.20587987273E+02  0.81842925258E+02  0.00000000000E+00 0. -1.
        -14    1    4    4    0    0  0.23464853193E+01  0.70862542736E+02 -0.26122487554E+02  0.75560507624E+02  0.00000000000E+00 0.  1.
<mgrwt>
<rscale>  2 0.21399615E+03</rscale>
<asrwt>0</asrwt>
<pdfrwt beam="1">  1       21 0.27290263E-01 0.21421222E+03</pdfrwt>
<pdfrwt beam="2">  1       21 0.44486865E-01 0.21421222E+03</pdfrwt>
<totfact> 0.61506925E+04</totfact>
</mgrwt>
</event>
<event>
12    1  0.1039378E-001  0.2497786E+03  0.7546771E-02  0.1113519E+00
         21   -1    0    0  501  502  0.00000000000E+00  0.00000000000E+00  0.60251693850E+03  0.60251693850E+03  0.00000000000E+00 0.  1.
         21   -1    0    0  502  503 -0.00000000000E+00 -0.00000000000E+00 -0.10583478693E+03  0.10583478693E+03  0.00000000000E+00 0. -1.
         -6    2    1    2    0  503 -0.12815979882E+03  0.12813682307E+03  0.19434443515E+03  0.31647926137E+03  0.17188770736E+03 0.  0.
        -24    2    3    3    0    0 -0.65902422259E+02  0.10749539924E+03  0.50468733296E+02  0.15828837383E+03  0.81300222221E+02 0.  0.
          6    2    1    2  501    0  0.12815979882E+03 -0.12813682307E+03  0.30233771641E+03  0.39187246406E+03  0.17120734173E+03 0.  0.
         24    2    5    5    0    0  0.95587420352E+02 -0.14640716011E+03  0.17908872251E+03  0.26300365653E+03  0.80784536646E+02 0.  0.
          5    1    5    5  501    0  0.32572378465E+02  0.18270337037E+02  0.12324899391E+03  0.12886880753E+03  0.47000000000E+01 0. -1.
        -11    1    6    6    0    0  0.47123353842E+02 -0.53212574761E+02  0.12750517229E+03  0.14597862018E+03  0.00000000000E+00 0.  1.
         12    1    6    6    0    0  0.48464066510E+02 -0.93194585345E+02  0.51583550222E+02  0.11702503635E+03  0.00000000000E+00 0. -1.
         -5    1    3    3    0  503 -0.62257376558E+02  0.20641423834E+02  0.14387570186E+03  0.15819088753E+03  0.47000000000E+01 0.  1.
         11    1    4    4    0    0 -0.23925803770E+02  0.49122797062E+02 -0.19450408527E+02  0.57998376436E+02  0.00000000000E+00 0. -1.
        -12    1    4    4    0    0 -0.41976618489E+02  0.58372602173E+02  0.69919141823E+02  0.10028999740E+03  0.00000000000E+00 0.  1.
<mgrwt>
<rscale>  2 0.24966162E+03</rscale>
<asrwt>0</asrwt>
<pdfrwt beam="1">  1       21 0.92694912E-01 0.24977863E+03</pdfrwt>
<pdfrwt beam="2">  1       21 0.16282275E-01 0.24977863E+03</pdfrwt>
<totfact> 0.32178731E+04</totfact>
</mgrwt>
</event>
<event>
12    1  0.1039378E-001  0.1830647E+03  0.7546771E-02  0.1164981E+00
         21   -1    0    0  503  502  0.00000000000E+00  0.00000000000E+00  0.13258349003E+03  0.13258349003E+03  0.00000000000E+00 0.  1.
         21   -1    0    0  501  503 -0.00000000000E+00 -0.00000000000E+00 -0.26526941925E+03  0.26526941925E+03  0.00000000000E+00 0.  1.
          6    2    1    2  501    0  0.56706398021E+02 -0.16179583427E+02 -0.22130544840E+02  0.18439753696E+03  0.17330694194E+03 0.  0.
         24    2    3    3    0    0 -0.20734727144E+01 -0.19043583136E+02 -0.65619865698E+02  0.11107164299E+03  0.87544193150E+02 0.  0.
         -6    2    1    2    0  502 -0.56706398021E+02  0.16179583427E+02 -0.11055538438E+03  0.21345537232E+03  0.17281003576E+03 0.  0.
        -24    2    5    5    0    0 -0.98277351474E+02 -0.50990839934E+01 -0.49898340864E+02  0.13675926559E+03  0.80801075702E+02 0.  0.
          5    1    3    3  501    0  0.58779870735E+02  0.28639997090E+01  0.43489320858E+02  0.73325893972E+02  0.47000000000E+01 0. -1.
        -11    1    4    4    0    0  0.27412467827E+02 -0.43299355381E+02 -0.41137444056E+02  0.65715803824E+02  0.00000000000E+00 0.  1.
         12    1    4    4    0    0 -0.29485940542E+02  0.24255772246E+02 -0.24482421642E+02  0.45355839165E+02  0.00000000000E+00 0. -1.
         -5    1    5    5    0  502  0.41570953453E+02  0.21278667420E+02 -0.60657043516E+02  0.76696106722E+02  0.47000000000E+01 0.  1.
         13    1    6    6    0    0  0.10069588095E+02  0.52719254263E+01 -0.21426790211E+02  0.24254837473E+02  0.00000000000E+00 0. -1.
        -14    1    6    6    0    0 -0.10834693957E+03 -0.10371009420E+02 -0.28471550653E+02  0.11250442812E+03  0.00000000000E+00 0.  1.
<mgrwt>
<rscale>  2 0.18294702E+03</rscale>
<asrwt>0</asrwt>
<pdfrwt beam="1">  1       21 0.20397460E-01 0.18306472E+03</pdfrwt>
<pdfrwt beam="2">  1       21 0.40810679E-01 0.18306472E+03</pdfrwt>
<totfact> 0.12910856E+05</totfact>
</mgrwt>
</event>
<event>
12    1  0.1039378E-001  0.2642387E+03  0.7546771E-02  0.1104654E+00
         21   -1    0    0  501  502  0.00000000000E+00  0.00000000000E+00  0.62120734861E+02  0.62120734861E+02  0.00000000000E+00 0. -1.
         21   -1    0    0  502  503 -0.00000000000E+00 -0.00000000000E+00 -0.12686291037E+04  0.12686291037E+04  0.00000000000E+00 0. -1.
         -6    2    1    2    0  503 -0.18817286958E+03  0.66774227832E+02 -0.82884153979E+03  0.86994273785E+03  0.17307294042E+03 0.  0.
        -24    2    3    3    0    0 -0.18903290181E+03  0.10729711522E+02 -0.68741176331E+03  0.71773827293E+03  0.82247987368E+02 0.  0.
          6    2    1    2  501    0  0.18817286958E+03 -0.66774227832E+02 -0.37766682900E+03  0.46080710067E+03  0.17275162502E+03 0.  0.
         24    2    5    5    0    0  0.21116887221E+03 -0.50302574475E+02 -0.35665410232E+03  0.42525775209E+03  0.80742587450E+02 0.  0.
          5    1    5    5  501    0 -0.22996002628E+02 -0.16471653357E+02 -0.21012726683E+02  0.35549348571E+02  0.47000000000E+01 0. -1.
        -13    1    6    6    0    0  0.83054262286E+02 -0.27100665477E+02 -0.21900628362E+03  0.23578848322E+03  0.00000000000E+00 0.  1.
         14    1    6    6    0    0  0.12811460992E+03 -0.23201908998E+02 -0.13764781870E+03  0.18946926888E+03  0.00000000000E+00 0. -1.
         -5    1    3    3    0  503  0.86003222928E+00  0.56044516310E+02 -0.14142977649E+03  0.15220446492E+03  0.47000000000E+01 0.  1.
         13    1    4    4    0    0 -0.71081144745E+02  0.20160192776E+02 -0.14699755200E+03  0.16452125335E+03  0.00000000000E+00 0. -1.
        -14    1    4    4    0    0 -0.11795175706E+03 -0.94304812535E+01 -0.54041421131E+03  0.55321701958E+03  0.00000000000E+00 0.  1.
<mgrwt>
<rscale>  2 0.26418606E+03</rscale>
<asrwt>0</asrwt>
<pdfrwt beam="1">  1       21 0.95570359E-02 0.26423866E+03</pdfrwt>
<pdfrwt beam="2">  1       21 0.19517371E+00 0.26423866E+03</pdfrwt>
<totfact> 0.12054257E+04</totfact>
</mgrwt>
</event>
<event>
12    1  0.1039378E-001  0.1844359E+03  0.7546771E-02  0.1164003E+00
         21   -1    0    0  503  502  0.00000000000E+00  0.00000000000E+00  0.55019056361E+03  0.55019056361E+03  0.00000000000E+00 0. -1.
         21   -1    0    0  501  503 -0.00000000000E+00 -0.00000000000E+00 -0.85958774991E+02  0.85958774991E+02  0.00000000000E+00 0.  1.
          6    2    1    2  501    0  0.16591566745E+02 -0.58524813779E+02  0.60676663685E+02  0.19244520784E+03  0.17220065793E+03 0.  0.
         24    2    3    3    0    0  0.64073108499E+02 -0.51880807178E+02  0.26716414223E+00  0.11517919160E+03  0.80431296240E+02 0.  0.
         -6    2    1    2    0  502 -0.16591566745E+02  0.58524813779E+02  0.40355512494E+03  0.44370413076E+03  0.17411542975E+03 0.  0.
        -24    2    5    5    0    0  0.23258128770E+02  0.13453177518E+02  0.35899804205E+03  0.36869163672E+03  0.79573866607E+02 0.  0.
          5    1    3    3  501    0 -0.47481541753E+02 -0.66440066011E+01  0.60409499543E+02  0.77266016243E+02  0.47000000000E+01 0. -1.
        -11    1    4    4    0    0  0.57341553552E+01 -0.56376105908E+02  0.97993157737E-01  0.56667057958E+02  0.00000000000E+00 0.  1.
         12    1    4    4    0    0  0.58338953144E+02  0.44952987295E+01  0.16917098449E+00  0.58512133642E+02  0.00000000000E+00 0. -1.
         -5    1    5    5    0  502 -0.39849695515E+02  0.45071636261E+02  0.44557082885E+02  0.75012494047E+02  0.47000000000E+01 0.  1.
         11    1    6    6    0    0 -0.11717133322E+02  0.38770776888E+02  0.15803765066E+03  0.16314522175E+03  0.00000000000E+00 0. -1.
        -12    1    6    6    0    0  0.34975262091E+02 -0.25317599370E+02  0.20096039140E+03  0.20554641497E+03  0.00000000000E+00 0.  1.
<mgrwt>
<rscale>  2 0.18398264E+03</rscale>
<asrwt>0</asrwt>
<pdfrwt beam="1">  1       21 0.84644700E-01 0.18443594E+03</pdfrwt>
<pdfrwt beam="2">  1       21 0.13224427E-01 0.18443594E+03</pdfrwt>
<totfact> 0.59853315E+04</totfact>
</mgrwt>
</event>
<event>
12    1  0.1039378E-001  0.1870840E+03  0.7546771E-02  0.1163158E+00
         21   -1    0    0  501  502  0.00000000000E+00  0.00000000000E+00  0.45843293201E+02  0.45843293201E+02  0.00000000000E+00 0. -1.
         21   -1    0    0  502  503 -0.00000000000E+00 -0.00000000000E+00 -0.87764843648E+03  0.87764843648E+03  0.00000000000E+00 0. -1.
         -6    2    1    2    0  503 -0.65810845399E+02  0.30153255970E+02 -0.61429871761E+03  0.64215523788E+03  0.17251130068E+03 0.  0.
        -24    2    3    3    0    0 -0.10237108346E+03  0.50753221619E+02 -0.40131130366E+03  0.42502224156E+03  0.80854283363E+02 0.  0.
          6    2    1    2  501    0  0.65810845399E+02 -0.30153255970E+02 -0.21750642567E+03  0.28133649180E+03  0.16309779334E+03 0.  0.
         24    2    5    5    0    0 -0.18141958039E+02  0.85156579843E+01 -0.82625736118E+02  0.11775700493E+03  0.81474246656E+02 0.  0.
          5    1    5    5  501    0  0.83952803439E+02 -0.38668913955E+02 -0.13488068955E+03  0.16357948687E+03  0.47000000000E+01 0. -1.
        -13    1    6    6    0    0 -0.50576045826E+01  0.37932541626E+02 -0.11945256835E+02  0.40089228468E+02  0.00000000000E+00 0.  1.
         14    1    6    6    0    0 -0.13084353457E+02 -0.29416883641E+02 -0.70680479284E+02  0.77667776460E+02  0.00000000000E+00 0. -1.
         -5    1    3    3    0  503  0.36560238064E+02 -0.20599965649E+02 -0.21298741395E+03  0.21713299632E+03  0.47000000000E+01 0.  1.
         11    1    4    4    0    0 -0.84900618523E+02 -0.14092703513E+01 -0.23780189623E+03  0.25250711459E+03  0.00000000000E+00 0. -1.
        -12    1    4    4    0    0 -0.17470464941E+02  0.52162491971E+02 -0.16350940743E+03  0.17251512697E+03  0.00000000000E+00 0.  1.
<mgrwt>
<rscale>  2 0.18488479E+03</rscale>
<asrwt>0</asrwt>
<pdfrwt beam="1">  1       21 0.70528156E-02 0.18708403E+03</pdfrwt>
<pdfrwt beam="2">  1       21 0.13502281E+00 0.18708403E+03</pdfrwt>
<totfact> 0.58799437E+04</totfact>
</mgrwt>
</event>
<event>
12    1  0.1039378E-001  0.3248576E+03  0.7546771E-02  0.1073485E+00
         21   -1    0    0  501  502  0.00000000000E+00  0.00000000000E+00  0.80581755793E+03  0.80581755793E+03  0.00000000000E+00 0.  1.
         21   -1    0    0  502  503 -0.00000000000E+00 -0.00000000000E+00 -0.42584301957E+03  0.42584301957E+03  0.00000000000E+00 0. -1.
         -6    2    1    2    0  503  0.27285062037E+03 -0.34527377584E+02 -0.32258601343E+03  0.45781460338E+03  0.17289555855E+03 0.  0.
        -24    2    3    3    0    0  0.72070196741E+02 -0.16057270558E+02 -0.52145760760E+02  0.12045138127E+03  0.79607824294E+02 0.  0.
          6    2    1    2  501    0 -0.27285062037E+03  0.34527377584E+02  0.70256055178E+03  0.77384597412E+03  0.17206586503E+03 0.  0.
         24    2    5    5    0    0 -0.17794959766E+03  0.55718118423E+02  0.59587455874E+03  0.62941868197E+03  0.79566446607E+02 0.  0.
          5    1    5    5  501    0 -0.94901022711E+02 -0.21190740839E+02  0.10668599304E+03  0.14442729216E+03  0.47000000000E+01 0. -1.
        -13    1    6    6    0    0 -0.11645849372E+03  0.73510326204E+02  0.37659124300E+03  0.40098293370E+03  0.00000000000E+00 0.  1.
         14    1    6    6    0    0 -0.61491103939E+02 -0.17792207781E+02  0.21928331574E+03  0.22843574826E+03  0.00000000000E+00 0. -1.
         -5    1    3    3    0  503  0.20078042363E+03 -0.18470107027E+02 -0.27044025266E+03  0.33736322210E+03  0.47000000000E+01 0.  1.
         13    1    4    4    0    0  0.12831329415E+02  0.28092291247E+02 -0.30638760129E+02  0.43503487955E+02  0.00000000000E+00 0. -1.
        -14    1    4    4    0    0  0.59238867326E+02 -0.44149561804E+02 -0.21507000632E+02  0.76947893316E+02  0.00000000000E+00 0.  1.
<mgrwt>
<rscale>  2 0.32474736E+03</rscale>
<asrwt>0</asrwt>
<pdfrwt beam="1">  1       21 0.12397193E+00 0.32485762E+03</pdfrwt>
<pdfrwt beam="2">  1       21 0.65514311E-01 0.32485762E+03</pdfrwt>
<totfact> 0.94019898E+02</totfact>
</mgrwt>
</event>
<event>
12    1  0.1039378E-001  0.1801472E+03  0.7546771E-02  0.1167699E+00
         21   -1    0    0  501  502  0.00000000000E+00  0.00000000000E+00  0.71197972229E+03  0.71197972229E+03  0.00000000000E+00 0. -1.
         21   -1    0    0  502  503 -0.00000000000E+00 -0.00000000000E+00 -0.19981715606E+03  0.19981715606E+03  0.00000000000E+00 0. -1.
         -6    2    1    2    0  503  0.48151079968E+02 -0.40393673766E+01 -0.14453512499E+03  0.23083810003E+03  0.17338103437E+03 0.  0.
        -24    2    3    3    0    0  0.16027599396E+02 -0.69011813686E+02 -0.90937412925E+02  0.14057104335E+03  0.80443090369E+02 0.  0.
          6    2    1    2  501    0 -0.48151079968E+02  0.40393673766E+01  0.65669769122E+03  0.68095877831E+03  0.17354583578E+03 0.  0.
         24    2    5    5    0    0 -0.78560395502E+02 -0.25670162585E+02  0.29169722562E+03  0.31346073406E+03  0.79622028200E+02 0.  0.
          5    1    5    5  501    0  0.30409315535E+02  0.29709529962E+02  0.36500046560E+03  0.36749804425E+03  0.47000000000E+01 0. -1.
        -13    1    6    6    0    0  0.26521252437E+01 -0.27257879340E+02  0.12578142314E+03  0.12872836580E+03  0.00000000000E+00 0.  1.
         14    1    6    6    0    0 -0.81212520746E+02  0.15877167543E+01  0.16591580248E+03  0.18473236826E+03  0.00000000000E+00 0. -1.
         -5    1    3    3    0  503  0.32123480571E+02  0.64972446310E+02 -0.53597712063E+02  0.90267056681E+02  0.47000000000E+01 0.  1.
         11    1    4    4    0    0 -0.10274954758E+02 -0.47763077534E+02 -0.94689395430E+02  0.10655030679E+03  0.00000000000E+00 0. -1.
        -12    1    4    4    0    0  0.26302554155E+02 -0.21248736152E+02  0.37519825044E+01  0.34020736556E+02  0.00000000000E+00 0.  1.
<mgrwt>
<rscale>  2 0.18010746E+03</rscale>
<asrwt>0</asrwt>
<pdfrwt beam="1">  1       21 0.10953534E+00 0.18014716E+03</pdfrwt>
<pdfrwt beam="2">  1       21 0.30741101E-01 0.18014716E+03</pdfrwt>
<totfact> 0.67692789E+03</totfact>
</mgrwt>
</event>
<event>
12    1  0.1039378E-001  0.2366751E+03  0.7546771E-02  0.1122057E+00
         21   -1    0    0  501  502  0.00000000000E+00  0.00000000000E+00  0.77922136470E+03  0.77922136470E+03  0.00000000000E+00 0. -1.
         21   -1    0    0  502  503 -0.00000000000E+00 -0.00000000000E+00 -0.93015036269E+02  0.93015036269E+02  0.00000000000E+00 0. -1.
         -6    2    1    2    0  503  0.81056476066E+02 -0.14079818664E+03  0.13508258824E+03  0.27251129967E+03  0.17210700489E+03 0.  0.
        -24    2    3    3    0    0 -0.17912600654E+01 -0.79211857201E+02  0.16434145213E+02  0.11517037560E+03  0.81953690295E+02 0.  0.
          6    2    1    2  501    0 -0.81056476066E+02  0.14079818664E+03  0.55112374019E+03  0.59972510130E+03  0.17186779353E+03 0.  0.
         24    2    5    5    0    0 -0.11019305722E+03  0.67418716296E+02  0.41903032994E+03  0.44576326817E+03  0.80191524949E+02 0.  0.
          5    1    5    5  501    0  0.29136581149E+02  0.73379470340E+02  0.13209341025E+03  0.15396183312E+03  0.47000000000E+01 0. -1.
        -11    1    6    6    0    0 -0.67833922900E+02  0.39478844275E+02  0.12654101986E+03  0.14890483521E+03  0.00000000000E+00 0.  1.
         12    1    6    6    0    0 -0.42359134315E+02  0.27939872021E+02  0.29248931008E+03  0.29685843296E+03  0.00000000000E+00 0. -1.
         -5    1    3    3    0  503  0.82847736131E+02 -0.61586329434E+02  0.11864844303E+03  0.15734092407E+03  0.47000000000E+01 0.  1.
         11    1    4    4    0    0 -0.34314406731E+02 -0.20761859840E+02  0.25712170521E+02  0.47640833811E+02  0.00000000000E+00 0. -1.
        -12    1    4    4    0    0  0.32523146665E+02 -0.58449997362E+02 -0.92780253081E+01  0.67529541789E+02  0.00000000000E+00 0.  1.
<mgrwt>
<rscale>  2 0.23663161E+03</rscale>
<asrwt>0</asrwt>
<pdfrwt beam="1">  1       21 0.11988021E+00 0.23667510E+03</pdfrwt>
<pdfrwt beam="2">  1       21 0.14310006E-01 0.23667510E+03</pdfrwt>
<totfact> 0.22046997E+04</totfact>
</mgrwt>
</event>
<event>
12    1  0.1039378E-001  0.2558124E+03  0.7546771E-02  0.1110296E+00
         21   -1    0    0  503  502  0.00000000000E+00  0.00000000000E+00  0.27326939430E+03  0.27326939430E+03  0.00000000000E+00 0.  1.
         21   -1    0    0  501  503 -0.00000000000E+00 -0.00000000000E+00 -0.28945351966E+03  0.28945351966E+03  0.00000000000E+00 0.  1.
          6    2    1    2  501    0  0.43682578420E+02  0.18337305048E+03 -0.12928832232E+03  0.28662768920E+03  0.17293385621E+03 0.  0.
         24    2    3    3    0    0 -0.37385677514E+02  0.11420865405E+03 -0.48274769240E+02  0.15268344095E+03  0.80873198610E+02 0.  0.
         -6    2    1    2    0  502 -0.43682578420E+02 -0.18337305048E+03  0.11310419696E+03  0.27609522476E+03  0.16703942787E+03 0.  0.
        -24    2    5    5    0    0 -0.75764404705E+02 -0.70072161647E+02  0.81048730593E+02  0.15396423806E+03  0.80534073606E+02 0.  0.
          5    1    3    3  501    0  0.81068255934E+02  0.69164396432E+02 -0.81013553085E+02  0.13394424824E+03  0.47000000000E+01 0. -1.
        -13    1    4    4    0    0  0.56193719348E+01  0.64289919462E+02  0.92777758287E+01  0.65198529199E+02  0.00000000000E+00 0.  1.
         14    1    4    4    0    0 -0.43005049449E+02  0.49918734585E+02 -0.57552545068E+02  0.87484911754E+02  0.00000000000E+00 0. -1.
         -5    1    5    5    0  502  0.32081826285E+02 -0.11330088883E+03  0.32055466372E+02  0.12213098670E+03  0.47000000000E+01 0.  1.
         11    1    6    6    0    0 -0.27941939460E+02 -0.11324816916E+00 -0.99097305721E+01  0.29647387169E+02  0.00000000000E+00 0. -1.
        -12    1    6    6    0    0 -0.47822465245E+02 -0.69958913478E+02  0.90958461165E+02  0.12431685089E+03  0.00000000000E+00 0.  1.
<mgrwt>
<rscale>  2 0.25481977E+03</rscale>
<asrwt>0</asrwt>
<pdfrwt beam="1">  1       21 0.42041445E-01 0.25581236E+03</pdfrwt>
<pdfrwt beam="2">  1       21 0.44531311E-01 0.25581236E+03</pdfrwt>
<totfact> 0.25526122E+04</totfact>
</mgrwt>
</event>
<event>
12    1  0.1039378E-001  0.2311761E+03  0.7546771E-02  0.1125879E+00
         21   -1    0    0  501  502  0.00000000000E+00  0.00000000000E+00  0.49406430431E+03  0.49406430431E+03  0.00000000000E+00 0.  1.
         21   -1    0    0  502  503 -0.00000000000E+00 -0.00000000000E+00 -0.10931856099E+03  0.10931856099E+03  0.00000000000E+00 0.  1.
         -6    2    1    2    0  503  0.15090544592E+03 -0.24164598768E+02  0.15936593759E+03  0.28078440669E+03  0.17345316237E+03 0.  0.
        -24    2    3    3    0    0  0.11608493958E+03 -0.10515705297E+02  0.28148416974E+02  0.14426009504E+03  0.80201922599E+02 0.  0.
          6    2    1    2  501    0 -0.15090544592E+03  0.24164598768E+02  0.22537980574E+03  0.32259845861E+03  0.17296626035E+03 0.  0.
         24    2    5    5    0    0 -0.16389479125E+03  0.14673412413E+02  0.12705205541E+03  0.22285257050E+03  0.80275972497E+02 0.  0.
          5    1    5    5  501    0  0.12989345338E+02  0.94911863550E+01  0.98327750327E+02  0.99745888111E+02  0.47000000000E+01 0. -1.
        -13    1    6    6    0    0 -0.88080208492E+02 -0.18463845572E+02  0.10280979736E+03  0.13663415076E+03  0.00000000000E+00 0.  1.
         14    1    6    6    0    0 -0.75814582763E+02  0.33137257985E+02  0.24242258054E+02  0.86218419736E+02  0.00000000000E+00 0. -1.
         -5    1    3    3    0  503  0.34820506338E+02 -0.13648893471E+02  0.13121752062E+03  0.13652431165E+03  0.47000000000E+01 0.  1.
         13    1    4    4    0    0  0.70052066856E+02  0.26008994530E+02 -0.81854332469E+01  0.75171545047E+02  0.00000000000E+00 0. -1.
        -14    1    4    4    0    0  0.46032872723E+02 -0.36524699828E+02  0.36333850221E+02  0.69088549996E+02  0.00000000000E+00 0.  1.
<mgrwt>
<rscale>  2 0.23108475E+03</rscale>
<asrwt>0</asrwt>
<pdfrwt beam="1">  1       21 0.76009892E-01 0.23117608E+03</pdfrwt>
<pdfrwt beam="2">  1       21 0.16818240E-01 0.23117608E+03</pdfrwt>
<totfact> 0.48207789E+04</totfact>
</mgrwt>
</event>
<event>
12    1  0.1039378E-001  0.2536967E+03  0.7546771E-02  0.1111237E+00
         21   -1    0    0  501  502  0.00000000000E+00  0.00000000000E+00  0.94435297455E+02  0.94435297455E+02  0.00000000000E+00 0. -1.
         21   -1    0    0  502  503 -0.00000000000E+00 -0.00000000000E+00 -0.72065960695E+03  0.72065960695E+03  0.00000000000E+00 0. -1.
         -6    2    1    2    0  503  0.17409263483E+03 -0.60148236992E+02 -0.41215646642E+03  0.48315057764E+03  0.17214956272E+03 0.  0.
        -24    2    3    3    0    0  0.13087130202E+03 -0.52842568186E+02 -0.16268188614E+03  0.22981066248E+03  0.80174246531E+02 0.  0.
          6    2    1    2  501    0 -0.17409263483E+03  0.60148236992E+02 -0.21406784308E+03  0.33194432677E+03  0.17445898864E+03 0.  0.
         24    2    5    5    0    0 -0.74086841902E+02 -0.28921355875E+02 -0.58533775974E+02  0.12664579530E+03  0.79294700760E+02 0.  0.
          5    1    5    5  501    0 -0.10000579293E+03  0.89069592867E+02 -0.15553406710E+03  0.20529853147E+03  0.47000000000E+01 0. -1.
        -13    1    6    6    0    0 -0.55907415904E+02 -0.52360851283E+02 -0.59460346330E+02  0.96968194197E+02  0.00000000000E+00 0.  1.
         14    1    6    6    0    0 -0.18179425998E+02  0.23439495408E+02  0.92657035613E+00  0.29677601102E+02  0.00000000000E+00 0. -1.
         -5    1    3    3    0  503  0.43221332810E+02 -0.73056688057E+01 -0.24947458028E+03  0.25333991515E+03  0.47000000000E+01 0.  1.
         13    1    4    4    0    0  0.11986154994E+03 -0.20080194665E+02 -0.96641494996E+02  0.15527261165E+03  0.00000000000E+00 0. -1.
        -14    1    4    4    0    0  0.11009752077E+02 -0.32762373521E+02 -0.66040391148E+02  0.74538050837E+02  0.00000000000E+00 0.  1.
<mgrwt>
<rscale>  2 0.25330009E+03</rscale>
<asrwt>0</asrwt>
<pdfrwt beam="1">  1       21 0.14528507E-01 0.25369666E+03</pdfrwt>
<pdfrwt beam="2">  1       21 0.11087071E+00 0.25369666E+03</pdfrwt>
<totfact> 0.25773641E+04</totfact>
</mgrwt>
</event>
<event>
12    1  0.1039378E-001  0.1757347E+03  0.7546771E-02  0.1172681E+00
         21   -1    0    0  501  502  0.00000000000E+00  0.00000000000E+00  0.63832698133E+03  0.63832698133E+03  0.00000000000E+00 0. -1.
         21   -1    0    0  502  503 -0.00000000000E+00 -0.00000000000E+00 -0.67681884978E+02  0.67681884978E+02  0.00000000000E+00 0. -1.
         -6    2    1    2    0  503 -0.27531354510E+02 -0.89270755453E+01  0.91636385973E+02  0.19578143086E+03  0.17057395251E+03 0.  0.
        -24    2    3    3    0    0  0.52837603645E+01  0.51220706737E+02  0.21356225569E+02  0.97516592669E+02  0.80011990058E+02 0.  0.
          6    2    1    2  501    0  0.27531354510E+02  0.89270755453E+01  0.47900871038E+03  0.51022743545E+03  0.17333500255E+03 0.  0.
         24    2    5    5    0    0  0.20453703938E+02  0.55724449129E+02  0.43041052286E+03  0.44222772117E+03  0.82392784566E+02 0.  0.
          5    1    5    5  501    0  0.70776505725E+01 -0.46797373583E+02  0.48598187517E+02  0.67999714278E+02  0.47000000000E+01 0. -1.
        -11    1    6    6    0    0  0.37620465392E+02 -0.62013312614E+00  0.23949235210E+03  0.24242992946E+03  0.00000000000E+00 0.  1.
         12    1    6    6    0    0 -0.17166761454E+02  0.56344582255E+02  0.19091817076E+03  0.19979779172E+03  0.00000000000E+00 0. -1.
         -5    1    3    3    0  503 -0.32815114875E+02 -0.60147782283E+02  0.70280160403E+02  0.98264838188E+02  0.47000000000E+01 0.  1.
         11    1    4    4    0    0  0.29597011334E+02  0.52932048132E+01 -0.15481377801E+02  0.33818251814E+02  0.00000000000E+00 0. -1.
        -12    1    4    4    0    0 -0.24313250970E+02  0.45927501924E+02  0.36837603370E+02  0.63698340856E+02  0.00000000000E+00 0.  1.
<mgrwt>
<rscale>  2 0.17505004E+03</rscale>
<asrwt>0</asrwt>
<pdfrwt beam="1">  1       21 0.98204147E-01 0.17573472E+03</pdfrwt>
<pdfrwt beam="2">  1       21 0.10412598E-01 0.17573472E+03</pdfrwt>
<totfact> 0.65247062E+04</totfact>
</mgrwt>
</event>
<event>
12    1  0.1039378E-001  0.1898880E+03  0.7546771E-02  0.1159036E+00
         21   -1    0    0  501  502  0.00000000000E+00  0.00000000000E+00  0.29323801164E+02  0.29323801164E+02  0.00000000000E+00 0.  1.
         21   -1    0    0  502  503 -0.00000000000E+00 -0.00000000000E+00 -0.12447119280E+04  0.12447119280E+04  0.00000000000E+00 0. -1.
         -6    2    1    2    0  503 -0.69467829049E+02 -0.13646828424E+02 -0.70747614492E+03  0.73251616595E+03  0.17619711279E+03 0.  0.
        -24    2    3    3    0    0  0.30513285796E+02  0.15988764967E+02 -0.28318386601E+03  0.29557163897E+03  0.77348500817E+02 0.  0.
          6    2    1    2  501    0  0.69467829049E+02  0.13646828424E+02 -0.50791198192E+03  0.54151956321E+03  0.17394493602E+03 0.  0.
         24    2    5    5    0    0  0.10072030533E+03  0.33124880628E+02 -0.27489900036E+03  0.30556776439E+03  0.80996053083E+02 0.  0.
          5    1    5    5  501    0 -0.31252476278E+02 -0.19478052204E+02 -0.23301298156E+03  0.23595179882E+03  0.47000000000E+01 0. -1.
        -11    1    6    6    0    0  0.24944239447E+02  0.46312831867E+02 -0.77051513780E+02  0.93295387093E+02  0.00000000000E+00 0.  1.
         12    1    6    6    0    0  0.75776065879E+02 -0.13187951239E+02 -0.19784748658E+03  0.21227237730E+03  0.00000000000E+00 0. -1.
         -5    1    3    3    0  503 -0.99981114844E+02 -0.29635593391E+02 -0.42429227890E+03  0.43694452698E+03  0.47000000000E+01 0.  1.
         13    1    4    4    0    0  0.27228291046E+02 -0.71551939834E+01 -0.26353530006E+03  0.26503477321E+03  0.00000000000E+00 0. -1.
        -14    1    4    4    0    0  0.32849947501E+01  0.23143958950E+02 -0.19648565957E+02  0.30536865762E+02  0.00000000000E+00 0.  1.
<mgrwt>
<rscale>  2 0.18936382E+03</rscale>
<asrwt>0</asrwt>
<pdfrwt beam="1">  1       21 0.45113543E-02 0.18988796E+03</pdfrwt>
<pdfrwt beam="2">  1       21 0.19149413E+00 0.18988796E+03</pdfrwt>
<totfact> 0.48893564E+04</totfact>
</mgrwt>
</event>
<event>
12    1  0.1039378E-001  0.2186189E+03  0.7546771E-02  0.1135139E+00
         21   -1    0    0  501  502  0.00000000000E+00  0.00000000000E+00  0.19614830677E+02  0.19614830677E+02  0.00000000000E+00 0.  1.
         21   -1    0    0  502  503 -0.00000000000E+00 -0.00000000000E+00 -0.27499725702E+04  0.27499725702E+04  0.00000000000E+00 0.  1.
         -6    2    1    2    0  503  0.99677255689E+02  0.88905666369E+02 -0.18455683523E+04  0.18584716268E+04  0.17307360176E+03 0.  0.
        -24    2    3    3    0    0 -0.65038881537E+01  0.56669971960E+02 -0.63984154389E+03  0.64764017613E+03  0.82382098591E+02 0.  0.
          6    2    1    2  501    0 -0.99677255689E+02 -0.88905666369E+02 -0.88478938723E+03  0.91111577413E+03  0.17158065537E+03 0.  0.
         24    2    5    5    0    0 -0.11653000333E+03 -0.16352411595E+02 -0.61198140536E+03  0.62828318256E+03  0.79824018558E+02 0.  0.
          5    1    5    5  501    0  0.16852747644E+02 -0.72553254773E+02 -0.27280798186E+03  0.28283259156E+03  0.47000000000E+01 0. -1.
        -11    1    6    6    0    0 -0.89627887972E+02 -0.18316331482E+02 -0.57649929546E+03  0.58371232981E+03  0.00000000000E+00 0.  1.
         12    1    6    6    0    0 -0.26902115362E+02  0.19639198868E+01 -0.35482109901E+02  0.44570852755E+02  0.00000000000E+00 0. -1.
         -5    1    3    3    0  503  0.10618114384E+03  0.32235694409E+02 -0.12057268084E+04  0.12108314506E+04  0.47000000000E+01 0.  1.
         11    1    4    4    0    0 -0.29378472419E+01  0.10807645989E+02 -0.50581796042E+03  0.50594193860E+03  0.00000000000E+00 0. -1.
        -12    1    4    4    0    0 -0.35660409118E+01  0.45862325971E+02 -0.13402358348E+03  0.14169823753E+03  0.00000000000E+00 0.  1.
<mgrwt>
<rscale>  2 0.21832335E+03</rscale>
<asrwt>0</asrwt>
<pdfrwt beam="1">  1       21 0.30176644E-02 0.21861895E+03</pdfrwt>
<pdfrwt beam="2">  1       21 0.42307297E+00 0.21861895E+03</pdfrwt>
<totfact> 0.37711930E+03</totfact>
</mgrwt>
</event>
<event>
12    1  0.1039378E-001  0.2334218E+03  0.7546771E-02  0.1125912E+00
         21   -1    0    0  501  502  0.00000000000E+00  0.00000000000E+00  0.38509580666E+02  0.38509580666E+02  0.00000000000E+00 0. -1.
         21   -1    0    0  502  503 -0.00000000000E+00 -0.00000000000E+00 -0.13652322135E+04  0.13652322135E+04  0.00000000000E+00 0. -1.
         -6    2    1    2    0  503 -0.44189205346E+02  0.13517097796E+03 -0.69915076042E+03  0.73416568306E+03  0.17309992850E+03 0.  0.
        -24    2    3    3    0    0 -0.34599340636E+02  0.15382715892E+03 -0.44328883496E+03  0.47740230271E+03  0.80920073138E+02 0.  0.
          6    2    1    2  501    0  0.44189205346E+02 -0.13517097796E+03 -0.62757187244E+03  0.66957611113E+03  0.18509952555E+03 0.  0.
         24    2    5    5    0    0 -0.15357234387E+02 -0.31851229316E+02 -0.42849024307E+03  0.43746334953E+03  0.80746196907E+02 0.  0.
          5    1    5    5  501    0  0.59546439733E+02 -0.10331974864E+03 -0.19908162937E+03  0.23211276160E+03  0.47000000000E+01 0. -1.
        -11    1    6    6    0    0 -0.25469173590E+02  0.26693140387E+01 -0.35207405049E+03  0.35300416579E+03  0.00000000000E+00 0.  1.
         12    1    6    6    0    0  0.10111939203E+02 -0.34520543355E+02 -0.76416192588E+02  0.84459183737E+02  0.00000000000E+00 0. -1.
         -5    1    3    3    0  503 -0.95898647105E+01 -0.18656180967E+02 -0.25586192545E+03  0.25676338035E+03  0.47000000000E+01 0.  1.
         13    1    4    4    0    0 -0.56199990592E+02  0.97344240390E+02 -0.23475431787E+03  0.26027664098E+03  0.00000000000E+00 0. -1.
        -14    1    4    4    0    0  0.21600649956E+02  0.56482918533E+02 -0.20853451709E+03  0.21712566173E+03  0.00000000000E+00 0.  1.
<mgrwt>
<rscale>  2 0.23103639E+03</rscale>
<asrwt>0</asrwt>
<pdfrwt beam="1">  1       21 0.59245515E-02 0.23342175E+03</pdfrwt>
<pdfrwt beam="2">  1       21 0.21003570E+00 0.23342175E+03</pdfrwt>
<totfact> 0.22693241E+04</totfact>
</mgrwt>
</event>
<event>
12    1  0.1039378E-001  0.1771505E+03  0.7546771E-02  0.1170968E+00
         21   -1    0    0  501  502  0.00000000000E+00  0.00000000000E+00  0.15734514131E+03  0.15734514131E+03  0.00000000000E+00 0. -1.
         21   -1    0    0  502  503 -0.00000000000E+00 -0.00000000000E+00 -0.35535555384E+03  0.35535555384E+03  0.00000000000E+00 0. -1.
         -6    2    1    2    0  503 -0.57781933997E+01 -0.32585500227E+02 -0.26949587132E+03  0.32167066055E+03  0.17247836635E+03 0.  0.
        -24    2    3    3    0    0 -0.32586868774E+02  0.40695390157E+02 -0.16292168799E+03  0.18950054092E+03  0.81541154005E+02 0.  0.
          6    2    1    2  501    0  0.57781933997E+01  0.32585500227E+02  0.71485458792E+02  0.19103003460E+03  0.17403189638E+03 0.  0.
         24    2    5    5    0    0  0.17422064543E+02  0.56140589811E+02 -0.13004285145E+02  0.10242400314E+03  0.82862964165E+02 0.  0.
          5    1    5    5  501    0 -0.11643871143E+02 -0.23555089584E+02  0.84489743937E+02  0.88606031459E+02  0.47000000000E+01 0. -1.
        -13    1    6    6    0    0 -0.32894824104E+02  0.30449134157E+02 -0.20205516286E+01  0.44869832323E+02  0.00000000000E+00 0.  1.
         14    1    6    6    0    0  0.50316888647E+02  0.25691455654E+02 -0.10983733516E+02  0.57554170819E+02  0.00000000000E+00 0. -1.
         -5    1    3    3    0  503  0.26808675375E+02 -0.73280890384E+02 -0.10657418333E+03  0.13217011963E+03  0.47000000000E+01 0.  1.
         11    1    4    4    0    0  0.14552114020E+02  0.19207166910E+02 -0.11949630325E+03  0.12190178741E+03  0.00000000000E+00 0. -1.
        -12    1    4    4    0    0 -0.47138982794E+02  0.21488223247E+02 -0.43425384744E+02  0.67598753519E+02  0.00000000000E+00 0.  1.
<mgrwt>
<rscale>  2 0.17676779E+03</rscale>
<asrwt>0</asrwt>
<pdfrwt beam="1">  1       21 0.24206945E-01 0.17715051E+03</pdfrwt>
<pdfrwt beam="2">  1       21 0.54670085E-01 0.17715051E+03</pdfrwt>
<totfact> 0.51256202E+04</totfact>
</mgrwt>
</event>
<event>
12    1  0.1039378E-001  0.1995887E+03  0.7546771E-02  0.1150169E+00
         21   -1    0    0  501  502  0.00000000000E+00  0.00000000000E+00  0.10160108229E+03  0.10160108229E+03  0.00000000000E+00 0. -1.
         21   -1    0    0  502  503 -0.00000000000E+00 -0.00000000000E+00 -0.43702774069E+03  0.43702774069E+03  0.00000000000E+00 0. -1.
         -6    2    1    2    0  503  0.95776773720E+02 -0.29031354618E+02 -0.25466615544E+03  0.32332000040E+03  0.17223519385E+03 0.  0.
        -24    2    3    3    0    0  0.10178687801E+03 -0.72872375057E+02 -0.22616418334E+03  0.27047486023E+03  0.79595606708E+02 0.  0.
          6    2    1    2  501    0 -0.95776773720E+02  0.29031354618E+02 -0.80760502962E+02  0.21530882259E+03  0.17268358437E+03 0.  0.
         24    2    5    5    0    0 -0.97054853193E+02  0.65539161566E+02 -0.10021059386E+03  0.17365729811E+03  0.79997923952E+02 0.  0.
          5    1    5    5  501    0  0.12780794729E+01 -0.36507806948E+02  0.19450090902E+02  0.41651524479E+02  0.47000000000E+01 0. -1.
        -11    1    6    6    0    0 -0.60065608321E+02  0.30163919553E+00 -0.71433837451E+02  0.93331459981E+02  0.00000000000E+00 0.  1.
         12    1    6    6    0    0 -0.36989244872E+02  0.65237522371E+02 -0.28776756413E+02  0.80325838128E+02  0.00000000000E+00 0. -1.
         -5    1    3    3    0  503 -0.60101042906E+01  0.43841020439E+02 -0.28501972099E+02  0.52845140176E+02  0.47000000000E+01 0.  1.
         13    1    4    4    0    0  0.11221936721E+02 -0.54155159604E+02 -0.96228569537E+02  0.11098941738E+03  0.00000000000E+00 0. -1.
        -14    1    4    4    0    0  0.90564941290E+02 -0.18717215452E+02 -0.12993561380E+03  0.15948544284E+03  0.00000000000E+00 0.  1.
<mgrwt>
<rscale>  2 0.19949163E+03</rscale>
<asrwt>0</asrwt>
<pdfrwt beam="1">  1       21 0.15630936E-01 0.19958865E+03</pdfrwt>
<pdfrwt beam="2">  1       21 0.67235037E-01 0.19958865E+03</pdfrwt>
<totfact> 0.73437945E+04</totfact>
</mgrwt>
</event>
<event>
12    1  0.1039378E-001  0.1822329E+03  0.7546771E-02  0.1165829E+00
         21   -1    0    0  503  502  0.00000000000E+00  0.00000000000E+00  0.24914785078E+02  0.24914785078E+02  0.00000000000E+00 0.  1.
         21   -1    0    0  501  503 -0.00000000000E+00 -0.00000000000E+00 -0.17868102226E+04  0.17868102226E+04  0.00000000000E+00 0.  1.
          6    2    1    2  501    0  0.35774615744E+02 -0.43268917758E+02 -0.13413987310E+04  0.13537205728E+04  0.17336900300E+03 0.  0.
         24    2    3    3    0    0  0.17586058351E+02 -0.37633147412E+02 -0.13260234536E+04  0.13287992027E+04  0.75123888397E+02 0.  0.
         -6    2    1    2    0  502 -0.35774615744E+02  0.43268917758E+02 -0.42049670646E+03  0.45800443486E+03  0.17262259363E+03 0.  0.
        -24    2    5    5    0    0 -0.97486462624E+01  0.45487948462E+02 -0.42087688448E+03  0.43146183287E+03  0.82811664508E+02 0.  0.
          5    1    3    3  501    0  0.18188557393E+02 -0.56357703456E+01 -0.15375277485E+02  0.24921370050E+02  0.47000000000E+01 0. -1.
        -13    1    4    4    0    0  0.16402382515E+02 -0.57750013274E+02 -0.74068562095E+03  0.74311458825E+03  0.00000000000E+00 0.  1.
         14    1    4    4    0    0  0.11836758358E+01  0.20116865862E+02 -0.58533783261E+03  0.58568461450E+03  0.00000000000E+00 0. -1.
         -5    1    5    5    0  502 -0.26025969482E+02 -0.22190307043E+01  0.38017802244E+00  0.26542601984E+02  0.47000000000E+01 0.  1.
         13    1    6    6    0    0 -0.33470175648E+02 -0.78697046904E+01 -0.11373700607E+03  0.11882041685E+03  0.00000000000E+00 0. -1.
        -14    1    6    6    0    0  0.23721529386E+02  0.53357653153E+02 -0.30713987841E+03  0.31264141602E+03  0.00000000000E+00 0.  1.
<mgrwt>
<rscale>  2 0.18205516E+03</rscale>
<asrwt>0</asrwt>
<pdfrwt beam="1">  1       21 0.38330448E-02 0.18223291E+03</pdfrwt>
<pdfrwt beam="2">  1       21 0.27489381E+00 0.18223291E+03</pdfrwt>
<totfact> 0.20244281E+04</totfact>
</mgrwt>
</event>
<event>
12    1  0.1039378E-001  0.2744109E+03  0.7546771E-02  0.1099128E+00
         21   -1    0    0  501  502  0.00000000000E+00  0.00000000000E+00  0.63929129010E+03  0.63929129010E+03  0.00000000000E+00 0.  1.
         21   -1    0    0  502  503 -0.00000000000E+00 -0.00000000000E+00 -0.34139118093E+03  0.34139118093E+03  0.00000000000E+00 0. -1.
         -6    2    1    2    0  503 -0.82555285039E+02 -0.19262667999E+03 -0.24904805884E+03  0.36875629158E+03  0.17330855154E+03 0.  0.
        -24    2    3    3    0    0 -0.90060462133E+02 -0.21386590751E+03 -0.20886673155E+03  0.32245227953E+03  0.80626594831E+02 0.  0.
          6    2    1    2  501    0  0.82555285039E+02  0.19262667999E+03  0.54694816801E+03  0.61192617944E+03  0.17714665580E+03 0.  0.
         24    2    5    5    0    0  0.56408322217E+02  0.37774423224E+02  0.30836791491E+03  0.32625939408E+03  0.82131695546E+02 0.  0.
          5    1    5    5  501    0  0.26146962822E+02  0.15485225676E+03  0.23858025310E+03  0.28566678536E+03  0.47000000000E+01 0. -1.
        -11    1    6    6    0    0 -0.66430568815E+01 -0.17018254712E+02  0.25870637401E+02  0.31670823761E+02  0.00000000000E+00 0.  1.
         12    1    6    6    0    0  0.63051379099E+02  0.54792677936E+02  0.28249727751E+03  0.29458857032E+03  0.00000000000E+00 0. -1.
         -5    1    3    3    0  503  0.75051770944E+01  0.21239227520E+02 -0.40181327297E+02  0.46304012053E+02  0.47000000000E+01 0.  1.
         13    1    4    4    0    0 -0.76859065224E+02 -0.10179290074E+03 -0.77410719157E+02  0.14920298251E+03  0.00000000000E+00 0. -1.
        -14    1    4    4    0    0 -0.13201396909E+02 -0.11207300676E+03 -0.13145601239E+03  0.17324929702E+03  0.00000000000E+00 0.  1.
<mgrwt>
<rscale>  2 0.27379336E+03</rscale>
<asrwt>0</asrwt>
<pdfrwt beam="1">  1       21 0.98352506E-01 0.27441092E+03</pdfrwt>
<pdfrwt beam="2">  1       21 0.52521720E-01 0.27441092E+03</pdfrwt>
<totfact> 0.27630444E+03</totfact>
</mgrwt>
</event>
<event>
12    1  0.1039378E-001  0.1821009E+03  0.7546771E-02  0.1165972E+00
         21   -1    0    0  503  502  0.00000000000E+00  0.00000000000E+00  0.19697174361E+03  0.19697174361E+03  0.00000000000E+00 0. -1.
         21   -1    0    0  501  503 -0.00000000000E+00 -0.00000000000E+00 -0.28414472434E+03  0.28414472434E+03  0.00000000000E+00 0. -1.
          6    2    1    2  501    0 -0.21921687861E+02 -0.52365873098E+02 -0.19757436373E+03  0.26816292026E+03  0.17220039934E+03 0.  0.
         24    2    3    3    0    0 -0.91097382553E+01 -0.77620970985E+02 -0.58916661406E+02  0.12656484670E+03  0.80246401543E+02 0.  0.
         -6    2    1    2    0  502  0.21921687861E+02  0.52365873098E+02  0.11040138300E+03  0.21295354768E+03  0.17302601839E+03 0.  0.
        -24    2    5    5    0    0  0.30644915092E+02 -0.16225732869E+02  0.11360305964E+03  0.14357600207E+03  0.80659952776E+02 0.  0.
          5    1    3    3  501    0 -0.12811949606E+02  0.25255097887E+02 -0.13865770233E+03  0.14159807356E+03  0.47000000000E+01 0. -1.
        -13    1    4    4    0    0  0.15545605968E+00 -0.46021958308E+02  0.12698345770E+02  0.47741939617E+02  0.00000000000E+00 0.  1.
         14    1    4    4    0    0 -0.92651943150E+01 -0.31599012677E+02 -0.71615007176E+02  0.78822907081E+02  0.00000000000E+00 0. -1.
         -5    1    5    5    0  502 -0.87232272304E+01  0.68591605966E+02 -0.32016766393E+01  0.69377545616E+02  0.47000000000E+01 0.  1.
         11    1    6    6    0    0  0.17256355755E+02  0.29304908054E+02  0.75177686826E+02  0.82512084245E+02  0.00000000000E+00 0. -1.
        -12    1    6    6    0    0  0.13388559337E+02 -0.45530640922E+02  0.38425372816E+02  0.61063917824E+02  0.00000000000E+00 0.  1.
<mgrwt>
<rscale>  2 0.18190454E+03</rscale>
<asrwt>0</asrwt>
<pdfrwt beam="1">  1       21 0.30303345E-01 0.18210093E+03</pdfrwt>
<pdfrwt beam="2">  1       21 0.43714573E-01 0.18210093E+03</pdfrwt>
<totfact> 0.52801308E+04</totfact>
</mgrwt>
</event>
<event>
12    1  0.1039378E-001  0.2377984E+03  0.7546771E-02  0.1121512E+00
         21   -1    0    0  503  502  0.00000000000E+00  0.00000000000E+00  0.16728608991E+04  0.16728608991E+04  0.00000000000E+00 0.  1.
         21   -1    0    0  501  503 -0.00000000000E+00 -0.00000000000E+00 -0.61877059528E+02  0.61877059528E+02  0.00000000000E+00 0.  1.
          6    2    1    2  501    0 -0.10118348419E+03  0.12546591061E+03  0.13931857158E+04  0.14133345404E+04  0.17483790280E+03 0.  0.
         24    2    3    3    0    0 -0.15201303965E+02 -0.55077544230E+01  0.46081236341E+03  0.46787740523E+03  0.79371386857E+02 0.  0.
         -6    2    1    2    0  502  0.10118348419E+03 -0.12546591061E+03  0.21779812386E+03  0.32140341829E+03  0.17287088342E+03 0.  0.
        -24    2    5    5    0    0  0.10169429082E+03 -0.72280503609E+02  0.22009678102E+03  0.26795884639E+03  0.88278821684E+02 0.  0.
          5    1    3    3  501    0 -0.85982180220E+02  0.13097366503E+03  0.93237335235E+03  0.94545713516E+03  0.47000000000E+01 0. -1.
        -11    1    4    4    0    0 -0.83418021631E+01  0.28903239845E+02  0.35761401779E+03  0.35887709408E+03  0.00000000000E+00 0.  1.
         12    1    4    4    0    0 -0.68595018016E+01 -0.34410994268E+02  0.10319834562E+03  0.10900031115E+03  0.00000000000E+00 0. -1.
         -5    1    5    5    0  502 -0.51080663038E+00 -0.53185406997E+02 -0.22986571585E+01  0.53444571900E+02  0.47000000000E+01 0.  1.
         11    1    6    6    0    0  0.80368168762E+01 -0.53563721814E+02  0.54781022940E+02  0.77036505596E+02  0.00000000000E+00 0. -1.
        -12    1    6    6    0    0  0.93657473939E+02 -0.18716781795E+02  0.16531575808E+03  0.19092234080E+03  0.00000000000E+00 0.  1.
<mgrwt>
<rscale>  2 0.23743697E+03</rscale>
<asrwt>0</asrwt>
<pdfrwt beam="1">  1       21 0.25736318E+00 0.23779841E+03</pdfrwt>
<pdfrwt beam="2">  1       21 0.95195489E-02 0.23779841E+03</pdfrwt>
<totfact> 0.51016335E+03</totfact>
</mgrwt>
</event>
<event>
12    1  0.1039378E-001  0.1743830E+03  0.7546771E-02  0.1173828E+00
         21   -1    0    0  501  502  0.00000000000E+00  0.00000000000E+00  0.32978546374E+03  0.32978546374E+03  0.00000000000E+00 0. -1.
         21   -1    0    0  502  503 -0.00000000000E+00 -0.00000000000E+00 -0.14878861937E+03  0.14878861937E+03  0.00000000000E+00 0. -1.
         -6    2    1    2    0  503  0.28083965823E+01 -0.52305476301E+00 -0.58040262640E+02  0.18378823143E+03  0.17435963193E+03 0.  0.
        -24    2    3    3    0    0 -0.35439223022E+02  0.37556577755E+02 -0.77453860876E+02  0.12623897761E+03  0.85268656862E+02 0.  0.
          6    2    1    2  501    0 -0.28083965823E+01  0.52305476301E+00  0.23903710701E+03  0.29478585168E+03  0.17248709849E+03 0.  0.
         24    2    5    5    0    0  0.53858198816E+02 -0.29166853156E+02  0.12117919970E+03  0.16060250703E+03  0.85775030873E+02 0.  0.
          5    1    5    5  501    0 -0.56666595398E+02  0.29689907919E+02  0.11785790731E+03  0.13418334465E+03  0.47000000000E+01 0. -1.
        -11    1    6    6    0    0 -0.49217728557E+01  0.17663685542E+02  0.38913815989E+00  0.18340694193E+02  0.00000000000E+00 0.  1.
         12    1    6    6    0    0  0.58779971672E+02 -0.46830538699E+02  0.12079006154E+03  0.14226181283E+03  0.00000000000E+00 0. -1.
         -5    1    3    3    0  503  0.38247619605E+02 -0.38079632518E+02  0.19413598236E+02  0.57549253814E+02  0.47000000000E+01 0.  1.
         11    1    4    4    0    0 -0.40484252604E+02  0.26811351278E+01 -0.81229676709E+02  0.90798808212E+02  0.00000000000E+00 0. -1.
        -12    1    4    4    0    0  0.50450295821E+01  0.34875442627E+02  0.37758158332E+01  0.35440169401E+02  0.00000000000E+00 0.  1.
<mgrwt>
<rscale>  2 0.17391307E+03</rscale>
<asrwt>0</asrwt>
<pdfrwt beam="1">  1       21 0.50736225E-01 0.17438303E+03</pdfrwt>
<pdfrwt beam="2">  1       21 0.22890557E-01 0.17438303E+03</pdfrwt>
<totfact> 0.66723552E+04</totfact>
</mgrwt>
</event>
<event>
12    1  0.1039378E-001  0.2140363E+03  0.7546771E-02  0.1138427E+00
         21   -1    0    0  501  502  0.00000000000E+00  0.00000000000E+00  0.83853271103E+03  0.83853271103E+03  0.00000000000E+00 0.  1.
         21   -1    0    0  502  503 -0.00000000000E+00 -0.00000000000E+00 -0.24222244900E+03  0.24222244900E+03  0.00000000000E+00 0.  1.
         -6    2    1    2    0  503  0.11735919882E+03 -0.44976022231E+02 -0.17740815804E+03  0.27800212544E+03  0.17324982854E+03 0.  0.
        -24    2    3    3    0    0  0.74021498450E+02 -0.43974046151E+02 -0.26197389386E+02  0.12063012417E+03  0.80326985994E+02 0.  0.
          6    2    1    2  501    0 -0.11735919882E+03  0.44976022231E+02  0.77371842006E+03  0.80275303459E+03  0.17313641118E+03 0.  0.
         24    2    5    5    0    0 -0.11323042248E+02  0.18335676018E+02  0.50907389787E+03  0.51637533351E+03  0.83802406112E+02 0.  0.
          5    1    5    5  501    0 -0.10603615657E+03  0.26640346213E+02  0.26464452219E+03  0.28637770107E+03  0.47000000000E+01 0. -1.
        -13    1    6    6    0    0 -0.47476414675E+02  0.41419661811E+01  0.28749014674E+03  0.29141336673E+03  0.00000000000E+00 0.  1.
         14    1    6    6    0    0  0.36153372428E+02  0.14193709836E+02  0.22158375113E+03  0.22496196678E+03  0.00000000000E+00 0. -1.
         -5    1    3    3    0  503  0.43337700365E+02 -0.10019760794E+01 -0.15121076865E+03  0.15737200127E+03  0.47000000000E+01 0.  1.
         11    1    4    4    0    0  0.11404730435E+02 -0.64758364598E+01  0.27199765439E+02  0.30196549043E+02  0.00000000000E+00 0. -1.
        -12    1    4    4    0    0  0.62616768016E+02 -0.37498209691E+02 -0.53397154826E+02  0.90433575127E+02  0.00000000000E+00 0.  1.
<mgrwt>
<rscale>  2 0.21401332E+03</rscale>
<asrwt>0</asrwt>
<pdfrwt beam="1">  1       21 0.12900503E+00 0.21403628E+03</pdfrwt>
<pdfrwt beam="2">  1       21 0.37264993E-01 0.21403628E+03</pdfrwt>
<totfact> 0.30051404E+03</totfact>
</mgrwt>
</event>
<event>
12    1  0.1039378E-001  0.5003141E+03  0.7546771E-02  0.1013799E+00
         21   -1    0    0  501  502  0.00000000000E+00  0.00000000000E+00  0.12727282370E+03  0.12727282370E+03  0.00000000000E+00 0. -1.
         21   -1    0    0  502  503 -0.00000000000E+00 -0.00000000000E+00 -0.19768077030E+04  0.19768077030E+04  0.00000000000E+00 0. -1.
         -6    2    1    2    0  503  0.17399138586E+03 -0.43627179623E+03 -0.10184741897E+04  0.11340413422E+04  0.16779156218E+03 0.  0.
        -24    2    3    3    0    0  0.96199582502E+02 -0.20360283790E+03 -0.63658389421E+03  0.68011547097E+03  0.81298980377E+02 0.  0.
          6    2    1    2  501    0 -0.17399138586E+03  0.43627179623E+03 -0.83106068961E+03  0.97003918444E+03  0.17236028255E+03 0.  0.
         24    2    5    5    0    0 -0.45936825540E+02  0.11106515498E+03 -0.30447807318E+03  0.33800384377E+03  0.84226128754E+02 0.  0.
          5    1    5    5  501    0 -0.12805456032E+03  0.32520664125E+03 -0.52658261643E+03  0.63203534067E+03  0.47000000000E+01 0. -1.
        -13    1    6    6    0    0 -0.39535387648E+02  0.12673805150E+02 -0.14203682174E+03  0.14798017078E+03  0.00000000000E+00 0.  1.
         14    1    6    6    0    0 -0.64014378914E+01  0.98391349827E+02 -0.16244125144E+03  0.19002367299E+03  0.00000000000E+00 0. -1.
         -5    1    3    3    0  503  0.77791803355E+02 -0.23266895832E+03 -0.38189029547E+03  0.45392587127E+03  0.47000000000E+01 0.  1.
         11    1    4    4    0    0  0.86908771969E+02 -0.16440420563E+03 -0.41306166983E+03  0.45299207560E+03  0.00000000000E+00 0. -1.
        -12    1    4    4    0    0  0.92908105337E+01 -0.39198632271E+02 -0.22352222438E+03  0.22712339537E+03  0.00000000000E+00 0.  1.
<mgrwt>
<rscale>  2 0.49992472E+03</rscale>
<asrwt>0</asrwt>
<pdfrwt beam="1">  1       21 0.19580435E-01 0.50031405E+03</pdfrwt>
<pdfrwt beam="2">  1       21 0.30412425E+00 0.50031405E+03</pdfrwt>
<totfact> 0.60387035E+02</totfact>
</mgrwt>
</event>
<event>
12    1  0.1039378E-001  0.2088644E+03  0.7546771E-02  0.1142587E+00
         21   -1    0    0  501  502  0.00000000000E+00  0.00000000000E+00  0.99158799353E+02  0.99158799353E+02  0.00000000000E+00 0.  1.
         21   -1    0    0  502  503 -0.00000000000E+00 -0.00000000000E+00 -0.44329031751E+03  0.44329031751E+03  0.00000000000E+00 0.  1.
         -6    2    1    2    0  503  0.24976693861E+02 -0.11430463146E+03 -0.14468638902E+03  0.25408359592E+03  0.17301716255E+03 0.  0.
        -24    2    3    3    0    0 -0.42383964818E+02 -0.43631196373E+02 -0.11380594490E+03  0.15157562260E+03  0.79519145497E+02 0.  0.
          6    2    1    2  501    0 -0.24976693861E+02  0.11430463146E+03 -0.19944512913E+03  0.28836552094E+03  0.17229895567E+03 0.  0.
         24    2    5    5    0    0  0.21978504638E+02  0.18455570835E+02 -0.14489975574E+03  0.16841085931E+03  0.80886436191E+02 0.  0.
          5    1    5    5  501    0 -0.46955198499E+02  0.95849060624E+02 -0.54545373396E+02  0.11995466163E+03  0.47000000000E+01 0. -1.
        -11    1    6    6    0    0  0.78686813353E+01  0.36393567868E+02 -0.21661100844E+02  0.43076806031E+02  0.00000000000E+00 0.  1.
         12    1    6    6    0    0  0.14109823303E+02 -0.17937997033E+02 -0.12323865489E+03  0.12533405328E+03  0.00000000000E+00 0. -1.
         -5    1    3    3    0  503  0.67360658680E+02 -0.70673435086E+02 -0.30880444117E+02  0.10250797332E+03  0.47000000000E+01 0.  1.
         13    1    4    4    0    0 -0.53169916536E+02 -0.37435855951E+02 -0.39175612578E+02  0.75915821514E+02  0.00000000000E+00 0. -1.
        -14    1    4    4    0    0  0.10785951718E+02 -0.61953404224E+01 -0.74630332326E+02  0.75659801087E+02  0.00000000000E+00 0.  1.
<mgrwt>
<rscale>  2 0.20871557E+03</rscale>
<asrwt>0</asrwt>
<pdfrwt beam="1">  1       21 0.15255199E-01 0.20886436E+03</pdfrwt>
<pdfrwt beam="2">  1       21 0.68198512E-01 0.20886436E+03</pdfrwt>
<totfact> 0.74111155E+04</totfact>
</mgrwt>
</event>
<event>
12    1  0.1039378E-001  0.2558129E+03  0.7546771E-02  0.1109836E+00
         21   -1    0    0  501  502  0.00000000000E+00  0.00000000000E+00  0.59748945645E+03  0.59748945645E+03  0.00000000000E+00 0. -1.
         21   -1    0    0  502  503 -0.00000000000E+00 -0.00000000000E+00 -0.24579400470E+03  0.24579400470E+03  0.00000000000E+00 0. -1.
         -6    2    1    2    0  503 -0.59271038958E+02 -0.18004386820E+03 -0.13843241904E+03  0.29086725885E+03  0.17178875718E+03 0.  0.
        -24    2    3    3    0    0  0.10799170735E+02 -0.76457448368E+02 -0.12127419755E+03  0.16454831639E+03  0.80039702238E+02 0.  0.
          6    2    1    2  501    0  0.59271038958E+02  0.18004386820E+03  0.49012787078E+03  0.55241620230E+03  0.17032169653E+03 0.  0.
         24    2    5    5    0    0  0.60798866133E+02  0.32849330837E+02  0.23349936871E+03  0.25652966296E+03  0.80684150430E+02 0.  0.
          5    1    5    5  501    0 -0.15278271759E+01  0.14719453736E+03  0.25662850207E+03  0.29588653934E+03  0.47000000000E+01 0. -1.
        -13    1    6    6    0    0  0.33331009243E+02  0.10078879037E+02  0.21207045775E+03  0.21491025808E+03  0.00000000000E+00 0.  1.
         14    1    6    6    0    0  0.27467856890E+02  0.22770451801E+02  0.21428910964E+02  0.41619404879E+02  0.00000000000E+00 0. -1.
         -5    1    3    3    0  503 -0.70070209692E+02 -0.10358641983E+03 -0.17158221487E+02  0.12631894246E+03  0.47000000000E+01 0.  1.
         13    1    4    4    0    0 -0.34717030336E+02 -0.29880732569E+02 -0.55933481620E+02  0.72295814128E+02  0.00000000000E+00 0. -1.
        -14    1    4    4    0    0  0.45516201071E+02 -0.46576715798E+02 -0.65340715934E+02  0.92252502260E+02  0.00000000000E+00 0.  1.
<mgrwt>
<rscale>  2 0.25556680E+03</rscale>
<asrwt>0</asrwt>
<pdfrwt beam="1">  1       21 0.91921454E-01 0.25581288E+03</pdfrwt>
<pdfrwt beam="2">  1       21 0.37814462E-01 0.25581288E+03</pdfrwt>
<totfact> 0.64664150E+03</totfact>
</mgrwt>
</event>
<event>
12    1  0.1039378E-001  0.2233582E+03  0.7546771E-02  0.1131432E+00
         21   -1    0    0  503  502  0.00000000000E+00  0.00000000000E+00  0.18095634422E+03  0.18095634422E+03  0.00000000000E+00 0. -1.
         21   -1    0    0  501  503 -0.00000000000E+00 -0.00000000000E+00 -0.29462101340E+03  0.29462101340E+03  0.00000000000E+00 0.  1.
          6    2    1    2  501    0  0.71800324849E+02  0.12121768411E+03 -0.11738503087E+03  0.25218817536E+03  0.17312023778E+03 0.  0.
         24    2    3    3    0    0  0.30326566515E+02  0.11253760099E+03 -0.16266108871E+02  0.14244965496E+03  0.80267712235E+02 0.  0.
         -6    2    1    2    0  502 -0.71800324849E+02 -0.12121768411E+03  0.37203616971E+01  0.22338918226E+03  0.17332014330E+03 0.  0.
        -24    2    5    5    0    0 -0.10962644227E+03 -0.12591205077E+03  0.52927315562E+01  0.18495203116E+03  0.79419389638E+02 0.  0.
          5    1    3    3  501    0  0.41473758334E+02  0.86800831166E+01 -0.10111892200E+03  0.10973852040E+03  0.47000000000E+01 0. -1.
        -11    1    4    4    0    0  0.16666386322E+02  0.19051048455E+02 -0.37852295025E+02  0.45535778449E+02  0.00000000000E+00 0.  1.
         12    1    4    4    0    0  0.13660180193E+02  0.93486552535E+02  0.21586186154E+02  0.96913876512E+02  0.00000000000E+00 0. -1.
         -5    1    5    5    0  502  0.37826117422E+02  0.46943666636E+01 -0.15723698591E+01  0.38437151098E+02  0.47000000000E+01 0.  1.
         13    1    6    6    0    0 -0.25993316334E+02 -0.77454131390E+02  0.26701303405E+02  0.85952048068E+02  0.00000000000E+00 0. -1.
        -14    1    6    6    0    0 -0.83633125936E+02 -0.48457919380E+02 -0.21408571849E+02  0.98999983097E+02  0.00000000000E+00 0.  1.
<mgrwt>
<rscale>  2 0.22331942E+03</rscale>
<asrwt>0</asrwt>
<pdfrwt beam="1">  1       21 0.27839438E-01 0.22335820E+03</pdfrwt>
<pdfrwt beam="2">  1       21 0.45326310E-01 0.22335820E+03</pdfrwt>
<totfact> 0.56719418E+04</totfact>
</mgrwt>
</event>
<event>
12    1  0.1039378E-001  0.2507053E+03  0.7546771E-02  0.1113012E+00
         21   -1    0    0  503  502  0.00000000000E+00  0.00000000000E+00  0.12811631750E+03  0.12811631750E+03  0.00000000000E+00 0. -1.
         21   -1    0    0  501  503 -0.00000000000E+00 -0.00000000000E+00 -0.67572177295E+03  0.67572177295E+03  0.00000000000E+00 0.  1.
          6    2    1    2  501    0 -0.12762532490E+03 -0.12961902576E+03 -0.48486425399E+03  0.54540119554E+03  0.17111342407E+03 0.  0.
         24    2    3    3    0    0 -0.96772951609E+02 -0.14000283155E+03 -0.47536758812E+03  0.51116716243E+03  0.79697723297E+02 0.  0.
         -6    2    1    2    0  502  0.12762532490E+03  0.12961902576E+03 -0.62741201458E+02  0.25843689492E+03  0.17252204178E+03 0.  0.
        -24    2    5    5    0    0  0.27302458954E+02  0.34051028275E+02  0.21063943346E+02  0.96439018790E+02  0.83378041740E+02 0.  0.
          5    1    3    3  501    0 -0.30852373291E+02  0.10383805787E+02 -0.94966658694E+01  0.34234033109E+02  0.47000000000E+01 0. -1.
        -13    1    4    4    0    0  0.12822651849E+02 -0.17029647244E+02 -0.34770804698E+02  0.40785268725E+02  0.00000000000E+00 0.  1.
         14    1    4    4    0    0 -0.10959560346E+03 -0.12297318431E+03 -0.44059678343E+03  0.47038189370E+03  0.00000000000E+00 0. -1.
         -5    1    5    5    0  502  0.10032286595E+03  0.95567997488E+02 -0.83805144805E+02  0.16199787613E+03  0.47000000000E+01 0.  1.
         11    1    6    6    0    0  0.49435484053E+02  0.46908808713E+02  0.19058143134E+02  0.70763805990E+02  0.00000000000E+00 0. -1.
        -12    1    6    6    0    0 -0.22133025099E+02 -0.12857780438E+02  0.20058002120E+01  0.25675212800E+02  0.00000000000E+00 0.  1.
<mgrwt>
<rscale>  2 0.25046318E+03</rscale>
<asrwt>0</asrwt>
<pdfrwt beam="1">  1       21 0.19710203E-01 0.25070535E+03</pdfrwt>
<pdfrwt beam="2">  1       21 0.10395720E+00 0.25070535E+03</pdfrwt>
<totfact> 0.17160902E+04</totfact>
</mgrwt>
</event>
<event>
12    1  0.1039378E-001  0.1992319E+03  0.7546771E-02  0.1150395E+00
         21   -1    0    0  501  502  0.00000000000E+00  0.00000000000E+00  0.16172231515E+04  0.16172231515E+04  0.00000000000E+00 0. -1.
         21   -1    0    0  502  503 -0.00000000000E+00 -0.00000000000E+00 -0.62710551127E+02  0.62710551127E+02  0.00000000000E+00 0. -1.
         -6    2    1    2    0  503  0.49009716448E+02  0.87115608705E+02  0.12191240878E+03  0.23354624554E+03  0.17230824648E+03 0.  0.
        -24    2    3    3    0    0  0.15572014024E+02  0.12441285583E+03  0.95372459911E+02  0.17666370452E+03  0.79956938842E+02 0.  0.
          6    2    1    2  501    0 -0.49009716448E+02 -0.87115608705E+02  0.14326001916E+04  0.14463874571E+04  0.17234351011E+03 0.  0.
         24    2    5    5    0    0 -0.25428966812E+02 -0.77936469052E+02  0.13990467010E+04  0.14040999283E+04  0.86279844409E+02 0.  0.
          5    1    5    5  501    0 -0.23580749637E+02 -0.91791396530E+01  0.33553490563E+02  0.42287528743E+02  0.47000000000E+01 0. -1.
        -11    1    6    6    0    0  0.22827960327E+02 -0.35432789598E+02  0.89146873342E+03  0.89246462172E+03  0.00000000000E+00 0.  1.
         12    1    6    6    0    0 -0.48256927138E+02 -0.42503679454E+02  0.50757796761E+03  0.51163530663E+03  0.00000000000E+00 0. -1.
         -5    1    3    3    0  503  0.33437702424E+02 -0.37297247128E+02  0.26539948870E+02  0.56882541019E+02  0.47000000000E+01 0.  1.
         13    1    4    4    0    0 -0.16044771695E+02  0.76306833103E+02  0.17655966828E+02  0.79949362984E+02  0.00000000000E+00 0. -1.
        -14    1    4    4    0    0  0.31616785720E+02  0.48106022730E+02  0.77716493083E+02  0.96714341539E+02  0.00000000000E+00 0.  1.
<mgrwt>
<rscale>  2 0.19922432E+03</rscale>
<asrwt>0</asrwt>
<pdfrwt beam="1">  1       21 0.24880353E+00 0.19923194E+03</pdfrwt>
<pdfrwt beam="2">  1       21 0.96477783E-02 0.19923194E+03</pdfrwt>
<totfact> 0.58033884E+03</totfact>
</mgrwt>
</event>
<event>
12    1  0.1039378E-001  0.3042596E+03  0.7546771E-02  0.1083283E+00
         21   -1    0    0  503  502  0.00000000000E+00  0.00000000000E+00  0.77518762406E+02  0.77518762406E+02  0.00000000000E+00 0.  1.
         21   -1    0    0  501  503 -0.00000000000E+00 -0.00000000000E+00 -0.18069622045E+04  0.18069622045E+04  0.00000000000E+00 0.  1.
          6    2    1    2  501    0  0.14875646102E+03 -0.19963209597E+03 -0.14167442487E+04  0.14490473299E+04  0.17490694559E+03 0.  0.
         24    2    3    3    0    0  0.10850373598E+03 -0.47205268119E+02 -0.57542754714E+03  0.59307413987E+03  0.81355241454E+02 0.  0.
         -6    2    1    2    0  502 -0.14875646102E+03  0.19963209597E+03 -0.31269919340E+03  0.43543363701E+03  0.17274318585E+03 0.  0.
        -24    2    5    5    0    0 -0.70013991263E+02  0.76719665590E+02 -0.23698534134E+03  0.27092673905E+03  0.80320482205E+02 0.  0.
          5    1    3    3  501    0  0.40252725036E+02 -0.15242682785E+03 -0.84131670155E+03  0.85597319001E+03  0.47000000000E+01 0. -1.
        -13    1    4    4    0    0  0.27737362215E+02 -0.56878224706E+01 -0.33290229300E+03  0.33410424911E+03  0.00000000000E+00 0.  1.
         14    1    4    4    0    0  0.80766373768E+02 -0.41517445649E+02 -0.24252525414E+03  0.25896989076E+03  0.00000000000E+00 0. -1.
         -5    1    5    5    0  502 -0.78742469755E+02  0.12291243038E+03 -0.75713852059E+02  0.16450689796E+03  0.47000000000E+01 0.  1.
         13    1    6    6    0    0 -0.21462139405E+02 -0.14080728600E+02 -0.72093298634E+02  0.76526688506E+02  0.00000000000E+00 0. -1.
        -14    1    6    6    0    0 -0.48551851858E+02  0.90800394190E+02 -0.16489204270E+03  0.19440005054E+03  0.00000000000E+00 0.  1.
<mgrwt>
<rscale>  2 0.30394944E+03</rscale>
<asrwt>0</asrwt>
<pdfrwt beam="1">  1       21 0.11925963E-01 0.30425959E+03</pdfrwt>
<pdfrwt beam="2">  1       21 0.27799419E+00 0.30425959E+03</pdfrwt>
<totfact> 0.24423292E+03</totfact>
</mgrwt>
</event>
<event>
12    1  0.1039378E-001  0.2393582E+03  0.7546771E-02  0.1120311E+00
         21   -1    0    0  503  502  0.00000000000E+00  0.00000000000E+00  0.33290302100E+03  0.33290302100E+03  0.00000000000E+00 0.  1.
         21   -1    0    0  501  503 -0.00000000000E+00 -0.00000000000E+00 -0.17294051408E+03  0.17294051408E+03  0.00000000000E+00 0. -1.
          6    2    1    2  501    0  0.12767585768E+03  0.10518359587E+03  0.58760686272E+02  0.24646533171E+03  0.17299603466E+03 0.  0.
         24    2    3    3    0    0  0.57328951727E+02  0.10223928771E+03  0.90528800415E+02  0.16907890393E+03  0.81564277672E+02 0.  0.
         -6    2    1    2    0  502 -0.12767585768E+03 -0.10518359587E+03  0.10120182065E+03  0.25937820337E+03  0.17225135822E+03 0.  0.
        -24    2    5    5    0    0 -0.12769076477E+03 -0.93050441517E+02  0.21515647497E+02  0.17863670321E+03  0.80528458150E+02 0.  0.
          5    1    3    3  501    0  0.70346905951E+02  0.29443081585E+01 -0.31768114143E+02  0.77386427774E+02  0.47000000000E+01 0. -1.
        -11    1    4    4    0    0  0.72944710255E+02  0.53521023967E+02  0.67998126762E+02  0.11317763032E+03  0.00000000000E+00 0.  1.
         12    1    4    4    0    0 -0.15615758528E+02  0.48718263744E+02  0.22530673653E+02  0.55901273616E+02  0.00000000000E+00 0. -1.
         -5    1    5    5    0  502  0.14907091744E-01 -0.12133154352E+02  0.79686173153E+02  0.80741500163E+02  0.47000000000E+01 0.  1.
         11    1    6    6    0    0 -0.41786601283E+02 -0.79869091549E+02  0.16030749467E+02  0.91554228521E+02  0.00000000000E+00 0. -1.
        -12    1    6    6    0    0 -0.85904163487E+02 -0.13181349969E+02  0.54848980300E+01  0.87082474688E+02  0.00000000000E+00 0.  1.
<mgrwt>
<rscale>  2 0.23922366E+03</rscale>
<asrwt>0</asrwt>
<pdfrwt beam="1">  1       21 0.51215849E-01 0.23935819E+03</pdfrwt>
<pdfrwt beam="2">  1       21 0.26606233E-01 0.23935819E+03</pdfrwt>
<totfact> 0.47681938E+04</totfact>
</mgrwt>
</event>
<event>
12    1  0.1039378E-001  0.1840954E+03  0.7546771E-02  0.1164955E+00
         21   -1    0    0  501  502  0.00000000000E+00  0.00000000000E+00  0.18704011760E+03  0.18704011760E+03  0.00000000000E+00 0.  1.
         21   -1    0    0  502  503 -0.00000000000E+00 -0.00000000000E+00 -0.17747402490E+03  0.17747402490E+03  0.00000000000E+00 0.  1.
         -6    2    1    2    0  503  0.62918319320E+02 -0.15302689999E+02  0.15513464469E+02  0.18032270894E+03  0.16757900988E+03 0.  0.
        -24    2    3    3    0    0 -0.31347328306E+01 -0.51903864943E+02  0.33773602008E+02  0.10248843418E+03  0.81605056224E+02 0.  0.
          6    2    1    2  501    0 -0.62918319320E+02  0.15302689999E+02 -0.59473717711E+01  0.18419143355E+03  0.17233173166E+03 0.  0.
         24    2    5    5    0    0 -0.69719424232E+02  0.28119159525E+02  0.57583549754E+02  0.11885549468E+03  0.71828115421E+02 0.  0.
          5    1    5    5  501    0  0.68011049124E+01 -0.12816469526E+02 -0.63530921525E+02  0.65335938878E+02  0.47000000000E+01 0. -1.
        -11    1    6    6    0    0 -0.21364826365E+02  0.46126610886E+02  0.18387322140E+02  0.54057503206E+02  0.00000000000E+00 0.  1.
         12    1    6    6    0    0 -0.48354597867E+02 -0.18007451361E+02  0.39196227615E+02  0.64797991470E+02  0.00000000000E+00 0. -1.
         -5    1    3    3    0  503  0.66053052150E+02  0.36601174944E+02 -0.18260137539E+02  0.77834274768E+02  0.47000000000E+01 0.  1.
         11    1    4    4    0    0  0.29953342661E+02 -0.55051087957E+02  0.15507203276E+02  0.64562360360E+02  0.00000000000E+00 0. -1.
        -12    1    4    4    0    0 -0.33088075492E+02  0.31472230142E+01  0.18266398732E+02  0.37926073816E+02  0.00000000000E+00 0.  1.
<mgrwt>
<rscale>  2 0.18297489E+03</rscale>
<asrwt>0</asrwt>
<pdfrwt beam="1">  1       21 0.28775403E-01 0.18409539E+03</pdfrwt>
<pdfrwt beam="2">  1       21 0.27303696E-01 0.18409539E+03</pdfrwt>
<totfact> 0.14821121E+05</totfact>
</mgrwt>
</event>
<event>
12    1  0.1039378E-001  0.2172740E+03  0.7546771E-02  0.1135954E+00
         21   -1    0    0  501  502  0.00000000000E+00  0.00000000000E+00  0.47439731919E+03  0.47439731919E+03  0.00000000000E+00 0. -1.
         21   -1    0    0  502  503 -0.00000000000E+00 -0.00000000000E+00 -0.13374733410E+03  0.13374733410E+03  0.00000000000E+00 0.  1.
         -6    2    1    2    0  503  0.12895067372E+03 -0.93376513597E+01  0.16329972897E+02  0.21777115410E+03  0.17447675936E+03 0.  0.
        -24    2    3    3    0    0  0.14806513650E+03 -0.17353245731E+02 -0.25569972160E+02  0.17078915929E+03  0.79313893294E+02 0.  0.
          6    2    1    2  501    0 -0.12895067372E+03  0.93376513597E+01  0.32432001219E+03  0.39037349919E+03  0.17462110576E+03 0.  0.
         24    2    5    5    0    0 -0.12784857538E+01  0.31295806402E+01  0.71330567727E+02  0.10688720899E+03  0.79532362925E+02 0.  0.
          5    1    5    5  501    0 -0.12767218797E+03  0.62080707195E+01  0.25298944446E+03  0.28348629020E+03  0.47000000000E+01 0. -1.
        -13    1    6    6    0    0  0.71081893435E+01  0.42595189582E+01 -0.16598377630E+02  0.18551980958E+02  0.00000000000E+00 0.  1.
         14    1    6    6    0    0 -0.83866750973E+01 -0.11299383180E+01  0.87928945357E+02  0.88335228032E+02  0.00000000000E+00 0. -1.
         -5    1    3    3    0  503 -0.19114462780E+02  0.80155943711E+01  0.41899945056E+02  0.46981994809E+02  0.47000000000E+01 0.  1.
         11    1    4    4    0    0  0.45166639523E+02 -0.30204755245E+02  0.19488609301E+02  0.57724851301E+02  0.00000000000E+00 0. -1.
        -12    1    4    4    0    0  0.10289849698E+03  0.12851509514E+02 -0.45058581461E+02  0.11306430799E+03  0.00000000000E+00 0.  1.
<mgrwt>
<rscale>  2 0.21724501E+03</rscale>
<asrwt>0</asrwt>
<pdfrwt beam="1">  1       21 0.72984202E-01 0.21727402E+03</pdfrwt>
<pdfrwt beam="2">  1       21 0.20576513E-01 0.21727402E+03</pdfrwt>
<totfact> 0.36506382E+04</totfact>
</mgrwt>
</event>
<event>
12    1  0.1039378E-001  0.1737316E+03  0.7546771E-02  0.1174114E+00
         21   -1    0    0  501  502  0.00000000000E+00  0.00000000000E+00  0.52491060607E+03  0.52491060607E+03  0.00000000000E+00 0. -1.
         21   -1    0    0  502  503 -0.00000000000E+00 -0.00000000000E+00 -0.21861346018E+03  0.21861346018E+03  0.00000000000E+00 0. -1.
         -6    2    1    2    0  503  0.72083403504E+01 -0.14311748404E+02 -0.16617841039E+03  0.24011982011E+03  0.17258469694E+03 0.  0.
        -24    2    3    3    0    0  0.40822658636E+02 -0.50642231828E+02 -0.51739978956E+02  0.11534774387E+03  0.79980944555E+02 0.  0.
          6    2    1    2  501    0 -0.72083403504E+01  0.14311748404E+02  0.47247555628E+03  0.50340424614E+03  0.17299103281E+03 0.  0.
         24    2    5    5    0    0  0.55152190982E+02 -0.13973246979E+02  0.21037918006E+03  0.23246979418E+03  0.80906056635E+02 0.  0.
          5    1    5    5  501    0 -0.62360531333E+02  0.28284995383E+02  0.26209637622E+03  0.27093445196E+03  0.47000000000E+01 0. -1.
        -13    1    6    6    0    0 -0.88280535702E+01 -0.27312584263E+02  0.10150616378E+03  0.10548655400E+03  0.00000000000E+00 0.  1.
         14    1    6    6    0    0  0.63980244552E+02  0.13339337284E+02  0.10887301628E+03  0.12698324018E+03  0.00000000000E+00 0. -1.
         -5    1    3    3    0  503 -0.33614318286E+02  0.36330483424E+02 -0.11443843143E+03  0.12477207624E+03  0.47000000000E+01 0.  1.
         11    1    4    4    0    0  0.31440492697E+02 -0.61634385777E+02 -0.65584766035E+02  0.95334482885E+02  0.00000000000E+00 0. -1.
        -12    1    4    4    0    0  0.93821659393E+01  0.10992153949E+02  0.13844787079E+02  0.20013260989E+02  0.00000000000E+00 0.  1.
<mgrwt>
<rscale>  2 0.17363040E+03</rscale>
<asrwt>0</asrwt>
<pdfrwt beam="1">  1       21 0.80755477E-01 0.17373164E+03</pdfrwt>
<pdfrwt beam="2">  1       21 0.33632840E-01 0.17373164E+03</pdfrwt>
<totfact> 0.11615811E+04</totfact>
</mgrwt>
</event>
<event>
12    1  0.1039378E-001  0.2418116E+03  0.7546771E-02  0.1119141E+00
         21   -1    0    0  503  502  0.00000000000E+00  0.00000000000E+00  0.52154154867E+02  0.52154154867E+02  0.00000000000E+00 0.  1.
         21   -1    0    0  501  503 -0.00000000000E+00 -0.00000000000E+00 -0.11620216617E+04  0.11620216617E+04  0.00000000000E+00 0.  1.
          6    2    1    2  501    0 -0.13895664917E+03  0.87539944949E+02 -0.69200043434E+03  0.73303303835E+03  0.17748420177E+03 0.  0.
         24    2    3    3    0    0 -0.10856619898E+03  0.11770562852E+03 -0.64152288540E+03  0.66667325479E+03  0.85207872937E+02 0.  0.
         -6    2    1    2    0  502  0.13895664917E+03 -0.87539944949E+02 -0.41786707251E+03  0.48114277823E+03  0.17295459070E+03 0.  0.
        -24    2    5    5    0    0  0.35644235441E+02 -0.49235248487E+02 -0.31253388828E+03  0.32863745274E+03  0.81428022268E+02 0.  0.
          5    1    3    3  501    0 -0.30390450188E+02 -0.30165683569E+02 -0.50477548943E+02  0.66359783567E+02  0.47000000000E+01 0. -1.
        -13    1    4    4    0    0 -0.11486244498E+03  0.73043876666E+02 -0.49383188207E+03  0.51224868661E+03  0.00000000000E+00 0.  1.
         14    1    4    4    0    0  0.62962459963E+01  0.44661751852E+02 -0.14769100333E+03  0.15442456817E+03  0.00000000000E+00 0. -1.
         -5    1    5    5    0  502  0.10331241373E+03 -0.38304696462E+02 -0.10533318424E+03  0.15250532549E+03  0.47000000000E+01 0.  1.
         13    1    6    6    0    0  0.62235363089E+02 -0.35698002024E+02 -0.21722427560E+03  0.22876619872E+03  0.00000000000E+00 0. -1.
        -14    1    6    6    0    0 -0.26591127648E+02 -0.13537246463E+02 -0.95309612680E+02  0.99871254026E+02  0.00000000000E+00 0.  1.
<mgrwt>
<rscale>  2 0.24098110E+03</rscale>
<asrwt>0</asrwt>
<pdfrwt beam="1">  1       21 0.80237169E-02 0.24181157E+03</pdfrwt>
<pdfrwt beam="2">  1       21 0.17877255E+00 0.24181157E+03</pdfrwt>
<totfact> 0.21442721E+04</totfact>
</mgrwt>
</event>
<event>
12    1  0.1039378E-001  0.1862926E+03  0.7546771E-02  0.1161972E+00
         21   -1    0    0  501  502  0.00000000000E+00  0.00000000000E+00  0.35376399712E+03  0.35376399712E+03  0.00000000000E+00 0.  1.
         21   -1    0    0  502  503 -0.00000000000E+00 -0.00000000000E+00 -0.15732212014E+03  0.15732212014E+03  0.00000000000E+00 0.  1.
         -6    2    1    2    0  503  0.47382227018E+02 -0.52914511941E+02 -0.59022225334E+02  0.19491076543E+03  0.17164370768E+03 0.  0.
        -24    2    3    3    0    0  0.77690286002E+02 -0.73732727228E+02 -0.10529534417E+02  0.13387300991E+03  0.79616682190E+02 0.  0.
          6    2    1    2  501    0 -0.47382227018E+02  0.52914511941E+02  0.25546410232E+03  0.31617535183E+03  0.17222056939E+03 0.  0.
         24    2    5    5    0    0 -0.14952517611E+02  0.18641498693E+02  0.25515341621E+03  0.26875687426E+03  0.80968564273E+02 0.  0.
          5    1    5    5  501    0 -0.32429709407E+02  0.34273013248E+02  0.31068610813E+00  0.47418477571E+02  0.47000000000E+01 0. -1.
        -13    1    6    6    0    0 -0.23104529245E+02  0.33870877583E+02  0.59017846082E+02  0.71862102502E+02  0.00000000000E+00 0.  1.
         14    1    6    6    0    0  0.81520116334E+01 -0.15229378890E+02  0.19613557013E+03  0.19689477175E+03  0.00000000000E+00 0. -1.
         -5    1    3    3    0  503 -0.30308058984E+02  0.20818215288E+02 -0.48492690917E+02  0.61037755525E+02  0.47000000000E+01 0.  1.
         11    1    4    4    0    0  0.10179164957E+02 -0.43632556945E+02  0.25596034057E+02  0.51600120002E+02  0.00000000000E+00 0. -1.
        -12    1    4    4    0    0  0.67511121045E+02 -0.30100170283E+02 -0.36125568474E+02  0.82272889905E+02  0.00000000000E+00 0.  1.
<mgrwt>
<rscale>  2 0.18615920E+03</rscale>
<asrwt>0</asrwt>
<pdfrwt beam="1">  1       21 0.54425230E-01 0.18629263E+03</pdfrwt>
<pdfrwt beam="2">  1       21 0.24203403E-01 0.18629263E+03</pdfrwt>
<totfact> 0.51534160E+04</totfact>
</mgrwt>
</event>
<event>
12    1  0.1039378E-001  0.1777318E+03  0.7546771E-02  0.1170083E+00
         21   -1    0    0  503  502  0.00000000000E+00  0.00000000000E+00  0.74254470669E+03  0.74254470669E+03  0.00000000000E+00 0.  1.
         21   -1    0    0  501  503 -0.00000000000E+00 -0.00000000000E+00 -0.43078894636E+02  0.43078894636E+02  0.00000000000E+00 0.  1.
          6    2    1    2  501    0 -0.25397125624E+02 -0.28368750529E+02  0.30303269249E+03  0.35117245283E+03  0.17333054811E+03 0.  0.
         24    2    3    3    0    0  0.19689772532E+02 -0.21314485672E+02  0.61490337785E+02  0.10531194328E+03  0.80421075064E+02 0.  0.
         -6    2    1    2    0  502  0.25397125624E+02  0.28368750529E+02  0.39643311956E+03  0.43445114850E+03  0.17360524805E+03 0.  0.
        -24    2    5    5    0    0 -0.20564540754E+02 -0.98924481625E+01  0.34645121510E+03  0.35636994157E+03  0.80313946129E+02 0.  0.
          5    1    3    3  501    0 -0.45086898155E+02 -0.70542648578E+01  0.24154235471E+03  0.24586050955E+03  0.47000000000E+01 0. -1.
        -11    1    4    4    0    0  0.39625286752E+02 -0.27712584034E+02  0.67952055948E+02  0.83400435080E+02  0.00000000000E+00 0.  1.
         12    1    4    4    0    0 -0.19935514220E+02  0.63980983621E+01 -0.64617181636E+01  0.21911508198E+02  0.00000000000E+00 0. -1.
         -5    1    5    5    0  502  0.45961666378E+02  0.38261198692E+02  0.49981904458E+02  0.78081206925E+02  0.47000000000E+01 0.  1.
         13    1    6    6    0    0 -0.25400979172E+02 -0.41687791472E+02  0.16420738470E+03  0.17131008987E+03  0.00000000000E+00 0. -1.
        -14    1    6    6    0    0  0.48364384178E+01  0.31795343309E+02  0.18224383040E+03  0.18505985170E+03  0.00000000000E+00 0.  1.
<mgrwt>
<rscale>  2 0.17766465E+03</rscale>
<asrwt>0</asrwt>
<pdfrwt beam="1">  1       21 0.11423764E+00 0.17773177E+03</pdfrwt>
<pdfrwt beam="2">  1       21 0.66275228E-02 0.17773177E+03</pdfrwt>
<totfact> 0.99677696E+04</totfact>
</mgrwt>
</event>
<event>
12    1  0.1039378E-001  0.2337147E+03  0.7546771E-02  0.1124076E+00
         21   -1    0    0  503  502  0.00000000000E+00  0.00000000000E+00  0.79182599007E+02  0.79182599007E+02  0.00000000000E+00 0. -1.
         21   -1    0    0  501  503 -0.00000000000E+00 -0.00000000000E+00 -0.92487021109E+03  0.92487021109E+03  0.00000000000E+00 0.  1.
          6    2    1    2  501    0 -0.13874791213E+03 -0.73878843425E+02 -0.67623370204E+03  0.71548205626E+03  0.17295515728E+03 0.  0.
         24    2    3    3    0    0 -0.10081159025E+03 -0.11437069985E+03 -0.57882049767E+03  0.60327609679E+03  0.75267833269E+02 0.  0.
         -6    2    1    2    0  502  0.13874791213E+03  0.73878843425E+02 -0.16945391005E+03  0.28857075384E+03  0.17276974768E+03 0.  0.
        -24    2    5    5    0    0  0.16637508772E+03  0.69046667155E+02 -0.16969034505E+03  0.26013210655E+03  0.80161010432E+02 0.  0.
          5    1    3    3  501    0 -0.37936321888E+02  0.40491856425E+02 -0.97413204369E+02  0.11220595947E+03  0.47000000000E+01 0. -1.
        -13    1    4    4    0    0 -0.58948033764E+02 -0.11305216567E+03 -0.45724787548E+03  0.47469072297E+03  0.00000000000E+00 0.  1.
         14    1    4    4    0    0 -0.41863556482E+02 -0.13185341841E+01 -0.12157262219E+03  0.12858537382E+03  0.00000000000E+00 0. -1.
         -5    1    5    5    0  502 -0.27627175585E+02  0.48321762703E+01  0.23643500397E+00  0.28438647293E+02  0.47000000000E+01 0.  1.
         11    1    6    6    0    0  0.13401803710E+02  0.38872998982E+02 -0.31700785073E+02  0.51919728108E+02  0.00000000000E+00 0. -1.
        -12    1    6    6    0    0  0.15297328401E+03  0.30173668172E+02 -0.13798955998E+03  0.20821237844E+03  0.00000000000E+00 0.  1.
<mgrwt>
<rscale>  2 0.23368038E+03</rscale>
<asrwt>0</asrwt>
<pdfrwt beam="1">  1       21 0.12181939E-01 0.23371468E+03</pdfrwt>
<pdfrwt beam="2">  1       21 0.14228772E+00 0.23371468E+03</pdfrwt>
<totfact> 0.19098833E+04</totfact>
</mgrwt>
</event>
<event>
12    1  0.1039378E-001  0.2029102E+03  0.7546771E-02  0.1147332E+00
         21   -1    0    0  503  502  0.00000000000E+00  0.00000000000E+00  0.11493437275E+03  0.11493437275E+03  0.00000000000E+00 0.  1.
         21   -1    0    0  501  503 -0.00000000000E+00 -0.00000000000E+00 -0.35968975909E+03  0.35968975909E+03  0.00000000000E+00 0.  1.
          6    2    1    2  501    0  0.85997913179E+02 -0.61815476802E+02 -0.10618750956E+03  0.22901598422E+03  0.17307726483E+03 0.  0.
         24    2    3    3    0    0 -0.54363161108E+01 -0.63632332484E+02 -0.89693399893E+02  0.13596941038E+03  0.79775605949E+02 0.  0.
         -6    2    1    2    0  502 -0.85997913179E+02  0.61815476802E+02 -0.13856787677E+03  0.24560814761E+03  0.17293210071E+03 0.  0.
        -24    2    5    5    0    0 -0.13991599207E+02  0.74079064586E+02 -0.28111961296E+02  0.11310190587E+03  0.79487647372E+02 0.  0.
          5    1    3    3  501    0  0.91434229290E+02  0.18168556815E+01 -0.16494109668E+02  0.93046573844E+02  0.47000000000E+01 0. -1.
        -11    1    4    4    0    0  0.21428566967E+02 -0.69555318075E-01  0.16474375061E+01  0.21491914074E+02  0.00000000000E+00 0.  1.
         12    1    4    4    0    0 -0.26864883078E+02 -0.63562777166E+02 -0.91340837400E+02  0.11447749631E+03  0.00000000000E+00 0. -1.
         -5    1    5    5    0  502 -0.72006313972E+02 -0.12263587784E+02 -0.11045591548E+03  0.13250624174E+03  0.47000000000E+01 0.  1.
         13    1    6    6    0    0 -0.16789846296E+02 -0.10301224147E+01  0.18227879983E+02  0.24803542076E+02  0.00000000000E+00 0. -1.
        -14    1    6    6    0    0  0.27982470889E+01  0.75109187001E+02 -0.46339841278E+02  0.88298363792E+02  0.00000000000E+00 0.  1.
<mgrwt>
<rscale>  2 0.20287920E+03</rscale>
<asrwt>0</asrwt>
<pdfrwt beam="1">  1       21 0.17682211E-01 0.20291016E+03</pdfrwt>
<pdfrwt beam="2">  1       21 0.55336885E-01 0.20291016E+03</pdfrwt>
<totfact> 0.88955677E+04</totfact>
</mgrwt>
</event>
<event>
12    1  0.1039378E-001  0.1875427E+03  0.7546771E-02  0.1160965E+00
         21   -1    0    0  503  502  0.00000000000E+00  0.00000000000E+00  0.23348810137E+03  0.23348810137E+03  0.00000000000E+00 0. -1.
         21   -1    0    0  501  503 -0.00000000000E+00 -0.00000000000E+00 -0.19135641167E+03  0.19135641167E+03  0.00000000000E+00 0. -1.
          6    2    1    2  501    0 -0.72172866615E+01  0.72278174603E+02 -0.77988365038E+02  0.20311189102E+03  0.17290468890E+03 0.  0.
         24    2    3    3    0    0  0.16120272311E+02  0.27700404520E+02  0.25127339119E+02  0.88278282316E+02  0.78323025781E+02 0.  0.
         -6    2    1    2    0  502  0.72172866615E+01 -0.72278174603E+02  0.12012005473E+03  0.22173262202E+03  0.17164004302E+03 0.  0.
        -24    2    5    5    0    0  0.51052779361E+02  0.52052787445E+01  0.77780412721E+02  0.12304132935E+03  0.80348583795E+02 0.  0.
          5    1    3    3  501    0 -0.23337558973E+02  0.44577770083E+02 -0.10311570416E+03  0.11483360870E+03  0.47000000000E+01 0. -1.
        -13    1    4    4    0    0 -0.17062556620E+02 -0.89958303446E+01  0.32958517965E+02  0.38187952399E+02  0.00000000000E+00 0.  1.
         14    1    4    4    0    0  0.33182828931E+02  0.36696234865E+02 -0.78311788461E+01  0.50090329917E+02  0.00000000000E+00 0. -1.
         -5    1    5    5    0  502 -0.43835492700E+02 -0.77483453348E+02  0.42339642011E+02  0.98691292668E+02  0.47000000000E+01 0.  1.
         13    1    6    6    0    0  0.56531655373E+02 -0.26490916225E+02  0.43879050477E+02  0.76308372885E+02  0.00000000000E+00 0. -1.
        -14    1    6    6    0    0 -0.54788760122E+01  0.31696194969E+02  0.33901362244E+02  0.46732956464E+02  0.00000000000E+00 0.  1.
<mgrwt>
<rscale>  2 0.18725067E+03</rscale>
<asrwt>0</asrwt>
<pdfrwt beam="1">  1       21 0.35921246E-01 0.18754268E+03</pdfrwt>
<pdfrwt beam="2">  1       21 0.29439448E-01 0.18754268E+03</pdfrwt>
<totfact> 0.82784388E+04</totfact>
</mgrwt>
</event>
<event>
12    1  0.1039378E-001  0.1993864E+03  0.7546771E-02  0.1150319E+00
         21   -1    0    0  501  502  0.00000000000E+00  0.00000000000E+00  0.27908279943E+03  0.27908279943E+03  0.00000000000E+00 0.  1.
         21   -1    0    0  502  503 -0.00000000000E+00 -0.00000000000E+00 -0.16168278990E+03  0.16168278990E+03  0.00000000000E+00 0.  1.
         -6    2    1    2    0  503  0.78632072000E+02  0.59970395328E+02 -0.17680235235E+02  0.20016870275E+03  0.17313424785E+03 0.  0.
        -24    2    3    3    0    0 -0.12039061022E+01 -0.96730284591E+01 -0.39415016199E+02  0.91916771680E+02  0.82462916178E+02 0.  0.
          6    2    1    2  501    0 -0.78632072000E+02 -0.59970395328E+02  0.13508024476E+03  0.24059688658E+03  0.17280259907E+03 0.  0.
         24    2    5    5    0    0 -0.10805199386E+03 -0.84891622111E+02  0.11393974751E+03  0.19637460746E+03  0.81846805132E+02 0.  0.
          5    1    5    5  501    0  0.29419921861E+02  0.24921226783E+02  0.21140497248E+02  0.44222279120E+02  0.47000000000E+01 0. -1.
        -11    1    6    6    0    0 -0.38273723395E+02 -0.69900021944E+02  0.91981656070E+02  0.12170257197E+03  0.00000000000E+00 0.  1.
         12    1    6    6    0    0 -0.69778270466E+02 -0.14991600167E+02  0.21958091442E+02  0.74672035492E+02  0.00000000000E+00 0. -1.
         -5    1    3    3    0  503  0.79835978102E+02  0.69643423787E+02  0.21734780964E+02  0.10825193107E+03  0.47000000000E+01 0.  1.
         11    1    4    4    0    0 -0.30225196216E+02 -0.18121064723E+01  0.11825026696E+02  0.32506575835E+02  0.00000000000E+00 0. -1.
        -12    1    4    4    0    0  0.29021290114E+02 -0.78609219869E+01 -0.51240042895E+02  0.59410195844E+02  0.00000000000E+00 0.  1.
<mgrwt>
<rscale>  2 0.19931434E+03</rscale>
<asrwt>0</asrwt>
<pdfrwt beam="1">  1       21 0.42935815E-01 0.19938636E+03</pdfrwt>
<pdfrwt beam="2">  1       21 0.24874275E-01 0.19938636E+03</pdfrwt>
<totfact> 0.79549238E+04</totfact>
</mgrwt>
</event>
<event>
12    1  0.1039378E-001  0.3083689E+03  0.7546771E-02  0.1081571E+00
         21   -1    0    0  503  502  0.00000000000E+00  0.00000000000E+00  0.29529753606E+03  0.29529753606E+03  0.00000000000E+00 0.  1.
         21   -1    0    0  501  503 -0.00000000000E+00 -0.00000000000E+00 -0.33142635052E+03  0.33142635052E+03  0.00000000000E+00 0. -1.
          6    2    1    2  501    0 -0.20239556028E+03  0.15542186989E+03 -0.80664107810E+02  0.31874457166E+03  0.17312274031E+03 0.  0.
         24    2    3    3    0    0 -0.37103992716E+02  0.76688547903E+02  0.33859823608E+01  0.11723341575E+03  0.80463465228E+02 0.  0.
         -6    2    1    2    0  502  0.20239556028E+03 -0.15542186989E+03  0.44535293354E+02  0.30797931492E+03  0.16657714610E+03 0.  0.
        -24    2    5    5    0    0  0.20127051466E+03 -0.12500090513E+03  0.79419640832E+02  0.26144214136E+03  0.76873061423E+02 0.  0.
          5    1    3    3  501    0 -0.16529156757E+03  0.78733321984E+02 -0.84050090171E+02  0.20151115591E+03  0.47000000000E+01 0. -1.
        -13    1    4    4    0    0 -0.19104028576E+02 -0.14286860508E+02  0.54558910797E+01  0.24471310519E+02  0.00000000000E+00 0.  1.
         14    1    4    4    0    0 -0.17999964139E+02  0.90975408411E+02 -0.20699087189E+01  0.92762105230E+02  0.00000000000E+00 0. -1.
         -5    1    5    5    0  502  0.11250456227E+01 -0.30420964756E+02 -0.34884347478E+02  0.46537173563E+02  0.47000000000E+01 0.  1.
         11    1    6    6    0    0  0.43546659651E+02 -0.20194641110E+00  0.34008867398E+02  0.55253555639E+02  0.00000000000E+00 0. -1.
        -12    1    6    6    0    0  0.15772385501E+03 -0.12479895872E+03  0.45410773434E+02  0.20618858572E+03  0.00000000000E+00 0.  1.
<mgrwt>
<rscale>  2 0.30745825E+03</rscale>
<asrwt>0</asrwt>
<pdfrwt beam="1">  1       21 0.45430390E-01 0.30836894E+03</pdfrwt>
<pdfrwt beam="2">  1       21 0.50988669E-01 0.30836894E+03</pdfrwt>
<totfact> 0.16029481E+04</totfact>
</mgrwt>
</event>
<event>
12    1  0.1039378E-001  0.1762594E+03  0.7546771E-02  0.1171545E+00
         21   -1    0    0  503  502  0.00000000000E+00  0.00000000000E+00  0.52692134776E+03  0.52692134776E+03  0.00000000000E+00 0. -1.
         21   -1    0    0  501  503 -0.00000000000E+00 -0.00000000000E+00 -0.62847212852E+02  0.62847212852E+02  0.00000000000E+00 0. -1.
          6    2    1    2  501    0 -0.19579378764E+02 -0.27432292768E+02  0.15797619399E+03  0.23669361679E+03  0.17300724725E+03 0.  0.
         24    2    3    3    0    0 -0.73408633189E+02 -0.30186118516E+02  0.13664193056E+03  0.17853510078E+03  0.83088722739E+02 0.  0.
         -6    2    1    2    0  502  0.19579378764E+02  0.27432292768E+02  0.30609794092E+03  0.35307494382E+03  0.17271387831E+03 0.  0.
        -24    2    5    5    0    0  0.51831675589E+02 -0.36387374953E+02  0.20182181007E+03  0.22654920690E+03  0.81129134581E+02 0.  0.
          5    1    3    3  501    0  0.53829254425E+02  0.27538257485E+01  0.21334263431E+02  0.58158516009E+02  0.47000000000E+01 0. -1.
        -11    1    4    4    0    0 -0.52395428149E+02 -0.48985497242E+02  0.13162077179E+03  0.14989625545E+03  0.00000000000E+00 0.  1.
         12    1    4    4    0    0 -0.21013205040E+02  0.18799378726E+02  0.50211587670E+01  0.28638845331E+02  0.00000000000E+00 0. -1.
         -5    1    5    5    0  502 -0.32252296825E+02  0.63819667720E+02  0.10427613085E+03  0.12652573692E+03  0.47000000000E+01 0.  1.
         11    1    6    6    0    0 -0.18817357222E+02 -0.86634720356E+01  0.83092565342E+02  0.85635991823E+02  0.00000000000E+00 0. -1.
        -12    1    6    6    0    0  0.70649032811E+02 -0.27723902917E+02  0.11872924473E+03  0.14091321508E+03  0.00000000000E+00 0.  1.
<mgrwt>
<rscale>  2 0.17618741E+03</rscale>
<asrwt>0</asrwt>
<pdfrwt beam="1">  1       21 0.81064820E-01 0.17625944E+03</pdfrwt>
<pdfrwt beam="2">  1       21 0.96688023E-02 0.17625944E+03</pdfrwt>
<totfact> 0.11566207E+05</totfact>
</mgrwt>
</event>
<event>
12    1  0.1039378E-001  0.1860024E+03  0.7546771E-02  0.1162310E+00
         21   -1    0    0  501  502  0.00000000000E+00  0.00000000000E+00  0.71122308142E+02  0.71122308142E+02  0.00000000000E+00 0.  1.
         21   -1    0    0  502  503 -0.00000000000E+00 -0.00000000000E+00 -0.51398404502E+03  0.51398404502E+03  0.00000000000E+00 0.  1.
         -6    2    1    2    0  503 -0.49486231465E+02  0.47874645911E+02 -0.29129908247E+03  0.34517276216E+03  0.17189593208E+03 0.  0.
        -24    2    3    3    0    0 -0.33144263104E+01  0.74148628532E+02 -0.84121170801E+02  0.13124068220E+03  0.68108301638E+02 0.  0.
          6    2    1    2  501    0  0.49486231465E+02 -0.47874645911E+02 -0.15156265441E+03  0.23993359100E+03  0.17278894945E+03 0.  0.
         24    2    5    5    0    0  0.72457518179E+02 -0.67032158383E+02 -0.54252456729E+02  0.13802159529E+03  0.79769853371E+02 0.  0.
          5    1    5    5  501    0 -0.22971286714E+02  0.19157512472E+02 -0.97310197680E+02  0.10191199571E+03  0.47000000000E+01 0. -1.
        -13    1    6    6    0    0 -0.11141444412E+02 -0.83841282935E+01  0.10188818930E+02  0.17269551877E+02  0.00000000000E+00 0.  1.
         14    1    6    6    0    0  0.83598962592E+02 -0.58648030090E+02 -0.64441275659E+02  0.12075204341E+03  0.00000000000E+00 0. -1.
         -5    1    3    3    0  503 -0.46171805154E+02 -0.26273982621E+02 -0.20717791167E+03  0.21393207996E+03  0.47000000000E+01 0.  1.
         11    1    4    4    0    0  0.27513166482E+02  0.10989076920E+02 -0.32907843890E+02  0.44279344292E+02  0.00000000000E+00 0. -1.
        -12    1    4    4    0    0 -0.30827592793E+02  0.63159551611E+02 -0.51213326912E+02  0.86961337906E+02  0.00000000000E+00 0.  1.
<mgrwt>
<rscale>  2 0.18579472E+03</rscale>
<asrwt>0</asrwt>
<pdfrwt beam="1">  1       21 0.10941894E-01 0.18600239E+03</pdfrwt>
<pdfrwt beam="2">  1       21 0.79074468E-01 0.18600239E+03</pdfrwt>
<totfact> 0.97938649E+04</totfact>
</mgrwt>
</event>
<event>
12    1  0.1039378E-001  0.1888649E+03  0.7546771E-02  0.1159628E+00
         21   -1    0    0  501  502  0.00000000000E+00  0.00000000000E+00  0.74995306349E+03  0.74995306349E+03  0.00000000000E+00 0.  1.
         21   -1    0    0  502  503 -0.00000000000E+00 -0.00000000000E+00 -0.53256107738E+02  0.53256107738E+02  0.00000000000E+00 0.  1.
         -6    2    1    2    0  503  0.75262795130E+02 -0.42086735997E+01  0.21578447727E+03  0.28676277636E+03  0.17316970870E+03 0.  0.
        -24    2    3    3    0    0 -0.69026433423E+01  0.44238255107E+01  0.17629788939E+03  0.19507330072E+03  0.83098917761E+02 0.  0.
          6    2    1    2  501    0 -0.75262795130E+02  0.42086735997E+01  0.48091247849E+03  0.51644639487E+03  0.17250468269E+03 0.  0.
         24    2    5    5    0    0 -0.75254770873E+02  0.63433741850E+02  0.31965661837E+03  0.34459427474E+03  0.82932143163E+02 0.  0.
          5    1    5    5  501    0 -0.80242565683E-02 -0.59225068250E+02  0.16125586011E+03  0.17185212013E+03  0.47000000000E+01 0. -1.
        -11    1    6    6    0    0 -0.52679965473E+02  0.12574499512E+02  0.68379958648E+02  0.87230244440E+02  0.00000000000E+00 0.  1.
         12    1    6    6    0    0 -0.22574805400E+02  0.50859242338E+02  0.25127665972E+03  0.25736403030E+03  0.00000000000E+00 0. -1.
         -5    1    3    3    0  503  0.82165438472E+02 -0.86324991104E+01  0.39486587876E+02  0.91689475635E+02  0.47000000000E+01 0.  1.
         13    1    4    4    0    0  0.30324164956E+02  0.24249062739E+02  0.10837961975E+03  0.11512477579E+03  0.00000000000E+00 0. -1.
        -14    1    4    4    0    0 -0.37226808298E+02 -0.19825237228E+02  0.67918269641E+02  0.79948524929E+02  0.00000000000E+00 0.  1.
<mgrwt>
<rscale>  2 0.18871232E+03</rscale>
<asrwt>0</asrwt>
<pdfrwt beam="1">  1       21 0.11537739E+00 0.18886490E+03</pdfrwt>
<pdfrwt beam="2">  1       21 0.81932479E-02 0.18886490E+03</pdfrwt>
<totfact> 0.67071273E+04</totfact>
</mgrwt>
</event>
<event>
12    1  0.1039378E-001  0.2850174E+03  0.7546771E-02  0.1093830E+00
         21   -1    0    0  503  502  0.00000000000E+00  0.00000000000E+00  0.11347537647E+03  0.11347537647E+03  0.00000000000E+00 0. -1.
         21   -1    0    0  501  503 -0.00000000000E+00 -0.00000000000E+00 -0.94769043936E+03  0.94769043936E+03  0.00000000000E+00 0.  1.
          6    2    1    2  501    0  0.14703181658E+03  0.17327872548E+03 -0.69169852819E+03  0.74811883120E+03  0.17202052174E+03 0.  0.
         24    2    3    3    0    0  0.16680910430E+03  0.11750254527E+03 -0.60081030532E+03  0.63956063277E+03  0.80203831568E+02 0.  0.
         -6    2    1    2    0  502 -0.14703181658E+03 -0.17327872548E+03 -0.14251653470E+03  0.31304698463E+03  0.16138023463E+03 0.  0.
        -24    2    5    5    0    0 -0.14785056117E+03 -0.15997928248E+03 -0.16644933421E+03  0.28525464001E+03  0.78814145490E+02 0.  0.
          5    1    3    3  501    0 -0.19777287716E+02  0.55776180207E+02 -0.90888222877E+02  0.10855819843E+03  0.47000000000E+01 0. -1.
        -11    1    4    4    0    0  0.86005131374E+02  0.55988928404E+02 -0.18530015784E+03  0.21182018606E+03  0.00000000000E+00 0.  1.
         12    1    4    4    0    0  0.80803972924E+02  0.61513616870E+02 -0.41551014748E+03  0.42774044672E+03  0.00000000000E+00 0. -1.
         -5    1    5    5    0  502  0.81874458574E+00 -0.13299443003E+02  0.23932799511E+02  0.27792344617E+02  0.47000000000E+01 0.  1.
         13    1    6    6    0    0 -0.41628656978E+02 -0.53430218981E+02 -0.10000501566E+03  0.12078384221E+03  0.00000000000E+00 0. -1.
        -14    1    6    6    0    0 -0.10622190419E+03 -0.10654906350E+03 -0.66444318552E+02  0.16447079780E+03  0.00000000000E+00 0.  1.
<mgrwt>
<rscale>  2 0.28343104E+03</rscale>
<asrwt>0</asrwt>
<pdfrwt beam="1">  1       21 0.17457750E-01 0.28501742E+03</pdfrwt>
<pdfrwt beam="2">  1       21 0.14579853E+00 0.28501742E+03</pdfrwt>
<totfact> 0.90157624E+03</totfact>
</mgrwt>
</event>
<event>
12    1  0.1039378E-001  0.2873150E+03  0.7546771E-02  0.1091772E+00
         21   -1    0    0  501  502  0.00000000000E+00  0.00000000000E+00  0.20105570250E+03  0.20105570250E+03  0.00000000000E+00 0. -1.
         21   -1    0    0  502  503 -0.00000000000E+00 -0.00000000000E+00 -0.47537457032E+03  0.47537457032E+03  0.00000000000E+00 0.  1.
         -6    2    1    2    0  503 -0.28522016699E+02  0.22505819016E+03 -0.26213603708E+03  0.38885713609E+03  0.17615299021E+03 0.  0.
        -24    2    3    3    0    0 -0.26259645915E+02  0.30347623527E+02 -0.11327930804E+03  0.14370873438E+03  0.78800072660E+02 0.  0.
          6    2    1    2  501    0  0.28522016699E+02 -0.22505819016E+03 -0.12182830744E+02  0.28757313673E+03  0.17630993509E+03 0.  0.
         24    2    5    5    0    0  0.81661434807E+02 -0.19276357712E+03  0.74921693844E+00  0.22388587234E+03  0.79359535724E+02 0.  0.
          5    1    5    5  501    0 -0.53139418108E+02 -0.32294613035E+02 -0.12932047683E+02  0.63687264387E+02  0.47000000000E+01 0. -1.
        -13    1    6    6    0    0  0.69059384172E+01 -0.49059674755E+01 -0.18936146552E+02  0.20744593236E+02  0.00000000000E+00 0.  1.
         14    1    6    6    0    0  0.74755496390E+02 -0.18785760964E+03  0.19685363490E+02  0.20314127911E+03  0.00000000000E+00 0. -1.
         -5    1    3    3    0  503 -0.22623707844E+01  0.19471056663E+03 -0.14885672904E+03  0.24514840170E+03  0.47000000000E+01 0.  1.
         11    1    4    4    0    0  0.22751768305E+02  0.15477777032E+01 -0.65808822764E+02  0.69647970038E+02  0.00000000000E+00 0. -1.
        -12    1    4    4    0    0 -0.49011414220E+02  0.28799845824E+02 -0.47470485274E+02  0.74060764345E+02  0.00000000000E+00 0.  1.
<mgrwt>
<rscale>  2 0.28729089E+03</rscale>
<asrwt>0</asrwt>
<pdfrwt beam="1">  1       21 0.30931647E-01 0.28731496E+03</pdfrwt>
<pdfrwt beam="2">  1       21 0.73134548E-01 0.28731496E+03</pdfrwt>
<totfact> 0.16053109E+04</totfact>
</mgrwt>
</event>
<event>
12    1  0.1039378E-001  0.2255966E+03  0.7546771E-02  0.1129843E+00
         21   -1    0    0  503  502  0.00000000000E+00  0.00000000000E+00  0.10609949503E+04  0.10609949503E+04  0.00000000000E+00 0.  1.
         21   -1    0    0  501  503 -0.00000000000E+00 -0.00000000000E+00 -0.58024221895E+02  0.58024221895E+02  0.00000000000E+00 0. -1.
          6    2    1    2  501    0 -0.14187863292E+03  0.34524490223E+02  0.26734588977E+03  0.34957930256E+03  0.17149453954E+03 0.  0.
         24    2    3    3    0    0 -0.12928124020E+02 -0.12063859894E+02  0.12232853375E+03  0.14995257173E+03  0.84904831977E+02 0.  0.
         -6    2    1    2    0  502  0.14187863292E+03 -0.34524490223E+02  0.73562483860E+03  0.76943986960E+03  0.17196605150E+03 0.  0.
        -24    2    5    5    0    0  0.15871346917E+03 -0.17899495077E+02  0.47417724325E+03  0.50688180500E+03  0.81084825988E+02 0.  0.
          5    1    3    3  501    0 -0.12895050890E+03  0.46588350117E+02  0.14501735602E+03  0.19962673083E+03  0.47000000000E+01 0. -1.
        -13    1    4    4    0    0 -0.49123460587E+02 -0.40400691133E+01  0.76529854549E+02  0.91028870012E+02  0.00000000000E+00 0.  1.
         14    1    4    4    0    0  0.36195336566E+02 -0.80237907806E+01  0.45798679199E+02  0.58923701717E+02  0.00000000000E+00 0. -1.
         -5    1    5    5    0  502 -0.16834836245E+02 -0.16624995147E+02  0.26144759535E+03  0.26255806460E+03  0.47000000000E+01 0.  1.
         11    1    6    6    0    0  0.71955565039E+02 -0.17527664671E+02  0.11066666933E+03  0.13316130846E+03  0.00000000000E+00 0. -1.
        -12    1    6    6    0    0  0.86757904127E+02 -0.37183040575E+00  0.36351057392E+03  0.37372049654E+03  0.00000000000E+00 0.  1.
<mgrwt>
<rscale>  2 0.22550671E+03</rscale>
<asrwt>0</asrwt>
<pdfrwt beam="1">  1       21 0.16322998E+00 0.22559656E+03</pdfrwt>
<pdfrwt beam="2">  1       21 0.89268041E-02 0.22559656E+03</pdfrwt>
<totfact> 0.23128408E+04</totfact>
</mgrwt>
</event>
<event>
12    1  0.1039378E-001  0.2116876E+03  0.7546771E-02  0.1140340E+00
         21   -1    0    0  501  502  0.00000000000E+00  0.00000000000E+00  0.12520233239E+03  0.12520233239E+03  0.00000000000E+00 0.  1.
         21   -1    0    0  502  503 -0.00000000000E+00 -0.00000000000E+00 -0.58250588524E+03  0.58250588524E+03  0.00000000000E+00 0.  1.
         -6    2    1    2    0  503 -0.11288398441E+03 -0.44868684547E+02 -0.44863421345E+03  0.49584316935E+03  0.17271884185E+03 0.  0.
        -24    2    3    3    0    0 -0.56957575166E+02 -0.94190334035E+02 -0.28390554409E+03  0.31496195732E+03  0.80515167509E+02 0.  0.
          6    2    1    2  501    0  0.11288398441E+03  0.44868684547E+02 -0.86693394031E+01  0.21186504827E+03  0.17336564955E+03 0.  0.
         24    2    5    5    0    0  0.63331549652E+02 -0.40944412422E+02 -0.20514497813E+02  0.11195644414E+03  0.80162776105E+02 0.  0.
          5    1    5    5  501    0  0.49552434762E+02  0.85813096969E+02  0.11845158410E+02  0.99908604134E+02  0.47000000000E+01 0. -1.
        -13    1    6    6    0    0  0.68960795601E+02 -0.16334459546E+02  0.10849186145E+02  0.71694565615E+02  0.00000000000E+00 0.  1.
         14    1    6    6    0    0 -0.56292459493E+01 -0.24609952876E+02 -0.31363683959E+02  0.40261878521E+02  0.00000000000E+00 0. -1.
         -5    1    3    3    0  503 -0.55926409249E+02  0.49321649488E+02 -0.16472866935E+03  0.18088121203E+03  0.47000000000E+01 0.  1.
         11    1    4    4    0    0 -0.31842354604E+02 -0.19636995596E+01 -0.30534260653E+02  0.44160307249E+02  0.00000000000E+00 0. -1.
        -12    1    4    4    0    0 -0.25115220562E+02 -0.92226634476E+02 -0.25337128344E+03  0.27080165007E+03  0.00000000000E+00 0.  1.
<mgrwt>
<rscale>  2 0.21155513E+03</rscale>
<asrwt>0</asrwt>
<pdfrwt beam="1">  1       21 0.19261897E-01 0.21168760E+03</pdfrwt>
<pdfrwt beam="2">  1       21 0.89616291E-01 0.21168760E+03</pdfrwt>
<totfact> 0.25984575E+04</totfact>
</mgrwt>
</event>
<event>
12    1  0.1039378E-001  0.2547669E+03  0.7546771E-02  0.1110330E+00
         21   -1    0    0  501  502  0.00000000000E+00  0.00000000000E+00  0.16384300008E+04  0.16384300008E+04  0.00000000000E+00 0. -1.
         21   -1    0    0  502  503 -0.00000000000E+00 -0.00000000000E+00 -0.70911992815E+02  0.70911992815E+02  0.00000000000E+00 0.  1.
         -6    2    1    2    0  503  0.17956659882E+03  0.52659617708E+02  0.21596088785E+03  0.33398393700E+03  0.17288425708E+03 0.  0.
        -24    2    3    3    0    0  0.17442268036E+03  0.93459886166E+02  0.18099285014E+03  0.27979929467E+03  0.79819870648E+02 0.  0.
          6    2    1    2  501    0 -0.17956659882E+03 -0.52659617708E+02  0.13515571202E+04  0.13753580566E+04  0.17287549320E+03 0.  0.
         24    2    5    5    0    0 -0.21607071494E+02  0.25934776505E-02  0.33222251475E+03  0.34250296102E+03  0.80433907358E+02 0.  0.
          5    1    5    5  501    0 -0.15795952733E+03 -0.52662211186E+02  0.10193346054E+04  0.10328550956E+04  0.47000000000E+01 0. -1.
        -11    1    6    6    0    0 -0.27305579024E+01 -0.12820065812E+02  0.43109789511E+01  0.13798354011E+02  0.00000000000E+00 0.  1.
         12    1    6    6    0    0 -0.18876513591E+02  0.12822659290E+02  0.32791153580E+03  0.32870460701E+03  0.00000000000E+00 0. -1.
         -5    1    3    3    0  503  0.51439184616E+01 -0.40800268458E+02  0.34968037705E+02  0.54184642329E+02  0.47000000000E+01 0.  1.
         13    1    4    4    0    0  0.15722272775E+03  0.84576217570E+02  0.11825092298E+03  0.21413874821E+03  0.00000000000E+00 0. -1.
        -14    1    4    4    0    0  0.17199952612E+02  0.88836685954E+01  0.62741927165E+02  0.65660546464E+02  0.00000000000E+00 0.  1.
<mgrwt>
<rscale>  2 0.25476540E+03</rscale>
<asrwt>0</asrwt>
<pdfrwt beam="1">  1       21 0.25206613E+00 0.25476688E+03</pdfrwt>
<pdfrwt beam="2">  1       21 0.10909539E-01 0.25476688E+03</pdfrwt>
<totfact> 0.42439122E+03</totfact>
</mgrwt>
</event>
<event>
12    1  0.1039378E-001  0.1977164E+03  0.7546771E-02  0.1153225E+00
         21   -1    0    0  503  502  0.00000000000E+00  0.00000000000E+00  0.74976659561E+02  0.74976659561E+02  0.00000000000E+00 0. -1.
         21   -1    0    0  501  503 -0.00000000000E+00 -0.00000000000E+00 -0.54465311158E+03  0.54465311158E+03  0.00000000000E+00 0.  1.
          6    2    1    2  501    0  0.16973629302E+02  0.74138365588E+02 -0.14511298652E+03  0.23958608747E+03  0.17481165038E+03 0.  0.
         24    2    3    3    0    0  0.20017037311E+02 -0.27605502677E+02 -0.76875258383E+02  0.11695022566E+03  0.81269947516E+02 0.  0.
         -6    2    1    2    0  502 -0.16973629302E+02 -0.74138365588E+02 -0.32456346551E+03  0.38004368367E+03  0.18250248496E+03 0.  0.
        -24    2    5    5    0    0  0.76634578810E+01 -0.53147522754E+02 -0.33217133735E+03  0.34646435578E+03  0.82561278487E+02 0.  0.
          5    1    3    3  501    0 -0.30434080084E+01  0.10174386826E+03 -0.68237728133E+02  0.12263586181E+03  0.47000000000E+01 0. -1.
        -11    1    4    4    0    0  0.39718336110E+02 -0.14977633807E+02 -0.82591388213E+02  0.92861257501E+02  0.00000000000E+00 0.  1.
         12    1    4    4    0    0 -0.19701298800E+02 -0.12627868870E+02  0.57161298303E+01  0.24088968156E+02  0.00000000000E+00 0. -1.
         -5    1    5    5    0  502 -0.24637087183E+02 -0.20990842834E+02  0.76078718474E+01  0.33579327894E+02  0.47000000000E+01 0.  1.
         11    1    6    6    0    0  0.17066749776E+02  0.16972816431E+02 -0.13155271110E+03  0.13373655537E+03  0.00000000000E+00 0. -1.
        -12    1    6    6    0    0 -0.94032918952E+01 -0.70120339185E+02 -0.20061862626E+03  0.21272780041E+03  0.00000000000E+00 0.  1.
<mgrwt>
<rscale>  2 0.19592309E+03</rscale>
<asrwt>0</asrwt>
<pdfrwt beam="1">  1       21 0.11534871E-01 0.19771636E+03</pdfrwt>
<pdfrwt beam="2">  1       21 0.83792787E-01 0.19771636E+03</pdfrwt>
<totfact> 0.77791579E+04</totfact>
</mgrwt>
</event>
<event>
12    1  0.1039378E-001  0.2843767E+03  0.7546771E-02  0.1093363E+00
         21   -1    0    0  503  502  0.00000000000E+00  0.00000000000E+00  0.55148523347E+02  0.55148523347E+02  0.00000000000E+00 0. -1.
         21   -1    0    0  501  503 -0.00000000000E+00 -0.00000000000E+00 -0.15400954065E+04  0.15400954065E+04  0.00000000000E+00 0.  1.
          6    2    1    2  501    0  0.13903848030E+03 -0.17667605680E+03 -0.91841794779E+03  0.96134714251E+03  0.17363949299E+03 0.  0.
         24    2    3    3    0    0  0.10458298557E+03 -0.18266905474E+03 -0.88232365679E+03  0.91086957339E+03  0.82962400913E+02 0.  0.
         -6    2    1    2    0  502 -0.13903848030E+03  0.17667605680E+03 -0.56652893533E+03  0.63389678731E+03  0.17413780275E+03 0.  0.
        -24    2    5    5    0    0 -0.11560464742E+03  0.41052668081E+02 -0.28902985987E+03  0.32410544629E+03  0.80351256085E+02 0.  0.
          5    1    3    3  501    0  0.34455494726E+02  0.59929979379E+01 -0.36094291007E+02  0.50477569121E+02  0.47000000000E+01 0. -1.
        -11    1    4    4    0    0 -0.66214932457E+01 -0.36356234900E+02 -0.23791214441E+03  0.24076504823E+03  0.00000000000E+00 0.  1.
         12    1    4    4    0    0  0.11120447882E+03 -0.14631281984E+03 -0.64441151237E+03  0.67010452516E+03  0.00000000000E+00 0. -1.
         -5    1    5    5    0  502 -0.23433832874E+02  0.13562338872E+03 -0.27749907546E+03  0.30979134102E+03  0.47000000000E+01 0.  1.
         13    1    6    6    0    0 -0.21811742249E+02  0.32237576196E+02 -0.32110041158E+02  0.50458578677E+02  0.00000000000E+00 0. -1.
        -14    1    6    6    0    0 -0.93792905173E+02  0.88150918848E+01 -0.25691981871E+03  0.27364686761E+03  0.00000000000E+00 0.  1.
<mgrwt>
<rscale>  2 0.28430044E+03</rscale>
<asrwt>0</asrwt>
<pdfrwt beam="1">  1       21 0.84843890E-02 0.28437669E+03</pdfrwt>
<pdfrwt beam="2">  1       21 0.23693773E+00 0.28437669E+03</pdfrwt>
<totfact> 0.80046328E+03</totfact>
</mgrwt>
</event>
<event>
12    1  0.1039378E-001  0.2113772E+03  0.7546771E-02  0.1140488E+00
         21   -1    0    0  503  502  0.00000000000E+00  0.00000000000E+00  0.76862620131E+02  0.76862620131E+02  0.00000000000E+00 0. -1.
         21   -1    0    0  501  503 -0.00000000000E+00 -0.00000000000E+00 -0.58119832071E+03  0.58119832071E+03  0.00000000000E+00 0. -1.
          6    2    1    2  501    0 -0.66224403512E+02  0.10142203421E+03 -0.25141055572E+03  0.32843777303E+03  0.17318199267E+03 0.  0.
         24    2    3    3    0    0 -0.27533519329E+02  0.23988798436E+02 -0.33605991039E+02  0.94015485447E+02  0.79849807346E+02 0.  0.
         -6    2    1    2    0  502  0.66224403512E+02 -0.10142203421E+03 -0.25292514486E+03  0.32962316781E+03  0.17322875977E+03 0.  0.
        -24    2    5    5    0    0  0.86568838920E+02 -0.11101213604E+03 -0.13802538374E+03  0.21244846400E+03  0.79154817180E+02 0.  0.
          5    1    3    3  501    0 -0.38690884183E+02  0.77433235773E+02 -0.21780456468E+03  0.23442228758E+03  0.47000000000E+01 0. -1.
        -13    1    4    4    0    0 -0.25091476665E+02  0.50995798595E+02 -0.92818134529E+01  0.57587374802E+02  0.00000000000E+00 0.  1.
         14    1    4    4    0    0 -0.24420426644E+01 -0.27007000159E+02 -0.24324177586E+02  0.36428110646E+02  0.00000000000E+00 0. -1.
         -5    1    5    5    0  502 -0.20344435408E+02  0.95901018289E+01 -0.11489976112E+03  0.11717470380E+03  0.47000000000E+01 0.  1.
         11    1    6    6    0    0  0.84614301376E+02 -0.10511038740E+03 -0.14826132794E+03  0.20047242928E+03  0.00000000000E+00 0. -1.
        -12    1    6    6    0    0  0.19545375441E+01 -0.59017486335E+01  0.10235944207E+02  0.11976034726E+02  0.00000000000E+00 0.  1.
<mgrwt>
<rscale>  2 0.21136758E+03</rscale>
<asrwt>0</asrwt>
<pdfrwt beam="1">  1       21 0.11825018E-01 0.21137716E+03</pdfrwt>
<pdfrwt beam="2">  1       21 0.89415128E-01 0.21137716E+03</pdfrwt>
<totfact> 0.63687973E+04</totfact>
</mgrwt>
</event>
<event>
12    1  0.1039378E-001  0.2503254E+03  0.7546771E-02  0.1113478E+00
         21   -1    0    0  501  502  0.00000000000E+00  0.00000000000E+00  0.17538560180E+03  0.17538560180E+03  0.00000000000E+00 0. -1.
         21   -1    0    0  502  503 -0.00000000000E+00 -0.00000000000E+00 -0.74471048243E+03  0.74471048243E+03  0.00000000000E+00 0.  1.
         -6    2    1    2    0  503  0.15548798522E+03  0.76593067371E+02 -0.61728610399E+03  0.66521749657E+03  0.17728274602E+03 0.  0.
        -24    2    3    3    0    0  0.10974766146E+02  0.55436173676E+02 -0.30686516863E+03  0.32212139960E+03  0.80014683160E+02 0.  0.
          6    2    1    2  501    0 -0.15548798522E+03 -0.76593067371E+02  0.47961223366E+02  0.25487858766E+03  0.18060953458E+03 0.  0.
         24    2    5    5    0    0 -0.13605426237E+03  0.92301955417E+01  0.65159162318E+01  0.15749734960E+03  0.78530243528E+02 0.  0.
          5    1    5    5  501    0 -0.19433722852E+02 -0.85823262913E+02  0.41445307134E+02  0.97381238051E+02  0.47000000000E+01 0. -1.
        -13    1    6    6    0    0 -0.21063445511E+02 -0.26961819599E+02 -0.10410653783E+02  0.35762971983E+02  0.00000000000E+00 0.  1.
         14    1    6    6    0    0 -0.11499081686E+03  0.36192015140E+02  0.16926570015E+02  0.12173437762E+03  0.00000000000E+00 0. -1.
         -5    1    3    3    0  503  0.14451321908E+03  0.21156893695E+02 -0.31042093537E+03  0.34309609697E+03  0.47000000000E+01 0.  1.
         11    1    4    4    0    0  0.43438966049E+01 -0.54515354843E+01  0.19922734667E+01  0.72496779526E+01  0.00000000000E+00 0. -1.
        -12    1    4    4    0    0  0.66308695410E+01  0.60887709160E+02 -0.30885744209E+03  0.31487172165E+03  0.00000000000E+00 0.  1.
<mgrwt>
<rscale>  2 0.24972588E+03</rscale>
<asrwt>0</asrwt>
<pdfrwt beam="1">  1       21 0.26982399E-01 0.25032542E+03</pdfrwt>
<pdfrwt beam="2">  1       21 0.11457085E+00 0.25032542E+03</pdfrwt>
<totfact> 0.74444129E+03</totfact>
</mgrwt>
</event>
<event>
12    1  0.1039378E-001  0.2346160E+03  0.7546771E-02  0.1124790E+00
         21   -1    0    0  501  502  0.00000000000E+00  0.00000000000E+00  0.11493488813E+03  0.11493488813E+03  0.00000000000E+00 0. -1.
         21   -1    0    0  502  503 -0.00000000000E+00 -0.00000000000E+00 -0.78375483018E+03  0.78375483018E+03  0.00000000000E+00 0. -1.
         -6    2    1    2    0  503  0.86816059734E+02  0.13231446474E+03 -0.61843529548E+03  0.65872459286E+03  0.16251685675E+03 0.  0.
        -24    2    3    3    0    0  0.58864542000E+02  0.92363583615E+02 -0.58134938153E+03  0.59728506763E+03  0.82378897317E+02 0.  0.
          6    2    1    2  501    0 -0.86816059734E+02 -0.13231446474E+03 -0.50384646568E+02  0.23996512544E+03  0.17320653282E+03 0.  0.
         24    2    5    5    0    0 -0.97793077905E+02 -0.12855534716E+03  0.75220979353E+01  0.18072065775E+03  0.80705704951E+02 0.  0.
          5    1    5    5  501    0  0.10977018171E+02 -0.37591175820E+01 -0.57906744503E+02  0.59244467690E+02  0.47000000000E+01 0. -1.
        -13    1    6    6    0    0 -0.49417673757E+02 -0.12922862421E+02 -0.15288303197E+02  0.53318280799E+02  0.00000000000E+00 0.  1.
         14    1    6    6    0    0 -0.48375404147E+02 -0.11563248474E+03  0.22810401132E+02  0.12740237696E+03  0.00000000000E+00 0. -1.
         -5    1    3    3    0  503  0.27951517734E+02  0.39950881129E+02 -0.37085913950E+02  0.61439525227E+02  0.47000000000E+01 0.  1.
         11    1    4    4    0    0  0.62009475880E+02  0.58889242970E+02 -0.24974273323E+03  0.26397831509E+03  0.00000000000E+00 0. -1.
        -12    1    4    4    0    0 -0.31449338802E+01  0.33474340646E+02 -0.33160664830E+03  0.33330675254E+03  0.00000000000E+00 0.  1.
<mgrwt>
<rscale>  2 0.23264704E+03</rscale>
<asrwt>0</asrwt>
<pdfrwt beam="1">  1       21 0.17682290E-01 0.23461596E+03</pdfrwt>
<pdfrwt beam="2">  1       21 0.12057767E+00 0.23461596E+03</pdfrwt>
<totfact> 0.14743516E+04</totfact>
</mgrwt>
</event>
<event>
12    1  0.1039378E-001  0.3062848E+03  0.7546771E-02  0.1082647E+00
         21   -1    0    0  503  502  0.00000000000E+00  0.00000000000E+00  0.91999467117E+02  0.91999467117E+02  0.00000000000E+00 0. -1.
         21   -1    0    0  501  503 -0.00000000000E+00 -0.00000000000E+00 -0.11181044395E+04  0.11181044395E+04  0.00000000000E+00 0. -1.
          6    2    1    2  501    0  0.23246940621E+03  0.97491915375E+02 -0.70779332220E+03  0.77122097562E+03  0.17396467429E+03 0.  0.
         24    2    3    3    0    0  0.12354357597E+03  0.61137091695E+02 -0.23039916130E+03  0.28018759126E+03  0.80128357171E+02 0.  0.
         -6    2    1    2    0  502 -0.23246940621E+03 -0.97491915375E+02 -0.31831165021E+03  0.43888293103E+03  0.16658097759E+03 0.  0.
        -24    2    5    5    0    0 -0.13375594641E+03  0.53856999629E+01 -0.20030039624E+03  0.25374272213E+03  0.79658404058E+02 0.  0.
          5    1    3    3  501    0  0.10892583024E+03  0.36354823679E+02 -0.47739416090E+03  0.49103338436E+03  0.47000000000E+01 0. -1.
        -11    1    4    4    0    0 -0.54047883862E+01 -0.35014101038E+01  0.19305101395E+01  0.67229814527E+01  0.00000000000E+00 0.  1.
         12    1    4    4    0    0  0.12894836436E+03  0.64638501799E+02 -0.23232967144E+03  0.27346460980E+03  0.00000000000E+00 0. -1.
         -5    1    5    5    0  502 -0.98713459808E+02 -0.10287761534E+03 -0.11801125397E+03  0.18514020889E+03  0.47000000000E+01 0.  1.
         13    1    6    6    0    0 -0.50873350713E+02  0.75907835010E+01 -0.19809846319E+02  0.55119396024E+02  0.00000000000E+00 0. -1.
        -14    1    6    6    0    0 -0.82882595693E+02 -0.22050835381E+01 -0.18049054993E+03  0.19862332611E+03  0.00000000000E+00 0.  1.
<mgrwt>
<rscale>  2 0.30524640E+03</rscale>
<asrwt>0</asrwt>
<pdfrwt beam="1">  1       21 0.14153765E-01 0.30628485E+03</pdfrwt>
<pdfrwt beam="2">  1       21 0.17201605E+00 0.30628485E+03</pdfrwt>
<totfact> 0.83611807E+03</totfact>
</mgrwt>
</event>
<event>
12    1  0.1039378E-001  0.3057296E+03  0.7546771E-02  0.1082427E+00
         21   -1    0    0  503  502  0.00000000000E+00  0.00000000000E+00  0.22302232105E+03  0.22302232105E+03  0.00000000000E+00 0.  1.
         21   -1    0    0  501  503 -0.00000000000E+00 -0.00000000000E+00 -0.48425769633E+03  0.48425769633E+03  0.00000000000E+00 0.  1.
          6    2    1    2  501    0  0.79981334195E+02  0.23875591925E+03 -0.75012788512E+00  0.30573053691E+03  0.17340471651E+03 0.  0.
         24    2    3    3    0    0 -0.16049811776E+02  0.69717373759E+02  0.21446836423E+02  0.10999907269E+03  0.80757170202E+02 0.  0.
         -6    2    1    2    0  502 -0.79981334195E+02 -0.23875591925E+03 -0.26048524740E+03  0.40154948048E+03  0.17317048930E+03 0.  0.
        -24    2    5    5    0    0 -0.18374815555E+02 -0.22679034635E+03 -0.19145981990E+03  0.30814103485E+03  0.80762241649E+02 0.  0.
          5    1    3    3  501    0  0.96031145971E+02  0.16903854550E+03 -0.22196964308E+02  0.19573146422E+03  0.47000000000E+01 0. -1.
        -13    1    4    4    0    0 -0.19797281758E+02  0.74303156899E+02  0.42686639538E+02  0.87949080070E+02  0.00000000000E+00 0.  1.
         14    1    4    4    0    0  0.37474699818E+01 -0.45857831400E+01 -0.21239803116E+02  0.22049992623E+02  0.00000000000E+00 0. -1.
         -5    1    5    5    0  502 -0.61606518640E+02 -0.11965572901E+02 -0.69025427499E+02  0.93408445631E+02  0.47000000000E+01 0.  1.
         13    1    6    6    0    0  0.26139996360E+02 -0.82820609716E+02 -0.44228323365E+02  0.97461260977E+02  0.00000000000E+00 0. -1.
        -14    1    6    6    0    0 -0.44514811915E+02 -0.14396973664E+03 -0.14723149653E+03  0.21067977387E+03  0.00000000000E+00 0.  1.
<mgrwt>
<rscale>  2 0.30569641E+03</rscale>
<asrwt>0</asrwt>
<pdfrwt beam="1">  1       21 0.34311126E-01 0.30572962E+03</pdfrwt>
<pdfrwt beam="2">  1       21 0.74501184E-01 0.30572962E+03</pdfrwt>
<totfact> 0.12430416E+04</totfact>
</mgrwt>
</event>
<event>
12    1  0.1039378E-001  0.1776695E+03  0.7546771E-02  0.1170292E+00
         21   -1    0    0  501  502  0.00000000000E+00  0.00000000000E+00  0.43168401211E+03  0.43168401211E+03  0.00000000000E+00 0. -1.
         21   -1    0    0  502  503 -0.00000000000E+00 -0.00000000000E+00 -0.72871415128E+02  0.72871415128E+02  0.00000000000E+00 0. -1.
         -6    2    1    2    0  503 -0.32882689326E+02  0.25471485201E+02  0.18935941565E+03  0.25966023023E+03  0.17273210196E+03 0.  0.
        -24    2    3    3    0    0 -0.74284625469E+02  0.54041445059E+02  0.10624766571E+03  0.16239761716E+03  0.81521385071E+02 0.  0.
          6    2    1    2  501    0  0.32882689326E+02 -0.25471485201E+02  0.16945318133E+03  0.24489519701E+03  0.17184065014E+03 0.  0.
         24    2    5    5    0    0  0.81983792350E+02 -0.24881877498E+02  0.15192350934E+03  0.19254402362E+03  0.81559783621E+02 0.  0.
          5    1    5    5  501    0 -0.49101103024E+02 -0.58960770336E+00  0.17529671984E+02  0.52351173390E+02  0.47000000000E+01 0. -1.
        -13    1    6    6    0    0  0.40722987312E+02  0.76816283031E+01  0.12106643104E+02  0.43173370452E+02  0.00000000000E+00 0.  1.
         14    1    6    6    0    0  0.41260805038E+02 -0.32563505801E+02  0.13981686624E+03  0.14937065317E+03  0.00000000000E+00 0. -1.
         -5    1    3    3    0  503  0.41401936143E+02 -0.28569959858E+02  0.83111749943E+02  0.97262613071E+02  0.47000000000E+01 0.  1.
         13    1    4    4    0    0 -0.36246562495E+02  0.60971462015E+02  0.30215667406E+02  0.77099410047E+02  0.00000000000E+00 0. -1.
        -14    1    4    4    0    0 -0.38038062974E+02 -0.69300169552E+01  0.76031998304E+02  0.85298207108E+02  0.00000000000E+00 0.  1.
<mgrwt>
<rscale>  2 0.17745245E+03</rscale>
<asrwt>0</asrwt>
<pdfrwt beam="1">  1       21 0.66412924E-01 0.17766949E+03</pdfrwt>
<pdfrwt beam="2">  1       21 0.11210987E-01 0.17766949E+03</pdfrwt>
<totfact> 0.13850293E+05</totfact>
</mgrwt>
</event>
<event>
12    1  0.1039378E-001  0.2912545E+03  0.7546771E-02  0.1089911E+00
         21   -1    0    0  503  502  0.00000000000E+00  0.00000000000E+00  0.12824083337E+04  0.12824083337E+04  0.00000000000E+00 0.  1.
         21   -1    0    0  501  503 -0.00000000000E+00 -0.00000000000E+00 -0.91940774956E+02  0.91940774956E+02  0.00000000000E+00 0. -1.
          6    2    1    2  501    0 -0.18239678297E+03  0.14545355836E+03  0.22984882229E+03  0.37102514038E+03  0.17436699690E+03 0.  0.
         24    2    3    3    0    0 -0.16247204202E+03  0.12543933329E+03  0.25218117588E+03  0.33471552012E+03  0.79416265120E+02 0.  0.
         -6    2    1    2    0  502  0.18239678297E+03 -0.14545355836E+03  0.96061873648E+03  0.10033239683E+04  0.17159634150E+03 0.  0.
        -24    2    5    5    0    0  0.43969666940E+02 -0.13563630856E+02  0.23062044377E+03  0.24868722338E+03  0.80884128818E+02 0.  0.
          5    1    3    3  501    0 -0.19924740950E+02  0.20014225065E+02 -0.22332353587E+02  0.36309620263E+02  0.47000000000E+01 0. -1.
        -13    1    4    4    0    0  0.60349971637E+01  0.24197512988E+01 -0.10734216930E+01  0.65900395480E+01  0.00000000000E+00 0.  1.
         14    1    4    4    0    0 -0.16850703918E+03  0.12301958199E+03  0.25325459757E+03  0.32812548057E+03  0.00000000000E+00 0. -1.
         -5    1    5    5    0  502  0.13842711603E+03 -0.13188992750E+03  0.72999829271E+03  0.75463674492E+03  0.47000000000E+01 0.  1.
         13    1    6    6    0    0  0.60879072766E+02  0.22838015285E+00  0.21006628922E+03  0.21871021816E+03  0.00000000000E+00 0. -1.
        -14    1    6    6    0    0 -0.16909405825E+02 -0.13792011009E+02  0.20554154551E+02  0.29977005226E+02  0.00000000000E+00 0.  1.
<mgrwt>
<rscale>  2 0.29084105E+03</rscale>
<asrwt>0</asrwt>
<pdfrwt beam="1">  1       21 0.19729358E+00 0.29125448E+03</pdfrwt>
<pdfrwt beam="2">  1       21 0.14144736E-01 0.29125448E+03</pdfrwt>
<totfact> 0.56683402E+03</totfact>
</mgrwt>
</event>
<event>
12    1  0.1039378E-001  0.2186825E+03  0.7546771E-02  0.1134998E+00
         21   -1    0    0  503  502  0.00000000000E+00  0.00000000000E+00  0.16642717562E+03  0.16642717562E+03  0.00000000000E+00 0. -1.
         21   -1    0    0  501  503 -0.00000000000E+00 -0.00000000000E+00 -0.32684518742E+03  0.32684518742E+03  0.00000000000E+00 0. -1.
          6    2    1    2  501    0 -0.13397222689E+03  0.24945942474E+01 -0.16681080452E+03  0.27449642291E+03  0.17195249666E+03 0.  0.
         24    2    3    3    0    0 -0.10464111878E+02 -0.13255532443E+02 -0.11024313326E+03  0.13765961355E+03  0.80693333021E+02 0.  0.
         -6    2    1    2    0  502  0.13397222689E+03 -0.24945942474E+01  0.63927927165E+01  0.21877594013E+03  0.17282147899E+03 0.  0.
        -24    2    5    5    0    0  0.74088232718E+02  0.64321228165E+02 -0.34493750059E+01  0.12839117842E+03  0.82741222426E+02 0.  0.
          5    1    3    3  501    0 -0.12350811501E+03  0.15750126690E+02 -0.56567671262E+02  0.13683680936E+03  0.47000000000E+01 0. -1.
        -11    1    4    4    0    0 -0.18538306879E+02 -0.33390523841E+02 -0.10948259688E+03  0.11595272711E+03  0.00000000000E+00 0.  1.
         12    1    4    4    0    0  0.80741950006E+01  0.20134991398E+02 -0.76053638305E+00  0.21706886444E+02  0.00000000000E+00 0. -1.
         -5    1    5    5    0  502  0.59883994173E+02 -0.66815822413E+02  0.98421677223E+01  0.90384761704E+02  0.47000000000E+01 0.  1.
         13    1    6    6    0    0  0.12312051580E+02 -0.19496612867E+02  0.60382360576E+01  0.23836208215E+02  0.00000000000E+00 0. -1.
        -14    1    6    6    0    0  0.61776181138E+02  0.83817841032E+02 -0.94876110635E+01  0.10455497021E+03  0.00000000000E+00 0.  1.
<mgrwt>
<rscale>  2 0.21851079E+03</rscale>
<asrwt>0</asrwt>
<pdfrwt beam="1">  1       21 0.25604181E-01 0.21868252E+03</pdfrwt>
<pdfrwt beam="2">  1       21 0.50283874E-01 0.21868252E+03</pdfrwt>
<totfact> 0.53834227E+04</totfact>
</mgrwt>
</event>
<event>
12    1  0.1039378E-001  0.3331677E+03  0.7546771E-02  0.1069799E+00
         21   -1    0    0  501  502  0.00000000000E+00  0.00000000000E+00  0.43786663831E+03  0.43786663831E+03  0.00000000000E+00 0. -1.
         21   -1    0    0  502  503 -0.00000000000E+00 -0.00000000000E+00 -0.28901328608E+03  0.28901328608E+03  0.00000000000E+00 0.  1.
         -6    2    1    2    0  503  0.42565667798E+02  0.28137021532E+03  0.20245442993E+03  0.38942803507E+03  0.17229441127E+03 0.  0.
        -24    2    3    3    0    0  0.88135192554E+01  0.27365304402E+03  0.14071310922E+03  0.31848550236E+03  0.81664983214E+02 0.  0.
          6    2    1    2  501    0 -0.42565667798E+02 -0.28137021532E+03 -0.53601077700E+02  0.33745188932E+03  0.17326184789E+03 0.  0.
         24    2    5    5    0    0  0.23314257564E+02 -0.23582593044E+03 -0.67207020426E+02  0.25607831789E+03  0.70013550293E+02 0.  0.
          5    1    5    5  501    0 -0.65879925361E+02 -0.45544284876E+02  0.13605942726E+02  0.81373571434E+02  0.47000000000E+01 0. -1.
        -11    1    6    6    0    0  0.31203507411E+02 -0.53873615161E+02 -0.34052167152E+02  0.70961788119E+02  0.00000000000E+00 0.  1.
         12    1    6    6    0    0 -0.78892498475E+01 -0.18195231528E+03 -0.33154853274E+02  0.18511652977E+03  0.00000000000E+00 0. -1.
         -5    1    3    3    0  503  0.33752148542E+02  0.77171712950E+01  0.61741320708E+02  0.70942532707E+02  0.47000000000E+01 0.  1.
         13    1    4    4    0    0  0.14826040801E+02  0.75680736634E+02  0.80481863383E+02  0.11146620886E+03  0.00000000000E+00 0. -1.
        -14    1    4    4    0    0 -0.60125215459E+01  0.19797230739E+03  0.60231245838E+02  0.20701929350E+03  0.00000000000E+00 0.  1.
<mgrwt>
<rscale>  2 0.33304209E+03</rscale>
<asrwt>0</asrwt>
<pdfrwt beam="1">  1       21 0.67364098E-01 0.33316768E+03</pdfrwt>
<pdfrwt beam="2">  1       21 0.44463582E-01 0.33316768E+03</pdfrwt>
<totfact> 0.90763469E+03</totfact>
</mgrwt>
</event>
<event>
12    1  0.1039378E-001  0.1935760E+03  0.7546771E-02  0.1155701E+00
         21   -1    0    0  503  502  0.00000000000E+00  0.00000000000E+00  0.32042863323E+03  0.32042863323E+03  0.00000000000E+00 0. -1.
         21   -1    0    0  501  503 -0.00000000000E+00 -0.00000000000E+00 -0.23245941628E+03  0.23245941628E+03  0.00000000000E+00 0. -1.
          6    2    1    2  501    0 -0.71462104052E+02 -0.48402016960E+02 -0.15175696363E+03  0.24597119078E+03  0.17326875980E+03 0.  0.
         24    2    3    3    0    0 -0.10693683981E+03 -0.70887517323E+02 -0.11259489259E+03  0.18835337746E+03  0.79616940047E+02 0.  0.
         -6    2    1    2    0  502  0.71462104052E+02  0.48402016960E+02  0.23972618058E+03  0.30691685874E+03  0.17111320510E+03 0.  0.
        -24    2    5    5    0    0 -0.14481881831E+02  0.63674250002E+02  0.11340374842E+03  0.15329701406E+03  0.79846285759E+02 0.  0.
          5    1    3    3  501    0  0.35474735762E+02  0.22485500364E+02 -0.39162071032E+02  0.57617813317E+02  0.47000000000E+01 0. -1.
        -13    1    4    4    0    0 -0.10075846272E+03 -0.37345438851E+02 -0.11057466496E+03  0.15418724377E+03  0.00000000000E+00 0.  1.
         14    1    4    4    0    0 -0.61783770978E+01 -0.33542078473E+02 -0.20202276384E+01  0.34166133693E+02  0.00000000000E+00 0. -1.
         -5    1    5    5    0  502  0.85943985883E+02 -0.15272233042E+02  0.12632243215E+03  0.15361984467E+03  0.47000000000E+01 0.  1.
         13    1    6    6    0    0 -0.31488251190E+02  0.16448808694E+02  0.92200913149E+02  0.98808307626E+02  0.00000000000E+00 0. -1.
        -14    1    6    6    0    0  0.17006369358E+02  0.47225441308E+02  0.21202835274E+02  0.54488706437E+02  0.00000000000E+00 0.  1.
<mgrwt>
<rscale>  2 0.19309239E+03</rscale>
<asrwt>0</asrwt>
<pdfrwt beam="1">  1       21 0.49296713E-01 0.19357596E+03</pdfrwt>
<pdfrwt beam="2">  1       21 0.35762987E-01 0.19357596E+03</pdfrwt>
<totfact> 0.29574834E+04</totfact>
</mgrwt>
</event>
<event>
12    1  0.1039378E-001  0.2195387E+03  0.7546771E-02  0.1134638E+00
         21   -1    0    0  503  502  0.00000000000E+00  0.00000000000E+00  0.13294248171E+03  0.13294248171E+03  0.00000000000E+00 0. -1.
         21   -1    0    0  501  503 -0.00000000000E+00 -0.00000000000E+00 -0.53659777954E+03  0.53659777954E+03  0.00000000000E+00 0. -1.
          6    2    1    2  501    0  0.12110664278E+02  0.13476518822E+03 -0.39512487348E+03  0.45201868452E+03  0.17288406915E+03 0.  0.
         24    2    3    3    0    0 -0.78299460183E+01 -0.13397458956E+01 -0.14302975161E+03  0.16479712979E+03  0.81470738107E+02 0.  0.
         -6    2    1    2    0  502 -0.12110664278E+02 -0.13476518822E+03 -0.85304243459E+01  0.21752157673E+03  0.17010156982E+03 0.  0.
        -24    2    5    5    0    0  0.13846832436E+02 -0.11271777613E+03  0.51660361078E+02  0.14820418594E+03  0.79991599551E+02 0.  0.
          5    1    3    3  501    0  0.19940610296E+02  0.13610493412E+03 -0.25209512187E+03  0.28722155473E+03  0.47000000000E+01 0. -1.
        -13    1    4    4    0    0  0.17192512339E+02  0.30995914513E+02 -0.96776426181E+02  0.10306311591E+03  0.00000000000E+00 0.  1.
         14    1    4    4    0    0 -0.25022458357E+02 -0.32335660409E+02 -0.46253325432E+02  0.61734013881E+02  0.00000000000E+00 0. -1.
         -5    1    5    5    0  502 -0.25957496714E+02 -0.22047412088E+02 -0.60190785424E+02  0.69317390786E+02  0.47000000000E+01 0.  1.
         13    1    6    6    0    0 -0.28780935326E+01 -0.76479805130E+02 -0.74344986921E+01  0.76894185644E+02  0.00000000000E+00 0. -1.
        -14    1    6    6    0    0  0.16724925969E+02 -0.36237971004E+02  0.59094859770E+02  0.71310000298E+02  0.00000000000E+00 0.  1.
<mgrwt>
<rscale>  2 0.21899051E+03</rscale>
<asrwt>0</asrwt>
<pdfrwt beam="1">  1       21 0.20452689E-01 0.21953867E+03</pdfrwt>
<pdfrwt beam="2">  1       21 0.82553506E-01 0.21953867E+03</pdfrwt>
<totfact> 0.27934008E+04</totfact>
</mgrwt>
</event>
<event>
12    1  0.1039378E-001  0.1795400E+03  0.7546771E-02  0.1168479E+00
         21   -1    0    0  503  502  0.00000000000E+00  0.00000000000E+00  0.48865846707E+02  0.48865846707E+02  0.00000000000E+00 0.  1.
         21   -1    0    0  501  503 -0.00000000000E+00 -0.00000000000E+00 -0.80060946483E+03  0.80060946483E+03  0.00000000000E+00 0.  1.
          6    2    1    2  501    0  0.47759241031E+02  0.30783737745E+01 -0.55545642237E+03  0.58346166194E+03  0.17206176892E+03 0.  0.
         24    2    3    3    0    0 -0.19479810283E+02  0.28573486234E+02 -0.42625228272E+03  0.43551947566E+03  0.82403264685E+02 0.  0.
         -6    2    1    2    0  502 -0.47759241031E+02 -0.30783737745E+01 -0.19628719575E+03  0.26601364959E+03  0.17304385878E+03 0.  0.
        -24    2    5    5    0    0 -0.77776579957E+02  0.36578062437E+01 -0.20499540950E+03  0.23369740377E+03  0.80800882875E+02 0.  0.
          5    1    3    3  501    0  0.67239051314E+02 -0.25495112460E+02 -0.12920413964E+03  0.14794218628E+03  0.47000000000E+01 0. -1.
        -11    1    4    4    0    0 -0.33297516916E+02  0.52193589513E+02 -0.28640477991E+03  0.29301978324E+03  0.00000000000E+00 0.  1.
         12    1    4    4    0    0  0.13817706633E+02 -0.23620103279E+02 -0.13984750282E+03  0.14249969242E+03  0.00000000000E+00 0. -1.
         -5    1    5    5    0  502  0.30017338926E+02 -0.67361800182E+01  0.87082137486E+01  0.32316245824E+02  0.47000000000E+01 0.  1.
         13    1    6    6    0    0  0.59865975934E+01 -0.94997745139E+01 -0.90660545715E+02  0.91353268227E+02  0.00000000000E+00 0. -1.
        -14    1    6    6    0    0 -0.83763177550E+02  0.13157580758E+02 -0.11433486379E+03  0.14234413554E+03  0.00000000000E+00 0.  1.
<mgrwt>
<rscale>  2 0.17930290E+03</rscale>
<asrwt>0</asrwt>
<pdfrwt beam="1">  1       21 0.75178232E-02 0.17953996E+03</pdfrwt>
<pdfrwt beam="2">  1       21 0.12317068E+00 0.17953996E+03</pdfrwt>
<totfact> 0.66591452E+04</totfact>
</mgrwt>
</event>
<event>
12    1  0.1039378E-001  0.2297938E+03  0.7546771E-02  0.1127282E+00
         21   -1    0    0  501  502  0.00000000000E+00  0.00000000000E+00  0.26667711110E+04  0.26667711110E+04  0.00000000000E+00 0.  1.
         21   -1    0    0  502  503 -0.00000000000E+00 -0.00000000000E+00 -0.22361121600E+02  0.22361121600E+02  0.00000000000E+00 0.  1.
         -6    2    1    2    0  503  0.34169926660E+02 -0.14473353143E+03  0.83928712655E+03  0.86944166656E+03  0.17149504880E+03 0.  0.
        -24    2    3    3    0    0 -0.18698545491E+02 -0.86713950241E+02  0.69405756459E+03  0.70429003074E+03  0.80247116246E+02 0.  0.
          6    2    1    2  501    0 -0.34169926660E+02  0.14473353143E+03  0.18051228628E+04  0.18196905660E+04  0.17518512241E+03 0.  0.
         24    2    5    5    0    0  0.40684500049E+02  0.97171437212E+02  0.84798879876E+03  0.85844499666E+03  0.82129730956E+02 0.  0.
          5    1    5    5  501    0 -0.74854426709E+02  0.47562094222E+02  0.95713406409E+03  0.96124556937E+03  0.47000000000E+01 0. -1.
        -11    1    6    6    0    0 -0.22514657875E+02  0.48386938902E+02  0.37153106832E+03  0.37534456224E+03  0.00000000000E+00 0.  1.
         12    1    6    6    0    0  0.63199157923E+02  0.48784498310E+02  0.47645773044E+03  0.48310043442E+03  0.00000000000E+00 0. -1.
         -5    1    3    3    0  503  0.52868472151E+02 -0.58019581193E+02  0.14522956196E+03  0.16515163582E+03  0.47000000000E+01 0.  1.
         11    1    4    4    0    0 -0.10369821962E+02  0.39842382209E+01  0.12704436688E+02  0.16876316935E+02  0.00000000000E+00 0. -1.
        -12    1    4    4    0    0 -0.83287235283E+01 -0.90698188462E+02  0.68135312790E+03  0.68741371381E+03  0.00000000000E+00 0.  1.
<mgrwt>
<rscale>  2 0.22909046E+03</rscale>
<asrwt>0</asrwt>
<pdfrwt beam="1">  1       21 0.41027223E+00 0.22979383E+03</pdfrwt>
<pdfrwt beam="2">  1       21 0.34401747E-02 0.22979383E+03</pdfrwt>
<totfact> 0.36083740E+03</totfact>
</mgrwt>
</event>
<event>
12    1  0.1039378E-001  0.1744250E+03  0.7546771E-02  0.1173568E+00
         21   -1    0    0  501  502  0.00000000000E+00  0.00000000000E+00  0.22789256818E+03  0.22789256818E+03  0.00000000000E+00 0.  1.
         21   -1    0    0  502  503 -0.00000000000E+00 -0.00000000000E+00 -0.44697000605E+03  0.44697000605E+03  0.00000000000E+00 0. -1.
         -6    2    1    2    0  503  0.56136102658E+01 -0.19384236477E+02 -0.39237514148E+03  0.42898422692E+03  0.17222646152E+03 0.  0.
        -24    2    3    3    0    0  0.98284793472E+01  0.53223414014E+02 -0.17159608479E+03  0.19648666155E+03  0.78945937479E+02 0.  0.
          6    2    1    2  501    0 -0.56136102658E+01  0.19384236477E+02  0.17329770362E+03  0.24587834731E+03  0.17325358972E+03 0.  0.
         24    2    5    5    0    0 -0.46895720233E+02  0.20411599286E+02  0.18019781060E+03  0.20374795977E+03  0.80163197320E+02 0.  0.
          5    1    5    5  501    0  0.41282109967E+02 -0.10273628095E+01 -0.69001069796E+01  0.42130387537E+02  0.47000000000E+01 0. -1.
        -13    1    6    6    0    0 -0.53656145480E+02 -0.48640857958E+01  0.59588123900E+02  0.80332968253E+02  0.00000000000E+00 0.  1.
         14    1    6    6    0    0  0.67604252464E+01  0.25275685082E+02  0.12060968670E+03  0.12341499152E+03  0.00000000000E+00 0. -1.
         -5    1    3    3    0  503 -0.42148690814E+01 -0.72607650490E+02 -0.22077905669E+03  0.23249756537E+03  0.47000000000E+01 0.  1.
         11    1    4    4    0    0  0.40879355731E+02  0.49864246362E+02 -0.11663100219E+03  0.13326798363E+03  0.00000000000E+00 0. -1.
        -12    1    4    4    0    0 -0.31050876384E+02  0.33591676517E+01 -0.54965082609E+02  0.63218677918E+02  0.00000000000E+00 0.  1.
<mgrwt>
<rscale>  2 0.17416935E+03</rscale>
<asrwt>0</asrwt>
<pdfrwt beam="1">  1       21 0.35060396E-01 0.17442496E+03</pdfrwt>
<pdfrwt beam="2">  1       21 0.68764615E-01 0.17442496E+03</pdfrwt>
<totfact> 0.15291150E+04</totfact>
</mgrwt>
</event>
<event>
12    1  0.1039378E-001  0.2051920E+03  0.7546771E-02  0.1145538E+00
         21   -1    0    0  503  502  0.00000000000E+00  0.00000000000E+00  0.74854845242E+02  0.74854845242E+02  0.00000000000E+00 0. -1.
         21   -1    0    0  501  503 -0.00000000000E+00 -0.00000000000E+00 -0.66969032757E+03  0.66969032757E+03  0.00000000000E+00 0. -1.
          6    2    1    2  501    0  0.15652791625E+02 -0.10698243615E+03 -0.44704909293E+03  0.49167249739E+03  0.17377773642E+03 0.  0.
         24    2    3    3    0    0  0.39501892541E+02  0.93925329866E+00 -0.16034565160E+03  0.18436674747E+03  0.81970042544E+02 0.  0.
         -6    2    1    2    0  502 -0.15652791625E+02  0.10698243615E+03 -0.14778638940E+03  0.25287267542E+03  0.17439472914E+03 0.  0.
        -24    2    5    5    0    0 -0.73821310334E+02  0.75589004970E+02 -0.88595832209E+02  0.16402034765E+03  0.88826625654E+02 0.  0.
          5    1    3    3  501    0 -0.23849100916E+02 -0.10792168945E+03 -0.28670344132E+03  0.30730574992E+03  0.47000000000E+01 0. -1.
        -13    1    4    4    0    0  0.17496022916E+02  0.19552540791E+01  0.44067419145E+01  0.18148091103E+02  0.00000000000E+00 0.  1.
         14    1    4    4    0    0  0.22005869625E+02 -0.10160007804E+01 -0.16475239352E+03  0.16621865637E+03  0.00000000000E+00 0. -1.
         -5    1    5    5    0  502  0.58168518709E+02  0.31393431177E+02 -0.59190557191E+02  0.88852327772E+02  0.47000000000E+01 0.  1.
         11    1    6    6    0    0 -0.38073337616E+02  0.90344264277E+02 -0.52945919338E+02  0.11142232945E+03  0.00000000000E+00 0. -1.
        -12    1    6    6    0    0 -0.35747972718E+02 -0.14755259307E+02 -0.35649912871E+02  0.52598018198E+02  0.00000000000E+00 0.  1.
<mgrwt>
<rscale>  2 0.20506088E+03</rscale>
<asrwt>0</asrwt>
<pdfrwt beam="1">  1       21 0.11516130E-01 0.20519204E+03</pdfrwt>
<pdfrwt beam="2">  1       21 0.10302928E+00 0.20519204E+03</pdfrwt>
<totfact> 0.47975277E+04</totfact>
</mgrwt>
</event>
<event>
12    1  0.1039378E-001  0.2244645E+03  0.7546771E-02  0.1130857E+00
         21   -1    0    0  501  502  0.00000000000E+00  0.00000000000E+00  0.22485958726E+03  0.22485958726E+03  0.00000000000E+00 0.  1.
         21   -1    0    0  502  503 -0.00000000000E+00 -0.00000000000E+00 -0.23308050348E+03  0.23308050348E+03  0.00000000000E+00 0.  1.
         -6    2    1    2    0  503 -0.12776913964E+03  0.63004518941E+02  0.44313100027E+02  0.22879675002E+03  0.17346405833E+03 0.  0.
        -24    2    3    3    0    0 -0.28122498581E+02  0.86903127324E+02  0.24133059575E+02  0.12425048949E+03  0.80701617756E+02 0.  0.
          6    2    1    2  501    0  0.12776913964E+03 -0.63004518941E+02 -0.52534016255E+02  0.22914334073E+03  0.17161679779E+03 0.  0.
         24    2    5    5    0    0  0.11418914073E+03 -0.10248801200E+02  0.16909074710E+02  0.14075773665E+03  0.79891337654E+02 0.  0.
          5    1    5    5  501    0  0.13579998912E+02 -0.52755717741E+02 -0.69443090965E+02  0.88385604074E+02  0.47000000000E+01 0. -1.
        -13    1    6    6    0    0  0.95015877656E+02 -0.34890369772E+02 -0.69578965824E+01  0.10145820437E+03  0.00000000000E+00 0.  1.
         14    1    6    6    0    0  0.19173263077E+02  0.24641568572E+02  0.23866971292E+02  0.39299532279E+02  0.00000000000E+00 0. -1.
         -5    1    3    3    0  503 -0.99646641064E+02 -0.23898608383E+02  0.20180040453E+02  0.10454626053E+03  0.47000000000E+01 0.  1.
         11    1    4    4    0    0 -0.94667603331E+01 -0.14997829827E+02  0.78045775253E+01  0.19376941995E+02  0.00000000000E+00 0. -1.
        -12    1    4    4    0    0 -0.18655738248E+02  0.10190095715E+03  0.16328482050E+02  0.10487354749E+03  0.00000000000E+00 0.  1.
<mgrwt>
<rscale>  2 0.22410751E+03</rscale>
<asrwt>0</asrwt>
<pdfrwt beam="1">  1       21 0.34593783E-01 0.22446448E+03</pdfrwt>
<pdfrwt beam="2">  1       21 0.35858539E-01 0.22446448E+03</pdfrwt>
<totfact> 0.59542222E+04</totfact>
</mgrwt>
</event>
<event>
12    1  0.1039378E-001  0.2013091E+03  0.7546771E-02  0.1149012E+00
         21   -1    0    0  501  502  0.00000000000E+00  0.00000000000E+00  0.62079702280E+03  0.62079702280E+03  0.00000000000E+00 0. -1.
         21   -1    0    0  502  503 -0.00000000000E+00 -0.00000000000E+00 -0.65113114191E+02  0.65113114191E+02  0.00000000000E+00 0. -1.
         -6    2    1    2    0  503 -0.73594932441E+02 -0.70038543523E+02  0.24949127150E+03  0.31946874596E+03  0.17173460172E+03 0.  0.
        -24    2    3    3    0    0 -0.10910433881E+03 -0.39428225944E+02  0.22663337406E+03  0.26710002477E+03  0.80755156156E+02 0.  0.
          6    2    1    2  501    0  0.73594932441E+02  0.70038543523E+02  0.30619263711E+03  0.36644139103E+03  0.17379226215E+03 0.  0.
         24    2    5    5    0    0 -0.88152160872E+01  0.58562732341E+02  0.89102951068E+02  0.13390505278E+03  0.80522826688E+02 0.  0.
          5    1    5    5  501    0  0.82410148528E+02  0.11475811182E+02  0.21708968604E+03  0.23253633825E+03  0.47000000000E+01 0. -1.
        -11    1    6    6    0    0 -0.17318034779E+02  0.39900871364E+01  0.74758201167E+02  0.76841549735E+02  0.00000000000E+00 0.  1.
         12    1    6    6    0    0  0.85028186916E+01  0.54572645205E+02  0.14344749901E+02  0.57063503048E+02  0.00000000000E+00 0. -1.
         -5    1    3    3    0  503  0.35509406373E+02 -0.30610317579E+02  0.22857897443E+02  0.52368721186E+02  0.47000000000E+01 0.  1.
         11    1    4    4    0    0  0.10441060463E+02 -0.75776092712E+01  0.61793099034E+01  0.14304536928E+02  0.00000000000E+00 0. -1.
        -12    1    4    4    0    0 -0.11954539928E+03 -0.31850616673E+02  0.22045406415E+03  0.25279548784E+03  0.00000000000E+00 0.  1.
<mgrwt>
<rscale>  2 0.20086422E+03</rscale>
<asrwt>0</asrwt>
<pdfrwt beam="1">  1       21 0.95507230E-01 0.20130912E+03</pdfrwt>
<pdfrwt beam="2">  1       21 0.10017403E-01 0.20130912E+03</pdfrwt>
<totfact> 0.73711558E+04</totfact>
</mgrwt>
</event>
<event>
12    1  0.1039378E-001  0.1957799E+03  0.7546771E-02  0.1153712E+00
         21   -1    0    0  503  502  0.00000000000E+00  0.00000000000E+00  0.31307114631E+02  0.31307114631E+02  0.00000000000E+00 0. -1.
         21   -1    0    0  501  503 -0.00000000000E+00 -0.00000000000E+00 -0.20245819149E+04  0.20245819149E+04  0.00000000000E+00 0. -1.
          6    2    1    2  501    0 -0.89531572056E+02 -0.12199155652E+01 -0.16445419818E+04  0.16559585795E+04  0.17222977773E+03 0.  0.
         24    2    3    3    0    0 -0.46933082531E+02 -0.37467974734E+02 -0.55929107169E+03  0.56925706523E+03  0.87410182888E+02 0.  0.
         -6    2    1    2    0  502  0.89531572056E+02  0.12199155652E+01 -0.34873281846E+03  0.39993045008E+03  0.17410455377E+03 0.  0.
        -24    2    5    5    0    0  0.73672203589E+02 -0.60261892258E+02 -0.17890175039E+03  0.21855731552E+03  0.81868031803E+02 0.  0.
          5    1    3    3  501    0 -0.42598489525E+02  0.36248059169E+02 -0.10852509101E+04  0.10867015142E+04  0.47000000000E+01 0. -1.
        -13    1    4    4    0    0 -0.38579290774E+01 -0.42395858937E+02 -0.11114983371E+03  0.11902343469E+03  0.00000000000E+00 0.  1.
         14    1    4    4    0    0 -0.43075153454E+02  0.49278842031E+01 -0.44814123798E+03  0.45023363054E+03  0.00000000000E+00 0. -1.
         -5    1    5    5    0  502  0.15859368467E+02  0.61481807823E+02 -0.16983106807E+03  0.18137313457E+03  0.47000000000E+01 0.  1.
         11    1    6    6    0    0  0.37068186709E+02 -0.56746073029E+02 -0.49229169849E+02  0.83771584885E+02  0.00000000000E+00 0. -1.
        -12    1    6    6    0    0  0.36604016879E+02 -0.35158192293E+01 -0.12967258054E+03  0.13478573063E+03  0.00000000000E+00 0.  1.
<mgrwt>
<rscale>  2 0.19536228E+03</rscale>
<asrwt>0</asrwt>
<pdfrwt beam="1">  1       21 0.48164787E-02 0.19577994E+03</pdfrwt>
<pdfrwt beam="2">  1       21 0.31147417E+00 0.19577994E+03</pdfrwt>
<totfact> 0.83716740E+03</totfact>
</mgrwt>
</event>
<event>
12    1  0.1039378E-001  0.2792875E+03  0.7546771E-02  0.1096266E+00
         21   -1    0    0  501  502  0.00000000000E+00  0.00000000000E+00  0.15777442624E+03  0.15777442624E+03  0.00000000000E+00 0. -1.
         21   -1    0    0  502  503 -0.00000000000E+00 -0.00000000000E+00 -0.12693768699E+04  0.12693768699E+04  0.00000000000E+00 0.  1.
         -6    2    1    2    0  503  0.16438971753E+03  0.14284842018E+03 -0.11137014063E+04  0.11478558653E+04  0.17266329858E+03 0.  0.
        -24    2    3    3    0    0  0.10311534653E+03  0.39055734933E+02 -0.36664088830E+03  0.39112012698E+03  0.79945529191E+02 0.  0.
          6    2    1    2  501    0 -0.16438971753E+03 -0.14284842018E+03  0.20989627258E+01  0.27929543078E+03  0.17484816738E+03 0.  0.
         24    2    5    5    0    0 -0.86502792104E+02 -0.78953853311E+02 -0.64888096857E+02  0.15822419151E+03  0.84308870657E+02 0.  0.
          5    1    5    5  501    0 -0.77886925426E+02 -0.63894566865E+02  0.66987059583E+02  0.12107123927E+03  0.47000000000E+01 0. -1.
        -11    1    6    6    0    0 -0.61208768621E+01 -0.46383780682E+02  0.47092913729E+01  0.47022310334E+02  0.00000000000E+00 0.  1.
         12    1    6    6    0    0 -0.80381915242E+02 -0.32570072629E+02 -0.69597388230E+02  0.11120188118E+03  0.00000000000E+00 0. -1.
         -5    1    3    3    0  503  0.61274370996E+02  0.10379268524E+03 -0.74706051805E+03  0.75673573834E+03  0.47000000000E+01 0.  1.
         11    1    4    4    0    0  0.97666254325E+02  0.14922945871E+02 -0.34283138712E+03  0.35678390034E+03  0.00000000000E+00 0. -1.
        -12    1    4    4    0    0  0.54490922086E+01  0.24132789062E+02 -0.23809501182E+02  0.34336226647E+02  0.00000000000E+00 0.  1.
<mgrwt>
<rscale>  2 0.27894626E+03</rscale>
<asrwt>0</asrwt>
<pdfrwt beam="1">  1       21 0.24272988E-01 0.27928754E+03</pdfrwt>
<pdfrwt beam="2">  1       21 0.19528875E+00 0.27928754E+03</pdfrwt>
<totfact> 0.21425619E+03</totfact>
</mgrwt>
</event>
<event>
12    1  0.1039378E-001  0.1794570E+03  0.7546771E-02  0.1168792E+00
         21   -1    0    0  501  502  0.00000000000E+00  0.00000000000E+00  0.21736194810E+04  0.21736194810E+04  0.00000000000E+00 0.  1.
         21   -1    0    0  502  503 -0.00000000000E+00 -0.00000000000E+00 -0.15991634998E+02  0.15991634998E+02  0.00000000000E+00 0.  1.
         -6    2    1    2    0  503 -0.32111973775E+02  0.24098523074E+02  0.76817942908E+03  0.78886276351E+03  0.17490828087E+03 0.  0.
        -24    2    3    3    0    0 -0.22027443574E+02 -0.69157477754E+01  0.17064954399E+03  0.19042510065E+03  0.81286015144E+02 0.  0.
          6    2    1    2  501    0  0.32111973775E+02 -0.24098523074E+02  0.13894484169E+04  0.14007483524E+04  0.17296567878E+03 0.  0.
         24    2    5    5    0    0  0.50474775011E+02 -0.67568848241E+02  0.11922361331E+04  0.11979143402E+04  0.80364900835E+02 0.  0.
          5    1    5    5  501    0 -0.18362801237E+02  0.43470325168E+02  0.19721228379E+03  0.20283401223E+03  0.47000000000E+01 0. -1.
        -13    1    6    6    0    0  0.22544693200E+02 -0.34402274509E+02  0.10001364108E+04  0.10009818279E+04  0.00000000000E+00 0.  1.
         14    1    6    6    0    0  0.27930081811E+02 -0.33166573732E+02  0.19209972232E+03  0.19693251229E+03  0.00000000000E+00 0. -1.
         -5    1    3    3    0  503 -0.10084530200E+02  0.31014270849E+02  0.59752988509E+03  0.59843766286E+03  0.47000000000E+01 0.  1.
         11    1    4    4    0    0  0.30952548189E+02 -0.26357083728E+01  0.70625336410E+02  0.77155332551E+02  0.00000000000E+00 0. -1.
        -12    1    4    4    0    0 -0.52979991763E+02 -0.42800394026E+01  0.10002420758E+03  0.11326976810E+03  0.00000000000E+00 0.  1.
<mgrwt>
<rscale>  2 0.17898194E+03</rscale>
<asrwt>0</asrwt>
<pdfrwt beam="1">  1       21 0.33440276E+00 0.17945703E+03</pdfrwt>
<pdfrwt beam="2">  1       21 0.24602533E-02 0.17945703E+03</pdfrwt>
<totfact> 0.19223502E+04</totfact>
</mgrwt>
</event>
<event>
12    1  0.1039378E-001  0.1888665E+03  0.7546771E-02  0.1159624E+00
         21   -1    0    0  501  502  0.00000000000E+00  0.00000000000E+00  0.35524852318E+03  0.35524852318E+03  0.00000000000E+00 0.  1.
         21   -1    0    0  502  503 -0.00000000000E+00 -0.00000000000E+00 -0.11763230225E+03  0.11763230225E+03  0.00000000000E+00 0.  1.
         -6    2    1    2    0  503  0.25491067039E+02 -0.71188061081E+02  0.27342882023E+02  0.19024071244E+03  0.17241334326E+03 0.  0.
        -24    2    3    3    0    0  0.21376243982E+02 -0.87923098389E+02 -0.35341976486E+02  0.12506038774E+03  0.78763127429E+02 0.  0.
          6    2    1    2  501    0 -0.25491067039E+02  0.71188061081E+02  0.21027333891E+03  0.28264011298E+03  0.17306941344E+03 0.  0.
         24    2    5    5    0    0  0.19655909809E+02  0.75121306640E+02  0.20826383941E+03  0.23703476211E+03  0.82353422164E+02 0.  0.
          5    1    5    5  501    0 -0.45146976848E+02 -0.39332455583E+01  0.20094994970E+01  0.45605350863E+02  0.47000000000E+01 0. -1.
        -13    1    6    6    0    0 -0.13413734507E+02  0.65042408825E+02  0.18163945032E+03  0.19339941348E+03  0.00000000000E+00 0.  1.
         14    1    6    6    0    0  0.33069644316E+02  0.10078897815E+02  0.26624389087E+02  0.43635348636E+02  0.00000000000E+00 0. -1.
         -5    1    3    3    0  503  0.41148230568E+01  0.16735037308E+02  0.62684858509E+02  0.65180324706E+02  0.47000000000E+01 0.  1.
         13    1    4    4    0    0  0.16000978257E+02  0.93321890533E+01  0.56741191834E+01  0.19373091808E+02  0.00000000000E+00 0. -1.
        -14    1    4    4    0    0  0.53752657247E+01 -0.97255287443E+02 -0.41016095669E+02  0.10568729593E+03  0.00000000000E+00 0.  1.
<mgrwt>
<rscale>  2 0.18871607E+03</rscale>
<asrwt>0</asrwt>
<pdfrwt beam="1">  1       21 0.54653619E-01 0.18886650E+03</pdfrwt>
<pdfrwt beam="2">  1       21 0.18097277E-01 0.18886650E+03</pdfrwt>
<totfact> 0.88003837E+04</totfact>
</mgrwt>
</event>
<event>
12    1  0.1039378E-001  0.1979644E+03  0.7546771E-02  0.1151781E+00
         21   -1    0    0  501  502  0.00000000000E+00  0.00000000000E+00  0.30023383883E+04  0.30023383883E+04  0.00000000000E+00 0.  1.
         21   -1    0    0  502  503 -0.00000000000E+00 -0.00000000000E+00 -0.14844581109E+02  0.14844581109E+02  0.00000000000E+00 0.  1.
         -6    2    1    2    0  503  0.92326148312E+02  0.11354272851E+02  0.95097289286E+03  0.97106290191E+03  0.17309153454E+03 0.  0.
        -24    2    3    3    0    0  0.82913454690E+02 -0.52948815126E+02  0.74422066714E+03  0.75428638389E+03  0.73520946170E+02 0.  0.
          6    2    1    2  501    0 -0.92326148312E+02 -0.11354272851E+02  0.20365209143E+04  0.20461200675E+04  0.17474798699E+03 0.  0.
         24    2    5    5    0    0 -0.21163200751E+02  0.60900844789E+02  0.11110116160E+04  0.11150591036E+04  0.69664910558E+02 0.  0.
          5    1    5    5  501    0 -0.71162947561E+02 -0.72255117640E+02  0.92550929836E+03  0.93106096390E+03  0.47000000000E+01 0. -1.
        -13    1    6    6    0    0  0.13293591105E+02  0.49374757369E+02  0.84924356318E+03  0.85078153238E+03  0.00000000000E+00 0.  1.
         14    1    6    6    0    0 -0.34456791856E+02  0.11526087420E+02  0.26176805280E+03  0.26427757124E+03  0.00000000000E+00 0. -1.
         -5    1    3    3    0  503  0.94126936221E+01  0.64303087977E+02  0.20675222572E+03  0.21677651802E+03  0.47000000000E+01 0.  1.
         11    1    4    4    0    0 -0.26483386783E+01 -0.18239448636E+02  0.40043301470E+02  0.44081256526E+02  0.00000000000E+00 0. -1.
        -12    1    4    4    0    0  0.85561793369E+02 -0.34709366490E+02  0.70417736567E+03  0.71020512736E+03  0.00000000000E+00 0.  1.
<mgrwt>
<rscale>  2 0.19759820E+03</rscale>
<asrwt>0</asrwt>
<pdfrwt beam="1">  1       21 0.46189773E+00 0.19796438E+03</pdfrwt>
<pdfrwt beam="2">  1       21 0.22837841E-02 0.19796438E+03</pdfrwt>
<totfact> 0.34082948E+03</totfact>
</mgrwt>
</event>
<event>
12    1  0.1039378E-001  0.2991031E+03  0.7546771E-02  0.1085861E+00
         21   -1    0    0  501  502  0.00000000000E+00  0.00000000000E+00  0.14583468776E+04  0.14583468776E+04  0.00000000000E+00 0. -1.
         21   -1    0    0  502  503 -0.00000000000E+00 -0.00000000000E+00 -0.63288939497E+02  0.63288939497E+02  0.00000000000E+00 0.  1.
         -6    2    1    2    0  503 -0.24612328731E+03  0.21533143346E+02  0.55650230744E+03  0.63178910126E+03  0.16858914992E+03 0.  0.
        -24    2    3    3    0    0 -0.72088629149E+02 -0.28670956807E+02  0.16660842551E+03  0.20184975313E+03  0.83463531967E+02 0.  0.
          6    2    1    2  501    0  0.24612328731E+03 -0.21533143346E+02  0.83855563063E+03  0.88984671580E+03  0.16616643206E+03 0.  0.
         24    2    5    5    0    0  0.50518726966E+02 -0.17189605134E+02  0.21911263794E+03  0.24022242320E+03  0.82757719893E+02 0.  0.
          5    1    5    5  501    0  0.19560456034E+03 -0.43435382128E+01  0.61944299269E+03  0.64962429261E+03  0.47000000000E+01 0. -1.
        -13    1    6    6    0    0 -0.12432014820E+02  0.62521575415E+01  0.11807787496E+03  0.11889503363E+03  0.00000000000E+00 0.  1.
         14    1    6    6    0    0  0.62950741786E+02 -0.23441762675E+02  0.10103476298E+03  0.12132738957E+03  0.00000000000E+00 0. -1.
         -5    1    3    3    0  503 -0.17403465816E+03  0.50204100153E+02  0.38989388193E+03  0.42993934814E+03  0.47000000000E+01 0.  1.
         13    1    4    4    0    0 -0.77340916101E+02 -0.47658077147E+02  0.15289103450E+03  0.17784425223E+03  0.00000000000E+00 0. -1.
        -14    1    4    4    0    0  0.52522869521E+01  0.18987120340E+02  0.13717391010E+02  0.24005500894E+02  0.00000000000E+00 0.  1.
<mgrwt>
<rscale>  2 0.29876279E+03</rscale>
<asrwt>0</asrwt>
<pdfrwt beam="1">  1       21 0.22436103E+00 0.29910308E+03</pdfrwt>
<pdfrwt beam="2">  1       21 0.97367610E-02 0.29910308E+03</pdfrwt>
<totfact> 0.74293137E+03</totfact>
</mgrwt>
</event>
<event>
12    1  0.1039378E-001  0.1992313E+03  0.7546771E-02  0.1150517E+00
         21   -1    0    0  501  502  0.00000000000E+00  0.00000000000E+00  0.22849548979E+03  0.22849548979E+03  0.00000000000E+00 0. -1.
         21   -1    0    0  502  503 -0.00000000000E+00 -0.00000000000E+00 -0.36247295793E+03  0.36247295793E+03  0.00000000000E+00 0.  1.
         -6    2    1    2    0  503  0.11461250309E+02 -0.97837363081E+02 -0.28046706993E+03  0.34367851345E+03  0.17248082044E+03 0.  0.
        -24    2    3    3    0    0 -0.30639133608E+02 -0.10723714070E+03 -0.13402105974E+03  0.19093912087E+03  0.77830216312E+02 0.  0.
          6    2    1    2  501    0 -0.11461250309E+02  0.97837363081E+02  0.14648960179E+03  0.24728993426E+03  0.17317505098E+03 0.  0.
         24    2    5    5    0    0  0.19304449268E+02  0.77137190761E+02  0.25629571629E+02  0.12078198078E+03  0.87227312111E+02 0.  0.
          5    1    5    5  501    0 -0.30765699577E+02  0.20700172319E+02  0.12086003016E+03  0.12650795349E+03  0.47000000000E+01 0. -1.
        -13    1    6    6    0    0 -0.95410649864E+01  0.43011140808E+02 -0.27054477792E+02  0.51700434459E+02  0.00000000000E+00 0.  1.
         14    1    6    6    0    0  0.28845514254E+02  0.34126049954E+02  0.52684049422E+02  0.69081546316E+02  0.00000000000E+00 0. -1.
         -5    1    3    3    0  503  0.42100383917E+02  0.93997776155E+01 -0.14644601019E+03  0.15273939258E+03  0.47000000000E+01 0.  1.
         11    1    4    4    0    0 -0.12290295969E+02  0.10450292256E+02 -0.23131885399E+02  0.28201845779E+02  0.00000000000E+00 0. -1.
        -12    1    4    4    0    0 -0.18348837639E+02 -0.11768743295E+03 -0.11088917434E+03  0.16273727509E+03  0.00000000000E+00 0.  1.
<mgrwt>
<rscale>  2 0.19908034E+03</rscale>
<asrwt>0</asrwt>
<pdfrwt beam="1">  1       21 0.35153153E-01 0.19923129E+03</pdfrwt>
<pdfrwt beam="2">  1       21 0.55765070E-01 0.19923129E+03</pdfrwt>
<totfact> 0.23542161E+04</totfact>
</mgrwt>
</event>
<event>
12    1  0.1039378E-001  0.2145543E+03  0.7546771E-02  0.1138578E+00
         21   -1    0    0  503  502  0.00000000000E+00  0.00000000000E+00  0.29811125669E+03  0.29811125669E+03  0.00000000000E+00 0. -1.
         21   -1    0    0  501  503 -0.00000000000E+00 -0.00000000000E+00 -0.15283979642E+03  0.15283979642E+03  0.00000000000E+00 0.  1.
          6    2    1    2  501    0 -0.90110876040E+02  0.82641822596E+02  0.59900969351E+02  0.22275925900E+03  0.17630632580E+03 0.  0.
         24    2    3    3    0    0 -0.22166966848E+02  0.11201959503E+03  0.44488786514E+02  0.14700271678E+03  0.81183634599E+02 0.  0.
         -6    2    1    2    0  502  0.90110876040E+02 -0.82641822596E+02  0.85370490922E+02  0.22819179411E+03  0.17272444343E+03 0.  0.
        -24    2    5    5    0    0  0.10126431199E+03 -0.40826553765E+01  0.69508184274E+02  0.14713844958E+03  0.80914811409E+02 0.  0.
          5    1    3    3  501    0 -0.67943909192E+02 -0.29377772429E+02  0.15412182837E+02  0.75756542219E+02  0.47000000000E+01 0. -1.
        -13    1    4    4    0    0 -0.12932379157E+02  0.17620798215E+02 -0.22123210828E+02  0.31099444010E+02  0.00000000000E+00 0.  1.
         14    1    4    4    0    0 -0.92345876910E+01  0.94398796811E+02  0.66611997343E+02  0.11590327277E+03  0.00000000000E+00 0. -1.
         -5    1    5    5    0  502 -0.11153435952E+02 -0.78559167219E+02  0.15862306648E+02  0.81053344533E+02  0.47000000000E+01 0.  1.
         13    1    6    6    0    0  0.53139504155E+02  0.12369244847E+02  0.78391406272E+02  0.95509254511E+02  0.00000000000E+00 0. -1.
        -14    1    6    6    0    0  0.48124807837E+02 -0.16451900224E+02 -0.88832219979E+01  0.51629195068E+02  0.00000000000E+00 0.  1.
<mgrwt>
<rscale>  2 0.21381717E+03</rscale>
<asrwt>0</asrwt>
<pdfrwt beam="1">  1       21 0.45863270E-01 0.21455433E+03</pdfrwt>
<pdfrwt beam="2">  1       21 0.23513815E-01 0.21455433E+03</pdfrwt>
<totfact> 0.76839510E+04</totfact>
</mgrwt>
</event>
<event>
12    1  0.1039378E-001  0.2126778E+03  0.7546771E-02  0.1139558E+00
         21   -1    0    0  503  502  0.00000000000E+00  0.00000000000E+00  0.32143351521E+02  0.32143351521E+02  0.00000000000E+00 0.  1.
         21   -1    0    0  501  503 -0.00000000000E+00 -0.00000000000E+00 -0.16569994971E+04  0.16569994971E+04  0.00000000000E+00 0. -1.
          6    2    1    2  501    0  0.12106669431E+03 -0.19009023624E+02 -0.11416835300E+04  0.11612341138E+04  0.17321921601E+03 0.  0.
         24    2    3    3    0    0  0.13501311382E+03 -0.30983754838E+01 -0.63724134302E+03  0.65632653670E+03  0.80310974963E+02 0.  0.
         -6    2    1    2    0  502 -0.12106669431E+03  0.19009023624E+02 -0.48317261553E+03  0.52790873483E+03  0.17381993114E+03 0.  0.
        -24    2    5    5    0    0 -0.13394549124E+03  0.61647584965E+02 -0.37894359310E+03  0.41446408119E+03  0.80252155663E+02 0.  0.
          5    1    3    3  501    0 -0.13946419505E+02 -0.15910648140E+02 -0.50444218702E+03  0.50490757707E+03  0.47000000000E+01 0. -1.
        -13    1    4    4    0    0 -0.10425847605E+02 -0.46708732021E+01 -0.56984889071E+02  0.58118782998E+02  0.00000000000E+00 0.  1.
         14    1    4    4    0    0  0.14543896142E+03  0.15724977182E+01 -0.58025645394E+03  0.59820775371E+03  0.00000000000E+00 0. -1.
         -5    1    5    5    0  502  0.12878796924E+02 -0.42638561341E+02 -0.10422902244E+03  0.11344465365E+03  0.47000000000E+01 0.  1.
         13    1    6    6    0    0 -0.43020908879E+02 -0.15048018268E+02 -0.14534355037E+03  0.15232199149E+03  0.00000000000E+00 0. -1.
        -14    1    6    6    0    0 -0.90924582359E+02  0.76695603233E+02 -0.23360004272E+03  0.26214208970E+03  0.00000000000E+00 0.  1.
<mgrwt>
<rscale>  2 0.21255505E+03</rscale>
<asrwt>0</asrwt>
<pdfrwt beam="1">  1       21 0.49451305E-02 0.21267782E+03</pdfrwt>
<pdfrwt beam="2">  1       21 0.25492302E+00 0.21267782E+03</pdfrwt>
<totfact> 0.16753774E+04</totfact>
</mgrwt>
</event>
<event>
12    1  0.1039378E-001  0.2291333E+03  0.7546771E-02  0.1127259E+00
         21   -1    0    0  501  502  0.00000000000E+00  0.00000000000E+00  0.13738302729E+03  0.13738302729E+03  0.00000000000E+00 0. -1.
         21   -1    0    0  502  503 -0.00000000000E+00 -0.00000000000E+00 -0.78085301985E+03  0.78085301985E+03  0.00000000000E+00 0.  1.
         -6    2    1    2    0  503 -0.91292475679E+02 -0.12046574017E+03 -0.64984270683E+03  0.68905559875E+03  0.17220848959E+03 0.  0.
        -24    2    3    3    0    0 -0.28813277149E+02 -0.37016486628E+02 -0.48278576571E+03  0.49208468785E+03  0.82854204619E+02 0.  0.
          6    2    1    2  501    0  0.91292475679E+02  0.12046574017E+03  0.63727142705E+01  0.22918044839E+03  0.17215329147E+03 0.  0.
         24    2    5    5    0    0  0.51591407772E+02  0.78445234662E+02  0.70205801878E+02  0.14293283537E+03  0.81765595539E+02 0.  0.
          5    1    5    5  501    0  0.39701067907E+02  0.42020505512E+02 -0.63833087607E+02  0.86247613010E+02  0.47000000000E+01 0. -1.
        -11    1    6    6    0    0 -0.14924646207E+02  0.16068929734E+02 -0.74480414212E+01  0.23160934528E+02  0.00000000000E+00 0.  1.
         12    1    6    6    0    0  0.66516053979E+02  0.62376304928E+02  0.77653843299E+02  0.11977190085E+03  0.00000000000E+00 0. -1.
         -5    1    3    3    0  503 -0.62479198530E+02 -0.83449253546E+02 -0.16705694112E+03  0.19697091091E+03  0.47000000000E+01 0.  1.
         11    1    4    4    0    0 -0.32342186039E+02  0.15108006491E+02 -0.29551126059E+03  0.29765949337E+03  0.00000000000E+00 0. -1.
        -12    1    4    4    0    0  0.35289088905E+01 -0.52124493120E+02 -0.18727450511E+03  0.19442519447E+03  0.00000000000E+00 0.  1.
<mgrwt>
<rscale>  2 0.22912294E+03</rscale>
<asrwt>0</asrwt>
<pdfrwt beam="1">  1       21 0.21135850E-01 0.22913331E+03</pdfrwt>
<pdfrwt beam="2">  1       21 0.12013123E+00 0.22913331E+03</pdfrwt>
<totfact> 0.10694800E+04</totfact>
</mgrwt>
</event>
<event>
12    1  0.1039378E-001  0.2555350E+03  0.7546771E-02  0.1109976E+00
         21   -1    0    0  503  502  0.00000000000E+00  0.00000000000E+00  0.19295107620E+03  0.19295107620E+03  0.00000000000E+00 0.  1.
         21   -1    0    0  501  503 -0.00000000000E+00 -0.00000000000E+00 -0.55977511341E+03  0.55977511341E+03  0.00000000000E+00 0. -1.
          6    2    1    2  501    0  0.19603163229E+02  0.18694574361E+03 -0.42046582325E+03  0.49162165090E+03  0.17195157470E+03 0.  0.
         24    2    3    3    0    0  0.19644490933E+02  0.17918934975E+03 -0.23658369065E+03  0.30751599633E+03  0.78099399679E+02 0.  0.
         -6    2    1    2    0  502 -0.19603163229E+02 -0.18694574361E+03  0.53641786042E+02  0.26110453871E+03  0.17310443051E+03 0.  0.
        -24    2    5    5    0    0  0.20389876785E+02 -0.15780459473E+03 -0.12211446430E+02  0.17859764182E+03  0.80187037889E+02 0.  0.
          5    1    3    3  501    0 -0.41327703735E-01  0.77563938683E+01 -0.18388213260E+03  0.18410565457E+03  0.47000000000E+01 0. -1.
        -11    1    4    4    0    0  0.45255237345E+01  0.16151306721E+03 -0.15965999542E+03  0.22715251568E+03  0.00000000000E+00 0.  1.
         12    1    4    4    0    0  0.15118967198E+02  0.17676282540E+02 -0.76923695235E+02  0.80363480650E+02  0.00000000000E+00 0. -1.
         -5    1    5    5    0  502 -0.39993040014E+02 -0.29141148880E+02  0.65853232472E+02  0.82506896891E+02  0.47000000000E+01 0.  1.
         13    1    6    6    0    0  0.22314733112E+02 -0.25932349770E+02 -0.30019027376E+02  0.45514570008E+02  0.00000000000E+00 0. -1.
        -14    1    6    6    0    0 -0.19248563271E+01 -0.13187224496E+03  0.17807580945E+02  0.13308307181E+03  0.00000000000E+00 0.  1.
<mgrwt>
<rscale>  2 0.25533989E+03</rscale>
<asrwt>0</asrwt>
<pdfrwt beam="1">  1       21 0.29684781E-01 0.25553501E+03</pdfrwt>
<pdfrwt beam="2">  1       21 0.86119249E-01 0.25553501E+03</pdfrwt>
<totfact> 0.12179940E+04</totfact>
</mgrwt>
</event>
<event>
12    1  0.1039378E-001  0.1930978E+03  0.7546771E-02  0.1155854E+00
         21   -1    0    0  501  502  0.00000000000E+00  0.00000000000E+00  0.20336400242E+03  0.20336400242E+03  0.00000000000E+00 0.  1.
         21   -1    0    0  502  503 -0.00000000000E+00 -0.00000000000E+00 -0.18272735306E+03  0.18272735306E+03  0.00000000000E+00 0.  1.
         -6    2    1    2    0  503 -0.78546128934E+02 -0.32463018760E+02  0.70683429630E+01  0.19251746497E+03  0.17259684496E+03 0.  0.
        -24    2    3    3    0    0 -0.51560901557E+02  0.42460178772E+02 -0.26506116274E+02  0.10596677267E+03  0.77878041571E+02 0.  0.
          6    2    1    2  501    0  0.78546128934E+02  0.32463018760E+02  0.13568306393E+02  0.19357389051E+03  0.17338803359E+03 0.  0.
         24    2    5    5    0    0  0.73013527187E+02  0.86573984063E+02  0.69496096508E+01  0.13857840529E+03  0.79559081622E+02 0.  0.
          5    1    5    5  501    0  0.55326017473E+01 -0.54110965304E+02  0.66186967426E+01  0.54995485222E+02  0.47000000000E+01 0. -1.
        -11    1    6    6    0    0  0.24220354799E+02  0.86218282404E+02  0.26499786205E+01  0.89594867007E+02  0.00000000000E+00 0.  1.
         12    1    6    6    0    0  0.48793172388E+02  0.35570165875E+00  0.42996310303E+01  0.48983538279E+02  0.00000000000E+00 0. -1.
         -5    1    3    3    0  503 -0.26985227377E+02 -0.74923197531E+02  0.33574459237E+02  0.86550692302E+02  0.47000000000E+01 0.  1.
         13    1    4    4    0    0  0.59557991718E+01  0.42735407737E+02 -0.21565773625E+02  0.48237632719E+02  0.00000000000E+00 0. -1.
        -14    1    4    4    0    0 -0.57516700729E+02 -0.27522896527E+00 -0.49403426490E+01  0.57729139949E+02  0.00000000000E+00 0.  1.
<mgrwt>
<rscale>  2 0.19292000E+03</rscale>
<asrwt>0</asrwt>
<pdfrwt beam="1">  1       21 0.31286770E-01 0.19309778E+03</pdfrwt>
<pdfrwt beam="2">  1       21 0.28111900E-01 0.19309778E+03</pdfrwt>
<totfact> 0.11867324E+05</totfact>
</mgrwt>
</event>
<event>
12    1  0.1039378E-001  0.1897315E+03  0.7546771E-02  0.1158718E+00
         21   -1    0    0  501  502  0.00000000000E+00  0.00000000000E+00  0.60092951212E+03  0.60092951212E+03  0.00000000000E+00 0. -1.
         21   -1    0    0  502  503 -0.00000000000E+00 -0.00000000000E+00 -0.77497448522E+02  0.77497448522E+02  0.00000000000E+00 0. -1.
         -6    2    1    2    0  503  0.28364274463E+02 -0.72239048019E+02  0.10003399399E+03  0.21448742032E+03  0.17313301648E+03 0.  0.
        -24    2    3    3    0    0 -0.14787939581E+02 -0.75441650698E+02  0.12245350579E+03  0.16552728602E+03  0.80587192038E+02 0.  0.
          6    2    1    2  501    0 -0.28364274463E+02  0.72239048019E+02  0.42339806961E+03  0.46393954033E+03  0.17306345544E+03 0.  0.
         24    2    5    5    0    0 -0.85904859901E+01  0.60056431047E+02  0.42806267659E+03  0.43978861022E+03  0.80596496406E+02 0.  0.
          5    1    5    5  501    0 -0.19773788473E+02  0.12182616972E+02 -0.46646069803E+01  0.24150930110E+02  0.47000000000E+01 0. -1.
        -13    1    6    6    0    0  0.99350477421E+01  0.60680570835E+02  0.16518288898E+03  0.17625613085E+03  0.00000000000E+00 0.  1.
         14    1    6    6    0    0 -0.18525533732E+02 -0.62413978774E+00  0.26287978761E+03  0.26353247937E+03  0.00000000000E+00 0. -1.
         -5    1    3    3    0  503  0.43152214044E+02  0.32026026789E+01 -0.22419511796E+02  0.48960134293E+02  0.47000000000E+01 0.  1.
         11    1    4    4    0    0  0.20002042088E+02 -0.62303480179E+02  0.44427886578E+02  0.79092619352E+02  0.00000000000E+00 0. -1.
        -12    1    4    4    0    0 -0.34789981669E+02 -0.13138170519E+02  0.78025619211E+02  0.86434666670E+02  0.00000000000E+00 0.  1.
<mgrwt>
<rscale>  2 0.18971566E+03</rscale>
<asrwt>0</asrwt>
<pdfrwt beam="1">  1       21 0.92450691E-01 0.18973153E+03</pdfrwt>
<pdfrwt beam="2">  1       21 0.11922685E-01 0.18973153E+03</pdfrwt>
<totfact> 0.58678643E+04</totfact>
</mgrwt>
</event>
<event>
12    1  0.1039378E-001  0.1958968E+03  0.7546771E-02  0.1155948E+00
         21   -1    0    0  503  502  0.00000000000E+00  0.00000000000E+00  0.13927460412E+03  0.13927460412E+03  0.00000000000E+00 0. -1.
         21   -1    0    0  501  503 -0.00000000000E+00 -0.00000000000E+00 -0.31032916703E+03  0.31032916703E+03  0.00000000000E+00 0. -1.
          6    2    1    2  501    0 -0.34179303161E+02  0.51783531530E+02 -0.17930752015E+03  0.26556870344E+03  0.18581116910E+03 0.  0.
         24    2    3    3    0    0 -0.22608243173E+02  0.91736865021E+02 -0.58068007368E+02  0.13730620796E+03  0.80958731477E+02 0.  0.
         -6    2    1    2    0  502  0.34179303161E+02 -0.51783531530E+02  0.82529572417E+01  0.18403506771E+03  0.17306367597E+03 0.  0.
        -24    2    5    5    0    0  0.44631292314E+02  0.33635751752E+02  0.60340060864E+01  0.97821891349E+02  0.80058710632E+02 0.  0.
          5    1    3    3  501    0 -0.11571059988E+02 -0.39953333491E+02 -0.12123951278E+03  0.12826249548E+03  0.47000000000E+01 0. -1.
        -13    1    4    4    0    0 -0.25668159637E+02  0.84140844187E+02 -0.99884271191E+01  0.88534201052E+02  0.00000000000E+00 0.  1.
         14    1    4    4    0    0  0.30599164632E+01  0.75960208343E+01 -0.48079580248E+02  0.48772006911E+02  0.00000000000E+00 0. -1.
         -5    1    5    5    0  502 -0.10451989153E+02 -0.85419283282E+02  0.22189511552E+01  0.86213176359E+02  0.47000000000E+01 0.  1.
         11    1    6    6    0    0 -0.12863638516E+01  0.83585090252E+01 -0.31975869391E+02  0.33075302393E+02  0.00000000000E+00 0. -1.
        -12    1    6    6    0    0  0.45917656166E+02  0.25277242727E+02  0.38009875477E+02  0.64746588956E+02  0.00000000000E+00 0.  1.
<mgrwt>
<rscale>  2 0.19281301E+03</rscale>
<asrwt>0</asrwt>
<pdfrwt beam="1">  1       21 0.21426863E-01 0.19589678E+03</pdfrwt>
<pdfrwt beam="2">  1       21 0.47742948E-01 0.19589678E+03</pdfrwt>
<totfact> 0.84974235E+04</totfact>
</mgrwt>
</event>
<event>
11    1  0.1039378E-001  0.1766827E+03  0.7546771E-02  0.1172282E+00
         21   -1    0    0  503  502  0.00000000000E+00  0.00000000000E+00  0.49041326209E+02  0.49041326209E+02  0.00000000000E+00 0.  1.
         21   -1    0    0  501  503 -0.00000000000E+00 -0.00000000000E+00 -0.63484353396E+03  0.63484353396E+03  0.00000000000E+00 0.  1.
          6    2    1    2  501    0 -0.62000618483E+01  0.39193750964E+01 -0.34281097927E+03  0.38344931420E+03  0.17163975876E+03 0.  0.
         -6    2    1    2    0  502  0.62000618483E+01 -0.39193750964E+01 -0.24299122848E+03  0.30043554597E+03  0.17653038802E+03 0.  0.
        -24    2    4    4    0    0 -0.14227712609E+02 -0.50228810159E+02 -0.22736758659E+03  0.24725617091E+03  0.81940426214E+02 0.  0.
          5    1    3    3  501    0  0.67194893785E+02 -0.33007603992E+02 -0.17169347641E+03  0.18736433896E+03  0.47000000000E+01 0. -1.
        -11    1    3    3    0    0 -0.47881401446E+02  0.46342068368E+01 -0.12673463990E+03  0.13555726992E+03  0.00000000000E+00 0.  1.
         12    1    3    3    0    0 -0.25513554188E+02  0.32292772251E+02 -0.44382862954E+02  0.60527705317E+02  0.00000000000E+00 0. -1.
         -5    1    4    4    0  502  0.20427774457E+02  0.46309435062E+02 -0.15623641893E+02  0.53179375053E+02  0.47000000000E+01 0.  1.
         13    1    5    5    0    0  0.18708278832E+02 -0.58783626352E+02 -0.12524154539E+03  0.13961002513E+03  0.00000000000E+00 0. -1.
        -14    1    5    5    0    0 -0.32935991441E+02  0.85548161938E+01 -0.10212604120E+03  0.10764614579E+03  0.00000000000E+00 0.  1.
<mgrwt>
<rscale>  2 0.17544826E+03</rscale>
<asrwt>0</asrwt>
<pdfrwt beam="1">  1       21 0.75448198E-02 0.17668271E+03</pdfrwt>
<pdfrwt beam="2">  1       21 0.97668231E-01 0.17668271E+03</pdfrwt>
<totfact> 0.11605062E+05</totfact>
</mgrwt>
</event>
<event>
12    1  0.1039378E-001  0.1864909E+03  0.7546771E-02  0.1162383E+00
         21   -1    0    0  501  502  0.00000000000E+00  0.00000000000E+00  0.36458079302E+03  0.36458079302E+03  0.00000000000E+00 0. -1.
         21   -1    0    0  502  503 -0.00000000000E+00 -0.00000000000E+00 -0.94614531549E+02  0.94614531549E+02  0.00000000000E+00 0. -1.
         -6    2    1    2    0  503 -0.37458836721E+02 -0.55928127012E+02  0.11512657092E+03  0.21916425854E+03  0.17391873117E+03 0.  0.
        -24    2    3    3    0    0 -0.88199411413E+02 -0.25800336289E+02  0.56302512308E+02  0.13570978254E+03  0.82476533983E+02 0.  0.
          6    2    1    2  501    0  0.37458836721E+02  0.55928127012E+02  0.15483969055E+03  0.24003106602E+03  0.17061202492E+03 0.  0.
         24    2    5    5    0    0 -0.69252787754E+01  0.21389489752E+02  0.16382856120E+03  0.18288426412E+03  0.78111374595E+02 0.  0.
          5    1    5    5  501    0  0.44384115497E+02  0.34538637260E+02 -0.89888706478E+01  0.57146801903E+02  0.47000000000E+01 0. -1.
        -11    1    6    6    0    0 -0.19688162446E+02 -0.25598071140E+02  0.73123445562E+02  0.79936995675E+02  0.00000000000E+00 0.  1.
         12    1    6    6    0    0  0.12762883671E+02  0.46987560892E+02  0.90705115636E+02  0.10294726845E+03  0.00000000000E+00 0. -1.
         -5    1    3    3    0  503  0.50740574692E+02 -0.30127790723E+02  0.58824058609E+02  0.83454476004E+02  0.47000000000E+01 0.  1.
         13    1    4    4    0    0 -0.61339156634E+02 -0.18356900553E+02 -0.90482930618E+01  0.64663278155E+02  0.00000000000E+00 0. -1.
        -14    1    4    4    0    0 -0.26860254779E+02 -0.74434357353E+01  0.65350805370E+02  0.71046504382E+02  0.00000000000E+00 0.  1.
<mgrwt>
<rscale>  2 0.18571608E+03</rscale>
<asrwt>0</asrwt>
<pdfrwt beam="1">  1       21 0.56089352E-01 0.18649087E+03</pdfrwt>
<pdfrwt beam="2">  1       21 0.14556082E-01 0.18649087E+03</pdfrwt>
<totfact> 0.12424011E+05</totfact>
</mgrwt>
</event>
<event>
12    1  0.1039378E-001  0.1851638E+03  0.7546771E-02  0.1163183E+00
         21   -1    0    0  501  502  0.00000000000E+00  0.00000000000E+00  0.39178231349E+02  0.39178231349E+02  0.00000000000E+00 0.  1.
         21   -1    0    0  502  503 -0.00000000000E+00 -0.00000000000E+00 -0.93920552116E+03  0.93920552116E+03  0.00000000000E+00 0.  1.
         -6    2    1    2    0  503 -0.39591374902E+02 -0.50679986285E+02 -0.58204592029E+03  0.61041939296E+03  0.17233236493E+03 0.  0.
        -24    2    3    3    0    0  0.73811808563E+01  0.31224009544E+02 -0.22488942513E+03  0.24096366143E+03  0.80366734362E+02 0.  0.
          6    2    1    2  501    0  0.39591374902E+02  0.50679986285E+02 -0.31798136952E+03  0.36796435954E+03  0.17363663368E+03 0.  0.
         24    2    5    5    0    0  0.51776639461E+02  0.98055740208E+02 -0.22955369316E+03  0.26679871973E+03  0.78682337443E+02 0.  0.
          5    1    5    5  501    0 -0.12185264559E+02 -0.47375753923E+02 -0.88427676361E+02  0.10116563981E+03  0.47000000000E+01 0. -1.
        -11    1    6    6    0    0 -0.35977129819E+01  0.28406298179E+02 -0.13068923616E+03  0.13378915413E+03  0.00000000000E+00 0.  1.
         12    1    6    6    0    0  0.55374352443E+02  0.69649442030E+02 -0.98864456999E+02  0.13300956560E+03  0.00000000000E+00 0. -1.
         -5    1    3    3    0  503 -0.46972555759E+02 -0.81903995829E+02 -0.35715649516E+03  0.36945573153E+03  0.47000000000E+01 0.  1.
         13    1    4    4    0    0  0.62061562981E+01  0.16145342043E+02 -0.22517324329E+03  0.22583661780E+03  0.00000000000E+00 0. -1.
        -14    1    4    4    0    0  0.11750245582E+01  0.15078667501E+02  0.28381815770E+00  0.15127043633E+02  0.00000000000E+00 0.  1.
<mgrwt>
<rscale>  2 0.18485737E+03</rscale>
<asrwt>0</asrwt>
<pdfrwt beam="1">  1       21 0.60274205E-02 0.18516376E+03</pdfrwt>
<pdfrwt beam="2">  1       21 0.14449315E+00 0.18516376E+03</pdfrwt>
<totfact> 0.64747689E+04</totfact>
</mgrwt>
</event>
<event>
12    1  0.1039378E-001  0.1912772E+03  0.7546771E-02  0.1157319E+00
         21   -1    0    0  501  502  0.00000000000E+00  0.00000000000E+00  0.11268845803E+03  0.11268845803E+03  0.00000000000E+00 0.  1.
         21   -1    0    0  502  503 -0.00000000000E+00 -0.00000000000E+00 -0.35187444916E+03  0.35187444916E+03  0.00000000000E+00 0.  1.
         -6    2    1    2    0  503 -0.60373965694E+02 -0.55566380226E+02 -0.18420877594E+03  0.26554162778E+03  0.17276239349E+03 0.  0.
        -24    2    3    3    0    0 -0.84394116280E+02  0.14884720129E+02 -0.11035775757E+03  0.16058264489E+03  0.79145621656E+02 0.  0.
          6    2    1    2  501    0  0.60373965694E+02  0.55566380226E+02 -0.54977215193E+02  0.19902127940E+03  0.17278407658E+03 0.  0.
         24    2    5    5    0    0  0.48331515760E+02 -0.23192294451E+02  0.85215973217E+01  0.97030404185E+02  0.80426760334E+02 0.  0.
          5    1    5    5  501    0  0.12042449934E+02  0.78758674677E+02 -0.63498812515E+02  0.10199087522E+03  0.47000000000E+01 0. -1.
        -13    1    6    6    0    0 -0.13431138877E+01 -0.31091898731E+02  0.29173624110E+02  0.42656892354E+02  0.00000000000E+00 0.  1.
         14    1    6    6    0    0  0.49674629648E+02  0.78996042799E+01 -0.20652026788E+02  0.54373511831E+02  0.00000000000E+00 0. -1.
         -5    1    3    3    0  503  0.24020150587E+02 -0.70451100354E+02 -0.73851018370E+02  0.10495898289E+03  0.47000000000E+01 0.  1.
         11    1    4    4    0    0 -0.66162285586E+02 -0.19698842590E+02 -0.39183092015E+02  0.79377623630E+02  0.00000000000E+00 0. -1.
        -12    1    4    4    0    0 -0.18231830694E+02  0.34583562718E+02 -0.71174665552E+02  0.81205021256E+02  0.00000000000E+00 0.  1.
<mgrwt>
<rscale>  2 0.19127232E+03</rscale>
<asrwt>0</asrwt>
<pdfrwt beam="1">  1       21 0.17336686E-01 0.19127722E+03</pdfrwt>
<pdfrwt beam="2">  1       21 0.54134531E-01 0.19127722E+03</pdfrwt>
<totfact> 0.97111936E+04</totfact>
</mgrwt>
</event>
<event>
12    1  0.1039378E-001  0.2418966E+03  0.7546771E-02  0.1119637E+00
         21   -1    0    0  503  502  0.00000000000E+00  0.00000000000E+00  0.80031578817E+02  0.80031578817E+02  0.00000000000E+00 0. -1.
         21   -1    0    0  501  503 -0.00000000000E+00 -0.00000000000E+00 -0.72015794622E+03  0.72015794622E+03  0.00000000000E+00 0.  1.
          6    2    1    2  501    0 -0.12575342549E+03  0.99220845081E+02 -0.35986145679E+03  0.42997017149E+03  0.17238149600E+03 0.  0.
         24    2    3    3    0    0 -0.94888958947E+02 -0.58440080377E+00 -0.15224140439E+03  0.19750107986E+03  0.82613408615E+02 0.  0.
         -6    2    1    2    0  502  0.12575342549E+03 -0.99220845081E+02 -0.28026491062E+03  0.37021935355E+03  0.18126017075E+03 0.  0.
        -24    2    5    5    0    0  0.14464515547E+03 -0.88705341570E+02 -0.29091872500E+03  0.34566193030E+03  0.77830629472E+02 0.  0.
          5    1    3    3  501    0 -0.30864466544E+02  0.99805245884E+02 -0.20762005240E+03  0.23246909162E+03  0.47000000000E+01 0. -1.
        -13    1    4    4    0    0 -0.24349801347E+02 -0.33844903540E+02 -0.84393352914E+02  0.94130910637E+02  0.00000000000E+00 0.  1.
         14    1    4    4    0    0 -0.70539157601E+02  0.33260502736E+02 -0.67848051475E+02  0.10337016923E+03  0.00000000000E+00 0. -1.
         -5    1    5    5    0  502 -0.18891729981E+02 -0.10515503511E+02  0.10653814379E+02  0.24557423248E+02  0.47000000000E+01 0.  1.
         13    1    6    6    0    0  0.14877962023E+02 -0.47597215567E+02 -0.65365093954E+02  0.82215839054E+02  0.00000000000E+00 0. -1.
        -14    1    6    6    0    0  0.12976719345E+03 -0.41108126003E+02 -0.22555363104E+03  0.26344609125E+03  0.00000000000E+00 0.  1.
<mgrwt>
<rscale>  2 0.24023462E+03</rscale>
<asrwt>0</asrwt>
<pdfrwt beam="1">  1       21 0.12312551E-01 0.24189657E+03</pdfrwt>
<pdfrwt beam="2">  1       21 0.11079353E+00 0.24189657E+03</pdfrwt>
<totfact> 0.35056052E+04</totfact>
</mgrwt>
</event>
<event>
11    1  0.1039378E-001  0.1951778E+03  0.7546771E-02  0.1153886E+00
         21   -1    0    0  503  502  0.00000000000E+00  0.00000000000E+00  0.39283519600E+03  0.39283519600E+03  0.00000000000E+00 0. -1.
         21   -1    0    0  501  503 -0.00000000000E+00 -0.00000000000E+00 -0.49373119660E+03  0.49373119660E+03  0.00000000000E+00 0.  1.
          6    2    1    2  501    0 -0.90032142698E+02 -0.45833024926E+01 -0.44783816544E+03  0.48852164425E+03  0.17311147014E+03 0.  0.
         -6    2    1    2    0  502  0.90032142698E+02  0.45833024926E+01  0.34694216484E+03  0.39804474834E+03  0.17304323899E+03 0.  0.
        -24    2    4    4    0    0  0.10270882374E+03 -0.14523819366E+02  0.35061467277E+03  0.37435176072E+03  0.80302852964E+02 0.  0.
          5    1    3    3  501    0  0.47557926320E+02 -0.54806389629E+01 -0.15188500402E+03  0.15932023790E+03  0.47000000000E+01 0. -1.
        -11    1    3    3    0    0 -0.53258310812E+02 -0.16671476068E+02 -0.14546274873E+03  0.15580050402E+03  0.00000000000E+00 0.  1.
         12    1    3    3    0    0 -0.84331758206E+02  0.17568812539E+02 -0.15049041269E+03  0.17340090232E+03  0.00000000000E+00 0. -1.
         -5    1    4    4    0  502 -0.12676681039E+02  0.19107121859E+02 -0.36725079295E+01  0.23692987620E+02  0.47000000000E+01 0.  1.
         11    1    5    5    0    0  0.52272506825E+02 -0.39745807693E+01  0.29042539658E+03  0.29511882902E+03  0.00000000000E+00 0. -1.
        -12    1    5    5    0    0  0.50436316911E+02 -0.10549238597E+02  0.60189276185E+02  0.79232931703E+02  0.00000000000E+00 0.  1.
<mgrwt>
<rscale>  2 0.19516267E+03</rscale>
<asrwt>0</asrwt>
<pdfrwt beam="1">  1       21 0.60436184E-01 0.19517780E+03</pdfrwt>
<pdfrwt beam="2">  1       21 0.75958645E-01 0.19517780E+03</pdfrwt>
<totfact> 0.39346824E+03</totfact>
</mgrwt>
</event>
<event>
12    1  0.1039378E-001  0.1855699E+03  0.7546771E-02  0.1162552E+00
         21   -1    0    0  501  502  0.00000000000E+00  0.00000000000E+00  0.13002536431E+04  0.13002536431E+04  0.00000000000E+00 0. -1.
         21   -1    0    0  502  503 -0.00000000000E+00 -0.00000000000E+00 -0.80909243854E+02  0.80909243854E+02  0.00000000000E+00 0. -1.
         -6    2    1    2    0  503  0.63318394843E+02  0.11851430618E+02  0.43097738535E+02  0.19036802630E+03  0.17387609047E+03 0.  0.
        -24    2    3    3    0    0  0.28208023574E+02  0.87421715208E+01  0.94540536012E+02  0.12783118056E+03  0.80813239127E+02 0.  0.
          6    2    1    2  501    0 -0.63318394843E+02 -0.11851430618E+02  0.11762466607E+04  0.11907948606E+04  0.17403022090E+03 0.  0.
         24    2    5    5    0    0 -0.60990932617E+02 -0.59794500647E+02  0.53411207719E+03  0.54685164235E+03  0.80471930326E+02 0.  0.
          5    1    5    5  501    0 -0.23274622263E+01  0.47943070029E+02  0.64213458349E+03  0.64394321827E+03  0.47000000000E+01 0. -1.
        -13    1    6    6    0    0  0.35287410461E+01 -0.34222130629E+02  0.74884810811E+02  0.82409593667E+02  0.00000000000E+00 0.  1.
         14    1    6    6    0    0 -0.64519673663E+02 -0.25572370018E+02  0.45922726638E+03  0.46444204868E+03  0.00000000000E+00 0. -1.
         -5    1    3    3    0  503  0.35110371270E+02  0.31092590973E+01 -0.51442797476E+02  0.62536845739E+02  0.47000000000E+01 0.  1.
         11    1    4    4    0    0  0.19011653731E+01 -0.23497809875E+02 -0.10277637145E+01  0.23596987031E+02  0.00000000000E+00 0. -1.
        -12    1    4    4    0    0  0.26306858201E+02  0.32239981396E+02  0.95568299726E+02  0.10423419353E+03  0.00000000000E+00 0.  1.
<mgrwt>
<rscale>  2 0.18553377E+03</rscale>
<asrwt>0</asrwt>
<pdfrwt beam="1">  1       21 0.20003901E+00 0.18556991E+03</pdfrwt>
<pdfrwt beam="2">  1       21 0.12447577E-01 0.18556991E+03</pdfrwt>
<totfact> 0.74211923E+03</totfact>
</mgrwt>
</event>
<event>
12    1  0.1039378E-001  0.1999118E+03  0.7546771E-02  0.1151122E+00
         21   -1    0    0  503  502  0.00000000000E+00  0.00000000000E+00  0.83472934062E+02  0.83472934062E+02  0.00000000000E+00 0.  1.
         21   -1    0    0  501  503 -0.00000000000E+00 -0.00000000000E+00 -0.11443074595E+04  0.11443074595E+04  0.00000000000E+00 0.  1.
          6    2    1    2  501    0 -0.46582470422E+02 -0.91086319798E+02 -0.10069688385E+04  0.10266211368E+04  0.17175002974E+03 0.  0.
         24    2    3    3    0    0 -0.88791371846E+02 -0.44758639701E+02 -0.80604295573E+03  0.81609525799E+03  0.80118537762E+02 0.  0.
         -6    2    1    2    0  502  0.46582470422E+02  0.91086319798E+02 -0.53865686936E+02  0.20115925671E+03  0.16461133049E+03 0.  0.
        -24    2    5    5    0    0  0.75945395301E+01  0.11875404472E+03 -0.26597441625E+02  0.14592150730E+03  0.80158980933E+02 0.  0.
          5    1    3    3  501    0  0.42208901424E+02 -0.46327680097E+02 -0.20092588275E+03  0.21052587884E+03  0.47000000000E+01 0. -1.
        -11    1    4    4    0    0 -0.91521785089E+02 -0.21954914634E+02 -0.47369267761E+03  0.48295238714E+03  0.00000000000E+00 0.  1.
         12    1    4    4    0    0  0.27304132434E+01 -0.22803725067E+02 -0.33235027812E+03  0.33314287085E+03  0.00000000000E+00 0. -1.
         -5    1    5    5    0  502  0.38987930892E+02 -0.27667724918E+02 -0.27268245311E+02  0.55237749408E+02  0.47000000000E+01 0.  1.
         11    1    6    6    0    0  0.20235812773E+02  0.56224320133E+02 -0.50055990498E+02  0.77950397547E+02  0.00000000000E+00 0. -1.
        -12    1    6    6    0    0 -0.12641273243E+02  0.62529724583E+02  0.23458548873E+02  0.67971109751E+02  0.00000000000E+00 0.  1.
<mgrwt>
<rscale>  2 0.19836936E+03</rscale>
<asrwt>0</asrwt>
<pdfrwt beam="1">  1       21 0.12841990E-01 0.19991177E+03</pdfrwt>
<pdfrwt beam="2">  1       21 0.17604731E+00 0.19991177E+03</pdfrwt>
<totfact> 0.10005324E+04</totfact>
</mgrwt>
</event>
<event>
12    1  0.1039378E-001  0.1978609E+03  0.7546771E-02  0.1151557E+00
         21   -1    0    0  501  502  0.00000000000E+00  0.00000000000E+00  0.18165501709E+03  0.18165501709E+03  0.00000000000E+00 0.  1.
         21   -1    0    0  502  503 -0.00000000000E+00 -0.00000000000E+00 -0.36537326720E+03  0.36537326720E+03  0.00000000000E+00 0.  1.
         -6    2    1    2    0  503  0.91890658047E+02  0.30300316345E+02 -0.26702896857E+03  0.33234528525E+03  0.17258886513E+03 0.  0.
        -24    2    3    3    0    0  0.12267723485E+03  0.16576962065E+02 -0.25631808313E+03  0.29666676467E+03  0.83592522959E+02 0.  0.
          6    2    1    2  501    0 -0.91890658047E+02 -0.30300316345E+02  0.83310718452E+02  0.21468299904E+03  0.17258653499E+03 0.  0.
         24    2    5    5    0    0 -0.22005086824E+02  0.22700604400E+02  0.12251082869E+02  0.10170223752E+03  0.95883860989E+02 0.  0.
          5    1    5    5  501    0 -0.69885571224E+02 -0.53000920744E+02  0.71059635583E+02  0.11298076152E+03  0.47000000000E+01 0. -1.
        -11    1    6    6    0    0 -0.30675853157E+02 -0.24928264954E+02  0.30539985877E+02  0.49951147113E+02  0.00000000000E+00 0.  1.
         12    1    6    6    0    0  0.86707663334E+01  0.47628869354E+02 -0.18288903007E+02  0.51751090403E+02  0.00000000000E+00 0. -1.
         -5    1    3    3    0  503 -0.30786576807E+02  0.13723354280E+02 -0.10710885435E+02  0.35678520583E+02  0.47000000000E+01 0.  1.
         13    1    4    4    0    0 -0.11224036002E+02  0.79816803584E+01 -0.37928238984E+02  0.40351425228E+02  0.00000000000E+00 0. -1.
        -14    1    4    4    0    0  0.13390127086E+03  0.85952817066E+01 -0.21838984415E+03  0.25631533944E+03  0.00000000000E+00 0.  1.
<mgrwt>
<rscale>  2 0.19786035E+03</rscale>
<asrwt>0</asrwt>
<pdfrwt beam="1">  1       21 0.27946926E-01 0.19786086E+03</pdfrwt>
<pdfrwt beam="2">  1       21 0.56211271E-01 0.19786086E+03</pdfrwt>
<totfact> 0.36321551E+04</totfact>
</mgrwt>
</event>
<event>
12    1  0.1039378E-001  0.2500805E+03  0.7546771E-02  0.1113573E+00
         21   -1    0    0  503  502  0.00000000000E+00  0.00000000000E+00  0.53642418310E+03  0.53642418310E+03  0.00000000000E+00 0.  1.
         21   -1    0    0  501  503 -0.00000000000E+00 -0.00000000000E+00 -0.44803118925E+03  0.44803118925E+03  0.00000000000E+00 0.  1.
          6    2    1    2  501    0 -0.43834354234E+02  0.17200769998E+03 -0.37972040326E+03  0.45467333115E+03  0.17615945600E+03 0.  0.
         24    2    3    3    0    0  0.30096901245E+02  0.14758432106E+03 -0.27647340753E+03  0.32527331529E+03  0.81720433708E+02 0.  0.
         -6    2    1    2    0  502  0.43834354234E+02 -0.17200769998E+03  0.46811339712E+03  0.52978204120E+03  0.17329385204E+03 0.  0.
        -24    2    5    5    0    0  0.12782993219E+02 -0.10356969087E+03  0.41998865248E+03  0.44041745561E+03  0.81773964139E+02 0.  0.
          5    1    3    3  501    0 -0.73931255478E+02  0.24423378923E+02 -0.10324699573E+03  0.12940001585E+03  0.47000000000E+01 0. -1.
        -11    1    4    4    0    0  0.51311491530E+02  0.55803931714E+02 -0.10323249004E+03  0.12807769110E+03  0.00000000000E+00 0.  1.
         12    1    4    4    0    0 -0.21214590285E+02  0.91780389345E+02 -0.17324091748E+03  0.19719562419E+03  0.00000000000E+00 0. -1.
         -5    1    5    5    0  502  0.31051361014E+02 -0.68438009111E+02  0.48124744638E+02  0.89364585594E+02  0.47000000000E+01 0.  1.
         11    1    6    6    0    0 -0.21814183909E+02 -0.37855829636E+02  0.69086578208E+02  0.81742753474E+02  0.00000000000E+00 0. -1.
        -12    1    6    6    0    0  0.34597177129E+02 -0.65713861235E+02  0.35090207427E+03  0.35867470214E+03  0.00000000000E+00 0.  1.
<mgrwt>
<rscale>  2 0.24957642E+03</rscale>
<asrwt>0</asrwt>
<pdfrwt beam="1">  1       21 0.82526797E-01 0.25008049E+03</pdfrwt>
<pdfrwt beam="2">  1       21 0.68927875E-01 0.25008049E+03</pdfrwt>
<totfact> 0.23478567E+03</totfact>
</mgrwt>
</event>
<event>
12    1  0.1039378E-001  0.1925853E+03  0.7546771E-02  0.1156364E+00
         21   -1    0    0  501  502  0.00000000000E+00  0.00000000000E+00  0.84541485982E+03  0.84541485982E+03  0.00000000000E+00 0. -1.
         21   -1    0    0  502  503 -0.00000000000E+00 -0.00000000000E+00 -0.44415989334E+02  0.44415989334E+02  0.00000000000E+00 0.  1.
         -6    2    1    2    0  503  0.94173800359E+01  0.82916621157E+02  0.34116114925E+03  0.39129315121E+03  0.17249796322E+03 0.  0.
        -24    2    3    3    0    0 -0.20507782424E+02 -0.12661671068E+02  0.19881046017E+03  0.21717671323E+03  0.84019275422E+02 0.  0.
          6    2    1    2  501    0 -0.94173800359E+01 -0.82916621157E+02  0.45983772123E+03  0.49853769794E+03  0.17356627924E+03 0.  0.
         24    2    5    5    0    0  0.57149783450E+02 -0.33390009653E+02  0.31496752361E+03  0.33152411568E+03  0.79515456694E+02 0.  0.
          5    1    5    5  501    0 -0.66567163486E+02 -0.49526611504E+02  0.14487019762E+03  0.16701358226E+03  0.47000000000E+01 0. -1.
        -11    1    6    6    0    0 -0.10531473385E+01 -0.16346941120E+02  0.72957615001E+01  0.17932086860E+02  0.00000000000E+00 0.  1.
         12    1    6    6    0    0  0.58202930789E+02 -0.17043068533E+02  0.30767176211E+03  0.31359202882E+03  0.00000000000E+00 0. -1.
         -5    1    3    3    0  503  0.29925162460E+02  0.95578292224E+02  0.14235068908E+03  0.17411643798E+03  0.47000000000E+01 0.  1.
         11    1    4    4    0    0  0.20666935104E+02 -0.18099366094E+02  0.15256679808E+03  0.15502044103E+03  0.00000000000E+00 0. -1.
        -12    1    4    4    0    0 -0.41174717529E+02  0.54376950260E+01  0.46243662087E+02  0.62156272201E+02  0.00000000000E+00 0.  1.
<mgrwt>
<rscale>  2 0.19234431E+03</rscale>
<asrwt>0</asrwt>
<pdfrwt beam="1">  1       21 0.13006381E+00 0.19258532E+03</pdfrwt>
<pdfrwt beam="2">  1       21 0.68332298E-02 0.19258532E+03</pdfrwt>
<totfact> 0.68084825E+04</totfact>
</mgrwt>
</event>
<event>
12    1  0.1039378E-001  0.1964485E+03  0.7546771E-02  0.1153316E+00
         21   -1    0    0  503  502  0.00000000000E+00  0.00000000000E+00  0.14597296908E+03  0.14597296908E+03  0.00000000000E+00 0.  1.
         21   -1    0    0  501  503 -0.00000000000E+00 -0.00000000000E+00 -0.41215593460E+03  0.41215593460E+03  0.00000000000E+00 0.  1.
          6    2    1    2  501    0  0.79639746272E+02 -0.39756893578E+02 -0.30262346025E+03  0.36079494366E+03  0.17512547759E+03 0.  0.
         24    2    3    3    0    0  0.61634423859E+02  0.43897098803E+02 -0.16278474087E+03  0.19678537225E+03  0.80621668194E+02 0.  0.
         -6    2    1    2    0  502 -0.79639746272E+02  0.39756893578E+02  0.36440494734E+02  0.19733396002E+03  0.17230694225E+03 0.  0.
        -24    2    5    5    0    0 -0.17574187881E+02 -0.45275609678E+00 -0.26716874664E+02  0.99969219103E+02  0.94715343574E+02 0.  0.
          5    1    3    3  501    0  0.18005322412E+02 -0.83653992381E+02 -0.13983871938E+03  0.16400957141E+03  0.47000000000E+01 0. -1.
        -13    1    4    4    0    0  0.98932767978E+01 -0.23472996764E+02 -0.33346369823E+02  0.41962350783E+02  0.00000000000E+00 0.  1.
         14    1    4    4    0    0  0.51741147061E+02  0.67370095566E+02 -0.12943837105E+03  0.15482302147E+03  0.00000000000E+00 0. -1.
         -5    1    5    5    0  502 -0.62065558390E+02  0.40209649675E+02  0.63157369398E+02  0.97364740921E+02  0.47000000000E+01 0.  1.
         11    1    6    6    0    0 -0.36344978668E+02  0.24185222105E+02 -0.46051918648E+02  0.63455982017E+02  0.00000000000E+00 0. -1.
        -12    1    6    6    0    0  0.18770790786E+02 -0.24637978202E+02  0.19335043983E+02  0.36513237086E+02  0.00000000000E+00 0.  1.
<mgrwt>
<rscale>  2 0.19581842E+03</rscale>
<asrwt>0</asrwt>
<pdfrwt beam="1">  1       21 0.22457380E-01 0.19644855E+03</pdfrwt>
<pdfrwt beam="2">  1       21 0.63408605E-01 0.19644855E+03</pdfrwt>
<totfact> 0.42625423E+04</totfact>
</mgrwt>
</event>
<event>
12    1  0.1039378E-001  0.2311898E+03  0.7546771E-02  0.1125821E+00
         21   -1    0    0  501  502  0.00000000000E+00  0.00000000000E+00  0.35495850412E+03  0.35495850412E+03  0.00000000000E+00 0. -1.
         21   -1    0    0  502  503 -0.00000000000E+00 -0.00000000000E+00 -0.17002107840E+03  0.17002107840E+03  0.00000000000E+00 0. -1.
         -6    2    1    2    0  503 -0.12332069374E+03  0.89543064146E+02  0.35555558139E+01  0.23112913228E+03  0.17372990522E+03 0.  0.
        -24    2    3    3    0    0 -0.13639427035E+03  0.11885304174E+03  0.10147041214E+02  0.19803032759E+03  0.79897469842E+02 0.  0.
          6    2    1    2  501    0  0.12332069374E+03 -0.89543064146E+02  0.18138186990E+03  0.29385045024E+03  0.17384691696E+03 0.  0.
         24    2    5    5    0    0  0.48018638803E+02 -0.10581223481E+02  0.15769618788E+02  0.95469807340E+02  0.80299758866E+02 0.  0.
          5    1    5    5  501    0  0.75302054942E+02 -0.78961840665E+02  0.16561225111E+03  0.19838064290E+03  0.47000000000E+01 0. -1.
        -13    1    6    6    0    0  0.40729917615E+02  0.31247743218E+02  0.44534798753E+01  0.51528449697E+02  0.00000000000E+00 0.  1.
         14    1    6    6    0    0  0.72887211871E+01 -0.41828966699E+02  0.11316138913E+02  0.43941357643E+02  0.00000000000E+00 0. -1.
         -5    1    3    3    0  503  0.13073576606E+02 -0.29309977592E+02 -0.65914854000E+01  0.33098804684E+02  0.47000000000E+01 0.  1.
         11    1    4    4    0    0 -0.12765454965E+03  0.65375916077E+02  0.10939080060E+02  0.14383795717E+03  0.00000000000E+00 0. -1.
        -12    1    4    4    0    0 -0.87397206975E+01  0.53477125661E+02 -0.79203884598E+00  0.54192370426E+02  0.00000000000E+00 0.  1.
<mgrwt>
<rscale>  2 0.23116776E+03</rscale>
<asrwt>0</asrwt>
<pdfrwt beam="1">  1       21 0.54609001E-01 0.23118976E+03</pdfrwt>
<pdfrwt beam="2">  1       21 0.26157089E-01 0.23118976E+03</pdfrwt>
<totfact> 0.43177603E+04</totfact>
</mgrwt>
</event>
<event>
12    1  0.1039378E-001  0.2670616E+03  0.7546771E-02  0.1103070E+00
         21   -1    0    0  501  502  0.00000000000E+00  0.00000000000E+00  0.23521242820E+04  0.23521242820E+04  0.00000000000E+00 0. -1.
         21   -1    0    0  502  503 -0.00000000000E+00 -0.00000000000E+00 -0.59017254604E+02  0.59017254604E+02  0.00000000000E+00 0. -1.
         -6    2    1    2    0  503  0.20260607443E+03 -0.23160310661E+02  0.30408404268E+03  0.40426975430E+03  0.17140976589E+03 0.  0.
        -24    2    3    3    0    0  0.13231628044E+03 -0.24298756073E+02  0.93201590921E+02  0.18192891312E+03  0.79457946497E+02 0.  0.
          6    2    1    2  501    0 -0.20260607443E+03  0.23160310661E+02  0.19890229847E+04  0.20068717823E+04  0.17244215116E+03 0.  0.
         24    2    5    5    0    0 -0.18685847672E+03 -0.96298564100E+01  0.18947138602E+04  0.19056814525E+04  0.81684525474E+02 0.  0.
          5    1    5    5  501    0 -0.15747597714E+02  0.32790167071E+02  0.94309124519E+02  0.10119032986E+03  0.47000000000E+01 0. -1.
        -11    1    6    6    0    0 -0.29483108970E+02 -0.25365273548E+02  0.21092093809E+03  0.21447678881E+03  0.00000000000E+00 0.  1.
         12    1    6    6    0    0 -0.15737536775E+03  0.15735417138E+02  0.16837929221E+04  0.16912046637E+04  0.00000000000E+00 0. -1.
         -5    1    3    3    0  503  0.70289793992E+02  0.11384454124E+01  0.21088245176E+03  0.22234084118E+03  0.47000000000E+01 0.  1.
         11    1    4    4    0    0  0.10350640802E+03  0.17761603818E+02  0.67438013152E+02  0.12480759869E+03  0.00000000000E+00 0. -1.
        -12    1    4    4    0    0  0.28809872419E+02 -0.42060359891E+02  0.25763577769E+02  0.57121314432E+02  0.00000000000E+00 0.  1.
<mgrwt>
<rscale>  2 0.26689512E+03</rscale>
<asrwt>0</asrwt>
<pdfrwt beam="1">  1       21 0.36186520E+00 0.26706163E+03</pdfrwt>
<pdfrwt beam="2">  1       21 0.90795795E-02 0.26706163E+03</pdfrwt>
<totfact> 0.13057902E+03</totfact>
</mgrwt>
</event>
<event>
12    1  0.1039378E-001  0.2787496E+03  0.7546771E-02  0.1096444E+00
         21   -1    0    0  503  502  0.00000000000E+00  0.00000000000E+00  0.49427249875E+03  0.49427249875E+03  0.00000000000E+00 0. -1.
         21   -1    0    0  501  503 -0.00000000000E+00 -0.00000000000E+00 -0.17377252063E+03  0.17377252063E+03  0.00000000000E+00 0. -1.
          6    2    1    2  501    0  0.16135787674E+03  0.14725006400E+03  0.56089275014E+02  0.28383888597E+03  0.17233560481E+03 0.  0.
         24    2    3    3    0    0  0.67959210656E+02  0.13235855696E+03  0.78531992164E+02  0.18652067924E+03  0.80532279721E+02 0.  0.
         -6    2    1    2    0  502 -0.16135787674E+03 -0.14725006400E+03  0.26441070310E+03  0.38420613341E+03  0.17315422981E+03 0.  0.
        -24    2    5    5    0    0 -0.95765919123E+02 -0.14644265834E+03  0.12536878316E+03  0.23039552808E+03  0.82147453548E+02 0.  0.
          5    1    3    3  501    0  0.93398666086E+02  0.14891507032E+02 -0.22442717149E+02  0.97318206731E+02  0.47000000000E+01 0. -1.
        -11    1    4    4    0    0 -0.72190517055E+01  0.11853598685E+02  0.35493763274E+02  0.38110756233E+02  0.00000000000E+00 0.  1.
         12    1    4    4    0    0  0.75178262361E+02  0.12050495828E+03  0.43038228890E+02  0.14840992301E+03  0.00000000000E+00 0. -1.
         -5    1    5    5    0  502 -0.65591957619E+02 -0.80740565924E+00  0.13904191995E+03  0.15381060532E+03  0.47000000000E+01 0.  1.
         11    1    6    6    0    0 -0.60201146909E+02 -0.91364341953E+02  0.12323464526E+03  0.16479805479E+03  0.00000000000E+00 0. -1.
        -12    1    6    6    0    0 -0.35564772213E+02 -0.55078316384E+02  0.21341378992E+01  0.65597473296E+02  0.00000000000E+00 0.  1.
<mgrwt>
<rscale>  2 0.27862256E+03</rscale>
<asrwt>0</asrwt>
<pdfrwt beam="1">  1       21 0.76041922E-01 0.27874959E+03</pdfrwt>
<pdfrwt beam="2">  1       21 0.26734234E-01 0.27874959E+03</pdfrwt>
<totfact> 0.19633638E+04</totfact>
</mgrwt>
</event>
<event>
12    1  0.1039378E-001  0.1916470E+03  0.7546771E-02  0.1157381E+00
         21   -1    0    0  501  502  0.00000000000E+00  0.00000000000E+00  0.89926267999E+02  0.89926267999E+02  0.00000000000E+00 0. -1.
         21   -1    0    0  502  503 -0.00000000000E+00 -0.00000000000E+00 -0.11391091508E+04  0.11391091508E+04  0.00000000000E+00 0. -1.
         -6    2    1    2    0  503 -0.74210702561E+02  0.26655829396E+02 -0.10188922173E+04  0.10367593453E+04  0.17467348955E+03 0.  0.
        -24    2    3    3    0    0 -0.11803260883E+03  0.34609792751E+02 -0.75147690626E+03  0.76561978052E+03  0.79539758517E+02 0.  0.
          6    2    1    2  501    0  0.74210702561E+02 -0.26655829396E+02 -0.30290665445E+02  0.19227607346E+03  0.17272753803E+03 0.  0.
         24    2    5    5    0    0  0.83208553744E+02 -0.27145016872E+02  0.36719387960E+02  0.12449969197E+03  0.80568880412E+02 0.  0.
          5    1    5    5  501    0 -0.89978511834E+01  0.48918747550E+00 -0.67010053405E+02  0.67776381488E+02  0.47000000000E+01 0. -1.
        -13    1    6    6    0    0  0.82284008008E+01  0.20319999224E+02 -0.10131295886E+02  0.24150612923E+02  0.00000000000E+00 0.  1.
         14    1    6    6    0    0  0.74980152943E+02 -0.47465016096E+02  0.46850683846E+02  0.10034907905E+03  0.00000000000E+00 0. -1.
         -5    1    3    3    0  503  0.43821906269E+02 -0.79539633546E+01 -0.26741531109E+03  0.27113956481E+03  0.47000000000E+01 0.  1.
         13    1    4    4    0    0 -0.41294305849E+01 -0.19046831380E+02 -0.13667427166E+03  0.13805683799E+03  0.00000000000E+00 0. -1.
        -14    1    4    4    0    0 -0.11390317825E+03  0.53656624130E+02 -0.61480263459E+03  0.62756294253E+03  0.00000000000E+00 0.  1.
<mgrwt>
<rscale>  2 0.19120252E+03</rscale>
<asrwt>0</asrwt>
<pdfrwt beam="1">  1       21 0.13834811E-01 0.19164704E+03</pdfrwt>
<pdfrwt beam="2">  1       21 0.17524756E+00 0.19164704E+03</pdfrwt>
<totfact> 0.89185170E+03</totfact>
</mgrwt>
</event>
<event>
12    1  0.1039378E-001  0.1941196E+03  0.7546771E-02  0.1156140E+00
         21   -1    0    0  501  502  0.00000000000E+00  0.00000000000E+00  0.11444629158E+03  0.11444629158E+03  0.00000000000E+00 0.  1.
         21   -1    0    0  502  503 -0.00000000000E+00 -0.00000000000E+00 -0.33836094864E+03  0.33836094864E+03  0.00000000000E+00 0.  1.
         -6    2    1    2    0  503  0.13384271825E+02 -0.84866523235E+02 -0.16427181508E+03  0.24973168097E+03  0.16732966788E+03 0.  0.
        -24    2    3    3    0    0  0.47908402951E+02 -0.63337208287E+02 -0.17141365026E+03  0.20815617326E+03  0.87404438912E+02 0.  0.
          6    2    1    2  501    0 -0.13384271825E+02  0.84866523235E+02 -0.59642841977E+02  0.20307555925E+03  0.17407167681E+03 0.  0.
         24    2    5    5    0    0  0.47364178781E+02  0.26121423838E+02 -0.67707153404E+02  0.11805506717E+03  0.80168859593E+02 0.  0.
          5    1    5    5  501    0 -0.60748450606E+02  0.58745099397E+02  0.80643114270E+01  0.85020492077E+02  0.47000000000E+01 0. -1.
        -11    1    6    6    0    0  0.65888854053E+02  0.35520384766E+02 -0.59877121450E+02  0.95855664910E+02  0.00000000000E+00 0.  1.
         12    1    6    6    0    0 -0.18524675272E+02 -0.93989609282E+01 -0.78300319548E+01  0.22199402264E+02  0.00000000000E+00 0. -1.
         -5    1    3    3    0  503 -0.34524131126E+02 -0.21529314948E+02  0.71418351822E+01  0.41575507717E+02  0.47000000000E+01 0.  1.
         13    1    4    4    0    0  0.65165614468E+02 -0.71179484326E+02 -0.12424351448E+03  0.15731982453E+03  0.00000000000E+00 0. -1.
        -14    1    4    4    0    0 -0.17257211516E+02  0.78422760389E+01 -0.47170135778E+02  0.50836348729E+02  0.00000000000E+00 0.  1.
<mgrwt>
<rscale>  2 0.19259624E+03</rscale>
<asrwt>0</asrwt>
<pdfrwt beam="1">  1       21 0.17607122E-01 0.19411959E+03</pdfrwt>
<pdfrwt beam="2">  1       21 0.52055530E-01 0.19411959E+03</pdfrwt>
<totfact> 0.10237265E+05</totfact>
</mgrwt>
</event>
<event>
12    1  0.1039378E-001  0.2035879E+03  0.7546771E-02  0.1147222E+00
         21   -1    0    0  501  502  0.00000000000E+00  0.00000000000E+00  0.11278163796E+03  0.11278163796E+03  0.00000000000E+00 0. -1.
         21   -1    0    0  502  503 -0.00000000000E+00 -0.00000000000E+00 -0.39024437788E+03  0.39024437788E+03  0.00000000000E+00 0.  1.
         -6    2    1    2    0  503 -0.80529778766E+02 -0.70699361933E+02 -0.20398588181E+03  0.28658461149E+03  0.17040262475E+03 0.  0.
        -24    2    3    3    0    0 -0.10663944525E+03 -0.49644125877E+02 -0.20766569963E+03  0.25251602320E+03  0.82479019452E+02 0.  0.
          6    2    1    2  501    0  0.80529778766E+02  0.70699361933E+02 -0.73476858106E+02  0.21644140434E+03  0.17310282433E+03 0.  0.
         24    2    5    5    0    0  0.10901024068E+03  0.19226535693E+02 -0.21066938801E+02  0.13751436085E+03  0.78825701908E+02 0.  0.
          5    1    5    5  501    0 -0.28480461918E+02  0.51472826240E+02 -0.52409919305E+02  0.78927043488E+02  0.47000000000E+01 0. -1.
        -11    1    6    6    0    0  0.22447165094E+02 -0.22537388515E+02 -0.26281464303E+02  0.41261658567E+02  0.00000000000E+00 0.  1.
         12    1    6    6    0    0  0.86563075590E+02  0.41763924208E+02  0.52145255019E+01  0.96252702285E+02  0.00000000000E+00 0. -1.
         -5    1    3    3    0  503  0.26109666484E+02 -0.21055236056E+02  0.36798178230E+01  0.34068588296E+02  0.47000000000E+01 0.  1.
         11    1    4    4    0    0 -0.71632727524E+02 -0.29983267718E+02 -0.56300984836E+02  0.95916864466E+02  0.00000000000E+00 0. -1.
        -12    1    4    4    0    0 -0.35006717727E+02 -0.19660858159E+02 -0.15136471480E+03  0.15659915873E+03  0.00000000000E+00 0.  1.
<mgrwt>
<rscale>  2 0.20301275E+03</rscale>
<asrwt>0</asrwt>
<pdfrwt beam="1">  1       21 0.17351021E-01 0.20358790E+03</pdfrwt>
<pdfrwt beam="2">  1       21 0.60037596E-01 0.20358790E+03</pdfrwt>
<totfact> 0.77374943E+04</totfact>
</mgrwt>
</event>
<event>
12    1  0.1039378E-001  0.2522084E+03  0.7546771E-02  0.1112136E+00
         21   -1    0    0  503  502  0.00000000000E+00  0.00000000000E+00  0.15271490009E+04  0.15271490009E+04  0.00000000000E+00 0.  1.
         21   -1    0    0  501  503 -0.00000000000E+00 -0.00000000000E+00 -0.11238300349E+03  0.11238300349E+03  0.00000000000E+00 0.  1.
          6    2    1    2  501    0 -0.18267588563E+03  0.50678051458E+00  0.56705008329E+02  0.25850443297E+03  0.17389177059E+03 0.  0.
         24    2    3    3    0    0 -0.17903781054E+03  0.43347938476E+02  0.19533745518E+02  0.20147467596E+03  0.79226867074E+02 0.  0.
         -6    2    1    2    0  502  0.18267588563E+03 -0.50678051458E+00  0.13580609891E+04  0.13810275714E+04  0.17186263972E+03 0.  0.
        -24    2    5    5    0    0  0.89457675647E+02 -0.60017349306E+01  0.38105808699E+03  0.39956102085E+03  0.80031538558E+02 0.  0.
          5    1    3    3  501    0 -0.36380750958E+01 -0.42841157961E+02  0.37171262812E+02  0.57029757012E+02  0.47000000000E+01 0. -1.
        -13    1    4    4    0    0 -0.13383160095E+03  0.34589194269E+02  0.49171112107E+02  0.14671437571E+03  0.00000000000E+00 0.  1.
         14    1    4    4    0    0 -0.45206209585E+02  0.87587442067E+01 -0.29637366589E+02  0.54760300250E+02  0.00000000000E+00 0. -1.
         -5    1    5    5    0  502  0.93218209986E+02  0.54949544160E+01  0.97700290207E+03  0.98146655055E+03  0.47000000000E+01 0.  1.
         11    1    6    6    0    0  0.89569954547E+02  0.17083770562E+02  0.24218498079E+03  0.25878214176E+03  0.00000000000E+00 0. -1.
        -12    1    6    6    0    0 -0.11227890032E+00 -0.23085505492E+02  0.13887310621E+03  0.14077887909E+03  0.00000000000E+00 0.  1.
<mgrwt>
<rscale>  2 0.25185901E+03</rscale>
<asrwt>0</asrwt>
<pdfrwt beam="1">  1       21 0.23494599E+00 0.25220841E+03</pdfrwt>
<pdfrwt beam="2">  1       21 0.17289694E-01 0.25220841E+03</pdfrwt>
<totfact> 0.23315459E+03</totfact>
</mgrwt>
</event>
<event>
12    1  0.1039378E-001  0.2003852E+03  0.7546771E-02  0.1149509E+00
         21   -1    0    0  503  502  0.00000000000E+00  0.00000000000E+00  0.53819465382E+03  0.53819465382E+03  0.00000000000E+00 0. -1.
         21   -1    0    0  501  503 -0.00000000000E+00 -0.00000000000E+00 -0.88407317681E+02  0.88407317681E+02  0.00000000000E+00 0. -1.
          6    2    1    2  501    0 -0.40470482524E+02  0.91658560094E+02  0.10016022727E+03  0.22362140332E+03  0.17301823402E+03 0.  0.
         24    2    3    3    0    0 -0.34877118525E+02 -0.19773200667E+02  0.27392536591E+02  0.90333932666E+02  0.76173981574E+02 0.  0.
         -6    2    1    2    0  502  0.40470482524E+02 -0.91658560094E+02  0.34962710887E+03  0.40298056818E+03  0.17353694558E+03 0.  0.
        -24    2    5    5    0    0 -0.23902298145E+02 -0.10533649248E+03  0.23288500709E+03  0.26888452404E+03  0.79977273264E+02 0.  0.
          5    1    3    3  501    0 -0.55933639989E+01  0.11143176076E+03  0.72767690683E+02  0.13328747066E+03  0.47000000000E+01 0. -1.
        -11    1    4    4    0    0 -0.49240568621E+02 -0.14198775115E+02  0.44098035708E+02  0.67608250726E+02  0.00000000000E+00 0.  1.
         12    1    4    4    0    0  0.14363450096E+02 -0.55744255516E+01 -0.16705499117E+02  0.22725681940E+02  0.00000000000E+00 0. -1.
         -5    1    5    5    0  502  0.64372780669E+02  0.13677932384E+02  0.11674210178E+03  0.13409604414E+03  0.47000000000E+01 0.  1.
         13    1    6    6    0    0 -0.35907751778E+02 -0.72331432529E+02  0.21459575810E+03  0.22928703009E+03  0.00000000000E+00 0. -1.
        -14    1    6    6    0    0  0.12005453633E+02 -0.33005059949E+02  0.18289248984E+02  0.39597493956E+02  0.00000000000E+00 0.  1.
<mgrwt>
<rscale>  2 0.20027283E+03</rscale>
<asrwt>0</asrwt>
<pdfrwt beam="1">  1       21 0.82799175E-01 0.20038519E+03</pdfrwt>
<pdfrwt beam="2">  1       21 0.13601126E-01 0.20038519E+03</pdfrwt>
<totfact> 0.59380606E+04</totfact>
</mgrwt>
</event>
<event>
12    1  0.1039378E-001  0.2357998E+03  0.7546771E-02  0.1123456E+00
         21   -1    0    0  503  502  0.00000000000E+00  0.00000000000E+00  0.19249482269E+04  0.19249482269E+04  0.00000000000E+00 0. -1.
         21   -1    0    0  501  503 -0.00000000000E+00 -0.00000000000E+00 -0.28598196215E+02  0.28598196215E+02  0.00000000000E+00 0. -1.
          6    2    1    2  501    0  0.14229939749E+03 -0.59603563793E+02  0.83795639997E+03  0.86920393874E+03  0.17188035238E+03 0.  0.
         24    2    3    3    0    0  0.11822329160E+03 -0.96032338697E+02  0.51527617210E+03  0.54354870084E+03  0.82077401873E+02 0.  0.
         -6    2    1    2    0  502 -0.14229939749E+03  0.59603563793E+02  0.10583936307E+04  0.10843424844E+04  0.17832510348E+03 0.  0.
        -24    2    5    5    0    0 -0.63122195935E+02 -0.38386809750E+02  0.45142287317E+03  0.46441770421E+03  0.80269762508E+02 0.  0.
          5    1    3    3  501    0  0.24076105888E+02  0.36428774904E+02  0.32268022786E+03  0.32565523790E+03  0.47000000000E+01 0. -1.
        -13    1    4    4    0    0 -0.68266717808E+01 -0.54259365761E+00  0.87278161398E+02  0.87546418045E+02  0.00000000000E+00 0.  1.
         14    1    4    4    0    0  0.12504996338E+03 -0.95489745039E+02  0.42799801071E+03  0.45600228280E+03  0.00000000000E+00 0. -1.
         -5    1    5    5    0  502 -0.79177201553E+02  0.97990373544E+02  0.60697075752E+03  0.61992478015E+03  0.47000000000E+01 0.  1.
         13    1    6    6    0    0 -0.39292689935E+02  0.15207344532E+01  0.70965535565E+02  0.81131592820E+02  0.00000000000E+00 0. -1.
        -14    1    6    6    0    0 -0.23829506000E+02 -0.39907544204E+02  0.38045733761E+03  0.38328611139E+03  0.00000000000E+00 0.  1.
<mgrwt>
<rscale>  2 0.23458154E+03</rscale>
<asrwt>0</asrwt>
<pdfrwt beam="1">  1       21 0.29614578E+00 0.23579980E+03</pdfrwt>
<pdfrwt beam="2">  1       21 0.43997240E-02 0.23579980E+03</pdfrwt>
<totfact> 0.11504533E+04</totfact>
</mgrwt>
</event>
<event>
12    1  0.1039378E-001  0.1834433E+03  0.7546771E-02  0.1164749E+00
         21   -1    0    0  501  502  0.00000000000E+00  0.00000000000E+00  0.79249518842E+03  0.79249518842E+03  0.00000000000E+00 0.  1.
         21   -1    0    0  502  503 -0.00000000000E+00 -0.00000000000E+00 -0.42232188009E+02  0.42232188009E+02  0.00000000000E+00 0.  1.
         -6    2    1    2    0  503 -0.25363622379E+02 -0.54751316947E+02  0.37867210250E+03  0.42076595960E+03  0.17323513355E+03 0.  0.
        -24    2    3    3    0    0  0.10028293825E+02 -0.43682674161E+02  0.37125941313E+03  0.38265899765E+03  0.81151795674E+02 0.  0.
          6    2    1    2  501    0  0.25363622379E+02  0.54751316947E+02  0.37159089791E+03  0.41396141683E+03  0.17217212076E+03 0.  0.
         24    2    5    5    0    0  0.63489322552E+02  0.70540034832E+02  0.33908270915E+03  0.36121935617E+03  0.80594969044E+02 0.  0.
          5    1    5    5  501    0 -0.38125700172E+02 -0.15788717885E+02  0.32508188759E+02  0.52742060658E+02  0.47000000000E+01 0. -1.
        -11    1    6    6    0    0  0.41858337549E+02  0.38017039890E+02  0.30237938779E+03  0.30762104919E+03  0.00000000000E+00 0.  1.
         12    1    6    6    0    0  0.21630985003E+02  0.32522994942E+02  0.36703321356E+02  0.53598306977E+02  0.00000000000E+00 0. -1.
         -5    1    3    3    0  503 -0.35391916204E+02 -0.11068642786E+02  0.74126893700E+01  0.38106961955E+02  0.47000000000E+01 0.  1.
         11    1    4    4    0    0 -0.36482880645E+01 -0.41271721240E+02  0.36513981930E+03  0.36748299637E+03  0.00000000000E+00 0. -1.
        -12    1    4    4    0    0  0.13676581889E+02 -0.24109529204E+01  0.61195938321E+01  0.15176001279E+02  0.00000000000E+00 0.  1.
<mgrwt>
<rscale>  2 0.18319187E+03</rscale>
<asrwt>0</asrwt>
<pdfrwt beam="1">  1       21 0.12192233E+00 0.18344327E+03</pdfrwt>
<pdfrwt beam="2">  1       21 0.64972603E-02 0.18344327E+03</pdfrwt>
<totfact> 0.87677994E+04</totfact>
</mgrwt>
</event>
<event>
12    1  0.1039378E-001  0.2561524E+03  0.7546771E-02  0.1109486E+00
         21   -1    0    0  501  502  0.00000000000E+00  0.00000000000E+00  0.12279740276E+03  0.12279740276E+03  0.00000000000E+00 0.  1.
         21   -1    0    0  502  503 -0.00000000000E+00 -0.00000000000E+00 -0.15959107210E+04  0.15959107210E+04  0.00000000000E+00 0. -1.
         -6    2    1    2    0  503  0.14870850214E+03  0.11557027679E+03 -0.14374501662E+04  0.14600850313E+04  0.17353561846E+03 0.  0.
        -24    2    3    3    0    0  0.45666205292E+02  0.10742806591E+03 -0.61619354832E+03  0.63233595524E+03  0.80796532362E+02 0.  0.
          6    2    1    2  501    0 -0.14870850214E+03 -0.11557027679E+03 -0.35663152049E+02  0.25862309245E+03  0.17361836322E+03 0.  0.
         24    2    5    5    0    0 -0.15544399597E+03 -0.10314748063E+03  0.15135253684E+02  0.20568670830E+03  0.85297757428E+02 0.  0.
          5    1    5    5  501    0  0.67354938352E+01 -0.12422796154E+02 -0.50798405733E+02  0.52936384147E+02  0.47000000000E+01 0. -1.
        -11    1    6    6    0    0 -0.89679065498E+02 -0.10654547829E+03  0.11361578599E+02  0.13972601476E+03  0.00000000000E+00 0.  1.
         12    1    6    6    0    0 -0.65764930475E+02  0.33979976580E+01  0.37736750851E+01  0.65960693539E+02  0.00000000000E+00 0. -1.
         -5    1    3    3    0  503  0.10304229685E+03  0.81422108806E+01 -0.82125661791E+03  0.82774907610E+03  0.47000000000E+01 0.  1.
         11    1    4    4    0    0  0.59881150900E+02  0.39819602291E+02 -0.35101793305E+03  0.35830844573E+03  0.00000000000E+00 0. -1.
        -12    1    4    4    0    0 -0.14214945608E+02  0.67608463615E+02 -0.26517561527E+03  0.27402750951E+03  0.00000000000E+00 0.  1.
<mgrwt>
<rscale>  2 0.25613836E+03</rscale>
<asrwt>0</asrwt>
<pdfrwt beam="1">  1       21 0.18891907E-01 0.25615238E+03</pdfrwt>
<pdfrwt beam="2">  1       21 0.24552473E+00 0.25615238E+03</pdfrwt>
<totfact> 0.17009482E+03</totfact>
</mgrwt>
</event>
<event>
12    1  0.1039378E-001  0.2005153E+03  0.7546771E-02  0.1149444E+00
         21   -1    0    0  503  502  0.00000000000E+00  0.00000000000E+00  0.68907047601E+03  0.68907047601E+03  0.00000000000E+00 0.  1.
         21   -1    0    0  501  503 -0.00000000000E+00 -0.00000000000E+00 -0.37999491887E+03  0.37999491887E+03  0.00000000000E+00 0. -1.
          6    2    1    2  501    0  0.71125261069E+02  0.71186651114E+02 -0.33735395232E+03  0.39244627961E+03  0.17343601465E+03 0.  0.
         24    2    3    3    0    0  0.28299733510E+02  0.10719093218E+03 -0.28508055477E+03  0.31573296814E+03  0.78266299297E+02 0.  0.
         -6    2    1    2    0  502 -0.71125261069E+02 -0.71186651114E+02  0.64642950946E+03  0.67661911527E+03  0.17267302740E+03 0.  0.
        -24    2    5    5    0    0  0.17902076319E+02 -0.26330051730E+02  0.42729122650E+03  0.43582530645E+03  0.79700373476E+02 0.  0.
          5    1    3    3  501    0  0.42825527559E+02 -0.36004281063E+02 -0.52273397548E+02  0.76713311471E+02  0.47000000000E+01 0. -1.
        -11    1    4    4    0    0 -0.20579996594E+02  0.40634967441E+02 -0.55769763880E+02  0.72006967732E+02  0.00000000000E+00 0.  1.
         12    1    4    4    0    0  0.48879730103E+02  0.66555964736E+02 -0.22931079089E+03  0.24372600041E+03  0.00000000000E+00 0. -1.
         -5    1    5    5    0  502 -0.89027337388E+02 -0.44856599384E+02  0.21913828295E+03  0.24079380882E+03  0.47000000000E+01 0.  1.
         13    1    6    6    0    0  0.27789987005E+02  0.22645230121E+02  0.17473985494E+03  0.17837910957E+03  0.00000000000E+00 0. -1.
        -14    1    6    6    0    0 -0.98879106864E+01 -0.48975281851E+02  0.25255137156E+03  0.25744619688E+03  0.00000000000E+00 0.  1.
<mgrwt>
<rscale>  2 0.20035022E+03</rscale>
<asrwt>0</asrwt>
<pdfrwt beam="1">  1       21 0.10601084E+00 0.20051532E+03</pdfrwt>
<pdfrwt beam="2">  1       21 0.58460757E-01 0.20051532E+03</pdfrwt>
<totfact> 0.19419850E+03</totfact>
</mgrwt>
</event>
<event>
12    1  0.1039378E-001  0.2340992E+03  0.7546771E-02  0.1123960E+00
         21   -1    0    0  503  502  0.00000000000E+00  0.00000000000E+00  0.36235766691E+03  0.36235766691E+03  0.00000000000E+00 0. -1.
         21   -1    0    0  501  503 -0.00000000000E+00 -0.00000000000E+00 -0.15061779305E+03  0.15061779305E+03  0.00000000000E+00 0.  1.
          6    2    1    2  501    0  0.15292772636E+03 -0.34412563772E+02  0.10888879716E+03  0.25727876543E+03  0.17252385041E+03 0.  0.
         24    2    3    3    0    0  0.14873221618E+03 -0.76446885213E+02  0.10850297684E+03  0.21477317354E+03  0.79932607249E+02 0.  0.
         -6    2    1    2    0  502 -0.15292772636E+03  0.34412563772E+02  0.10285107670E+03  0.25569669453E+03  0.17387162385E+03 0.  0.
        -24    2    5    5    0    0 -0.15750076075E+03 -0.20347598010E+02  0.91256474259E+02  0.19933968283E+03  0.78664163864E+02 0.  0.
          5    1    3    3  501    0  0.41955101821E+01  0.42034321441E+02  0.38582032300E+00  0.42505591891E+02  0.47000000000E+01 0. -1.
        -13    1    4    4    0    0  0.10070085494E+03 -0.42647554928E+02  0.24160547238E+02  0.11199646499E+03  0.00000000000E+00 0.  1.
         14    1    4    4    0    0  0.48031361243E+02 -0.33799330285E+02  0.84342429603E+02  0.10277670856E+03  0.00000000000E+00 0. -1.
         -5    1    5    5    0  502  0.45730343855E+01  0.54760161782E+02  0.11594602439E+02  0.56357011699E+02  0.47000000000E+01 0.  1.
         11    1    6    6    0    0 -0.65474692634E+02 -0.47560265873E+02  0.47857732854E+02  0.94017428488E+02  0.00000000000E+00 0. -1.
        -12    1    6    6    0    0 -0.92026068114E+02  0.27212667863E+02  0.43398741405E+02  0.10532225435E+03  0.00000000000E+00 0.  1.
<mgrwt>
<rscale>  2 0.23384902E+03</rscale>
<asrwt>0</asrwt>
<pdfrwt beam="1">  1       21 0.55747333E-01 0.23409924E+03</pdfrwt>
<pdfrwt beam="2">  1       21 0.23171968E-01 0.23409924E+03</pdfrwt>
<totfact> 0.52050829E+04</totfact>
</mgrwt>
</event>
<event>
12    1  0.1039378E-001  0.1845461E+03  0.7546771E-02  0.1164347E+00
         21   -1    0    0  501  502  0.00000000000E+00  0.00000000000E+00  0.49275395702E+03  0.49275395702E+03  0.00000000000E+00 0. -1.
         21   -1    0    0  502  503 -0.00000000000E+00 -0.00000000000E+00 -0.78911299515E+02  0.78911299515E+02  0.00000000000E+00 0. -1.
         -6    2    1    2    0  503 -0.54227161241E+02 -0.20911781029E+02  0.97605516736E+02  0.20551885361E+03  0.17126959651E+03 0.  0.
        -24    2    3    3    0    0 -0.36794244732E+02  0.51637930837E+02  0.50107200981E+02  0.11694375965E+03  0.84527031091E+02 0.  0.
          6    2    1    2  501    0  0.54227161241E+02  0.20911781029E+02  0.31623714077E+03  0.36614640293E+03  0.17515527846E+03 0.  0.
         24    2    5    5    0    0 -0.29804076999E+02  0.10766368139E+02  0.22826065276E+03  0.24397385755E+03  0.80100685877E+02 0.  0.
          5    1    5    5  501    0  0.84031238240E+02  0.10145412890E+02  0.87976488010E+02  0.12217254538E+03  0.47000000000E+01 0. -1.
        -11    1    6    6    0    0 -0.94053289867E+01  0.26550597891E+02  0.21049330078E+02  0.35163457715E+02  0.00000000000E+00 0.  1.
         12    1    6    6    0    0 -0.20398748012E+02 -0.15784229752E+02  0.20721132269E+03  0.20881039983E+03  0.00000000000E+00 0. -1.
         -5    1    3    3    0  503 -0.17432916509E+02 -0.72549711866E+02  0.47498315755E+02  0.88575093956E+02  0.47000000000E+01 0.  1.
         13    1    4    4    0    0 -0.38011369732E+02 -0.73617741072E+01 -0.12142628301E+01  0.38736731679E+02  0.00000000000E+00 0. -1.
        -14    1    4    4    0    0  0.12171250004E+01  0.58999704944E+02  0.51321463811E+02  0.78207027974E+02  0.00000000000E+00 0.  1.
<mgrwt>
<rscale>  2 0.18361816E+03</rscale>
<asrwt>0</asrwt>
<pdfrwt beam="1">  1       21 0.75808299E-01 0.18454609E+03</pdfrwt>
<pdfrwt beam="2">  1       21 0.12140200E-01 0.18454609E+03</pdfrwt>
<totfact> 0.89509356E+04</totfact>
</mgrwt>
</event>
<event>
12    1  0.1039378E-001  0.1867362E+03  0.7546771E-02  0.1161992E+00
         21   -1    0    0  501  502  0.00000000000E+00  0.00000000000E+00  0.16804111898E+03  0.16804111898E+03  0.00000000000E+00 0.  1.
         21   -1    0    0  502  503 -0.00000000000E+00 -0.00000000000E+00 -0.23345092293E+03  0.23345092293E+03  0.00000000000E+00 0.  1.
         -6    2    1    2    0  503  0.12374041615E+02 -0.64044533065E+02 -0.10276132582E+03  0.21105689860E+03  0.17242478140E+03 0.  0.
        -24    2    3    3    0    0 -0.12853566805E+02 -0.95481709762E+02 -0.32406496131E+02  0.12983731743E+03  0.80781043111E+02 0.  0.
          6    2    1    2  501    0 -0.12374041615E+02  0.64044533065E+02  0.37351521875E+02  0.19043514331E+03  0.17497310793E+03 0.  0.
         24    2    5    5    0    0 -0.82800443891E+01  0.44259125672E+02  0.92104782637E+02  0.13188403125E+03  0.82961903151E+02 0.  0.
          5    1    5    5  501    0 -0.40939972257E+01  0.19785407394E+02 -0.54753260761E+02  0.58551112056E+02  0.47000000000E+01 0. -1.
        -11    1    6    6    0    0 -0.24506345933E+02  0.50699782586E+02  0.23373190094E+02  0.60969951291E+02  0.00000000000E+00 0.  1.
         12    1    6    6    0    0  0.16226301544E+02 -0.64406569143E+01  0.68731592542E+02  0.70914079961E+02  0.00000000000E+00 0. -1.
         -5    1    3    3    0  503  0.25227608420E+02  0.31437176696E+02 -0.70354829692E+02  0.81219581175E+02  0.47000000000E+01 0.  1.
         11    1    4    4    0    0 -0.30395095364E+02 -0.99225529248E+02 -0.38803892580E+02  0.11079399603E+03  0.00000000000E+00 0. -1.
        -12    1    4    4    0    0  0.17541528558E+02  0.37438194858E+01  0.63973964490E+01  0.19043321397E+02  0.00000000000E+00 0.  1.
<mgrwt>
<rscale>  2 0.18613691E+03</rscale>
<asrwt>0</asrwt>
<pdfrwt beam="1">  1       21 0.25852480E-01 0.18673620E+03</pdfrwt>
<pdfrwt beam="2">  1       21 0.35915527E-01 0.18673620E+03</pdfrwt>
<totfact> 0.10642857E+05</totfact>
</mgrwt>
</event>
<event>
12    1  0.1039378E-001  0.1820351E+03  0.7546771E-02  0.1166315E+00
         21   -1    0    0  501  502  0.00000000000E+00  0.00000000000E+00  0.43424680523E+02  0.43424680523E+02  0.00000000000E+00 0.  1.
         21   -1    0    0  502  503 -0.00000000000E+00 -0.00000000000E+00 -0.89717013970E+03  0.89717013970E+03  0.00000000000E+00 0.  1.
         -6    2    1    2    0  503 -0.38683612772E+02  0.30327962827E+02 -0.61604740438E+03  0.64237930692E+03  0.17527282246E+03 0.  0.
        -24    2    3    3    0    0 -0.14956298877E+02 -0.38048891328E+02 -0.18886140321E+03  0.20907993097E+03  0.79839707561E+02 0.  0.
          6    2    1    2  501    0  0.38683612772E+02 -0.30327962827E+02 -0.23769805479E+03  0.29821551330E+03  0.17325103143E+03 0.  0.
         24    2    5    5    0    0  0.12846934066E+02  0.72639775587E+01 -0.23983851262E+03  0.25230952776E+03  0.76940084328E+02 0.  0.
          5    1    5    5  501    0  0.25836678706E+02 -0.37591940386E+02  0.21404578273E+01  0.45905985539E+02  0.47000000000E+01 0. -1.
        -13    1    6    6    0    0  0.26180095523E+02 -0.14455795399E+02 -0.35632361749E+02  0.46519164073E+02  0.00000000000E+00 0.  1.
         14    1    6    6    0    0 -0.13333161457E+02  0.21719772958E+02 -0.20420615087E+03  0.20579036368E+03  0.00000000000E+00 0. -1.
         -5    1    3    3    0  503 -0.23727313895E+02  0.68376854155E+02 -0.42718600117E+03  0.43329937595E+03  0.47000000000E+01 0.  1.
         13    1    4    4    0    0  0.50741618659E+01 -0.55290000380E+02 -0.16261669907E+03  0.17183399569E+03  0.00000000000E+00 0. -1.
        -14    1    4    4    0    0 -0.20030460743E+02  0.17241109052E+02 -0.26244704147E+02  0.37245935277E+02  0.00000000000E+00 0.  1.
<mgrwt>
<rscale>  2 0.18154665E+03</rscale>
<asrwt>0</asrwt>
<pdfrwt beam="1">  1       21 0.66807207E-02 0.18203508E+03</pdfrwt>
<pdfrwt beam="2">  1       21 0.13802616E+00 0.18203508E+03</pdfrwt>
<totfact> 0.61189730E+04</totfact>
</mgrwt>
</event>
<event>
12    1  0.1039378E-001  0.2272013E+03  0.7546771E-02  0.1128976E+00
         21   -1    0    0  503  502  0.00000000000E+00  0.00000000000E+00  0.23718614207E+03  0.23718614207E+03  0.00000000000E+00 0.  1.
         21   -1    0    0  501  503 -0.00000000000E+00 -0.00000000000E+00 -0.21583105078E+03  0.21583105078E+03  0.00000000000E+00 0.  1.
          6    2    1    2  501    0 -0.58390180449E+02  0.13538993617E+03  0.67803033368E+01  0.22534889046E+03  0.17028300541E+03 0.  0.
         24    2    3    3    0    0 -0.11661892324E+02  0.11605095666E+03 -0.49149858507E+02  0.14979889349E+03  0.80125998436E+02 0.  0.
         -6    2    1    2    0  502  0.58390180449E+02 -0.13538993617E+03  0.14574787949E+02  0.22766830239E+03  0.17286001123E+03 0.  0.
        -24    2    5    5    0    0  0.21934697616E+01 -0.11734169232E+03  0.58403080198E+02  0.15400135865E+03  0.80818405229E+02 0.  0.
          5    1    3    3  501    0 -0.46728288125E+02  0.19338979511E+02  0.55930161843E+02  0.75549996979E+02  0.47000000000E+01 0. -1.
        -11    1    4    4    0    0 -0.57520808581E+01  0.10163849693E+03 -0.38260695151E+01  0.10187300575E+03  0.00000000000E+00 0.  1.
         12    1    4    4    0    0 -0.59098114659E+01  0.14412459726E+02 -0.45323788991E+02  0.47925887738E+02  0.00000000000E+00 0. -1.
         -5    1    5    5    0  502  0.56196710688E+02 -0.18048243843E+02 -0.43828292249E+02  0.73666943736E+02  0.47000000000E+01 0.  1.
         11    1    6    6    0    0 -0.34469725146E+02 -0.89705001155E+02  0.45391894552E+02  0.10628063452E+03  0.00000000000E+00 0. -1.
        -12    1    6    6    0    0  0.36663194907E+02 -0.27636691169E+02  0.13011185646E+02  0.47720724130E+02  0.00000000000E+00 0.  1.
<mgrwt>
<rscale>  2 0.22671111E+03</rscale>
<asrwt>0</asrwt>
<pdfrwt beam="1">  1       21 0.36490176E-01 0.22720130E+03</pdfrwt>
<pdfrwt beam="2">  1       21 0.33204777E-01 0.22720130E+03</pdfrwt>
<totfact> 0.62299347E+04</totfact>
</mgrwt>
</event>
<event>
12    1  0.1039378E-001  0.2079744E+03  0.7546771E-02  0.1143851E+00
         21   -1    0    0  501  502  0.00000000000E+00  0.00000000000E+00  0.10312662685E+03  0.10312662685E+03  0.00000000000E+00 0. -1.
         21   -1    0    0  502  503 -0.00000000000E+00 -0.00000000000E+00 -0.42560069530E+03  0.42560069530E+03  0.00000000000E+00 0. -1.
         -6    2    1    2    0  503  0.10683614137E+03 -0.30277741781E+02 -0.20590514879E+03  0.29031239724E+03  0.17191176500E+03 0.  0.
        -24    2    3    3    0    0  0.10928169532E+03  0.33096359522E+02 -0.12811525904E+03  0.18983546258E+03  0.81154946316E+02 0.  0.
          6    2    1    2  501    0 -0.10683614137E+03  0.30277741781E+02 -0.11656891966E+03  0.23841492491E+03  0.17584840243E+03 0.  0.
         24    2    5    5    0    0  0.25153235489E+01  0.10932969821E+02  0.63055187920E-01  0.77302943236E+02  0.76484536837E+02 0.  0.
          5    1    5    5  501    0 -0.10935146491E+03  0.19344771960E+02 -0.11663197485E+03  0.16111198167E+03  0.47000000000E+01 0. -1.
        -11    1    6    6    0    0  0.14502648428E+02  0.16278032003E+02 -0.34230476125E+02  0.40583575902E+02  0.00000000000E+00 0.  1.
         12    1    6    6    0    0 -0.11987324879E+02 -0.53450621815E+01  0.34293531312E+02  0.36719367333E+02  0.00000000000E+00 0. -1.
         -5    1    3    3    0  503 -0.24455539534E+01 -0.63374101303E+02 -0.77789889755E+02  0.10047693466E+03  0.47000000000E+01 0.  1.
         11    1    4    4    0    0  0.90398214229E+02 -0.11565017061E+02 -0.76163579173E+02  0.11877069314E+03  0.00000000000E+00 0. -1.
        -12    1    4    4    0    0  0.18883481090E+02  0.44661376583E+02 -0.51951679862E+02  0.71064769449E+02  0.00000000000E+00 0.  1.
<mgrwt>
<rscale>  2 0.20713998E+03</rscale>
<asrwt>0</asrwt>
<pdfrwt beam="1">  1       21 0.15865635E-01 0.20797443E+03</pdfrwt>
<pdfrwt beam="2">  1       21 0.65477029E-01 0.20797443E+03</pdfrwt>
<totfact> 0.75445092E+04</totfact>
</mgrwt>
</event>
<event>
12    1  0.1039378E-001  0.1791971E+03  0.7546771E-02  0.1168697E+00
         21   -1    0    0  503  502  0.00000000000E+00  0.00000000000E+00  0.21997838289E+03  0.21997838289E+03  0.00000000000E+00 0. -1.
         21   -1    0    0  501  503 -0.00000000000E+00 -0.00000000000E+00 -0.16809319756E+03  0.16809319756E+03  0.00000000000E+00 0. -1.
          6    2    1    2  501    0 -0.25402838638E+02  0.40575882777E+02  0.96903491547E+02  0.20330623890E+03  0.17219591641E+03 0.  0.
         24    2    3    3    0    0 -0.70761227826E+02  0.25548404859E+02  0.22207963328E+02  0.11451029024E+03  0.83423860983E+02 0.  0.
         -6    2    1    2    0  502  0.25402838638E+02 -0.40575882777E+02 -0.45018306210E+02  0.18476534155E+03  0.17268432781E+03 0.  0.
        -24    2    5    5    0    0  0.79081496853E+02 -0.44036602080E+02 -0.12510043391E+02  0.12173953670E+03  0.80441955117E+02 0.  0.
          5    1    3    3  501    0  0.45358389188E+02  0.15027477918E+02  0.74695528219E+02  0.88795948659E+02  0.47000000000E+01 0. -1.
        -13    1    4    4    0    0  0.14335562512E+02  0.11705384469E+02 -0.11667903203E+02  0.21878399011E+02  0.00000000000E+00 0.  1.
         14    1    4    4    0    0 -0.85096790339E+02  0.13843020389E+02  0.33875866530E+02  0.92631891229E+02  0.00000000000E+00 0. -1.
         -5    1    5    5    0  502 -0.53678658215E+02  0.34607193036E+01 -0.32508262819E+02  0.63025804853E+02  0.47000000000E+01 0.  1.
         11    1    6    6    0    0  0.26104052964E+02  0.23581084696E+02 -0.26989759726E+01  0.35281349293E+02  0.00000000000E+00 0. -1.
        -12    1    6    6    0    0  0.52977443888E+02 -0.67617686776E+02 -0.98110674181E+01  0.86458187407E+02  0.00000000000E+00 0.  1.
<mgrwt>
<rscale>  2 0.17907928E+03</rscale>
<asrwt>0</asrwt>
<pdfrwt beam="1">  1       21 0.33842828E-01 0.17919705E+03</pdfrwt>
<pdfrwt beam="2">  1       21 0.25860492E-01 0.17919705E+03</pdfrwt>
<totfact> 0.11998547E+05</totfact>
</mgrwt>
</event>
<event>
12    1  0.1039378E-001  0.2382384E+03  0.7546771E-02  0.1121049E+00
         21   -1    0    0  503  502  0.00000000000E+00  0.00000000000E+00  0.13984523649E+03  0.13984523649E+03  0.00000000000E+00 0. -1.
         21   -1    0    0  501  503 -0.00000000000E+00 -0.00000000000E+00 -0.41274470022E+03  0.41274470022E+03  0.00000000000E+00 0. -1.
          6    2    1    2  501    0  0.44018771774E+02  0.15744974792E+03 -0.98927007272E+02  0.25796137767E+03  0.17329005804E+03 0.  0.
         24    2    3    3    0    0  0.85562028724E+02  0.63440171973E+02 -0.39183681177E+02  0.13898660060E+03  0.80227165574E+02 0.  0.
         -6    2    1    2    0  502 -0.44018771774E+02 -0.15744974792E+03 -0.17397245647E+03  0.29462855904E+03  0.17266006141E+03 0.  0.
        -24    2    5    5    0    0 -0.59586112465E+02 -0.15326017560E+03 -0.81175740787E+02  0.20032471472E+03  0.80630665462E+02 0.  0.
          5    1    3    3  501    0 -0.41543256950E+02  0.94009575943E+02 -0.59743326095E+02  0.11897477707E+03  0.47000000000E+01 0. -1.
        -13    1    4    4    0    0 -0.75225664852E+01 -0.74269478403E+00  0.12546395856E+02  0.14647615883E+02  0.00000000000E+00 0.  1.
         14    1    4    4    0    0  0.93084595209E+02  0.64182866757E+02 -0.51730077033E+02  0.12433898472E+03  0.00000000000E+00 0. -1.
         -5    1    5    5    0  502  0.15567340691E+02 -0.41895723201E+01 -0.92796715679E+02  0.94303844318E+02  0.47000000000E+01 0.  1.
         11    1    6    6    0    0 -0.15874352745E+02 -0.13029771879E+03 -0.43724256465E+02  0.13835209142E+03  0.00000000000E+00 0. -1.
        -12    1    6    6    0    0 -0.43711759720E+02 -0.22962456802E+02 -0.37451484322E+02  0.61972623296E+02  0.00000000000E+00 0.  1.
<mgrwt>
<rscale>  2 0.23812382E+03</rscale>
<asrwt>0</asrwt>
<pdfrwt beam="1">  1       21 0.21514652E-01 0.23823837E+03</pdfrwt>
<pdfrwt beam="2">  1       21 0.63499184E-01 0.23823837E+03</pdfrwt>
<totfact> 0.45178644E+04</totfact>
</mgrwt>
</event>
<event>
12    1  0.1039378E-001  0.1960045E+03  0.7546771E-02  0.1153258E+00
         21   -1    0    0  501  502  0.00000000000E+00  0.00000000000E+00  0.70778090476E+03  0.70778090476E+03  0.00000000000E+00 0. -1.
         21   -1    0    0  502  503 -0.00000000000E+00 -0.00000000000E+00 -0.27368134348E+03  0.27368134348E+03  0.00000000000E+00 0. -1.
         -6    2    1    2    0  503  0.72917888119E+02  0.54185168208E+02 -0.22241116550E+03  0.29645317009E+03  0.17367989134E+03 0.  0.
        -24    2    3    3    0    0 -0.24408073805E+02  0.44867056411E+02 -0.13630725526E+03  0.16608774741E+03  0.79979154691E+02 0.  0.
          6    2    1    2  501    0 -0.72917888119E+02 -0.54185168208E+02  0.65651072678E+03  0.68500907816E+03  0.17314171052E+03 0.  0.
         24    2    5    5    0    0 -0.12255580526E+02 -0.22375183194E+02  0.56141770976E+03  0.56772070450E+03  0.80412097427E+02 0.  0.
          5    1    5    5  501    0 -0.60662307593E+02 -0.31809985014E+02  0.95093017024E+02  0.11728837366E+03  0.47000000000E+01 0. -1.
        -13    1    6    6    0    0 -0.77855287813E+01  0.19363030288E+02  0.45045641699E+02  0.49645253917E+02  0.00000000000E+00 0.  1.
         14    1    6    6    0    0 -0.44700517452E+01 -0.41738213482E+02  0.51637206806E+03  0.51807545058E+03  0.00000000000E+00 0. -1.
         -5    1    3    3    0  503  0.97325961924E+02  0.93181117965E+01 -0.86103910237E+02  0.13036542268E+03  0.47000000000E+01 0.  1.
         11    1    4    4    0    0  0.15833168652E+02  0.51696354600E+02 -0.76261154031E+02  0.93482436439E+02  0.00000000000E+00 0. -1.
        -12    1    4    4    0    0 -0.40241242457E+02 -0.68292981884E+01 -0.60046101231E+02  0.72605310972E+02  0.00000000000E+00 0.  1.
<mgrwt>
<rscale>  2 0.19588519E+03</rscale>
<asrwt>0</asrwt>
<pdfrwt beam="1">  1       21 0.10888937E+00 0.19600448E+03</pdfrwt>
<pdfrwt beam="2">  1       21 0.42104822E-01 0.19600448E+03</pdfrwt>
<totfact> 0.36233899E+03</totfact>
</mgrwt>
</event>
<event>
12    1  0.1039378E-001  0.2039396E+03  0.7546771E-02  0.1146566E+00
         21   -1    0    0  503  502  0.00000000000E+00  0.00000000000E+00  0.42472101623E+02  0.42472101623E+02  0.00000000000E+00 0. -1.
         21   -1    0    0  501  503 -0.00000000000E+00 -0.00000000000E+00 -0.10920311405E+04  0.10920311405E+04  0.00000000000E+00 0. -1.
          6    2    1    2  501    0  0.10406043928E+03  0.18868315179E+02 -0.33983860933E+03  0.39606269331E+03  0.17375496627E+03 0.  0.
         24    2    3    3    0    0  0.64719312958E+02 -0.51668127912E+01 -0.74302561021E+02  0.12651326455E+03  0.79179859234E+02 0.  0.
         -6    2    1    2    0  502 -0.10406043928E+03 -0.18868315179E+02 -0.70972042956E+03  0.73844054882E+03  0.17437536428E+03 0.  0.
        -24    2    5    5    0    0 -0.59612665578E+02 -0.78550681762E+02 -0.51370726316E+03  0.52872445295E+03  0.77009839724E+02 0.  0.
          5    1    3    3  501    0  0.39341126318E+02  0.24035127970E+02 -0.26553604831E+03  0.26954942876E+03  0.47000000000E+01 0. -1.
        -13    1    4    4    0    0  0.67680690171E+02 -0.24403464826E+02 -0.78626514496E+02  0.10657548358E+03  0.00000000000E+00 0.  1.
         14    1    4    4    0    0 -0.29613772132E+01  0.19236652035E+02  0.43239534744E+01  0.19937780974E+02  0.00000000000E+00 0. -1.
         -5    1    5    5    0  502 -0.44447773698E+02  0.59682366583E+02 -0.19601316639E+03  0.20971609587E+03  0.47000000000E+01 0.  1.
         13    1    6    6    0    0 -0.15941898772E+02 -0.14064249917E+02 -0.30855249538E+03  0.30928399517E+03  0.00000000000E+00 0. -1.
        -14    1    6    6    0    0 -0.43670766806E+02 -0.64486431846E+02 -0.20515476778E+03  0.21944045778E+03  0.00000000000E+00 0.  1.
<mgrwt>
<rscale>  2 0.20380691E+03</rscale>
<asrwt>0</asrwt>
<pdfrwt beam="1">  1       21 0.65341692E-02 0.20393959E+03</pdfrwt>
<pdfrwt beam="2">  1       21 0.16800480E+00 0.20393959E+03</pdfrwt>
<totfact> 0.37277650E+04</totfact>
</mgrwt>
</event>
<event>
12    1  0.1039378E-001  0.1892061E+03  0.7546771E-02  0.1159199E+00
         21   -1    0    0  501  502  0.00000000000E+00  0.00000000000E+00  0.20595167491E+02  0.20595167491E+02  0.00000000000E+00 0. -1.
         21   -1    0    0  502  503 -0.00000000000E+00 -0.00000000000E+00 -0.17384625834E+04  0.17384625834E+04  0.00000000000E+00 0. -1.
         -6    2    1    2    0  503  0.92349247805E+01  0.78273342089E+02 -0.88034032012E+03  0.90042477244E+03  0.17191187181E+03 0.  0.
        -24    2    3    3    0    0  0.33166354157E+02 -0.14360099509E+01 -0.26300367132E+03  0.27748583316E+03  0.82008458732E+02 0.  0.
          6    2    1    2  501    0 -0.92349247805E+01 -0.78273342089E+02 -0.83752709582E+03  0.85863297848E+03  0.17200859163E+03 0.  0.
         24    2    5    5    0    0  0.47354224603E+02  0.35095718575E+01 -0.41554851052E+03  0.42506776621E+03  0.75810959605E+02 0.  0.
          5    1    5    5  501    0 -0.56589149383E+02 -0.81782913946E+02 -0.42197858530E+03  0.43356521227E+03  0.47000000000E+01 0. -1.
        -11    1    6    6    0    0  0.38456219247E+02 -0.33500922984E+02 -0.21814800673E+03  0.22403067977E+03  0.00000000000E+00 0.  1.
         12    1    6    6    0    0  0.88980053559E+01  0.37010494842E+02 -0.19740050379E+03  0.20103708644E+03  0.00000000000E+00 0. -1.
         -5    1    3    3    0  503 -0.23931429376E+02  0.79709352040E+02 -0.61733664880E+03  0.62293893927E+03  0.47000000000E+01 0.  1.
         13    1    4    4    0    0  0.16684989414E+02 -0.25470615161E+01 -0.26018069746E+03  0.26072758144E+03  0.00000000000E+00 0. -1.
        -14    1    4    4    0    0  0.16481364743E+02  0.11110515652E+01 -0.28229738666E+01  0.16758251723E+02  0.00000000000E+00 0.  1.
<mgrwt>
<rscale>  2 0.18918413E+03</rscale>
<asrwt>0</asrwt>
<pdfrwt beam="1">  1       21 0.31684870E-02 0.18920612E+03</pdfrwt>
<pdfrwt beam="2">  1       21 0.26745580E+00 0.18920612E+03</pdfrwt>
<totfact> 0.30487151E+04</totfact>
</mgrwt>
</event>
<event>
11    1  0.1039378E-001  0.1767701E+03  0.7546771E-02  0.1171177E+00
         21   -1    0    0  501  502  0.00000000000E+00  0.00000000000E+00  0.52674877155E+02  0.52674877155E+02  0.00000000000E+00 0.  1.
         21   -1    0    0  502  503 -0.00000000000E+00 -0.00000000000E+00 -0.62540457070E+03  0.62540457070E+03  0.00000000000E+00 0.  1.
         -6    2    1    2    0  503  0.30500856125E+02  0.14330951217E+02 -0.36595124046E+03  0.40604087081E+03  0.17266499352E+03 0.  0.
        -24    2    3    3    0    0  0.26746664219E+02  0.66035901813E+02 -0.15274359671E+03  0.18657086096E+03  0.80012220604E+02 0.  0.
          6    2    1    2  501    0 -0.30500856125E+02 -0.14330951217E+02 -0.20677845309E+03  0.27203857705E+03  0.17352803910E+03 0.  0.
          5    1    5    5  501    0 -0.34914566831E+02 -0.40618624418E+02 -0.64037192890E+02  0.83616695102E+02  0.47000000000E+01 0. -1.
        -11    1    5    5    0    0  0.93980487645E+01  0.34196357607E+02  0.88425929779E+01  0.36550043020E+02  0.00000000000E+00 0.  1.
         12    1    5    5    0    0 -0.49843380588E+01 -0.79086844064E+01 -0.15158385317E+03  0.15187183892E+03  0.00000000000E+00 0. -1.
         -5    1    3    3    0  503  0.37541919063E+01 -0.51704950596E+02 -0.21320764374E+03  0.21947000985E+03  0.47000000000E+01 0.  1.
         11    1    4    4    0    0  0.47878359642E+02  0.15446662406E+02 -0.91145847527E+02  0.10410812755E+03  0.00000000000E+00 0. -1.
        -12    1    4    4    0    0 -0.21131695423E+02  0.50589239408E+02 -0.61597749187E+02  0.82462733402E+02  0.00000000000E+00 0.  1.
<mgrwt>
<rscale>  2 0.17655791E+03</rscale>
<asrwt>0</asrwt>
<pdfrwt beam="1">  1       21 0.81038271E-02 0.17677007E+03</pdfrwt>
<pdfrwt beam="2">  1       21 0.96216089E-01 0.17677007E+03</pdfrwt>
<totfact> 0.10617832E+05</totfact>
</mgrwt>
</event>
<event>
12    1  0.1039378E-001  0.2985368E+03  0.7546771E-02  0.1086354E+00
         21   -1    0    0  501  502  0.00000000000E+00  0.00000000000E+00  0.68452325409E+02  0.68452325409E+02  0.00000000000E+00 0. -1.
         21   -1    0    0  502  503 -0.00000000000E+00 -0.00000000000E+00 -0.12972311880E+04  0.12972311880E+04  0.00000000000E+00 0. -1.
         -6    2    1    2    0  503  0.10781067838E+03  0.21548228133E+03 -0.56286532463E+03  0.63713543768E+03  0.17626240760E+03 0.  0.
        -24    2    3    3    0    0  0.44550328926E+02  0.51127879664E+02 -0.11756618176E+03  0.15825376356E+03  0.81385838463E+02 0.  0.
          6    2    1    2  501    0 -0.10781067838E+03 -0.21548228133E+03 -0.66591353800E+03  0.72854807577E+03  0.17113065966E+03 0.  0.
         24    2    5    5    0    0 -0.10251022640E+03 -0.80199513235E+02 -0.43110204204E+03  0.45746128013E+03  0.80508035170E+02 0.  0.
          5    1    5    5  501    0 -0.53004519808E+01 -0.13528276810E+03 -0.23481149597E+03  0.27108679565E+03  0.47000000000E+01 0. -1.
        -11    1    6    6    0    0 -0.66403561508E+02 -0.85834574261E+02 -0.37596007116E+03  0.39130931784E+03  0.00000000000E+00 0.  1.
         12    1    6    6    0    0 -0.36106664895E+02  0.56350610264E+01 -0.55141970876E+02  0.66151962289E+02  0.00000000000E+00 0. -1.
         -5    1    3    3    0  503  0.63260349459E+02  0.16435440167E+03 -0.44529914288E+03  0.47888167412E+03  0.47000000000E+01 0.  1.
         11    1    4    4    0    0  0.41813185673E+02  0.70592425204E+02 -0.10991685445E+03  0.13716175810E+03  0.00000000000E+00 0. -1.
        -12    1    4    4    0    0  0.27371432523E+01 -0.19464545540E+02 -0.76493273078E+01  0.21092005465E+02  0.00000000000E+00 0.  1.
<mgrwt>
<rscale>  2 0.29778369E+03</rscale>
<asrwt>0</asrwt>
<pdfrwt beam="1">  1       21 0.10531128E-01 0.29853675E+03</pdfrwt>
<pdfrwt beam="2">  1       21 0.19957401E+00 0.29853675E+03</pdfrwt>
<totfact> 0.92988661E+03</totfact>
</mgrwt>
</event>
<event>
12    1  0.1039378E-001  0.1785077E+03  0.7546771E-02  0.1169544E+00
         21   -1    0    0  503  502  0.00000000000E+00  0.00000000000E+00  0.29250679407E+03  0.29250679407E+03  0.00000000000E+00 0.  1.
         21   -1    0    0  501  503 -0.00000000000E+00 -0.00000000000E+00 -0.13841736635E+03  0.13841736635E+03  0.00000000000E+00 0.  1.
          6    2    1    2  501    0  0.43314227006E+02  0.76409663343E+01 -0.23392834248E+02  0.18003390507E+03  0.17300426484E+03 0.  0.
         24    2    3    3    0    0 -0.18091286668E+02 -0.28859840923E+02 -0.51144888800E+02  0.10325361742E+03  0.82977857214E+02 0.  0.
         -6    2    1    2    0  502 -0.43314227006E+02 -0.76409663343E+01  0.17748226197E+03  0.25089025536E+03  0.17178899934E+03 0.  0.
        -24    2    5    5    0    0  0.10278804100E+02  0.41465581625E+02  0.61966081655E+02  0.11432618999E+03  0.86055994382E+02 0.  0.
          5    1    3    3  501    0  0.61405513674E+02  0.36500807258E+02  0.27752054552E+02  0.76780287652E+02  0.47000000000E+01 0. -1.
        -11    1    4    4    0    0 -0.89956766426E+01  0.75005439672E+01 -0.62893394317E+02  0.63974677856E+02  0.00000000000E+00 0.  1.
         12    1    4    4    0    0 -0.90956100258E+01 -0.36360384891E+02  0.11748505517E+02  0.39278939561E+02  0.00000000000E+00 0. -1.
         -5    1    5    5    0  502 -0.53593031106E+02 -0.49106547959E+02  0.11551618031E+03  0.13656406537E+03  0.47000000000E+01 0.  1.
         13    1    6    6    0    0 -0.37519540974E+02  0.13359974823E+02  0.18723208474E+02  0.44008674347E+02  0.00000000000E+00 0. -1.
        -14    1    6    6    0    0  0.47798345074E+02  0.28105606802E+02  0.43242873181E+02  0.70317515645E+02  0.00000000000E+00 0.  1.
<mgrwt>
<rscale>  2 0.17821254E+03</rscale>
<asrwt>0</asrwt>
<pdfrwt beam="1">  1       21 0.45001045E-01 0.17850765E+03</pdfrwt>
<pdfrwt beam="2">  1       21 0.21294979E-01 0.17850765E+03</pdfrwt>
<totfact> 0.97774448E+04</totfact>
</mgrwt>
</event>
<event>
12    1  0.1039378E-001  0.1802016E+03  0.7546771E-02  0.1169721E+00
         21   -1    0    0  503  502  0.00000000000E+00  0.00000000000E+00  0.14270079833E+03  0.14270079833E+03  0.00000000000E+00 0. -1.
         21   -1    0    0  501  503 -0.00000000000E+00 -0.00000000000E+00 -0.54596039994E+03  0.54596039994E+03  0.00000000000E+00 0. -1.
          6    2    1    2  501    0  0.35578093768E+02  0.24551249291E+02 -0.47084872027E+03  0.50415388504E+03  0.17494015496E+03 0.  0.
         24    2    3    3    0    0  0.90623688791E+01  0.22894867261E+02 -0.90290590871E+02  0.12264057318E+03  0.79259181894E+02 0.  0.
         -6    2    1    2    0  502 -0.35578093768E+02 -0.24551249291E+02  0.67589118660E+02  0.18450731323E+03  0.16615082027E+03 0.  0.
        -24    2    5    5    0    0  0.35174724226E+02  0.60203090691E+01  0.61709135170E+02  0.10706542766E+03  0.79884185487E+02 0.  0.
          5    1    3    3  501    0  0.26515724889E+02  0.16563820297E+01 -0.38055812940E+03  0.38151331185E+03  0.47000000000E+01 0. -1.
        -11    1    4    4    0    0 -0.22963348579E+02 -0.12446218890E+02 -0.61782046179E+02  0.67076411448E+02  0.00000000000E+00 0.  1.
         12    1    4    4    0    0  0.32025717458E+02  0.35341086151E+02 -0.28508544692E+02  0.55564161737E+02  0.00000000000E+00 0. -1.
         -5    1    5    5    0  502 -0.70752817994E+02 -0.30571558360E+02  0.58799834901E+01  0.77441885569E+02  0.47000000000E+01 0.  1.
         13    1    6    6    0    0  0.23176712880E+02 -0.30617317411E+02  0.56280753060E+02  0.68132982544E+02  0.00000000000E+00 0. -1.
        -14    1    6    6    0    0  0.11998011346E+02  0.36637626480E+02  0.54283821105E+01  0.38932445116E+02  0.00000000000E+00 0.  1.
<mgrwt>
<rscale>  2 0.17803284E+03</rscale>
<asrwt>0</asrwt>
<pdfrwt beam="1">  1       21 0.21953969E-01 0.18020162E+03</pdfrwt>
<pdfrwt beam="2">  1       21 0.83993908E-01 0.18020162E+03</pdfrwt>
<totfact> 0.24035851E+04</totfact>
</mgrwt>
</event>
<event>
12    1  0.1039378E-001  0.2051285E+03  0.7546771E-02  0.1145593E+00
         21   -1    0    0  503  502  0.00000000000E+00  0.00000000000E+00  0.56122782074E+03  0.56122782074E+03  0.00000000000E+00 0.  1.
         21   -1    0    0  501  503 -0.00000000000E+00 -0.00000000000E+00 -0.11242803759E+03  0.11242803759E+03  0.00000000000E+00 0.  1.
          6    2    1    2  501    0 -0.82465657462E+02  0.71968947030E+02  0.29280997008E+02  0.20667223578E+03  0.17284652806E+03 0.  0.
         24    2    3    3    0    0 -0.57213993664E+02  0.11274780776E+03  0.44705573248E+02  0.15607016508E+03  0.79836075329E+02 0.  0.
         -6    2    1    2    0  502  0.82465657462E+02 -0.71968947030E+02  0.41951878614E+03  0.46698362255E+03  0.17348653494E+03 0.  0.
        -24    2    5    5    0    0  0.28156353881E+02  0.28389070239E+02  0.19558626304E+03  0.21560920661E+03  0.81453201978E+02 0.  0.
          5    1    3    3  501    0 -0.25251663799E+02 -0.40778860730E+02 -0.15424576240E+02  0.50602070701E+02  0.47000000000E+01 0. -1.
        -11    1    4    4    0    0  0.18885176157E+01  0.72193842324E+02  0.12123801907E+01  0.72228714747E+02  0.00000000000E+00 0.  1.
         12    1    4    4    0    0 -0.59102511279E+02  0.40553965436E+02  0.43493193057E+02  0.83841450336E+02  0.00000000000E+00 0. -1.
         -5    1    5    5    0  502  0.54309303582E+02 -0.10035801727E+03  0.22393252310E+03  0.25137441594E+03  0.47000000000E+01 0.  1.
         11    1    6    6    0    0  0.15620364197E+02  0.25136634614E+02  0.19980770309E+03  0.20198753524E+03  0.00000000000E+00 0. -1.
        -12    1    6    6    0    0  0.12535989683E+02  0.32524356249E+01 -0.42214400519E+01  0.13621671371E+02  0.00000000000E+00 0.  1.
<mgrwt>
<rscale>  2 0.20499309E+03</rscale>
<asrwt>0</asrwt>
<pdfrwt beam="1">  1       21 0.86342740E-01 0.20512848E+03</pdfrwt>
<pdfrwt beam="2">  1       21 0.17296622E-01 0.20512848E+03</pdfrwt>
<totfact> 0.34695991E+04</totfact>
</mgrwt>
</event>
<event>
12    1  0.1039378E-001  0.2007367E+03  0.7546771E-02  0.1149186E+00
         21   -1    0    0  503  502  0.00000000000E+00  0.00000000000E+00  0.42448513949E+03  0.42448513949E+03  0.00000000000E+00 0. -1.
         21   -1    0    0  501  503 -0.00000000000E+00 -0.00000000000E+00 -0.12178740996E+03  0.12178740996E+03  0.00000000000E+00 0.  1.
          6    2    1    2  501    0  0.11434241049E+02 -0.99485757569E+02  0.22621102056E+02  0.20168854425E+03  0.17360413819E+03 0.  0.
         24    2    3    3    0    0 -0.32114771864E+01 -0.10167169711E+03  0.72676816539E+02  0.14927728642E+03  0.81574144193E+02 0.  0.
         -6    2    1    2    0  502 -0.11434241049E+02  0.99485757569E+02  0.28007662747E+03  0.34458400521E+03  0.17397431294E+03 0.  0.
        -24    2    5    5    0    0  0.23631452132E+02  0.12774173511E+03  0.24000153958E+03  0.28411826470E+03  0.79031974028E+02 0.  0.
          5    1    3    3  501    0  0.14645718235E+02  0.21859395417E+01 -0.50055714483E+02  0.52411257824E+02  0.47000000000E+01 0. -1.
        -11    1    4    4    0    0  0.51169702293E+01  0.20486055525E+01 -0.13236937814E+02  0.14338643301E+02  0.00000000000E+00 0.  1.
         12    1    4    4    0    0 -0.83284474157E+01 -0.10372030266E+03  0.85913754353E+02  0.13493864312E+03  0.00000000000E+00 0. -1.
         -5    1    5    5    0  502 -0.35065693181E+02 -0.28255977543E+02  0.40075087894E+02  0.60465740506E+02  0.47000000000E+01 0.  1.
         13    1    6    6    0    0 -0.84562989916E+01 -0.32873619709E+00  0.61581197848E+02  0.62159962906E+02  0.00000000000E+00 0. -1.
        -14    1    6    6    0    0  0.32087751124E+02  0.12807047131E+03  0.17842034173E+03  0.22195830180E+03  0.00000000000E+00 0.  1.
<mgrwt>
<rscale>  2 0.20065646E+03</rscale>
<asrwt>0</asrwt>
<pdfrwt beam="1">  1       21 0.65305406E-01 0.20073669E+03</pdfrwt>
<pdfrwt beam="2">  1       21 0.18736525E-01 0.20073669E+03</pdfrwt>
<totfact> 0.56015752E+04</totfact>
</mgrwt>
</event>
<event>
12    1  0.1039378E-001  0.1891350E+03  0.7546771E-02  0.1159286E+00
         21   -1    0    0  503  502  0.00000000000E+00  0.00000000000E+00  0.23104937395E+03  0.23104937395E+03  0.00000000000E+00 0. -1.
         21   -1    0    0  501  503 -0.00000000000E+00 -0.00000000000E+00 -0.16099760060E+03  0.16099760060E+03  0.00000000000E+00 0.  1.
          6    2    1    2  501    0 -0.44820044059E+02  0.61368472099E+02  0.73862855433E+02  0.20287358831E+03  0.17299435165E+03 0.  0.
         24    2    3    3    0    0 -0.21014937039E+02  0.92629285759E+02  0.96569027787E+02  0.15724923238E+03  0.79874475259E+02 0.  0.
         -6    2    1    2    0  502  0.44820044059E+02 -0.61368472099E+02 -0.38110820807E+01  0.18917338623E+03  0.17319676670E+03 0.  0.
        -24    2    5    5    0    0 -0.38993291123E+01  0.81837034503E+01  0.27178724678E+02  0.98655208122E+02  0.94403332805E+02 0.  0.
          5    1    3    3  501    0 -0.23805107020E+02 -0.31260813660E+02 -0.22706172353E+02  0.45624355928E+02  0.47000000000E+01 0. -1.
        -11    1    4    4    0    0  0.12013290534E+02  0.33018389357E+02 -0.44242975275E+01  0.35413381564E+02  0.00000000000E+00 0.  1.
         12    1    4    4    0    0 -0.33028227572E+02  0.59610896402E+02  0.10099332531E+03  0.12183585082E+03  0.00000000000E+00 0. -1.
         -5    1    5    5    0  502  0.48719373171E+02 -0.69552175549E+02 -0.30989806759E+02  0.90518178112E+02  0.47000000000E+01 0.  1.
         13    1    6    6    0    0  0.15474767122E+02 -0.40007768009E+02  0.12044678373E+02  0.44555181468E+02  0.00000000000E+00 0. -1.
        -14    1    6    6    0    0 -0.19374096235E+02  0.48191471460E+02  0.15134046305E+02  0.54100026653E+02  0.00000000000E+00 0.  1.
<mgrwt>
<rscale>  2 0.18908864E+03</rscale>
<asrwt>0</asrwt>
<pdfrwt beam="1">  1       21 0.35546057E-01 0.18913499E+03</pdfrwt>
<pdfrwt beam="2">  1       21 0.24768862E-01 0.18913499E+03</pdfrwt>
<totfact> 0.11780066E+05</totfact>
</mgrwt>
</event>
<event>
12    1  0.1039378E-001  0.2836572E+03  0.7546771E-02  0.1093720E+00
         21   -1    0    0  501  502  0.00000000000E+00  0.00000000000E+00  0.11989921709E+03  0.11989921709E+03  0.00000000000E+00 0.  1.
         21   -1    0    0  502  503 -0.00000000000E+00 -0.00000000000E+00 -0.72146521269E+03  0.72146521269E+03  0.00000000000E+00 0. -1.
         -6    2    1    2    0  503  0.21480375465E+03  0.62736843756E+02 -0.41224751187E+03  0.50040924226E+03  0.17431246116E+03 0.  0.
        -24    2    3    3    0    0  0.22414488540E+03  0.15047555071E+02 -0.31943203294E+03  0.39553632818E+03  0.62807680052E+02 0.  0.
          6    2    1    2  501    0 -0.21480375465E+03 -0.62736843756E+02 -0.18931848373E+03  0.34095518753E+03  0.17416195635E+03 0.  0.
         24    2    5    5    0    0 -0.62361168305E+02  0.20089771949E+02 -0.10220446791E+03  0.14676473422E+03  0.82471932807E+02 0.  0.
          5    1    5    5  501    0 -0.15244258635E+03 -0.82826615705E+02 -0.87114015819E+02  0.19419045330E+03  0.47000000000E+01 0. -1.
        -13    1    6    6    0    0 -0.44860030451E+02 -0.28315042749E+02 -0.42787784115E+02  0.68153932002E+02  0.00000000000E+00 0.  1.
         14    1    6    6    0    0 -0.17501137854E+02  0.48404814699E+02 -0.59416683800E+02  0.78610802222E+02  0.00000000000E+00 0. -1.
         -5    1    3    3    0  503 -0.93411307482E+01  0.47689288684E+02 -0.92815478928E+02  0.10487291408E+03  0.47000000000E+01 0.  1.
         13    1    4    4    0    0  0.12768329516E+03  0.15136652560E+02 -0.12937173912E+03  0.18239843474E+03  0.00000000000E+00 0. -1.
        -14    1    4    4    0    0  0.96461590242E+02 -0.89097488901E-01 -0.19006029382E+03  0.21313789343E+03  0.00000000000E+00 0.  1.
<mgrwt>
<rscale>  2 0.28363407E+03</rscale>
<asrwt>0</asrwt>
<pdfrwt beam="1">  1       21 0.18446033E-01 0.28365719E+03</pdfrwt>
<pdfrwt beam="2">  1       21 0.11099465E+00 0.28365719E+03</pdfrwt>
<totfact> 0.16302929E+04</totfact>
</mgrwt>
</event>
<event>
12    1  0.1039378E-001  0.1908167E+03  0.7546771E-02  0.1158581E+00
         21   -1    0    0  501  502  0.00000000000E+00  0.00000000000E+00  0.38176440840E+02  0.38176440840E+02  0.00000000000E+00 0. -1.
         21   -1    0    0  502  503 -0.00000000000E+00 -0.00000000000E+00 -0.12148629066E+04  0.12148629066E+04  0.00000000000E+00 0. -1.
         -6    2    1    2    0  503 -0.48541719759E+01 -0.71485796988E+02 -0.88451794046E+03  0.90407878292E+03  0.17277927126E+03 0.  0.
        -24    2    3    3    0    0  0.38285130544E+02 -0.74830990877E+02 -0.80645830099E+03  0.81470548122E+03  0.79401520560E+02 0.  0.
          6    2    1    2  501    0  0.48541719759E+01  0.71485796988E+02 -0.29216852532E+03  0.34896056454E+03  0.17685374256E+03 0.  0.
         24    2    5    5    0    0 -0.21046933627E+02  0.10870198519E+03 -0.24616170857E+03  0.28419460802E+03  0.88948824987E+02 0.  0.
          5    1    5    5  501    0  0.25901105603E+02 -0.37216188200E+02 -0.46006816758E+02  0.64765956519E+02  0.47000000000E+01 0. -1.
        -13    1    6    6    0    0  0.32883640737E+02  0.21206062123E+02 -0.73066290926E+02  0.82883736454E+02  0.00000000000E+00 0.  1.
         14    1    6    6    0    0 -0.53930574364E+02  0.87495923065E+02 -0.17309541764E+03  0.20131087157E+03  0.00000000000E+00 0. -1.
         -5    1    3    3    0  503 -0.43139302519E+02  0.33451938893E+01 -0.78059639464E+02  0.89373301703E+02  0.47000000000E+01 0.  1.
         13    1    4    4    0    0  0.51945027884E+02 -0.21670109898E+02 -0.29590914065E+03  0.30121437400E+03  0.00000000000E+00 0. -1.
        -14    1    4    4    0    0 -0.13659897341E+02 -0.53160880979E+02 -0.51054916035E+03  0.51349110722E+03  0.00000000000E+00 0.  1.
<mgrwt>
<rscale>  2 0.18986716E+03</rscale>
<asrwt>0</asrwt>
<pdfrwt beam="1">  1       21 0.58732997E-02 0.19081674E+03</pdfrwt>
<pdfrwt beam="2">  1       21 0.18690195E+00 0.19081674E+03</pdfrwt>
<totfact> 0.33481413E+04</totfact>
</mgrwt>
</event>
<event>
12    1  0.1039378E-001  0.1910566E+03  0.7546771E-02  0.1158174E+00
         21   -1    0    0  501  502  0.00000000000E+00  0.00000000000E+00  0.53973676597E+02  0.53973676597E+02  0.00000000000E+00 0.  1.
         21   -1    0    0  502  503 -0.00000000000E+00 -0.00000000000E+00 -0.67525356268E+03  0.67525356268E+03  0.00000000000E+00 0.  1.
         -6    2    1    2    0  503  0.68468907428E+02 -0.30105510831E+02 -0.35104260936E+03  0.39827286976E+03  0.17261527202E+03 0.  0.
        -24    2    3    3    0    0  0.73677478931E+00 -0.55459876213E+02 -0.10930952956E+03  0.14590912929E+03  0.79148973778E+02 0.  0.
          6    2    1    2  501    0 -0.68468907428E+02  0.30105510831E+02 -0.27023727673E+03  0.33095436952E+03  0.17580749673E+03 0.  0.
         24    2    5    5    0    0 -0.73660225386E+01  0.75310232183E+02 -0.13158706128E+03  0.17276776574E+03  0.82508525748E+02 0.  0.
          5    1    5    5  501    0 -0.61102884889E+02 -0.45204721351E+02 -0.13865021544E+03  0.15818660378E+03  0.47000000000E+01 0. -1.
        -11    1    6    6    0    0 -0.36464539420E+02  0.34064528312E+02 -0.10374333494E+03  0.11512052062E+03  0.00000000000E+00 0.  1.
         12    1    6    6    0    0  0.29098516881E+02  0.41245703871E+02 -0.27843726343E+02  0.57647245113E+02  0.00000000000E+00 0. -1.
         -5    1    3    3    0  503  0.67732132638E+02  0.25354365381E+02 -0.24173307980E+03  0.25236374047E+03  0.47000000000E+01 0.  1.
         11    1    4    4    0    0 -0.27667818079E+02  0.62360085903E+00 -0.12241287750E+02  0.30261298073E+02  0.00000000000E+00 0. -1.
        -12    1    4    4    0    0  0.28404592868E+02 -0.56083477072E+02 -0.97068241811E+02  0.11564783122E+03  0.00000000000E+00 0.  1.
<mgrwt>
<rscale>  2 0.19031898E+03</rscale>
<asrwt>0</asrwt>
<pdfrwt beam="1">  1       21 0.83036424E-02 0.19105656E+03</pdfrwt>
<pdfrwt beam="2">  1       21 0.10388517E+00 0.19105656E+03</pdfrwt>
<totfact> 0.84356014E+04</totfact>
</mgrwt>
</event>
<event>
12    1  0.1039378E-001  0.1825254E+03  0.7546771E-02  0.1165530E+00
         21   -1    0    0  501  502  0.00000000000E+00  0.00000000000E+00  0.53736376313E+03  0.53736376313E+03  0.00000000000E+00 0. -1.
         21   -1    0    0  502  503 -0.00000000000E+00 -0.00000000000E+00 -0.75004053550E+02  0.75004053550E+02  0.00000000000E+00 0. -1.
         -6    2    1    2    0  503 -0.53553602020E+02  0.14026262835E+02  0.10231228943E+03  0.20869758258E+03  0.17326901647E+03 0.  0.
        -24    2    3    3    0    0 -0.89525369375E+01 -0.51381732354E+02  0.85489755894E+02  0.12762632703E+03  0.79118586007E+02 0.  0.
          6    2    1    2  501    0  0.53553602020E+02 -0.14026262835E+02  0.36004742015E+03  0.40367023410E+03  0.17392753895E+03 0.  0.
         24    2    5    5    0    0  0.98323724021E+02 -0.27588558531E+02  0.30383831523E+03  0.33039095214E+03  0.80073567356E+02 0.  0.
          5    1    5    5  501    0 -0.44770122000E+02  0.13562295696E+02  0.56209104919E+02  0.73279281958E+02  0.47000000000E+01 0. -1.
        -11    1    6    6    0    0  0.41641742313E+02 -0.47907906814E+02  0.10559920442E+03  0.12320874244E+03  0.00000000000E+00 0.  1.
         12    1    6    6    0    0  0.56681981707E+02  0.20319348283E+02  0.19823911081E+03  0.20718220971E+03  0.00000000000E+00 0. -1.
         -5    1    3    3    0  503 -0.44601065083E+02  0.65407995190E+02  0.16822533538E+02  0.81071255547E+02  0.47000000000E+01 0.  1.
         11    1    4    4    0    0 -0.12049816283E+02 -0.49537631800E+02  0.98799115983E+01  0.51930604561E+02  0.00000000000E+00 0. -1.
        -12    1    4    4    0    0  0.30972793457E+01 -0.18441005543E+01  0.75609844295E+02  0.75695722472E+02  0.00000000000E+00 0.  1.
<mgrwt>
<rscale>  2 0.18236833E+03</rscale>
<asrwt>0</asrwt>
<pdfrwt beam="1">  1       21 0.82671345E-01 0.18252538E+03</pdfrwt>
<pdfrwt beam="2">  1       21 0.11539086E-01 0.18252538E+03</pdfrwt>
<totfact> 0.80690102E+04</totfact>
</mgrwt>
</event>
<event>
12    1  0.1039378E-001  0.1880014E+03  0.7546771E-02  0.1160987E+00
         21   -1    0    0  501  502  0.00000000000E+00  0.00000000000E+00  0.21702986409E+03  0.21702986409E+03  0.00000000000E+00 0.  1.
         21   -1    0    0  502  503 -0.00000000000E+00 -0.00000000000E+00 -0.21752508215E+03  0.21752508215E+03  0.00000000000E+00 0. -1.
         -6    2    1    2    0  503  0.62181978869E+02 -0.19449283763E+02 -0.11178624395E+03  0.21608250404E+03  0.17306244849E+03 0.  0.
        -24    2    3    3    0    0  0.29201096431E+01  0.49293393797E+01 -0.12678822088E+03  0.15010193324E+03  0.80140576368E+02 0.  0.
          6    2    1    2  501    0 -0.62181978869E+02  0.19449283763E+02  0.11129102590E+03  0.21847244221E+03  0.17635090707E+03 0.  0.
         24    2    5    5    0    0  0.40483492689E+01 -0.39656006615E+02  0.32680757987E+02  0.99806710266E+02  0.85465545567E+02 0.  0.
          5    1    5    5  501    0 -0.66230328138E+02  0.59105290378E+02  0.78610267910E+02  0.11866573194E+03  0.47000000000E+01 0. -1.
        -13    1    6    6    0    0  0.81336654532E+01 -0.18117041909E+02  0.60909309354E+02  0.64065027021E+02  0.00000000000E+00 0.  1.
         14    1    6    6    0    0 -0.40853161842E+01 -0.21538964706E+02 -0.28228551367E+02  0.35741683245E+02  0.00000000000E+00 0. -1.
         -5    1    3    3    0  503  0.59261869226E+02 -0.24378623143E+02  0.15001976933E+02  0.65980570795E+02  0.47000000000E+01 0.  1.
         11    1    4    4    0    0 -0.10352453658E+02  0.39223563808E+02 -0.86587568423E+02  0.95619392698E+02  0.00000000000E+00 0. -1.
        -12    1    4    4    0    0  0.13272563301E+02 -0.34294224428E+02 -0.40200652461E+02  0.54482540543E+02  0.00000000000E+00 0.  1.
<mgrwt>
<rscale>  2 0.18722630E+03</rscale>
<asrwt>0</asrwt>
<pdfrwt beam="1">  1       21 0.33389210E-01 0.18800137E+03</pdfrwt>
<pdfrwt beam="2">  1       21 0.33465397E-01 0.18800137E+03</pdfrwt>
<totfact> 0.74432583E+04</totfact>
</mgrwt>
</event>
<event>
12    1  0.1039378E-001  0.1938902E+03  0.7546771E-02  0.1155222E+00
         21   -1    0    0  503  502  0.00000000000E+00  0.00000000000E+00  0.23569161475E+02  0.23569161475E+02  0.00000000000E+00 0. -1.
         21   -1    0    0  501  503 -0.00000000000E+00 -0.00000000000E+00 -0.16500878984E+04  0.16500878984E+04  0.00000000000E+00 0. -1.
          6    2    1    2  501    0 -0.34426377494E+02 -0.78256133046E+02 -0.97523281515E+03  0.99412282535E+03  0.17289288682E+03 0.  0.
         24    2    3    3    0    0 -0.52383980903E+02 -0.44766166714E+02 -0.29429791602E+03  0.31211220944E+03  0.77811803538E+02 0.  0.
         -6    2    1    2    0  502  0.34426377494E+02  0.78256133046E+02 -0.65128592174E+03  0.67953423449E+03  0.17402363678E+03 0.  0.
        -24    2    5    5    0    0  0.77429722335E+02  0.89384436300E+01 -0.33430120356E+03  0.35218788688E+03  0.78763921227E+02 0.  0.
          5    1    3    3  501    0  0.17957603409E+02 -0.33489966332E+02 -0.68093489913E+03  0.68201061591E+03  0.47000000000E+01 0. -1.
        -13    1    4    4    0    0 -0.39701712474E+02 -0.17279965560E+02 -0.26956950890E+03  0.27302480348E+03  0.00000000000E+00 0.  1.
         14    1    4    4    0    0 -0.12682268429E+02 -0.27486201154E+02 -0.24728407118E+02  0.39087405964E+02  0.00000000000E+00 0. -1.
         -5    1    5    5    0  502 -0.43003344841E+02  0.69317689416E+02 -0.31698471817E+03  0.32734634760E+03  0.47000000000E+01 0.  1.
         11    1    6    6    0    0  0.12522100098E+02  0.19065658290E+02 -0.21319449227E+03  0.21441127268E+03  0.00000000000E+00 0. -1.
        -12    1    6    6    0    0  0.64907622238E+02 -0.10127214660E+02 -0.12110671129E+03  0.13777661420E+03  0.00000000000E+00 0.  1.
<mgrwt>
<rscale>  2 0.19363618E+03</rscale>
<asrwt>0</asrwt>
<pdfrwt beam="1">  1       21 0.36260226E-02 0.19389024E+03</pdfrwt>
<pdfrwt beam="2">  1       21 0.25385983E+00 0.19389024E+03</pdfrwt>
<totfact> 0.29113335E+04</totfact>
</mgrwt>
</event>
<event>
12    1  0.1039378E-001  0.1747165E+03  0.7546771E-02  0.1173694E+00
         21   -1    0    0  501  502  0.00000000000E+00  0.00000000000E+00  0.37734936339E+03  0.37734936339E+03  0.00000000000E+00 0.  1.
         21   -1    0    0  502  503 -0.00000000000E+00 -0.00000000000E+00 -0.12225432249E+03  0.12225432249E+03  0.00000000000E+00 0.  1.
         -6    2    1    2    0  503 -0.19598913161E+02 -0.54263583616E+01 -0.19250762673E+02  0.17577388062E+03  0.17352896727E+03 0.  0.
        -24    2    3    3    0    0 -0.49888334323E+02 -0.54568878917E+02  0.12197485975E+02  0.10986850372E+03  0.80347377049E+02 0.  0.
          6    2    1    2  501    0  0.19598913161E+02  0.54263583616E+01  0.27434580357E+03  0.32382980526E+03  0.17084074477E+03 0.  0.
         24    2    5    5    0    0  0.68021241589E+02 -0.31355420174E+02  0.15993035772E+03  0.19417408663E+03  0.80720535915E+02 0.  0.
          5    1    5    5  501    0 -0.48422328428E+02  0.36781778536E+02  0.11441544586E+03  0.12965571863E+03  0.47000000000E+01 0. -1.
        -11    1    6    6    0    0  0.74976496711E+02 -0.98519187342E+01  0.15277809089E+03  0.17046900134E+03  0.00000000000E+00 0.  1.
         12    1    6    6    0    0 -0.69552551223E+01 -0.21503501440E+02  0.71522668282E+01  0.23705085294E+02  0.00000000000E+00 0. -1.
         -5    1    3    3    0  503  0.30289421161E+02  0.49142520555E+02 -0.31448248648E+02  0.65905376896E+02  0.47000000000E+01 0.  1.
         11    1    4    4    0    0 -0.17492054959E+02 -0.64442509134E+02  0.28109012424E+02  0.72449468939E+02  0.00000000000E+00 0. -1.
        -12    1    4    4    0    0 -0.32396279363E+02  0.98736302171E+01 -0.15911526449E+02  0.37419034784E+02  0.00000000000E+00 0.  1.
<mgrwt>
<rscale>  2 0.17404525E+03</rscale>
<asrwt>0</asrwt>
<pdfrwt beam="1">  1       21 0.58053748E-01 0.17471653E+03</pdfrwt>
<pdfrwt beam="2">  1       21 0.18808357E-01 0.17471653E+03</pdfrwt>
<totfact> 0.72526160E+04</totfact>
</mgrwt>
</event>
<event>
12    1  0.1039378E-001  0.2898826E+03  0.7546771E-02  0.1090426E+00
         21   -1    0    0  501  502  0.00000000000E+00  0.00000000000E+00  0.64154519164E+03  0.64154519164E+03  0.00000000000E+00 0.  1.
         21   -1    0    0  502  503 -0.00000000000E+00 -0.00000000000E+00 -0.13399549281E+03  0.13399549281E+03  0.00000000000E+00 0.  1.
         -6    2    1    2    0  503  0.21447477301E+03  0.89207511787E+02  0.31237234261E+03  0.42607520547E+03  0.17322295423E+03 0.  0.
        -24    2    3    3    0    0  0.36692112073E+02 -0.37014272052E+01  0.93481424827E+02  0.12913401708E+03  0.81097508769E+02 0.  0.
          6    2    1    2  501    0 -0.21447477301E+03 -0.89207511787E+02  0.19517735622E+03  0.34946547897E+03  0.17342004554E+03 0.  0.
         24    2    5    5    0    0 -0.23374020309E+03 -0.69720437642E+02  0.15478369374E+03  0.30042834179E+03  0.82484997023E+02 0.  0.
          5    1    5    5  501    0  0.19265430083E+02 -0.19487074145E+02  0.40393662479E+02  0.49037137187E+02  0.47000000000E+01 0. -1.
        -11    1    6    6    0    0 -0.47404071974E+02 -0.51875588977E+02  0.40383239040E+02  0.81049545136E+02  0.00000000000E+00 0.  1.
         12    1    6    6    0    0 -0.18633613112E+03 -0.17844848665E+02  0.11440045470E+03  0.21937879665E+03  0.00000000000E+00 0. -1.
         -5    1    3    3    0  503  0.17778266093E+03  0.92908938993E+02  0.21889091778E+03  0.29694118839E+03  0.47000000000E+01 0.  1.
         13    1    4    4    0    0  0.14588145963E+02 -0.13942164536E+02  0.10150062521E+03  0.10348707587E+03  0.00000000000E+00 0. -1.
        -14    1    4    4    0    0  0.22103966110E+02  0.10240737331E+02 -0.80192003804E+01  0.25646941213E+02  0.00000000000E+00 0.  1.
<mgrwt>
<rscale>  2 0.28985313E+03</rscale>
<asrwt>0</asrwt>
<pdfrwt beam="1">  1       21 0.98699258E-01 0.28988260E+03</pdfrwt>
<pdfrwt beam="2">  1       21 0.20614692E-01 0.28988260E+03</pdfrwt>
<totfact> 0.17539200E+04</totfact>
</mgrwt>
</event>
<event>
12    1  0.1039378E-001  0.2622615E+03  0.7546771E-02  0.1105833E+00
         21   -1    0    0  503  502  0.00000000000E+00  0.00000000000E+00  0.29627681364E+02  0.29627681364E+02  0.00000000000E+00 0.  1.
         21   -1    0    0  501  503 -0.00000000000E+00 -0.00000000000E+00 -0.23905015189E+04  0.23905015189E+04  0.00000000000E+00 0.  1.
          6    2    1    2  501    0  0.30031810263E+02 -0.19443825474E+03 -0.13890353730E+04  0.14135254458E+04  0.17299356636E+03 0.  0.
         24    2    3    3    0    0  0.37975490443E+02 -0.20415058395E+03 -0.10145163465E+04  0.10387668267E+04  0.81691518137E+02 0.  0.
         -6    2    1    2    0  502 -0.30031810263E+02  0.19443825474E+03 -0.97183846456E+03  0.10066037545E+04  0.17341560707E+03 0.  0.
        -24    2    5    5    0    0  0.27728801560E+01  0.14242033555E+03 -0.41331956720E+03  0.44468965041E+03  0.81391521116E+02 0.  0.
          5    1    3    3  501    0 -0.79436801798E+01  0.97123292151E+01 -0.37451902652E+03  0.37475861914E+03  0.47000000000E+01 0. -1.
        -13    1    4    4    0    0  0.55683282636E+02 -0.15176754525E+03 -0.84912748378E+03  0.86437925673E+03  0.00000000000E+00 0.  1.
         14    1    4    4    0    0 -0.17707792193E+02 -0.52383038705E+02 -0.16538886272E+03  0.17438756997E+03  0.00000000000E+00 0. -1.
         -5    1    5    5    0  502 -0.32804690419E+02  0.52017919193E+02 -0.55851889736E+03  0.56191410406E+03  0.47000000000E+01 0.  1.
         11    1    6    6    0    0 -0.36265298018E+02  0.38060170396E+02 -0.12665612085E+03  0.13713322486E+03  0.00000000000E+00 0. -1.
        -12    1    6    6    0    0  0.39038178174E+02  0.10436016515E+03 -0.28666344635E+03  0.30755642555E+03  0.00000000000E+00 0.  1.
<mgrwt>
<rscale>  2 0.26219180E+03</rscale>
<asrwt>0</asrwt>
<pdfrwt beam="1">  1       21 0.45581058E-02 0.26226154E+03</pdfrwt>
<pdfrwt beam="2">  1       21 0.36776939E+00 0.26226154E+03</pdfrwt>
<totfact> 0.39841359E+03</totfact>
</mgrwt>
</event>
<event>
12    1  0.1039378E-001  0.2300083E+03  0.7546771E-02  0.1126754E+00
         21   -1    0    0  501  502  0.00000000000E+00  0.00000000000E+00  0.64661017409E+03  0.64661017409E+03  0.00000000000E+00 0. -1.
         21   -1    0    0  502  503 -0.00000000000E+00 -0.00000000000E+00 -0.11142371298E+03  0.11142371298E+03  0.00000000000E+00 0.  1.
         -6    2    1    2    0  503 -0.14677792571E+03 -0.31874601190E+02  0.71715148266E+02  0.24092922860E+03  0.17419552528E+03 0.  0.
        -24    2    3    3    0    0 -0.30932949089E+02 -0.37043193066E+02 -0.10682207883E+02  0.98597969734E+02  0.85313566205E+02 0.  0.
          6    2    1    2  501    0  0.14677792571E+03  0.31874601190E+02  0.46347131284E+03  0.51710465847E+03  0.17329691373E+03 0.  0.
         24    2    5    5    0    0  0.10971646970E+03  0.73588482083E+02  0.22519333469E+03  0.27233520724E+03  0.77469082214E+02 0.  0.
          5    1    5    5  501    0  0.37061456018E+02 -0.41713880892E+02  0.23827797815E+03  0.24476945122E+03  0.47000000000E+01 0. -1.
        -13    1    6    6    0    0  0.12297731479E+01  0.31866168879E+02  0.23744395243E+02  0.39758789801E+02  0.00000000000E+00 0.  1.
         14    1    6    6    0    0  0.10848669655E+03  0.41722313204E+02  0.20144893945E+03  0.23257641744E+03  0.00000000000E+00 0. -1.
         -5    1    3    3    0  503 -0.11584497663E+03  0.51685918753E+01  0.82397356149E+02  0.14233125887E+03  0.47000000000E+01 0.  1.
         11    1    4    4    0    0 -0.19280700373E+02 -0.31180608175E+02  0.35244876169E+02  0.50854469117E+02  0.00000000000E+00 0. -1.
        -12    1    4    4    0    0 -0.11652248715E+02 -0.58625848905E+01 -0.45927084051E+02  0.47743500617E+02  0.00000000000E+00 0.  1.
<mgrwt>
<rscale>  2 0.22983819E+03</rscale>
<asrwt>0</asrwt>
<pdfrwt beam="1">  1       21 0.99478486E-01 0.23000833E+03</pdfrwt>
<pdfrwt beam="2">  1       21 0.17142110E-01 0.23000833E+03</pdfrwt>
<totfact> 0.25003386E+04</totfact>
</mgrwt>
</event>
<event>
12    1  0.1039378E-001  0.2131668E+03  0.7546771E-02  0.1140485E+00
         21   -1    0    0  503  502  0.00000000000E+00  0.00000000000E+00  0.22694133621E+03  0.22694133621E+03  0.00000000000E+00 0. -1.
         21   -1    0    0  501  503 -0.00000000000E+00 -0.00000000000E+00 -0.24128404576E+03  0.24128404576E+03  0.00000000000E+00 0. -1.
          6    2    1    2  501    0  0.79977294223E+02 -0.94541356033E+02 -0.11130948700E+03  0.24047841804E+03  0.17350974627E+03 0.  0.
         24    2    3    3    0    0  0.81841702234E+02 -0.12407387250E+03 -0.57994406936E+02  0.17932097116E+03  0.81855173312E+02 0.  0.
         -6    2    1    2    0  502 -0.79977294223E+02  0.94541356033E+02  0.96966777456E+02  0.22774696393E+03  0.16471699383E+03 0.  0.
        -24    2    5    5    0    0  0.16378326712E+02  0.49183514839E+02  0.76010976120E+02  0.11910546609E+03  0.75638454793E+02 0.  0.
          5    1    3    3  501    0 -0.18644080108E+01  0.29532516469E+02 -0.53315080069E+02  0.61157446881E+02  0.47000000000E+01 0. -1.
        -13    1    4    4    0    0  0.21623147444E+02 -0.38889967702E+02 -0.60342826284E+02  0.74974974339E+02  0.00000000000E+00 0.  1.
         14    1    4    4    0    0  0.60218554791E+02 -0.85183904800E+02  0.23484193485E+01  0.10434599682E+03  0.00000000000E+00 0. -1.
         -5    1    5    5    0  502 -0.96355620935E+02  0.45357841194E+02  0.20955801336E+02  0.10864149784E+03  0.47000000000E+01 0.  1.
         11    1    6    6    0    0 -0.25492679865E+02  0.28190968572E+02  0.57100063179E+02  0.68593182247E+02  0.00000000000E+00 0. -1.
        -12    1    6    6    0    0  0.41871006577E+02  0.20992546267E+02  0.18910912940E+02  0.50512283841E+02  0.00000000000E+00 0.  1.
<mgrwt>
<rscale>  2 0.21137078E+03</rscale>
<asrwt>0</asrwt>
<pdfrwt beam="1">  1       21 0.34914052E-01 0.21316676E+03</pdfrwt>
<pdfrwt beam="2">  1       21 0.37120623E-01 0.21316676E+03</pdfrwt>
<totfact> 0.54819247E+04</totfact>
</mgrwt>
</event>
<event>
12    1  0.1039378E-001  0.1747625E+03  0.7546771E-02  0.1173333E+00
         21   -1    0    0  501  502  0.00000000000E+00  0.00000000000E+00  0.14868189231E+04  0.14868189231E+04  0.00000000000E+00 0.  1.
         21   -1    0    0  502  503 -0.00000000000E+00 -0.00000000000E+00 -0.25707873631E+02  0.25707873631E+02  0.00000000000E+00 0.  1.
         -6    2    1    2    0  503  0.16253282208E+02  0.11202699552E+02  0.38366682244E+03  0.42100125567E+03  0.17219801676E+03 0.  0.
        -24    2    3    3    0    0  0.64396062366E+02 -0.25521874018E+02  0.29169844308E+03  0.31078921283E+03  0.81876334885E+02 0.  0.
          6    2    1    2  501    0 -0.16253282208E+02 -0.11202699552E+02  0.10774442271E+04  0.10915255411E+04  0.17364410376E+03 0.  0.
         24    2    5    5    0    0  0.58434695648E+02 -0.25943550140E+02  0.59116278706E+03  0.59929864666E+03  0.74818083611E+02 0.  0.
          5    1    5    5  501    0 -0.74687977855E+02  0.14740850588E+02  0.48628144001E+03  0.49222689444E+03  0.47000000000E+01 0. -1.
        -11    1    6    6    0    0  0.96439391995E+01 -0.23866709574E+02  0.43308767501E+03  0.43385200200E+03  0.00000000000E+00 0.  1.
         12    1    6    6    0    0  0.48790756448E+02 -0.20768405656E+01  0.15807511204E+03  0.16544664466E+03  0.00000000000E+00 0. -1.
         -5    1    3    3    0  503 -0.48142780159E+02  0.36724573570E+02  0.91968379358E+02  0.11021204284E+03  0.47000000000E+01 0.  1.
         11    1    4    4    0    0 -0.32451997249E+01  0.19409097964E+02  0.23949766562E+02  0.30997350265E+02  0.00000000000E+00 0. -1.
        -12    1    4    4    0    0  0.67641262091E+02 -0.44930971982E+02  0.26774867652E+03  0.27979186257E+03  0.00000000000E+00 0.  1.
<mgrwt>
<rscale>  2 0.17440224E+03</rscale>
<asrwt>0</asrwt>
<pdfrwt beam="1">  1       21 0.22874131E+00 0.17476254E+03</pdfrwt>
<pdfrwt beam="2">  1       21 0.39550586E-02 0.17476254E+03</pdfrwt>
<totfact> 0.36038766E+04</totfact>
</mgrwt>
</event>
<event>
12    1  0.1039378E-001  0.2242433E+03  0.7546771E-02  0.1132540E+00
         21   -1    0    0  501  502  0.00000000000E+00  0.00000000000E+00  0.73261958633E+02  0.73261958633E+02  0.00000000000E+00 0.  1.
         21   -1    0    0  502  503 -0.00000000000E+00 -0.00000000000E+00 -0.72187460697E+03  0.72187460697E+03  0.00000000000E+00 0. -1.
         -6    2    1    2    0  503  0.75967872637E+02 -0.10285166538E+03 -0.19906121259E+03  0.29276065079E+03  0.17243505894E+03 0.  0.
        -24    2    3    3    0    0  0.15325868848E+02 -0.78375227109E+02 -0.38887498002E+02  0.11968766764E+03  0.80220582169E+02 0.  0.
          6    2    1    2  501    0 -0.75967872637E+02  0.10285166538E+03 -0.44955143575E+03  0.50237591481E+03  0.18421586156E+03 0.  0.
         24    2    5    5    0    0 -0.23616059146E+02  0.10634107240E+03 -0.17987439747E+03  0.22760203812E+03  0.87073227579E+02 0.  0.
          5    1    5    5  501    0 -0.52351813491E+02 -0.34894070178E+01 -0.26967703828E+03  0.27477387670E+03  0.47000000000E+01 0. -1.
        -11    1    6    6    0    0 -0.93219432794E+01 -0.41760842136E+01  0.52803551629E+01  0.11498715429E+02  0.00000000000E+00 0.  1.
         12    1    6    6    0    0 -0.14294115867E+02  0.11051715661E+03 -0.18515475263E+03  0.21610332269E+03  0.00000000000E+00 0. -1.
         -5    1    3    3    0  503  0.60642003789E+02 -0.24476438274E+02 -0.16017371458E+03  0.17307298315E+03  0.47000000000E+01 0.  1.
         11    1    4    4    0    0  0.17654695381E+01 -0.42129915868E+02 -0.61724658358E+02  0.74752793548E+02  0.00000000000E+00 0. -1.
        -12    1    4    4    0    0  0.13560399310E+02 -0.36245311240E+02  0.22837160357E+02  0.44934874090E+02  0.00000000000E+00 0.  1.
<mgrwt>
<rscale>  2 0.22181083E+03</rscale>
<asrwt>0</asrwt>
<pdfrwt beam="1">  1       21 0.11271071E-01 0.22424332E+03</pdfrwt>
<pdfrwt beam="2">  1       21 0.11105763E+00 0.22424332E+03</pdfrwt>
<totfact> 0.41190830E+04</totfact>
</mgrwt>
</event>
<event>
12    1  0.1039378E-001  0.1947159E+03  0.7546771E-02  0.1154436E+00
         21   -1    0    0  501  502  0.00000000000E+00  0.00000000000E+00  0.79312958792E+03  0.79312958792E+03  0.00000000000E+00 0.  1.
         21   -1    0    0  502  503 -0.00000000000E+00 -0.00000000000E+00 -0.65493897896E+02  0.65493897896E+02  0.00000000000E+00 0.  1.
         -6    2    1    2    0  503 -0.18989573249E+02 -0.87459987830E+02  0.14006236928E+03  0.23985780168E+03  0.17292901542E+03 0.  0.
        -24    2    3    3    0    0  0.29030961310E+02 -0.16825614573E+02  0.14664592228E+02  0.88062284902E+02  0.80087562933E+02 0.  0.
          6    2    1    2  501    0  0.18989573249E+02  0.87459987830E+02  0.58757332074E+03  0.61876568413E+03  0.17210087522E+03 0.  0.
         24    2    5    5    0    0  0.78722894354E+02  0.51122913939E+02  0.38238581342E+03  0.40194212510E+03  0.80794277045E+02 0.  0.
          5    1    5    5  501    0 -0.59733321106E+02  0.36337073890E+02  0.20518750732E+03  0.21682355903E+03  0.47000000000E+01 0. -1.
        -13    1    6    6    0    0  0.70702595479E+02  0.29368099308E+02  0.36504984999E+03  0.37299160211E+03  0.00000000000E+00 0.  1.
         14    1    6    6    0    0  0.80202988752E+01  0.21754814631E+02  0.17335963426E+02  0.28950522993E+02  0.00000000000E+00 0. -1.
         -5    1    3    3    0  503 -0.48020534558E+02 -0.70634373256E+02  0.12539777706E+03  0.15179551678E+03  0.47000000000E+01 0.  1.
         11    1    4    4    0    0  0.47664331091E+02 -0.27155745944E+02  0.29321904650E+02  0.62202066593E+02  0.00000000000E+00 0. -1.
        -12    1    4    4    0    0 -0.18633369782E+02  0.10330131370E+02 -0.14657312422E+02  0.25860218309E+02  0.00000000000E+00 0.  1.
<mgrwt>
<rscale>  2 0.19453190E+03</rscale>
<asrwt>0</asrwt>
<pdfrwt beam="1">  1       21 0.12201993E+00 0.19471594E+03</pdfrwt>
<pdfrwt beam="2">  1       21 0.10075985E-01 0.19471594E+03</pdfrwt>
<totfact> 0.40519857E+04</totfact>
</mgrwt>
</event>
<event>
12    1  0.1039378E-001  0.1871296E+03  0.7546771E-02  0.1161239E+00
         21   -1    0    0  503  502  0.00000000000E+00  0.00000000000E+00  0.49977488590E+03  0.49977488590E+03  0.00000000000E+00 0.  1.
         21   -1    0    0  501  503 -0.00000000000E+00 -0.00000000000E+00 -0.10298582637E+03  0.10298582637E+03  0.00000000000E+00 0.  1.
          6    2    1    2  501    0  0.22188199146E+02  0.64270434933E+02  0.27062667293E+02  0.18837553179E+03  0.17357980305E+03 0.  0.
         24    2    3    3    0    0 -0.21880678447E+02  0.92640954829E+02  0.47331922916E+02  0.13198506189E+03  0.78221704374E+02 0.  0.
         -6    2    1    2    0  502 -0.22188199146E+02 -0.64270434933E+02  0.36972639224E+03  0.41438518048E+03  0.17434009205E+03 0.  0.
        -24    2    5    5    0    0  0.47505671095E+02 -0.35942470029E+02  0.27913044804E+03  0.29653177896E+03  0.80427849482E+02 0.  0.
          5    1    3    3  501    0  0.44068877593E+02 -0.28370519896E+02 -0.20269255623E+02  0.56390469895E+02  0.47000000000E+01 0. -1.
        -13    1    4    4    0    0  0.38291830632E+01  0.96226180100E+02  0.30376252255E+02  0.10097948842E+03  0.00000000000E+00 0.  1.
         14    1    4    4    0    0 -0.25709861510E+02 -0.35852252714E+01  0.16955670661E+02  0.31005573478E+02  0.00000000000E+00 0. -1.
         -5    1    5    5    0  502 -0.69693870241E+02 -0.28327964904E+02  0.90595944197E+02  0.11785340152E+03  0.47000000000E+01 0.  1.
         11    1    6    6    0    0  0.31503526029E+02  0.18415736554E+02  0.60282531451E+02  0.70466978814E+02  0.00000000000E+00 0. -1.
        -12    1    6    6    0    0  0.16002145066E+02 -0.54358206583E+02  0.21884791659E+03  0.22606480015E+03  0.00000000000E+00 0.  1.
<mgrwt>
<rscale>  2 0.18695228E+03</rscale>
<asrwt>0</asrwt>
<pdfrwt beam="1">  1       21 0.76888443E-01 0.18712956E+03</pdfrwt>
<pdfrwt beam="2">  1       21 0.15843974E-01 0.18712956E+03</pdfrwt>
<totfact> 0.53524507E+04</totfact>
</mgrwt>
</event>
<event>
12    1  0.1039378E-001  0.1911286E+03  0.7546771E-02  0.1157567E+00
         21   -1    0    0  503  502  0.00000000000E+00  0.00000000000E+00  0.71206398301E+03  0.71206398301E+03  0.00000000000E+00 0.  1.
         21   -1    0    0  501  503 -0.00000000000E+00 -0.00000000000E+00 -0.51318648345E+02  0.51318648345E+02  0.00000000000E+00 0.  1.
          6    2    1    2  501    0  0.59647575436E+02 -0.51589784914E+02  0.30858151503E+03  0.36269634624E+03  0.17351296492E+03 0.  0.
         24    2    3    3    0    0  0.74748987255E+02  0.23022584477E+02  0.20933870380E+03  0.23753131963E+03  0.80504561391E+02 0.  0.
         -6    2    1    2    0  502 -0.59647575436E+02  0.51589784914E+02  0.35216381963E+03  0.40068628511E+03  0.17409998293E+03 0.  0.
        -24    2    5    5    0    0 -0.26352811617E+02 -0.39687428189E+02  0.18866729039E+03  0.21044098030E+03  0.80128004403E+02 0.  0.
          5    1    3    3  501    0 -0.15101411819E+02 -0.74612369391E+02  0.99242811223E+02  0.12516502660E+03  0.47000000000E+01 0. -1.
        -13    1    4    4    0    0  0.85608984442E+02  0.35227692983E+01  0.18821701556E+03  0.20680172404E+03  0.00000000000E+00 0.  1.
         14    1    4    4    0    0 -0.10859997187E+02  0.19499815179E+02  0.21121688245E+02  0.30729595592E+02  0.00000000000E+00 0. -1.
         -5    1    5    5    0  502 -0.33294763819E+02  0.91277213103E+02  0.16349652924E+03  0.19024530481E+03  0.47000000000E+01 0.  1.
         13    1    6    6    0    0  0.17309857016E+02  0.12182936997E+02  0.76498867957E+02  0.79373370235E+02  0.00000000000E+00 0. -1.
        -14    1    6    6    0    0 -0.43662668633E+02 -0.51870365185E+02  0.11216842244E+03  0.13106761007E+03  0.00000000000E+00 0.  1.
<mgrwt>
<rscale>  2 0.19099482E+03</rscale>
<asrwt>0</asrwt>
<pdfrwt beam="1">  1       21 0.10954830E+00 0.19112860E+03</pdfrwt>
<pdfrwt beam="2">  1       21 0.78951772E-02 0.19112860E+03</pdfrwt>
<totfact> 0.81053407E+04</totfact>
</mgrwt>
</event>
<event>
12    1  0.1039378E-001  0.1857085E+03  0.7546771E-02  0.1162557E+00
         21   -1    0    0  501  502  0.00000000000E+00  0.00000000000E+00  0.20626474569E+03  0.20626474569E+03  0.00000000000E+00 0. -1.
         21   -1    0    0  502  503 -0.00000000000E+00 -0.00000000000E+00 -0.30066374927E+03  0.30066374927E+03  0.00000000000E+00 0. -1.
         -6    2    1    2    0  503  0.47622504965E+02 -0.46590980251E+02 -0.21642812295E+03  0.28471522865E+03  0.17257753794E+03 0.  0.
        -24    2    3    3    0    0  0.93704293534E+02 -0.19662515173E+02 -0.11347003838E+03  0.16865002866E+03  0.80001708914E+02 0.  0.
          6    2    1    2  501    0 -0.47622504965E+02  0.46590980251E+02  0.12202911936E+03  0.22221326631E+03  0.17334649501E+03 0.  0.
         24    2    5    5    0    0 -0.15007541904E+02  0.85275373687E+02  0.38330051963E+02  0.12429573982E+03  0.80517838905E+02 0.  0.
          5    1    5    5  501    0 -0.32614963061E+02 -0.38684393436E+02  0.83699067399E+02  0.97917526493E+02  0.47000000000E+01 0. -1.
        -13    1    6    6    0    0 -0.21887526744E+02 -0.89847908122E+01  0.60095107930E+01  0.24411155500E+02  0.00000000000E+00 0.  1.
         14    1    6    6    0    0  0.68799848400E+01  0.94260164499E+02  0.32320541170E+02  0.99884584317E+02  0.00000000000E+00 0. -1.
         -5    1    3    3    0  503 -0.46081788569E+02 -0.26928465078E+02 -0.10295808457E+03  0.11606519999E+03  0.47000000000E+01 0.  1.
         13    1    4    4    0    0  0.38028194433E+00 -0.16872311560E+02  0.51950705518E+01  0.17658093606E+02  0.00000000000E+00 0. -1.
        -14    1    4    4    0    0  0.93324011589E+02 -0.27902036122E+01 -0.11866510893E+03  0.15099193506E+03  0.00000000000E+00 0.  1.
<mgrwt>
<rscale>  2 0.18552880E+03</rscale>
<asrwt>0</asrwt>
<pdfrwt beam="1">  1       21 0.31733038E-01 0.18570845E+03</pdfrwt>
<pdfrwt beam="2">  1       21 0.46255961E-01 0.18570845E+03</pdfrwt>
<totfact> 0.42898203E+04</totfact>
</mgrwt>
</event>
<event>
12    1  0.1039378E-001  0.1809817E+03  0.7546771E-02  0.1166958E+00
         21   -1    0    0  501  502  0.00000000000E+00  0.00000000000E+00  0.91346445891E+03  0.91346445891E+03  0.00000000000E+00 0.  1.
         21   -1    0    0  502  503 -0.00000000000E+00 -0.00000000000E+00 -0.46560856936E+02  0.46560856936E+02  0.00000000000E+00 0.  1.
         -6    2    1    2    0  503 -0.32742892932E+02  0.37905085580E+02  0.20279376669E+03  0.27180820190E+03  0.17391231774E+03 0.  0.
        -24    2    3    3    0    0 -0.11936084162E+02  0.82478554827E+02  0.83790345365E+02  0.14295316033E+03  0.80433835916E+02 0.  0.
          6    2    1    2  501    0  0.32742892932E+02 -0.37905085580E+02  0.66410983529E+03  0.68821711395E+03  0.17347054520E+03 0.  0.
         24    2    5    5    0    0  0.72858830112E+02  0.49013346553E+01  0.29167709016E+03  0.31116285038E+03  0.80089714239E+02 0.  0.
          5    1    5    5  501    0 -0.40115937180E+02 -0.42806420235E+02  0.37243274513E+03  0.37705426357E+03  0.47000000000E+01 0. -1.
        -11    1    6    6    0    0  0.68251866523E+02  0.28865529470E+02  0.26428215944E+03  0.27447512797E+03  0.00000000000E+00 0.  1.
         12    1    6    6    0    0  0.46069635895E+01 -0.23964194815E+02  0.27394930717E+02  0.36687722410E+02  0.00000000000E+00 0. -1.
         -5    1    3    3    0  503 -0.20806808770E+02 -0.44573469247E+02  0.11900342133E+03  0.12885504157E+03  0.47000000000E+01 0.  1.
         11    1    4    4    0    0  0.25909753530E+02  0.17979898045E+01  0.25935429087E+02  0.36704149319E+02  0.00000000000E+00 0. -1.
        -12    1    4    4    0    0 -0.37845837692E+02  0.80680565023E+02  0.57854916278E+02  0.10624901101E+03  0.00000000000E+00 0.  1.
<mgrwt>
<rscale>  2 0.18087552E+03</rscale>
<asrwt>0</asrwt>
<pdfrwt beam="1">  1       21 0.14053298E+00 0.18098173E+03</pdfrwt>
<pdfrwt beam="2">  1       21 0.71632095E-02 0.18098173E+03</pdfrwt>
<totfact> 0.51831941E+04</totfact>
</mgrwt>
</event>
<event>
11    1  0.1039378E-001  0.2362551E+03  0.7546771E-02  0.1123004E+00
         21   -1    0    0  503  502  0.00000000000E+00  0.00000000000E+00  0.10139023999E+03  0.10139023999E+03  0.00000000000E+00 0. -1.
         21   -1    0    0  501  503 -0.00000000000E+00 -0.00000000000E+00 -0.78686811236E+03  0.78686811236E+03  0.00000000000E+00 0.  1.
          6    2    1    2  501    0 -0.13625660899E+03  0.81252383644E+02 -0.59293866551E+03  0.63827322674E+03  0.17506752290E+03 0.  0.
         -6    2    1    2    0  502  0.13625660899E+03 -0.81252383644E+02 -0.92539206855E+02  0.24998512561E+03  0.16959140568E+03 0.  0.
        -24    2    4    4    0    0  0.56957460766E+02 -0.10532178059E+03 -0.82712793215E+02  0.16640080182E+03  0.80690711256E+02 0.  0.
          5    1    3    3  501    0 -0.41785197949E+02  0.27798570495E+02 -0.50639194247E+02  0.71450551315E+02  0.47000000000E+01 0. -1.
        -13    1    3    3    0    0 -0.12052536550E+03  0.62092487332E+02 -0.41455393822E+03  0.43616144763E+03  0.00000000000E+00 0.  1.
         14    1    3    3    0    0  0.26053954459E+02 -0.86386741826E+01 -0.12774553304E+03  0.13066122779E+03  0.00000000000E+00 0. -1.
         -5    1    4    4    0  502  0.79299148221E+02  0.24069396944E+02 -0.98264136401E+01  0.83584323787E+02  0.47000000000E+01 0.  1.
         13    1    5    5    0    0  0.74191231901E+02 -0.67850493285E+02 -0.43689224716E+02  0.10962105950E+03  0.00000000000E+00 0. -1.
        -14    1    5    5    0    0 -0.17233771135E+02 -0.37471287304E+02 -0.39023568499E+02  0.56779742322E+02  0.00000000000E+00 0.  1.
<mgrwt>
<rscale>  2 0.23524136E+03</rscale>
<asrwt>0</asrwt>
<pdfrwt beam="1">  1       21 0.15598499E-01 0.23625505E+03</pdfrwt>
<pdfrwt beam="2">  1       21 0.12105663E+00 0.23625505E+03</pdfrwt>
<totfact> 0.18380666E+04</totfact>
</mgrwt>
</event>
<event>
12    1  0.1039378E-001  0.2048353E+03  0.7546771E-02  0.1146371E+00
         21   -1    0    0  501  502  0.00000000000E+00  0.00000000000E+00  0.16956241673E+03  0.16956241673E+03  0.00000000000E+00 0. -1.
         21   -1    0    0  502  503 -0.00000000000E+00 -0.00000000000E+00 -0.30762571317E+03  0.30762571317E+03  0.00000000000E+00 0. -1.
         -6    2    1    2    0  503  0.75410958652E+02 -0.74102135368E+02 -0.17824987893E+03  0.27153366857E+03  0.17544108606E+03 0.  0.
        -24    2    3    3    0    0 -0.18233280504E+01 -0.33207457584E+02 -0.31899067557E+02  0.10101047454E+03  0.89886070621E+02 0.  0.
          6    2    1    2  501    0 -0.75410958652E+02  0.74102135368E+02  0.40186582490E+02  0.20565446133E+03  0.17175813489E+03 0.  0.
         24    2    5    5    0    0 -0.23320757588E+01  0.80786246781E+02 -0.13176940197E+02  0.11479767279E+03  0.80455066203E+02 0.  0.
          5    1    5    5  501    0 -0.73078882893E+02 -0.66841114130E+01  0.53363522687E+02  0.90856788540E+02  0.47000000000E+01 0. -1.
        -11    1    6    6    0    0  0.25282329719E+02  0.22882500761E+02  0.23016322994E+02  0.41140687418E+02  0.00000000000E+00 0.  1.
         12    1    6    6    0    0 -0.27614405478E+02  0.57903746020E+02 -0.36193263190E+02  0.73656985367E+02  0.00000000000E+00 0. -1.
         -5    1    3    3    0  503  0.77234286702E+02 -0.40894677784E+02 -0.14635081137E+03  0.17052319403E+03  0.47000000000E+01 0.  1.
         13    1    4    4    0    0  0.65146033620E+01 -0.61669361397E+02 -0.34971320924E+02  0.71193703930E+02  0.00000000000E+00 0. -1.
        -14    1    4    4    0    0 -0.83379314124E+01  0.28461903813E+02  0.30722533677E+01  0.29816770611E+02  0.00000000000E+00 0.  1.
<mgrwt>
<rscale>  2 0.20404439E+03</rscale>
<asrwt>0</asrwt>
<pdfrwt beam="1">  1       21 0.26086526E-01 0.20483533E+03</pdfrwt>
<pdfrwt beam="2">  1       21 0.47327033E-01 0.20483533E+03</pdfrwt>
<totfact> 0.59295755E+04</totfact>
</mgrwt>
</event>
<event>
12    1  0.1039378E-001  0.2482844E+03  0.7546771E-02  0.1114398E+00
         21   -1    0    0  501  502  0.00000000000E+00  0.00000000000E+00  0.93652715043E+02  0.93652715043E+02  0.00000000000E+00 0.  1.
         21   -1    0    0  502  503 -0.00000000000E+00 -0.00000000000E+00 -0.16037973858E+04  0.16037973858E+04  0.00000000000E+00 0.  1.
         -6    2    1    2    0  503 -0.17666963542E+03  0.26413189605E+02 -0.14067966826E+04  0.14285384367E+04  0.17243938777E+03 0.  0.
        -24    2    3    3    0    0 -0.12312202298E+03 -0.10055116371E+02 -0.12515324945E+04  0.12602341223E+04  0.81217734919E+02 0.  0.
          6    2    1    2  501    0  0.17666963542E+03 -0.26413189605E+02 -0.10334798822E+03  0.26891166415E+03  0.17240318960E+03 0.  0.
         24    2    5    5    0    0  0.10040546931E+03 -0.85977115086E+02 -0.54681874419E+02  0.16049319301E+03  0.72764242787E+02 0.  0.
          5    1    5    5  501    0  0.76264166111E+02  0.59563925481E+02 -0.48666113806E+02  0.10841847114E+03  0.47000000000E+01 0. -1.
        -13    1    6    6    0    0  0.68198171055E+02 -0.25677577285E+02 -0.56339602696E+02  0.92111233530E+02  0.00000000000E+00 0.  1.
         14    1    6    6    0    0  0.32207298252E+02 -0.60299537802E+02  0.16577282768E+01  0.68381959483E+02  0.00000000000E+00 0. -1.
         -5    1    3    3    0  503 -0.53547612438E+02  0.36468305977E+02 -0.15526418812E+03  0.16830431442E+03  0.47000000000E+01 0.  1.
         13    1    4    4    0    0  0.20944371078E+01 -0.16314403899E+02 -0.63163143953E+02  0.65269665201E+02  0.00000000000E+00 0. -1.
        -14    1    4    4    0    0 -0.12521646009E+03  0.62592875272E+01 -0.11883693505E+04  0.11949644571E+04  0.00000000000E+00 0.  1.
<mgrwt>
<rscale>  2 0.24827815E+03</rscale>
<asrwt>0</asrwt>
<pdfrwt beam="1">  1       21 0.14408110E-01 0.24828443E+03</pdfrwt>
<pdfrwt beam="2">  1       21 0.24673807E+00 0.24828443E+03</pdfrwt>
<totfact> 0.27778631E+03</totfact>
</mgrwt>
</event>
<event>
12    1  0.1039378E-001  0.1786597E+03  0.7546771E-02  0.1169148E+00
         21   -1    0    0  503  502  0.00000000000E+00  0.00000000000E+00  0.16983227579E+04  0.16983227579E+04  0.00000000000E+00 0. -1.
         21   -1    0    0  501  503 -0.00000000000E+00 -0.00000000000E+00 -0.99312593956E+02  0.99312593956E+02  0.00000000000E+00 0. -1.
          6    2    1    2  501    0 -0.11741425884E+02 -0.41145239421E+02 -0.99687515368E+01  0.17876771170E+03  0.17328510302E+03 0.  0.
         24    2    3    3    0    0 -0.52785955623E+02 -0.76705363058E+02 -0.18361326098E+02  0.12361609230E+03  0.79206881938E+02 0.  0.
         -6    2    1    2    0  502  0.11741425884E+02  0.41145239421E+02  0.16089789154E+04  0.16188676401E+04  0.17346035305E+03 0.  0.
        -24    2    5    5    0    0 -0.51654733512E+02  0.30759054097E+02  0.12567164806E+04  0.12607645002E+04  0.81095507060E+02 0.  0.
          5    1    3    3  501    0  0.41044529739E+02  0.35560123638E+02  0.83925745612E+01  0.55151619399E+02  0.47000000000E+01 0. -1.
        -13    1    4    4    0    0 -0.38958157679E+01  0.13806070545E+02  0.92930179021E+01  0.17092253980E+02  0.00000000000E+00 0.  1.
         14    1    4    4    0    0 -0.48890139855E+02 -0.90511433604E+02 -0.27654344000E+02  0.10652383832E+03  0.00000000000E+00 0. -1.
         -5    1    5    5    0  502  0.63396159396E+02  0.10386185324E+02  0.35226243480E+03  0.35810313995E+03  0.47000000000E+01 0.  1.
         13    1    6    6    0    0  0.18143573334E+02 -0.78826319999E+01  0.34376827442E+03  0.34433697397E+03  0.00000000000E+00 0. -1.
        -14    1    6    6    0    0 -0.69798306845E+02  0.38641686097E+02  0.91294820622E+03  0.91642752620E+03  0.00000000000E+00 0.  1.
<mgrwt>
<rscale>  2 0.17861714E+03</rscale>
<asrwt>0</asrwt>
<pdfrwt beam="1">  1       21 0.26128040E+00 0.17865969E+03</pdfrwt>
<pdfrwt beam="2">  1       21 0.15278862E-01 0.17865969E+03</pdfrwt>
<totfact> 0.22036353E+03</totfact>
</mgrwt>
</event>
<event>
12    1  0.1039378E-001  0.1992332E+03  0.7546771E-02  0.1151087E+00
         21   -1    0    0  501  502  0.00000000000E+00  0.00000000000E+00  0.13893990892E+03  0.13893990892E+03  0.00000000000E+00 0.  1.
         21   -1    0    0  502  503 -0.00000000000E+00 -0.00000000000E+00 -0.31564392369E+03  0.31564392369E+03  0.00000000000E+00 0.  1.
         -6    2    1    2    0  503 -0.86041538957E+02 -0.23756691510E+02 -0.16427917454E+03  0.25822764719E+03  0.17811890346E+03 0.  0.
        -24    2    3    3    0    0 -0.95869470326E+02 -0.51137307774E+02 -0.18015236343E+03  0.22475624884E+03  0.79085509146E+02 0.  0.
          6    2    1    2  501    0  0.86041538957E+02  0.23756691510E+02 -0.12424840229E+02  0.19635618541E+03  0.17445299676E+03 0.  0.
         24    2    5    5    0    0 -0.20131886227E+02 -0.10857479217E+02 -0.22149463805E+02  0.84161732188E+02  0.77906487022E+02 0.  0.
          5    1    5    5  501    0  0.10617342518E+03  0.34614170726E+02  0.97246235763E+01  0.11219445322E+03  0.47000000000E+01 0. -1.
        -11    1    6    6    0    0  0.16049120063E+02 -0.23936223371E+02 -0.33365089362E+02  0.44087937491E+02  0.00000000000E+00 0.  1.
         12    1    6    6    0    0 -0.36181006290E+02  0.13078744155E+02  0.11215625557E+02  0.40073794697E+02  0.00000000000E+00 0. -1.
         -5    1    3    3    0  503  0.98279313690E+01  0.27380616264E+02  0.15873188889E+02  0.33471398350E+02  0.47000000000E+01 0.  1.
         11    1    4    4    0    0 -0.22209682022E+02  0.18290268876E+02 -0.67112227307E+02  0.73019551937E+02  0.00000000000E+00 0. -1.
        -12    1    4    4    0    0 -0.73659788304E+02 -0.69427576650E+02 -0.11304013612E+03  0.15173669690E+03  0.00000000000E+00 0.  1.
<mgrwt>
<rscale>  2 0.19841049E+03</rscale>
<asrwt>0</asrwt>
<pdfrwt beam="1">  1       21 0.21375371E-01 0.19923321E+03</pdfrwt>
<pdfrwt beam="2">  1       21 0.48560603E-01 0.19923321E+03</pdfrwt>
<totfact> 0.82284662E+04</totfact>
</mgrwt>
</event>
<event>
12    1  0.1039378E-001  0.1739081E+03  0.7546771E-02  0.1174720E+00
         21   -1    0    0  501  502  0.00000000000E+00  0.00000000000E+00  0.16583934260E+03  0.16583934260E+03  0.00000000000E+00 0. -1.
         21   -1    0    0  502  503 -0.00000000000E+00 -0.00000000000E+00 -0.32211041543E+03  0.32211041543E+03  0.00000000000E+00 0. -1.
         -6    2    1    2    0  503  0.36710663793E+01  0.18095243374E+02 -0.24133234643E+03  0.29746483208E+03  0.17292515817E+03 0.  0.
        -24    2    3    3    0    0 -0.50469063963E+02  0.41896110506E+02 -0.20030991036E+03  0.22533602195E+03  0.79685959281E+02 0.  0.
          6    2    1    2  501    0 -0.36710663793E+01 -0.18095243374E+02  0.85061273597E+02  0.19048492595E+03  0.16943486119E+03 0.  0.
         24    2    5    5    0    0 -0.66503267187E+02  0.34474137840E+00  0.55116641275E+02  0.11832753200E+03  0.80874948481E+02 0.  0.
          5    1    5    5  501    0  0.62832200807E+02 -0.18439984753E+02  0.29944632322E+02  0.72157393945E+02  0.47000000000E+01 0. -1.
        -13    1    6    6    0    0  0.23574731461E+00 -0.29233406351E+02  0.27923702234E+02  0.40427475436E+02  0.00000000000E+00 0.  1.
         14    1    6    6    0    0 -0.66739014501E+02  0.29578147729E+02  0.27192939041E+02  0.77900056569E+02  0.00000000000E+00 0. -1.
         -5    1    3    3    0  503  0.54140130342E+02 -0.23800867131E+02 -0.41022436074E+02  0.72128810132E+02  0.47000000000E+01 0.  1.
         11    1    4    4    0    0 -0.15732234254E+02  0.29929943282E+02 -0.18041287291E+03  0.18355410486E+03  0.00000000000E+00 0. -1.
        -12    1    4    4    0    0 -0.34736829709E+02  0.11966167223E+02 -0.19897037448E+02  0.41781917087E+02  0.00000000000E+00 0.  1.
<mgrwt>
<rscale>  2 0.17303398E+03</rscale>
<asrwt>0</asrwt>
<pdfrwt beam="1">  1       21 0.25513745E-01 0.17390809E+03</pdfrwt>
<pdfrwt beam="2">  1       21 0.49555448E-01 0.17390809E+03</pdfrwt>
<totfact> 0.57046949E+04</totfact>
</mgrwt>
</event>
<event>
12    1  0.1039378E-001  0.2489963E+03  0.7546771E-02  0.1114127E+00
         21   -1    0    0  501  502  0.00000000000E+00  0.00000000000E+00  0.19483551377E+03  0.19483551377E+03  0.00000000000E+00 0. -1.
         21   -1    0    0  502  503 -0.00000000000E+00 -0.00000000000E+00 -0.68592721468E+03  0.68592721468E+03  0.00000000000E+00 0.  1.
         -6    2    1    2    0  503 -0.68333226091E+02 -0.16627638003E+03 -0.56836895417E+03  0.62005039553E+03  0.17059296758E+03 0.  0.
        -24    2    3    3    0    0 -0.99381954376E+02 -0.11950257075E+03 -0.32191035752E+03  0.36723476582E+03  0.84127627310E+02 0.  0.
          6    2    1    2  501    0  0.68333226091E+02  0.16627638003E+03  0.77277253263E+02  0.26071233292E+03  0.17228430666E+03 0.  0.
         24    2    5    5    0    0 -0.22017659764E+02  0.12166688892E+03  0.37657769369E+02  0.15233759981E+03  0.80628949659E+02 0.  0.
          5    1    5    5  501    0  0.90350885855E+02  0.44609491115E+02  0.39619483894E+02  0.10837473311E+03  0.47000000000E+01 0. -1.
        -13    1    6    6    0    0 -0.45276710592E+02  0.10585951238E+03  0.44431054232E+02  0.12341124529E+03  0.00000000000E+00 0.  1.
         14    1    6    6    0    0  0.23259050827E+02  0.15807376538E+02 -0.67732848631E+01  0.28926354527E+02  0.00000000000E+00 0. -1.
         -5    1    3    3    0  503  0.31048728286E+02 -0.46773809286E+02 -0.24645859665E+03  0.25281562971E+03  0.47000000000E+01 0.  1.
         13    1    4    4    0    0 -0.90230052727E+02 -0.12698297127E+03 -0.31908850520E+03  0.35508254190E+03  0.00000000000E+00 0. -1.
        -14    1    4    4    0    0 -0.91519016490E+01  0.74804005235E+01 -0.28218523200E+01  0.12152223924E+02  0.00000000000E+00 0.  1.
<mgrwt>
<rscale>  2 0.24870395E+03</rscale>
<asrwt>0</asrwt>
<pdfrwt beam="1">  1       21 0.29974695E-01 0.24899628E+03</pdfrwt>
<pdfrwt beam="2">  1       21 0.10552726E+00 0.24899628E+03</pdfrwt>
<totfact> 0.74173857E+03</totfact>
</mgrwt>
</event>
<event>
12    1  0.1039378E-001  0.2006571E+03  0.7546771E-02  0.1151389E+00
         21   -1    0    0  501  502  0.00000000000E+00  0.00000000000E+00  0.39826909017E+02  0.39826909017E+02  0.00000000000E+00 0. -1.
         21   -1    0    0  502  503 -0.00000000000E+00 -0.00000000000E+00 -0.11345024304E+04  0.11345024304E+04  0.00000000000E+00 0. -1.
         -6    2    1    2    0  503  0.57422594228E+02  0.84782295367E+02 -0.78948686230E+03  0.81458749425E+03  0.17256270778E+03 0.  0.
        -24    2    3    3    0    0  0.75223391425E+02  0.11785936142E+03 -0.60356895234E+03  0.62485473503E+03  0.81231594623E+02 0.  0.
          6    2    1    2  501    0 -0.57422594228E+02 -0.84782295367E+02 -0.30518865909E+03  0.35974184517E+03  0.16058855997E+03 0.  0.
         24    2    5    5    0    0 -0.65506037248E+02 -0.42401609858E+02 -0.29399945372E+03  0.31492273237E+03  0.81558023162E+02 0.  0.
          5    1    5    5  501    0  0.80834430201E+01 -0.42380685509E+02 -0.11189205369E+02  0.44819112799E+02  0.47000000000E+01 0. -1.
        -13    1    6    6    0    0  0.16205617916E+02  0.67092165140E+01 -0.45370019282E+02  0.48642309648E+02  0.00000000000E+00 0.  1.
         14    1    6    6    0    0 -0.81711655164E+02 -0.49110826372E+02 -0.24862943444E+03  0.26628042273E+03  0.00000000000E+00 0. -1.
         -5    1    3    3    0  503 -0.17800797198E+02 -0.33077066056E+02 -0.18591790995E+03  0.18973275922E+03  0.47000000000E+01 0.  1.
         13    1    4    4    0    0  0.29303868012E+01  0.67017235789E+02 -0.34877940140E+03  0.35517174423E+03  0.00000000000E+00 0. -1.
        -14    1    4    4    0    0  0.72293004624E+02  0.50842125634E+02 -0.25478955095E+03  0.26968299080E+03  0.00000000000E+00 0.  1.
<mgrwt>
<rscale>  2 0.19805713E+03</rscale>
<asrwt>0</asrwt>
<pdfrwt beam="1">  1       21 0.61272163E-02 0.20065712E+03</pdfrwt>
<pdfrwt beam="2">  1       21 0.17453885E+00 0.20065712E+03</pdfrwt>
<totfact> 0.37542361E+04</totfact>
</mgrwt>
</event>
<event>
12    1  0.1039378E-001  0.1753834E+03  0.7546771E-02  0.1173225E+00
         21   -1    0    0  503  502  0.00000000000E+00  0.00000000000E+00  0.57051527092E+02  0.57051527092E+02  0.00000000000E+00 0.  1.
         21   -1    0    0  501  503 -0.00000000000E+00 -0.00000000000E+00 -0.65646642943E+03  0.65646642943E+03  0.00000000000E+00 0.  1.
          6    2    1    2  501    0  0.53475583163E+01  0.25394929670E+02 -0.45959803308E+03  0.49192449224E+03  0.17345274635E+03 0.  0.
         24    2    3    3    0    0 -0.36937827657E+02  0.48915924247E+02 -0.40841986539E+03  0.42133705780E+03  0.83432362233E+02 0.  0.
         -6    2    1    2    0  502 -0.53475583163E+01 -0.25394929670E+02 -0.13981686925E+03  0.22159346428E+03  0.16994530783E+03 0.  0.
        -24    2    5    5    0    0  0.18769187107E+02  0.47010361769E+02 -0.80300862931E+02  0.12469976662E+03  0.80867463848E+02 0.  0.
          5    1    3    3  501    0  0.42285385974E+02 -0.23520994577E+02 -0.51178167691E+02  0.70587434442E+02  0.47000000000E+01 0. -1.
        -11    1    4    4    0    0 -0.28631958171E+02  0.17356698314E+02 -0.36738592354E+03  0.36890847214E+03  0.00000000000E+00 0.  1.
         12    1    4    4    0    0 -0.83058694866E+01  0.31559225933E+02 -0.41033941854E+02  0.52428585652E+02  0.00000000000E+00 0. -1.
         -5    1    5    5    0  502 -0.24116745424E+02 -0.72405291439E+02 -0.59516006321E+02  0.96893697662E+02  0.47000000000E+01 0.  1.
         11    1    6    6    0    0  0.18460029857E+02 -0.86475518248E+01 -0.63301507855E+02  0.66502885288E+02  0.00000000000E+00 0. -1.
        -12    1    6    6    0    0  0.30915725052E+00  0.55657913594E+02 -0.16999355076E+02  0.58196881332E+02  0.00000000000E+00 0.  1.
<mgrwt>
<rscale>  2 0.17450993E+03</rscale>
<asrwt>0</asrwt>
<pdfrwt beam="1">  1       21 0.87771579E-02 0.17538345E+03</pdfrwt>
<pdfrwt beam="2">  1       21 0.10099484E+00 0.17538345E+03</pdfrwt>
<totfact> 0.82470008E+04</totfact>
</mgrwt>
</event>
<event>
12    1  0.1039378E-001  0.3259408E+03  0.7546771E-02  0.1073797E+00
         21   -1    0    0  501  502  0.00000000000E+00  0.00000000000E+00  0.12215914908E+04  0.12215914908E+04  0.00000000000E+00 0.  1.
         21   -1    0    0  502  503 -0.00000000000E+00 -0.00000000000E+00 -0.85309474622E+02  0.85309474622E+02  0.00000000000E+00 0.  1.
         -6    2    1    2    0  503 -0.27367462221E+02 -0.26545079483E+03  0.60192257830E+03  0.68097972438E+03  0.17380878079E+03 0.  0.
        -24    2    3    3    0    0 -0.74704171975E+02 -0.12074293517E+03  0.26864167069E+03  0.31453821184E+03  0.81279577805E+02 0.  0.
          6    2    1    2  501    0  0.27367462221E+02  0.26545079483E+03  0.53435943792E+03  0.62592124109E+03  0.18714777232E+03 0.  0.
         24    2    5    5    0    0  0.19067776762E+02  0.26721093370E+03  0.38279657996E+03  0.47404835747E+03  0.80145869418E+02 0.  0.
          5    1    5    5  501    0  0.82996854586E+01 -0.17601388697E+01  0.15156285796E+03  0.15187288362E+03  0.47000000000E+01 0. -1.
        -13    1    6    6    0    0 -0.15598446049E+02  0.12889693736E+03  0.12953319955E+03  0.18340278560E+03  0.00000000000E+00 0.  1.
         14    1    6    6    0    0  0.34666222811E+02  0.13831399635E+03  0.25326338042E+03  0.29064557187E+03  0.00000000000E+00 0. -1.
         -5    1    3    3    0  503  0.47336709754E+02 -0.14470785966E+03  0.33328090761E+03  0.36644151255E+03  0.47000000000E+01 0.  1.
         13    1    4    4    0    0 -0.16963803289E+02 -0.44720697672E+02  0.17267134440E+03  0.17917339255E+03  0.00000000000E+00 0. -1.
        -14    1    4    4    0    0 -0.57740368686E+02 -0.76022237501E+02  0.95970326290E+02  0.13536481928E+03  0.00000000000E+00 0.  1.
<mgrwt>
<rscale>  2 0.32405659E+03</rscale>
<asrwt>0</asrwt>
<pdfrwt beam="1">  1       21 0.18793714E+00 0.32594078E+03</pdfrwt>
<pdfrwt beam="2">  1       21 0.13124535E-01 0.32594078E+03</pdfrwt>
<totfact> 0.73634256E+03</totfact>
</mgrwt>
</event>
<event>
12    1  0.1039378E-001  0.2016369E+03  0.7546771E-02  0.1148919E+00
         21   -1    0    0  503  502  0.00000000000E+00  0.00000000000E+00  0.19349623262E+03  0.19349623262E+03  0.00000000000E+00 0. -1.
         21   -1    0    0  501  503 -0.00000000000E+00 -0.00000000000E+00 -0.21301030959E+03  0.21301030959E+03  0.00000000000E+00 0. -1.
          6    2    1    2  501    0  0.68996938096E+01 -0.99889768852E+02  0.23344403798E+02  0.20036512513E+03  0.17197572644E+03 0.  0.
         24    2    3    3    0    0 -0.26198518638E+02  0.76983098008E+01  0.19146651871E+02  0.87624726617E+02  0.81030069013E+02 0.  0.
         -6    2    1    2    0  502 -0.68996938096E+01  0.99889768852E+02 -0.42858480767E+02  0.20614141709E+03  0.17501960681E+03 0.  0.
        -24    2    5    5    0    0  0.62140304408E+02  0.81382995135E+02 -0.34510327884E+02  0.13402481925E+03  0.79291109935E+02 0.  0.
          5    1    3    3  501    0  0.33098212447E+02 -0.10758807865E+03  0.41977519272E+01  0.11274039851E+03  0.47000000000E+01 0. -1.
        -13    1    4    4    0    0  0.25468106453E+02 -0.63367989747E+01 -0.82134998024E+01  0.27499837210E+02  0.00000000000E+00 0.  1.
         14    1    4    4    0    0 -0.51666625091E+02  0.14035108776E+02  0.27360151673E+02  0.60124889407E+02  0.00000000000E+00 0. -1.
         -5    1    5    5    0  502 -0.69039998218E+02  0.18506773717E+02 -0.83481528821E+01  0.72116597839E+02  0.47000000000E+01 0.  1.
         11    1    6    6    0    0  0.97751495823E+01  0.45252795098E+02 -0.50414561022E+02  0.68447037749E+02  0.00000000000E+00 0. -1.
        -12    1    6    6    0    0  0.52365154826E+02  0.36130200037E+02  0.15904233138E+02  0.65577781499E+02  0.00000000000E+00 0.  1.
<mgrwt>
<rscale>  2 0.20097455E+03</rscale>
<asrwt>0</asrwt>
<pdfrwt beam="1">  1       21 0.29768651E-01 0.20163689E+03</pdfrwt>
<pdfrwt beam="2">  1       21 0.32770817E-01 0.20163689E+03</pdfrwt>
<totfact> 0.96607055E+04</totfact>
</mgrwt>
</event>
<event>
12    1  0.1039378E-001  0.1739246E+03  0.7546771E-02  0.1173840E+00
         21   -1    0    0  503  502  0.00000000000E+00  0.00000000000E+00  0.21201468049E+03  0.21201468049E+03  0.00000000000E+00 0. -1.
         21   -1    0    0  501  503 -0.00000000000E+00 -0.00000000000E+00 -0.24601732929E+03  0.24601732929E+03  0.00000000000E+00 0. -1.
          6    2    1    2  501    0 -0.89668483761E+01  0.13552730332E+02 -0.16548956358E+03  0.24007615748E+03  0.17316375160E+03 0.  0.
         24    2    3    3    0    0 -0.39658470091E+02 -0.48677231224E+02 -0.78180403905E+02  0.12845392349E+03  0.80286784809E+02 0.  0.
         -6    2    1    2    0  502  0.89668483761E+01 -0.13552730332E+02  0.13148691478E+03  0.21795585230E+03  0.17306606808E+03 0.  0.
        -24    2    5    5    0    0  0.40209912869E+02 -0.42495155256E+02  0.24479111562E+02  0.10268854128E+03  0.80765303773E+02 0.  0.
          5    1    3    3  501    0  0.30691621715E+02  0.62229961555E+02 -0.87309159680E+02  0.11162223400E+03  0.47000000000E+01 0. -1.
        -11    1    4    4    0    0 -0.62936512975E+02 -0.38424685701E+02 -0.70160053230E+02  0.10178356550E+03  0.00000000000E+00 0.  1.
         12    1    4    4    0    0  0.23278042884E+02 -0.10252545523E+02 -0.80203506751E+01  0.26670357987E+02  0.00000000000E+00 0. -1.
         -5    1    5    5    0  502 -0.31243064493E+02  0.28942424925E+02  0.10700780322E+03  0.11526731102E+03  0.47000000000E+01 0.  1.
         11    1    6    6    0    0  0.38494086434E+02 -0.64701839685E+02  0.27623842505E+02  0.80194759328E+02  0.00000000000E+00 0. -1.
        -12    1    6    6    0    0  0.17158264356E+01  0.22206684429E+02 -0.31447309431E+01  0.22493781949E+02  0.00000000000E+00 0.  1.
<mgrwt>
<rscale>  2 0.17390028E+03</rscale>
<asrwt>0</asrwt>
<pdfrwt beam="1">  1       21 0.32617643E-01 0.17392460E+03</pdfrwt>
<pdfrwt beam="2">  1       21 0.37848820E-01 0.17392460E+03</pdfrwt>
<totfact> 0.61410870E+04</totfact>
</mgrwt>
</event>
<event>
12    1  0.1039378E-001  0.2349341E+03  0.7546771E-02  0.1123288E+00
         21   -1    0    0  503  502  0.00000000000E+00  0.00000000000E+00  0.35668023837E+03  0.35668023837E+03  0.00000000000E+00 0. -1.
         21   -1    0    0  501  503 -0.00000000000E+00 -0.00000000000E+00 -0.17337349316E+03  0.17337349316E+03  0.00000000000E+00 0.  1.
          6    2    1    2  501    0 -0.16387588959E+02 -0.16060963601E+03  0.17925852975E+03  0.29551255141E+03  0.17067524514E+03 0.  0.
         24    2    3    3    0    0  0.14651305022E+02 -0.47709173185E+02  0.10649027594E+02  0.90180669667E+02  0.74352709756E+02 0.  0.
         -6    2    1    2    0  502  0.16387588959E+02  0.16060963601E+03  0.40482154600E+01  0.23454118012E+03  0.17008576917E+03 0.  0.
        -24    2    5    5    0    0  0.38103331143E+02  0.23560868522E+02 -0.20457331147E+02  0.93556961348E+02  0.79545108268E+02 0.  0.
          5    1    3    3  501    0 -0.31038893982E+02 -0.11290046282E+03  0.16860950215E+03  0.20533188174E+03  0.47000000000E+01 0. -1.
        -11    1    4    4    0    0 -0.29297459260E+02 -0.12541132418E+02  0.11518228187E+02  0.33886438320E+02  0.00000000000E+00 0.  1.
         12    1    4    4    0    0  0.43948764283E+02 -0.35168040767E+02 -0.86920059245E+00  0.56294231348E+02  0.00000000000E+00 0. -1.
         -5    1    5    5    0  502 -0.21715742184E+02  0.13704876749E+03  0.24505546607E+02  0.14098421877E+03  0.47000000000E+01 0.  1.
         11    1    6    6    0    0  0.43310186985E+02  0.16210905029E+02  0.21246244889E+02  0.50891734696E+02  0.00000000000E+00 0. -1.
        -12    1    6    6    0    0 -0.52068558418E+01  0.73499634934E+01 -0.41703576036E+02  0.42665226652E+02  0.00000000000E+00 0.  1.
<mgrwt>
<rscale>  2 0.23482709E+03</rscale>
<asrwt>0</asrwt>
<pdfrwt beam="1">  1       21 0.54873883E-01 0.23493413E+03</pdfrwt>
<pdfrwt beam="2">  1       21 0.26672845E-01 0.23493413E+03</pdfrwt>
<totfact> 0.41088448E+04</totfact>
</mgrwt>
</event>
<event>
12    1  0.1039378E-001  0.2009689E+03  0.7546771E-02  0.1148975E+00
         21   -1    0    0  501  502  0.00000000000E+00  0.00000000000E+00  0.48222236719E+02  0.48222236719E+02  0.00000000000E+00 0. -1.
         21   -1    0    0  502  503 -0.00000000000E+00 -0.00000000000E+00 -0.91905521228E+03  0.91905521228E+03  0.00000000000E+00 0. -1.
         -6    2    1    2    0  503 -0.63438815238E+02 -0.80533642078E+02 -0.58009031380E+03  0.61383749449E+03  0.17257330818E+03 0.  0.
        -24    2    3    3    0    0 -0.26465118761E+02 -0.81111544562E+02 -0.55750740538E+03  0.57025463140E+03  0.84239850471E+02 0.  0.
          6    2    1    2  501    0  0.63438815238E+02  0.80533642078E+02 -0.29074266176E+03  0.35343995451E+03  0.17285356603E+03 0.  0.
         24    2    5    5    0    0  0.39529790362E+02 -0.19590873095E+02 -0.91482707910E+02  0.12911167003E+03  0.79714056826E+02 0.  0.
          5    1    5    5  501    0  0.23909024875E+02  0.10012451517E+03 -0.19925995385E+03  0.22432828448E+03  0.47000000000E+01 0. -1.
        -13    1    6    6    0    0  0.14284242575E+01 -0.21423420055E+02 -0.88255810616E+02  0.90830013928E+02  0.00000000000E+00 0.  1.
         14    1    6    6    0    0  0.38101366105E+02  0.18325469598E+01 -0.32268972938E+01  0.38281656098E+02  0.00000000000E+00 0. -1.
         -5    1    3    3    0  503 -0.36973696477E+02  0.57790248346E+00 -0.22582908413E+02  0.43582863087E+02  0.47000000000E+01 0.  1.
         13    1    4    4    0    0 -0.10030264015E+02 -0.10040170113E+02 -0.35020040122E+03  0.35048784890E+03  0.00000000000E+00 0. -1.
        -14    1    4    4    0    0 -0.16434854745E+02 -0.71071374448E+02 -0.20730700416E+03  0.21976678250E+03  0.00000000000E+00 0.  1.
<mgrwt>
<rscale>  2 0.20090864E+03</rscale>
<asrwt>0</asrwt>
<pdfrwt beam="1">  1       21 0.74188059E-02 0.20096892E+03</pdfrwt>
<pdfrwt beam="2">  1       21 0.14139310E+00 0.20096892E+03</pdfrwt>
<totfact> 0.47489119E+04</totfact>
</mgrwt>
</event>
<event>
12    1  0.1039378E-001  0.2430919E+03  0.7546771E-02  0.1119816E+00
         21   -1    0    0  501  502  0.00000000000E+00  0.00000000000E+00  0.42617037436E+03  0.42617037436E+03  0.00000000000E+00 0.  1.
         21   -1    0    0  502  503 -0.00000000000E+00 -0.00000000000E+00 -0.17482348931E+03  0.17482348931E+03  0.00000000000E+00 0.  1.
         -6    2    1    2    0  503 -0.11498836942E+03  0.10089940256E+03 -0.25894617869E+02  0.23227102874E+03  0.17284757742E+03 0.  0.
        -24    2    3    3    0    0 -0.12117445974E+03  0.10216492461E+03 -0.67466018784E+02  0.18996097517E+03  0.80078629386E+02 0.  0.
          6    2    1    2  501    0  0.11498836942E+03 -0.10089940256E+03  0.27724150293E+03  0.36872283493E+03  0.18891972770E+03 0.  0.
         24    2    5    5    0    0  0.15623370906E+03 -0.82650033146E+02  0.19813247057E+03  0.27753869965E+03  0.80816174655E+02 0.  0.
          5    1    5    5  501    0 -0.41245339633E+02 -0.18249369413E+02  0.79109032361E+02  0.91184135278E+02  0.47000000000E+01 0. -1.
        -13    1    6    6    0    0  0.87325471402E+02 -0.24078532722E+02  0.48635059632E+02  0.10281479815E+03  0.00000000000E+00 0.  1.
         14    1    6    6    0    0  0.68908237654E+02 -0.58571500424E+02  0.14949741093E+03  0.17472390150E+03  0.00000000000E+00 0. -1.
         -5    1    3    3    0  503  0.61860903146E+01 -0.12655220476E+01  0.41571400915E+02  0.42310053574E+02  0.47000000000E+01 0.  1.
         11    1    4    4    0    0  0.55551640642E+01  0.30845240795E+02 -0.51937698013E+01  0.31768915188E+02  0.00000000000E+00 0. -1.
        -12    1    4    4    0    0 -0.12672962380E+03  0.71319683812E+02 -0.62272248982E+02  0.15819205998E+03  0.00000000000E+00 0.  1.
<mgrwt>
<rscale>  2 0.23996489E+03</rscale>
<asrwt>0</asrwt>
<pdfrwt beam="1">  1       21 0.65564672E-01 0.24309191E+03</pdfrwt>
<pdfrwt beam="2">  1       21 0.26895922E-01 0.24309191E+03</pdfrwt>
<totfact> 0.27430602E+04</totfact>
</mgrwt>
</event>
<event>
12    1  0.1039378E-001  0.2273510E+03  0.7546771E-02  0.1128569E+00
         21   -1    0    0  503  502  0.00000000000E+00  0.00000000000E+00  0.48858727446E+02  0.48858727446E+02  0.00000000000E+00 0.  1.
         21   -1    0    0  501  503 -0.00000000000E+00 -0.00000000000E+00 -0.10599248042E+04  0.10599248042E+04  0.00000000000E+00 0. -1.
          6    2    1    2  501    0  0.14642643940E+03 -0.90828947074E+01 -0.47412113568E+03  0.52568975276E+03  0.17330800248E+03 0.  0.
         24    2    3    3    0    0  0.11742442414E+03 -0.18241978839E+02 -0.47350707215E+03  0.49490870688E+03  0.81267555638E+02 0.  0.
         -6    2    1    2    0  502 -0.14642643940E+03  0.90828947074E+01 -0.53694494103E+03  0.58309377885E+03  0.17368155947E+03 0.  0.
        -24    2    5    5    0    0 -0.26826049422E+02 -0.13409435714E+02 -0.11091582051E+03  0.13999891345E+03  0.79987040411E+02 0.  0.
          5    1    3    3  501    0  0.29002015257E+02  0.91590841320E+01 -0.61406353535E+00  0.30781045875E+02  0.47000000000E+01 0. -1.
        -13    1    4    4    0    0  0.89686402900E+02  0.20024714337E+02 -0.24741525360E+03  0.26392981598E+03  0.00000000000E+00 0.  1.
         14    1    4    4    0    0  0.27738021238E+02 -0.38266693177E+02 -0.22609181854E+03  0.23097889090E+03  0.00000000000E+00 0. -1.
         -5    1    5    5    0  502 -0.11960038997E+03  0.22492330421E+02 -0.42602912052E+03  0.44309486540E+03  0.47000000000E+01 0.  1.
         13    1    6    6    0    0  0.12132840129E+02 -0.30156691097E+02 -0.83237476932E+02  0.89359439308E+02  0.00000000000E+00 0. -1.
        -14    1    6    6    0    0 -0.38958889552E+02  0.16747255383E+02 -0.27678343575E+02  0.50639474138E+02  0.00000000000E+00 0.  1.
<mgrwt>
<rscale>  2 0.22727967E+03</rscale>
<asrwt>0</asrwt>
<pdfrwt beam="1">  1       21 0.75167277E-02 0.22735102E+03</pdfrwt>
<pdfrwt beam="2">  1       21 0.16306535E+00 0.22735102E+03</pdfrwt>
<totfact> 0.31299686E+04</totfact>
</mgrwt>
</event>
<event>
12    1  0.1039378E-001  0.1838793E+03  0.7546771E-02  0.1164482E+00
         21   -1    0    0  503  502  0.00000000000E+00  0.00000000000E+00  0.32045200709E+02  0.32045200709E+02  0.00000000000E+00 0.  1.
         21   -1    0    0  501  503 -0.00000000000E+00 -0.00000000000E+00 -0.11673727110E+04  0.11673727110E+04  0.00000000000E+00 0.  1.
          6    2    1    2  501    0 -0.29686519967E+01  0.60612905765E+02 -0.37643523722E+03  0.41894522598E+03  0.17357671880E+03 0.  0.
         24    2    3    3    0    0  0.58766449014E+02  0.47673361856E+02 -0.29953993761E+03  0.31937800449E+03  0.80943749395E+02 0.  0.
         -6    2    1    2    0  502  0.29686519967E+01 -0.60612905765E+02 -0.75889227302E+03  0.78047268568E+03  0.17186446347E+03 0.  0.
        -24    2    5    5    0    0  0.62959694815E+02 -0.17186688322E+02 -0.51889853889E+03  0.52926790069E+03  0.81298902900E+02 0.  0.
          5    1    3    3  501    0 -0.61735101011E+02  0.12939543909E+02 -0.76895299612E+02  0.99567221493E+02  0.47000000000E+01 0. -1.
        -13    1    4    4    0    0 -0.17635676395E+02  0.25194309576E+02 -0.71577912328E+02  0.77904864098E+02  0.00000000000E+00 0.  1.
         14    1    4    4    0    0  0.76402125409E+02  0.22479052279E+02 -0.22796202528E+03  0.24147314039E+03  0.00000000000E+00 0. -1.
         -5    1    5    5    0  502 -0.59991042819E+02 -0.43426217443E+02 -0.23999373413E+03  0.25120478499E+03  0.47000000000E+01 0.  1.
         11    1    6    6    0    0 -0.10716760537E+01  0.17947162463E+02 -0.30238138636E+02  0.35179456480E+02  0.00000000000E+00 0. -1.
        -12    1    6    6    0    0  0.64031370869E+02 -0.35133850785E+02 -0.48866040026E+03  0.49408844421E+03  0.00000000000E+00 0.  1.
<mgrwt>
<rscale>  2 0.18347415E+03</rscale>
<asrwt>0</asrwt>
<pdfrwt beam="1">  1       21 0.49300320E-02 0.18387935E+03</pdfrwt>
<pdfrwt beam="2">  1       21 0.17959576E+00 0.18387935E+03</pdfrwt>
<totfact> 0.50718209E+04</totfact>
</mgrwt>
</event>
<event>
12    1  0.1039378E-001  0.1744854E+03  0.7546771E-02  0.1173440E+00
         21   -1    0    0  503  502  0.00000000000E+00  0.00000000000E+00  0.73880337874E+02  0.73880337874E+02  0.00000000000E+00 0. -1.
         21   -1    0    0  501  503 -0.00000000000E+00 -0.00000000000E+00 -0.15708513136E+04  0.15708513136E+04  0.00000000000E+00 0. -1.
          6    2    1    2  501    0 -0.12128847755E+02 -0.17055652859E+02 -0.14557626405E+04  0.14661821201E+04  0.17322568972E+03 0.  0.
         24    2    3    3    0    0  0.49081230135E+02  0.30140583968E+02 -0.81604154706E+03  0.82179145770E+03  0.78102314001E+02 0.  0.
         -6    2    1    2    0  502  0.12128847755E+02  0.17055652859E+02 -0.41208335191E+02  0.17854953134E+03  0.17246392089E+03 0.  0.
        -24    2    5    5    0    0  0.56515008924E+02  0.42955488985E+02  0.67072314557E+01  0.10812990097E+03  0.81289410515E+02 0.  0.
          5    1    3    3  501    0 -0.61210077890E+02 -0.47196236826E+02 -0.63972109343E+03  0.64439066240E+03  0.47000000000E+01 0. -1.
        -13    1    4    4    0    0 -0.17720100955E+02  0.22812126581E+02 -0.19566693971E+03  0.19778762953E+03  0.00000000000E+00 0.  1.
         14    1    4    4    0    0  0.66801331090E+02  0.73284573866E+01 -0.62037460735E+03  0.62400382817E+03  0.00000000000E+00 0. -1.
         -5    1    5    5    0  502 -0.44386161169E+02 -0.25899836127E+02 -0.47915566647E+02  0.70419630372E+02  0.47000000000E+01 0.  1.
         13    1    6    6    0    0  0.21741501348E+02  0.35164544706E+02  0.41320013601E+02  0.58451532137E+02  0.00000000000E+00 0. -1.
        -14    1    6    6    0    0  0.34773507576E+02  0.77909442792E+01 -0.34612782145E+02  0.49678368831E+02  0.00000000000E+00 0.  1.
<mgrwt>
<rscale>  2 0.17429600E+03</rscale>
<asrwt>0</asrwt>
<pdfrwt beam="1">  1       21 0.11366207E-01 0.17448537E+03</pdfrwt>
<pdfrwt beam="2">  1       21 0.24166941E+00 0.17448537E+03</pdfrwt>
<totfact> 0.49083823E+03</totfact>
</mgrwt>
</event>
<event>
12    1  0.1039378E-001  0.2147549E+03  0.7546771E-02  0.1138169E+00
         21   -1    0    0  503  502  0.00000000000E+00  0.00000000000E+00  0.87178562307E+03  0.87178562307E+03  0.00000000000E+00 0. -1.
         21   -1    0    0  501  503 -0.00000000000E+00 -0.00000000000E+00 -0.56672065396E+02  0.56672065396E+02  0.00000000000E+00 0. -1.
          6    2    1    2  501    0  0.12438397128E+03  0.26139355273E+02  0.53204230236E+03  0.57314230856E+03  0.17108026229E+03 0.  0.
         24    2    3    3    0    0  0.62945817935E+02 -0.43360856652E+02  0.20785092915E+03  0.23590787584E+03  0.81290695952E+02 0.  0.
         -6    2    1    2    0  502 -0.12438397128E+03 -0.26139355273E+02  0.28307125531E+03  0.35531537991E+03  0.17310414614E+03 0.  0.
        -24    2    5    5    0    0 -0.13193868448E+03  0.33721506561E+02  0.20904685132E+03  0.25970105642E+03  0.72104758445E+02 0.  0.
          5    1    3    3  501    0  0.61438153350E+02  0.69500211926E+02  0.32419137321E+03  0.33723443272E+03  0.47000000000E+01 0. -1.
        -11    1    4    4    0    0  0.17763542625E+02 -0.11398786189E+02  0.16384945359E+03  0.16520326635E+03  0.00000000000E+00 0.  1.
         12    1    4    4    0    0  0.45182275310E+02 -0.31962070463E+02  0.44001475563E+02  0.70704609483E+02  0.00000000000E+00 0. -1.
         -5    1    5    5    0  502  0.75547131942E+01 -0.59860861834E+02  0.74024403986E+02  0.95614323490E+02  0.47000000000E+01 0.  1.
         11    1    6    6    0    0 -0.52411662094E+02 -0.10227595759E+01  0.29189803299E+02  0.60000608140E+02  0.00000000000E+00 0. -1.
        -12    1    6    6    0    0 -0.79527022385E+02  0.34744266136E+02  0.17985704802E+03  0.19970044828E+03  0.00000000000E+00 0.  1.
<mgrwt>
<rscale>  2 0.21434678E+03</rscale>
<asrwt>0</asrwt>
<pdfrwt beam="1">  1       21 0.13412085E+00 0.21475494E+03</pdfrwt>
<pdfrwt beam="2">  1       21 0.87187800E-02 0.21475494E+03</pdfrwt>
<totfact> 0.40740460E+04</totfact>
</mgrwt>
</event>
<event>
12    1  0.1039378E-001  0.1901984E+03  0.7546771E-02  0.1158486E+00
         21   -1    0    0  501  502  0.00000000000E+00  0.00000000000E+00  0.85130262674E+03  0.85130262674E+03  0.00000000000E+00 0. -1.
         21   -1    0    0  502  503 -0.00000000000E+00 -0.00000000000E+00 -0.57232569285E+02  0.57232569285E+02  0.00000000000E+00 0.  1.
         -6    2    1    2    0  503  0.22454028901E+02 -0.74222697643E+02  0.62981897353E+03  0.65791135881E+03  0.17367275081E+03 0.  0.
        -24    2    3    3    0    0 -0.28452389544E+02 -0.99495846317E+02  0.37398339998E+03  0.39579663932E+03  0.77989962986E+02 0.  0.
          6    2    1    2  501    0 -0.22454028901E+02  0.74222697643E+02  0.16425108392E+03  0.25062383721E+03  0.17268670172E+03 0.  0.
         24    2    5    5    0    0 -0.62930082509E+02  0.38379940819E+02  0.16335243554E+03  0.19634758365E+03  0.80219326004E+02 0.  0.
          5    1    5    5  501    0  0.40476053608E+02  0.35842756823E+02  0.89864838229E+00  0.54276253567E+02  0.47000000000E+01 0. -1.
        -11    1    6    6    0    0 -0.70169011841E+01  0.51045829817E+02  0.73426840066E+02  0.89701808711E+02  0.00000000000E+00 0.  1.
         12    1    6    6    0    0 -0.55913181325E+02 -0.12665888998E+02  0.89925595475E+02  0.10664577494E+03  0.00000000000E+00 0. -1.
         -5    1    3    3    0  503  0.50906418445E+02  0.25273148674E+02  0.25583557355E+03  0.26211471949E+03  0.47000000000E+01 0.  1.
         11    1    4    4    0    0  0.96952415115E+01 -0.57183836030E+02  0.27960101511E+03  0.28555335134E+03  0.00000000000E+00 0. -1.
        -12    1    4    4    0    0 -0.38147631056E+02 -0.42312010287E+02  0.94382384877E+02  0.11024328798E+03  0.00000000000E+00 0.  1.
<mgrwt>
<rscale>  2 0.18997297E+03</rscale>
<asrwt>0</asrwt>
<pdfrwt beam="1">  1       21 0.13096963E+00 0.19019836E+03</pdfrwt>
<pdfrwt beam="2">  1       21 0.88050113E-02 0.19019836E+03</pdfrwt>
<totfact> 0.43119176E+04</totfact>
</mgrwt>
</event>
<event>
12    1  0.1039378E-001  0.1999541E+03  0.7546771E-02  0.1151254E+00
         21   -1    0    0  503  502  0.00000000000E+00  0.00000000000E+00  0.25194327243E+04  0.25194327243E+04  0.00000000000E+00 0.  1.
         21   -1    0    0  501  503 -0.00000000000E+00 -0.00000000000E+00 -0.16339868995E+02  0.16339868995E+02  0.00000000000E+00 0.  1.
          6    2    1    2  501    0  0.82356369743E+02  0.37927457824E+02  0.91572311143E+03  0.93585873844E+03  0.17047491840E+03 0.  0.
         24    2    3    3    0    0  0.84015636253E+02  0.73997353481E+02  0.84670822396E+03  0.85782710875E+03  0.80114271736E+02 0.  0.
         -6    2    1    2    0  502 -0.82356369743E+02 -0.37927457824E+02  0.15873697439E+04  0.15999138548E+04  0.17821496993E+03 0.  0.
        -24    2    5    5    0    0 -0.64143147308E+02  0.27925825487E+02  0.13020026239E+04  0.13064434823E+04  0.81789637375E+02 0.  0.
          5    1    3    3  501    0 -0.16592665094E+01 -0.36069895657E+02  0.69014887475E+02  0.78031629685E+02  0.47000000000E+01 0. -1.
        -11    1    4    4    0    0  0.48083100596E+02  0.46851180733E+02  0.72417834983E+03  0.72728350735E+03  0.00000000000E+00 0.  1.
         12    1    4    4    0    0  0.35932535657E+02  0.27146172748E+02  0.12252987412E+03  0.13054360140E+03  0.00000000000E+00 0. -1.
         -5    1    5    5    0  502 -0.18213222435E+02 -0.65853283311E+02  0.28536711994E+03  0.29347037250E+03  0.47000000000E+01 0.  1.
         13    1    6    6    0    0  0.16551540682E+02  0.18503652354E+02  0.22036769054E+03  0.22176171374E+03  0.00000000000E+00 0. -1.
        -14    1    6    6    0    0 -0.80694687990E+02  0.94221731332E+01  0.10816349334E+04  0.10846817686E+04  0.00000000000E+00 0.  1.
<mgrwt>
<rscale>  2 0.19821487E+03</rscale>
<asrwt>0</asrwt>
<pdfrwt beam="1">  1       21 0.38760473E+00 0.19995409E+03</pdfrwt>
<pdfrwt beam="2">  1       21 0.25138280E-02 0.19995409E+03</pdfrwt>
<totfact> 0.87200962E+03</totfact>
</mgrwt>
</event>
<event>
12    1  0.1039378E-001  0.2661067E+03  0.7546771E-02  0.1103550E+00
         21   -1    0    0  503  502  0.00000000000E+00  0.00000000000E+00  0.67226235373E+03  0.67226235373E+03  0.00000000000E+00 0. -1.
         21   -1    0    0  501  503 -0.00000000000E+00 -0.00000000000E+00 -0.12389879359E+03  0.12389879359E+03  0.00000000000E+00 0. -1.
          6    2    1    2  501    0 -0.19233843039E+03  0.62637864253E+02  0.11991541832E+03  0.29187749070E+03  0.17290225038E+03 0.  0.
         24    2    3    3    0    0 -0.59445616678E+02  0.63063281256E+02  0.12782808492E+02  0.12111400806E+03  0.83632792438E+02 0.  0.
         -6    2    1    2    0  502  0.19233843039E+03 -0.62637864253E+02  0.42844814183E+03  0.50428365662E+03  0.17267490337E+03 0.  0.
        -24    2    5    5    0    0  0.77404042467E+02  0.26808866280E+02  0.23742754188E+03  0.26403047613E+03  0.81425755017E+02 0.  0.
          5    1    3    3  501    0 -0.13289281371E+03 -0.42541700289E+00  0.10713260982E+03  0.17076348264E+03  0.47000000000E+01 0. -1.
        -13    1    4    4    0    0  0.14643940357E+02 -0.61827900686E+01  0.11630180882E+02  0.19696014561E+02  0.00000000000E+00 0.  1.
         14    1    4    4    0    0 -0.74089557036E+02  0.69246071325E+02  0.11526276102E+01  0.10141799350E+03  0.00000000000E+00 0. -1.
         -5    1    5    5    0  502  0.11493438792E+03 -0.89446730534E+02  0.19102059995E+03  0.24025318049E+03  0.47000000000E+01 0.  1.
         13    1    6    6    0    0  0.14195707718E+02 -0.18624379175E+02  0.12568058260E+03  0.12784363285E+03  0.00000000000E+00 0. -1.
        -14    1    6    6    0    0  0.63208334749E+02  0.45433245456E+02  0.11174695929E+03  0.13618684328E+03  0.00000000000E+00 0.  1.
<mgrwt>
<rscale>  2 0.26606975E+03</rscale>
<asrwt>0</asrwt>
<pdfrwt beam="1">  1       21 0.10342498E+00 0.26610667E+03</pdfrwt>
<pdfrwt beam="2">  1       21 0.19061353E-01 0.26610667E+03</pdfrwt>
<totfact> 0.18360528E+04</totfact>
</mgrwt>
</event>
<event>
12    1  0.1039378E-001  0.1965715E+03  0.7546771E-02  0.1152709E+00
         21   -1    0    0  503  502  0.00000000000E+00  0.00000000000E+00  0.14964104432E+04  0.14964104432E+04  0.00000000000E+00 0. -1.
         21   -1    0    0  501  503 -0.00000000000E+00 -0.00000000000E+00 -0.12754571168E+03  0.12754571168E+03  0.00000000000E+00 0. -1.
          6    2    1    2  501    0 -0.85462437416E+02  0.36631024957E+02 -0.40876643430E+02  0.20057599010E+03  0.17295712656E+03 0.  0.
         24    2    3    3    0    0  0.58482968175E+00 -0.30466497575E+02 -0.88574560113E+01  0.86762422943E+02  0.80750938123E+02 0.  0.
         -6    2    1    2    0  502  0.85462437416E+02 -0.36631024957E+02  0.14097413749E+04  0.14233801648E+04  0.17318974874E+03 0.  0.
        -24    2    5    5    0    0  0.12657234869E+03 -0.36732751297E+02  0.11088716228E+04  0.11196784478E+04  0.81937147312E+02 0.  0.
          5    1    3    3  501    0 -0.86047267097E+02  0.67097522532E+02 -0.32019187419E+02  0.11381356715E+03  0.47000000000E+01 0. -1.
        -13    1    4    4    0    0  0.37679898870E+02 -0.22519203126E+02 -0.18474516663E+02  0.47625592429E+02  0.00000000000E+00 0.  1.
         14    1    4    4    0    0 -0.37095069188E+02 -0.79472944490E+01  0.96170606517E+01  0.39136830514E+02  0.00000000000E+00 0. -1.
         -5    1    5    5    0  502 -0.41109911273E+02  0.10172633954E+00  0.30086975210E+03  0.30370171695E+03  0.47000000000E+01 0.  1.
         13    1    6    6    0    0  0.31637812867E+02  0.18328695143E+02  0.47252495061E+03  0.47393746551E+03  0.00000000000E+00 0. -1.
        -14    1    6    6    0    0  0.94934535822E+02 -0.55061446440E+02  0.63634667223E+03  0.64574098230E+03  0.00000000000E+00 0.  1.
<mgrwt>
<rscale>  2 0.19652024E+03</rscale>
<asrwt>0</asrwt>
<pdfrwt beam="1">  1       21 0.23021698E+00 0.19657149E+03</pdfrwt>
<pdfrwt beam="2">  1       21 0.19622418E-01 0.19657149E+03</pdfrwt>
<totfact> 0.20766044E+03</totfact>
</mgrwt>
</event>
<event>
12    1  0.1039378E-001  0.1979610E+03  0.7546771E-02  0.1151626E+00
         21   -1    0    0  501  502  0.00000000000E+00  0.00000000000E+00  0.51521757886E+02  0.51521757886E+02  0.00000000000E+00 0. -1.
         21   -1    0    0  502  503 -0.00000000000E+00 -0.00000000000E+00 -0.89508739088E+03  0.89508739088E+03  0.00000000000E+00 0.  1.
         -6    2    1    2    0  503  0.37796143718E+02 -0.87205017235E+02 -0.60646674389E+03  0.63773303665E+03  0.17282433590E+03 0.  0.
        -24    2    3    3    0    0  0.11509117563E+01 -0.71641416117E+02 -0.58046593287E+03  0.58994987143E+03  0.77242051170E+02 0.  0.
          6    2    1    2  501    0 -0.37796143718E+02  0.87205017235E+02 -0.23709888910E+03  0.30887611211E+03  0.17365283156E+03 0.  0.
         24    2    5    5    0    0 -0.67635824443E+02  0.10442126896E+03 -0.23536204433E+03  0.27406357847E+03  0.65093371205E+02 0.  0.
          5    1    5    5  501    0  0.29839680725E+02 -0.17216251721E+02 -0.17368447754E+01  0.34812533646E+02  0.47000000000E+01 0. -1.
        -11    1    6    6    0    0 -0.70199499540E+02  0.10798830448E+03 -0.19647680034E+03  0.23493100415E+03  0.00000000000E+00 0.  1.
         12    1    6    6    0    0  0.25636750976E+01 -0.35670355289E+01 -0.38885243991E+02  0.39132574317E+02  0.00000000000E+00 0. -1.
         -5    1    3    3    0  503  0.36645231962E+02 -0.15563601118E+02 -0.26000811016E+02  0.47783165224E+02  0.47000000000E+01 0.  1.
         11    1    4    4    0    0  0.20824156533E+02 -0.18671135614E+02 -0.57513781712E+02  0.63953826212E+02  0.00000000000E+00 0. -1.
        -12    1    4    4    0    0 -0.19673244777E+02 -0.52970280503E+02 -0.52295215116E+03  0.52599604522E+03  0.00000000000E+00 0.  1.
<mgrwt>
<rscale>  2 0.19777919E+03</rscale>
<asrwt>0</asrwt>
<pdfrwt beam="1">  1       21 0.79264237E-02 0.19796103E+03</pdfrwt>
<pdfrwt beam="2">  1       21 0.13770576E+00 0.19796103E+03</pdfrwt>
<totfact> 0.45400018E+04</totfact>
</mgrwt>
</event>
<event>
12    1  0.1039378E-001  0.1735254E+03  0.7546771E-02  0.1174774E+00
         21   -1    0    0  501  502  0.00000000000E+00  0.00000000000E+00  0.61834172619E+03  0.61834172619E+03  0.00000000000E+00 0. -1.
         21   -1    0    0  502  503 -0.00000000000E+00 -0.00000000000E+00 -0.48874145842E+02  0.48874145842E+02  0.00000000000E+00 0. -1.
         -6    2    1    2    0  503 -0.29319706715E+01  0.32668672930E+01  0.32521019526E+03  0.36759490037E+03  0.17130403034E+03 0.  0.
        -24    2    3    3    0    0 -0.32962080503E+01 -0.63777449296E+02  0.19296118895E+03  0.21924746115E+03  0.82200977815E+02 0.  0.
          6    2    1    2  501    0  0.29319706715E+01 -0.32668672930E+01  0.24425738509E+03  0.29962097165E+03  0.17346984640E+03 0.  0.
         24    2    5    5    0    0 -0.99448584994E+00  0.24120158318E+02  0.57927885151E+02  0.11118997956E+03  0.91786712753E+02 0.  0.
          5    1    5    5  501    0  0.39264565214E+01 -0.27387025611E+02  0.18632949994E+03  0.18843099209E+03  0.47000000000E+01 0. -1.
        -11    1    6    6    0    0 -0.41472835591E+02  0.77228678278E+01  0.52241846701E+02  0.67147965913E+02  0.00000000000E+00 0.  1.
         12    1    6    6    0    0  0.40478349741E+02  0.16397290490E+02  0.56860384496E+01  0.44042013651E+02  0.00000000000E+00 0. -1.
         -5    1    3    3    0  503  0.36423737876E+00  0.67044316589E+02  0.13224900630E+03  0.14834743922E+03  0.47000000000E+01 0.  1.
         11    1    4    4    0    0 -0.34228662415E+02 -0.55364691817E+02  0.87717529277E+02  0.10923010287E+03  0.00000000000E+00 0. -1.
        -12    1    4    4    0    0  0.30932454365E+02 -0.84127574788E+01  0.10524365968E+03  0.11001735828E+03  0.00000000000E+00 0.  1.
<mgrwt>
<rscale>  2 0.17298155E+03</rscale>
<asrwt>0</asrwt>
<pdfrwt beam="1">  1       21 0.95129491E-01 0.17352538E+03</pdfrwt>
<pdfrwt beam="2">  1       21 0.75190998E-02 0.17352538E+03</pdfrwt>
<totfact> 0.12432224E+05</totfact>
</mgrwt>
</event>
<event>
12    1  0.1039378E-001  0.1768198E+03  0.7546771E-02  0.1171584E+00
         21   -1    0    0  503  502  0.00000000000E+00  0.00000000000E+00  0.23743562490E+03  0.23743562490E+03  0.00000000000E+00 0.  1.
         21   -1    0    0  501  503 -0.00000000000E+00 -0.00000000000E+00 -0.18177882294E+03  0.18177882294E+03  0.00000000000E+00 0.  1.
          6    2    1    2  501    0 -0.30336025593E+02  0.69644001477E+01 -0.84517009642E+02  0.19357328298E+03  0.17134384625E+03 0.  0.
         24    2    3    3    0    0  0.21853210843E+00 -0.23039754834E+02  0.14920563836E+02  0.85204692828E+02  0.80661876966E+02 0.  0.
         -6    2    1    2    0  502  0.30336025593E+02 -0.69644001477E+01  0.14017381160E+03  0.22564116486E+03  0.17405878462E+03 0.  0.
        -24    2    5    5    0    0 -0.10080162867E+01 -0.27951545476E+02  0.57710610073E+01  0.85966190021E+02  0.81083757253E+02 0.  0.
          5    1    3    3  501    0 -0.30554557702E+02  0.30004154982E+02 -0.99437573478E+02  0.10836859015E+03  0.47000000000E+01 0. -1.
        -13    1    4    4    0    0 -0.37494350676E+02 -0.10119930507E+01  0.17632524372E+02  0.41445824618E+02  0.00000000000E+00 0.  1.
         14    1    4    4    0    0  0.37712882784E+02 -0.22027761784E+02 -0.27119605360E+01  0.43758868210E+02  0.00000000000E+00 0. -1.
         -5    1    5    5    0  502  0.31344041880E+02  0.20987145328E+02  0.13440275059E+03  0.13967497484E+03  0.47000000000E+01 0.  1.
         13    1    6    6    0    0  0.28311552655E+02  0.12165290595E+02  0.16758544276E+02  0.35076874365E+02  0.00000000000E+00 0. -1.
        -14    1    6    6    0    0 -0.29319568942E+02 -0.40116836072E+02 -0.10987483269E+02  0.50889315656E+02  0.00000000000E+00 0.  1.
<mgrwt>
<rscale>  2 0.17614800E+03</rscale>
<asrwt>0</asrwt>
<pdfrwt beam="1">  1       21 0.36528558E-01 0.17681979E+03</pdfrwt>
<pdfrwt beam="2">  1       21 0.27965973E-01 0.17681979E+03</pdfrwt>
<totfact> 0.88817390E+04</totfact>
</mgrwt>
</event>
<event>
12    1  0.1039378E-001  0.2869732E+03  0.7546771E-02  0.1092078E+00
         21   -1    0    0  501  502  0.00000000000E+00  0.00000000000E+00  0.48413870194E+03  0.48413870194E+03  0.00000000000E+00 0.  1.
         21   -1    0    0  502  503 -0.00000000000E+00 -0.00000000000E+00 -0.18326537514E+03  0.18326537514E+03  0.00000000000E+00 0.  1.
         -6    2    1    2    0  503 -0.22768104456E+03  0.20954612305E+02  0.58682621353E+02  0.29189114094E+03  0.17169459596E+03 0.  0.
        -24    2    3    3    0    0 -0.60146186669E+02  0.53145167877E+02  0.44456550348E+02  0.12063509996E+03  0.78322856393E+02 0.  0.
          6    2    1    2  501    0  0.22768104456E+03 -0.20954612305E+02  0.24219070545E+03  0.37551293615E+03  0.17342397062E+03 0.  0.
         24    2    5    5    0    0  0.21163346718E+03  0.25713409341E+02  0.23505395571E+03  0.32542848566E+03  0.72134827475E+02 0.  0.
          5    1    5    5  501    0  0.16047577377E+02 -0.46668021646E+02  0.71367497380E+01  0.50084450490E+02  0.47000000000E+01 0. -1.
        -13    1    6    6    0    0  0.18087087742E+03 -0.54361918996E+01  0.19604680618E+03  0.26679238501E+03  0.00000000000E+00 0.  1.
         14    1    6    6    0    0  0.30762589754E+02  0.31149601241E+02  0.39007149528E+02  0.58636100656E+02  0.00000000000E+00 0. -1.
         -5    1    3    3    0  503 -0.16753485789E+03 -0.32190555572E+02  0.14226071006E+02  0.17125604098E+03  0.47000000000E+01 0.  1.
         13    1    4    4    0    0 -0.43959748990E+00  0.38700710955E+02  0.44803025645E+02  0.59205146577E+02  0.00000000000E+00 0. -1.
        -14    1    4    4    0    0 -0.59706589179E+02  0.14444456922E+02 -0.34647529697E+00  0.61429953380E+02  0.00000000000E+00 0.  1.
<mgrwt>
<rscale>  2 0.28671242E+03</rscale>
<asrwt>0</asrwt>
<pdfrwt beam="1">  1       21 0.74482877E-01 0.28697322E+03</pdfrwt>
<pdfrwt beam="2">  1       21 0.28194673E-01 0.28697322E+03</pdfrwt>
<totfact> 0.18484172E+04</totfact>
</mgrwt>
</event>
<event>
12    1  0.1039378E-001  0.1996969E+03  0.7546771E-02  0.1150349E+00
         21   -1    0    0  501  502  0.00000000000E+00  0.00000000000E+00  0.16474209752E+03  0.16474209752E+03  0.00000000000E+00 0. -1.
         21   -1    0    0  502  503 -0.00000000000E+00 -0.00000000000E+00 -0.34373820583E+03  0.34373820583E+03  0.00000000000E+00 0. -1.
         -6    2    1    2    0  503 -0.34379189861E+02  0.92129024841E+02 -0.22886918235E+03  0.30264982320E+03  0.17188986863E+03 0.  0.
        -24    2    3    3    0    0 -0.13137864131E+02 -0.79930683815E+01 -0.15958229502E+03  0.17896316172E+03  0.79528685110E+02 0.  0.
          6    2    1    2  501    0  0.34379189861E+02 -0.92129024841E+02  0.49873074041E+02  0.20583048016E+03  0.17380787420E+03 0.  0.
         24    2    5    5    0    0 -0.20712777043E+02 -0.23240782566E+01 -0.10556769247E+02  0.84282509349E+02  0.80979475997E+02 0.  0.
          5    1    5    5  501    0  0.55091966903E+02 -0.89804946584E+02  0.60429843287E+02  0.12154797081E+03  0.47000000000E+01 0. -1.
        -11    1    6    6    0    0 -0.42976471124E+02 -0.23206195897E+02  0.65701653456E+01  0.49281555079E+02  0.00000000000E+00 0.  1.
         12    1    6    6    0    0  0.22263694081E+02  0.20882117641E+02 -0.17126934592E+02  0.35000954270E+02  0.00000000000E+00 0. -1.
         -5    1    3    3    0  503 -0.21241325730E+02  0.10012209322E+03 -0.69286887334E+02  0.12368666147E+03  0.47000000000E+01 0.  1.
         11    1    4    4    0    0 -0.20524275780E+02  0.33258060758E+02 -0.75380841663E+02  0.84909456431E+02  0.00000000000E+00 0. -1.
        -12    1    4    4    0    0  0.73864116490E+01 -0.41251129140E+02 -0.84201453354E+02  0.94053705293E+02  0.00000000000E+00 0.  1.
<mgrwt>
<rscale>  2 0.19927884E+03</rscale>
<asrwt>0</asrwt>
<pdfrwt beam="1">  1       21 0.25344938E-01 0.19969693E+03</pdfrwt>
<pdfrwt beam="2">  1       21 0.52882801E-01 0.19969693E+03</pdfrwt>
<totfact> 0.49825225E+04</totfact>
</mgrwt>
</event>
<event>
12    1  0.1039378E-001  0.2244459E+03  0.7546771E-02  0.1130656E+00
         21   -1    0    0  503  502  0.00000000000E+00  0.00000000000E+00  0.68828938986E+03  0.68828938986E+03  0.00000000000E+00 0. -1.
         21   -1    0    0  501  503 -0.00000000000E+00 -0.00000000000E+00 -0.73110474425E+02  0.73110474425E+02  0.00000000000E+00 0. -1.
          6    2    1    2  501    0 -0.14345146254E+03  0.59536818489E+01  0.30828420404E+03  0.38133330750E+03  0.17251716585E+03 0.  0.
         24    2    3    3    0    0 -0.78274417950E+02 -0.52961399843E+02  0.22648884740E+03  0.26120169484E+03  0.89427808942E+02 0.  0.
         -6    2    1    2    0  502  0.14345146254E+03 -0.59536818489E+01  0.30689471140E+03  0.38006655679E+03  0.17219888291E+03 0.  0.
        -24    2    5    5    0    0  0.43276841795E+02  0.24462339472E+02  0.23420366719E+03  0.25252767291E+03  0.80296804245E+02 0.  0.
          5    1    3    3  501    0 -0.65177044585E+02  0.58915081692E+02  0.81795356645E+02  0.12013161266E+03  0.47000000000E+01 0. -1.
        -13    1    4    4    0    0 -0.11886797425E+02 -0.42134808918E+02  0.28851488402E+02  0.52431349960E+02  0.00000000000E+00 0.  1.
         14    1    4    4    0    0 -0.66387620525E+02 -0.10826590925E+02  0.19763735900E+03  0.20877034488E+03  0.00000000000E+00 0. -1.
         -5    1    5    5    0  502  0.10017462074E+03 -0.30416021321E+02  0.72691044203E+02  0.12753888388E+03  0.47000000000E+01 0.  1.
         13    1    6    6    0    0  0.14900758345E+02  0.19697800867E+02  0.10263370588E+02  0.26746452738E+02  0.00000000000E+00 0. -1.
        -14    1    6    6    0    0  0.28376083450E+02  0.47645386045E+01  0.22394029661E+03  0.22578122018E+03  0.00000000000E+00 0.  1.
<mgrwt>
<rscale>  2 0.22438469E+03</rscale>
<asrwt>0</asrwt>
<pdfrwt beam="1">  1       21 0.10589067E+00 0.22444585E+03</pdfrwt>
<pdfrwt beam="2">  1       21 0.11247766E-01 0.22444585E+03</pdfrwt>
<totfact> 0.46404005E+04</totfact>
</mgrwt>
</event>
<event>
12    1  0.1039378E-001  0.1971965E+03  0.7546771E-02  0.1152324E+00
         21   -1    0    0  503  502  0.00000000000E+00  0.00000000000E+00  0.62401559783E+03  0.62401559783E+03  0.00000000000E+00 0.  1.
         21   -1    0    0  501  503 -0.00000000000E+00 -0.00000000000E+00 -0.20224870445E+03  0.20224870445E+03  0.00000000000E+00 0.  1.
          6    2    1    2  501    0 -0.91076365530E+02 -0.20992261637E+02 -0.13326377947E+03  0.23724349419E+03  0.17259681691E+03 0.  0.
         24    2    3    3    0    0 -0.12582375196E+03 -0.15693508455E+02 -0.13453893358E+03  0.20175865705E+03  0.80795595672E+02 0.  0.
         -6    2    1    2    0  502  0.91076365530E+02  0.20992261637E+02  0.55503067285E+03  0.58902080809E+03  0.17364010239E+03 0.  0.
        -24    2    5    5    0    0  0.81009256457E+02 -0.86897326374E+01  0.17285117339E+03  0.20552944277E+03  0.75675706928E+02 0.  0.
          5    1    3    3  501    0  0.34747386431E+02 -0.52987531821E+01  0.12751541021E+01  0.35484837142E+02  0.47000000000E+01 0. -1.
        -13    1    4    4    0    0 -0.17112290707E+02  0.13954974553E+02 -0.66634831395E+02  0.70198095152E+02  0.00000000000E+00 0.  1.
         14    1    4    4    0    0 -0.10871146125E+03 -0.29648483007E+02 -0.67904102181E+02  0.13156056189E+03  0.00000000000E+00 0. -1.
         -5    1    5    5    0  502  0.10067109073E+02  0.29681994274E+02  0.38217949946E+03  0.38349136532E+03  0.47000000000E+01 0.  1.
         11    1    6    6    0    0 -0.12131666530E+02 -0.10945973773E+02  0.14719730040E+02  0.21992319729E+02  0.00000000000E+00 0. -1.
        -12    1    6    6    0    0  0.93140922987E+02  0.22562411354E+01  0.15813144335E+03  0.18353712305E+03  0.00000000000E+00 0.  1.
<mgrwt>
<rscale>  2 0.19696660E+03</rscale>
<asrwt>0</asrwt>
<pdfrwt beam="1">  1       21 0.96002399E-01 0.19719651E+03</pdfrwt>
<pdfrwt beam="2">  1       21 0.31115186E-01 0.19719651E+03</pdfrwt>
<totfact> 0.89396424E+03</totfact>
</mgrwt>
</event>
<event>
12    1  0.1039378E-001  0.1984848E+03  0.7546771E-02  0.1151332E+00
         21   -1    0    0  503  502  0.00000000000E+00  0.00000000000E+00  0.73425162314E+03  0.73425162314E+03  0.00000000000E+00 0.  1.
         21   -1    0    0  501  503 -0.00000000000E+00 -0.00000000000E+00 -0.55421872130E+02  0.55421872130E+02  0.00000000000E+00 0.  1.
          6    2    1    2  501    0  0.91527973622E+02 -0.26079011684E+02  0.41610078113E+03  0.46039744953E+03  0.17253540700E+03 0.  0.
         24    2    3    3    0    0  0.79872851380E+02 -0.74869894486E+02  0.22952673389E+03  0.26714021881E+03  0.81830321090E+02 0.  0.
         -6    2    1    2    0  502 -0.91527973622E+02  0.26079011684E+02  0.26272896988E+03  0.32927604574E+03  0.17418013056E+03 0.  0.
        -24    2    5    5    0    0  0.66770579300E+01  0.38828422568E+02  0.18681062170E+03  0.20440626842E+03  0.73017016402E+02 0.  0.
          5    1    3    3  501    0  0.11655122241E+02  0.48790882802E+02  0.18657404725E+03  0.19325723072E+03  0.47000000000E+01 0. -1.
        -13    1    4    4    0    0  0.44259305784E+02 -0.11218471727E+02  0.29827574267E+02  0.54538284196E+02  0.00000000000E+00 0.  1.
         14    1    4    4    0    0  0.35613545596E+02 -0.63651422759E+02  0.19969915962E+03  0.21260193462E+03  0.00000000000E+00 0. -1.
         -5    1    5    5    0  502 -0.98205031552E+02 -0.12749410884E+02  0.75918348171E+02  0.12486977732E+03  0.47000000000E+01 0.  1.
         11    1    6    6    0    0 -0.10629061574E+02  0.40428651510E+01 -0.20805310310E+01  0.11560723072E+02  0.00000000000E+00 0. -1.
        -12    1    6    6    0    0  0.17306119504E+02  0.34785557417E+02  0.18889115274E+03  0.19284554534E+03  0.00000000000E+00 0.  1.
<mgrwt>
<rscale>  2 0.19812334E+03</rscale>
<asrwt>0</asrwt>
<pdfrwt beam="1">  1       21 0.11296178E+00 0.19848477E+03</pdfrwt>
<pdfrwt beam="2">  1       21 0.85264424E-02 0.19848477E+03</pdfrwt>
<totfact> 0.65563536E+04</totfact>
</mgrwt>
</event>
<event>
12    1  0.1039378E-001  0.1795386E+03  0.7546771E-02  0.1168361E+00
         21   -1    0    0  503  502  0.00000000000E+00  0.00000000000E+00  0.30547818449E+03  0.30547818449E+03  0.00000000000E+00 0.  1.
         21   -1    0    0  501  503 -0.00000000000E+00 -0.00000000000E+00 -0.17698855687E+03  0.17698855687E+03  0.00000000000E+00 0.  1.
          6    2    1    2  501    0  0.32724842310E+02  0.32876319296E+02 -0.89286414373E+02  0.20051474571E+03  0.17344258929E+03 0.  0.
         24    2    3    3    0    0 -0.11671716910E+02 -0.18514908060E+02  0.64456609752E+01  0.83046311776E+02  0.79850563918E+02 0.  0.
         -6    2    1    2    0  502 -0.32724842310E+02 -0.32876319296E+02  0.21777604199E+03  0.28195199566E+03  0.17297038971E+03 0.  0.
        -24    2    5    5    0    0 -0.54157905956E+02 -0.25486776287E+02  0.48592808050E+02  0.11119181819E+03  0.80123060946E+02 0.  0.
          5    1    3    3  501    0  0.44396559220E+02  0.51391227356E+02 -0.95732075348E+02  0.11746843393E+03  0.47000000000E+01 0. -1.
        -13    1    4    4    0    0  0.90508738779E+01 -0.45471914357E+01 -0.34014499078E+02  0.35490582067E+02  0.00000000000E+00 0.  1.
         14    1    4    4    0    0 -0.20722590788E+02 -0.13967716624E+02  0.40460160053E+02  0.47555729709E+02  0.00000000000E+00 0. -1.
         -5    1    5    5    0  502  0.21433063646E+02 -0.73895430099E+01  0.16918323394E+03  0.17076017747E+03  0.47000000000E+01 0.  1.
         11    1    6    6    0    0 -0.72692199170E+01 -0.27240589025E+02 -0.15177404182E+02  0.32019444816E+02  0.00000000000E+00 0. -1.
        -12    1    6    6    0    0 -0.46888686039E+02  0.17538127382E+01  0.63770212233E+02  0.79172373374E+02  0.00000000000E+00 0.  1.
<mgrwt>
<rscale>  2 0.17942443E+03</rscale>
<asrwt>0</asrwt>
<pdfrwt beam="1">  1       21 0.46996644E-01 0.17953857E+03</pdfrwt>
<pdfrwt beam="2">  1       21 0.27229009E-01 0.17953857E+03</pdfrwt>
<totfact> 0.56052852E+04</totfact>
</mgrwt>
</event>
<event>
12    1  0.1039378E-001  0.1781104E+03  0.7546771E-02  0.1170545E+00
         21   -1    0    0  503  502  0.00000000000E+00  0.00000000000E+00  0.42298008658E+03  0.42298008658E+03  0.00000000000E+00 0.  1.
         21   -1    0    0  501  503 -0.00000000000E+00 -0.00000000000E+00 -0.20706402830E+03  0.20706402830E+03  0.00000000000E+00 0.  1.
          6    2    1    2  501    0 -0.29311541037E+02  0.49693493809E+01 -0.14467108745E+03  0.22946249797E+03  0.17561165553E+03 0.  0.
         24    2    3    3    0    0 -0.75850913045E+02  0.21694846571E+02 -0.13855712166E+03  0.17941126441E+03  0.82257513071E+02 0.  0.
         -6    2    1    2    0  502  0.29311541037E+02 -0.49693493809E+01  0.36058714573E+03  0.40058161692E+03  0.17192638330E+03 0.  0.
        -24    2    5    5    0    0  0.53781297764E+02 -0.56996078873E+02  0.27757231973E+03  0.29949204816E+03  0.80672877934E+02 0.  0.
          5    1    3    3  501    0  0.46539372008E+02 -0.16725497190E+02 -0.61139657914E+01  0.50051233560E+02  0.47000000000E+01 0. -1.
        -13    1    4    4    0    0 -0.61954608553E+02 -0.13336707017E+02 -0.12353199568E+03  0.13883945848E+03  0.00000000000E+00 0.  1.
         14    1    4    4    0    0 -0.13896304492E+02  0.35031553588E+02 -0.15025125978E+02  0.40571805924E+02  0.00000000000E+00 0. -1.
         -5    1    5    5    0  502 -0.24469756727E+02  0.52026729492E+02  0.83014825999E+02  0.10108956876E+03  0.47000000000E+01 0.  1.
         13    1    6    6    0    0  0.36711660912E+02 -0.59443302139E+02  0.10536828196E+03  0.12642676560E+03  0.00000000000E+00 0. -1.
        -14    1    6    6    0    0  0.17069636852E+02  0.24472232660E+01  0.17220403777E+03  0.17306528256E+03  0.00000000000E+00 0.  1.
<mgrwt>
<rscale>  2 0.17719525E+03</rscale>
<asrwt>0</asrwt>
<pdfrwt beam="1">  1       21 0.65073860E-01 0.17811040E+03</pdfrwt>
<pdfrwt beam="2">  1       21 0.31856004E-01 0.17811040E+03</pdfrwt>
<totfact> 0.20780946E+04</totfact>
</mgrwt>
</event>
<event>
12    1  0.1039378E-001  0.1868172E+03  0.7546771E-02  0.1161637E+00
         21   -1    0    0  503  502  0.00000000000E+00  0.00000000000E+00  0.62034034230E+03  0.62034034230E+03  0.00000000000E+00 0.  1.
         21   -1    0    0  501  503 -0.00000000000E+00 -0.00000000000E+00 -0.75172356680E+02  0.75172356680E+02  0.00000000000E+00 0.  1.
          6    2    1    2  501    0 -0.62942027513E+01 -0.66394294064E+02  0.97169766498E+02  0.21057687935E+03  0.17450741910E+03 0.  0.
         24    2    3    3    0    0 -0.22095791131E+02 -0.10910013858E+03  0.51602131873E+02  0.14598602336E+03  0.79107994415E+02 0.  0.
         -6    2    1    2    0  502  0.62942027513E+01  0.66394294064E+02  0.44799821912E+03  0.48493581964E+03  0.17324123515E+03 0.  0.
        -24    2    5    5    0    0  0.32721867258E+02  0.10216352528E+03  0.38237259524E+03  0.40552126264E+03  0.82040150945E+02 0.  0.
          5    1    3    3  501    0  0.15801588380E+02  0.42705844515E+02  0.45567634625E+02  0.64590855981E+02  0.47000000000E+01 0. -1.
        -13    1    4    4    0    0  0.17404210725E+02 -0.90590354082E+02  0.41804203710E+02  0.10127739260E+03  0.00000000000E+00 0.  1.
         14    1    4    4    0    0 -0.39500001856E+02 -0.18509784497E+02  0.97979281630E+01  0.44708630767E+02  0.00000000000E+00 0. -1.
         -5    1    5    5    0  502 -0.26427664507E+02 -0.35769231213E+02  0.65625623883E+02  0.79414556996E+02  0.47000000000E+01 0.  1.
         13    1    6    6    0    0  0.51124564689E+02  0.47502383592E+02  0.27410636549E+03  0.28285066230E+03  0.00000000000E+00 0. -1.
        -14    1    6    6    0    0 -0.18402697431E+02  0.54661141685E+02  0.10826622975E+03  0.12267060034E+03  0.00000000000E+00 0.  1.
<mgrwt>
<rscale>  2 0.18652093E+03</rscale>
<asrwt>0</asrwt>
<pdfrwt beam="1">  1       21 0.95436972E-01 0.18681718E+03</pdfrwt>
<pdfrwt beam="2">  1       21 0.11564978E-01 0.18681718E+03</pdfrwt>
<totfact> 0.57605600E+04</totfact>
</mgrwt>
</event>
<event>
12    1  0.1039378E-001  0.1941475E+03  0.7546771E-02  0.1156048E+00
         21   -1    0    0  501  502  0.00000000000E+00  0.00000000000E+00  0.42452383647E+03  0.42452383647E+03  0.00000000000E+00 0. -1.
         21   -1    0    0  502  503 -0.00000000000E+00 -0.00000000000E+00 -0.11817311645E+03  0.11817311645E+03  0.00000000000E+00 0. -1.
         -6    2    1    2    0  503 -0.69126079848E+02  0.24596558697E+02  0.13696262966E+02  0.19463000208E+03  0.17974939354E+03 0.  0.
        -24    2    3    3    0    0 -0.11380226225E+03 -0.50519866866E+01  0.15145170045E+02  0.14078590446E+03  0.81331526828E+02 0.  0.
          6    2    1    2  501    0  0.69126079848E+02 -0.24596558697E+02  0.29265445705E+03  0.34806695084E+03  0.17355277417E+03 0.  0.
         24    2    5    5    0    0  0.29399555862E+02  0.22415649414E+02  0.59395295734E+02  0.10677818036E+03  0.80665875207E+02 0.  0.
          5    1    5    5  501    0  0.39726523986E+02 -0.47012208111E+02  0.23325916132E+03  0.24128877048E+03  0.47000000000E+01 0. -1.
        -13    1    6    6    0    0  0.31061145417E+02  0.22230643215E+02  0.78658637951E+02  0.87442424353E+02  0.00000000000E+00 0.  1.
         14    1    6    6    0    0 -0.16615895557E+01  0.18500619946E+00 -0.19263342217E+02  0.19335756011E+02  0.00000000000E+00 0. -1.
         -5    1    3    3    0  503  0.44676182401E+02  0.29648545383E+02 -0.14489070792E+01  0.53844097625E+02  0.47000000000E+01 0.  1.
         11    1    4    4    0    0 -0.12037016833E+02  0.30008962939E+02  0.35917756925E+01  0.32531960954E+02  0.00000000000E+00 0. -1.
        -12    1    4    4    0    0 -0.10176524542E+03 -0.35060949626E+02  0.11553394353E+02  0.10825394350E+03  0.00000000000E+00 0.  1.
<mgrwt>
<rscale>  2 0.19270077E+03</rscale>
<asrwt>0</asrwt>
<pdfrwt beam="1">  1       21 0.65311359E-01 0.19414750E+03</pdfrwt>
<pdfrwt beam="2">  1       21 0.18180480E-01 0.19414750E+03</pdfrwt>
<totfact> 0.59411662E+04</totfact>
</mgrwt>
</event>
<event>
12    1  0.1039378E-001  0.1771292E+03  0.7546771E-02  0.1170848E+00
         21   -1    0    0  501  502  0.00000000000E+00  0.00000000000E+00  0.67526650679E+02  0.67526650679E+02  0.00000000000E+00 0.  1.
         21   -1    0    0  502  503 -0.00000000000E+00 -0.00000000000E+00 -0.11638267859E+04  0.11638267859E+04  0.00000000000E+00 0.  1.
         -6    2    1    2    0  503  0.27769603139E+02  0.24802980359E+02 -0.10256246231E+04  0.10406448004E+04  0.17218999552E+03 0.  0.
        -24    2    3    3    0    0  0.73989917068E+02  0.52880113405E+02 -0.63549367013E+03  0.64675535751E+03  0.78545995856E+02 0.  0.
          6    2    1    2  501    0 -0.27769603139E+02 -0.24802980359E+02 -0.70675512203E+02  0.19070863618E+03  0.17317164085E+03 0.  0.
         24    2    5    5    0    0 -0.55885892860E+02  0.14127234251E+02 -0.93983599619E+02  0.13712277707E+03  0.81528689595E+02 0.  0.
          5    1    5    5  501    0  0.28116289721E+02 -0.38930214610E+02  0.23308087416E+02  0.53585859107E+02  0.47000000000E+01 0. -1.
        -13    1    6    6    0    0  0.24879416796E+01  0.32830727897E+02 -0.12636271010E+02  0.35266441458E+02  0.00000000000E+00 0.  1.
         14    1    6    6    0    0 -0.58373834540E+02 -0.18703493646E+02 -0.81347328610E+02  0.10185633562E+03  0.00000000000E+00 0. -1.
         -5    1    3    3    0  503 -0.46220313929E+02 -0.28077133046E+02 -0.39013095292E+03  0.39388944293E+03  0.47000000000E+01 0.  1.
         11    1    4    4    0    0  0.31997716104E+02 -0.76786238840E+01 -0.36248431814E+03  0.36397485628E+03  0.00000000000E+00 0. -1.
        -12    1    4    4    0    0  0.41992200964E+02  0.60558737289E+02 -0.27300935199E+03  0.28278050123E+03  0.00000000000E+00 0.  1.
<mgrwt>
<rscale>  2 0.17688882E+03</rscale>
<asrwt>0</asrwt>
<pdfrwt beam="1">  1       21 0.10388716E-01 0.17712921E+03</pdfrwt>
<pdfrwt beam="2">  1       21 0.17905027E+00 0.17712921E+03</pdfrwt>
<totfact> 0.14179420E+04</totfact>
</mgrwt>
</event>
<event>
12    1  0.1039378E-001  0.2311007E+03  0.7546771E-02  0.1126055E+00
         21   -1    0    0  501  502  0.00000000000E+00  0.00000000000E+00  0.52827232987E+03  0.52827232987E+03  0.00000000000E+00 0. -1.
         21   -1    0    0  502  503 -0.00000000000E+00 -0.00000000000E+00 -0.12095354006E+03  0.12095354006E+03  0.00000000000E+00 0.  1.
         -6    2    1    2    0  503 -0.91050557928E+02  0.12374026261E+03  0.33632334889E+03  0.40746586963E+03  0.17121093194E+03 0.  0.
        -24    2    3    3    0    0 -0.32011742500E+02  0.13684139174E+03  0.22090445098E+03  0.27707862598E+03  0.90683352173E+02 0.  0.
          6    2    1    2  501    0  0.91050557928E+02 -0.12374026261E+03  0.70995440928E+02  0.24176000030E+03  0.17264324030E+03 0.  0.
         24    2    5    5    0    0  0.12956638684E+03 -0.10159852824E+03  0.37467184973E+02  0.18590340333E+03  0.77759731733E+02 0.  0.
          5    1    5    5  501    0 -0.38515828912E+02 -0.22141734370E+02  0.33528255955E+02  0.55856596970E+02  0.47000000000E+01 0. -1.
        -11    1    6    6    0    0  0.29195906181E+01 -0.10047627339E+02 -0.17379382909E+02  0.20285999478E+02  0.00000000000E+00 0.  1.
         12    1    6    6    0    0  0.12664679622E+03 -0.91550900904E+02  0.54846567882E+02  0.16561740385E+03  0.00000000000E+00 0. -1.
         -5    1    3    3    0  503 -0.59038815428E+02 -0.13101129129E+02  0.11541889791E+03  0.13038724365E+03  0.47000000000E+01 0.  1.
         13    1    4    4    0    0 -0.41733974547E+02  0.67135560331E+02  0.17771396030E+03  0.19450233874E+03  0.00000000000E+00 0. -1.
        -14    1    4    4    0    0  0.97222320469E+01  0.69705831411E+02  0.43190490686E+02  0.82576287240E+02  0.00000000000E+00 0.  1.
<mgrwt>
<rscale>  2 0.23083325E+03</rscale>
<asrwt>0</asrwt>
<pdfrwt beam="1">  1       21 0.81272665E-01 0.23110073E+03</pdfrwt>
<pdfrwt beam="2">  1       21 0.18608237E-01 0.23110073E+03</pdfrwt>
<totfact> 0.34346096E+04</totfact>
</mgrwt>
</event>
<event>
12    1  0.1039378E-001  0.2345127E+03  0.7546771E-02  0.1124479E+00
         21   -1    0    0  501  502  0.00000000000E+00  0.00000000000E+00  0.10229328248E+03  0.10229328248E+03  0.00000000000E+00 0. -1.
         21   -1    0    0  502  503 -0.00000000000E+00 -0.00000000000E+00 -0.74837310354E+03  0.74837310354E+03  0.00000000000E+00 0. -1.
         -6    2    1    2    0  503  0.14922266131E+03 -0.36397301897E+02 -0.87853670144E+02  0.24518092147E+03  0.16971520456E+03 0.  0.
        -24    2    3    3    0    0  0.70307715160E+02 -0.16945561688E+01 -0.11273513369E+03  0.15533089912E+03  0.80451423374E+02 0.  0.
          6    2    1    2  501    0 -0.14922266131E+03  0.36397301897E+02 -0.55822615092E+03  0.60548546456E+03  0.17721186753E+03 0.  0.
         24    2    5    5    0    0 -0.55060415538E+02  0.23647182081E+02 -0.10728299177E+03  0.14461572498E+03  0.76244534283E+02 0.  0.
          5    1    5    5  501    0 -0.94162245770E+02  0.12750119817E+02 -0.45094315914E+03  0.46086973958E+03  0.47000000000E+01 0. -1.
        -13    1    6    6    0    0 -0.69384407981E+02  0.18029115692E+00 -0.79703850068E+02  0.10567370672E+03  0.00000000000E+00 0.  1.
         14    1    6    6    0    0  0.14323992443E+02  0.23466890924E+02 -0.27579141705E+02  0.38942018262E+02  0.00000000000E+00 0. -1.
         -5    1    3    3    0  503  0.78914946147E+02 -0.34702745729E+02  0.24881463546E+02  0.89850022341E+02  0.47000000000E+01 0.  1.
         13    1    4    4    0    0  0.43814247725E+02 -0.38193400075E+02 -0.43075908156E+02  0.72346098557E+02  0.00000000000E+00 0. -1.
        -14    1    4    4    0    0  0.26493467435E+02  0.36498843906E+02 -0.69659225534E+02  0.82984800567E+02  0.00000000000E+00 0.  1.
<mgrwt>
<rscale>  2 0.23309688E+03</rscale>
<asrwt>0</asrwt>
<pdfrwt beam="1">  1       21 0.15737428E-01 0.23451271E+03</pdfrwt>
<pdfrwt beam="2">  1       21 0.11513432E+00 0.23451271E+03</pdfrwt>
<totfact> 0.20494638E+04</totfact>
</mgrwt>
</event>
<event>
12    1  0.1039378E-001  0.2074438E+03  0.7546771E-02  0.1143741E+00
         21   -1    0    0  501  502  0.00000000000E+00  0.00000000000E+00  0.40191750525E+02  0.40191750525E+02  0.00000000000E+00 0.  1.
         21   -1    0    0  502  503 -0.00000000000E+00 -0.00000000000E+00 -0.15103248367E+04  0.15103248367E+04  0.00000000000E+00 0. -1.
         -6    2    1    2    0  503 -0.11395290869E+03 -0.85136968076E+00 -0.11558040681E+04  0.11742725299E+04  0.17334053331E+03 0.  0.
        -24    2    3    3    0    0 -0.13195572890E+03 -0.42216182051E+02 -0.83626111278E+03  0.85152659343E+03  0.81057819755E+02 0.  0.
          6    2    1    2  501    0  0.11395290869E+03  0.85136968076E+00 -0.31432901809E+03  0.37624405731E+03  0.17254236818E+03 0.  0.
         24    2    5    5    0    0  0.81651065949E+02  0.25588974425E+02 -0.91710534737E+02  0.14988938591E+03  0.82062863975E+02 0.  0.
          5    1    5    5  501    0  0.32301842738E+02 -0.24737604745E+02 -0.22261848336E+03  0.22635467140E+03  0.47000000000E+01 0. -1.
        -11    1    6    6    0    0  0.25987965448E+01  0.19228836038E+02  0.92570433188E+01  0.21498714610E+02  0.00000000000E+00 0.  1.
         12    1    6    6    0    0  0.79052269405E+02  0.63601383870E+01 -0.10096757806E+03  0.12839067130E+03  0.00000000000E+00 0. -1.
         -5    1    3    3    0  503  0.18002820215E+02  0.41364812370E+02 -0.31954295532E+03  0.32274593651E+03  0.47000000000E+01 0.  1.
         13    1    4    4    0    0 -0.27471963246E+01 -0.45659173813E+01 -0.24838938407E+03  0.24844653511E+03  0.00000000000E+00 0. -1.
        -14    1    4    4    0    0 -0.12920853258E+03 -0.37650264670E+02 -0.58787172871E+03  0.60308005832E+03  0.00000000000E+00 0.  1.
<mgrwt>
<rscale>  2 0.20727698E+03</rscale>
<asrwt>0</asrwt>
<pdfrwt beam="1">  1       21 0.61833453E-02 0.20744380E+03</pdfrwt>
<pdfrwt beam="2">  1       21 0.23235770E+00 0.20744380E+03</pdfrwt>
<totfact> 0.15653782E+04</totfact>
</mgrwt>
</event>
<event>
12    1  0.1039378E-001  0.1896419E+03  0.7546771E-02  0.1158913E+00
         21   -1    0    0  503  502  0.00000000000E+00  0.00000000000E+00  0.21834227338E+03  0.21834227338E+03  0.00000000000E+00 0.  1.
         21   -1    0    0  501  503 -0.00000000000E+00 -0.00000000000E+00 -0.54513888586E+03  0.54513888586E+03  0.00000000000E+00 0.  1.
          6    2    1    2  501    0 -0.33759653612E+02 -0.71077588119E+02 -0.48242642988E+03  0.51815548323E+03  0.17192471263E+03 0.  0.
         24    2    3    3    0    0 -0.79830012829E+02 -0.84880202652E+02 -0.36918768716E+03  0.39503727573E+03  0.78596571894E+02 0.  0.
         -6    2    1    2    0  502  0.33759653612E+02  0.71077588119E+02  0.15562981739E+03  0.24532567601E+03  0.17254654301E+03 0.  0.
        -24    2    5    5    0    0 -0.37948520930E+02  0.12231088854E+02  0.11839902902E+03  0.14525972588E+03  0.74110512864E+02 0.  0.
          5    1    3    3  501    0  0.46070359217E+02  0.13802614533E+02 -0.11323874271E+03  0.12311820750E+03  0.47000000000E+01 0. -1.
        -13    1    4    4    0    0 -0.60616284765E+02 -0.83211739170E+02 -0.35849760430E+03  0.37298667510E+03  0.00000000000E+00 0.  1.
         14    1    4    4    0    0 -0.19213728063E+02 -0.16684634820E+01 -0.10690082863E+02  0.22050600629E+02  0.00000000000E+00 0. -1.
         -5    1    5    5    0  502  0.71708174542E+02  0.58846499265E+02  0.37230788380E+02  0.10006595013E+03  0.47000000000E+01 0.  1.
         11    1    6    6    0    0 -0.34311526576E+02 -0.14997528301E+02  0.18719841168E+02  0.41864533491E+02  0.00000000000E+00 0. -1.
        -12    1    6    6    0    0 -0.36369943536E+01  0.27228617154E+02  0.99679187847E+02  0.10339519239E+03  0.00000000000E+00 0.  1.
<mgrwt>
<rscale>  2 0.18950033E+03</rscale>
<asrwt>0</asrwt>
<pdfrwt beam="1">  1       21 0.33591119E-01 0.18964189E+03</pdfrwt>
<pdfrwt beam="2">  1       21 0.83867521E-01 0.18964189E+03</pdfrwt>
<totfact> 0.10568962E+04</totfact>
</mgrwt>
</event>
<event>
12    1  0.1039378E-001  0.3050920E+03  0.7546771E-02  0.1082749E+00
         21   -1    0    0  503  502  0.00000000000E+00  0.00000000000E+00  0.13001064049E+03  0.13001064049E+03  0.00000000000E+00 0. -1.
         21   -1    0    0  501  503 -0.00000000000E+00 -0.00000000000E+00 -0.89342594909E+03  0.89342594909E+03  0.00000000000E+00 0. -1.
          6    2    1    2  501    0 -0.14880382156E+03  0.20139029025E+03 -0.60999291255E+03  0.68194056242E+03  0.17392800521E+03 0.  0.
         24    2    3    3    0    0 -0.19768445031E+02  0.94175559906E+02 -0.17109527307E+03  0.21204870812E+03  0.80194978928E+02 0.  0.
         -6    2    1    2    0  502  0.14880382156E+03 -0.20139029025E+03 -0.15342239605E+03  0.34149602715E+03  0.17429996740E+03 0.  0.
        -24    2    5    5    0    0  0.10443334812E+03 -0.19314455481E+03 -0.65996824154E+02  0.24299703382E+03  0.80503629720E+02 0.  0.
          5    1    3    3  501    0 -0.12903537653E+03  0.10721473035E+03 -0.43889763948E+03  0.46989185430E+03  0.47000000000E+01 0. -1.
        -13    1    4    4    0    0  0.58795731405E+01 -0.11581923301E+02 -0.37820434604E+02  0.39988693418E+02  0.00000000000E+00 0.  1.
         14    1    4    4    0    0 -0.25648018171E+02  0.10575748321E+03 -0.13327483846E+03  0.17206001470E+03  0.00000000000E+00 0. -1.
         -5    1    5    5    0  502  0.44370473436E+02 -0.82457354474E+01 -0.87425571893E+02  0.98498993329E+02  0.47000000000E+01 0.  1.
         11    1    6    6    0    0  0.95202049726E+02 -0.92844619395E+02 -0.33098968943E+02  0.13703683945E+03  0.00000000000E+00 0. -1.
        -12    1    6    6    0    0  0.92312983963E+01 -0.10029993541E+03 -0.32897855211E+02  0.10596019437E+03  0.00000000000E+00 0.  1.
<mgrwt>
<rscale>  2 0.30503886E+03</rscale>
<asrwt>0</asrwt>
<pdfrwt beam="1">  1       21 0.20001637E-01 0.30509196E+03</pdfrwt>
<pdfrwt beam="2">  1       21 0.13745014E+00 0.30509196E+03</pdfrwt>
<totfact> 0.80778025E+03</totfact>
</mgrwt>
</event>
<event>
12    1  0.1039378E-001  0.2310707E+03  0.7546771E-02  0.1126025E+00
         21   -1    0    0  503  502  0.00000000000E+00  0.00000000000E+00  0.17074991145E+03  0.17074991145E+03  0.00000000000E+00 0.  1.
         21   -1    0    0  501  503 -0.00000000000E+00 -0.00000000000E+00 -0.35837214946E+03  0.35837214946E+03  0.00000000000E+00 0.  1.
          6    2    1    2  501    0 -0.12796272823E+03 -0.79175755205E+02 -0.18947891755E+03  0.29882421631E+03  0.17535789696E+03 0.  0.
         24    2    3    3    0    0 -0.13849889765E+03 -0.86372616466E+02 -0.99063903810E+02  0.20739243634E+03  0.80967846016E+02 0.  0.
         -6    2    1    2    0  502  0.12796272823E+03  0.79175755205E+02  0.18566795345E+01  0.23029784460E+03  0.17432839683E+03 0.  0.
        -24    2    5    5    0    0  0.33573221702E+02  0.84746362894E+02 -0.41464862511E+02  0.12618609398E+03  0.76775570666E+02 0.  0.
          5    1    3    3  501    0  0.10536169420E+02  0.71968612608E+01 -0.90415013741E+02  0.91431779967E+02  0.47000000000E+01 0. -1.
        -13    1    4    4    0    0 -0.22586093955E+01 -0.30551141683E+02 -0.35869091867E+02  0.47170598108E+02  0.00000000000E+00 0.  1.
         14    1    4    4    0    0 -0.13624028825E+03 -0.55821474784E+02 -0.63194811943E+02  0.16022183823E+03  0.00000000000E+00 0. -1.
         -5    1    5    5    0  502  0.94389506528E+02 -0.55706076887E+01  0.43321542045E+02  0.10411175062E+03  0.47000000000E+01 0.  1.
         13    1    6    6    0    0 -0.10322892515E+02 -0.72080582404E+01  0.58011921956E+01  0.13862613186E+02  0.00000000000E+00 0. -1.
        -14    1    6    6    0    0  0.43896114216E+02  0.91954421135E+02 -0.47266054706E+02  0.11232348079E+03  0.00000000000E+00 0.  1.
<mgrwt>
<rscale>  2 0.23087534E+03</rscale>
<asrwt>0</asrwt>
<pdfrwt beam="1">  1       21 0.26269217E-01 0.23107066E+03</pdfrwt>
<pdfrwt beam="2">  1       21 0.55134177E-01 0.23107066E+03</pdfrwt>
<totfact> 0.41963399E+04</totfact>
</mgrwt>
</event>
<event>
12    1  0.1039378E-001  0.2311990E+03  0.7546771E-02  0.1125881E+00
         21   -1    0    0  503  502  0.00000000000E+00  0.00000000000E+00  0.39766490809E+03  0.39766490809E+03  0.00000000000E+00 0.  1.
         21   -1    0    0  501  503 -0.00000000000E+00 -0.00000000000E+00 -0.27702104234E+03  0.27702104234E+03  0.00000000000E+00 0.  1.
          6    2    1    2  501    0  0.14987429448E+03  0.28652929104E+02  0.30262144180E+03  0.38083161345E+03  0.17369423214E+03 0.  0.
         24    2    3    3    0    0  0.81992834337E+02  0.66194883118E+02  0.26160916784E+03  0.29296018717E+03  0.79257347503E+02 0.  0.
         -6    2    1    2    0  502 -0.14987429448E+03 -0.28652929104E+02 -0.18197757605E+03  0.29385433697E+03  0.17306426171E+03 0.  0.
        -24    2    5    5    0    0 -0.75889304384E+01 -0.32194772116E+02 -0.92772495646E+02  0.12581474092E+03  0.78284850818E+02 0.  0.
          5    1    3    3  501    0  0.67881460144E+02 -0.37541954014E+02  0.41012273957E+02  0.87871426286E+02  0.47000000000E+01 0. -1.
        -11    1    4    4    0    0  0.15183630698E+02  0.91417031037E+01  0.14940702315E+03  0.15045455109E+03  0.00000000000E+00 0.  1.
         12    1    4    4    0    0  0.66809203639E+02  0.57053180014E+02  0.11220214468E+03  0.14250563607E+03  0.00000000000E+00 0. -1.
         -5    1    5    5    0  502 -0.14228536404E+03  0.35418430114E+01 -0.89205080400E+02  0.16803959605E+03  0.47000000000E+01 0.  1.
         13    1    6    6    0    0 -0.25296799077E+01 -0.55282056161E+02 -0.40906873873E+02  0.68817710976E+02  0.00000000000E+00 0. -1.
        -14    1    6    6    0    0 -0.50592505307E+01  0.23087284046E+02 -0.51865621773E+02  0.56997029944E+02  0.00000000000E+00 0.  1.
<mgrwt>
<rscale>  2 0.23108069E+03</rscale>
<asrwt>0</asrwt>
<pdfrwt beam="1">  1       21 0.61179216E-01 0.23119901E+03</pdfrwt>
<pdfrwt beam="2">  1       21 0.42618622E-01 0.23119901E+03</pdfrwt>
<totfact> 0.12849316E+04</totfact>
</mgrwt>
</event>
<event>
12    1  0.1039378E-001  0.1969801E+03  0.7546771E-02  0.1152393E+00
         21   -1    0    0  503  502  0.00000000000E+00  0.00000000000E+00  0.17620788309E+03  0.17620788309E+03  0.00000000000E+00 0. -1.
         21   -1    0    0  501  503 -0.00000000000E+00 -0.00000000000E+00 -0.29721858690E+03  0.29721858690E+03  0.00000000000E+00 0. -1.
          6    2    1    2  501    0 -0.80533789994E+02  0.49700968710E+02  0.60278816131E+02  0.20599680961E+03  0.17275784287E+03 0.  0.
         24    2    3    3    0    0 -0.11470887000E+03  0.54263529250E+02  0.18673192146E+02  0.15175779230E+03  0.81111552532E+02 0.  0.
         -6    2    1    2    0  502  0.80533789994E+02 -0.49700968710E+02 -0.18128951994E+03  0.26742966037E+03  0.17232775629E+03 0.  0.
        -24    2    5    5    0    0  0.29004476495E+02  0.38376304344E+02 -0.67530458375E+02  0.11453724635E+03  0.79021627425E+02 0.  0.
          5    1    3    3  501    0  0.34175080008E+02 -0.45625605402E+01  0.41605623985E+02  0.54239017316E+02  0.47000000000E+01 0. -1.
        -11    1    4    4    0    0  0.69712391075E+01 -0.92908982409E+01 -0.46520094943E+01  0.12512400136E+02  0.00000000000E+00 0.  1.
         12    1    4    4    0    0 -0.12168010911E+03  0.63554427491E+02  0.23325201641E+02  0.13924539216E+03  0.00000000000E+00 0. -1.
         -5    1    5    5    0  502  0.51529313499E+02 -0.88077273054E+02 -0.11375906156E+03  0.15289241402E+03  0.47000000000E+01 0.  1.
         11    1    6    6    0    0  0.45451982159E+02  0.72810864021E+00 -0.55474947467E+02  0.71720866007E+02  0.00000000000E+00 0. -1.
        -12    1    6    6    0    0 -0.16447505663E+02  0.37648195704E+02 -0.12055510908E+02  0.42816380342E+02  0.00000000000E+00 0.  1.
<mgrwt>
<rscale>  2 0.19688573E+03</rscale>
<asrwt>0</asrwt>
<pdfrwt beam="1">  1       21 0.27108905E-01 0.19698007E+03</pdfrwt>
<pdfrwt beam="2">  1       21 0.45725936E-01 0.19698007E+03</pdfrwt>
<totfact> 0.59344807E+04</totfact>
</mgrwt>
</event>
<event>
12    1  0.1039378E-001  0.2257670E+03  0.7546771E-02  0.1129701E+00
         21   -1    0    0  501  502  0.00000000000E+00  0.00000000000E+00  0.35879443712E+03  0.35879443712E+03  0.00000000000E+00 0. -1.
         21   -1    0    0  502  503 -0.00000000000E+00 -0.00000000000E+00 -0.15292002258E+03  0.15292002258E+03  0.00000000000E+00 0. -1.
         -6    2    1    2    0  503  0.13773498229E+03  0.45249101116E+02  0.34310141466E+02  0.22835924305E+03  0.17306747695E+03 0.  0.
        -24    2    3    3    0    0  0.13455305348E+03  0.64509386859E+02 -0.20536091303E+02  0.16995305736E+03  0.78716741972E+02 0.  0.
          6    2    1    2  501    0 -0.13773498229E+03 -0.45249101116E+02  0.17156427308E+03  0.28335521665E+03  0.17273526711E+03 0.  0.
         24    2    5    5    0    0 -0.34365887105E+02 -0.44937135295E+02  0.14734952655E+03  0.17708334307E+03  0.80288648608E+02 0.  0.
          5    1    5    5  501    0 -0.10336909519E+03 -0.31196582091E+00  0.24214746527E+02  0.10627187357E+03  0.47000000000E+01 0. -1.
        -13    1    6    6    0    0 -0.10890628658E+01 -0.58931502850E+02  0.68533188699E+02  0.90393064111E+02  0.00000000000E+00 0.  1.
         14    1    6    6    0    0 -0.33276824239E+02  0.13994367555E+02  0.78816337850E+02  0.86690278964E+02  0.00000000000E+00 0. -1.
         -5    1    3    3    0  503  0.31819288186E+01 -0.19260285743E+02  0.54846232768E+02  0.58406185689E+02  0.47000000000E+01 0.  1.
         13    1    4    4    0    0  0.42700967020E+02  0.33282518732E+02  0.28572574994E+02  0.61216751624E+02  0.00000000000E+00 0. -1.
        -14    1    4    4    0    0  0.91852086455E+02  0.31226868127E+02 -0.49108666296E+02  0.10873630573E+03  0.00000000000E+00 0.  1.
<mgrwt>
<rscale>  2 0.22570338E+03</rscale>
<asrwt>0</asrwt>
<pdfrwt beam="1">  1       21 0.55199144E-01 0.22576704E+03</pdfrwt>
<pdfrwt beam="2">  1       21 0.23526157E-01 0.22576704E+03</pdfrwt>
<totfact> 0.51827763E+04</totfact>
</mgrwt>
</event>
<event>
12    1  0.1039378E-001  0.1953133E+03  0.7546771E-02  0.1153828E+00
         21   -1    0    0  501  502  0.00000000000E+00  0.00000000000E+00  0.86604194008E+03  0.86604194008E+03  0.00000000000E+00 0.  1.
         21   -1    0    0  502  503 -0.00000000000E+00 -0.00000000000E+00 -0.44077315029E+02  0.44077315029E+02  0.00000000000E+00 0.  1.
         -6    2    1    2    0  503 -0.39805125160E+02  0.82646589842E+02  0.43294153565E+03  0.47481908292E+03  0.17204616072E+03 0.  0.
        -24    2    3    3    0    0  0.75502980579E+01  0.62616666130E+02  0.40152234341E+03  0.41437911607E+03  0.80696999342E+02 0.  0.
          6    2    1    2  501    0  0.39805125160E+02 -0.82646589842E+02  0.38902308940E+03  0.43530017218E+03  0.17243076586E+03 0.  0.
         24    2    5    5    0    0 -0.13586531610E+02 -0.23609010452E+02  0.88483562987E+02  0.12436255508E+03  0.83034480616E+02 0.  0.
          5    1    5    5  501    0  0.53391656771E+02 -0.59037579390E+02  0.30053952641E+03  0.31093761710E+03  0.47000000000E+01 0. -1.
        -13    1    6    6    0    0 -0.75240985710E+01  0.63398869234E+01  0.92960728567E+02  0.93479961924E+02  0.00000000000E+00 0.  1.
         14    1    6    6    0    0 -0.60624330394E+01 -0.29948897376E+02 -0.44771655801E+01  0.30882593156E+02  0.00000000000E+00 0. -1.
         -5    1    3    3    0  503 -0.47355423218E+02  0.20029923712E+02  0.31419192238E+02  0.60439966852E+02  0.47000000000E+01 0.  1.
         13    1    4    4    0    0 -0.27095819581E+02  0.12654192202E+01  0.17684206414E+03  0.17891031377E+03  0.00000000000E+00 0. -1.
        -14    1    4    4    0    0  0.34646117639E+02  0.61351246910E+02  0.22468027926E+03  0.23546880230E+03  0.00000000000E+00 0.  1.
<mgrwt>
<rscale>  2 0.19522836E+03</rscale>
<asrwt>0</asrwt>
<pdfrwt beam="1">  1       21 0.13323721E+00 0.19531328E+03</pdfrwt>
<pdfrwt beam="2">  1       21 0.67811260E-02 0.19531328E+03</pdfrwt>
<totfact> 0.64815029E+04</totfact>
</mgrwt>
</event>
<event>
12    1  0.1039378E-001  0.1788129E+03  0.7546771E-02  0.1169945E+00
         21   -1    0    0  501  502  0.00000000000E+00  0.00000000000E+00  0.75819427300E+03  0.75819427300E+03  0.00000000000E+00 0. -1.
         21   -1    0    0  502  503 -0.00000000000E+00 -0.00000000000E+00 -0.23140023136E+03  0.23140023136E+03  0.00000000000E+00 0. -1.
         -6    2    1    2    0  503  0.24916968563E+02 -0.10315873327E+02 -0.18568065240E+03  0.25502370473E+03  0.17272090995E+03 0.  0.
        -24    2    3    3    0    0  0.10387067600E+02 -0.73293937202E+02 -0.13429425119E+03  0.17231937122E+03  0.78607425808E+02 0.  0.
          6    2    1    2  501    0 -0.24916968563E+02  0.10315873327E+02  0.71247469404E+03  0.73457079962E+03  0.17676763686E+03 0.  0.
         24    2    5    5    0    0  0.46694104201E+02 -0.13394193670E+02  0.30950036247E+03  0.32456992777E+03  0.84825820642E+02 0.  0.
          5    1    5    5  501    0 -0.71611072764E+02  0.23710066997E+02  0.40297433157E+03  0.41000087186E+03  0.47000000000E+01 0. -1.
        -13    1    6    6    0    0  0.21675777637E+02 -0.33838390230E+02  0.55489350850E+02  0.68512364193E+02  0.00000000000E+00 0.  1.
         14    1    6    6    0    0  0.25018326564E+02  0.20444196560E+02  0.25401101162E+03  0.25605756357E+03  0.00000000000E+00 0. -1.
         -5    1    3    3    0  503  0.14529900963E+02  0.62978063875E+02 -0.51386401219E+02  0.82704333512E+02  0.47000000000E+01 0.  1.
         11    1    4    4    0    0 -0.27394626859E+02 -0.22943938187E+01 -0.31741575685E+02  0.41991159197E+02  0.00000000000E+00 0. -1.
        -12    1    4    4    0    0  0.37781694459E+02 -0.70999543383E+02 -0.10255267550E+03  0.13032821202E+03  0.00000000000E+00 0.  1.
<mgrwt>
<rscale>  2 0.17780461E+03</rscale>
<asrwt>0</asrwt>
<pdfrwt beam="1">  1       21 0.11664527E+00 0.17881295E+03</pdfrwt>
<pdfrwt beam="2">  1       21 0.35600036E-01 0.17881295E+03</pdfrwt>
<totfact> 0.43586794E+03</totfact>
</mgrwt>
</event>
<event>
12    1  0.1039378E-001  0.1923510E+03  0.7546771E-02  0.1156879E+00
         21   -1    0    0  501  502  0.00000000000E+00  0.00000000000E+00  0.11885145720E+03  0.11885145720E+03  0.00000000000E+00 0.  1.
         21   -1    0    0  502  503 -0.00000000000E+00 -0.00000000000E+00 -0.37650745489E+03  0.37650745489E+03  0.00000000000E+00 0. -1.
         -6    2    1    2    0  503  0.11394363566E+02  0.84323483997E+02 -0.23419135705E+03  0.30158199079E+03  0.16989945255E+03 0.  0.
        -24    2    3    3    0    0  0.17453469030E+02  0.11564672683E+03 -0.22793533532E+03  0.26873254470E+03  0.81141077657E+02 0.  0.
          6    2    1    2  501    0 -0.11394363566E+02 -0.84323483997E+02 -0.23464640633E+02  0.19377692130E+03  0.17250688216E+03 0.  0.
         24    2    5    5    0    0 -0.29248355023E+02 -0.12038016725E+01 -0.56730060059E+02  0.10236398605E+03  0.80019813272E+02 0.  0.
          5    1    5    5  501    0  0.17853991457E+02 -0.83119682325E+02  0.33265419426E+02  0.91412935246E+02  0.47000000000E+01 0. -1.
        -11    1    6    6    0    0 -0.21532370926E+02  0.33242707635E+02 -0.52641894365E+01  0.39955378849E+02  0.00000000000E+00 0.  1.
         12    1    6    6    0    0 -0.77159840974E+01 -0.34446509307E+02 -0.51465870623E+02  0.62408607203E+02  0.00000000000E+00 0. -1.
         -5    1    3    3    0  503 -0.60591054635E+01 -0.31323242834E+02 -0.62560217290E+01  0.32849446092E+02  0.47000000000E+01 0.  1.
         11    1    4    4    0    0  0.40833559075E+02  0.10306924414E+03 -0.20739195888E+03  0.23516392845E+03  0.00000000000E+00 0. -1.
        -12    1    4    4    0    0 -0.23380090045E+02  0.12577482691E+02 -0.20543376441E+02  0.33568616250E+02  0.00000000000E+00 0.  1.
<mgrwt>
<rscale>  2 0.19176459E+03</rscale>
<asrwt>0</asrwt>
<pdfrwt beam="1">  1       21 0.18284839E-01 0.19235100E+03</pdfrwt>
<pdfrwt beam="2">  1       21 0.57924224E-01 0.19235100E+03</pdfrwt>
<totfact> 0.76213945E+04</totfact>
</mgrwt>
</event>
<event>
12    1  0.1039378E-001  0.1806092E+03  0.7546771E-02  0.1168543E+00
         21   -1    0    0  501  502  0.00000000000E+00  0.00000000000E+00  0.16641741778E+03  0.16641741778E+03  0.00000000000E+00 0. -1.
         21   -1    0    0  502  503 -0.00000000000E+00 -0.00000000000E+00 -0.20284695299E+03  0.20284695299E+03  0.00000000000E+00 0. -1.
         -6    2    1    2    0  503  0.37347688666E+02  0.28733574545E+02 -0.64632960906E+02  0.19182570826E+03  0.17435370532E+03 0.  0.
        -24    2    3    3    0    0  0.36719494327E+02  0.14584946010E+02  0.30967807654E+02  0.95067373905E+02  0.80732636254E+02 0.  0.
          6    2    1    2  501    0 -0.37347688666E+02 -0.28733574545E+02  0.28203425690E+02  0.17743866251E+03  0.16872633932E+03 0.  0.
         24    2    5    5    0    0 -0.75623170404E+02 -0.11173965954E+02 -0.20623671759E+02  0.11278939491E+03  0.80326772314E+02 0.  0.
          5    1    5    5  501    0  0.38275481738E+02 -0.17559608591E+02  0.48827097449E+02  0.64649267602E+02  0.47000000000E+01 0. -1.
        -11    1    6    6    0    0 -0.27859852035E+02 -0.25870148601E+02 -0.43548171521E+02  0.57808988807E+02  0.00000000000E+00 0.  1.
         12    1    6    6    0    0 -0.47763318369E+02  0.14696182647E+02  0.22924499762E+02  0.54980406104E+02  0.00000000000E+00 0. -1.
         -5    1    3    3    0  503  0.62819433863E+00  0.14148628535E+02 -0.95600768560E+02  0.96758334353E+02  0.47000000000E+01 0.  1.
         13    1    4    4    0    0 -0.14813708737E+02  0.15012990665E+02 -0.15103459879E+02  0.25941286699E+02  0.00000000000E+00 0. -1.
        -14    1    4    4    0    0  0.51533203065E+02 -0.42804465551E+00  0.46071267533E+02  0.69126087206E+02  0.00000000000E+00 0.  1.
<mgrwt>
<rscale>  2 0.17923706E+03</rscale>
<asrwt>0</asrwt>
<pdfrwt beam="1">  1       21 0.25602680E-01 0.18060920E+03</pdfrwt>
<pdfrwt beam="2">  1       21 0.31207224E-01 0.18060920E+03</pdfrwt>
<totfact> 0.14334571E+05</totfact>
</mgrwt>
</event>
<event>
12    1  0.1039378E-001  0.3437459E+03  0.7546771E-02  0.1065313E+00
         21   -1    0    0  501  502  0.00000000000E+00  0.00000000000E+00  0.58185407070E+03  0.58185407070E+03  0.00000000000E+00 0. -1.
         21   -1    0    0  502  503 -0.00000000000E+00 -0.00000000000E+00 -0.29893923615E+03  0.29893923615E+03  0.00000000000E+00 0.  1.
         -6    2    1    2    0  503  0.15381945001E+03 -0.25300676279E+03 -0.10853647988E+03  0.36047384624E+03  0.17460922411E+03 0.  0.
        -24    2    3    3    0    0  0.13499645658E+03 -0.25962396706E+03 -0.62301550828E+02  0.30989864344E+03  0.80790088552E+02 0.  0.
          6    2    1    2  501    0 -0.15381945001E+03  0.25300676279E+03  0.39145131443E+03  0.52031946060E+03  0.17270021509E+03 0.  0.
         24    2    5    5    0    0 -0.11281769778E+03  0.94848305075E+02  0.13142800614E+03  0.21318845877E+03  0.80324119949E+02 0.  0.
          5    1    5    5  501    0 -0.41001752225E+02  0.15815845772E+03  0.26002330829E+03  0.30713100183E+03  0.47000000000E+01 0. -1.
        -13    1    6    6    0    0 -0.81447794307E+01 -0.28158757475E+00 -0.10180581414E+02  0.13040742366E+02  0.00000000000E+00 0.  1.
         14    1    6    6    0    0 -0.10467291835E+03  0.95129892649E+02  0.14160858756E+03  0.20014771640E+03  0.00000000000E+00 0. -1.
         -5    1    3    3    0  503  0.18822993424E+02  0.66172042750E+01 -0.46234929052E+02  0.50575202801E+02  0.47000000000E+01 0.  1.
         13    1    4    4    0    0  0.12368945403E+03 -0.23473762880E+03 -0.80245467808E+02  0.27720059617E+03  0.00000000000E+00 0. -1.
        -14    1    4    4    0    0  0.11307002550E+02 -0.24886338261E+02  0.17943916979E+02  0.32698047270E+02  0.00000000000E+00 0.  1.
<mgrwt>
<rscale>  2 0.34350418E+03</rscale>
<asrwt>0</asrwt>
<pdfrwt beam="1">  1       21 0.89516011E-01 0.34374587E+03</pdfrwt>
<pdfrwt beam="2">  1       21 0.45990652E-01 0.34374587E+03</pdfrwt>
<totfact> 0.44013854E+03</totfact>
</mgrwt>
</event>
<event>
12    1  0.1039378E-001  0.1829963E+03  0.7546771E-02  0.1165213E+00
         21   -1    0    0  503  502  0.00000000000E+00  0.00000000000E+00  0.52627024701E+03  0.52627024701E+03  0.00000000000E+00 0.  1.
         21   -1    0    0  501  503 -0.00000000000E+00 -0.00000000000E+00 -0.68009412317E+02  0.68009412317E+02  0.00000000000E+00 0.  1.
          6    2    1    2  501    0 -0.45699057782E+02  0.29031889854E+02  0.15100094466E+03  0.23725285060E+03  0.17480381952E+03 0.  0.
         24    2    3    3    0    0  0.15975464453E+02 -0.15148202563E+02  0.24384679585E+02  0.89572805098E+02  0.83330614478E+02 0.  0.
         -6    2    1    2    0  502  0.45699057782E+02 -0.29031889854E+02  0.30725989004E+03  0.35702680873E+03  0.17357490491E+03 0.  0.
        -24    2    5    5    0    0 -0.27546698659E+01 -0.58371421707E+01  0.51021705436E+02  0.95175978500E+02  0.80084905089E+02 0.  0.
          5    1    3    3  501    0 -0.61674522235E+02  0.44180092417E+02  0.12661626507E+03  0.14768004550E+03  0.47000000000E+01 0. -1.
        -11    1    4    4    0    0  0.21912518095E+02  0.11118285802E+02  0.47891487719E+02  0.53827217320E+02  0.00000000000E+00 0.  1.
         12    1    4    4    0    0 -0.59370536421E+01 -0.26266488365E+02 -0.23506808134E+02  0.35745587778E+02  0.00000000000E+00 0. -1.
         -5    1    5    5    0  502  0.48453727648E+02 -0.23194747683E+02  0.25623818461E+03  0.26185083023E+03  0.47000000000E+01 0.  1.
         13    1    6    6    0    0  0.30303336660E+02  0.21014160398E+02  0.16714983055E+02  0.40487995857E+02  0.00000000000E+00 0. -1.
        -14    1    6    6    0    0 -0.33058006526E+02 -0.26851302569E+02  0.34306722381E+02  0.54687982644E+02  0.00000000000E+00 0.  1.
<mgrwt>
<rscale>  2 0.18270216E+03</rscale>
<asrwt>0</asrwt>
<pdfrwt beam="1">  1       21 0.80964651E-01 0.18299626E+03</pdfrwt>
<pdfrwt beam="2">  1       21 0.10462987E-01 0.18299626E+03</pdfrwt>
<totfact> 0.10063925E+05</totfact>
</mgrwt>
</event>
<event>
12    1  0.1039378E-001  0.1841442E+03  0.7546771E-02  0.1163908E+00
         21   -1    0    0  501  502  0.00000000000E+00  0.00000000000E+00  0.12569091608E+03  0.12569091608E+03  0.00000000000E+00 0. -1.
         21   -1    0    0  502  503 -0.00000000000E+00 -0.00000000000E+00 -0.26969997311E+03  0.26969997311E+03  0.00000000000E+00 0.  1.
         -6    2    1    2    0  503  0.52725750965E+02 -0.35305371260E+02 -0.78204726190E+02  0.19984219278E+03  0.17261068554E+03 0.  0.
        -24    2    3    3    0    0  0.55203985872E+02  0.13228472530E+02 -0.10505991555E+03  0.14411996349E+03  0.80687703407E+02 0.  0.
          6    2    1    2  501    0 -0.52725750965E+02  0.35305371260E+02 -0.65804330843E+02  0.19554869641E+03  0.17286586897E+03 0.  0.
         24    2    5    5    0    0 -0.92213438310E+02  0.53290916219E+02 -0.73459849545E+02  0.15123781461E+03  0.78315305756E+02 0.  0.
          5    1    5    5  501    0  0.39487687345E+02 -0.17985544959E+02  0.76555187023E+01  0.44310881800E+02  0.47000000000E+01 0. -1.
        -13    1    6    6    0    0  0.13851797342E+02  0.86480240941E+01 -0.39645366145E+01  0.16804111428E+02  0.00000000000E+00 0.  1.
         14    1    6    6    0    0 -0.10606523565E+03  0.44642892125E+02 -0.69495312931E+02  0.13443370318E+03  0.00000000000E+00 0. -1.
         -5    1    3    3    0  503 -0.24782349075E+01 -0.48533843790E+02  0.26855189358E+02  0.55722229287E+02  0.47000000000E+01 0.  1.
         13    1    4    4    0    0  0.27554930006E+01 -0.24648165397E+02 -0.55287002135E+01  0.25410457005E+02  0.00000000000E+00 0. -1.
        -14    1    4    4    0    0  0.52448492872E+02  0.37876637927E+02 -0.99531215334E+02  0.11870950649E+03  0.00000000000E+00 0.  1.
<mgrwt>
<rscale>  2 0.18408428E+03</rscale>
<asrwt>0</asrwt>
<pdfrwt beam="1">  1       21 0.19337064E-01 0.18414419E+03</pdfrwt>
<pdfrwt beam="2">  1       21 0.41492304E-01 0.18414419E+03</pdfrwt>
<totfact> 0.13786431E+05</totfact>
</mgrwt>
</event>
<event>
12    1  0.1039378E-001  0.1875625E+03  0.7546771E-02  0.1160751E+00
         21   -1    0    0  501  502  0.00000000000E+00  0.00000000000E+00  0.31646889019E+03  0.31646889019E+03  0.00000000000E+00 0.  1.
         21   -1    0    0  502  503 -0.00000000000E+00 -0.00000000000E+00 -0.15087132797E+03  0.15087132797E+03  0.00000000000E+00 0.  1.
         -6    2    1    2    0  503 -0.22226608951E+02 -0.68356511315E+02  0.20300927433E+03  0.27639185419E+03  0.17324276844E+03 0.  0.
        -24    2    3    3    0    0 -0.76521850286E+02 -0.25519871963E+02  0.98708808257E+02  0.15115756126E+03  0.81230056406E+02 0.  0.
          6    2    1    2  501    0  0.22226608951E+02  0.68356511315E+02 -0.37411712103E+02  0.19094836396E+03  0.17290172559E+03 0.  0.
         24    2    5    5    0    0  0.69720636839E+02  0.69697593603E+02  0.54780175277E+01  0.12676814821E+03  0.79507439707E+02 0.  0.
          5    1    5    5  501    0 -0.47494027888E+02 -0.13410822884E+01 -0.42889729631E+02  0.64180215756E+02  0.47000000000E+01 0. -1.
        -13    1    6    6    0    0  0.18008278798E+02  0.47338361776E+02 -0.31251545050E+02  0.59513676319E+02  0.00000000000E+00 0.  1.
         14    1    6    6    0    0  0.51712358041E+02  0.22359231827E+02  0.36729562578E+02  0.67254471890E+02  0.00000000000E+00 0. -1.
         -5    1    3    3    0  503  0.54295241335E+02 -0.42836639351E+02  0.10430046607E+03  0.12523429293E+03  0.47000000000E+01 0.  1.
         11    1    4    4    0    0 -0.26007685415E+02  0.15819076345E+02 -0.26971434928E+01  0.30560063156E+02  0.00000000000E+00 0. -1.
        -12    1    4    4    0    0 -0.50514164871E+02 -0.41338948308E+02  0.10140595175E+03  0.12059749811E+03  0.00000000000E+00 0.  1.
<mgrwt>
<rscale>  2 0.18748371E+03</rscale>
<asrwt>0</asrwt>
<pdfrwt beam="1">  1       21 0.48687521E-01 0.18756250E+03</pdfrwt>
<pdfrwt beam="2">  1       21 0.23210974E-01 0.18756250E+03</pdfrwt>
<totfact> 0.70404755E+04</totfact>
</mgrwt>
</event>
<event>
12    1  0.1039378E-001  0.1880352E+03  0.7546771E-02  0.1160353E+00
         21   -1    0    0  501  502  0.00000000000E+00  0.00000000000E+00  0.74168860054E+02  0.74168860054E+02  0.00000000000E+00 0.  1.
         21   -1    0    0  502  503 -0.00000000000E+00 -0.00000000000E+00 -0.49994110936E+03  0.49994110936E+03  0.00000000000E+00 0.  1.
         -6    2    1    2    0  503  0.44638695408E+02 -0.57086852522E+02 -0.27657254478E+03  0.33443927187E+03  0.17351003483E+03 0.  0.
        -24    2    3    3    0    0  0.46924710854E+02  0.27161855193E+02 -0.10163556028E+03  0.14020202219E+03  0.79919491036E+02 0.  0.
          6    2    1    2  501    0 -0.44638695408E+02  0.57086852522E+02 -0.14919970453E+03  0.23967069754E+03  0.17300280220E+03 0.  0.
         24    2    5    5    0    0 -0.87700143308E+02  0.49384140520E+02 -0.63509618910E+02  0.14334572237E+03  0.79902540372E+02 0.  0.
          5    1    5    5  501    0  0.43061447900E+02  0.77027120023E+01 -0.85690085618E+02  0.96324975166E+02  0.47000000000E+01 0. -1.
        -11    1    6    6    0    0  0.11541350702E+02 -0.59361597171E+01  0.40267689801E+00  0.12984718592E+02  0.00000000000E+00 0.  1.
         12    1    6    6    0    0 -0.99241494011E+02  0.55320300237E+02 -0.63912295808E+02  0.13036100378E+03  0.00000000000E+00 0. -1.
         -5    1    3    3    0  503 -0.22860154455E+01 -0.84248707715E+02 -0.17493698450E+03  0.19423724968E+03  0.47000000000E+01 0.  1.
         11    1    4    4    0    0  0.62067583058E+02  0.40935225809E+02 -0.89694122733E+02  0.11650370480E+03  0.00000000000E+00 0. -1.
        -12    1    4    4    0    0 -0.15142872204E+02 -0.13773370616E+02 -0.11941437547E+02  0.23698317396E+02  0.00000000000E+00 0.  1.
<mgrwt>
<rscale>  2 0.18791815E+03</rscale>
<asrwt>0</asrwt>
<pdfrwt beam="1">  1       21 0.11410594E-01 0.18803525E+03</pdfrwt>
<pdfrwt beam="2">  1       21 0.76914017E-01 0.18803525E+03</pdfrwt>
<totfact> 0.96659563E+04</totfact>
</mgrwt>
</event>
<event>
12    1  0.1039378E-001  0.1935162E+03  0.7546771E-02  0.1157762E+00
         21   -1    0    0  503  502  0.00000000000E+00  0.00000000000E+00  0.49753337987E+03  0.49753337987E+03  0.00000000000E+00 0.  1.
         21   -1    0    0  501  503 -0.00000000000E+00 -0.00000000000E+00 -0.11296842013E+03  0.11296842013E+03  0.00000000000E+00 0. -1.
          6    2    1    2  501    0 -0.23076067937E+01  0.54846402296E+02  0.10070866739E+02  0.19377804152E+03  0.18556684544E+03 0.  0.
         24    2    3    3    0    0 -0.24252782554E+02 -0.10333097810E+01  0.70482834973E+02  0.10847957221E+03  0.78808136448E+02 0.  0.
         -6    2    1    2    0  502  0.23076067937E+01 -0.54846402296E+02  0.37449409300E+03  0.41672375848E+03  0.17435427237E+03 0.  0.
        -24    2    5    5    0    0  0.55347023954E+02 -0.25574711644E+02  0.32466728095E+03  0.33814378110E+03  0.72215056854E+02 0.  0.
          5    1    3    3  501    0  0.21945175761E+02  0.55879712077E+02 -0.60411968234E+02  0.85298469312E+02  0.47000000000E+01 0. -1.
        -13    1    4    4    0    0  0.15762718269E+02 -0.47251903817E+01  0.66028310890E+02  0.68047987114E+02  0.00000000000E+00 0.  1.
         14    1    4    4    0    0 -0.40015500824E+02  0.36918806007E+01  0.44545240832E+01  0.40431585096E+02  0.00000000000E+00 0. -1.
         -5    1    5    5    0  502 -0.53039417160E+02 -0.29271690652E+02  0.49826812044E+02  0.78579977379E+02  0.47000000000E+01 0.  1.
         11    1    6    6    0    0  0.16346910898E+02 -0.12166011541E+02  0.13934300134E+02  0.24685989001E+02  0.00000000000E+00 0. -1.
        -12    1    6    6    0    0  0.39000113056E+02 -0.13408700103E+02  0.31073298082E+03  0.31345779210E+03  0.00000000000E+00 0.  1.
<mgrwt>
<rscale>  2 0.19077750E+03</rscale>
<asrwt>0</asrwt>
<pdfrwt beam="1">  1       21 0.76543596E-01 0.19351617E+03</pdfrwt>
<pdfrwt beam="2">  1       21 0.17379757E-01 0.19351617E+03</pdfrwt>
<totfact> 0.45484840E+04</totfact>
</mgrwt>
</event>
<event>
12    1  0.1039378E-001  0.2107024E+03  0.7546771E-02  0.1141395E+00
         21   -1    0    0  501  502  0.00000000000E+00  0.00000000000E+00  0.16990620077E+03  0.16990620077E+03  0.00000000000E+00 0.  1.
         21   -1    0    0  502  503 -0.00000000000E+00 -0.00000000000E+00 -0.36248606969E+03  0.36248606969E+03  0.00000000000E+00 0. -1.
         -6    2    1    2    0  503  0.71657479305E+01 -0.11592719585E+03 -0.23827332916E+03  0.31679217888E+03  0.17347231056E+03 0.  0.
        -24    2    3    3    0    0 -0.34819415172E+02 -0.10490183324E+03 -0.23647380146E+03  0.27309274134E+03  0.80268302000E+02 0.  0.
          6    2    1    2  501    0 -0.71657479305E+01  0.11592719585E+03  0.45693460243E+02  0.21560009158E+03  0.17579830631E+03 0.  0.
         24    2    5    5    0    0 -0.14592716390E+02  0.54897432216E+02  0.93877928528E+02  0.13734649810E+03  0.82609440378E+02 0.  0.
          5    1    5    5  501    0  0.74269684595E+01  0.61029763630E+02 -0.48184468285E+02  0.78253593484E+02  0.47000000000E+01 0. -1.
        -13    1    6    6    0    0  0.54651505329E+01  0.32058267979E+02  0.10101715795E+03  0.10612288451E+03  0.00000000000E+00 0.  1.
         14    1    6    6    0    0 -0.20057866923E+02  0.22839164237E+02 -0.71392294263E+01  0.31223613585E+02  0.00000000000E+00 0. -1.
         -5    1    3    3    0  503  0.41985163102E+02 -0.11025362609E+02 -0.17995277010E+01  0.43699437540E+02  0.47000000000E+01 0.  1.
         13    1    4    4    0    0 -0.64612787478E+01  0.79997592675E+01 -0.65189097447E+02  0.65995171773E+02  0.00000000000E+00 0. -1.
        -14    1    4    4    0    0 -0.28358136424E+02 -0.11290159250E+03 -0.17128470401E+03  0.20709756957E+03  0.00000000000E+00 0.  1.
<mgrwt>
<rscale>  2 0.21021655E+03</rscale>
<asrwt>0</asrwt>
<pdfrwt beam="1">  1       21 0.26139416E-01 0.21070241E+03</pdfrwt>
<pdfrwt beam="2">  1       21 0.55767087E-01 0.21070241E+03</pdfrwt>
<totfact> 0.41746056E+04</totfact>
</mgrwt>
</event>
<event>
12    1  0.1039378E-001  0.1913943E+03  0.7546771E-02  0.1159260E+00
         21   -1    0    0  503  502  0.00000000000E+00  0.00000000000E+00  0.45486418639E+03  0.45486418639E+03  0.00000000000E+00 0.  1.
         21   -1    0    0  501  503 -0.00000000000E+00 -0.00000000000E+00 -0.21367658706E+03  0.21367658706E+03  0.00000000000E+00 0.  1.
          6    2    1    2  501    0 -0.61508872313E+02 -0.59071461028E+02 -0.14794153526E+03  0.23488970489E+03  0.16128762112E+03 0.  0.
         24    2    3    3    0    0  0.11424444121E+02  0.12576185898E+02 -0.58971762972E+02  0.99278627405E+02  0.78037802739E+02 0.  0.
         -6    2    1    2    0  502  0.61508872313E+02  0.59071461028E+02  0.38912913458E+03  0.43365106856E+03  0.17134464391E+03 0.  0.
        -24    2    5    5    0    0  0.97249188120E+02  0.70945997303E+02  0.24509442577E+03  0.28469986134E+03  0.80572913462E+02 0.  0.
          5    1    3    3  501    0 -0.72933316434E+02 -0.71647646926E+02 -0.88969772286E+02  0.13561107749E+03  0.47000000000E+01 0. -1.
        -13    1    4    4    0    0  0.21501996949E+02 -0.11223894928E+02 -0.67767373158E+02  0.71977278046E+02  0.00000000000E+00 0.  1.
         14    1    4    4    0    0 -0.10077552828E+02  0.23800080826E+02  0.87956101861E+01  0.27301349360E+02  0.00000000000E+00 0. -1.
         -5    1    5    5    0  502 -0.35740315807E+02 -0.11874536275E+02  0.14403470882E+03  0.14895120721E+03  0.47000000000E+01 0.  1.
         13    1    6    6    0    0  0.25053937982E+02 -0.10636271169E+02  0.97672269086E+02  0.10139379775E+03  0.00000000000E+00 0. -1.
        -14    1    6    6    0    0  0.72195250138E+02  0.81582268472E+02  0.14742215668E+03  0.18330606360E+03  0.00000000000E+00 0.  1.
<mgrwt>
<rscale>  2 0.18911683E+03</rscale>
<asrwt>0</asrwt>
<pdfrwt beam="1">  1       21 0.69979105E-01 0.19139427E+03</pdfrwt>
<pdfrwt beam="2">  1       21 0.32873321E-01 0.19139427E+03</pdfrwt>
<totfact> 0.16529918E+04</totfact>
</mgrwt>
</event>
<event>
12    1  0.1039378E-001  0.1727629E+03  0.7546771E-02  0.1176072E+00
         21   -1    0    0  501  502  0.00000000000E+00  0.00000000000E+00  0.15453182027E+03  0.15453182027E+03  0.00000000000E+00 0. -1.
         21   -1    0    0  502  503 -0.00000000000E+00 -0.00000000000E+00 -0.29714024581E+03  0.29714024581E+03  0.00000000000E+00 0. -1.
         -6    2    1    2    0  503  0.98788026247E+01  0.10798283160E+01 -0.20838764804E+03  0.27068880518E+03  0.17247684083E+03 0.  0.
        -24    2    3    3    0    0  0.31834161913E+02 -0.67234636900E+01 -0.22539295967E+03  0.24146210863E+03  0.80270447896E+02 0.  0.
          6    2    1    2  501    0 -0.98788026247E+01 -0.10798283160E+01  0.65779222505E+02  0.18098326089E+03  0.16831303527E+03 0.  0.
         24    2    5    5    0    0 -0.61581307871E+02 -0.13962586130E+02  0.83459007468E+02  0.12464695560E+03  0.67707062577E+02 0.  0.
          5    1    5    5  501    0  0.51702505247E+02  0.12882757814E+02 -0.17679784964E+02  0.56336305293E+02  0.47000000000E+01 0. -1.
        -13    1    6    6    0    0 -0.84380693757E+01 -0.13708275573E+02 -0.86740683073E+01  0.18285439425E+02  0.00000000000E+00 0.  1.
         14    1    6    6    0    0 -0.53143238496E+02 -0.25431055746E+00  0.92133075776E+02  0.10636151618E+03  0.00000000000E+00 0. -1.
         -5    1    3    3    0  503 -0.21955359288E+02  0.78032920059E+01  0.17005311630E+02  0.29226696551E+02  0.47000000000E+01 0.  1.
         11    1    4    4    0    0 -0.20832650569E+02 -0.20331860251E+02 -0.50322707422E+02  0.58135692593E+02  0.00000000000E+00 0. -1.
        -12    1    4    4    0    0  0.52666812482E+02  0.13608396561E+02 -0.17507025225E+03  0.18332641604E+03  0.00000000000E+00 0.  1.
<mgrwt>
<rscale>  2 0.17171420E+03</rscale>
<asrwt>0</asrwt>
<pdfrwt beam="1">  1       21 0.23774126E-01 0.17276289E+03</pdfrwt>
<pdfrwt beam="2">  1       21 0.45713884E-01 0.17276289E+03</pdfrwt>
<totfact> 0.77111201E+04</totfact>
</mgrwt>
</event>
<event>
12    1  0.1039378E-001  0.2351323E+03  0.7546771E-02  0.1123307E+00
         21   -1    0    0  503  502  0.00000000000E+00  0.00000000000E+00  0.26707092373E+03  0.26707092373E+03  0.00000000000E+00 0. -1.
         21   -1    0    0  501  503 -0.00000000000E+00 -0.00000000000E+00 -0.23652566565E+03  0.23652566565E+03  0.00000000000E+00 0. -1.
          6    2    1    2  501    0  0.98368021170E+02  0.12526106844E+03  0.10600117958E+03  0.25792143625E+03  0.17297576231E+03 0.  0.
         24    2    3    3    0    0  0.14048175498E+02  0.26286444635E+02 -0.72160534010E+01  0.85451020302E+02  0.79758868081E+02 0.  0.
         -6    2    1    2    0  502 -0.98368021170E+02 -0.12526106844E+03 -0.75455921506E+02  0.24567515314E+03  0.17116098247E+03 0.  0.
        -24    2    5    5    0    0 -0.11045865873E+03 -0.67830996383E+02 -0.99297957092E+02  0.18215405936E+03  0.80733250273E+02 0.  0.
          5    1    3    3  501    0  0.84319845672E+02  0.98974623808E+02  0.11321723298E+03  0.17247041594E+03  0.47000000000E+01 0. -1.
        -11    1    4    4    0    0  0.39291496180E+02  0.15895032550E+01  0.16780598108E+02  0.42754375981E+02  0.00000000000E+00 0.  1.
         12    1    4    4    0    0 -0.25243320682E+02  0.24696941380E+02 -0.23996651509E+02  0.42696644321E+02  0.00000000000E+00 0. -1.
         -5    1    5    5    0  502  0.12090637562E+02 -0.57430072060E+02  0.23842035587E+02  0.63521093775E+02  0.47000000000E+01 0.  1.
         11    1    6    6    0    0  0.12115602939E+02 -0.14794030160E+01 -0.14707823843E+02  0.19112732668E+02  0.00000000000E+00 0. -1.
        -12    1    6    6    0    0 -0.12257426167E+03 -0.66351593367E+02 -0.84590133250E+02  0.16304132669E+03  0.00000000000E+00 0.  1.
<mgrwt>
<rscale>  2 0.23479868E+03</rscale>
<asrwt>0</asrwt>
<pdfrwt beam="1">  1       21 0.41087834E-01 0.23513234E+03</pdfrwt>
<pdfrwt beam="2">  1       21 0.36388564E-01 0.23513234E+03</pdfrwt>
<totfact> 0.40709792E+04</totfact>
</mgrwt>
</event>
<event>
12    1  0.1039378E-001  0.1913438E+03  0.7546771E-02  0.1157393E+00
         21   -1    0    0  503  502  0.00000000000E+00  0.00000000000E+00  0.15486732477E+03  0.15486732477E+03  0.00000000000E+00 0. -1.
         21   -1    0    0  501  503 -0.00000000000E+00 -0.00000000000E+00 -0.23610366496E+03  0.23610366496E+03  0.00000000000E+00 0. -1.
          6    2    1    2  501    0  0.79230073083E+02 -0.20900660332E+02 -0.31960721303E+02  0.19338417263E+03  0.17222574846E+03 0.  0.
         24    2    3    3    0    0 -0.13336661861E+02  0.22069089607E+02  0.16858186603E+02  0.80157075175E+02  0.74000317428E+02 0.  0.
         -6    2    1    2    0  502 -0.79230073083E+02  0.20900660332E+02 -0.49275618889E+02  0.19758681711E+03  0.17291102219E+03 0.  0.
        -24    2    5    5    0    0 -0.12258992369E+03  0.29479816556E+02 -0.43750269811E+02  0.15279509858E+03  0.74396956049E+02 0.  0.
          5    1    3    3  501    0  0.92566734944E+02 -0.42969749939E+02 -0.48818907905E+02  0.11322709745E+03  0.47000000000E+01 0. -1.
        -11    1    4    4    0    0 -0.23662154489E+02 -0.14317264247E+02  0.29347230095E+02  0.40325445129E+02  0.00000000000E+00 0.  1.
         12    1    4    4    0    0  0.10325492629E+02  0.36386353854E+02 -0.12489043492E+02  0.39831630046E+02  0.00000000000E+00 0. -1.
         -5    1    5    5    0  502  0.43359850602E+02 -0.85791562236E+01 -0.55253490782E+01  0.44791718522E+02  0.47000000000E+01 0.  1.
         13    1    6    6    0    0 -0.65520317420E+02 -0.10066386515E+01 -0.56883433114E+02  0.86773557487E+02  0.00000000000E+00 0. -1.
        -14    1    6    6    0    0 -0.57069606266E+02  0.30486455207E+02  0.13133163303E+02  0.66021541097E+02  0.00000000000E+00 0.  1.
<mgrwt>
<rscale>  2 0.19118889E+03</rscale>
<asrwt>0</asrwt>
<pdfrwt beam="1">  1       21 0.23825742E-01 0.19134384E+03</pdfrwt>
<pdfrwt beam="2">  1       21 0.36323641E-01 0.19134384E+03</pdfrwt>
<totfact> 0.12139381E+05</totfact>
</mgrwt>
</event>
<event>
12    1  0.1039378E-001  0.1849682E+03  0.7546771E-02  0.1163618E+00
         21   -1    0    0  501  502  0.00000000000E+00  0.00000000000E+00  0.30149456599E+02  0.30149456599E+02  0.00000000000E+00 0. -1.
         21   -1    0    0  502  503 -0.00000000000E+00 -0.00000000000E+00 -0.12189956910E+04  0.12189956910E+04  0.00000000000E+00 0. -1.
         -6    2    1    2    0  503  0.50609273397E+02 -0.29663795106E+02 -0.77512423593E+03  0.79688820590E+03  0.17541947521E+03 0.  0.
        -24    2    3    3    0    0  0.87267243959E+02 -0.62824354610E+02 -0.54889407786E+03  0.56527299929E+03  0.81770310128E+02 0.  0.
          6    2    1    2  501    0 -0.50609273397E+02  0.29663795106E+02 -0.41372199851E+03  0.45225694174E+03  0.17300060695E+03 0.  0.
         24    2    5    5    0    0 -0.73567941509E+02  0.16606116053E+02 -0.41090824769E+03  0.42528268332E+03  0.79572404766E+02 0.  0.
          5    1    5    5  501    0  0.22958668111E+02  0.13057679053E+02 -0.28137508193E+01  0.26974258421E+02  0.47000000000E+01 0. -1.
        -13    1    6    6    0    0  0.12905667505E+02 -0.89057001317E+01 -0.30008952997E+02  0.33858603169E+02  0.00000000000E+00 0.  1.
         14    1    6    6    0    0 -0.86473609014E+02  0.25511816184E+02 -0.38089929470E+03  0.39142408015E+03  0.00000000000E+00 0. -1.
         -5    1    3    3    0  503 -0.36657970562E+02  0.33160559503E+02 -0.22623015807E+03  0.23161520661E+03  0.47000000000E+01 0.  1.
         13    1    4    4    0    0  0.93685841425E+02 -0.31998188143E+02 -0.47028414966E+03  0.48059140895E+03  0.00000000000E+00 0. -1.
        -14    1    4    4    0    0 -0.64185974658E+01 -0.30826166467E+02 -0.78609928197E+02  0.84681590346E+02  0.00000000000E+00 0.  1.
<mgrwt>
<rscale>  2 0.18439241E+03</rscale>
<asrwt>0</asrwt>
<pdfrwt beam="1">  1       21 0.46383784E-02 0.18496819E+03</pdfrwt>
<pdfrwt beam="2">  1       21 0.18753778E+00 0.18496819E+03</pdfrwt>
<totfact> 0.49696688E+04</totfact>
</mgrwt>
</event>
<event>
12    1  0.1039378E-001  0.1752710E+03  0.7546771E-02  0.1172583E+00
         21   -1    0    0  501  502  0.00000000000E+00  0.00000000000E+00  0.39406392019E+03  0.39406392019E+03  0.00000000000E+00 0. -1.
         21   -1    0    0  502  503 -0.00000000000E+00 -0.00000000000E+00 -0.11334423178E+03  0.11334423178E+03  0.00000000000E+00 0. -1.
         -6    2    1    2    0  503 -0.26914986766E+02  0.22585510742E+02 -0.19732160866E+01  0.17478945159E+03  0.17121021288E+03 0.  0.
        -24    2    3    3    0    0 -0.25346290798E+02 -0.21382260376E+02  0.54549560212E+02  0.10300825666E+03  0.80841888309E+02 0.  0.
          6    2    1    2  501    0  0.26914986766E+02 -0.22585510742E+02  0.28269290450E+03  0.33261870038E+03  0.17171313223E+03 0.  0.
         24    2    5    5    0    0 -0.24779480171E+02 -0.60329166857E+02  0.12245420848E+03  0.16000516907E+03  0.79705645624E+02 0.  0.
          5    1    5    5  501    0  0.51694466937E+02  0.37743656115E+02  0.16023869602E+03  0.17261353131E+03  0.47000000000E+01 0. -1.
        -13    1    6    6    0    0 -0.36000034916E+02  0.52494003022E+01  0.46256500705E+02  0.58849151013E+02  0.00000000000E+00 0.  1.
         14    1    6    6    0    0  0.11220554745E+02 -0.65578567159E+02  0.76197707771E+02  0.10115601806E+03  0.00000000000E+00 0. -1.
         -5    1    3    3    0  503 -0.15686959678E+01  0.43967771118E+02 -0.56522776299E+02  0.71781194923E+02  0.47000000000E+01 0.  1.
         13    1    4    4    0    0 -0.45333575750E+01  0.30161779316E+02  0.11111188052E+02  0.32461404196E+02  0.00000000000E+00 0. -1.
        -14    1    4    4    0    0 -0.20812933223E+02 -0.51544039692E+02  0.43438372160E+02  0.70546852467E+02  0.00000000000E+00 0.  1.
<mgrwt>
<rscale>  2 0.17514769E+03</rscale>
<asrwt>0</asrwt>
<pdfrwt beam="1">  1       21 0.60625218E-01 0.17527099E+03</pdfrwt>
<pdfrwt beam="2">  1       21 0.17437574E-01 0.17527099E+03</pdfrwt>
<totfact> 0.75998431E+04</totfact>
</mgrwt>
</event>
<event>
12    1  0.1039378E-001  0.1746013E+03  0.7546771E-02  0.1173979E+00
         21   -1    0    0  501  502  0.00000000000E+00  0.00000000000E+00  0.52428559485E+02  0.52428559485E+02  0.00000000000E+00 0. -1.
         21   -1    0    0  502  503 -0.00000000000E+00 -0.00000000000E+00 -0.57065854159E+03  0.57065854159E+03  0.00000000000E+00 0. -1.
         -6    2    1    2    0  503 -0.16652728232E+02  0.10456257862E+02 -0.25546694153E+03  0.30943328684E+03  0.17349050147E+03 0.  0.
        -24    2    3    3    0    0 -0.98752264071E+00  0.72438692790E+02 -0.18016130751E+03  0.21053814327E+03  0.81362605863E+02 0.  0.
          6    2    1    2  501    0  0.16652728232E+02 -0.10456257862E+02 -0.26276304058E+03  0.31365381424E+03  0.17014009818E+03 0.  0.
         24    2    5    5    0    0 -0.36440555679E+02  0.25382017985E+02 -0.89008823704E+02  0.12840831040E+03  0.81203217596E+02 0.  0.
          5    1    5    5  501    0  0.53093283912E+02 -0.35838275847E+02 -0.17375421687E+03  0.18524550384E+03  0.47000000000E+01 0. -1.
        -13    1    6    6    0    0 -0.57603279941E+02  0.22865953270E+02 -0.87253845129E+02  0.10702440455E+03  0.00000000000E+00 0.  1.
         14    1    6    6    0    0  0.21162724261E+02  0.25160647149E+01 -0.17549785750E+01  0.21383905855E+02  0.00000000000E+00 0. -1.
         -5    1    3    3    0  503 -0.15665205592E+02 -0.61982434928E+02 -0.75305634020E+02  0.98895143566E+02  0.47000000000E+01 0.  1.
         11    1    4    4    0    0 -0.17809129959E+02  0.10526494406E+02 -0.12263479882E+03  0.12436746389E+03  0.00000000000E+00 0. -1.
        -12    1    4    4    0    0  0.16821607318E+02  0.61912198385E+02 -0.57526508697E+02  0.86170679378E+02  0.00000000000E+00 0.  1.
<mgrwt>
<rscale>  2 0.17376308E+03</rscale>
<asrwt>0</asrwt>
<pdfrwt beam="1">  1       21 0.80659316E-02 0.17460126E+03</pdfrwt>
<pdfrwt beam="2">  1       21 0.87793628E-01 0.17460126E+03</pdfrwt>
<totfact> 0.13249070E+05</totfact>
</mgrwt>
</event>
<event>
12    1  0.1039378E-001  0.2144382E+03  0.7546771E-02  0.1141433E+00
         21   -1    0    0  501  502  0.00000000000E+00  0.00000000000E+00  0.83386536149E+02  0.83386536149E+02  0.00000000000E+00 0. -1.
         21   -1    0    0  502  503 -0.00000000000E+00 -0.00000000000E+00 -0.88624856490E+03  0.88624856490E+03  0.00000000000E+00 0. -1.
         -6    2    1    2    0  503 -0.81837237974E+02  0.53221278477E+02 -0.72660719950E+03  0.75758943554E+03  0.19092902471E+03 0.  0.
        -24    2    3    3    0    0  0.26311321862E+02  0.74056595838E+01 -0.44158208725E+03  0.44927695356E+03  0.78153130282E+02 0.  0.
          6    2    1    2  501    0  0.81837237974E+02 -0.53221278477E+02 -0.76254829251E+02  0.21204566551E+03  0.17210092177E+03 0.  0.
         24    2    5    5    0    0 -0.12854407607E+02 -0.58650140338E+02 -0.57640925595E+02  0.11527507238E+03  0.79754568855E+02 0.  0.
          5    1    5    5  501    0  0.94691645581E+02  0.54288618617E+01 -0.18613903656E+02  0.96770593122E+02  0.47000000000E+01 0. -1.
        -13    1    6    6    0    0 -0.17000777531E+02 -0.15946871544E+02  0.17227406956E+02  0.28984697672E+02  0.00000000000E+00 0.  1.
         14    1    6    6    0    0  0.41463699239E+01 -0.42703268794E+02 -0.74868332550E+02  0.86290374713E+02  0.00000000000E+00 0. -1.
         -5    1    3    3    0  503 -0.10814855984E+03  0.45815618893E+02 -0.28502511225E+03  0.30831248198E+03  0.47000000000E+01 0.  1.
         13    1    4    4    0    0 -0.90051531239E+01  0.32501367767E+02 -0.27863010272E+03  0.28066379501E+03  0.00000000000E+00 0. -1.
        -14    1    4    4    0    0  0.35316474986E+02 -0.25095708183E+02 -0.16295198453E+03  0.16861315855E+03  0.00000000000E+00 0.  1.
<mgrwt>
<rscale>  2 0.21016774E+03</rscale>
<asrwt>0</asrwt>
<pdfrwt beam="1">  1       21 0.12828698E-01 0.21443817E+03</pdfrwt>
<pdfrwt beam="2">  1       21 0.13634593E+00 0.21443817E+03</pdfrwt>
<totfact> 0.19662118E+04</totfact>
</mgrwt>
</event>
<event>
12    1  0.1039378E-001  0.2040920E+03  0.7546771E-02  0.1146488E+00
         21   -1    0    0  503  502  0.00000000000E+00  0.00000000000E+00  0.26497686049E+03  0.26497686049E+03  0.00000000000E+00 0. -1.
         21   -1    0    0  501  503 -0.00000000000E+00 -0.00000000000E+00 -0.15670779302E+03  0.15670779302E+03  0.00000000000E+00 0. -1.
          6    2    1    2  501    0  0.59920824093E+02 -0.90161552115E+02  0.59422650978E+02  0.21256666478E+03  0.17301423319E+03 0.  0.
         24    2    3    3    0    0 -0.23990306216E+02 -0.46159255079E+02  0.68021378218E+02  0.11731275125E+03  0.80182055900E+02 0.  0.
         -6    2    1    2    0  502 -0.59920824093E+02  0.90161552115E+02  0.48846416487E+02  0.20911798873E+03  0.17211841902E+03 0.  0.
        -24    2    5    5    0    0 -0.10249937824E+03  0.83836507999E+02  0.49215941353E+02  0.16581480172E+03  0.86819680799E+02 0.  0.
          5    1    3    3  501    0  0.83911130308E+02 -0.44002297036E+02 -0.85987272397E+01  0.95253913538E+02  0.47000000000E+01 0. -1.
        -13    1    4    4    0    0  0.70176075962E+01 -0.18001194519E+02 -0.14909616637E+02  0.24404640721E+02  0.00000000000E+00 0.  1.
         14    1    4    4    0    0 -0.31007913812E+02 -0.28158060560E+02  0.82930994855E+02  0.92908110524E+02  0.00000000000E+00 0. -1.
         -5    1    5    5    0  502  0.42578554145E+02  0.63250441163E+01 -0.36952486509E+00  0.43303187004E+02  0.47000000000E+01 0.  1.
         11    1    6    6    0    0 -0.21042168201E+02  0.18573933366E+02  0.54501984045E+02  0.61304405291E+02  0.00000000000E+00 0. -1.
        -12    1    6    6    0    0 -0.81457210036E+02  0.65262574632E+02 -0.52860426920E+01  0.10451039643E+03  0.00000000000E+00 0.  1.
<mgrwt>
<rscale>  2 0.20390200E+03</rscale>
<asrwt>0</asrwt>
<pdfrwt beam="1">  1       21 0.40765671E-01 0.20409198E+03</pdfrwt>
<pdfrwt beam="2">  1       21 0.24108891E-01 0.20409198E+03</pdfrwt>
<totfact> 0.93649406E+04</totfact>
</mgrwt>
</event>
<event>
12    1  0.1039378E-001  0.2086505E+03  0.7546771E-02  0.1142905E+00
         21   -1    0    0  501  502  0.00000000000E+00  0.00000000000E+00  0.27087592192E+03  0.27087592192E+03  0.00000000000E+00 0.  1.
         21   -1    0    0  502  503 -0.00000000000E+00 -0.00000000000E+00 -0.19821886647E+04  0.19821886647E+04  0.00000000000E+00 0. -1.
         -6    2    1    2    0  503  0.79529096946E+02 -0.84015531011E+02 -0.19356349116E+04  0.19467061892E+04  0.17204356750E+03 0.  0.
        -24    2    3    3    0    0  0.11336265089E+03 -0.32901724460E+02 -0.14854493221E+04  0.14923423640E+04  0.81193773178E+02 0.  0.
          6    2    1    2  501    0 -0.79529096946E+02  0.84015531011E+02  0.22432216882E+03  0.30635839749E+03  0.17364200406E+03 0.  0.
         24    2    5    5    0    0 -0.91781112192E+02  0.99924414043E+02  0.11375443846E+03  0.19388387844E+03  0.79007752618E+02 0.  0.
          5    1    5    5  501    0  0.12252015246E+02 -0.15908883032E+02  0.11056773036E+03  0.11247451904E+03  0.47000000000E+01 0. -1.
        -11    1    6    6    0    0 -0.77690279359E+02  0.71495737006E+02  0.12175918174E+03  0.16116053566E+03  0.00000000000E+00 0.  1.
         12    1    6    6    0    0 -0.14090832833E+02  0.28428677038E+02 -0.80047432764E+01  0.32723342784E+02  0.00000000000E+00 0. -1.
         -5    1    3    3    0  503 -0.33833553949E+02 -0.51113806551E+02 -0.45018558957E+03  0.45436382520E+03  0.47000000000E+01 0.  1.
         13    1    4    4    0    0  0.91282544001E+02 -0.45036734607E+02 -0.80265388893E+03  0.80908224287E+03  0.00000000000E+00 0. -1.
        -14    1    4    4    0    0  0.22080106894E+02  0.12135010147E+02 -0.68279543312E+03  0.68326012109E+03  0.00000000000E+00 0.  1.
<mgrwt>
<rscale>  2 0.20831762E+03</rscale>
<asrwt>0</asrwt>
<pdfrwt beam="1">  1       21 0.41673217E-01 0.20865050E+03</pdfrwt>
<pdfrwt beam="2">  1       21 0.30495211E+00 0.20865050E+03</pdfrwt>
<totfact> 0.17293924E+02</totfact>
</mgrwt>
</event>
<event>
12    1  0.1039378E-001  0.1841211E+03  0.7546771E-02  0.1164002E+00
         21   -1    0    0  501  502  0.00000000000E+00  0.00000000000E+00  0.37223342742E+03  0.37223342742E+03  0.00000000000E+00 0. -1.
         21   -1    0    0  502  503 -0.00000000000E+00 -0.00000000000E+00 -0.32398153418E+03  0.32398153418E+03  0.00000000000E+00 0. -1.
         -6    2    1    2    0  503  0.27278435070E+02  0.56589153587E+02 -0.27120754345E+03  0.32749431283E+03  0.17248926920E+03 0.  0.
        -24    2    3    3    0    0  0.77448446133E+02  0.66850639653E+02 -0.19602752890E+03  0.23640944749E+03  0.83638298317E+02 0.  0.
          6    2    1    2  501    0 -0.27278435070E+02 -0.56589153587E+02  0.31945943669E+03  0.36872064877E+03  0.17307264316E+03 0.  0.
         24    2    5    5    0    0 -0.25770271779E+02  0.18117138761E+02  0.25428501292E+03  0.26945786527E+03  0.83392659965E+02 0.  0.
          5    1    5    5  501    0 -0.15081632907E+01 -0.74706292348E+02  0.65174423774E+02  0.99262783496E+02  0.47000000000E+01 0. -1.
        -13    1    6    6    0    0 -0.28053005794E+02  0.47527230090E+02  0.12166952019E+03  0.13360120088E+03  0.00000000000E+00 0.  1.
         14    1    6    6    0    0  0.22827340146E+01 -0.29410091329E+02  0.13261549273E+03  0.13585666439E+03  0.00000000000E+00 0. -1.
         -5    1    3    3    0  503 -0.50170011063E+02 -0.10261486066E+02 -0.75180014552E+02  0.91084865342E+02  0.47000000000E+01 0.  1.
         13    1    4    4    0    0  0.18975562778E+02  0.68929746586E+02 -0.12858442834E+03  0.14712354386E+03  0.00000000000E+00 0. -1.
        -14    1    4    4    0    0  0.58472883355E+02 -0.20791069328E+01 -0.67443100561E+02  0.89285903628E+02  0.00000000000E+00 0.  1.
<mgrwt>
<rscale>  2 0.18398390E+03</rscale>
<asrwt>0</asrwt>
<pdfrwt beam="1">  1       21 0.57266681E-01 0.18412112E+03</pdfrwt>
<pdfrwt beam="2">  1       21 0.49843313E-01 0.18412112E+03</pdfrwt>
<totfact> 0.11044064E+04</totfact>
</mgrwt>
</event>
<event>
12    1  0.1039378E-001  0.1724147E+03  0.7546771E-02  0.1175697E+00
         21   -1    0    0  501  502  0.00000000000E+00  0.00000000000E+00  0.35940470228E+03  0.35940470228E+03  0.00000000000E+00 0. -1.
         21   -1    0    0  502  503 -0.00000000000E+00 -0.00000000000E+00 -0.25382842691E+03  0.25382842691E+03  0.00000000000E+00 0. -1.
         -6    2    1    2    0  503 -0.10140503427E+02 -0.12411691874E+02 -0.19936700976E+03  0.26357928027E+03  0.17166814644E+03 0.  0.
        -24    2    3    3    0    0  0.31076229937E+02  0.50727113908E+02 -0.11581087048E+03  0.15093361317E+03  0.76353295357E+02 0.  0.
          6    2    1    2  501    0  0.10140503427E+02  0.12411691874E+02  0.30494328514E+03  0.34965384892E+03  0.17032476921E+03 0.  0.
         24    2    5    5    0    0  0.44341093978E+02 -0.25038222203E+02  0.26910055780E+03  0.28737249086E+03  0.87033287350E+02 0.  0.
          5    1    5    5  501    0 -0.34200590551E+02  0.37449914077E+02  0.35842727338E+02  0.62281358057E+02  0.47000000000E+01 0. -1.
        -13    1    6    6    0    0  0.50454381347E+02  0.14189609550E+02  0.92051324207E+02  0.10592655901E+03  0.00000000000E+00 0.  1.
         14    1    6    6    0    0 -0.61132873693E+01 -0.39227831753E+02  0.17704923359E+03  0.18144593184E+03  0.00000000000E+00 0. -1.
         -5    1    3    3    0  503 -0.41216733364E+02 -0.63138805782E+02 -0.83556139284E+02  0.11264566710E+03  0.47000000000E+01 0.  1.
         11    1    4    4    0    0 -0.55239055869E+01 -0.17822002375E+02 -0.17130937744E+02  0.25329949261E+02  0.00000000000E+00 0. -1.
        -12    1    4    4    0    0  0.36600135524E+02  0.68549116283E+02 -0.98679932734E+02  0.12560366391E+03  0.00000000000E+00 0.  1.
<mgrwt>
<rscale>  2 0.17207935E+03</rscale>
<asrwt>0</asrwt>
<pdfrwt beam="1">  1       21 0.55293031E-01 0.17241471E+03</pdfrwt>
<pdfrwt beam="2">  1       21 0.39050527E-01 0.17241471E+03</pdfrwt>
<totfact> 0.19742519E+04</totfact>
</mgrwt>
</event>
<event>
12    1  0.1039378E-001  0.2132976E+03  0.7546771E-02  0.1140280E+00
         21   -1    0    0  503  502  0.00000000000E+00  0.00000000000E+00  0.16629455907E+03  0.16629455907E+03  0.00000000000E+00 0.  1.
         21   -1    0    0  501  503 -0.00000000000E+00 -0.00000000000E+00 -0.58291593741E+03  0.58291593741E+03  0.00000000000E+00 0. -1.
          6    2    1    2  501    0 -0.11116741949E+03  0.29083090559E+02 -0.48633769170E+03  0.53105574137E+03  0.17969927314E+03 0.  0.
         24    2    3    3    0    0 -0.68135662099E+01 -0.14706153335E+02 -0.31845087808E+03  0.32853340492E+03  0.79123579105E+02 0.  0.
         -6    2    1    2    0  502  0.11116741949E+03 -0.29083090559E+02  0.69716313360E+02  0.21815475510E+03  0.17183454692E+03 0.  0.
        -24    2    5    5    0    0  0.55422232367E+02  0.43634364293E+02  0.68135904408E+02  0.12639451415E+03  0.79733870787E+02 0.  0.
          5    1    3    3  501    0 -0.10435385328E+03  0.43789243894E+02 -0.16788681362E+03  0.20252233645E+03  0.47000000000E+01 0. -1.
        -13    1    4    4    0    0 -0.34513234340E+02 -0.24560945201E+02 -0.10752395173E+03  0.11556731185E+03  0.00000000000E+00 0.  1.
         14    1    4    4    0    0  0.27699668130E+02  0.98547918656E+01 -0.21092692635E+03  0.21296609307E+03  0.00000000000E+00 0. -1.
         -5    1    5    5    0  502  0.55745187121E+02 -0.72717454851E+02  0.15804089522E+01  0.91760240952E+02  0.47000000000E+01 0.  1.
         11    1    6    6    0    0  0.38999917372E+02  0.24616549521E+02 -0.74721941576E+01  0.46720463941E+02  0.00000000000E+00 0. -1.
        -12    1    6    6    0    0  0.16422314995E+02  0.19017814772E+02  0.75608098565E+02  0.79674050212E+02  0.00000000000E+00 0.  1.
<mgrwt>
<rscale>  2 0.21163255E+03</rscale>
<asrwt>0</asrwt>
<pdfrwt beam="1">  1       21 0.25583779E-01 0.21329756E+03</pdfrwt>
<pdfrwt beam="2">  1       21 0.89679374E-01 0.21329756E+03</pdfrwt>
<totfact> 0.15151975E+04</totfact>
</mgrwt>
</event>
<event>
12    1  0.1039378E-001  0.1797839E+03  0.7546771E-02  0.1169098E+00
         21   -1    0    0  503  502  0.00000000000E+00  0.00000000000E+00  0.18268704480E+03  0.18268704480E+03  0.00000000000E+00 0.  1.
         21   -1    0    0  501  503 -0.00000000000E+00 -0.00000000000E+00 -0.28163109272E+03  0.28163109272E+03  0.00000000000E+00 0.  1.
          6    2    1    2  501    0 -0.29845972293E+02 -0.11137984521E+02  0.95346970231E+02  0.19960841832E+03  0.17244604713E+03 0.  0.
         24    2    3    3    0    0  0.34737709965E+01  0.27394237437E+02  0.11331775173E+03  0.14538686901E+03  0.86798142235E+02 0.  0.
         -6    2    1    2    0  502  0.29845972293E+02  0.11137984521E+02 -0.19429101816E+03  0.26470971920E+03  0.17693896953E+03 0.  0.
        -24    2    5    5    0    0  0.65410533572E+02  0.39774555125E+02 -0.66601933739E+02  0.12902079749E+03  0.79686858819E+02 0.  0.
          5    1    3    3  501    0 -0.33319743290E+02 -0.38532221958E+02 -0.17970781497E+02  0.54221549309E+02  0.47000000000E+01 0. -1.
        -11    1    4    4    0    0  0.38144111168E+02 -0.10629615625E+02  0.51134051655E+02  0.64673434915E+02  0.00000000000E+00 0.  1.
         12    1    4    4    0    0 -0.34670340171E+02  0.38023853062E+02  0.62183700073E+02  0.80713434099E+02  0.00000000000E+00 0. -1.
         -5    1    5    5    0  502 -0.35564561279E+02 -0.28636570604E+02 -0.12768908442E+03  0.13568892171E+03  0.47000000000E+01 0.  1.
         11    1    6    6    0    0  0.43021130209E+01  0.34553086971E+02  0.45141408987E+01  0.35111272602E+02  0.00000000000E+00 0. -1.
        -12    1    6    6    0    0  0.61108420551E+02  0.52214681536E+01 -0.71116074637E+02  0.93909524883E+02  0.00000000000E+00 0.  1.
<mgrwt>
<rscale>  2 0.17866852E+03</rscale>
<asrwt>0</asrwt>
<pdfrwt beam="1">  1       21 0.28105699E-01 0.17978386E+03</pdfrwt>
<pdfrwt beam="2">  1       21 0.43327860E-01 0.17978386E+03</pdfrwt>
<totfact> 0.62288384E+04</totfact>
</mgrwt>
</event>
<event>
12    1  0.1039378E-001  0.2927929E+03  0.7546771E-02  0.1088915E+00
         21   -1    0    0  503  502  0.00000000000E+00  0.00000000000E+00  0.93733996544E+03  0.93733996544E+03  0.00000000000E+00 0.  1.
         21   -1    0    0  501  503 -0.00000000000E+00 -0.00000000000E+00 -0.14147700992E+03  0.14147700992E+03  0.00000000000E+00 0.  1.
          6    2    1    2  501    0 -0.25442467968E+02  0.23469881361E+03  0.77134976635E+02  0.30278293049E+03  0.17319597597E+03 0.  0.
         24    2    3    3    0    0 -0.75813219608E+02  0.16158826129E+03  0.18999069862E+02  0.19655563109E+03  0.80092078290E+02 0.  0.
         -6    2    1    2    0  502  0.25442467968E+02 -0.23469881361E+03  0.71872797888E+03  0.77603404487E+03  0.17299733779E+03 0.  0.
        -24    2    5    5    0    0  0.63115682387E+02 -0.81392597222E+02  0.38929109806E+03  0.41069472928E+03  0.80710949602E+02 0.  0.
          5    1    3    3  501    0  0.50370751640E+02  0.73110552320E+02  0.58135906773E+02  0.10622729940E+03  0.47000000000E+01 0. -1.
        -13    1    4    4    0    0 -0.30140722114E+02  0.13836548659E+03 -0.83640439369E+00  0.14161274865E+03  0.00000000000E+00 0.  1.
         14    1    4    4    0    0 -0.45672497494E+02  0.23222774704E+02  0.19835474255E+02  0.54942882444E+02  0.00000000000E+00 0. -1.
         -5    1    5    5    0  502 -0.37673214419E+02 -0.15330621639E+03  0.32943688082E+03  0.36533931559E+03  0.47000000000E+01 0.  1.
         13    1    6    6    0    0  0.44742977070E+01 -0.23583545150E+02  0.23120692330E+03  0.23244965976E+03  0.00000000000E+00 0. -1.
        -14    1    6    6    0    0  0.58641384680E+02 -0.57809052072E+02  0.15808417476E+03  0.17824506952E+03  0.00000000000E+00 0.  1.
<mgrwt>
<rscale>  2 0.29276356E+03</rscale>
<asrwt>0</asrwt>
<pdfrwt beam="1">  1       21 0.14420614E+00 0.29279293E+03</pdfrwt>
<pdfrwt beam="2">  1       21 0.21765694E-01 0.29279293E+03</pdfrwt>
<totfact> 0.61050776E+03</totfact>
</mgrwt>
</event>
<event>
12    1  0.1039378E-001  0.1931575E+03  0.7546771E-02  0.1155916E+00
         21   -1    0    0  503  502  0.00000000000E+00  0.00000000000E+00  0.59668299664E+03  0.59668299664E+03  0.00000000000E+00 0. -1.
         21   -1    0    0  501  503 -0.00000000000E+00 -0.00000000000E+00 -0.62447959111E+02  0.62447959111E+02  0.00000000000E+00 0.  1.
          6    2    1    2  501    0  0.84267776683E+02  0.40110482802E+01  0.24450364498E+03  0.31159566185E+03  0.17376040222E+03 0.  0.
         24    2    3    3    0    0  0.10654326984E+03  0.40059929927E+02  0.22545827619E+03  0.26489945713E+03  0.79900073517E+02 0.  0.
         -6    2    1    2    0  502 -0.84267776683E+02 -0.40110482802E+01  0.28973139255E+03  0.34753529390E+03  0.17239302185E+03 0.  0.
        -24    2    5    5    0    0  0.18134334981E+02  0.49808468008E+01  0.84820046487E+02  0.11823680635E+03  0.80198747801E+02 0.  0.
          5    1    3    3  501    0 -0.22275493156E+02 -0.36048881647E+02  0.19045368785E+02  0.46696204722E+02  0.47000000000E+01 0. -1.
        -13    1    4    4    0    0  0.62818650748E+02 -0.17900864122E+02  0.89925852109E+02  0.11114532242E+03  0.00000000000E+00 0.  1.
         14    1    4    4    0    0  0.43724619091E+02  0.57960794049E+02  0.13553242408E+03  0.15375413471E+03  0.00000000000E+00 0. -1.
         -5    1    5    5    0  502 -0.10240211166E+03 -0.89918950810E+01  0.20491134606E+03  0.22929848755E+03  0.47000000000E+01 0.  1.
         13    1    6    6    0    0  0.21935343342E+02  0.22017546968E+02  0.93651802859E+02  0.98674170079E+02  0.00000000000E+00 0. -1.
        -14    1    6    6    0    0 -0.38010083606E+01 -0.17036700167E+02 -0.88317563713E+01  0.19562636268E+02  0.00000000000E+00 0.  1.
<mgrwt>
<rscale>  2 0.19284949E+03</rscale>
<asrwt>0</asrwt>
<pdfrwt beam="1">  1       21 0.91797380E-01 0.19315751E+03</pdfrwt>
<pdfrwt beam="2">  1       21 0.96073787E-02 0.19315751E+03</pdfrwt>
<totfact> 0.87377294E+04</totfact>
</mgrwt>
</event>
<event>
12    1  0.1039378E-001  0.1952437E+03  0.7546771E-02  0.1153943E+00
         21   -1    0    0  503  502  0.00000000000E+00  0.00000000000E+00  0.16229569740E+03  0.16229569740E+03  0.00000000000E+00 0.  1.
         21   -1    0    0  501  503 -0.00000000000E+00 -0.00000000000E+00 -0.25465883156E+03  0.25465883156E+03  0.00000000000E+00 0.  1.
          6    2    1    2  501    0  0.59161689055E+02 -0.66260119272E+02 -0.10524413256E+03  0.22128639654E+03  0.17320748540E+03 0.  0.
         24    2    3    3    0    0  0.75021534184E+02 -0.43075858479E+02 -0.13581071865E+03  0.17950780368E+03  0.79339398208E+02 0.  0.
         -6    2    1    2    0  502 -0.59161689055E+02  0.66260119272E+02  0.12880998396E+02  0.19566813242E+03  0.17386658410E+03 0.  0.
        -24    2    5    5    0    0 -0.47510091228E+02 -0.25058939876E+02 -0.22397806776E+02  0.96968515450E+02  0.77563341883E+02 0.  0.
          5    1    3    3  501    0 -0.15859845129E+02 -0.23184260793E+02  0.30566586088E+02  0.41778592857E+02  0.47000000000E+01 0. -1.
        -13    1    4    4    0    0  0.27802734514E+01 -0.65730735195E+00  0.10515846746E+02  0.10897018226E+02  0.00000000000E+00 0.  1.
         14    1    4    4    0    0  0.72241260733E+02 -0.42418551128E+02 -0.14632656540E+03  0.16861078546E+03  0.00000000000E+00 0. -1.
         -5    1    5    5    0  502 -0.11651597828E+02  0.91319059148E+02  0.35278805172E+02  0.98699616970E+02  0.47000000000E+01 0.  1.
         11    1    6    6    0    0  0.14150581609E+02 -0.17412337476E+02  0.12522167448E+02  0.25695002118E+02  0.00000000000E+00 0. -1.
        -12    1    6    6    0    0 -0.61660672837E+02 -0.76466023995E+01 -0.34919974224E+02  0.71273513332E+02  0.00000000000E+00 0.  1.
<mgrwt>
<rscale>  2 0.19509685E+03</rscale>
<asrwt>0</asrwt>
<pdfrwt beam="1">  1       21 0.24968569E-01 0.19524369E+03</pdfrwt>
<pdfrwt beam="2">  1       21 0.39178282E-01 0.19524369E+03</pdfrwt>
<totfact> 0.95270665E+04</totfact>
</mgrwt>
</event>
<event>
12    1  0.1039378E-001  0.1795778E+03  0.7546771E-02  0.1170022E+00
         21   -1    0    0  503  502  0.00000000000E+00  0.00000000000E+00  0.11756277124E+03  0.11756277124E+03  0.00000000000E+00 0. -1.
         21   -1    0    0  501  503 -0.00000000000E+00 -0.00000000000E+00 -0.44929939552E+03  0.44929939552E+03  0.00000000000E+00 0.  1.
          6    2    1    2  501    0  0.15523041601E+02  0.43872478077E+02 -0.34620339773E+03  0.38670262843E+03  0.16588059283E+03 0.  0.
         24    2    3    3    0    0  0.24141386752E+02 -0.16440144195E+02 -0.29594316895E+03  0.30758203139E+03  0.78557379603E+02 0.  0.
         -6    2    1    2    0  502 -0.15523041601E+02 -0.43872478077E+02  0.14466773458E+02  0.18015953833E+03  0.17344282217E+03 0.  0.
        -24    2    5    5    0    0  0.39184029099E+02 -0.97009142619E+01  0.53183451135E+02  0.10478294721E+03  0.80755747024E+02 0.  0.
          5    1    3    3  501    0 -0.86183451512E+01  0.60312622271E+02 -0.50260228781E+02  0.79120597037E+02  0.47000000000E+01 0. -1.
        -13    1    4    4    0    0 -0.11703413305E+02  0.22151302763E+02 -0.48423495011E+02  0.54520500421E+02  0.00000000000E+00 0.  1.
         14    1    4    4    0    0  0.35844800057E+02 -0.38591446957E+02 -0.24751967394E+03  0.25306153097E+03  0.00000000000E+00 0. -1.
         -5    1    5    5    0  502 -0.54707070700E+02 -0.34171563815E+02 -0.38716677677E+02  0.75376591117E+02  0.47000000000E+01 0.  1.
         11    1    6    6    0    0  0.30919225300E+02  0.26399311375E+02  0.54177139081E+02  0.67735400886E+02  0.00000000000E+00 0. -1.
        -12    1    6    6    0    0  0.82648037988E+01 -0.36100225637E+02 -0.99368794534E+00  0.37047546324E+02  0.00000000000E+00 0.  1.
<mgrwt>
<rscale>  2 0.17772613E+03</rscale>
<asrwt>0</asrwt>
<pdfrwt beam="1">  1       21 0.18086580E-01 0.17957776E+03</pdfrwt>
<pdfrwt beam="2">  1       21 0.69122983E-01 0.17957776E+03</pdfrwt>
<totfact> 0.53340749E+04</totfact>
</mgrwt>
</event>
<event>
12    1  0.1039378E-001  0.1858953E+03  0.7546771E-02  0.1162445E+00
         21   -1    0    0  501  502  0.00000000000E+00  0.00000000000E+00  0.57931455804E+03  0.57931455804E+03  0.00000000000E+00 0. -1.
         21   -1    0    0  502  503 -0.00000000000E+00 -0.00000000000E+00 -0.65361845183E+02  0.65361845183E+02  0.00000000000E+00 0.  1.
         -6    2    1    2    0  503 -0.38337119265E+01  0.66023640736E+02  0.15848751319E+03  0.24353731457E+03  0.17267979982E+03 0.  0.
        -24    2    3    3    0    0  0.24490905611E+02  0.10577323686E+03  0.12495126398E+03  0.18413121755E+03  0.80645550494E+02 0.  0.
          6    2    1    2  501    0  0.38337119265E+01 -0.66023640736E+02  0.35546519967E+03  0.40113908866E+03  0.17373324895E+03 0.  0.
         24    2    5    5    0    0  0.50041479665E+02  0.49056248834E+01  0.23672281545E+03  0.25523513967E+03  0.81111468516E+02 0.  0.
          5    1    5    5  501    0 -0.46207767739E+02 -0.70929265620E+02  0.11874238422E+03  0.14590394899E+03  0.47000000000E+01 0. -1.
        -11    1    6    6    0    0  0.38609959438E+02 -0.84837492849E+00  0.32115655138E+02  0.50228119741E+02  0.00000000000E+00 0.  1.
         12    1    6    6    0    0  0.11431520227E+02  0.57539998118E+01  0.20460716031E+03  0.20500701993E+03  0.00000000000E+00 0. -1.
         -5    1    3    3    0  503 -0.28324617537E+02 -0.39749596126E+02  0.33536249212E+02  0.59406097011E+02  0.47000000000E+01 0.  1.
         11    1    4    4    0    0  0.56472256519E+01  0.38428052427E+01  0.63005191035E+02  0.63374382892E+02  0.00000000000E+00 0. -1.
        -12    1    4    4    0    0  0.18843679959E+02  0.10193043162E+03  0.61946072943E+02  0.12075683466E+03  0.00000000000E+00 0.  1.
<mgrwt>
<rscale>  2 0.18564877E+03</rscale>
<asrwt>0</asrwt>
<pdfrwt beam="1">  1       21 0.89125313E-01 0.18589529E+03</pdfrwt>
<pdfrwt beam="2">  1       21 0.10055669E-01 0.18589529E+03</pdfrwt>
<totfact> 0.86589383E+04</totfact>
</mgrwt>
</event>
<event>
12    1  0.1039378E-001  0.1978761E+03  0.7546771E-02  0.1151802E+00
         21   -1    0    0  501  502  0.00000000000E+00  0.00000000000E+00  0.91831693593E+02  0.91831693593E+02  0.00000000000E+00 0. -1.
         21   -1    0    0  502  503 -0.00000000000E+00 -0.00000000000E+00 -0.90365241989E+03  0.90365241989E+03  0.00000000000E+00 0. -1.
         -6    2    1    2    0  503  0.33776347364E+02 -0.87212116749E+02 -0.76804155988E+03  0.79282293561E+03  0.17301322084E+03 0.  0.
        -24    2    3    3    0    0 -0.21074576757E+02 -0.10966708146E+03 -0.52710230824E+03  0.54465633371E+03  0.79640893782E+02 0.  0.
          6    2    1    2  501    0 -0.33776347364E+02  0.87212116749E+02 -0.43779166413E+02  0.20266117787E+03  0.17437930684E+03 0.  0.
         24    2    5    5    0    0  0.22881257168E+02  0.56381332073E+01  0.17010566854E+02  0.86119852093E+02  0.81067435288E+02 0.  0.
          5    1    5    5  501    0 -0.56657604532E+02  0.81573983542E+02 -0.60789733267E+02  0.11654132577E+03  0.47000000000E+01 0. -1.
        -13    1    6    6    0    0  0.11910066071E+02  0.11951934191E+02 -0.31635464691E+02  0.35853884461E+02  0.00000000000E+00 0.  1.
         14    1    6    6    0    0  0.10971191097E+02 -0.63138009838E+01  0.48646031545E+02  0.50265967632E+02  0.00000000000E+00 0. -1.
         -5    1    3    3    0  503  0.54850924122E+02  0.22454964712E+02 -0.24093925164E+03  0.24816660190E+03  0.47000000000E+01 0.  1.
         13    1    4    4    0    0 -0.21837493201E+02  0.34370011740E+01 -0.56948372436E+02  0.61088511272E+02  0.00000000000E+00 0. -1.
        -14    1    4    4    0    0  0.76291644341E+00 -0.11310408264E+03 -0.47015393580E+03  0.48356782244E+03  0.00000000000E+00 0.  1.
<mgrwt>
<rscale>  2 0.19757468E+03</rscale>
<asrwt>0</asrwt>
<pdfrwt beam="1">  1       21 0.14127952E-01 0.19787607E+03</pdfrwt>
<pdfrwt beam="2">  1       21 0.13902346E+00 0.19787607E+03</pdfrwt>
<totfact> 0.15878761E+04</totfact>
</mgrwt>
</event>
<event>
12    1  0.1039378E-001  0.2102367E+03  0.7546771E-02  0.1141432E+00
         21   -1    0    0  501  502  0.00000000000E+00  0.00000000000E+00  0.78891843203E+03  0.78891843203E+03  0.00000000000E+00 0. -1.
         21   -1    0    0  502  503 -0.00000000000E+00 -0.00000000000E+00 -0.26164259029E+03  0.26164259029E+03  0.00000000000E+00 0.  1.
         -6    2    1    2    0  503  0.75781537204E+02  0.91804620840E+02 -0.20206499086E+03  0.29159858989E+03  0.17328747013E+03 0.  0.
        -24    2    3    3    0    0  0.16199077219E+02  0.96883584486E+01 -0.27543289479E+02  0.89675177823E+02  0.83226980782E+02 0.  0.
          6    2    1    2  501    0 -0.75781537204E+02 -0.91804620840E+02  0.72934083260E+03  0.75896243244E+03  0.17295951539E+03 0.  0.
         24    2    5    5    0    0 -0.44786401809E+02 -0.11748896395E+03  0.36908794328E+03  0.39643709792E+03  0.71602962940E+02 0.  0.
          5    1    5    5  501    0 -0.30995135396E+02  0.25684343105E+02  0.36025288932E+03  0.36252533451E+03  0.47000000000E+01 0. -1.
        -13    1    6    6    0    0  0.18682082418E+02 -0.31400491303E+02  0.73213209910E+02  0.81824111133E+02  0.00000000000E+00 0.  1.
         14    1    6    6    0    0 -0.63468484226E+02 -0.86088472643E+02  0.29587473337E+03  0.31461298679E+03  0.00000000000E+00 0. -1.
         -5    1    3    3    0  503  0.59582459985E+02  0.82116262392E+02 -0.17452170138E+03  0.20192341206E+03  0.47000000000E+01 0.  1.
         13    1    4    4    0    0  0.48327173944E+02  0.14464495590E+02 -0.26940257649E+02  0.57188415403E+02  0.00000000000E+00 0. -1.
        -14    1    4    4    0    0 -0.32128096725E+02 -0.47761371414E+01 -0.60303183010E+00  0.32486762420E+02  0.00000000000E+00 0.  1.
<mgrwt>
<rscale>  2 0.21016913E+03</rscale>
<asrwt>0</asrwt>
<pdfrwt beam="1">  1       21 0.12137207E+00 0.21023672E+03</pdfrwt>
<pdfrwt beam="2">  1       21 0.40252707E-01 0.21023672E+03</pdfrwt>
<totfact> 0.30076787E+03</totfact>
</mgrwt>
</event>
<event>
12    1  0.1039378E-001  0.1734841E+03  0.7546771E-02  0.1174487E+00
         21   -1    0    0  501  502  0.00000000000E+00  0.00000000000E+00  0.88698825463E+03  0.88698825463E+03  0.00000000000E+00 0.  1.
         21   -1    0    0  502  503 -0.00000000000E+00 -0.00000000000E+00 -0.46382464156E+02  0.46382464156E+02  0.00000000000E+00 0.  1.
         -6    2    1    2    0  503 -0.13293516460E+02 -0.35178473016E+02  0.17606195663E+03  0.24655542748E+03  0.16845629612E+03 0.  0.
        -24    2    3    3    0    0  0.29750836441E+02  0.28854504113E+02  0.75517090016E+02  0.11973114479E+03  0.83156608107E+02 0.  0.
          6    2    1    2  501    0  0.13293516460E+02  0.35178473016E+02  0.66454383385E+03  0.68681529131E+03  0.16935907041E+03 0.  0.
         24    2    5    5    0    0  0.46449552018E+02  0.11914359850E+02  0.61601073332E+03  0.62342685781E+03  0.83019941081E+02 0.  0.
          5    1    5    5  501    0 -0.33156035557E+02  0.23264113166E+02  0.48533100528E+02  0.63388433505E+02  0.47000000000E+01 0. -1.
        -13    1    6    6    0    0 -0.67335312514E+01 -0.24792081668E+02  0.28581936411E+03  0.28697159556E+03  0.00000000000E+00 0.  1.
         14    1    6    6    0    0  0.53183083269E+02  0.36706441518E+02  0.33019136921E+03  0.33645526225E+03  0.00000000000E+00 0. -1.
         -5    1    3    3    0  503 -0.43044352901E+02 -0.64032977130E+02  0.10054486662E+03  0.12682428269E+03  0.47000000000E+01 0.  1.
         11    1    4    4    0    0  0.81209720107E+01 -0.26402844214E+01  0.80720978726E+02  0.81171409343E+02  0.00000000000E+00 0. -1.
        -12    1    4    4    0    0  0.21629864430E+02  0.31494788535E+02 -0.52038887099E+01  0.38559735448E+02  0.00000000000E+00 0.  1.
<mgrwt>
<rscale>  2 0.17326339E+03</rscale>
<asrwt>0</asrwt>
<pdfrwt beam="1">  1       21 0.13645972E+00 0.17348411E+03</pdfrwt>
<pdfrwt beam="2">  1       21 0.71357644E-02 0.17348411E+03</pdfrwt>
<totfact> 0.56503421E+04</totfact>
</mgrwt>
</event>
<event>
12    1  0.1039378E-001  0.1865488E+03  0.7546771E-02  0.1162755E+00
         21   -1    0    0  501  502  0.00000000000E+00  0.00000000000E+00  0.35528489097E+02  0.35528489097E+02  0.00000000000E+00 0.  1.
         21   -1    0    0  502  503 -0.00000000000E+00 -0.00000000000E+00 -0.98703628615E+03  0.98703628615E+03  0.00000000000E+00 0.  1.
         -6    2    1    2    0  503 -0.19085436990E+02 -0.67511016111E+02 -0.37619888299E+03  0.41776662438E+03  0.16757494347E+03 0.  0.
        -24    2    3    3    0    0  0.84738590456E+01 -0.10029462414E+03 -0.33271078232E+03  0.35654910521E+03  0.79372424891E+02 0.  0.
          6    2    1    2  501    0  0.19085436990E+02  0.67511016111E+02 -0.57530891406E+03  0.60479815087E+03  0.17285388481E+03 0.  0.
         24    2    5    5    0    0  0.35289701496E+02  0.10662113851E+03 -0.35826239425E+03  0.38361166479E+03  0.78692668133E+02 0.  0.
          5    1    5    5  501    0 -0.16204264506E+02 -0.39110122402E+02 -0.21704651981E+03  0.22118648608E+03  0.47000000000E+01 0. -1.
        -11    1    6    6    0    0  0.37973220867E+02  0.62551173175E+02 -0.30861678050E+03  0.31717334689E+03  0.00000000000E+00 0.  1.
         12    1    6    6    0    0 -0.26835193714E+01  0.44069965338E+02 -0.49645613754E+02  0.66438317905E+02  0.00000000000E+00 0. -1.
         -5    1    3    3    0  503 -0.27559296036E+02  0.32783608033E+02 -0.43488100675E+02  0.61217519175E+02  0.47000000000E+01 0.  1.
         13    1    4    4    0    0  0.18445073186E+02 -0.26733096772E+01 -0.13007373731E+03  0.13140222391E+03  0.00000000000E+00 0. -1.
        -14    1    4    4    0    0 -0.99712141399E+01 -0.97621314467E+02 -0.20263704501E+03  0.22514688130E+03  0.00000000000E+00 0.  1.
<mgrwt>
<rscale>  2 0.18531651E+03</rscale>
<asrwt>0</asrwt>
<pdfrwt beam="1">  1       21 0.54659207E-02 0.18654881E+03</pdfrwt>
<pdfrwt beam="2">  1       21 0.15185175E+00 0.18654881E+03</pdfrwt>
<totfact> 0.67120640E+04</totfact>
</mgrwt>
</event>
<event>
12    1  0.1039378E-001  0.3444064E+03  0.7546771E-02  0.1064936E+00
         21   -1    0    0  503  502  0.00000000000E+00  0.00000000000E+00  0.94093333862E+03  0.94093333862E+03  0.00000000000E+00 0.  1.
         21   -1    0    0  501  503 -0.00000000000E+00 -0.00000000000E+00 -0.17329302530E+03  0.17329302530E+03  0.00000000000E+00 0.  1.
          6    2    1    2  501    0  0.56299610643E+02  0.29202406900E+03  0.92951203331E+02  0.35671651541E+03  0.17366359185E+03 0.  0.
         24    2    3    3    0    0  0.39143280682E+02  0.27635074606E+03  0.12515271442E+03  0.31672876697E+03  0.82170424280E+02 0.  0.
         -6    2    1    2    0  502 -0.56299610643E+02 -0.29202406900E+03  0.67468910998E+03  0.75750984850E+03  0.17368958636E+03 0.  0.
        -24    2    5    5    0    0 -0.50097682984E+02 -0.13979298534E+03  0.48894949200E+03  0.51723071410E+03  0.80025928860E+02 0.  0.
          5    1    3    3  501    0  0.17156329961E+02  0.15673322940E+02 -0.32201511087E+02  0.39987748448E+02  0.47000000000E+01 0. -1.
        -13    1    4    4    0    0  0.23812709627E+02  0.21168885862E+03  0.54815498371E+02  0.21996353531E+03  0.00000000000E+00 0.  1.
         14    1    4    4    0    0  0.15330571055E+02  0.64661887439E+02  0.70337216047E+02  0.96765231655E+02  0.00000000000E+00 0. -1.
         -5    1    5    5    0  502 -0.62019276597E+01 -0.15223108366E+03  0.18573961798E+03  0.24027913440E+03  0.47000000000E+01 0.  1.
         13    1    6    6    0    0  0.45228229914E+01 -0.50958999953E+01 -0.32652413680E+00  0.68213446317E+01  0.00000000000E+00 0. -1.
        -14    1    6    6    0    0 -0.54620505975E+02 -0.13469708534E+03  0.48927601614E+03  0.51040936947E+03  0.00000000000E+00 0.  1.
<mgrwt>
<rscale>  2 0.34440313E+03</rscale>
<asrwt>0</asrwt>
<pdfrwt beam="1">  1       21 0.14475897E+00 0.34440641E+03</pdfrwt>
<pdfrwt beam="2">  1       21 0.26660466E-01 0.34440641E+03</pdfrwt>
<totfact> 0.39837936E+03</totfact>
</mgrwt>
</event>
<event>
12    1  0.1039378E-001  0.2738077E+03  0.7546771E-02  0.1099533E+00
         21   -1    0    0  503  502  0.00000000000E+00  0.00000000000E+00  0.45486874560E+03  0.45486874560E+03  0.00000000000E+00 0.  1.
         21   -1    0    0  501  503 -0.00000000000E+00 -0.00000000000E+00 -0.56994039077E+03  0.56994039077E+03  0.00000000000E+00 0. -1.
          6    2    1    2  501    0 -0.15088029098E+03 -0.14352275820E+03 -0.49038830464E+03  0.56023057204E+03  0.17324537570E+03 0.  0.
         24    2    3    3    0    0 -0.70938647002E+02 -0.13808433710E+01 -0.15156896799E+03  0.18417788520E+03  0.76903465292E+02 0.  0.
         -6    2    1    2    0  502  0.15088029098E+03  0.14352275820E+03  0.37531665947E+03  0.46457856433E+03  0.17778358540E+03 0.  0.
        -24    2    5    5    0    0  0.60812042948E+02  0.20514410851E+02  0.23867881335E+03  0.25979737913E+03  0.80050962773E+02 0.  0.
          5    1    3    3  501    0 -0.79941643978E+02 -0.14214191483E+03 -0.33881933665E+03  0.37605268684E+03  0.47000000000E+01 0. -1.
        -13    1    4    4    0    0 -0.42245680169E+02 -0.35519548451E+02 -0.55548589749E+02  0.78306970559E+02  0.00000000000E+00 0.  1.
         14    1    4    4    0    0 -0.28692966833E+02  0.34138705080E+02 -0.96020378241E+02  0.10587091464E+03  0.00000000000E+00 0. -1.
         -5    1    5    5    0  502  0.90068248032E+02  0.12300834735E+03  0.13663784612E+03  0.20478118520E+03  0.47000000000E+01 0.  1.
         11    1    6    6    0    0 -0.79740939468E+00 -0.25429648202E+02  0.51053462394E+02  0.57041729390E+02  0.00000000000E+00 0. -1.
        -12    1    6    6    0    0  0.61609452343E+02  0.45944059053E+02  0.18762535096E+03  0.20275564974E+03  0.00000000000E+00 0.  1.
<mgrwt>
<rscale>  2 0.27307357E+03</rscale>
<asrwt>0</asrwt>
<pdfrwt beam="1">  1       21 0.69979807E-01 0.27380768E+03</pdfrwt>
<pdfrwt beam="2">  1       21 0.87683137E-01 0.27380768E+03</pdfrwt>
<totfact> 0.19427013E+03</totfact>
</mgrwt>
</event>
<event>
12    1  0.1039378E-001  0.2137714E+03  0.7546771E-02  0.1138636E+00
         21   -1    0    0  501  502  0.00000000000E+00  0.00000000000E+00  0.46705633876E+03  0.46705633876E+03  0.00000000000E+00 0.  1.
         21   -1    0    0  502  503 -0.00000000000E+00 -0.00000000000E+00 -0.10837511670E+03  0.10837511670E+03  0.00000000000E+00 0.  1.
         -6    2    1    2    0  503 -0.11138930020E+02  0.12502108950E+03  0.89468880242E+02  0.23173881114E+03  0.17304290646E+03 0.  0.
        -24    2    3    3    0    0  0.14677919133E+02  0.55054724053E+02  0.11635084011E+03  0.15232513625E+03  0.80118444744E+02 0.  0.
          6    2    1    2  501    0  0.11138930020E+02 -0.12502108950E+03  0.26921234181E+03  0.34369264432E+03  0.17290170674E+03 0.  0.
         24    2    5    5    0    0  0.40483363403E+02 -0.12441995089E+03  0.13073252271E+03  0.20205858261E+03  0.81347719197E+02 0.  0.
          5    1    5    5  501    0 -0.29344433383E+02 -0.60113860659E+00  0.13847981910E+03  0.14163406171E+03  0.47000000000E+01 0. -1.
        -11    1    6    6    0    0 -0.16262406640E+02 -0.73511097321E+02  0.83253137517E+02  0.11224719242E+03  0.00000000000E+00 0.  1.
         12    1    6    6    0    0  0.56745770043E+02 -0.50908853573E+02  0.47479385198E+02  0.89811390194E+02  0.00000000000E+00 0. -1.
         -5    1    3    3    0  503 -0.25816849153E+02  0.69966365447E+02 -0.26881959865E+02  0.79413674895E+02  0.47000000000E+01 0.  1.
         11    1    4    4    0    0 -0.21512257912E+02 -0.15409174795E+01  0.47790746771E+01  0.22090523351E+02  0.00000000000E+00 0. -1.
        -12    1    4    4    0    0  0.36190177044E+02  0.56595641533E+02  0.11157176543E+03  0.13023461290E+03  0.00000000000E+00 0.  1.
<mgrwt>
<rscale>  2 0.21374279E+03</rscale>
<asrwt>0</asrwt>
<pdfrwt beam="1">  1       21 0.71854821E-01 0.21377136E+03</pdfrwt>
<pdfrwt beam="2">  1       21 0.16673095E-01 0.21377136E+03</pdfrwt>
<totfact> 0.55977884E+04</totfact>
</mgrwt>
</event>
<event>
12    1  0.1039378E-001  0.1975758E+03  0.7546771E-02  0.1151861E+00
         21   -1    0    0  501  502  0.00000000000E+00  0.00000000000E+00  0.24068790894E+03  0.24068790894E+03  0.00000000000E+00 0. -1.
         21   -1    0    0  502  503 -0.00000000000E+00 -0.00000000000E+00 -0.38460061200E+03  0.38460061200E+03  0.00000000000E+00 0. -1.
         -6    2    1    2    0  503 -0.92215207502E-01  0.93657791598E+02 -0.30981216935E+03  0.36729850620E+03  0.17364567932E+03 0.  0.
        -24    2    3    3    0    0  0.65494470772E+02  0.32981621266E+02 -0.15922433608E+03  0.19213573460E+03  0.78653914515E+02 0.  0.
          6    2    1    2  501    0  0.92215207502E-01 -0.93657791598E+02  0.16589946629E+03  0.25799001473E+03  0.17396673347E+03 0.  0.
         24    2    5    5    0    0 -0.66226858959E+02 -0.52609435782E+02  0.76188902628E+02  0.13902253032E+03  0.79804545437E+02 0.  0.
          5    1    5    5  501    0  0.66319074167E+02 -0.41048355817E+02  0.89710563665E+02  0.11896748441E+03  0.47000000000E+01 0. -1.
        -13    1    6    6    0    0 -0.21607988039E+02  0.67644232749E+01 -0.10424176178E+02  0.24926412063E+02  0.00000000000E+00 0.  1.
         14    1    6    6    0    0 -0.44618870920E+02 -0.59373859057E+02  0.86613078806E+02  0.11409611826E+03  0.00000000000E+00 0. -1.
         -5    1    3    3    0  503 -0.65586685980E+02  0.60676170332E+02 -0.15058783327E+03  0.17516277160E+03  0.47000000000E+01 0.  1.
         11    1    4    4    0    0  0.32199831366E+02  0.53883655616E+02 -0.12557155582E+03  0.14038694068E+03  0.00000000000E+00 0. -1.
        -12    1    4    4    0    0  0.33294639406E+02 -0.20902034351E+02 -0.33652780256E+02  0.51748793920E+02  0.00000000000E+00 0.  1.
<mgrwt>
<rscale>  2 0.19750515E+03</rscale>
<asrwt>0</asrwt>
<pdfrwt beam="1">  1       21 0.37028909E-01 0.19757585E+03</pdfrwt>
<pdfrwt beam="2">  1       21 0.59169324E-01 0.19757585E+03</pdfrwt>
<totfact> 0.18723152E+04</totfact>
</mgrwt>
</event>
<event>
12    1  0.1039378E-001  0.1758988E+03  0.7546771E-02  0.1172039E+00
         21   -1    0    0  503  502  0.00000000000E+00  0.00000000000E+00  0.16742887283E+03  0.16742887283E+03  0.00000000000E+00 0.  1.
         21   -1    0    0  501  503 -0.00000000000E+00 -0.00000000000E+00 -0.18400439013E+03  0.18400439013E+03  0.00000000000E+00 0.  1.
          6    2    1    2  501    0  0.95148217404E+01 -0.23450052066E+02 -0.11860465079E+02  0.17547124153E+03  0.17323120157E+03 0.  0.
         24    2    3    3    0    0 -0.23427334211E+02  0.45572823347E+02 -0.21078087354E+02  0.98293540547E+02  0.81188743867E+02 0.  0.
         -6    2    1    2    0  502 -0.95148217404E+01  0.23450052066E+02 -0.47150522282E+01  0.17596202143E+03  0.17406884986E+03 0.  0.
        -24    2    5    5    0    0  0.11971397460E+02 -0.52124968852E+02 -0.29193285250E+01  0.97231112465E+02  0.81148259483E+02 0.  0.
          5    1    3    3  501    0  0.32942155952E+02 -0.69022875414E+02  0.92176222749E+01  0.77177700986E+02  0.47000000000E+01 0. -1.
        -11    1    4    4    0    0  0.11316417737E+02  0.62004866707E+01 -0.40346564383E+02  0.42359799372E+02  0.00000000000E+00 0.  1.
         12    1    4    4    0    0 -0.34743751948E+02  0.39372336676E+02  0.19268477029E+02  0.55933741175E+02  0.00000000000E+00 0. -1.
         -5    1    5    5    0  502 -0.21486219201E+02  0.75575020918E+02 -0.17957237032E+01  0.78730908962E+02  0.47000000000E+01 0.  1.
         13    1    6    6    0    0 -0.17293300851E+01  0.19659956583E+02 -0.12744217705E+02  0.23492968317E+02  0.00000000000E+00 0. -1.
        -14    1    6    6    0    0  0.13700727545E+02 -0.71784925435E+02  0.98248891805E+01  0.73738144148E+02  0.00000000000E+00 0.  1.
<mgrwt>
<rscale>  2 0.17569125E+03</rscale>
<asrwt>0</asrwt>
<pdfrwt beam="1">  1       21 0.25758288E-01 0.17589884E+03</pdfrwt>
<pdfrwt beam="2">  1       21 0.28308368E-01 0.17589884E+03</pdfrwt>
<totfact> 0.17151056E+05</totfact>
</mgrwt>
</event>
<event>
12    1  0.1039378E-001  0.1738240E+03  0.7546771E-02  0.1174333E+00
         21   -1    0    0  501  502  0.00000000000E+00  0.00000000000E+00  0.23533281476E+02  0.23533281476E+02  0.00000000000E+00 0.  1.
         21   -1    0    0  502  503 -0.00000000000E+00 -0.00000000000E+00 -0.14410851178E+04  0.14410851178E+04  0.00000000000E+00 0.  1.
         -6    2    1    2    0  503  0.12997875898E+01  0.14677609259E+02 -0.96264305630E+03  0.97821083925E+03  0.17319835603E+03 0.  0.
        -24    2    3    3    0    0  0.68015036644E+02  0.84652712264E+01 -0.58703381833E+03  0.59664314245E+03  0.81710645192E+02 0.  0.
          6    2    1    2  501    0 -0.12997875898E+01 -0.14677609259E+02 -0.45490877999E+03  0.48640755999E+03  0.17156105222E+03 0.  0.
         24    2    5    5    0    0  0.18311776430E+02 -0.64102051081E+02 -0.37875453073E+03  0.39340783648E+03  0.82887496907E+02 0.  0.
          5    1    5    5  501    0 -0.19611564020E+02  0.49424441822E+02 -0.76154249260E+02  0.92999723511E+02  0.47000000000E+01 0. -1.
        -11    1    6    6    0    0 -0.13764543237E+01 -0.64527947929E+02 -0.14369237778E+03  0.15752222104E+03  0.00000000000E+00 0.  1.
         12    1    6    6    0    0  0.19688230754E+02  0.42589684811E+00 -0.23506215295E+03  0.23588561544E+03  0.00000000000E+00 0. -1.
         -5    1    3    3    0  503 -0.66715249054E+02  0.62123380329E+01 -0.37560923797E+03  0.38156769680E+03  0.47000000000E+01 0.  1.
         11    1    4    4    0    0 -0.94662173578E+00  0.14246517458E+02 -0.16053280700E+02  0.21484114448E+02  0.00000000000E+00 0. -1.
        -12    1    4    4    0    0  0.68961658380E+02 -0.57812462318E+01 -0.57098053763E+03  0.57515902800E+03  0.00000000000E+00 0.  1.
<mgrwt>
<rscale>  2 0.17341474E+03</rscale>
<asrwt>0</asrwt>
<pdfrwt beam="1">  1       21 0.36205045E-02 0.17382403E+03</pdfrwt>
<pdfrwt beam="2">  1       21 0.22170542E+00 0.17382403E+03</pdfrwt>
<totfact> 0.46093725E+04</totfact>
</mgrwt>
</event>
<event>
12    1  0.1039378E-001  0.3957271E+03  0.7546771E-02  0.1045308E+00
         21   -1    0    0  501  502  0.00000000000E+00  0.00000000000E+00  0.12689207908E+03  0.12689207908E+03  0.00000000000E+00 0. -1.
         21   -1    0    0  502  503 -0.00000000000E+00 -0.00000000000E+00 -0.15657756508E+04  0.15657756508E+04  0.00000000000E+00 0.  1.
         -6    2    1    2    0  503 -0.35536073419E+03 -0.14722859812E+02 -0.32879673050E+03  0.51415479016E+03  0.17248143160E+03 0.  0.
        -24    2    3    3    0    0 -0.22261098422E+03 -0.69932235616E+02 -0.16573861521E+03  0.29671374009E+03  0.78253352065E+02 0.  0.
          6    2    1    2  501    0  0.35536073419E+03  0.14722859812E+02 -0.11100868412E+04  0.11785129397E+04  0.17349910678E+03 0.  0.
         24    2    5    5    0    0  0.14793886290E+03  0.67233581220E+02 -0.50489413988E+03  0.53659277000E+03  0.81286202570E+02 0.  0.
          5    1    5    5  501    0  0.20742187129E+03 -0.52510721408E+02 -0.60519270135E+03  0.64192016975E+03  0.47000000000E+01 0. -1.
        -11    1    6    6    0    0  0.29602341040E+02  0.33607190337E+01 -0.21467893578E+03  0.21673633404E+03  0.00000000000E+00 0.  1.
         12    1    6    6    0    0  0.11833652186E+03  0.63872862187E+02 -0.29021520411E+03  0.31985643596E+03  0.00000000000E+00 0. -1.
         -5    1    3    3    0  503 -0.13274974997E+03  0.55209375803E+02 -0.16305811529E+03  0.21744105007E+03  0.47000000000E+01 0.  1.
         13    1    4    4    0    0 -0.36206388600E+02  0.14042992697E+02 -0.44334144707E+02  0.58937463521E+02  0.00000000000E+00 0. -1.
        -14    1    4    4    0    0 -0.18640459562E+03 -0.83975228312E+02 -0.12140447050E+03  0.23777627657E+03  0.00000000000E+00 0.  1.
<mgrwt>
<rscale>  2 0.39561579E+03</rscale>
<asrwt>0</asrwt>
<pdfrwt beam="1">  1       21 0.19521858E-01 0.39572712E+03</pdfrwt>
<pdfrwt beam="2">  1       21 0.24088856E+00 0.39572712E+03</pdfrwt>
<totfact> 0.15509990E+03</totfact>
</mgrwt>
</event>
<event>
12    1  0.1039378E-001  0.2354587E+03  0.7546771E-02  0.1123216E+00
         21   -1    0    0  501  502  0.00000000000E+00  0.00000000000E+00  0.33813244220E+03  0.33813244220E+03  0.00000000000E+00 0. -1.
         21   -1    0    0  502  503 -0.00000000000E+00 -0.00000000000E+00 -0.23143910018E+03  0.23143910018E+03  0.00000000000E+00 0. -1.
         -6    2    1    2    0  503 -0.12617280216E+03 -0.93339093535E+02 -0.10191306265E+03  0.25656787935E+03  0.17552504661E+03 0.  0.
        -24    2    3    3    0    0 -0.51134313136E+02  0.21503687522E+02 -0.46045775065E+02  0.10836908375E+03  0.80910557743E+02 0.  0.
          6    2    1    2  501    0  0.12617280216E+03  0.93339093535E+02  0.20860640466E+03  0.31300366303E+03  0.17269307634E+03 0.  0.
         24    2    5    5    0    0  0.21137929913E+02  0.23984901446E+02  0.25616022381E+02  0.90855292886E+02  0.81095105058E+02 0.  0.
          5    1    5    5  501    0  0.10503487225E+03  0.69354192089E+02  0.18299038228E+03  0.22214837014E+03  0.47000000000E+01 0. -1.
        -13    1    6    6    0    0  0.17921009000E+02 -0.25639672973E+02 -0.61033128306E+01  0.31871708791E+02  0.00000000000E+00 0.  1.
         14    1    6    6    0    0  0.32169209137E+01  0.49624574420E+02  0.31719335211E+02  0.58983584095E+02  0.00000000000E+00 0. -1.
         -5    1    3    3    0  503 -0.75038489026E+02 -0.11484278106E+03 -0.55867287581E+02  0.14819879560E+03  0.47000000000E+01 0.  1.
         13    1    4    4    0    0 -0.49478467137E+02 -0.67176171033E+01 -0.58982440794E+02  0.77279838327E+02  0.00000000000E+00 0. -1.
        -14    1    4    4    0    0 -0.16558459993E+01  0.28221304625E+02  0.12936665729E+02  0.31089245422E+02  0.00000000000E+00 0.  1.
<mgrwt>
<rscale>  2 0.23493107E+03</rscale>
<asrwt>0</asrwt>
<pdfrwt beam="1">  1       21 0.52020376E-01 0.23545871E+03</pdfrwt>
<pdfrwt beam="2">  1       21 0.35606015E-01 0.23545871E+03</pdfrwt>
<totfact> 0.26074309E+04</totfact>
</mgrwt>
</event>
<event>
12    1  0.1039378E-001  0.2435380E+03  0.7546771E-02  0.1117667E+00
         21   -1    0    0  503  502  0.00000000000E+00  0.00000000000E+00  0.22525214030E+03  0.22525214030E+03  0.00000000000E+00 0.  1.
         21   -1    0    0  501  503 -0.00000000000E+00 -0.00000000000E+00 -0.42601924206E+03  0.42601924206E+03  0.00000000000E+00 0.  1.
          6    2    1    2  501    0  0.76693528469E+02 -0.15282505860E+03 -0.30264146248E+03  0.38846185033E+03  0.17341671922E+03 0.  0.
         24    2    3    3    0    0  0.56478944354E+01 -0.10090995387E+03 -0.87869565809E+02  0.15631595264E+03  0.80615748792E+02 0.  0.
         -6    2    1    2    0  502 -0.76693528469E+02  0.15282505860E+03  0.10187436072E+03  0.26280953203E+03  0.17161896430E+03 0.  0.
        -24    2    5    5    0    0 -0.78028465311E+02  0.86343625604E+02 -0.25575412755E+01  0.13891572611E+03  0.75811442822E+02 0.  0.
          5    1    3    3  501    0  0.71045634034E+02 -0.51915104728E+02 -0.21477189667E+03  0.23214589769E+03  0.47000000000E+01 0. -1.
        -11    1    4    4    0    0  0.41360449359E+02 -0.43659313636E+02 -0.28990492890E+02  0.66762797398E+02  0.00000000000E+00 0.  1.
         12    1    4    4    0    0 -0.35712554924E+02 -0.57250640235E+02 -0.58879072919E+02  0.89553155245E+02  0.00000000000E+00 0. -1.
         -5    1    5    5    0  502  0.13349368415E+01  0.66481432996E+02  0.10443190199E+03  0.12389380591E+03  0.47000000000E+01 0.  1.
         13    1    6    6    0    0 -0.72521086375E+01  0.49756755696E-01 -0.24171449134E+02  0.25235976475E+02  0.00000000000E+00 0. -1.
        -14    1    6    6    0    0 -0.70776356673E+02  0.86293868848E+02  0.21613907858E+02  0.11367974964E+03  0.00000000000E+00 0.  1.
<mgrwt>
<rscale>  2 0.24321815E+03</rscale>
<asrwt>0</asrwt>
<pdfrwt beam="1">  1       21 0.34654175E-01 0.24353799E+03</pdfrwt>
<pdfrwt beam="2">  1       21 0.65541422E-01 0.24353799E+03</pdfrwt>
<totfact> 0.16683417E+04</totfact>
</mgrwt>
</event>
<event>
12    1  0.1039378E-001  0.1963000E+03  0.7546771E-02  0.1153035E+00
         21   -1    0    0  503  502  0.00000000000E+00  0.00000000000E+00  0.16335914738E+03  0.16335914738E+03  0.00000000000E+00 0.  1.
         21   -1    0    0  501  503 -0.00000000000E+00 -0.00000000000E+00 -0.29386221771E+03  0.29386221771E+03  0.00000000000E+00 0. -1.
          6    2    1    2  501    0  0.79535931122E+02  0.48904988772E+02  0.37036892341E+02  0.19914518511E+03  0.17195758516E+03 0.  0.
         24    2    3    3    0    0 -0.22151689183E+02 -0.13826607314E+01 -0.19677446538E+02  0.72228574499E+02  0.65857087602E+02 0.  0.
         -6    2    1    2    0  502 -0.79535931122E+02 -0.48904988772E+02 -0.16753996267E+03  0.25807617998E+03  0.17267314011E+03 0.  0.
        -24    2    5    5    0    0  0.21936804287E+02 -0.16278889768E+02 -0.10805272581E+03  0.13592054271E+03  0.77799593450E+02 0.  0.
          5    1    3    3  501    0  0.10168762030E+03  0.50287649503E+02  0.56714338879E+02  0.12691661062E+03  0.47000000000E+01 0. -1.
        -13    1    4    4    0    0 -0.14164187734E+02  0.31136678410E+02 -0.18111952626E+02  0.38706069091E+02  0.00000000000E+00 0.  1.
         14    1    4    4    0    0 -0.79875014490E+01 -0.32519339141E+02 -0.15654939120E+01  0.33522505407E+02  0.00000000000E+00 0. -1.
         -5    1    5    5    0  502 -0.10147273541E+03 -0.32626099004E+02 -0.59487236855E+02  0.12215563727E+03  0.47000000000E+01 0.  1.
         13    1    6    6    0    0 -0.20443588675E+02  0.41006871078E+00 -0.20546696955E+01  0.20550672540E+02  0.00000000000E+00 0. -1.
        -14    1    6    6    0    0  0.42380392962E+02 -0.16688958479E+02 -0.10599805612E+03  0.11536987017E+03  0.00000000000E+00 0.  1.
<mgrwt>
<rscale>  2 0.19614249E+03</rscale>
<asrwt>0</asrwt>
<pdfrwt beam="1">  1       21 0.25132177E-01 0.19629996E+03</pdfrwt>
<pdfrwt beam="2">  1       21 0.45209572E-01 0.19629996E+03</pdfrwt>
<totfact> 0.70268612E+04</totfact>
</mgrwt>
</event>
<event>
11    1  0.1039378E-001  0.2022871E+03  0.7546771E-02  0.1148641E+00
         21   -1    0    0  503  502  0.00000000000E+00  0.00000000000E+00  0.17070263916E+03  0.17070263916E+03  0.00000000000E+00 0. -1.
         21   -1    0    0  501  503 -0.00000000000E+00 -0.00000000000E+00 -0.26706542793E+03  0.26706542793E+03  0.00000000000E+00 0. -1.
          6    2    1    2  501    0 -0.86770698208E+02 -0.50934178254E+02 -0.12346119143E+03  0.23367395276E+03  0.17098949040E+03 0.  0.
         -6    2    1    2    0  502  0.86770698208E+02  0.50934178254E+02  0.27098402662E+02  0.20409411433E+03  0.17548971336E+03 0.  0.
        -24    2    4    4    0    0  0.70507732582E+02  0.69382393891E+02  0.76479389506E+02  0.14872812682E+03  0.80533854696E+02 0.  0.
          5    1    3    3  501    0 -0.81846242177E+02 -0.65182998731E+02 -0.17191467478E+01  0.10475054247E+03  0.47000000000E+01 0. -1.
        -13    1    3    3    0    0  0.11821369151E+02  0.56178711261E+01 -0.12601144932E+02  0.18168491908E+02  0.00000000000E+00 0.  1.
         14    1    3    3    0    0 -0.16745825182E+02  0.86309493506E+01 -0.10914089975E+03  0.11075491838E+03  0.00000000000E+00 0. -1.
         -5    1    4    4    0  502  0.16262965626E+02 -0.18448215637E+02 -0.49380986844E+02  0.55365987509E+02  0.47000000000E+01 0.  1.
         13    1    5    5    0    0  0.63506826875E+02  0.64348015501E+02  0.21306823973E+02  0.92885762668E+02  0.00000000000E+00 0. -1.
        -14    1    5    5    0    0  0.70009057067E+01  0.50343783902E+01  0.55172565534E+02  0.55842364152E+02  0.00000000000E+00 0.  1.
<mgrwt>
<rscale>  2 0.20130717E+03</rscale>
<asrwt>0</asrwt>
<pdfrwt beam="1">  1       21 0.26261945E-01 0.20228713E+03</pdfrwt>
<pdfrwt beam="2">  1       21 0.41086989E-01 0.20228713E+03</pdfrwt>
<totfact> 0.78316181E+04</totfact>
</mgrwt>
</event>
<event>
12    1  0.1039378E-001  0.1980439E+03  0.7546771E-02  0.1152986E+00
         21   -1    0    0  503  502  0.00000000000E+00  0.00000000000E+00  0.39122067845E+02  0.39122067845E+02  0.00000000000E+00 0.  1.
         21   -1    0    0  501  503 -0.00000000000E+00 -0.00000000000E+00 -0.10468473734E+04  0.10468473734E+04  0.00000000000E+00 0.  1.
          6    2    1    2  501    0  0.77408103044E+02  0.23798769145E+02 -0.36172623044E+03  0.41239208950E+03  0.18072900670E+03 0.  0.
         24    2    3    3    0    0  0.90205425790E+01  0.67594685825E+02 -0.13965264797E+03  0.17588900966E+03  0.82363037173E+02 0.  0.
         -6    2    1    2    0  502 -0.77408103044E+02 -0.23798769145E+02 -0.64599907507E+03  0.67357735170E+03  0.17272303814E+03 0.  0.
        -24    2    5    5    0    0 -0.11674603637E+03  0.22351597573E+00 -0.42856335877E+03  0.45126018209E+03  0.79621055597E+02 0.  0.
          5    1    3    3  501    0  0.68387560465E+02 -0.43795916680E+02 -0.22207358247E+03  0.23650307984E+03  0.47000000000E+01 0. -1.
        -11    1    4    4    0    0  0.41919089645E+02  0.34770572483E+02 -0.10370195467E+03  0.11713367658E+03  0.00000000000E+00 0.  1.
         12    1    4    4    0    0 -0.32898547066E+02  0.32824113342E+02 -0.35950693301E+02  0.58755333073E+02  0.00000000000E+00 0. -1.
         -5    1    5    5    0  502  0.39337933321E+02 -0.24022285121E+02 -0.21743571631E+03  0.22231716962E+03  0.47000000000E+01 0.  1.
         11    1    6    6    0    0 -0.41559877643E+02 -0.21859149337E+01 -0.29540838945E+03  0.29832552390E+03  0.00000000000E+00 0. -1.
        -12    1    6    6    0    0 -0.75186158723E+02  0.24094309094E+01 -0.13315496931E+03  0.15293465818E+03  0.00000000000E+00 0.  1.
<mgrwt>
<rscale>  2 0.19619875E+03</rscale>
<asrwt>0</asrwt>
<pdfrwt beam="1">  1       21 0.60187800E-02 0.19804386E+03</pdfrwt>
<pdfrwt beam="2">  1       21 0.16105343E+00 0.19804386E+03</pdfrwt>
<totfact> 0.48343077E+04</totfact>
</mgrwt>
</event>
<event>
11    1  0.1039378E-001  0.1984432E+03  0.7546771E-02  0.1151502E+00
         21   -1    0    0  503  502  0.00000000000E+00  0.00000000000E+00  0.18179892016E+03  0.18179892016E+03  0.00000000000E+00 0. -1.
         21   -1    0    0  501  503 -0.00000000000E+00 -0.00000000000E+00 -0.24452513285E+03  0.24452513285E+03  0.00000000000E+00 0. -1.
          6    2    1    2  501    0 -0.79903495419E+02  0.34982448695E+02  0.43360703430E+02  0.20312519774E+03  0.17824521047E+03 0.  0.
         -6    2    1    2    0  502  0.79903495419E+02 -0.34982448695E+02 -0.10608691612E+03  0.22319885528E+03  0.17594020271E+03 0.  0.
        -24    2    4    4    0    0  0.56639621659E+02 -0.24780204551E+02 -0.14253627086E+03  0.17852292139E+03  0.87930311467E+02 0.  0.
          5    1    3    3  501    0  0.38426801378E+01  0.43913076632E+02  0.10270348885E+01  0.44342635134E+02  0.47000000000E+01 0. -1.
        -13    1    3    3    0    0 -0.54997178163E+02  0.48276762076E+02 -0.12799186584E+02  0.74291012509E+02  0.00000000000E+00 0.  1.
         14    1    3    3    0    0 -0.28748997394E+02 -0.57207390013E+02  0.55132855125E+02  0.84491550095E+02  0.00000000000E+00 0. -1.
         -5    1    4    4    0  502  0.23263873760E+02 -0.10202244143E+02  0.36449354737E+02  0.44675933886E+02  0.47000000000E+01 0.  1.
         11    1    5    5    0    0 -0.68825282724E+01 -0.29015468687E+02 -0.93569152268E+02  0.98206175339E+02  0.00000000000E+00 0. -1.
        -12    1    5    5    0    0  0.63522149931E+02  0.42352641360E+01 -0.48967118587E+02  0.80316746056E+02  0.00000000000E+00 0.  1.
<mgrwt>
<rscale>  2 0.19792420E+03</rscale>
<asrwt>0</asrwt>
<pdfrwt beam="1">  1       21 0.27969065E-01 0.19844318E+03</pdfrwt>
<pdfrwt beam="2">  1       21 0.37619251E-01 0.19844318E+03</pdfrwt>
<totfact> 0.83001674E+04</totfact>
</mgrwt>
</event>
<event>
12    1  0.1039378E-001  0.2659491E+03  0.7546771E-02  0.1104100E+00
         21   -1    0    0  501  502  0.00000000000E+00  0.00000000000E+00  0.23804819423E+03  0.23804819423E+03  0.00000000000E+00 0.  1.
         21   -1    0    0  502  503 -0.00000000000E+00 -0.00000000000E+00 -0.30069443384E+03  0.30069443384E+03  0.00000000000E+00 0.  1.
         -6    2    1    2    0  503  0.13535727371E+02  0.19873049181E+03 -0.73216273292E+02  0.27584332838E+03  0.17621547845E+03 0.  0.
        -24    2    3    3    0    0 -0.18824671002E+02  0.21427154626E+03 -0.60802165545E+02  0.23756905729E+03  0.80470428546E+02 0.  0.
          6    2    1    2  501    0 -0.13535727371E+02 -0.19873049181E+03  0.10570033681E+02  0.26289929969E+03  0.17125212955E+03 0.  0.
         24    2    5    5    0    0  0.36704056734E+02 -0.38187663625E+02 -0.13821831739E+02  0.92854926991E+02  0.75003393257E+02 0.  0.
          5    1    5    5  501    0 -0.50239784105E+02 -0.16054282819E+03  0.24391865420E+02  0.17004437270E+03  0.47000000000E+01 0. -1.
        -11    1    6    6    0    0  0.15091233405E+02 -0.19564901077E+02  0.31049970564E+02  0.39681624864E+02  0.00000000000E+00 0.  1.
         12    1    6    6    0    0  0.21612823329E+02 -0.18622762548E+02 -0.44871802303E+02  0.53173302127E+02  0.00000000000E+00 0. -1.
         -5    1    3    3    0  503  0.32360398374E+02 -0.15541054448E+02 -0.12414107747E+02  0.38274271089E+02  0.47000000000E+01 0.  1.
         11    1    4    4    0    0 -0.41957311401E+02  0.14551438263E+03 -0.15952662007E+02  0.15228046151E+03  0.00000000000E+00 0. -1.
        -12    1    4    4    0    0  0.23132640399E+02  0.68757163628E+02 -0.44849503537E+02  0.85288595777E+02  0.00000000000E+00 0.  1.
<mgrwt>
<rscale>  2 0.26512972E+03</rscale>
<asrwt>0</asrwt>
<pdfrwt beam="1">  1       21 0.36622799E-01 0.26594909E+03</pdfrwt>
<pdfrwt beam="2">  1       21 0.46260682E-01 0.26594909E+03</pdfrwt>
<totfact> 0.31077735E+04</totfact>
</mgrwt>
</event>
<event>
12    1  0.1039378E-001  0.1920372E+03  0.7546771E-02  0.1157184E+00
         21   -1    0    0  501  502  0.00000000000E+00  0.00000000000E+00  0.27845159376E+02  0.27845159376E+02  0.00000000000E+00 0.  1.
         21   -1    0    0  502  503 -0.00000000000E+00 -0.00000000000E+00 -0.13079631499E+04  0.13079631499E+04  0.00000000000E+00 0.  1.
         -6    2    1    2    0  503 -0.42137664470E+02  0.70017867454E+02 -0.63317904277E+03  0.66166003108E+03  0.17378208189E+03 0.  0.
        -24    2    3    3    0    0 -0.79606908203E+02  0.12073956940E+02 -0.48598347324E+03  0.49902526640E+03  0.79769918967E+02 0.  0.
          6    2    1    2  501    0  0.42137664470E+02 -0.70017867454E+02 -0.64693894770E+03  0.67414827815E+03  0.17107838656E+03 0.  0.
         24    2    5    5    0    0 -0.40804094738E+01  0.28990653639E+02 -0.30299142261E+03  0.31323168442E+03  0.73845637741E+02 0.  0.
          5    1    5    5  501    0  0.46218073943E+02 -0.99008521093E+02 -0.34394752510E+03  0.36091659373E+03  0.47000000000E+01 0. -1.
        -13    1    6    6    0    0  0.13550978716E+02 -0.21409912506E+02 -0.79000079306E+02  0.82964003689E+02  0.00000000000E+00 0.  1.
         14    1    6    6    0    0 -0.17631388190E+02  0.50400566145E+02 -0.22399134330E+03  0.23026768073E+03  0.00000000000E+00 0. -1.
         -5    1    3    3    0  503  0.37469243733E+02  0.57943910514E+02 -0.14719556953E+03  0.16263476467E+03  0.47000000000E+01 0.  1.
         11    1    4    4    0    0 -0.63136596813E+01 -0.20354787134E+02 -0.35017835759E+02  0.40993029641E+02  0.00000000000E+00 0. -1.
        -12    1    4    4    0    0 -0.73293248521E+02  0.32428744075E+02 -0.45096563748E+03  0.45803223676E+03  0.00000000000E+00 0.  1.
<mgrwt>
<rscale>  2 0.19142349E+03</rscale>
<asrwt>0</asrwt>
<pdfrwt beam="1">  1       21 0.42838719E-02 0.19203723E+03</pdfrwt>
<pdfrwt beam="2">  1       21 0.20122504E+00 0.19203723E+03</pdfrwt>
<totfact> 0.46071255E+04</totfact>
</mgrwt>
</event>
<event>
12    1  0.1039378E-001  0.2266821E+03  0.7546771E-02  0.1129065E+00
         21   -1    0    0  501  502  0.00000000000E+00  0.00000000000E+00  0.19687575012E+03  0.19687575012E+03  0.00000000000E+00 0.  1.
         21   -1    0    0  502  503 -0.00000000000E+00 -0.00000000000E+00 -0.28428486106E+03  0.28428486106E+03  0.00000000000E+00 0.  1.
         -6    2    1    2    0  503 -0.94690431695E+02  0.11164549303E+03 -0.11316306595E+03  0.25302023591E+03  0.17257568287E+03 0.  0.
        -24    2    3    3    0    0  0.21545065057E+01  0.36720418554E+01 -0.33544975135E+02  0.87495800864E+02  0.80697732448E+02 0.  0.
          6    2    1    2  501    0  0.94690431695E+02 -0.11164549303E+03  0.25753955008E+02  0.22814037527E+03  0.17307157670E+03 0.  0.
         24    2    5    5    0    0  0.57937321584E+02 -0.12320087345E+03  0.66582702591E+02  0.17180748480E+03  0.80928160096E+02 0.  0.
          5    1    5    5  501    0  0.36753110111E+02  0.11555380424E+02 -0.40828747583E+02  0.56332890471E+02  0.47000000000E+01 0. -1.
        -11    1    6    6    0    0  0.40947061766E+02 -0.37307887210E+02 -0.90233518404E+01  0.56124515087E+02  0.00000000000E+00 0.  1.
         12    1    6    6    0    0  0.16990259817E+02 -0.85892986243E+02  0.75606054431E+02  0.11568296971E+03  0.00000000000E+00 0. -1.
         -5    1    3    3    0  503 -0.96844938200E+02  0.10797345117E+03 -0.79618090816E+02  0.16552443505E+03  0.47000000000E+01 0.  1.
         13    1    4    4    0    0  0.36912018382E+02  0.17442488770E+02 -0.28457872929E+02  0.49765329770E+02  0.00000000000E+00 0. -1.
        -14    1    4    4    0    0 -0.34757511876E+02 -0.13770446915E+02 -0.50871022066E+01  0.37730471093E+02  0.00000000000E+00 0.  1.
<mgrwt>
<rscale>  2 0.22658742E+03</rscale>
<asrwt>0</asrwt>
<pdfrwt beam="1">  1       21 0.30288577E-01 0.22668208E+03</pdfrwt>
<pdfrwt beam="2">  1       21 0.43736132E-01 0.22668208E+03</pdfrwt>
<totfact> 0.51720742E+04</totfact>
</mgrwt>
</event>
<event>
12    1  0.1039378E-001  0.2309536E+03  0.7546771E-02  0.1127086E+00
         21   -1    0    0  501  502  0.00000000000E+00  0.00000000000E+00  0.49467061530E+02  0.49467061530E+02  0.00000000000E+00 0.  1.
         21   -1    0    0  502  503 -0.00000000000E+00 -0.00000000000E+00 -0.11406650866E+04  0.11406650866E+04  0.00000000000E+00 0. -1.
         -6    2    1    2    0  503  0.13659286463E+03 -0.44401023930E+02 -0.70720633124E+03  0.74203705863E+03  0.17276903609E+03 0.  0.
        -24    2    3    3    0    0  0.11047643046E+03  0.32026349926E+02 -0.38213240793E+03  0.40704697336E+03  0.80195589378E+02 0.  0.
          6    2    1    2  501    0 -0.13659286463E+03  0.44401023930E+02 -0.38399169386E+03  0.44809508953E+03  0.18086051730E+03 0.  0.
         24    2    5    5    0    0 -0.82186260178E+01  0.46912958590E+01 -0.72414214675E+02  0.10874361513E+03  0.80571715105E+02 0.  0.
          5    1    5    5  501    0 -0.12837423861E+03  0.39709728071E+02 -0.31157747918E+03  0.33935147440E+03  0.47000000000E+01 0. -1.
        -11    1    6    6    0    0  0.35880817310E+02  0.27484249806E+01 -0.41068328367E+02  0.54603978661E+02  0.00000000000E+00 0.  1.
         12    1    6    6    0    0 -0.44099443327E+02  0.19428708784E+01 -0.31345886307E+02  0.54139636473E+02  0.00000000000E+00 0. -1.
         -5    1    3    3    0  503  0.26116434175E+02 -0.76427373857E+02 -0.32507392331E+03  0.33499008527E+03  0.47000000000E+01 0.  1.
         11    1    4    4    0    0  0.30899348435E+02  0.47140858763E+02 -0.11794697222E+03  0.13072306053E+03  0.00000000000E+00 0. -1.
        -12    1    4    4    0    0  0.79577082020E+02 -0.15114508836E+02 -0.26418543571E+03  0.27632391283E+03  0.00000000000E+00 0.  1.
<mgrwt>
<rscale>  2 0.22936735E+03</rscale>
<asrwt>0</asrwt>
<pdfrwt beam="1">  1       21 0.76103169E-02 0.23095365E+03</pdfrwt>
<pdfrwt beam="2">  1       21 0.17548694E+00 0.23095365E+03</pdfrwt>
<totfact> 0.24943539E+04</totfact>
</mgrwt>
</event>
<event>
12    1  0.1039378E-001  0.2019019E+03  0.7546771E-02  0.1148485E+00
         21   -1    0    0  503  502  0.00000000000E+00  0.00000000000E+00  0.95060501169E+02  0.95060501169E+02  0.00000000000E+00 0.  1.
         21   -1    0    0  501  503 -0.00000000000E+00 -0.00000000000E+00 -0.59872020928E+03  0.59872020928E+03  0.00000000000E+00 0.  1.
          6    2    1    2  501    0 -0.10447683917E+03  0.34575538681E+02 -0.43920395627E+03  0.48338853284E+03  0.16927339035E+03 0.  0.
         24    2    3    3    0    0 -0.13855141608E+03  0.83498157711E+01 -0.34072605277E+03  0.37582993109E+03  0.76731217528E+02 0.  0.
         -6    2    1    2    0  502  0.10447683917E+03 -0.34575538681E+02 -0.64455751838E+02  0.21039217761E+03  0.16733035186E+03 0.  0.
        -24    2    5    5    0    0  0.49738195403E+02  0.16178807109E+02  0.14226880493E+02  0.10183173652E+03  0.86207056282E+02 0.  0.
          5    1    3    3  501    0  0.34074576908E+02  0.26225722909E+02 -0.98477903503E+02  0.10755860176E+03  0.47000000000E+01 0. -1.
        -11    1    4    4    0    0  0.45833270607E+01  0.10662029973E+02 -0.55442022777E+02  0.56643655070E+02  0.00000000000E+00 0.  1.
         12    1    4    4    0    0 -0.14313474314E+03 -0.23122142016E+01 -0.28528402999E+03  0.31918627602E+03  0.00000000000E+00 0. -1.
         -5    1    5    5    0  502  0.54738643768E+02 -0.50754345789E+02 -0.78682632331E+02  0.10856044109E+03  0.47000000000E+01 0.  1.
         13    1    6    6    0    0  0.55532511737E-01  0.43748798488E+02  0.98484869927E+01  0.44843652272E+02  0.00000000000E+00 0. -1.
        -14    1    6    6    0    0  0.49682662891E+02 -0.27569991380E+02  0.43783935003E+01  0.56988084248E+02  0.00000000000E+00 0.  1.
<mgrwt>
<rscale>  2 0.20149406E+03</rscale>
<asrwt>0</asrwt>
<pdfrwt beam="1">  1       21 0.14624692E-01 0.20190185E+03</pdfrwt>
<pdfrwt beam="2">  1       21 0.92110802E-01 0.20190185E+03</pdfrwt>
<totfact> 0.40695968E+04</totfact>
</mgrwt>
</event>
<event>
12    1  0.1039378E-001  0.1771766E+03  0.7546771E-02  0.1170641E+00
         21   -1    0    0  503  502  0.00000000000E+00  0.00000000000E+00  0.26338323746E+03  0.26338323746E+03  0.00000000000E+00 0.  1.
         21   -1    0    0  501  503 -0.00000000000E+00 -0.00000000000E+00 -0.55653294726E+03  0.55653294726E+03  0.00000000000E+00 0. -1.
          6    2    1    2  501    0  0.16180220146E+02  0.33414049913E+02 -0.51005295261E+03  0.53984731179E+03  0.17292428205E+03 0.  0.
         24    2    3    3    0    0 -0.34169281138E+02  0.66430149445E+02 -0.39442363510E+03  0.40939669211E+03  0.80343904882E+02 0.  0.
         -6    2    1    2    0  502 -0.16180220146E+02 -0.33414049913E+02  0.21690324281E+03  0.28006887293E+03  0.17324335078E+03 0.  0.
        -24    2    5    5    0    0  0.42606739720E+02 -0.61440194589E+02  0.11550814629E+03  0.15946859502E+03  0.80609361467E+02 0.  0.
          5    1    3    3  501    0  0.50349501284E+02 -0.33016099531E+02 -0.11562931751E+03  0.13045061968E+03  0.47000000000E+01 0. -1.
        -13    1    4    4    0    0 -0.85062818167E+01 -0.15820459004E+02 -0.30354632470E+02  0.35271057055E+02  0.00000000000E+00 0.  1.
         14    1    4    4    0    0 -0.25662999322E+02  0.82250608449E+02 -0.36406900263E+03  0.37412563505E+03  0.00000000000E+00 0. -1.
         -5    1    5    5    0  502 -0.58786959865E+02  0.28026144676E+02  0.10139509651E+03  0.12060027791E+03  0.47000000000E+01 0.  1.
         13    1    6    6    0    0  0.52090595608E+02 -0.54842491415E+02  0.44982942575E+02  0.88003375720E+02  0.00000000000E+00 0. -1.
        -14    1    6    6    0    0 -0.94838558882E+01 -0.65977031742E+01  0.70525203720E+02  0.71465219299E+02  0.00000000000E+00 0.  1.
<mgrwt>
<rscale>  2 0.17709858E+03</rscale>
<asrwt>0</asrwt>
<pdfrwt beam="1">  1       21 0.40520498E-01 0.17717663E+03</pdfrwt>
<pdfrwt beam="2">  1       21 0.85620453E-01 0.17717663E+03</pdfrwt>
<totfact> 0.69967064E+03</totfact>
</mgrwt>
</event>
<event>
12    1  0.1039378E-001  0.2202639E+03  0.7546771E-02  0.1133817E+00
         21   -1    0    0  503  502  0.00000000000E+00  0.00000000000E+00  0.15783359599E+04  0.15783359599E+04  0.00000000000E+00 0. -1.
         21   -1    0    0  501  503 -0.00000000000E+00 -0.00000000000E+00 -0.31607318594E+02  0.31607318594E+02  0.00000000000E+00 0.  1.
          6    2    1    2  501    0  0.67587032181E+02  0.11751882812E+03  0.63140696201E+03  0.66849228065E+03  0.17270928096E+03 0.  0.
         24    2    3    3    0    0  0.19820321473E+02 -0.30549208774E+01  0.18018100169E+03  0.19897482105E+03  0.81997611901E+02 0.  0.
         -6    2    1    2    0  502 -0.67587032181E+02 -0.11751882812E+03  0.91532167934E+03  0.94145099789E+03  0.17360162119E+03 0.  0.
        -24    2    5    5    0    0 -0.50707101023E+02 -0.10217540313E+03  0.90551024413E+03  0.91617834415E+03  0.80143202933E+02 0.  0.
          5    1    3    3  501    0  0.47766710708E+02  0.12057374899E+03  0.45122596032E+03  0.46951745959E+03  0.47000000000E+01 0. -1.
        -13    1    4    4    0    0  0.29804802326E+02  0.30422964342E+02  0.58388969066E+02  0.72271396207E+02  0.00000000000E+00 0.  1.
         14    1    4    4    0    0 -0.99844808527E+01 -0.33477885219E+02  0.12179203263E+03  0.12670342485E+03  0.00000000000E+00 0. -1.
         -5    1    5    5    0  502 -0.16879931158E+02 -0.15343424982E+02  0.98114352157E+01  0.25272653740E+02  0.47000000000E+01 0. -1.
         13    1    6    6    0    0 -0.15413187603E+02 -0.36779001610E+02  0.61577390820E+03  0.61706382760E+03  0.00000000000E+00 0. -1.
        -14    1    6    6    0    0 -0.35293913421E+02 -0.65396401525E+02  0.28973633593E+03  0.29911451656E+03  0.00000000000E+00 0.  1.
<mgrwt>
<rscale>  2 0.22008808E+03</rscale>
<asrwt>0</asrwt>
<pdfrwt beam="1">  1       21 0.24282085E+00 0.22026394E+03</pdfrwt>
<pdfrwt beam="2">  1       21 0.48626656E-02 0.22026394E+03</pdfrwt>
<totfact> 0.20209232E+04</totfact>
</mgrwt>
</event>
<event>
12    1  0.1039378E-001  0.2820310E+03  0.7546771E-02  0.1094891E+00
         21   -1    0    0  503  502  0.00000000000E+00  0.00000000000E+00  0.17285778166E+03  0.17285778166E+03  0.00000000000E+00 0. -1.
         21   -1    0    0  501  503 -0.00000000000E+00 -0.00000000000E+00 -0.89660981160E+03  0.89660981160E+03  0.00000000000E+00 0. -1.
          6    2    1    2  501    0  0.13582803716E+03 -0.17636187442E+03 -0.73726420534E+03  0.78936681921E+03  0.17317245844E+03 0.  0.
         24    2    3    3    0    0  0.26184124051E+02 -0.10402077807E+02 -0.17397073916E+03  0.19196740440E+03  0.76104235705E+02 0.  0.
         -6    2    1    2    0  502 -0.13582803716E+03  0.17636187442E+03  0.13512175404E+02  0.28010077404E+03  0.16947300171E+03 0.  0.
        -24    2    5    5    0    0 -0.10603074308E+03  0.19944850629E+03  0.23909704949E+02  0.24071714893E+03  0.79692199486E+02 0.  0.
          5    1    3    3  501    0  0.10964391311E+03 -0.16595979661E+03 -0.56329346618E+03  0.59739941481E+03  0.47000000000E+01 0. -1.
        -13    1    4    4    0    0  0.24848418012E+02 -0.26584621004E+02 -0.30217247414E+02  0.47299767366E+02  0.00000000000E+00 0.  1.
         14    1    4    4    0    0  0.13357060389E+01  0.16182543198E+02 -0.14375349175E+03  0.14466763703E+03  0.00000000000E+00 0. -1.
         -5    1    5    5    0  502 -0.29797294083E+02 -0.23086631876E+02 -0.10397529545E+02  0.39383625109E+02  0.47000000000E+01 0.  1.
         11    1    6    6    0    0 -0.62842093540E+02  0.40376432993E+02  0.77279320217E+01  0.75093981085E+02  0.00000000000E+00 0. -1.
        -12    1    6    6    0    0 -0.43188649539E+02  0.15907207330E+03  0.16181772927E+02  0.16562316785E+03  0.00000000000E+00 0.  1.
<mgrwt>
<rscale>  2 0.28146519E+03</rscale>
<asrwt>0</asrwt>
<pdfrwt beam="1">  1       21 0.26593506E-01 0.28203097E+03</pdfrwt>
<pdfrwt beam="2">  1       21 0.13793997E+00 0.28203097E+03</pdfrwt>
<totfact> 0.46984409E+03</totfact>
</mgrwt>
</event>
<event>
12    1  0.1039378E-001  0.2131550E+03  0.7546771E-02  0.1140189E+00
         21   -1    0    0  501  502  0.00000000000E+00  0.00000000000E+00  0.63294867663E+02  0.63294867663E+02  0.00000000000E+00 0. -1.
         21   -1    0    0  502  503 -0.00000000000E+00 -0.00000000000E+00 -0.70176700427E+03  0.70176700427E+03  0.00000000000E+00 0. -1.
         -6    2    1    2    0  503  0.66548624568E+01  0.11543125963E+03 -0.29183498604E+03  0.35813144355E+03  0.17240014178E+03 0.  0.
        -24    2    3    3    0    0 -0.51522104408E+02  0.10499014122E+03 -0.24219742883E+03  0.28080387076E+03  0.80707882557E+02 0.  0.
          6    2    1    2  501    0 -0.66548624568E+01 -0.11543125963E+03 -0.34663715057E+03  0.40693042839E+03  0.17907092589E+03 0.  0.
         24    2    5    5    0    0 -0.20181107511E+02 -0.11799988886E+03 -0.14539411490E+03  0.20516222830E+03  0.81368546763E+02 0.  0.
          5    1    5    5  501    0  0.13526245054E+02  0.25686292259E+01 -0.20124303567E+03  0.20176820009E+03  0.47000000000E+01 0. -1.
        -11    1    6    6    0    0 -0.65246965077E+00 -0.14539202079E+02  0.98561851737E+01  0.17577215363E+02  0.00000000000E+00 0.  1.
         12    1    6    6    0    0 -0.19528637860E+02 -0.10346068678E+03 -0.15525030007E+03  0.18758501293E+03  0.00000000000E+00 0. -1.
         -5    1    3    3    0  503  0.58176966864E+02  0.10441118414E+02 -0.49637557209E+02  0.77327572786E+02  0.47000000000E+01 0.  1.
         13    1    4    4    0    0 -0.30628508164E+02  0.30109474140E+02 -0.24064893025E+02  0.49232154347E+02  0.00000000000E+00 0. -1.
        -14    1    4    4    0    0 -0.20893596244E+02  0.74880667077E+02 -0.21813253581E+03  0.23157171642E+03  0.00000000000E+00 0.  1.
<mgrwt>
<rscale>  2 0.21174800E+03</rscale>
<asrwt>0</asrwt>
<pdfrwt beam="1">  1       21 0.97376719E-02 0.21315501E+03</pdfrwt>
<pdfrwt beam="2">  1       21 0.10796416E+00 0.21315501E+03</pdfrwt>
<totfact> 0.57518602E+04</totfact>
</mgrwt>
</event>
<event>
12    1  0.1039378E-001  0.1896172E+03  0.7546771E-02  0.1160077E+00
         21   -1    0    0  501  502  0.00000000000E+00  0.00000000000E+00  0.88862223238E+03  0.88862223238E+03  0.00000000000E+00 0. -1.
         21   -1    0    0  502  503 -0.00000000000E+00 -0.00000000000E+00 -0.76103296912E+02  0.76103296912E+02  0.00000000000E+00 0. -1.
         -6    2    1    2    0  503  0.30470333511E+02 -0.55166525632E+02  0.73895429109E+02  0.20350731646E+03  0.17883765441E+03 0.  0.
        -24    2    3    3    0    0  0.28565655489E+02  0.31989971822E+02  0.65902396197E+01  0.93271381393E+02  0.82563698791E+02 0.  0.
          6    2    1    2  501    0 -0.30470333511E+02  0.55166525632E+02  0.73862350636E+03  0.76121821283E+03  0.17296443748E+03 0.  0.
         24    2    5    5    0    0 -0.45030734147E+02  0.58297470065E+01  0.66400445036E+03  0.67046460955E+03  0.80988453423E+02 0.  0.
          5    1    5    5  501    0  0.14560400637E+02  0.49336778625E+02  0.74619055997E+02  0.90753603288E+02  0.47000000000E+01 0. -1.
        -13    1    6    6    0    0  0.59762233215E+01 -0.21047701530E+02  0.38203721597E+03  0.38266324016E+03  0.00000000000E+00 0.  1.
         14    1    6    6    0    0 -0.51006957469E+02  0.26877448536E+02  0.28196723439E+03  0.28780136939E+03  0.00000000000E+00 0. -1.
         -5    1    3    3    0  503  0.19046780221E+01 -0.87156497454E+02  0.67305189489E+02  0.11023593506E+03  0.47000000000E+01 0.  1.
         13    1    4    4    0    0  0.51552715538E+01 -0.14409039938E+02 -0.27251047042E+02  0.31254068881E+02  0.00000000000E+00 0. -1.
        -14    1    4    4    0    0  0.23410383935E+02  0.46399011760E+02  0.33841286662E+02  0.62017312512E+02  0.00000000000E+00 0.  1.
<mgrwt>
<rscale>  2 0.18821961E+03</rscale>
<asrwt>0</asrwt>
<pdfrwt beam="1">  1       21 0.13671111E+00 0.18961723E+03</pdfrwt>
<pdfrwt beam="2">  1       21 0.11708200E-01 0.18961723E+03</pdfrwt>
<totfact> 0.23373657E+04</totfact>
</mgrwt>
</event>
<event>
12    1  0.1039378E-001  0.1947921E+03  0.7546771E-02  0.1154360E+00
         21   -1    0    0  503  502  0.00000000000E+00  0.00000000000E+00  0.51689994331E+03  0.51689994331E+03  0.00000000000E+00 0. -1.
         21   -1    0    0  501  503 -0.00000000000E+00 -0.00000000000E+00 -0.10365570409E+03  0.10365570409E+03  0.00000000000E+00 0. -1.
          6    2    1    2  501    0  0.86482252074E+02  0.17664919034E+02  0.38549702364E+02  0.19856999307E+03  0.17364542409E+03 0.  0.
         24    2    3    3    0    0  0.70425350733E+02 -0.29986691140E+02  0.76649860014E+02  0.13530695453E+03  0.81079215789E+02 0.  0.
         -6    2    1    2    0  502 -0.86482252074E+02 -0.17664919034E+02  0.37469453685E+03  0.42198565433E+03  0.17287182311E+03 0.  0.
        -24    2    5    5    0    0  0.90036616200E+00  0.39435053365E+02  0.16143577757E+03  0.18450403983E+03  0.80151708270E+02 0.  0.
          5    1    3    3  501    0  0.16056901341E+02  0.47651610174E+02 -0.38100157650E+02  0.63263038544E+02  0.47000000000E+01 0. -1.
        -13    1    4    4    0    0  0.84775105275E+01  0.60648840028E+00  0.64620704290E+02  0.65177230962E+02  0.00000000000E+00 0.  1.
         14    1    4    4    0    0  0.61947840205E+02 -0.30593179540E+02  0.12029155724E+02  0.70129723570E+02  0.00000000000E+00 0. -1.
         -5    1    5    5    0  502 -0.87382618236E+02 -0.57099972399E+02  0.21325875928E+03  0.23748161450E+03  0.47000000000E+01 0.  1.
         13    1    6    6    0    0 -0.23653601566E+02  0.42923931930E+02  0.48770038854E+02  0.69140968240E+02  0.00000000000E+00 0. -1.
        -14    1    6    6    0    0  0.24553967728E+02 -0.34888785648E+01  0.11266573872E+03  0.11536307159E+03  0.00000000000E+00 0.  1.
<mgrwt>
<rscale>  2 0.19461955E+03</rscale>
<asrwt>0</asrwt>
<pdfrwt beam="1">  1       21 0.79523066E-01 0.19479210E+03</pdfrwt>
<pdfrwt beam="2">  1       21 0.15947032E-01 0.19479210E+03</pdfrwt>
<totfact> 0.48853775E+04</totfact>
</mgrwt>
</event>
<event>
12    1  0.1039378E-001  0.2258191E+03  0.7546771E-02  0.1129744E+00
         21   -1    0    0  503  502  0.00000000000E+00  0.00000000000E+00  0.27476693235E+03  0.27476693235E+03  0.00000000000E+00 0.  1.
         21   -1    0    0  501  503 -0.00000000000E+00 -0.00000000000E+00 -0.20859666416E+03  0.20859666416E+03  0.00000000000E+00 0.  1.
          6    2    1    2  501    0 -0.12331859093E+03 -0.74419157698E+02 -0.48220241378E+02  0.23022436614E+03  0.17300977193E+03 0.  0.
         24    2    3    3    0    0 -0.61824034664E+02 -0.55434589536E+01 -0.84502415435E+02  0.13090705404E+03  0.78377658706E+02 0.  0.
         -6    2    1    2    0  502  0.12331859093E+03  0.74419157698E+02  0.11439050957E+03  0.25313923037E+03  0.17392123323E+03 0.  0.
        -24    2    5    5    0    0  0.97953731971E+02  0.87374874310E+02  0.14458974232E+03  0.21136231902E+03  0.80861202377E+02 0.  0.
          5    1    3    3  501    0 -0.61494556270E+02 -0.68875698744E+02  0.36282174057E+02  0.99317312099E+02  0.47000000000E+01 0. -1.
        -11    1    4    4    0    0 -0.71289994132E+02  0.17552691521E+02 -0.52199654395E+02  0.90084205952E+02  0.00000000000E+00 0.  1.
         12    1    4    4    0    0  0.94659594680E+01 -0.23096150474E+02 -0.32302761040E+02  0.40822848090E+02  0.00000000000E+00 0. -1.
         -5    1    5    5    0  502  0.25364858963E+02 -0.12955716612E+02 -0.30199232748E+02  0.41776911347E+02  0.47000000000E+01 0.  1.
         11    1    6    6    0    0  0.94658378920E+01 -0.45695493468E+01 -0.74384941401E+01  0.12876880962E+02  0.00000000000E+00 0. -1.
        -12    1    6    6    0    0  0.88487894079E+02  0.91944423657E+02  0.15202823646E+03  0.19848543806E+03  0.00000000000E+00 0.  1.
<mgrwt>
<rscale>  2 0.22564362E+03</rscale>
<asrwt>0</asrwt>
<pdfrwt beam="1">  1       21 0.42271836E-01 0.22581913E+03</pdfrwt>
<pdfrwt beam="2">  1       21 0.32091794E-01 0.22581913E+03</pdfrwt>
<totfact> 0.49518631E+04</totfact>
</mgrwt>
</event>
<event>
11    1  0.1039378E-001  0.1789971E+03  0.7546771E-02  0.1169236E+00
         21   -1    0    0  503  502  0.00000000000E+00  0.00000000000E+00  0.36038851507E+03  0.36038851507E+03  0.00000000000E+00 0.  1.
         21   -1    0    0  501  503 -0.00000000000E+00 -0.00000000000E+00 -0.20777431613E+03  0.20777431613E+03  0.00000000000E+00 0.  1.
          6    2    1    2  501    0  0.28592555764E+01 -0.34259022520E+02 -0.13957113531E+03  0.22550816998E+03  0.17375838670E+03 0.  0.
         24    2    3    3    0    0  0.59808521791E+01 -0.71666091447E+02 -0.33071794593E+02  0.11248944257E+03  0.79927040712E+02 0.  0.
         -6    2    1    2    0  502 -0.28592555764E+01  0.34259022520E+02  0.29218533424E+03  0.34265466122E+03  0.17566471285E+03 0.  0.
          5    1    3    3  501    0 -0.31215966027E+01  0.37407068927E+02 -0.10649934072E+03  0.11301872741E+03  0.47000000000E+01 0. -1.
        -11    1    4    4    0    0  0.27597154348E+02 -0.79577093668E+02 -0.22632267363E+02  0.87214312419E+02  0.00000000000E+00 0.  1.
         12    1    4    4    0    0 -0.21616302169E+02  0.79110022208E+01 -0.10439527230E+02  0.25275130155E+02  0.00000000000E+00 0. -1.
         -5    1    5    5    0  502  0.46559195735E+02  0.63238661675E+02  0.49560259146E+02  0.92979547883E+02  0.47000000000E+01 0.  1.
         13    1    5    5    0    0 -0.37133662380E+02 -0.14506858770E+02  0.16964827873E+03  0.17426960811E+03  0.00000000000E+00 0. -1.
        -14    1    5    5    0    0 -0.12284788931E+02 -0.14472780385E+02  0.72976796368E+02  0.75405505232E+02  0.00000000000E+00 0.  1.
<mgrwt>
<rscale>  2 0.17852760E+03</rscale>
<asrwt>0</asrwt>
<pdfrwt beam="1">  1       21 0.55444387E-01 0.17899706E+03</pdfrwt>
<pdfrwt beam="2">  1       21 0.31965279E-01 0.17899706E+03</pdfrwt>
<totfact> 0.29079181E+04</totfact>
</mgrwt>
</event>
<event>
12    1  0.1039378E-001  0.2080529E+03  0.7546771E-02  0.1143867E+00
         21   -1    0    0  501  502  0.00000000000E+00  0.00000000000E+00  0.29490213650E+03  0.29490213650E+03  0.00000000000E+00 0. -1.
         21   -1    0    0  502  503 -0.00000000000E+00 -0.00000000000E+00 -0.19396184902E+03  0.19396184902E+03  0.00000000000E+00 0. -1.
         -6    2    1    2    0  503  0.60321351422E+02 -0.94238041059E+02  0.17463768890E+03  0.27163273340E+03  0.17540394993E+03 0.  0.
        -24    2    3    3    0    0  0.10171936367E+03 -0.23860214208E+02  0.12564444208E+03  0.17629511142E+03  0.66161179830E+02 0.  0.
          6    2    1    2  501    0 -0.60321351422E+02  0.94238041059E+02 -0.73697401416E+02  0.21723125212E+03  0.17099308788E+03 0.  0.
         24    2    5    5    0    0 -0.75115410153E+02  0.32294065972E+02  0.77562949238E+01  0.11372900639E+03  0.78669531869E+02 0.  0.
          5    1    5    5  501    0  0.14794058732E+02  0.61943975087E+02 -0.81453696340E+02  0.10350224573E+03  0.47000000000E+01 0. -1.
        -13    1    6    6    0    0  0.75177918150E+01  0.38891369684E+01  0.23468856511E+02  0.24948543165E+02  0.00000000000E+00 0.  1.
         14    1    6    6    0    0 -0.82633201968E+02  0.28404929004E+02 -0.15712561587E+02  0.88780463227E+02  0.00000000000E+00 0. -1.
         -5    1    3    3    0  503 -0.41398012253E+02 -0.70377826852E+02  0.48993246817E+02  0.95337621979E+02  0.47000000000E+01 0.  1.
         13    1    4    4    0    0  0.17710926008E+02  0.39675503072E+01  0.68706384424E+02  0.71063250813E+02  0.00000000000E+00 0. -1.
        -14    1    4    4    0    0  0.84008437666E+02 -0.27827764515E+02  0.56938057654E+02  0.10523186060E+03  0.00000000000E+00 0.  1.
<mgrwt>
<rscale>  2 0.20712045E+03</rscale>
<asrwt>0</asrwt>
<pdfrwt beam="1">  1       21 0.45369559E-01 0.20805292E+03</pdfrwt>
<pdfrwt beam="2">  1       21 0.29840285E-01 0.20805292E+03</pdfrwt>
<totfact> 0.49800028E+04</totfact>
</mgrwt>
</event>
<event>
12    1  0.1039378E-001  0.1814013E+03  0.7546771E-02  0.1166692E+00
         21   -1    0    0  503  502  0.00000000000E+00  0.00000000000E+00  0.27777501047E+02  0.27777501047E+02  0.00000000000E+00 0. -1.
         21   -1    0    0  501  503 -0.00000000000E+00 -0.00000000000E+00 -0.13093629959E+04  0.13093629959E+04  0.00000000000E+00 0. -1.
          6    2    1    2  501    0  0.53733488929E+02  0.78781031325E-01 -0.85083508102E+03  0.86975162969E+03  0.17222156719E+03 0.  0.
         24    2    3    3    0    0 -0.21882924894E+01  0.48960062214E+02 -0.33647019159E+03  0.35003059416E+03  0.83110472893E+02 0.  0.
         -6    2    1    2    0  502 -0.53733488929E+02 -0.78781031325E-01 -0.43075041387E+03  0.46738886730E+03  0.17326032491E+03 0.  0.
        -24    2    5    5    0    0 -0.75386381544E+01  0.26167920786E+01 -0.80535334840E+02  0.11409872884E+03  0.80429479042E+02 0.  0.
          5    1    3    3  501    0  0.55921781419E+02 -0.48881281182E+02 -0.51436488943E+03  0.51972103552E+03  0.47000000000E+01 0. -1.
        -13    1    4    4    0    0 -0.20164131966E+02  0.37836476677E+02 -0.32096192005E+03  0.32381282450E+03  0.00000000000E+00 0.  1.
         14    1    4    4    0    0  0.17975839477E+02  0.11123585536E+02 -0.15508271538E+02  0.26217769665E+02  0.00000000000E+00 0. -1.
         -5    1    5    5    0  502 -0.46194850775E+02 -0.26955731099E+01 -0.35021507903E+03  0.35329013846E+03  0.47000000000E+01 0.  1.
         11    1    6    6    0    0 -0.29766204629E+02 -0.45538967321E+01 -0.85127039188E+02  0.90296055918E+02  0.00000000000E+00 0. -1.
        -12    1    6    6    0    0  0.22227566474E+02  0.71706888106E+01  0.45917043476E+01  0.23802672922E+02  0.00000000000E+00 0.  1.
<mgrwt>
<rscale>  2 0.18115283E+03</rscale>
<asrwt>0</asrwt>
<pdfrwt beam="1">  1       21 0.42734620E-02 0.18140131E+03</pdfrwt>
<pdfrwt beam="2">  1       21 0.20144045E+00 0.18140131E+03</pdfrwt>
<totfact> 0.46442930E+04</totfact>
</mgrwt>
</event>
<event>
12    1  0.1039378E-001  0.1732414E+03  0.7546771E-02  0.1174767E+00
         21   -1    0    0  501  502  0.00000000000E+00  0.00000000000E+00  0.14025213465E+03  0.14025213465E+03  0.00000000000E+00 0.  1.
         21   -1    0    0  502  503 -0.00000000000E+00 -0.00000000000E+00 -0.24514705836E+03  0.24514705836E+03  0.00000000000E+00 0.  1.
         -6    2    1    2    0  503 -0.70074742560E+01 -0.76479185566E+01 -0.12237467931E+03  0.21127814862E+03  0.17191654543E+03 0.  0.
        -24    2    3    3    0    0  0.17698367443E+02  0.21052342502E+02 -0.14489905177E+03  0.16696651410E+03  0.78266520907E+02 0.  0.
          6    2    1    2  501    0  0.70074742560E+01  0.76479185566E+01  0.17479755602E+02  0.17412104438E+03  0.17293062449E+03 0.  0.
         24    2    5    5    0    0 -0.37374542325E+02  0.58202971378E+02  0.75322069142E+01  0.10595492020E+03  0.79907876221E+02 0.  0.
          5    1    5    5  501    0  0.44382016581E+02 -0.50555052821E+02  0.99475486881E+01  0.68166124185E+02  0.47000000000E+01 0. -1.
        -13    1    6    6    0    0 -0.28821043590E+02  0.71735389789E+02  0.25954018308E+02  0.81548940938E+02  0.00000000000E+00 0.  1.
         14    1    6    6    0    0 -0.85534987348E+01 -0.13532418411E+02 -0.18421811394E+02  0.24405979261E+02  0.00000000000E+00 0. -1.
         -5    1    3    3    0  503 -0.24705841699E+02 -0.28700261059E+02  0.22524372452E+02  0.44311634514E+02  0.47000000000E+01 0.  1.
         11    1    4    4    0    0  0.13325666630E+02  0.47177683425E+02 -0.57094943140E+02  0.75253835362E+02  0.00000000000E+00 0. -1.
        -12    1    4    4    0    0  0.43727008136E+01 -0.26125340923E+02 -0.87804108625E+02  0.91712678743E+02  0.00000000000E+00 0.  1.
<mgrwt>
<rscale>  2 0.17298782E+03</rscale>
<asrwt>0</asrwt>
<pdfrwt beam="1">  1       21 0.21577252E-01 0.17324144E+03</pdfrwt>
<pdfrwt beam="2">  1       21 0.37714932E-01 0.17324144E+03</pdfrwt>
<totfact> 0.13664423E+05</totfact>
</mgrwt>
</event>
<event>
12    1  0.1039378E-001  0.1946614E+03  0.7546771E-02  0.1156274E+00
         21   -1    0    0  503  502  0.00000000000E+00  0.00000000000E+00  0.50517014427E+03  0.50517014427E+03  0.00000000000E+00 0.  1.
         21   -1    0    0  501  503 -0.00000000000E+00 -0.00000000000E+00 -0.20781080245E+03  0.20781080245E+03  0.00000000000E+00 0.  1.
          6    2    1    2  501    0  0.53570953255E+02 -0.42116416585E+02 -0.13863986897E+03  0.23898547931E+03  0.18234419780E+03 0.  0.
         24    2    3    3    0    0  0.91079887516E+02  0.45460663586E+01 -0.49804597641E+02  0.13175627201E+03  0.81012373373E+02 0.  0.
         -6    2    1    2    0  502 -0.53570953255E+02  0.42116416585E+02  0.43599921079E+03  0.47399546741E+03  0.17301084284E+03 0.  0.
        -24    2    5    5    0    0 -0.14851941777E+02 -0.41746441425E+01  0.83896927978E+02  0.11672787622E+03  0.79678696871E+02 0.  0.
          5    1    3    3  501    0 -0.37508934260E+02 -0.46662482943E+02 -0.88835271332E+02  0.10722920729E+03  0.47000000000E+01 0. -1.
        -11    1    4    4    0    0  0.54630217175E+02  0.42579696868E+02 -0.26681347653E+02  0.74225235106E+02  0.00000000000E+00 0.  1.
         12    1    4    4    0    0  0.36449670341E+02 -0.38033630509E+02 -0.23123249988E+02  0.57531036908E+02  0.00000000000E+00 0. -1.
         -5    1    5    5    0  502 -0.38719011479E+02  0.46291060727E+02  0.35210228281E+03  0.35726759119E+03  0.47000000000E+01 0.  1.
         11    1    6    6    0    0  0.42625050961E+01  0.16906840267E+02  0.86418173703E+02  0.88159576585E+02  0.00000000000E+00 0. -1.
        -12    1    6    6    0    0 -0.19114446873E+02 -0.21081484410E+02 -0.25212457254E+01  0.28568299637E+02  0.00000000000E+00 0.  1.
<mgrwt>
<rscale>  2 0.19244529E+03</rscale>
<asrwt>0</asrwt>
<pdfrwt beam="1">  1       21 0.77718484E-01 0.19466136E+03</pdfrwt>
<pdfrwt beam="2">  1       21 0.31970893E-01 0.19466136E+03</pdfrwt>
<totfact> 0.13795293E+04</totfact>
</mgrwt>
</event>
<event>
12    1  0.1039378E-001  0.1782259E+03  0.7546771E-02  0.1170509E+00
         21   -1    0    0  503  502  0.00000000000E+00  0.00000000000E+00  0.19053493886E+04  0.19053493886E+04  0.00000000000E+00 0.  1.
         21   -1    0    0  501  503 -0.00000000000E+00 -0.00000000000E+00 -0.63182375802E+02  0.63182375802E+02  0.00000000000E+00 0.  1.
          6    2    1    2  501    0  0.10166541302E+01  0.42042070441E+02  0.70631287853E+02  0.18805337677E+03  0.16913522525E+03 0.  0.
         24    2    3    3    0    0  0.47980597102E+02  0.63093051018E+02  0.74254998934E+02  0.13624626332E+03  0.82257939533E+02 0.  0.
         -6    2    1    2    0  502 -0.10166541302E+01 -0.42042070441E+02  0.17715357249E+04  0.17804783876E+04  0.17319322960E+03 0.  0.
        -24    2    5    5    0    0 -0.14845832054E+02 -0.42095532346E+02  0.47811604073E+03  0.48697623513E+03  0.80984397250E+02 0.  0.
          5    1    3    3  501    0 -0.46963942972E+02 -0.21050980577E+02 -0.36237110810E+01  0.51807113457E+02  0.47000000000E+01 0. -1.
        -11    1    4    4    0    0  0.43777397169E+02  0.26498218313E+02 -0.23699407230E+01  0.51227265159E+02  0.00000000000E+00 0.  1.
         12    1    4    4    0    0  0.42031999336E+01  0.36594832705E+02  0.76624939657E+02  0.85018998158E+02  0.00000000000E+00 0. -1.
         -5    1    5    5    0  502  0.13829177924E+02  0.53461904748E-01  0.12934196842E+04  0.12935021525E+04  0.47000000000E+01 0.  1.
         11    1    6    6    0    0  0.32507312947E+01  0.23666027627E+02  0.10568150029E+03  0.10834771627E+03  0.00000000000E+00 0. -1.
        -12    1    6    6    0    0 -0.18096563349E+02 -0.65761559972E+02  0.37243454045E+03  0.37862851886E+03  0.00000000000E+00 0.  1.
<mgrwt>
<rscale>  2 0.17723241E+03</rscale>
<asrwt>0</asrwt>
<pdfrwt beam="1">  1       21 0.29313063E+00 0.17822588E+03</pdfrwt>
<pdfrwt beam="2">  1       21 0.97203670E-02 0.17822588E+03</pdfrwt>
<totfact> 0.32472049E+03</totfact>
</mgrwt>
</event>
<event>
12    1  0.1039378E-001  0.3520682E+03  0.7546771E-02  0.1061770E+00
         21   -1    0    0  501  502  0.00000000000E+00  0.00000000000E+00  0.12024434496E+03  0.12024434496E+03  0.00000000000E+00 0.  1.
         21   -1    0    0  502  503 -0.00000000000E+00 -0.00000000000E+00 -0.11838684673E+04  0.11838684673E+04  0.00000000000E+00 0.  1.
         -6    2    1    2    0  503  0.28421218586E+03  0.11545451565E+03 -0.76625946044E+03  0.84326823460E+03  0.17274675975E+03 0.  0.
        -24    2    3    3    0    0  0.23825130234E+03  0.12338131343E+03 -0.50259417925E+03  0.57546848210E+03  0.81095211347E+02 0.  0.
          6    2    1    2  501    0 -0.28421218586E+03 -0.11545451565E+03 -0.29736466193E+03  0.46084457769E+03  0.17275899644E+03 0.  0.
         24    2    5    5    0    0 -0.16332492143E+03 -0.11952716005E+03 -0.25501873478E+03  0.33260423818E+03  0.68038608254E+02 0.  0.
          5    1    5    5  501    0 -0.12088726443E+03  0.40726443973E+01 -0.42345927141E+02  0.12824033951E+03  0.47000000000E+01 0. -1.
        -13    1    6    6    0    0 -0.11966537992E+03 -0.49434325874E+02 -0.17431520316E+03  0.21713900105E+03  0.00000000000E+00 0.  1.
         14    1    6    6    0    0 -0.43659541509E+02 -0.70092834172E+02 -0.80703531628E+02  0.11546523712E+03  0.00000000000E+00 0. -1.
         -5    1    3    3    0  503  0.45960883517E+02 -0.79267977830E+01 -0.26366528118E+03  0.26779975250E+03  0.47000000000E+01 0.  1.
         13    1    4    4    0    0  0.42540282197E+02  0.56026879355E+02 -0.93637380107E+02  0.11711808474E+03  0.00000000000E+00 0. -1.
        -14    1    4    4    0    0  0.19571102014E+03  0.67354434076E+02 -0.40895679914E+03  0.45835039736E+03  0.00000000000E+00 0.  1.
<mgrwt>
<rscale>  2 0.35206665E+03</rscale>
<asrwt>0</asrwt>
<pdfrwt beam="1">  1       21 0.18499129E-01 0.35206815E+03</pdfrwt>
<pdfrwt beam="2">  1       21 0.18213362E+00 0.35206815E+03</pdfrwt>
<totfact> 0.42204915E+03</totfact>
</mgrwt>
</event>
<event>
12    1  0.1039378E-001  0.1971572E+03  0.7546771E-02  0.1152312E+00
         21   -1    0    0  501  502  0.00000000000E+00  0.00000000000E+00  0.49687696678E+02  0.49687696678E+02  0.00000000000E+00 0. -1.
         21   -1    0    0  502  503 -0.00000000000E+00 -0.00000000000E+00 -0.78019825715E+03  0.78019825715E+03  0.00000000000E+00 0. -1.
         -6    2    1    2    0  503 -0.94011194425E+02  0.12358185476E+02 -0.35230543602E+03  0.40337675447E+03  0.17205480631E+03 0.  0.
        -24    2    3    3    0    0 -0.15079014046E+02  0.47814944794E+02 -0.26067913762E+03  0.27726196771E+03  0.80043365369E+02 0.  0.
          6    2    1    2  501    0  0.94011194425E+02 -0.12358185476E+02 -0.37820512445E+03  0.42650919936E+03  0.17285876185E+03 0.  0.
         24    2    5    5    0    0 -0.11008072548E+02 -0.60896963043E+00 -0.23180387421E+03  0.24589218305E+03  0.81291949656E+02 0.  0.
          5    1    5    5  501    0  0.10501926697E+03 -0.11749215846E+02 -0.14640125024E+03  0.18061701631E+03  0.47000000000E+01 0. -1.
        -13    1    6    6    0    0 -0.20603173438E+02 -0.34561218390E+02 -0.74407524471E+02  0.84589882789E+02  0.00000000000E+00 0.  1.
         14    1    6    6    0    0  0.95951008901E+01  0.33952248759E+02 -0.15739634974E+03  0.16130230026E+03  0.00000000000E+00 0. -1.
         -5    1    3    3    0  503 -0.78932180379E+02 -0.35456759318E+02 -0.91626298403E+02  0.12611478676E+03  0.47000000000E+01 0.  1.
         13    1    4    4    0    0 -0.18569578493E+01  0.89714467472E+01 -0.21751222679E+03  0.21770508481E+03  0.00000000000E+00 0. -1.
        -14    1    4    4    0    0 -0.13222056197E+02  0.38843498047E+02 -0.43166910832E+02  0.59556882905E+02  0.00000000000E+00 0.  1.
<mgrwt>
<rscale>  2 0.19698089E+03</rscale>
<asrwt>0</asrwt>
<pdfrwt beam="1">  1       21 0.76442615E-02 0.19715725E+03</pdfrwt>
<pdfrwt beam="2">  1       21 0.12003049E+00 0.19715725E+03</pdfrwt>
<totfact> 0.68392357E+04</totfact>
</mgrwt>
</event>
<event>
12    1  0.1039378E-001  0.1929364E+03  0.7546771E-02  0.1155844E+00
         21   -1    0    0  501  502  0.00000000000E+00  0.00000000000E+00  0.11380514094E+03  0.11380514094E+03  0.00000000000E+00 0.  1.
         21   -1    0    0  502  503 -0.00000000000E+00 -0.00000000000E+00 -0.40111835748E+03  0.40111835748E+03  0.00000000000E+00 0.  1.
         -6    2    1    2    0  503  0.23169474635E+01 -0.84992723169E+02 -0.25429883024E+03  0.31920580089E+03  0.17319156165E+03 0.  0.
        -24    2    3    3    0    0 -0.42599002213E+02  0.45120103366E+01 -0.98595114348E+02  0.13401866042E+03  0.80031066092E+02 0.  0.
          6    2    1    2  501    0 -0.23169474635E+01  0.84992723169E+02 -0.33014386305E+02  0.19571769753E+03  0.17316563223E+03 0.  0.
         24    2    5    5    0    0  0.59718551425E+01  0.56323101499E+02 -0.88836981639E+02  0.13224405256E+03  0.79928251046E+02 0.  0.
          5    1    5    5  501    0 -0.82888026060E+01  0.28669621669E+02  0.55822595334E+02  0.63473644965E+02  0.47000000000E+01 0. -1.
        -11    1    6    6    0    0 -0.18418549547E+02  0.58766833804E+02 -0.29997517822E+02  0.68502808688E+02  0.00000000000E+00 0.  1.
         12    1    6    6    0    0  0.24390404689E+02 -0.24437323041E+01 -0.58839463816E+02  0.63741243874E+02  0.00000000000E+00 0. -1.
         -5    1    3    3    0  503  0.44915949676E+02 -0.89504733505E+02 -0.15570371589E+03  0.18518714047E+03  0.47000000000E+01 0.  1.
         11    1    4    4    0    0  0.13533186281E+02  0.23669477458E+02 -0.13853573902E+02  0.30582884166E+02  0.00000000000E+00 0. -1.
        -12    1    4    4    0    0 -0.56132188494E+02 -0.19157467121E+02 -0.84741540445E+02  0.10343577625E+03  0.00000000000E+00 0.  1.
<mgrwt>
<rscale>  2 0.19293056E+03</rscale>
<asrwt>0</asrwt>
<pdfrwt beam="1">  1       21 0.17508483E-01 0.19293638E+03</pdfrwt>
<pdfrwt beam="2">  1       21 0.61710517E-01 0.19293638E+03</pdfrwt>
<totfact> 0.72067265E+04</totfact>
</mgrwt>
</event>
<event>
12    1  0.1039378E-001  0.1787869E+03  0.7546771E-02  0.1169786E+00
         21   -1    0    0  503  502  0.00000000000E+00  0.00000000000E+00  0.50702640789E+03  0.50702640789E+03  0.00000000000E+00 0.  1.
         21   -1    0    0  501  503 -0.00000000000E+00 -0.00000000000E+00 -0.63714015980E+02  0.63714015980E+02  0.00000000000E+00 0.  1.
          6    2    1    2  501    0 -0.32002575491E+02 -0.65468524154E+01  0.27180090171E+03  0.32533134563E+03  0.17577749618E+03 0.  0.
         24    2    3    3    0    0 -0.64533776721E+02 -0.51772514315E+02  0.22099979371E+03  0.24979008457E+03  0.81909559602E+02 0.  0.
         -6    2    1    2    0  502  0.32002575491E+02  0.65468524154E+01  0.17151149020E+03  0.24540907824E+03  0.17245984547E+03 0.  0.
        -24    2    5    5    0    0  0.78447611547E+02 -0.20921362397E+02  0.81009767727E+02  0.13993730017E+03  0.80175646862E+02 0.  0.
          5    1    3    3  501    0  0.32531201230E+02  0.45225661900E+02  0.50801108001E+02  0.75541261056E+02  0.47000000000E+01 0. -1.
        -13    1    4    4    0    0 -0.44425855038E+02 -0.74052043651E+02  0.16060501523E+03  0.18234947952E+03  0.00000000000E+00 0.  1.
         14    1    4    4    0    0 -0.20107921683E+02  0.22279529336E+02  0.60394778482E+02  0.67440605052E+02  0.00000000000E+00 0. -1.
         -5    1    5    5    0  502 -0.46445036056E+02  0.27468214812E+02  0.90501722471E+02  0.10547177807E+03  0.47000000000E+01 0.  1.
         13    1    6    6    0    0 -0.33208608988E+00 -0.34083713187E+02  0.27531323551E+02  0.43815334784E+02  0.00000000000E+00 0. -1.
        -14    1    6    6    0    0  0.78779697636E+02  0.13162350790E+02  0.53478444176E+02  0.96121965385E+02  0.00000000000E+00 0.  1.
<mgrwt>
<rscale>  2 0.17796607E+03</rscale>
<asrwt>0</asrwt>
<pdfrwt beam="1">  1       21 0.78004060E-01 0.17878690E+03</pdfrwt>
<pdfrwt beam="2">  1       21 0.98021566E-02 0.17878690E+03</pdfrwt>
<totfact> 0.12301228E+05</totfact>
</mgrwt>
</event>
<event>
12    1  0.1039378E-001  0.1913850E+03  0.7546771E-02  0.1157319E+00
         21   -1    0    0  503  502  0.00000000000E+00  0.00000000000E+00  0.53448277615E+03  0.53448277615E+03  0.00000000000E+00 0.  1.
         21   -1    0    0  501  503 -0.00000000000E+00 -0.00000000000E+00 -0.10753727534E+03  0.10753727534E+03  0.00000000000E+00 0.  1.
          6    2    1    2  501    0  0.57106778533E+02 -0.55763432831E+02  0.19576861086E+02  0.19193404362E+03  0.17344935576E+03 0.  0.
         24    2    3    3    0    0 -0.33245705705E+02 -0.48876124411E+02 -0.73210663422E+01  0.97294755133E+02  0.76931910667E+02 0.  0.
         -6    2    1    2    0  502 -0.57106778533E+02  0.55763432831E+02  0.40736863972E+03  0.45008600787E+03  0.17394671958E+03 0.  0.
        -24    2    5    5    0    0 -0.33258241415E+02 -0.37285490370E+02  0.17462795010E+03  0.19825834172E+03  0.79467796568E+02 0.  0.
          5    1    3    3  501    0  0.90352484237E+02 -0.68873084203E+01  0.26897927428E+02  0.94639288486E+02  0.47000000000E+01 0. -1.
        -13    1    4    4    0    0 -0.12820253256E+01 -0.49660962412E+02 -0.30056280191E+02  0.58062335085E+02  0.00000000000E+00 0.  1.
         14    1    4    4    0    0 -0.31963680379E+02  0.78483800157E+00  0.22735213849E+02  0.39232420048E+02  0.00000000000E+00 0. -1.
         -5    1    5    5    0  502 -0.23848537118E+02  0.93048923201E+02  0.23274068962E+03  0.25182766615E+03  0.47000000000E+01 0.  1.
         11    1    6    6    0    0  0.25235746505E+02 -0.15212203172E+01  0.49163236988E+02  0.55282735859E+02  0.00000000000E+00 0. -1.
        -12    1    6    6    0    0 -0.58493987920E+02 -0.35764270053E+02  0.12546471311E+03  0.14297560586E+03  0.00000000000E+00 0.  1.
<mgrwt>
<rscale>  2 0.19127188E+03</rscale>
<asrwt>0</asrwt>
<pdfrwt beam="1">  1       21 0.82228118E-01 0.19138497E+03</pdfrwt>
<pdfrwt beam="2">  1       21 0.16544197E-01 0.19138497E+03</pdfrwt>
<totfact> 0.42410784E+04</totfact>
</mgrwt>
</event>
<event>
12    1  0.1039378E-001  0.1999293E+03  0.7546771E-02  0.1150169E+00
         21   -1    0    0  503  502  0.00000000000E+00  0.00000000000E+00  0.50995583810E+03  0.50995583810E+03  0.00000000000E+00 0. -1.
         21   -1    0    0  501  503 -0.00000000000E+00 -0.00000000000E+00 -0.82114154975E+02  0.82114154975E+02  0.00000000000E+00 0.  1.
          6    2    1    2  501    0 -0.82761034352E+02 -0.52322617967E+02  0.28167434720E+03  0.34440773171E+03  0.17230555020E+03 0.  0.
         24    2    3    3    0    0 -0.85372606927E+02 -0.61597366278E+02  0.10802666604E+03  0.17042943294E+03  0.79332928161E+02 0.  0.
         -6    2    1    2    0  502  0.82761034352E+02  0.52322617967E+02  0.14616733592E+03  0.24766226137E+03  0.17431196304E+03 0.  0.
        -24    2    5    5    0    0  0.21776047147E+02  0.96420977764E+02  0.96192380842E+02  0.15720000329E+03  0.75416614356E+02 0.  0.
          5    1    3    3  501    0  0.26115725746E+01  0.92747483109E+01  0.17364768117E+03  0.17397829877E+03  0.47000000000E+01 0. -1.
        -11    1    4    4    0    0 -0.73936946070E+02 -0.12044912249E+02  0.88515549626E+02  0.11596014156E+03  0.00000000000E+00 0.  1.
         12    1    4    4    0    0 -0.11435660857E+02 -0.49552454028E+02  0.19511116410E+02  0.54469291376E+02  0.00000000000E+00 0. -1.
         -5    1    5    5    0  502  0.60984987205E+02 -0.44098359797E+02  0.49974955081E+02  0.90462258078E+02  0.47000000000E+01 0.  1.
         11    1    6    6    0    0  0.31052288026E+02  0.71937261125E+02  0.26437193792E+02  0.82693042909E+02  0.00000000000E+00 0. -1.
        -12    1    6    6    0    0 -0.92762408793E+01  0.24483716638E+02  0.69755187050E+02  0.74506960384E+02  0.00000000000E+00 0.  1.
<mgrwt>
<rscale>  2 0.19949109E+03</rscale>
<asrwt>0</asrwt>
<pdfrwt beam="1">  1       21 0.78454742E-01 0.19992925E+03</pdfrwt>
<pdfrwt beam="2">  1       21 0.12632947E-01 0.19992925E+03</pdfrwt>
<totfact> 0.76665273E+04</totfact>
</mgrwt>
</event>
<event>
12    1  0.1039378E-001  0.2782319E+03  0.7546771E-02  0.1096738E+00
         21   -1    0    0  501  502  0.00000000000E+00  0.00000000000E+00  0.16892783672E+04  0.16892783672E+04  0.00000000000E+00 0.  1.
         21   -1    0    0  502  503 -0.00000000000E+00 -0.00000000000E+00 -0.13497979936E+03  0.13497979936E+03  0.00000000000E+00 0. -1.
         -6    2    1    2    0  503 -0.72323040116E+02  0.20564086770E+03  0.35732110413E+02  0.28051702004E+03  0.17289946853E+03 0.  0.
        -24    2    3    3    0    0 -0.39453848058E+02  0.23232452413E+02  0.18857262696E+02  0.94344883999E+02  0.80305714670E+02 0.  0.
          6    2    1    2  501    0  0.72323040116E+02 -0.20564086770E+03  0.15185664574E+04  0.15437411465E+04  0.17197050115E+03 0.  0.
         24    2    5    5    0    0  0.53617408865E+00 -0.81122577140E+02  0.96784307513E+03  0.97455181720E+03  0.80311059762E+02 0.  0.
          5    1    5    5  501    0  0.71786866027E+02 -0.12451829056E+03  0.55072338228E+03  0.56918932932E+03  0.47000000000E+01 0. -1.
        -11    1    6    6    0    0  0.38392733274E+02 -0.36561947584E+02  0.56592821919E+03  0.56840612880E+03  0.00000000000E+00 0.  1.
         12    1    6    6    0    0 -0.37856559186E+02 -0.44560629556E+02  0.40191485594E+03  0.40614568840E+03  0.00000000000E+00 0. -1.
         -5    1    3    3    0  503 -0.32869192058E+02  0.18240841528E+03  0.16874847717E+02  0.18617213604E+03  0.47000000000E+01 0.  1.
         11    1    4    4    0    0 -0.54304376774E+02  0.36166056911E+02  0.29896546929E+02  0.71768743389E+02  0.00000000000E+00 0. -1.
        -12    1    4    4    0    0  0.14850528717E+02 -0.12933604498E+02 -0.11039284233E+02  0.22576140610E+02  0.00000000000E+00 0.  1.
<mgrwt>
<rscale>  2 0.27808775E+03</rscale>
<asrwt>0</asrwt>
<pdfrwt beam="1">  1       21 0.25988896E+00 0.27823194E+03</pdfrwt>
<pdfrwt beam="2">  1       21 0.20766124E-01 0.27823194E+03</pdfrwt>
<totfact> 0.11462596E+03</totfact>
</mgrwt>
</event>
<event>
12    1  0.1039378E-001  0.1846344E+03  0.7546771E-02  0.1163406E+00
         21   -1    0    0  501  502  0.00000000000E+00  0.00000000000E+00  0.50497395267E+03  0.50497395267E+03  0.00000000000E+00 0.  1.
         21   -1    0    0  502  503 -0.00000000000E+00 -0.00000000000E+00 -0.75966178758E+02  0.75966178758E+02  0.00000000000E+00 0.  1.
         -6    2    1    2    0  503 -0.37005952152E+02 -0.56278341126E+02  0.11742649148E+03  0.21876235462E+03  0.17184671869E+03 0.  0.
        -24    2    3    3    0    0  0.41324593338E+02 -0.30722631299E+02  0.31945092867E+02  0.99943466519E+02  0.79477075015E+02 0.  0.
          6    2    1    2  501    0  0.37005952152E+02  0.56278341126E+02  0.31158128243E+03  0.36217777680E+03  0.17191030881E+03 0.  0.
         24    2    5    5    0    0  0.83268957575E+02  0.69712690007E+02  0.24065514148E+03  0.27630953546E+03  0.81476891353E+02 0.  0.
          5    1    5    5  501    0 -0.46263005423E+02 -0.13434348880E+02  0.70926140955E+02  0.85868241343E+02  0.47000000000E+01 0. -1.
        -13    1    6    6    0    0  0.32835928459E+02  0.73010997206E+02  0.10863443520E+03  0.13494533865E+03  0.00000000000E+00 0.  1.
         14    1    6    6    0    0  0.50433029117E+02 -0.32983071990E+01  0.13202070627E+03  0.14136419681E+03  0.00000000000E+00 0. -1.
         -5    1    3    3    0  503 -0.78330545490E+02 -0.25555709827E+02  0.85481398614E+02  0.11881888811E+03  0.47000000000E+01 0.  1.
         13    1    4    4    0    0  0.33704392387E+02  0.19027260629E+02 -0.27682577189E+01  0.38803169510E+02  0.00000000000E+00 0. -1.
        -14    1    4    4    0    0  0.76202009508E+01 -0.49749891928E+02  0.34713350586E+02  0.61140297009E+02  0.00000000000E+00 0.  1.
<mgrwt>
<rscale>  2 0.18461956E+03</rscale>
<asrwt>0</asrwt>
<pdfrwt beam="1">  1       21 0.77688298E-01 0.18463436E+03</pdfrwt>
<pdfrwt beam="2">  1       21 0.11687105E-01 0.18463436E+03</pdfrwt>
<totfact> 0.90684474E+04</totfact>
</mgrwt>
</event>
<event>
12    1  0.1039378E-001  0.2221625E+03  0.7546771E-02  0.1132441E+00
         21   -1    0    0  501  502  0.00000000000E+00  0.00000000000E+00  0.92912681063E+03  0.92912681063E+03  0.00000000000E+00 0. -1.
         21   -1    0    0  502  503 -0.00000000000E+00 -0.00000000000E+00 -0.55875635586E+02  0.55875635586E+02  0.00000000000E+00 0.  1.
         -6    2    1    2    0  503  0.12654378677E+03  0.55692240394E+02  0.55081594813E+03  0.59393129668E+03  0.17390003120E+03 0.  0.
        -24    2    3    3    0    0  0.60327909299E+02  0.51599735016E+02  0.49314428867E+03  0.50590061263E+03  0.80263012151E+02 0.  0.
          6    2    1    2  501    0 -0.12654378677E+03 -0.55692240394E+02  0.32243522691E+03  0.39107114953E+03  0.17279239808E+03 0.  0.
         24    2    5    5    0    0 -0.15289956005E+03 -0.27384846042E+02  0.24083199295E+03  0.30064375792E+03  0.90875822390E+02 0.  0.
          5    1    5    5  501    0  0.26355773278E+02 -0.28307394352E+02  0.81603233968E+02  0.90427391614E+02  0.47000000000E+01 0. -1.
        -11    1    6    6    0    0 -0.77994618923E+02  0.25700508361E+02  0.75606133230E+02  0.11162420926E+03  0.00000000000E+00 0.  1.
         12    1    6    6    0    0 -0.74904941122E+02 -0.53085354403E+02  0.16522585972E+03  0.18901954866E+03  0.00000000000E+00 0. -1.
         -5    1    3    3    0  503  0.66215877469E+02  0.40925053779E+01  0.57671659460E+02  0.88030684049E+02  0.47000000000E+01 0.  1.
         13    1    4    4    0    0  0.75058832539E+01 -0.14710679004E+01  0.27788095639E+03  0.27798620154E+03  0.00000000000E+00 0. -1.
        -14    1    4    4    0    0  0.52822026045E+02  0.53070802917E+02  0.21526333228E+03  0.22791441109E+03  0.00000000000E+00 0.  1.
<mgrwt>
<rscale>  2 0.22194570E+03</rscale>
<asrwt>0</asrwt>
<pdfrwt beam="1">  1       21 0.14294258E+00 0.22216250E+03</pdfrwt>
<pdfrwt beam="2">  1       21 0.85962523E-02 0.22216250E+03</pdfrwt>
<totfact> 0.35283911E+04</totfact>
</mgrwt>
</event>
<event>
12    1  0.1039378E-001  0.3029107E+03  0.7546771E-02  0.1083962E+00
         21   -1    0    0  503  502  0.00000000000E+00  0.00000000000E+00  0.51999375457E+03  0.51999375457E+03  0.00000000000E+00 0.  1.
         21   -1    0    0  501  503 -0.00000000000E+00 -0.00000000000E+00 -0.27280919999E+03  0.27280919999E+03  0.00000000000E+00 0.  1.
          6    2    1    2  501    0  0.20734811488E+03 -0.13553000143E+03 -0.11277060416E+03  0.32322144515E+03  0.17433666112E+03 0.  0.
         24    2    3    3    0    0  0.57281642788E+02 -0.10024478758E+03 -0.96866920874E+02  0.16817303495E+03  0.74624160219E+02 0.  0.
         -6    2    1    2    0  502 -0.20734811488E+03  0.13553000143E+03  0.35995515874E+03  0.46958150941E+03  0.17198097466E+03 0.  0.
        -24    2    5    5    0    0 -0.70968206361E+02  0.81711495406E+02  0.87960368149E+02  0.16055211413E+03  0.79540556900E+02 0.  0.
          5    1    3    3  501    0  0.15006647209E+03 -0.35285213847E+02 -0.15903683291E+02  0.15504841020E+03  0.47000000000E+01 0. -1.
        -11    1    4    4    0    0 -0.74498369225E+01 -0.58009652845E+02 -0.28846232187E+02  0.65212920535E+02  0.00000000000E+00 0.  1.
         12    1    4    4    0    0  0.64731479710E+02 -0.42235134735E+02 -0.68020688687E+02  0.10296011442E+03  0.00000000000E+00 0. -1.
         -5    1    5    5    0  502 -0.13637990852E+03  0.53818506020E+02  0.27199479059E+03  0.30902939528E+03  0.47000000000E+01 0.  1.
         13    1    6    6    0    0 -0.45324243663E+02 -0.26303487232E+01  0.38134400988E+02  0.59291132025E+02  0.00000000000E+00 0. -1.
        -14    1    6    6    0    0 -0.25643962698E+02  0.84341844129E+02  0.49825967161E+02  0.10126098211E+03  0.00000000000E+00 0.  1.
<mgrwt>
<rscale>  2 0.30257273E+03</rscale>
<asrwt>0</asrwt>
<pdfrwt beam="1">  1       21 0.79999039E-01 0.30291070E+03</pdfrwt>
<pdfrwt beam="2">  1       21 0.41970646E-01 0.30291070E+03</pdfrwt>
<totfact> 0.70358450E+03</totfact>
</mgrwt>
</event>
<event>
12    1  0.1039378E-001  0.1942147E+03  0.7546771E-02  0.1155278E+00
         21   -1    0    0  501  502  0.00000000000E+00  0.00000000000E+00  0.14186832845E+03  0.14186832845E+03  0.00000000000E+00 0.  1.
         21   -1    0    0  502  503 -0.00000000000E+00 -0.00000000000E+00 -0.30476326094E+03  0.30476326094E+03  0.00000000000E+00 0. -1.
         -6    2    1    2    0  503 -0.19393821032E+02 -0.81380337587E+02 -0.16425087282E+03  0.25241212154E+03  0.17243738064E+03 0.  0.
        -24    2    3    3    0    0  0.23933330814E+01  0.22687390017E+02 -0.52622440881E+02  0.98179281885E+02  0.79684404987E+02 0.  0.
          6    2    1    2  501    0  0.19393821032E+02  0.81380337587E+02  0.13559403275E+01  0.19421946785E+03  0.17527259763E+03 0.  0.
         24    2    5    5    0    0  0.85426512368E+02  0.50681756157E+02  0.21885965530E+02  0.11841517271E+03  0.60636855288E+02 0.  0.
          5    1    5    5  501    0 -0.66032691336E+02  0.30698581429E+02 -0.20530025202E+02  0.75804295140E+02  0.47000000000E+01 0. -1.
        -13    1    6    6    0    0  0.56094085976E+02  0.11322750913E+02 -0.12382651597E+02  0.58549818362E+02  0.00000000000E+00 0.  1.
         14    1    6    6    0    0  0.29332426392E+02  0.39359005245E+02  0.34268617126E+02  0.59865354352E+02  0.00000000000E+00 0. -1.
         -5    1    3    3    0  503 -0.21787154114E+02 -0.10406772760E+03 -0.11162843193E+03  0.15423283966E+03  0.47000000000E+01 0.  1.
         11    1    4    4    0    0  0.21166601154E+02 -0.42680243357E+01 -0.60637248794E+02  0.64367048849E+02  0.00000000000E+00 0. -1.
        -12    1    4    4    0    0 -0.18773268072E+02  0.26955414352E+02  0.80148079130E+01  0.33812233036E+02  0.00000000000E+00 0.  1.
<mgrwt>
<rscale>  2 0.19357286E+03</rscale>
<asrwt>0</asrwt>
<pdfrwt beam="1">  1       21 0.21825897E-01 0.19421473E+03</pdfrwt>
<pdfrwt beam="2">  1       21 0.46886656E-01 0.19421473E+03</pdfrwt>
<totfact> 0.85268039E+04</totfact>
</mgrwt>
</event>
<event>
12    1  0.1039378E-001  0.2140887E+03  0.7546771E-02  0.1138376E+00
         21   -1    0    0  501  502  0.00000000000E+00  0.00000000000E+00  0.32074213903E+03  0.32074213903E+03  0.00000000000E+00 0.  1.
         21   -1    0    0  502  503 -0.00000000000E+00 -0.00000000000E+00 -0.14399809237E+03  0.14399809237E+03  0.00000000000E+00 0. -1.
         -6    2    1    2    0  503 -0.12493078939E+03 -0.16261446475E+02  0.10891893290E+03  0.24020267077E+03  0.17309492287E+03 0.  0.
        -24    2    3    3    0    0 -0.40955640456E+02 -0.29016404179E+00 -0.13162795622E+02  0.91095508166E+02  0.80297470316E+02 0.  0.
          6    2    1    2  501    0  0.12493078939E+03  0.16261446475E+02  0.67825113760E+02  0.22453756064E+03  0.17304546599E+03 0.  0.
         24    2    5    5    0    0  0.50911974518E+02  0.71195500430E+02  0.57304728273E+02  0.13164351481E+03  0.79908414309E+02 0.  0.
          5    1    5    5  501    0  0.74018814876E+02 -0.54934053956E+02  0.10520385487E+02  0.92894045829E+02  0.47000000000E+01 0. -1.
        -13    1    6    6    0    0 -0.12827362713E+02  0.46756487156E+01 -0.10524845735E+02  0.17238773240E+02  0.00000000000E+00 0.  1.
         14    1    6    6    0    0  0.63739337231E+02  0.66519851715E+02  0.67829574008E+02  0.11440474157E+03  0.00000000000E+00 0. -1.
         -5    1    3    3    0  503 -0.83975148938E+02 -0.15971282433E+02  0.12208172852E+03  0.14910716260E+03  0.47000000000E+01 0.  1.
         13    1    4    4    0    0 -0.19191361945E+02 -0.20911127264E+02  0.28199420390E+02  0.40009885367E+02  0.00000000000E+00 0. -1.
        -14    1    4    4    0    0 -0.21764278511E+02  0.20620963222E+02 -0.41362216012E+02  0.51085622799E+02  0.00000000000E+00 0.  1.
<mgrwt>
<rscale>  2 0.21407874E+03</rscale>
<asrwt>0</asrwt>
<pdfrwt beam="1">  1       21 0.49344944E-01 0.21408874E+03</pdfrwt>
<pdfrwt beam="2">  1       21 0.22153553E-01 0.21408874E+03</pdfrwt>
<totfact> 0.73925426E+04</totfact>
</mgrwt>
</event>
<event>
12    1  0.1039378E-001  0.2145081E+03  0.7546771E-02  0.1138056E+00
         21   -1    0    0  501  502  0.00000000000E+00  0.00000000000E+00  0.17358433623E+04  0.17358433623E+04  0.00000000000E+00 0.  1.
         21   -1    0    0  502  503 -0.00000000000E+00 -0.00000000000E+00 -0.29482885051E+02  0.29482885051E+02  0.00000000000E+00 0.  1.
         -6    2    1    2    0  503  0.11806055232E+03  0.46193465261E+02  0.57238515695E+03  0.61124057187E+03  0.17296860571E+03 0.  0.
        -24    2    3    3    0    0  0.18953174459E+02 -0.17394027038E+02  0.16092980502E+03  0.18324146188E+03  0.83769064755E+02 0.  0.
          6    2    1    2  501    0 -0.11806055232E+03 -0.46193465261E+02  0.11339753203E+04  0.11540856755E+04  0.17303638071E+03 0.  0.
         24    2    5    5    0    0 -0.15061989170E+03 -0.47384766923E+02  0.87040278194E+03  0.88846545268E+03  0.82693348513E+02 0.  0.
          5    1    5    5  501    0  0.32559339385E+02  0.11913016621E+01  0.26357253835E+03  0.26562022278E+03  0.47000000000E+01 0. -1.
        -13    1    6    6    0    0 -0.72290685724E+02  0.15847234527E+02  0.45884729175E+03  0.46477727487E+03  0.00000000000E+00 0.  1.
         14    1    6    6    0    0 -0.78329205978E+02 -0.63232001450E+02  0.41155549018E+03  0.42368817781E+03  0.00000000000E+00 0. -1.
         -5    1    3    3    0  503  0.99107377858E+02  0.63587492299E+02  0.41145535193E+03  0.42799910999E+03  0.47000000000E+01 0.  1.
         13    1    4    4    0    0  0.25602441626E+02 -0.26975035038E+02  0.16629594061E+03  0.17040386555E+03  0.00000000000E+00 0. -1.
        -14    1    4    4    0    0 -0.66492671673E+01  0.95810080003E+01 -0.53661355935E+01  0.12837596324E+02  0.00000000000E+00 0.  1.
<mgrwt>
<rscale>  2 0.21449442E+03</rscale>
<asrwt>0</asrwt>
<pdfrwt beam="1">  1       21 0.26705274E+00 0.21450809E+03</pdfrwt>
<pdfrwt beam="2">  1       21 0.45358298E-02 0.21450809E+03</pdfrwt>
<totfact> 0.16442318E+04</totfact>
</mgrwt>
</event>
<event>
12    1  0.1039378E-001  0.2092136E+03  0.7546771E-02  0.1143769E+00
         21   -1    0    0  501  502  0.00000000000E+00  0.00000000000E+00  0.99780819469E+02  0.99780819469E+02  0.00000000000E+00 0. -1.
         21   -1    0    0  502  503 -0.00000000000E+00 -0.00000000000E+00 -0.52945174115E+03  0.52945174115E+03  0.00000000000E+00 0. -1.
         -6    2    1    2    0  503  0.10227840250E+03  0.40365256879E+00 -0.35945883818E+03  0.41590983106E+03  0.18250834687E+03 0.  0.
        -24    2    3    3    0    0 -0.10327811335E+02  0.31237830508E+02 -0.14143236192E+03  0.16854665621E+03  0.85571003147E+02 0.  0.
          6    2    1    2  501    0 -0.10227840250E+03 -0.40365256879E+00 -0.70212083499E+02  0.21332272955E+03  0.17353908990E+03 0.  0.
         24    2    5    5    0    0 -0.48122463918E+02 -0.68120066269E+02 -0.45893969157E+02  0.12314601941E+03  0.78118952433E+02 0.  0.
          5    1    5    5  501    0 -0.54155938578E+02  0.67716413700E+02 -0.24318114342E+02  0.90176710146E+02  0.47000000000E+01 0. -1.
        -13    1    6    6    0    0 -0.18873689304E+02  0.90262644197E+01 -0.33812274670E+02  0.39761281616E+02  0.00000000000E+00 0.  1.
         14    1    6    6    0    0 -0.29248774613E+02 -0.77146330689E+02 -0.12081694486E+02  0.83384737793E+02  0.00000000000E+00 0. -1.
         -5    1    3    3    0  503  0.11260621383E+03 -0.30834177939E+02 -0.21802647625E+03  0.24736317485E+03  0.47000000000E+01 0.  1.
         11    1    4    4    0    0 -0.16357695964E+01  0.36322336513E+02 -0.15060107266E+03  0.15492795409E+03  0.00000000000E+00 0. -1.
        -12    1    4    4    0    0 -0.86920417388E+01 -0.50845060057E+01  0.91687107376E+01  0.13618702122E+02  0.00000000000E+00 0.  1.
<mgrwt>
<rscale>  2 0.20724174E+03</rscale>
<asrwt>0</asrwt>
<pdfrwt beam="1">  1       21 0.15350895E-01 0.20921360E+03</pdfrwt>
<pdfrwt beam="2">  1       21 0.81454115E-01 0.20921360E+03</pdfrwt>
<totfact> 0.49251210E+04</totfact>
</mgrwt>
</event>
<event>
12    1  0.1039378E-001  0.1908190E+03  0.7546771E-02  0.1158219E+00
         21   -1    0    0  501  502  0.00000000000E+00  0.00000000000E+00  0.30854144729E+03  0.30854144729E+03  0.00000000000E+00 0.  1.
         21   -1    0    0  502  503 -0.00000000000E+00 -0.00000000000E+00 -0.40244203166E+03  0.40244203166E+03  0.00000000000E+00 0.  1.
         -6    2    1    2    0  503  0.71622873720E+02 -0.15718697765E+02 -0.34659474039E+03  0.39565109152E+03  0.17616741655E+03 0.  0.
        -24    2    3    3    0    0  0.43298620058E+02  0.31437683751E+02 -0.87496443003E+02  0.13073600064E+03  0.81075124840E+02 0.  0.
          6    2    1    2  501    0 -0.71622873720E+02  0.15718697765E+02  0.25269415603E+03  0.31533238743E+03  0.17379086447E+03 0.  0.
         24    2    5    5    0    0 -0.30638702321E+01  0.68431299691E+02  0.16861504868E+03  0.19462471720E+03  0.68960248154E+02 0.  0.
          5    1    5    5  501    0 -0.68559003488E+02 -0.52712601926E+02  0.84079107348E+02  0.12070767023E+03  0.47000000000E+01 0. -1.
        -13    1    6    6    0    0 -0.47927004957E+01  0.43406743779E+02  0.28194301042E+02  0.51981092667E+02  0.00000000000E+00 0.  1.
         14    1    6    6    0    0  0.17288302636E+01  0.25024555912E+02  0.14042074764E+03  0.14264362453E+03  0.00000000000E+00 0. -1.
         -5    1    3    3    0  503  0.28324253662E+02 -0.47156381516E+02 -0.25909829739E+03  0.26491509087E+03  0.47000000000E+01 0.  1.
         13    1    4    4    0    0  0.20438580825E+02  0.47136014746E+02 -0.15624633090E+02  0.53699801038E+02  0.00000000000E+00 0. -1.
        -14    1    4    4    0    0  0.22860039232E+02 -0.15698330995E+02 -0.71871809912E+02  0.77036199607E+02  0.00000000000E+00 0.  1.
<mgrwt>
<rscale>  2 0.19026861E+03</rscale>
<asrwt>0</asrwt>
<pdfrwt beam="1">  1       21 0.47467915E-01 0.19081895E+03</pdfrwt>
<pdfrwt beam="2">  1       21 0.61914159E-01 0.19081895E+03</pdfrwt>
<totfact> 0.10293236E+04</totfact>
</mgrwt>
</event>
<event>
12    1  0.1039378E-001  0.2758240E+03  0.7546771E-02  0.1098352E+00
         21   -1    0    0  503  502  0.00000000000E+00  0.00000000000E+00  0.48609857234E+03  0.48609857234E+03  0.00000000000E+00 0. -1.
         21   -1    0    0  501  503 -0.00000000000E+00 -0.00000000000E+00 -0.15673568950E+03  0.15673568950E+03  0.00000000000E+00 0.  1.
          6    2    1    2  501    0  0.20629395659E+03 -0.53969509070E+02  0.13214519352E+03  0.30584513859E+03  0.17495425743E+03 0.  0.
         24    2    3    3    0    0  0.21980492051E+03 -0.37968012624E+02  0.81153141984E+02  0.25051997836E+03  0.80116502941E+02 0.  0.
         -6    2    1    2    0  502 -0.20629395659E+03  0.53969509070E+02  0.19721768932E+03  0.33698912325E+03  0.17087114376E+03 0.  0.
        -24    2    5    5    0    0 -0.19988202247E+03  0.29886882297E+02  0.10550071405E+03  0.24183041706E+03  0.80656687930E+02 0.  0.
          5    1    3    3  501    0 -0.13510963916E+02 -0.16001496446E+02  0.50992051534E+02  0.55325160227E+02  0.47000000000E+01 0. -1.
        -13    1    4    4    0    0  0.81095108225E+02 -0.36224432398E+02 -0.18982788876E+01  0.88838221185E+02  0.00000000000E+00 0.  1.
         14    1    4    4    0    0  0.13870981228E+03 -0.17435802253E+01  0.83051420871E+02  0.16168175718E+03  0.00000000000E+00 0. -1.
         -5    1    5    5    0  502 -0.64119341193E+01  0.24082626773E+02  0.91716975267E+02  0.95158706189E+02  0.47000000000E+01 0.  1.
         13    1    6    6    0    0 -0.15890942270E+03  0.72036108202E+01  0.11200448759E+03  0.19454845636E+03  0.00000000000E+00 0. -1.
        -14    1    6    6    0    0 -0.40972599774E+02  0.22683271477E+02 -0.65037735408E+01  0.47281960697E+02  0.00000000000E+00 0.  1.
<mgrwt>
<rscale>  2 0.27517885E+03</rscale>
<asrwt>0</asrwt>
<pdfrwt beam="1">  1       21 0.74784395E-01 0.27582403E+03</pdfrwt>
<pdfrwt beam="2">  1       21 0.24113183E-01 0.27582403E+03</pdfrwt>
<totfact> 0.24906969E+04</totfact>
</mgrwt>
</event>
<event>
12    1  0.1039378E-001  0.1920190E+03  0.7546771E-02  0.1156657E+00
         21   -1    0    0  503  502  0.00000000000E+00  0.00000000000E+00  0.70406400671E+03  0.70406400671E+03  0.00000000000E+00 0. -1.
         21   -1    0    0  501  503 -0.00000000000E+00 -0.00000000000E+00 -0.13902307156E+03  0.13902307156E+03  0.00000000000E+00 0. -1.
          6    2    1    2  501    0 -0.29067596522E+02  0.78723794561E+02 -0.50290955793E+02  0.19849551412E+03  0.17271053209E+03 0.  0.
         24    2    3    3    0    0 -0.46734011006E+02 -0.11878736014E+02 -0.49554343212E+02  0.10606417017E+03  0.80428869867E+02 0.  0.
         -6    2    1    2    0  502  0.29067596522E+02 -0.78723794561E+02  0.61533189094E+03  0.64459156415E+03  0.17269217575E+03 0.  0.
        -24    2    5    5    0    0  0.14516380319E+02 -0.11004207208E+03  0.33306736558E+03  0.36018353916E+03  0.80488067086E+02 0.  0.
          5    1    3    3  501    0  0.17666414484E+02  0.90602530574E+02 -0.73661258153E+00  0.92431343955E+02  0.47000000000E+01 0. -1.
        -11    1    4    4    0    0 -0.26674230357E+02 -0.44740404637E+02 -0.41809168269E+02  0.66792401691E+02  0.00000000000E+00 0.  1.
         12    1    4    4    0    0 -0.20059780649E+02  0.32861668624E+02 -0.77451749430E+01  0.39271768477E+02  0.00000000000E+00 0. -1.
         -5    1    5    5    0  502  0.14551216203E+02  0.31318277519E+02  0.28226452536E+03  0.28440802499E+03  0.47000000000E+01 0.  1.
         13    1    6    6    0    0  0.34980600746E+02 -0.89905603123E+02  0.30554326298E+03  0.32041121306E+03  0.00000000000E+00 0. -1.
        -14    1    6    6    0    0 -0.20464220427E+02 -0.20136468957E+02  0.27524102604E+02  0.39772326106E+02  0.00000000000E+00 0.  1.
<mgrwt>
<rscale>  2 0.19201485E+03</rscale>
<asrwt>0</asrwt>
<pdfrwt beam="1">  1       21 0.10831754E+00 0.19201898E+03</pdfrwt>
<pdfrwt beam="2">  1       21 0.21388165E-01 0.19201898E+03</pdfrwt>
<totfact> 0.13805470E+04</totfact>
</mgrwt>
</event>
<event>
12    1  0.1039378E-001  0.1753438E+03  0.7546771E-02  0.1178275E+00
         21   -1    0    0  501  502  0.00000000000E+00  0.00000000000E+00  0.61501740928E+03  0.61501740928E+03  0.00000000000E+00 0.  1.
         21   -1    0    0  502  503 -0.00000000000E+00 -0.00000000000E+00 -0.43967693938E+02  0.43967693938E+02  0.00000000000E+00 0.  1.
         -6    2    1    2    0  503 -0.18419364894E+02  0.43170280322E+01  0.25850600629E+03  0.30061518122E+03  0.15227022742E+03 0.  0.
        -24    2    3    3    0    0 -0.41778940370E+02  0.48912733290E+02  0.17413083144E+03  0.20225001043E+03  0.80284400262E+02 0.  0.
          6    2    1    2  501    0  0.18419364894E+02 -0.43170280322E+01  0.31254370905E+03  0.35836992200E+03  0.17432016862E+03 0.  0.
         24    2    5    5    0    0 -0.54425838156E+01  0.96189428453E+01  0.31931842025E+03  0.32953260949E+03  0.80655696832E+02 0.  0.
          5    1    5    5  501    0  0.23861948710E+02 -0.13935970878E+02 -0.67747111938E+01  0.28837312501E+02  0.47000000000E+01 0. -1.
        -11    1    6    6    0    0 -0.29741583782E+02 -0.96099878041E+01  0.53862640135E+02  0.62274374134E+02  0.00000000000E+00 0.  1.
         12    1    6    6    0    0  0.24298999967E+02  0.19228930649E+02  0.26545578011E+03  0.26725823536E+03  0.00000000000E+00 0. -1.
         -5    1    3    3    0  503  0.23359575476E+02 -0.44595705258E+02  0.84375174849E+02  0.98365170791E+02  0.47000000000E+01 0.  1.
         11    1    4    4    0    0 -0.49407707350E+02  0.25761019194E+02  0.16816282789E+03  0.17715385500E+03  0.00000000000E+00 0. -1.
        -12    1    4    4    0    0  0.76287669802E+01  0.23151714097E+02  0.59680035464E+01  0.25096155434E+02  0.00000000000E+00 0.  1.
<mgrwt>
<rscale>  2 0.16959110E+03</rscale>
<asrwt>0</asrwt>
<pdfrwt beam="1">  1       21 0.94618057E-01 0.17534375E+03</pdfrwt>
<pdfrwt beam="2">  1       21 0.67642610E-02 0.17534375E+03</pdfrwt>
<totfact> 0.15099642E+05</totfact>
</mgrwt>
</event>
<event>
12    1  0.1039378E-001  0.1756361E+03  0.7546771E-02  0.1173979E+00
         21   -1    0    0  503  502  0.00000000000E+00  0.00000000000E+00  0.43132560944E+02  0.43132560944E+02  0.00000000000E+00 0. -1.
         21   -1    0    0  501  503 -0.00000000000E+00 -0.00000000000E+00 -0.68891670362E+03  0.68891670362E+03  0.00000000000E+00 0. -1.
          6    2    1    2  501    0 -0.34708003436E+01 -0.82466281350E+01 -0.35561085339E+03  0.39661962037E+03  0.17540806960E+03 0.  0.
         24    2    3    3    0    0  0.26817178027E+02  0.42208089256E+02 -0.11652034985E+03  0.15034863339E+03  0.80790072402E+02 0.  0.
         -6    2    1    2    0  502  0.34708003436E+01  0.82466281350E+01 -0.29017328928E+03  0.33542964419E+03  0.16802516198E+03 0.  0.
        -24    2    5    5    0    0  0.36468751172E+02 -0.46588606427E+02 -0.20969857527E+03  0.23250230427E+03  0.81137913206E+02 0.  0.
          5    1    3    3  501    0 -0.30287978371E+02 -0.50454717391E+02 -0.23909050355E+03  0.24627098698E+03  0.47000000000E+01 0. -1.
        -13    1    4    4    0    0 -0.96532558975E+01  0.30798329980E+02 -0.10586731511E+03  0.11067796026E+03  0.00000000000E+00 0.  1.
         14    1    4    4    0    0  0.36470433925E+02  0.11409759276E+02 -0.10653034733E+02  0.39670673128E+02  0.00000000000E+00 0. -1.
         -5    1    5    5    0  502 -0.32997950828E+02  0.54835234562E+02 -0.80474714016E+02  0.10292733993E+03  0.47000000000E+01 0.  1.
         11    1    6    6    0    0 -0.15568896331E+02 -0.13803276582E+02 -0.13089470378E+03  0.13253808681E+03  0.00000000000E+00 0. -1.
        -12    1    6    6    0    0  0.52037647503E+02 -0.32785329845E+02 -0.78803871490E+02  0.99964217460E+02  0.00000000000E+00 0.  1.
<mgrwt>
<rscale>  2 0.17376314E+03</rscale>
<asrwt>0</asrwt>
<pdfrwt beam="1">  1       21 0.66357792E-02 0.17563611E+03</pdfrwt>
<pdfrwt beam="2">  1       21 0.10598718E+00 0.17563611E+03</pdfrwt>
<totfact> 0.11929644E+05</totfact>
</mgrwt>
</event>
<event>
12    1  0.1039378E-001  0.1841309E+03  0.7546771E-02  0.1163991E+00
         21   -1    0    0  503  502  0.00000000000E+00  0.00000000000E+00  0.73827460653E+03  0.73827460653E+03  0.00000000000E+00 0.  1.
         21   -1    0    0  501  503 -0.00000000000E+00 -0.00000000000E+00 -0.46368277933E+02  0.46368277933E+02  0.00000000000E+00 0.  1.
          6    2    1    2  501    0 -0.16427275611E+02  0.57082525978E+02  0.30160033279E+03  0.35308412820E+03  0.17371635124E+03 0.  0.
         24    2    3    3    0    0 -0.53192680424E+02  0.56316683277E+02  0.29726385569E+03  0.31575884803E+03  0.73053542980E+02 0.  0.
         -6    2    1    2    0  502  0.16427275611E+02 -0.57082525978E+02  0.39030599580E+03  0.43155875626E+03  0.17428688875E+03 0.  0.
        -24    2    5    5    0    0  0.71078142253E+02 -0.69764375913E+02  0.28780213926E+03  0.31461142988E+03  0.78937380205E+02 0.  0.
          5    1    3    3  501    0  0.36765404812E+02  0.76584270081E+00  0.43364770999E+01  0.37325280169E+02  0.47000000000E+01 0. -1.
        -13    1    4    4    0    0  0.41570216266E+01  0.29341013284E+02  0.34594069177E+02  0.45551350271E+02  0.00000000000E+00 0.  1.
         14    1    4    4    0    0 -0.57349702050E+02  0.26975669994E+02  0.26266978651E+03  0.27020749776E+03  0.00000000000E+00 0. -1.
         -5    1    5    5    0  502 -0.54650866642E+02  0.12681849935E+02  0.10250385654E+03  0.11694732638E+03  0.47000000000E+01 0.  1.
         13    1    6    6    0    0  0.70427906537E+02 -0.59271169777E+02  0.28966077390E+03  0.30393506794E+03  0.00000000000E+00 0. -1.
        -14    1    6    6    0    0  0.65023571616E+00 -0.10493206136E+02 -0.18586346412E+01  0.10676361938E+02  0.00000000000E+00 0.  1.
<mgrwt>
<rscale>  2 0.18399577E+03</rscale>
<asrwt>0</asrwt>
<pdfrwt beam="1">  1       21 0.11358070E+00 0.18413090E+03</pdfrwt>
<pdfrwt beam="2">  1       21 0.71335818E-02 0.18413090E+03</pdfrwt>
<totfact> 0.88797746E+04</totfact>
</mgrwt>
</event>
<event>
12    1  0.1039378E-001  0.2132977E+03  0.7546771E-02  0.1139153E+00
         21   -1    0    0  501  502  0.00000000000E+00  0.00000000000E+00  0.83543429398E+03  0.83543429398E+03  0.00000000000E+00 0. -1.
         21   -1    0    0  502  503 -0.00000000000E+00 -0.00000000000E+00 -0.75458607616E+02  0.75458607616E+02  0.00000000000E+00 0.  1.
         -6    2    1    2    0  503  0.24708471213E+01 -0.12458800307E+03  0.13899594292E+03  0.25458944172E+03  0.17311162900E+03 0.  0.
        -24    2    3    3    0    0 -0.60780345786E+02 -0.85540012591E+02  0.12053841901E+03  0.17785464418E+03  0.78047548406E+02 0.  0.
          6    2    1    2  501    0 -0.24708471213E+01  0.12458800307E+03  0.62097974345E+03  0.65630345987E+03  0.17201777256E+03 0.  0.
         24    2    5    5    0    0 -0.48424653265E+02  0.41482325822E+02  0.44327504055E+03  0.45476101442E+03  0.79051174924E+02 0.  0.
          5    1    5    5  501    0  0.45953806144E+02  0.83105677248E+02  0.17770470289E+03  0.20154244546E+03  0.47000000000E+01 0. -1.
        -11    1    6    6    0    0 -0.28027753009E+02 -0.19349588045E+02  0.21336951228E+03  0.21607061407E+03  0.00000000000E+00 0.  1.
         12    1    6    6    0    0 -0.20396900256E+02  0.60831913868E+02  0.22990552827E+03  0.23869040034E+03  0.00000000000E+00 0. -1.
         -5    1    3    3    0  503  0.63251192907E+02 -0.39047990480E+02  0.18457523907E+02  0.76734797540E+02  0.47000000000E+01 0.  1.
         11    1    4    4    0    0  0.51211959091E+01 -0.88276296634E+01  0.58123411918E+02  0.59012580913E+02  0.00000000000E+00 0. -1.
        -12    1    4    4    0    0 -0.65901541695E+02 -0.76712382927E+02  0.62415007094E+02  0.11884206327E+03  0.00000000000E+00 0.  1.
<mgrwt>
<rscale>  2 0.21307566E+03</rscale>
<asrwt>0</asrwt>
<pdfrwt beam="1">  1       21 0.12852835E+00 0.21329771E+03</pdfrwt>
<pdfrwt beam="2">  1       21 0.11609017E-01 0.21329771E+03</pdfrwt>
<totfact> 0.27354601E+04</totfact>
</mgrwt>
</event>
<event>
12    1  0.1039378E-001  0.2266768E+03  0.7546771E-02  0.1129922E+00
         21   -1    0    0  501  502  0.00000000000E+00  0.00000000000E+00  0.12931558475E+04  0.12931558475E+04  0.00000000000E+00 0. -1.
         21   -1    0    0  502  503 -0.00000000000E+00 -0.00000000000E+00 -0.17942921266E+03  0.17942921266E+03  0.00000000000E+00 0.  1.
         -6    2    1    2    0  503 -0.83160515606E+01 -0.13806892807E+03 -0.96219483549E+02  0.24158872964E+03  0.17313214509E+03 0.  0.
        -24    2    3    3    0    0 -0.50424562410E+02 -0.68051435970E+02  0.16314135013E+01  0.11402516141E+03  0.76324579871E+02 0.  0.
          6    2    1    2  501    0  0.83160515606E+01  0.13806892807E+03  0.12099461184E+04  0.12309963305E+04  0.17958332535E+03 0.  0.
         24    2    5    5    0    0  0.60611297454E+02  0.60166968350E+02  0.88871624989E+03  0.89631106570E+03  0.79140130290E+02 0.  0.
          5    1    5    5  501    0 -0.52295245894E+02  0.77901959723E+02  0.32122986848E+03  0.33468526480E+03  0.47000000000E+01 0. -1.
        -11    1    6    6    0    0  0.56296451177E+02  0.99484076855E+01  0.29700865857E+03  0.30246058338E+03  0.00000000000E+00 0.  1.
         12    1    6    6    0    0  0.43148462778E+01  0.50218560665E+02  0.59170759132E+03  0.59385048232E+03  0.00000000000E+00 0. -1.
         -5    1    3    3    0  503  0.42108510849E+02 -0.70017492104E+02 -0.97850897050E+02  0.12756356823E+03  0.47000000000E+01 0.  1.
         13    1    4    4    0    0 -0.84952374858E+01 -0.48671477715E+02  0.31890073071E+02  0.58805259657E+02  0.00000000000E+00 0. -1.
        -14    1    4    4    0    0 -0.41929324924E+02 -0.19379958255E+02 -0.30258659569E+02  0.55219901752E+02  0.00000000000E+00 0.  1.
<mgrwt>
<rscale>  2 0.22539698E+03</rscale>
<asrwt>0</asrwt>
<pdfrwt beam="1">  1       21 0.19894705E+00 0.22667677E+03</pdfrwt>
<pdfrwt beam="2">  1       21 0.27604495E-01 0.22667677E+03</pdfrwt>
<totfact> 0.16507874E+03</totfact>
</mgrwt>
</event>
<event>
12    1  0.1039378E-001  0.1970547E+03  0.7546771E-02  0.1152416E+00
         21   -1    0    0  501  502  0.00000000000E+00  0.00000000000E+00  0.37937116098E+02  0.37937116098E+02  0.00000000000E+00 0. -1.
         21   -1    0    0  502  503 -0.00000000000E+00 -0.00000000000E+00 -0.11603366517E+04  0.11603366517E+04  0.00000000000E+00 0. -1.
         -6    2    1    2    0  503  0.84503259810E+02 -0.32510015435E+02 -0.77089387357E+03  0.79568077749E+03  0.17502237956E+03 0.  0.
        -24    2    3    3    0    0  0.11738290458E+03 -0.31393285634E+02 -0.72254800705E+03  0.73701451005E+03  0.79689904427E+02 0.  0.
          6    2    1    2  501    0 -0.84503259810E+02  0.32510015435E+02 -0.35150566206E+03  0.40259299033E+03  0.17414701657E+03 0.  0.
         24    2    5    5    0    0 -0.10317156779E+03  0.45082275877E+02 -0.35352409086E+03  0.37951201309E+03  0.79832958532E+02 0.  0.
          5    1    5    5  501    0  0.18668307976E+02 -0.12572260442E+02  0.20184287999E+01  0.23080977235E+02  0.47000000000E+01 0. -1.
        -13    1    6    6    0    0 -0.38079741242E+02 -0.14968315189E+02 -0.57831463141E+02  0.70842044590E+02  0.00000000000E+00 0.  1.
         14    1    6    6    0    0 -0.65091826544E+02  0.60050591065E+02 -0.29569262772E+03  0.30866996850E+03  0.00000000000E+00 0. -1.
         -5    1    3    3    0  503 -0.32879644773E+02 -0.11167298012E+01 -0.48345866518E+02  0.58666267439E+02  0.47000000000E+01 0.  1.
         11    1    4    4    0    0  0.42379588017E+02  0.15220102792E+02 -0.40236262870E+03  0.40487450646E+03  0.00000000000E+00 0. -1.
        -12    1    4    4    0    0  0.75003316566E+02 -0.46613388426E+02 -0.32018537835E+03  0.33214000359E+03  0.00000000000E+00 0.  1.
<mgrwt>
<rscale>  2 0.19686009E+03</rscale>
<asrwt>0</asrwt>
<pdfrwt beam="1">  1       21 0.58364803E-02 0.19705465E+03</pdfrwt>
<pdfrwt beam="2">  1       21 0.17851330E+00 0.19705465E+03</pdfrwt>
<totfact> 0.38394574E+04</totfact>
</mgrwt>
</event>
<event>
12    1  0.1039378E-001  0.1771286E+03  0.7546771E-02  0.1171030E+00
         21   -1    0    0  501  502  0.00000000000E+00  0.00000000000E+00  0.30152707672E+02  0.30152707672E+02  0.00000000000E+00 0.  1.
         21   -1    0    0  502  503 -0.00000000000E+00 -0.00000000000E+00 -0.10369109363E+04  0.10369109363E+04  0.00000000000E+00 0. -1.
         -6    2    1    2    0  503  0.27864458004E+02  0.15208466959E+02 -0.54729738534E+03  0.57524687634E+03  0.17426076797E+03 0.  0.
        -24    2    3    3    0    0  0.27567997962E+02  0.22105629729E+02 -0.55631099811E+03  0.56295891646E+03  0.78690289292E+02 0.  0.
          6    2    1    2  501    0 -0.27864458004E+02 -0.15208466959E+02 -0.45946084329E+03  0.49181676763E+03  0.17254489537E+03 0.  0.
         24    2    5    5    0    0 -0.49992097217E+02  0.18810568841E+02 -0.43478611477E+03  0.44408984188E+03  0.72964202046E+02 0.  0.
          5    1    5    5  501    0  0.22127639213E+02 -0.34019035800E+02 -0.24674728514E+02  0.47726925746E+02  0.47000000000E+01 0. -1.
        -11    1    6    6    0    0 -0.45760964335E+02  0.95918453099E+01 -0.11497853060E+03  0.12412143994E+03  0.00000000000E+00 0.  1.
         12    1    6    6    0    0 -0.42311328823E+01  0.92187235309E+01 -0.31980758417E+03  0.31996840194E+03  0.00000000000E+00 0. -1.
         -5    1    3    3    0  503  0.29646004208E+00 -0.68971627699E+01  0.90136127707E+01  0.12287959880E+02  0.47000000000E+01 0.  1.
         11    1    4    4    0    0  0.51007967116E+02  0.31983889292E+02 -0.35870234022E+03  0.36371987952E+03  0.00000000000E+00 0. -1.
        -12    1    4    4    0    0 -0.23439969154E+02 -0.98782595633E+01 -0.19760865789E+03  0.19923903694E+03  0.00000000000E+00 0.  1.
<mgrwt>
<rscale>  2 0.17670513E+03</rscale>
<asrwt>0</asrwt>
<pdfrwt beam="1">  1       21 0.46388784E-02 0.17712860E+03</pdfrwt>
<pdfrwt beam="2">  1       21 0.15952475E+00 0.17712860E+03</pdfrwt>
<totfact> 0.78115448E+04</totfact>
</mgrwt>
</event>
<event>
12    1  0.1039378E-001  0.3019724E+03  0.7546771E-02  0.1084379E+00
         21   -1    0    0  503  502  0.00000000000E+00  0.00000000000E+00  0.45101320160E+02  0.45101320160E+02  0.00000000000E+00 0.  1.
         21   -1    0    0  501  503 -0.00000000000E+00 -0.00000000000E+00 -0.26593391971E+04  0.26593391971E+04  0.00000000000E+00 0. -1.
          6    2    1    2  501    0  0.23494639378E+03 -0.77089749982E+02 -0.19741135495E+04  0.19970757719E+04  0.17333405632E+03 0.  0.
         24    2    3    3    0    0  0.73281223443E+02  0.23506084909E+02 -0.79387705710E+03  0.80156942847E+03  0.79687471632E+02 0.  0.
         -6    2    1    2    0  502 -0.23494639378E+03  0.77089749982E+02 -0.64012432746E+03  0.70736474534E+03  0.17164816001E+03 0.  0.
        -24    2    5    5    0    0 -0.91790363002E+02 -0.21155374983E+02 -0.32322731686E+03  0.34599020410E+03  0.79751503660E+02 0.  0.
          5    1    3    3  501    0  0.16166517033E+03 -0.10059583489E+03 -0.11802364924E+04  0.11955063435E+04  0.47000000000E+01 0. -1.
        -13    1    4    4    0    0  0.87182224704E+02  0.29764646561E+02 -0.73499874017E+03  0.74074950053E+03  0.00000000000E+00 0.  1.
         14    1    4    4    0    0 -0.13901001261E+02 -0.62585616515E+01 -0.58878316936E+02  0.60819927945E+02  0.00000000000E+00 0. -1.
         -5    1    5    5    0  502 -0.14315603077E+03  0.98245124966E+02 -0.31689701060E+03  0.36137454124E+03  0.47000000000E+01 0.  1.
         11    1    6    6    0    0 -0.99337846976E+02 -0.35410530899E+02 -0.29734476009E+03  0.31549297915E+03  0.00000000000E+00 0. -1.
        -12    1    6    6    0    0  0.75474839738E+01  0.14255155915E+02 -0.25882556772E+02  0.30497224949E+02  0.00000000000E+00 0.  1.
<mgrwt>
<rscale>  2 0.30173098E+03</rscale>
<asrwt>0</asrwt>
<pdfrwt beam="1">  1       21 0.69386641E-02 0.30197240E+03</pdfrwt>
<pdfrwt beam="2">  1       21 0.40912914E+00 0.30197240E+03</pdfrwt>
<totfact> 0.10276499E+03</totfact>
</mgrwt>
</event>
<event>
12    1  0.1039378E-001  0.1831830E+03  0.7546771E-02  0.1164883E+00
         21   -1    0    0  503  502  0.00000000000E+00  0.00000000000E+00  0.28804540568E+03  0.28804540568E+03  0.00000000000E+00 0. -1.
         21   -1    0    0  501  503 -0.00000000000E+00 -0.00000000000E+00 -0.11992856674E+03  0.11992856674E+03  0.00000000000E+00 0. -1.
          6    2    1    2  501    0  0.87107533211E+00  0.59346681563E+02  0.47779534571E+02  0.18880034133E+03  0.17274228659E+03 0.  0.
         24    2    3    3    0    0  0.27928103463E+02  0.57790036673E+02 -0.30111584205E+02  0.10619512177E+03  0.79063449721E+02 0.  0.
         -6    2    1    2    0  502 -0.87107533211E+00 -0.59346681563E+02  0.12033730437E+03  0.21917363109E+03  0.17330097044E+03 0.  0.
        -24    2    5    5    0    0  0.31425381772E+02  0.66139188813E+01  0.11585210636E+03  0.14544392911E+03  0.81859192676E+02 0.  0.
          5    1    3    3  501    0 -0.27057028131E+02  0.15566448899E+01  0.77891118776E+02  0.82605219561E+02  0.47000000000E+01 0. -1.
        -13    1    4    4    0    0  0.37857328358E+01 -0.19972502516E+02 -0.77608840460E+01  0.21759226802E+02  0.00000000000E+00 0.  1.
         14    1    4    4    0    0  0.24142370627E+02  0.77762539190E+02 -0.22350700159E+02  0.84435894964E+02  0.00000000000E+00 0. -1.
         -5    1    5    5    0  502 -0.32296457105E+02 -0.65960600445E+02  0.44851980149E+01  0.73729701978E+02  0.47000000000E+01 0.  1.
         11    1    6    6    0    0  0.58690809285E+02 -0.28242151186E+01  0.71711165749E+02  0.92709646632E+02  0.00000000000E+00 0. -1.
        -12    1    6    6    0    0 -0.27265427513E+02  0.94381339999E+01  0.44140940610E+02  0.52734282481E+02  0.00000000000E+00 0.  1.
<mgrwt>
<rscale>  2 0.18305075E+03</rscale>
<asrwt>0</asrwt>
<pdfrwt beam="1">  1       21 0.44314677E-01 0.18318301E+03</pdfrwt>
<pdfrwt beam="2">  1       21 0.18450549E-01 0.18318301E+03</pdfrwt>
<totfact> 0.13157746E+05</totfact>
</mgrwt>
</event>
<event>
12    1  0.1039378E-001  0.1795544E+03  0.7546771E-02  0.1169615E+00
         21   -1    0    0  503  502  0.00000000000E+00  0.00000000000E+00  0.12584931425E+03  0.12584931425E+03  0.00000000000E+00 0. -1.
         21   -1    0    0  501  503 -0.00000000000E+00 -0.00000000000E+00 -0.27019733557E+03  0.27019733557E+03  0.00000000000E+00 0. -1.
          6    2    1    2  501    0 -0.21955138232E+02 -0.44942456442E+02 -0.14714801388E+02  0.17458662279E+03  0.16661965968E+03 0.  0.
         24    2    3    3    0    0 -0.37148636994E+02  0.17176800925E+02  0.31217631275E+02  0.95709991836E+02  0.80689517995E+02 0.  0.
         -6    2    1    2    0  502  0.21955138232E+02  0.44942456442E+02 -0.12963321994E+03  0.22146002703E+03  0.17244685957E+03 0.  0.
        -24    2    5    5    0    0 -0.52021493383E+02  0.37947932535E+02 -0.95280504491E+02  0.13946207310E+03  0.78898757533E+02 0.  0.
          5    1    3    3  501    0  0.15193498762E+02 -0.62119257367E+02 -0.45932432663E+02  0.78876630955E+02  0.47000000000E+01 0. -1.
        -11    1    4    4    0    0 -0.37258901633E+02 -0.25919055060E+02  0.25979510370E+02  0.52296827104E+02  0.00000000000E+00 0.  1.
         12    1    4    4    0    0  0.11026463900E+00  0.43095855985E+02  0.52381209057E+01  0.43413164731E+02  0.00000000000E+00 0. -1.
         -5    1    5    5    0  502  0.73976631616E+02  0.69945239068E+01 -0.34352715448E+02  0.81997953929E+02  0.47000000000E+01 0.  1.
         11    1    6    6    0    0 -0.76419439803E+01  0.99038436064E+01  0.13665916031E+02  0.18526809950E+02  0.00000000000E+00 0. -1.
        -12    1    6    6    0    0 -0.44379549403E+02  0.28044088929E+02 -0.10894642052E+03  0.12093526315E+03  0.00000000000E+00 0.  1.
<mgrwt>
<rscale>  2 0.17814052E+03</rscale>
<asrwt>0</asrwt>
<pdfrwt beam="1">  1       21 0.19361433E-01 0.17955437E+03</pdfrwt>
<pdfrwt beam="2">  1       21 0.41568820E-01 0.17955437E+03</pdfrwt>
<totfact> 0.13724072E+05</totfact>
</mgrwt>
</event>
<event>
12    1  0.1039378E-001  0.2037968E+03  0.7546771E-02  0.1146689E+00
         21   -1    0    0  501  502  0.00000000000E+00  0.00000000000E+00  0.75111400112E+02  0.75111400112E+02  0.00000000000E+00 0.  1.
         21   -1    0    0  502  503 -0.00000000000E+00 -0.00000000000E+00 -0.70409621545E+03  0.70409621545E+03  0.00000000000E+00 0. -1.
         -6    2    1    2    0  503  0.85183714469E+02  0.62891119336E+02 -0.49556113330E+03  0.53561982184E+03  0.17348255995E+03 0.  0.
        -24    2    3    3    0    0 -0.15941461640E+02  0.12380383142E+02 -0.25441445750E+03  0.26925269743E+03  0.85807312069E+02 0.  0.
          6    2    1    2  501    0 -0.85183714469E+02 -0.62891119336E+02 -0.13342368204E+03  0.24358779373E+03  0.17413091690E+03 0.  0.
         24    2    5    5    0    0 -0.11579869666E+03 -0.16945604407E+02 -0.65584191251E+02  0.15599467763E+03  0.79602522888E+02 0.  0.
          5    1    5    5  501    0  0.30614982191E+02 -0.45945514929E+02 -0.67839490788E+02  0.87593116094E+02  0.47000000000E+01 0. -1.
        -11    1    6    6    0    0  0.10284861338E+02  0.38847174211E+01 -0.14902150882E+02  0.18518733841E+02  0.00000000000E+00 0.  1.
         12    1    6    6    0    0 -0.12608355800E+03 -0.20830321828E+02 -0.50682040370E+02  0.13747594379E+03  0.00000000000E+00 0. -1.
         -5    1    3    3    0  503  0.10112517611E+03  0.50510736194E+02 -0.24114667580E+03  0.26636712441E+03  0.47000000000E+01 0.  1.
         11    1    4    4    0    0 -0.16768409576E+02  0.26680985341E+01 -0.25822814872E+03  0.25878577067E+03  0.00000000000E+00 0. -1.
        -12    1    4    4    0    0  0.82694793642E+00  0.97122846084E+01  0.38136912192E+01  0.10466926766E+02  0.00000000000E+00 0.  1.
<mgrwt>
<rscale>  2 0.20365823E+03</rscale>
<asrwt>0</asrwt>
<pdfrwt beam="1">  1       21 0.11555600E-01 0.20379680E+03</pdfrwt>
<pdfrwt beam="2">  1       21 0.10832249E+00 0.20379680E+03</pdfrwt>
<totfact> 0.42294898E+04</totfact>
</mgrwt>
</event>
<event>
12    1  0.1039378E-001  0.1838050E+03  0.7546771E-02  0.1164921E+00
         21   -1    0    0  503  502  0.00000000000E+00  0.00000000000E+00  0.36405709341E+03  0.36405709341E+03  0.00000000000E+00 0.  1.
         21   -1    0    0  501  503 -0.00000000000E+00 -0.00000000000E+00 -0.91536157465E+02  0.91536157465E+02  0.00000000000E+00 0.  1.
          6    2    1    2  501    0  0.20275851935E+02  0.48446194887E+02  0.12154109915E+03  0.21772944320E+03  0.17284596520E+03 0.  0.
         24    2    3    3    0    0  0.49354777810E+02  0.89954162290E+02  0.91563486961E+02  0.15865963264E+03  0.79128765173E+02 0.  0.
         -6    2    1    2    0  502 -0.20275851935E+02 -0.48446194887E+02  0.15097983680E+03  0.23786380767E+03  0.17614237397E+03 0.  0.
        -24    2    5    5    0    0  0.15511153359E+02 -0.72530977428E+02  0.15957793347E+03  0.19362803296E+03  0.80779698762E+02 0.  0.
          5    1    3    3  501    0 -0.29078925875E+02 -0.41507967403E+02  0.29977612187E+02  0.59069810567E+02  0.47000000000E+01 0. -1.
        -13    1    4    4    0    0 -0.24400357085E+01  0.60353105406E+01 -0.13240052356E+02  0.14753905719E+02  0.00000000000E+00 0.  1.
         14    1    4    4    0    0  0.51794813518E+02  0.83918851750E+02  0.10480353932E+03  0.14390572692E+03  0.00000000000E+00 0. -1.
         -5    1    5    5    0  502 -0.35787005294E+02  0.24084782541E+02 -0.85980966719E+01  0.44235774712E+02  0.47000000000E+01 0.  1.
         11    1    6    6    0    0  0.29843083433E+02  0.39082525384E+01  0.61391843920E+02  0.68372820379E+02  0.00000000000E+00 0. -1.
        -12    1    6    6    0    0 -0.14331930073E+02 -0.76439229967E+02  0.98186089547E+02  0.12525521258E+03  0.00000000000E+00 0.  1.
<mgrwt>
<rscale>  2 0.18301074E+03</rscale>
<asrwt>0</asrwt>
<pdfrwt beam="1">  1       21 0.56008783E-01 0.18380501E+03</pdfrwt>
<pdfrwt beam="2">  1       21 0.14082486E-01 0.18380501E+03</pdfrwt>
<totfact> 0.13244130E+05</totfact>
</mgrwt>
</event>
<event>
12    1  0.1039378E-001  0.1836176E+03  0.7546771E-02  0.1164349E+00
         21   -1    0    0  501  502  0.00000000000E+00  0.00000000000E+00  0.79285537838E+03  0.79285537838E+03  0.00000000000E+00 0.  1.
         21   -1    0    0  502  503 -0.00000000000E+00 -0.00000000000E+00 -0.63319919444E+02  0.63319919444E+02  0.00000000000E+00 0.  1.
         -6    2    1    2    0  503  0.12787844193E+02  0.58444582413E+02  0.11942378015E+03  0.21903193126E+03  0.17359046481E+03 0.  0.
        -24    2    3    3    0    0 -0.53937132910E+02  0.59650049373E+02  0.77928005093E+02  0.14030668075E+03  0.84533117704E+02 0.  0.
          6    2    1    2  501    0 -0.12787844193E+02 -0.58444582413E+02  0.61011167879E+03  0.63714336657E+03  0.17359755412E+03 0.  0.
         24    2    5    5    0    0  0.47688749904E+02 -0.49324891184E+02  0.50393650973E+03  0.51452263534E+03  0.77938274836E+02 0.  0.
          5    1    5    5  501    0 -0.60476594097E+02 -0.91196912292E+01  0.10617516906E+03  0.12262073123E+03  0.47000000000E+01 0. -1.
        -11    1    6    6    0    0 -0.11315643678E+02 -0.43015483703E+02  0.21165809917E+03  0.21628112857E+03  0.00000000000E+00 0.  1.
         12    1    6    6    0    0  0.59004393582E+02 -0.63094074807E+01  0.29227841055E+03  0.29824150677E+03  0.00000000000E+00 0. -1.
         -5    1    3    3    0  503  0.66724977103E+02 -0.12054669601E+01  0.41495775057E+02  0.78725250508E+02  0.47000000000E+01 0.  1.
         11    1    4    4    0    0 -0.25860620183E+02 -0.30728691193E+01  0.65479321148E+02  0.70468118315E+02  0.00000000000E+00 0. -1.
        -12    1    4    4    0    0 -0.28076512727E+02  0.62722918492E+02  0.12448683945E+02  0.69838562436E+02  0.00000000000E+00 0.  1.
<mgrwt>
<rscale>  2 0.18361589E+03</rscale>
<asrwt>0</asrwt>
<pdfrwt beam="1">  1       21 0.12197774E+00 0.18361756E+03</pdfrwt>
<pdfrwt beam="2">  1       21 0.97415267E-02 0.18361756E+03</pdfrwt>
<totfact> 0.43303060E+04</totfact>
</mgrwt>
</event>
<event>
12    1  0.1039378E-001  0.2141431E+03  0.7546771E-02  0.1138388E+00
         21   -1    0    0  501  502  0.00000000000E+00  0.00000000000E+00  0.21392345694E+04  0.21392345694E+04  0.00000000000E+00 0. -1.
         21   -1    0    0  502  503 -0.00000000000E+00 -0.00000000000E+00 -0.36028672283E+02  0.36028672283E+02  0.00000000000E+00 0. -1.
         -6    2    1    2    0  503  0.12402146392E+03 -0.24253947557E+02  0.35912828265E+03  0.41812723035E+03  0.17288053641E+03 0.  0.
        -24    2    3    3    0    0  0.13944095938E+03  0.15420347086E+02  0.32740041548E+03  0.36483034440E+03  0.78921352531E+02 0.  0.
          6    2    1    2  501    0 -0.12402146392E+03  0.24253947557E+02  0.17440776145E+04  0.17571360114E+04  0.17248379512E+03 0.  0.
         24    2    5    5    0    0 -0.10155647825E+03  0.61996667509E+02  0.85722104712E+03  0.86918001607E+03  0.80552291414E+02 0.  0.
          5    1    5    5  501    0 -0.22464985671E+02 -0.37742719952E+02  0.88685656736E+03  0.88795599528E+03  0.47000000000E+01 0. -1.
        -11    1    6    6    0    0 -0.92987362084E+01 -0.15751812552E+02  0.55627518803E+02  0.58557723162E+02  0.00000000000E+00 0.  1.
         12    1    6    6    0    0 -0.92257742041E+02  0.77748480061E+02  0.80159352832E+03  0.81062229291E+03  0.00000000000E+00 0. -1.
         -5    1    3    3    0  503 -0.15419495460E+02 -0.39674294642E+02  0.31727867176E+02  0.53296885942E+02  0.47000000000E+01 0.  1.
         13    1    4    4    0    0  0.21364556085E+02 -0.27811261405E+02  0.64977339688E+02  0.73837424052E+02  0.00000000000E+00 0. -1.
        -14    1    4    4    0    0  0.11807640330E+03  0.43231608491E+02  0.26242307579E+03  0.29099292035E+03  0.00000000000E+00 0.  1.
<mgrwt>
<rscale>  2 0.21406299E+03</rscale>
<asrwt>0</asrwt>
<pdfrwt beam="1">  1       21 0.32911291E+00 0.21414308E+03</pdfrwt>
<pdfrwt beam="2">  1       21 0.55428743E-02 0.21414308E+03</pdfrwt>
<totfact> 0.51020249E+03</totfact>
</mgrwt>
</event>
<event>
12    1  0.1039378E-001  0.2256223E+03  0.7546771E-02  0.1129882E+00
         21   -1    0    0  503  502  0.00000000000E+00  0.00000000000E+00  0.86829934323E+03  0.86829934323E+03  0.00000000000E+00 0. -1.
         21   -1    0    0  501  503 -0.00000000000E+00 -0.00000000000E+00 -0.11115271605E+03  0.11115271605E+03  0.00000000000E+00 0. -1.
          6    2    1    2  501    0 -0.35159282122E+02  0.14095830214E+03  0.71548821395E+03  0.75001610943E+03  0.17174213820E+03 0.  0.
         24    2    3    3    0    0  0.18502289109E+02  0.94596989137E+01  0.23320814240E+03  0.24723623284E+03  0.79422267307E+02 0.  0.
         -6    2    1    2    0  502  0.35159282122E+02 -0.14095830214E+03  0.41658413223E+02  0.22943594985E+03  0.17262680449E+03 0.  0.
        -24    2    5    5    0    0  0.34359421763E+02 -0.15916625902E+03 -0.25289642275E+01  0.18140696073E+03  0.79922599239E+02 0.  0.
          5    1    3    3  501    0 -0.53661571231E+02  0.13149860323E+03  0.48228007155E+03  0.50277987658E+03  0.47000000000E+01 0. -1.
        -13    1    4    4    0    0  0.45389648651E+02 -0.80176158297E+01  0.17282520135E+03  0.17886601854E+03  0.00000000000E+00 0.  1.
         14    1    4    4    0    0 -0.26887359541E+02  0.17477314743E+02  0.60382941049E+02  0.68370214300E+02  0.00000000000E+00 0. -1.
         -5    1    5    5    0  502  0.79986035880E+00  0.18207956872E+02  0.44187377450E+02  0.48028989121E+02  0.47000000000E+01 0.  1.
         11    1    6    6    0    0  0.57070946310E+02 -0.83484786361E+02 -0.11951013018E+02  0.10183137620E+03  0.00000000000E+00 0. -1.
        -12    1    6    6    0    0 -0.22711524546E+02 -0.75681472655E+02  0.94220487908E+01  0.79575584533E+02  0.00000000000E+00 0.  1.
<mgrwt>
<rscale>  2 0.22545309E+03</rscale>
<asrwt>0</asrwt>
<pdfrwt beam="1">  1       21 0.13358451E+00 0.22562232E+03</pdfrwt>
<pdfrwt beam="2">  1       21 0.17100418E-01 0.22562232E+03</pdfrwt>
<totfact> 0.12175827E+04</totfact>
</mgrwt>
</event>
<event>
12    1  0.1039378E-001  0.1877939E+03  0.7546771E-02  0.1160861E+00
         21   -1    0    0  503  502  0.00000000000E+00  0.00000000000E+00  0.33370199545E+03  0.33370199545E+03  0.00000000000E+00 0. -1.
         21   -1    0    0  501  503 -0.00000000000E+00 -0.00000000000E+00 -0.22696597525E+03  0.22696597525E+03  0.00000000000E+00 0. -1.
          6    2    1    2  501    0 -0.56054115869E+02 -0.45642052664E+02 -0.15248204262E+03  0.24057339560E+03  0.17146289533E+03 0.  0.
         24    2    3    3    0    0 -0.63546481483E+02  0.28552632881E+02 -0.95218557367E+02  0.14643422390E+03  0.86735229922E+02 0.  0.
         -6    2    1    2    0  502  0.56054115869E+02  0.45642052664E+02  0.25921806282E+03  0.32009457509E+03  0.17332418191E+03 0.  0.
        -24    2    5    5    0    0 -0.11503197485E+02 -0.69063648276E+00  0.51053545711E+02  0.96341888284E+02  0.80885687098E+02 0.  0.
          5    1    3    3  501    0  0.74923656136E+01 -0.74194685545E+02 -0.57263485251E+02  0.94139171702E+02  0.47000000000E+01 0. -1.
        -13    1    4    4    0    0  0.18423970476E+02  0.17317438708E+02 -0.38728464532E+02  0.46251814414E+02  0.00000000000E+00 0.  1.
         14    1    4    4    0    0 -0.81970451959E+02  0.11235194173E+02 -0.56490092835E+02  0.10018240949E+03  0.00000000000E+00 0. -1.
         -5    1    5    5    0  502  0.67557313354E+02  0.46332689147E+02  0.20816451711E+03  0.22375268681E+03  0.47000000000E+01 0.  1.
         13    1    6    6    0    0 -0.17557014436E+01  0.34491964937E+02  0.48773089843E+02  0.59762801353E+02  0.00000000000E+00 0. -1.
        -14    1    6    6    0    0 -0.97474960416E+01 -0.35182601419E+02  0.22804558685E+01  0.36579086931E+02  0.00000000000E+00 0.  1.
<mgrwt>
<rscale>  2 0.18736326E+03</rscale>
<asrwt>0</asrwt>
<pdfrwt beam="1">  1       21 0.51338768E-01 0.18779386E+03</pdfrwt>
<pdfrwt beam="2">  1       21 0.34917843E-01 0.18779386E+03</pdfrwt>
<totfact> 0.28583381E+04</totfact>
</mgrwt>
</event>
<event>
12    1  0.1039378E-001  0.2245041E+03  0.7546771E-02  0.1130626E+00
         21   -1    0    0  503  502  0.00000000000E+00  0.00000000000E+00  0.24378952765E+03  0.24378952765E+03  0.00000000000E+00 0.  1.
         21   -1    0    0  501  503 -0.00000000000E+00 -0.00000000000E+00 -0.21201736422E+03  0.21201736422E+03  0.00000000000E+00 0. -1.
          6    2    1    2  501    0  0.67534768909E+02 -0.12632050342E+03 -0.21009828894E+02  0.22548504730E+03  0.17287070038E+03 0.  0.
         24    2    3    3    0    0  0.51802255440E+02 -0.52446919825E+00  0.10633864516E+02  0.94735028034E+02  0.78599603851E+02 0.  0.
         -6    2    1    2    0  502 -0.67534768909E+02  0.12632050342E+03  0.52781992329E+02  0.23032184457E+03  0.17246564520E+03 0.  0.
        -24    2    5    5    0    0 -0.49662076790E+02  0.56099168581E+02  0.93680079208E+02  0.14698390303E+03  0.84940402180E+02 0.  0.
          5    1    3    3  501    0  0.15732513469E+02 -0.12579603422E+03 -0.31643693410E+02  0.13075001926E+03  0.47000000000E+01 0. -1.
        -11    1    4    4    0    0  0.60219169521E+02 -0.27202033798E+02  0.93017704061E+01  0.66729468402E+02  0.00000000000E+00 0.  1.
         12    1    4    4    0    0 -0.84169140809E+01  0.26677564599E+02  0.13320941096E+01  0.28005559632E+02  0.00000000000E+00 0. -1.
         -5    1    5    5    0  502 -0.17872692119E+02  0.70221334834E+02 -0.40898086880E+02  0.83337941538E+02  0.47000000000E+01 0.  1.
         11    1    6    6    0    0 -0.41691369159E+00  0.40814490162E+02  0.88598907772E+00  0.40826234223E+02  0.00000000000E+00 0. -1.
        -12    1    6    6    0    0 -0.49245163099E+02  0.15284678419E+02  0.92794090131E+02  0.10615766881E+03  0.00000000000E+00 0.  1.
<mgrwt>
<rscale>  2 0.22442613E+03</rscale>
<asrwt>0</asrwt>
<pdfrwt beam="1">  1       21 0.37506081E-01 0.22450411E+03</pdfrwt>
<pdfrwt beam="2">  1       21 0.32618056E-01 0.22450411E+03</pdfrwt>
<totfact> 0.61143846E+04</totfact>
</mgrwt>
</event>
<event>
12    1  0.1039378E-001  0.1962090E+03  0.7546771E-02  0.1152990E+00
         21   -1    0    0  501  502  0.00000000000E+00  0.00000000000E+00  0.19675168063E+03  0.19675168063E+03  0.00000000000E+00 0.  1.
         21   -1    0    0  502  503 -0.00000000000E+00 -0.00000000000E+00 -0.19633581400E+03  0.19633581400E+03  0.00000000000E+00 0.  1.
         -6    2    1    2    0  503 -0.43879842522E+01 -0.93522660627E+02  0.12171777934E+02  0.19658620957E+03  0.17243040092E+03 0.  0.
        -24    2    3    3    0    0  0.53864738597E+02 -0.40094705801E+02 -0.27270058415E+02  0.10812336692E+03  0.80237216367E+02 0.  0.
          6    2    1    2  501    0  0.43879842522E+01  0.93522660627E+02 -0.11755911308E+02  0.19650128506E+03  0.17236244116E+03 0.  0.
         24    2    5    5    0    0  0.42727876813E+02  0.90941583070E+02 -0.54767886914E+02  0.13863307817E+03  0.78253216787E+02 0.  0.
          5    1    5    5  501    0 -0.38339892561E+02  0.25810775576E+01  0.43011975606E+02  0.57868206888E+02  0.47000000000E+01 0. -1.
        -13    1    6    6    0    0  0.61679913686E+02  0.64703411837E+02 -0.20934072032E+02  0.91810558366E+02  0.00000000000E+00 0.  1.
         14    1    6    6    0    0 -0.18952036873E+02  0.26238171232E+02 -0.33833814882E+02  0.46822519803E+02  0.00000000000E+00 0. -1.
         -5    1    3    3    0  503 -0.58252722849E+02 -0.53427954827E+02  0.39441836349E+02  0.88462842657E+02  0.47000000000E+01 0.  1.
         13    1    4    4    0    0  0.56218430973E+02 -0.55055344276E+02 -0.20595722004E+01  0.78713688467E+02  0.00000000000E+00 0. -1.
        -14    1    4    4    0    0 -0.23536923763E+01  0.14960638475E+02 -0.25210486215E+02  0.29409678451E+02  0.00000000000E+00 0.  1.
<mgrwt>
<rscale>  2 0.19619410E+03</rscale>
<asrwt>0</asrwt>
<pdfrwt beam="1">  1       21 0.30269489E-01 0.19620904E+03</pdfrwt>
<pdfrwt beam="2">  1       21 0.30205510E-01 0.19620904E+03</pdfrwt>
<totfact> 0.10996698E+05</totfact>
</mgrwt>
</event>
<event>
12    1  0.1039378E-001  0.2075344E+03  0.7546771E-02  0.1149706E+00
         21   -1    0    0  501  502  0.00000000000E+00  0.00000000000E+00  0.98851842702E+02  0.98851842702E+02  0.00000000000E+00 0.  1.
         21   -1    0    0  502  503 -0.00000000000E+00 -0.00000000000E+00 -0.40790034015E+03  0.40790034015E+03  0.00000000000E+00 0. -1.
         -6    2    1    2    0  503 -0.51344375801E+02  0.67985473065E+02 -0.21228332770E+03  0.27776742071E+03  0.15758254762E+03 0.  0.
        -24    2    3    3    0    0  0.19627378159E+02  0.17852124192E+02 -0.68454583161E+02  0.10966286906E+03  0.81461540517E+02 0.  0.
          6    2    1    2  501    0  0.51344375801E+02 -0.67985473065E+02 -0.96765169740E+02  0.22898476213E+03  0.18924125803E+03 0.  0.
         24    2    5    5    0    0  0.23531044824E+02  0.39718506525E+02 -0.20204022165E+02  0.93864712114E+02  0.79190351922E+02 0.  0.
          5    1    5    5  501    0  0.27813330977E+02 -0.10770397959E+03 -0.76561147575E+02  0.13512005002E+03  0.47000000000E+01 0. -1.
        -13    1    6    6    0    0 -0.21662521854E+02 -0.39238059951E+01  0.99711649535E+01  0.24167855450E+02  0.00000000000E+00 0.  1.
         14    1    6    6    0    0  0.45193566678E+02  0.43642312520E+02 -0.30175187119E+02  0.69696856664E+02  0.00000000000E+00 0. -1.
         -5    1    3    3    0  503 -0.70971753960E+02  0.50133348873E+02 -0.14382874454E+03  0.16810455165E+03  0.47000000000E+01 0.  1.
         11    1    4    4    0    0 -0.24882293533E+02  0.21875937593E+01 -0.55297412787E+02  0.60677161757E+02  0.00000000000E+00 0. -1.
        -12    1    4    4    0    0  0.44509671692E+02  0.15664530432E+02 -0.13157170374E+02  0.48985707304E+02  0.00000000000E+00 0.  1.
<mgrwt>
<rscale>  2 0.20003900E+03</rscale>
<asrwt>0</asrwt>
<pdfrwt beam="1">  1       21 0.15207976E-01 0.20753439E+03</pdfrwt>
<pdfrwt beam="2">  1       21 0.62753897E-01 0.20753439E+03</pdfrwt>
<totfact> 0.89429050E+04</totfact>
</mgrwt>
</event>
<event>
12    1  0.1039378E-001  0.1758468E+03  0.7546771E-02  0.1172244E+00
         21   -1    0    0  501  502  0.00000000000E+00  0.00000000000E+00  0.17359900036E+04  0.17359900036E+04  0.00000000000E+00 0.  1.
         21   -1    0    0  502  503 -0.00000000000E+00 -0.00000000000E+00 -0.21369163030E+02  0.21369163030E+02  0.00000000000E+00 0.  1.
         -6    2    1    2    0  503  0.11695577040E+02 -0.29987269597E+02  0.48867011952E+03  0.51886117988E+03  0.17141299662E+03 0.  0.
        -24    2    3    3    0    0  0.39767028182E+02 -0.62394863122E+02  0.44061468374E+03  0.45428817162E+03  0.82230820682E+02 0.  0.
          6    2    1    2  501    0 -0.11695577040E+02  0.29987269597E+02  0.12259507210E+04  0.12384979867E+04  0.17287588002E+03 0.  0.
         24    2    5    5    0    0 -0.58334746343E+02 -0.23873013884E+02  0.80725164439E+03  0.81375435932E+03  0.81043670457E+02 0.  0.
          5    1    5    5  501    0  0.46639169303E+02  0.53860283480E+02  0.41869907661E+03  0.42474362739E+03  0.47000000000E+01 0. -1.
        -11    1    6    6    0    0  0.15120776276E+02 -0.22926256278E+02  0.15910560765E+03  0.16145849463E+03  0.00000000000E+00 0.  1.
         12    1    6    6    0    0 -0.73455522619E+02 -0.94675760588E+00  0.64814603674E+03  0.65229586469E+03  0.00000000000E+00 0. -1.
         -5    1    3    3    0  503 -0.28071451142E+02  0.32407593525E+02  0.48055435780E+02  0.64573008257E+02  0.47000000000E+01 0.  1.
         11    1    4    4    0    0  0.19356758537E+02 -0.52440395933E+02  0.41973117562E+03  0.42343705437E+03  0.00000000000E+00 0. -1.
        -12    1    4    4    0    0  0.20410269644E+02 -0.99544671889E+01  0.20883508119E+02  0.30851117246E+02  0.00000000000E+00 0.  1.
<mgrwt>
<rscale>  2 0.17548619E+03</rscale>
<asrwt>0</asrwt>
<pdfrwt beam="1">  1       21 0.26707527E+00 0.17584679E+03</pdfrwt>
<pdfrwt beam="2">  1       21 0.32875649E-02 0.17584679E+03</pdfrwt>
<totfact> 0.29174542E+04</totfact>
</mgrwt>
</event>
<event>
11    1  0.1039378E-001  0.1754932E+03  0.7546771E-02  0.1172734E+00
         21   -1    0    0  503  502  0.00000000000E+00  0.00000000000E+00  0.15331306777E+03  0.15331306777E+03  0.00000000000E+00 0. -1.
         21   -1    0    0  501  503 -0.00000000000E+00 -0.00000000000E+00 -0.27303175171E+03  0.27303175171E+03  0.00000000000E+00 0. -1.
          6    2    1    2  501    0  0.16337568371E+02  0.21171994491E+02 -0.17089286725E+03  0.24354260982E+03  0.17144521350E+03 0.  0.
         -6    2    1    2    0  502 -0.16337568371E+02 -0.21171994491E+02  0.51174183300E+02  0.18280220966E+03  0.17344359696E+03 0.  0.
        -24    2    4    4    0    0  0.49667966196E+02  0.21346598577E+02  0.22638503850E+02  0.99130611419E+02  0.79948684334E+02 0.  0.
          5    1    3    3  501    0  0.93011974132E+01  0.38877085301E+02 -0.76840649517E+02  0.86743964937E+02  0.47000000000E+01 0. -1.
        -11    1    3    3    0    0  0.52165354494E+02 -0.48174608978E+02 -0.53260483045E+02  0.88762020109E+02  0.00000000000E+00 0.  1.
         12    1    3    3    0    0 -0.45128983536E+02  0.30469518167E+02 -0.40791734687E+02  0.68036624778E+02  0.00000000000E+00 0. -1.
         -5    1    4    4    0  502 -0.66005534567E+02 -0.42518593068E+02  0.28535679450E+02  0.83671598237E+02  0.47000000000E+01 0.  1.
         11    1    5    5    0    0  0.38589801655E+01  0.43341506540E+02  0.31371767362E-01  0.43512973942E+02  0.00000000000E+00 0. -1.
        -12    1    5    5    0    0  0.45808986031E+02 -0.21994907963E+02  0.22607132082E+02  0.55617637477E+02  0.00000000000E+00 0.  1.
<mgrwt>
<rscale>  2 0.17499737E+03</rscale>
<asrwt>0</asrwt>
<pdfrwt beam="1">  1       21 0.23586626E-01 0.17549316E+03</pdfrwt>
<pdfrwt beam="2">  1       21 0.42004885E-01 0.17549316E+03</pdfrwt>
<totfact> 0.92923111E+04</totfact>
</mgrwt>
</event>
<event>
12    1  0.1039378E-001  0.1728178E+03  0.7546771E-02  0.1174980E+00
         21   -1    0    0  501  502  0.00000000000E+00  0.00000000000E+00  0.21747282682E+03  0.21747282682E+03  0.00000000000E+00 0.  1.
         21   -1    0    0  502  503 -0.00000000000E+00 -0.00000000000E+00 -0.16779589499E+03  0.16779589499E+03  0.00000000000E+00 0.  1.
         -6    2    1    2    0  503 -0.89240250804E+01 -0.10099921328E+02 -0.57415117345E+02  0.18195939091E+03  0.17213679911E+03 0.  0.
        -24    2    3    3    0    0  0.28504568394E+02 -0.33526505786E+02  0.16285131687E+02  0.95915674255E+02  0.83654492074E+02 0.  0.
          6    2    1    2  501    0  0.89240250804E+01  0.10099921328E+02  0.10709204918E+03  0.20330933090E+03  0.17229141128E+03 0.  0.
         24    2    5    5    0    0 -0.58235708828E+02 -0.17200017714E+01  0.95315389891E+02  0.13394853402E+03  0.73910960122E+02 0.  0.
          5    1    5    5  501    0  0.67159733908E+02  0.11819923099E+02  0.11776659288E+02  0.69360796886E+02  0.47000000000E+01 0. -1.
        -11    1    6    6    0    0  0.24275787705E+01  0.22381302079E+02  0.48959773263E+02  0.53887616568E+02  0.00000000000E+00 0.  1.
         12    1    6    6    0    0 -0.60663287598E+02 -0.24101303851E+02  0.46355616628E+02  0.80060917447E+02  0.00000000000E+00 0. -1.
         -5    1    3    3    0  503 -0.37428593475E+02  0.23426584458E+02 -0.73700249032E+02  0.86043716658E+02  0.47000000000E+01 0.  1.
         13    1    4    4    0    0  0.49440252049E+02  0.15330560542E+01  0.22970254750E+02  0.54537339382E+02  0.00000000000E+00 0. -1.
        -14    1    4    4    0    0 -0.20935683655E+02 -0.35059561840E+02 -0.66851230632E+01  0.41378334874E+02  0.00000000000E+00 0.  1.
<mgrwt>
<rscale>  2 0.17277921E+03</rscale>
<asrwt>0</asrwt>
<pdfrwt beam="1">  1       21 0.33457358E-01 0.17281776E+03</pdfrwt>
<pdfrwt beam="2">  1       21 0.25814753E-01 0.17281776E+03</pdfrwt>
<totfact> 0.12342694E+05</totfact>
</mgrwt>
</event>
<event>
12    1  0.1039378E-001  0.2233380E+03  0.7546771E-02  0.1131713E+00
         21   -1    0    0  501  502  0.00000000000E+00  0.00000000000E+00  0.35758130494E+03  0.35758130494E+03  0.00000000000E+00 0.  1.
         21   -1    0    0  502  503 -0.00000000000E+00 -0.00000000000E+00 -0.34863926474E+03  0.34863926474E+03  0.00000000000E+00 0.  1.
         -6    2    1    2    0  503  0.13104784301E+03 -0.46114126524E+02 -0.26966998574E+03  0.35014532164E+03  0.17487079583E+03 0.  0.
        -24    2    3    3    0    0  0.16417669105E+03 -0.49916413356E+02 -0.23361127308E+03  0.30080670881E+03  0.80404072943E+02 0.  0.
          6    2    1    2  501    0 -0.13104784301E+03  0.46114126524E+02  0.27861202593E+03  0.35607524804E+03  0.17281455799E+03 0.  0.
         24    2    5    5    0    0 -0.12443048702E+03  0.83834903060E+02  0.17402599434E+03  0.24459890801E+03  0.83859060476E+02 0.  0.
          5    1    5    5  501    0 -0.66173559942E+01 -0.37720776536E+02  0.10458603159E+03  0.11147634003E+03  0.47000000000E+01 0. -1.
        -13    1    6    6    0    0 -0.75452680046E+02  0.74307226097E+01  0.10973498023E+03  0.13337949037E+03  0.00000000000E+00 0.  1.
         14    1    6    6    0    0 -0.48977806972E+02  0.76404180450E+02  0.64291014117E+02  0.11121941765E+03  0.00000000000E+00 0. -1.
         -5    1    3    3    0  503 -0.33128848038E+02  0.38022868319E+01 -0.36058712652E+02  0.49338612826E+02  0.47000000000E+01 0.  1.
         11    1    4    4    0    0  0.56653986428E+02 -0.21851508640E+00 -0.27253762567E+02  0.62868827738E+02  0.00000000000E+00 0. -1.
        -12    1    4    4    0    0  0.10752270462E+03 -0.49697898269E+02 -0.20635751052E+03  0.23793788107E+03  0.00000000000E+00 0.  1.
<mgrwt>
<rscale>  2 0.22293529E+03</rscale>
<asrwt>0</asrwt>
<pdfrwt beam="1">  1       21 0.55012509E-01 0.22333796E+03</pdfrwt>
<pdfrwt beam="2">  1       21 0.53636810E-01 0.22333796E+03</pdfrwt>
<totfact> 0.10048003E+04</totfact>
</mgrwt>
</event>
<event>
12    1  0.1039378E-001  0.2128394E+03  0.7546771E-02  0.1139592E+00
         21   -1    0    0  501  502  0.00000000000E+00  0.00000000000E+00  0.24091996949E+04  0.24091996949E+04  0.00000000000E+00 0. -1.
         21   -1    0    0  502  503 -0.00000000000E+00 -0.00000000000E+00 -0.45465003696E+02  0.45465003696E+02  0.00000000000E+00 0.  1.
         -6    2    1    2    0  503 -0.68773549013E+02  0.10354066327E+03  0.23847062627E+03  0.31876957957E+03  0.17115880132E+03 0.  0.
        -24    2    3    3    0    0 -0.10119137961E+03  0.40441348686E+02  0.18484059352E+03  0.22971504766E+03  0.82022924334E+02 0.  0.
          6    2    1    2  501    0  0.68773549013E+02 -0.10354066327E+03  0.21252640649E+04  0.21358951190E+04  0.17277194159E+03 0.  0.
         24    2    5    5    0    0  0.82742340900E+02 -0.84539567945E+02  0.99258155395E+03  0.10029573761E+04  0.81927549783E+02 0.  0.
          5    1    5    5  501    0 -0.13968791887E+02 -0.19001095325E+02  0.11326825110E+04  0.11329377430E+04  0.47000000000E+01 0. -1.
        -13    1    6    6    0    0  0.32990147887E+02 -0.30489461786E+02  0.13590357976E+03  0.14313539090E+03  0.00000000000E+00 0.  1.
         14    1    6    6    0    0  0.49752193013E+02 -0.54050106159E+02  0.85667797419E+03  0.85982198515E+03  0.00000000000E+00 0. -1.
         -5    1    3    3    0  503  0.32417830593E+02  0.63099314584E+02  0.53630032750E+02  0.89054531912E+02  0.47000000000E+01 0.  1.
         13    1    4    4    0    0 -0.26440399745E+02  0.54267772189E+02  0.83007821956E+02  0.10263714894E+03  0.00000000000E+00 0. -1.
        -14    1    4    4    0    0 -0.74750979860E+02 -0.13826423503E+02  0.10183277157E+03  0.12707789872E+03  0.00000000000E+00 0.  1.
<mgrwt>
<rscale>  2 0.21251181E+03</rscale>
<asrwt>0</asrwt>
<pdfrwt beam="1">  1       21 0.37064601E+00 0.21283941E+03</pdfrwt>
<pdfrwt beam="2">  1       21 0.69946178E-02 0.21283941E+03</pdfrwt>
<totfact> 0.19415187E+03</totfact>
</mgrwt>
</event>
<event>
12    1  0.1039378E-001  0.1960621E+03  0.7546771E-02  0.1153404E+00
         21   -1    0    0  503  502  0.00000000000E+00  0.00000000000E+00  0.21175102358E+03  0.21175102358E+03  0.00000000000E+00 0. -1.
         21   -1    0    0  501  503 -0.00000000000E+00 -0.00000000000E+00 -0.19381319071E+03  0.19381319071E+03  0.00000000000E+00 0.  1.
          6    2    1    2  501    0  0.51319005151E+02 -0.74088410202E+02 -0.44678136896E+02  0.19974609622E+03  0.17256776705E+03 0.  0.
         24    2    3    3    0    0  0.77115049750E+02  0.11071324977E+01 -0.44255552803E+02  0.12010895579E+03  0.80744353778E+02 0.  0.
         -6    2    1    2    0  502 -0.51319005151E+02  0.74088410202E+02  0.62615969763E+02  0.20581811806E+03  0.17411951424E+03 0.  0.
        -24    2    5    5    0    0  0.23505922336E+02  0.27627960295E+02  0.41681498341E+02  0.11516666869E+03  0.10104544373E+03 0.  0.
          5    1    3    3  501    0 -0.25796044600E+02 -0.75195542699E+02 -0.42258409359E+00  0.79637140432E+02  0.47000000000E+01 0. -1.
        -13    1    4    4    0    0  0.53657816202E+02 -0.34659106882E+02 -0.43586007903E+02  0.77331461995E+02  0.00000000000E+00 0.  1.
         14    1    4    4    0    0  0.23457233548E+02  0.35766239380E+02 -0.66954490010E+00  0.42777493796E+02  0.00000000000E+00 0. -1.
         -5    1    5    5    0  502 -0.74824927486E+02  0.46460449906E+02  0.20934471423E+02  0.90651449368E+02  0.47000000000E+01 0.  1.
         13    1    6    6    0    0 -0.16160433823E+02 -0.21417991973E+02 -0.14673051702E+02  0.30580850998E+02  0.00000000000E+00 0. -1.
        -14    1    6    6    0    0  0.39666356159E+02  0.49045952269E+02  0.56354550043E+02  0.84585817697E+02  0.00000000000E+00 0.  1.
<mgrwt>
<rscale>  2 0.19571697E+03</rscale>
<asrwt>0</asrwt>
<pdfrwt beam="1">  1       21 0.32577081E-01 0.19606208E+03</pdfrwt>
<pdfrwt beam="2">  1       21 0.29817414E-01 0.19606208E+03</pdfrwt>
<totfact> 0.97655443E+04</totfact>
</mgrwt>
</event>
<event>
12    1  0.1039378E-001  0.2172091E+03  0.7546771E-02  0.1136209E+00
         21   -1    0    0  501  502  0.00000000000E+00  0.00000000000E+00  0.20224427973E+03  0.20224427973E+03  0.00000000000E+00 0. -1.
         21   -1    0    0  502  503 -0.00000000000E+00 -0.00000000000E+00 -0.38239057878E+03  0.38239057878E+03  0.00000000000E+00 0. -1.
         -6    2    1    2    0  503  0.57088492137E+02  0.11794426074E+03 -0.27354913152E+03  0.34929777543E+03  0.17323355331E+03 0.  0.
        -24    2    3    3    0    0  0.10170569357E+03  0.11572200628E+03 -0.22176181321E+03  0.28074378637E+03  0.76831900570E+02 0.  0.
          6    2    1    2  501    0 -0.57088492137E+02 -0.11794426074E+03  0.93402832465E+02  0.23533708307E+03  0.17172509712E+03 0.  0.
         24    2    5    5    0    0 -0.80097591594E+02 -0.39683082995E+02  0.88912441142E+02  0.15350503426E+03  0.87567129091E+02 0.  0.
          5    1    5    5  501    0  0.23009099457E+02 -0.78261177741E+02  0.44903913228E+01  0.81832048816E+02  0.47000000000E+01 0. -1.
        -13    1    6    6    0    0 -0.76911159451E+01  0.13765362659E+02 -0.10855210988E+02  0.19143512718E+02  0.00000000000E+00 0.  1.
         14    1    6    6    0    0 -0.72406475649E+02 -0.53448445654E+02  0.99767652130E+02  0.13436152154E+03  0.00000000000E+00 0. -1.
         -5    1    3    3    0  503 -0.44617201432E+02  0.22222544511E+01 -0.51787318310E+02  0.68553989061E+02  0.47000000000E+01 0.  1.
         11    1    4    4    0    0  0.23864442329E+02  0.81522277808E+02 -0.13316341870E+03  0.15794900907E+03  0.00000000000E+00 0. -1.
        -12    1    4    4    0    0  0.77841251240E+02  0.34199728477E+02 -0.88598394506E+02  0.12279477730E+03  0.00000000000E+00 0.  1.
<mgrwt>
<rscale>  2 0.21690823E+03</rscale>
<asrwt>0</asrwt>
<pdfrwt beam="1">  1       21 0.31114505E-01 0.21720914E+03</pdfrwt>
<pdfrwt beam="2">  1       21 0.58829319E-01 0.21720914E+03</pdfrwt>
<totfact> 0.26460779E+04</totfact>
</mgrwt>
</event>
<event>
12    1  0.1039378E-001  0.2472176E+03  0.7546771E-02  0.1115121E+00
         21   -1    0    0  503  502  0.00000000000E+00  0.00000000000E+00  0.64054228800E+03  0.64054228800E+03  0.00000000000E+00 0.  1.
         21   -1    0    0  501  503 -0.00000000000E+00 -0.00000000000E+00 -0.13616725116E+03  0.13616725116E+03  0.00000000000E+00 0. -1.
          6    2    1    2  501    0  0.12209080822E+03  0.12638054180E+03  0.39548303574E+02  0.25036099813E+03  0.17389178896E+03 0.  0.
         24    2    3    3    0    0  0.15324504873E+03  0.12876322267E+03  0.32753843261E+02  0.21804198576E+03  0.80034247883E+02 0.  0.
         -6    2    1    2    0  502 -0.12209080822E+03 -0.12638054180E+03  0.46482673327E+03  0.52634854103E+03  0.17349549817E+03 0.  0.
        -24    2    5    5    0    0 -0.92416518637E+02 -0.77207541097E+01  0.20142762293E+03  0.23589735752E+03  0.80461500376E+02 0.  0.
          5    1    3    3  501    0 -0.31154240505E+02 -0.23826808658E+01  0.67944603121E+01  0.32319012368E+02  0.47000000000E+01 0. -1.
        -13    1    4    4    0    0  0.62818024785E+01  0.46925246770E+02  0.81019064831E+01  0.48032080066E+02  0.00000000000E+00 0.  1.
         14    1    4    4    0    0  0.14696324625E+03  0.81837975900E+02  0.24651936778E+02  0.17000990569E+03  0.00000000000E+00 0. -1.
         -5    1    5    5    0  502 -0.29674289584E+02 -0.11865978769E+03  0.26339911033E+03  0.29045118351E+03  0.47000000000E+01 0.  1.
         11    1    6    6    0    0 -0.31703927563E+02 -0.24413061157E+02  0.21829343575E+02  0.45581320943E+02  0.00000000000E+00 0. -1.
        -12    1    6    6    0    0 -0.60712591074E+02  0.16692307048E+02  0.17959827936E+03  0.19031603658E+03  0.00000000000E+00 0.  1.
<mgrwt>
<rscale>  2 0.24714796E+03</rscale>
<asrwt>0</asrwt>
<pdfrwt beam="1">  1       21 0.98544965E-01 0.24721764E+03</pdfrwt>
<pdfrwt beam="2">  1       21 0.20948808E-01 0.24721764E+03</pdfrwt>
<totfact> 0.17426857E+04</totfact>
</mgrwt>
</event>
<event>
12    1  0.1039378E-001  0.2924225E+03  0.7546771E-02  0.1089102E+00
         21   -1    0    0  503  502  0.00000000000E+00  0.00000000000E+00  0.18339958505E+03  0.18339958505E+03  0.00000000000E+00 0. -1.
         21   -1    0    0  501  503 -0.00000000000E+00 -0.00000000000E+00 -0.78461883784E+03  0.78461883784E+03  0.00000000000E+00 0.  1.
          6    2    1    2  501    0  0.14504017674E+03 -0.18541833012E+03 -0.60895823998E+03  0.67549354045E+03  0.17333428722E+03 0.  0.
         24    2    3    3    0    0  0.69050492620E+02 -0.51478786076E+02 -0.38663069032E+03  0.40500164983E+03  0.84409772636E+02 0.  0.
         -6    2    1    2    0  502 -0.14504017674E+03  0.18541833012E+03  0.77389871997E+01  0.29252488245E+03  0.17347710199E+03 0.  0.
        -24    2    5    5    0    0 -0.15240698123E+03  0.20110511239E+03  0.28174396489E+02  0.26532118970E+03  0.77008979532E+02 0.  0.
          5    1    3    3  501    0  0.75989684124E+02 -0.13393954404E+03 -0.22232754966E+03  0.27049189062E+03  0.47000000000E+01 0. -1.
        -11    1    4    4    0    0  0.69617369139E+02 -0.63737116532E+02 -0.24053269448E+03  0.25838919332E+03  0.00000000000E+00 0.  1.
         12    1    4    4    0    0 -0.56687651844E+00  0.12258330456E+02 -0.14609799584E+03  0.14661245650E+03  0.00000000000E+00 0. -1.
         -5    1    5    5    0  502  0.73668044814E+01 -0.15686782273E+02 -0.20435409290E+02  0.27203692749E+02  0.47000000000E+01 0.  1.
         13    1    6    6    0    0 -0.31495079938E+02  0.67957723653E+02 -0.22954574417E+02  0.78339675459E+02  0.00000000000E+00 0. -1.
        -14    1    6    6    0    0 -0.12091190129E+03  0.13314738874E+03  0.51128970906E+02  0.18698151424E+03  0.00000000000E+00 0.  1.
<mgrwt>
<rscale>  2 0.29240132E+03</rscale>
<asrwt>0</asrwt>
<pdfrwt beam="1">  1       21 0.28215321E-01 0.29242249E+03</pdfrwt>
<pdfrwt beam="2">  1       21 0.12071059E+00 0.29242249E+03</pdfrwt>
<totfact> 0.58545650E+03</totfact>
</mgrwt>
</event>
<event>
12    1  0.1039378E-001  0.2669132E+03  0.7546771E-02  0.1103153E+00
         21   -1    0    0  503  502  0.00000000000E+00  0.00000000000E+00  0.48654926237E+03  0.48654926237E+03  0.00000000000E+00 0. -1.
         21   -1    0    0  501  503 -0.00000000000E+00 -0.00000000000E+00 -0.21009204577E+03  0.21009204577E+03  0.00000000000E+00 0.  1.
          6    2    1    2  501    0  0.16228196522E+03 -0.11956490489E+03 -0.53935109654E+02  0.27230796909E+03  0.17496122788E+03 0.  0.
         24    2    3    3    0    0  0.92954731682E+01 -0.56669508170E+02 -0.39168452786E+02  0.10617295824E+03  0.80253911987E+02 0.  0.
         -6    2    1    2    0  502 -0.16228196522E+03  0.11956490489E+03  0.33039232626E+03  0.42433333905E+03  0.17397842010E+03 0.  0.
        -24    2    5    5    0    0 -0.53352056186E+02 -0.49302957328E+01  0.15440794309E+03  0.18276063120E+03  0.81785608212E+02 0.  0.
          5    1    3    3  501    0  0.15298649205E+03 -0.62895396724E+02 -0.14766656868E+02  0.16613501086E+03  0.47000000000E+01 0. -1.
        -13    1    4    4    0    0  0.31819660434E+02 -0.21860248921E+02 -0.50144362241E+02  0.63283634042E+02  0.00000000000E+00 0.  1.
         14    1    4    4    0    0 -0.22524187266E+02 -0.34809259249E+02  0.10975909454E+02  0.42889324194E+02  0.00000000000E+00 0. -1.
         -5    1    5    5    0  502 -0.10892990903E+03  0.12449520063E+03  0.17598438317E+03  0.24157270785E+03  0.47000000000E+01 0.  1.
         13    1    6    6    0    0  0.39098742429E+01 -0.81889278058E+01  0.10960803577E+03  0.10998303124E+03  0.00000000000E+00 0. -1.
        -14    1    6    6    0    0 -0.57261930429E+02  0.32586320730E+01  0.44799907317E+02  0.72777599954E+02  0.00000000000E+00 0.  1.
<mgrwt>
<rscale>  2 0.26675221E+03</rscale>
<asrwt>0</asrwt>
<pdfrwt beam="1">  1       21 0.74853732E-01 0.26691316E+03</pdfrwt>
<pdfrwt beam="2">  1       21 0.32321853E-01 0.26691316E+03</pdfrwt>
<totfact> 0.14099044E+04</totfact>
</mgrwt>
</event>
<event>
12    1  0.1039378E-001  0.5102505E+03  0.7546771E-02  0.1011208E+00
         21   -1    0    0  501  502  0.00000000000E+00  0.00000000000E+00  0.32701660151E+03  0.32701660151E+03  0.00000000000E+00 0. -1.
         21   -1    0    0  502  503 -0.00000000000E+00 -0.00000000000E+00 -0.84715384735E+03  0.84715384735E+03  0.00000000000E+00 0. -1.
         -6    2    1    2    0  503  0.25114247757E+03 -0.40849630652E+03 -0.11335233245E+03  0.52161429459E+03  0.17114597446E+03 0.  0.
        -24    2    3    3    0    0  0.14473983700E+03 -0.32809179469E+03 -0.12341029637E+03  0.38778731645E+03  0.80963296539E+02 0.  0.
          6    2    1    2  501    0 -0.25114247757E+03  0.40849630652E+03 -0.40678491339E+03  0.65255615427E+03  0.17439550520E+03 0.  0.
         24    2    5    5    0    0 -0.24866607398E+03  0.32115733770E+03 -0.28813026749E+03  0.50512738149E+03  0.84603596742E+02 0.  0.
          5    1    5    5  501    0 -0.24764035901E+01  0.87338968815E+02 -0.11865464590E+03  0.14742877278E+03  0.47000000000E+01 0. -1.
        -13    1    6    6    0    0 -0.10096029689E+02  0.21257253104E+02  0.31937876769E+01  0.23748703223E+02  0.00000000000E+00 0.  1.
         14    1    6    6    0    0 -0.23857004429E+03  0.29990008460E+03 -0.29132405516E+03  0.48137867827E+03  0.00000000000E+00 0. -1.
         -5    1    3    3    0  503  0.10640264057E+03 -0.80404511826E+02  0.10057963925E+02  0.13382697815E+03  0.47000000000E+01 0.  1.
         13    1    4    4    0    0  0.69038230969E+02 -0.82555098418E+02 -0.14013869526E+02  0.10852654122E+03  0.00000000000E+00 0. -1.
        -14    1    4    4    0    0  0.75701606029E+02 -0.24553669628E+03 -0.10939642684E+03  0.27926077523E+03  0.00000000000E+00 0.  1.
<mgrwt>
<rscale>  2 0.50997490E+03</rscale>
<asrwt>0</asrwt>
<pdfrwt beam="1">  1       21 0.50310246E-01 0.51025050E+03</pdfrwt>
<pdfrwt beam="2">  1       21 0.13033136E+00 0.51025050E+03</pdfrwt>
<totfact> 0.13468278E+03</totfact>
</mgrwt>
</event>
<event>
12    1  0.1039378E-001  0.2347214E+03  0.7546771E-02  0.1123535E+00
         21   -1    0    0  503  502  0.00000000000E+00  0.00000000000E+00  0.83460139018E+03  0.83460139018E+03  0.00000000000E+00 0.  1.
         21   -1    0    0  501  503 -0.00000000000E+00 -0.00000000000E+00 -0.66210228155E+02  0.66210228155E+02  0.00000000000E+00 0.  1.
          6    2    1    2  501    0  0.15358072655E+03  0.35480902176E+02  0.34653191923E+03  0.41854332557E+03  0.17392012634E+03 0.  0.
         24    2    3    3    0    0  0.10496397040E+03  0.58321121131E+02  0.11164683928E+03  0.17754881243E+03  0.68115899919E+02 0.  0.
         -6    2    1    2    0  502 -0.15358072655E+03 -0.35480902176E+02  0.42185924279E+03  0.48226829276E+03  0.17254434644E+03 0.  0.
        -24    2    5    5    0    0 -0.77145996355E+01 -0.14477216938E+02  0.12024420590E+03  0.14654250845E+03  0.82139715554E+02 0.  0.
          5    1    3    3  501    0  0.48616756151E+02 -0.22840218955E+02  0.23488507995E+03  0.24099451314E+03  0.47000000000E+01 0. -1.
        -13    1    4    4    0    0  0.74363937029E+02  0.69216508694E+02  0.10128110119E+03  0.14345306433E+03  0.00000000000E+00 0.  1.
         14    1    4    4    0    0  0.30600033374E+02 -0.10895387563E+02  0.10365738088E+02  0.34095748104E+02  0.00000000000E+00 0. -1.
         -5    1    5    5    0  502 -0.14586612692E+03 -0.21003685237E+02  0.30161503689E+03  0.33572578432E+03  0.47000000000E+01 0.  1.
         13    1    6    6    0    0  0.11362893702E+02 -0.35621658332E+02  0.11015776171E+03  0.11633035013E+03  0.00000000000E+00 0. -1.
        -14    1    6    6    0    0 -0.19077493337E+02  0.21144441394E+02  0.10086444189E+02  0.30212158318E+02  0.00000000000E+00 0.  1.
<mgrwt>
<rscale>  2 0.23446661E+03</rscale>
<asrwt>0</asrwt>
<pdfrwt beam="1">  1       21 0.12840021E+00 0.23472142E+03</pdfrwt>
<pdfrwt beam="2">  1       21 0.10186190E-01 0.23472142E+03</pdfrwt>
<totfact> 0.34224214E+04</totfact>
</mgrwt>
</event>
<event>
12    1  0.1039378E-001  0.3037917E+03  0.7546771E-02  0.1083591E+00
         21   -1    0    0  503  502  0.00000000000E+00  0.00000000000E+00  0.41397994360E+03  0.41397994360E+03  0.00000000000E+00 0. -1.
         21   -1    0    0  501  503 -0.00000000000E+00 -0.00000000000E+00 -0.25510787413E+03  0.25510787413E+03  0.00000000000E+00 0. -1.
          6    2    1    2  501    0 -0.14145413177E+03  0.20328799426E+03 -0.41664797665E+02  0.30663555959E+03  0.17593786130E+03 0.  0.
         24    2    3    3    0    0  0.35639461722E+01  0.64660214804E+02 -0.36236467703E+02  0.10588830324E+03  0.75535462410E+02 0.  0.
         -6    2    1    2    0  502  0.14145413177E+03 -0.20328799426E+03  0.20053686713E+03  0.36245225814E+03  0.17268851829E+03 0.  0.
        -24    2    5    5    0    0  0.14375463059E+03 -0.14751419560E+03  0.90461549615E+02  0.23894244299E+03  0.80525569756E+02 0.  0.
          5    1    3    3  501    0 -0.14501807794E+03  0.13862777945E+03 -0.54283299619E+01  0.20074725635E+03  0.47000000000E+01 0. -1.
        -13    1    4    4    0    0 -0.29120600341E+02  0.46715796351E+02 -0.17161777227E+01  0.55075586777E+02  0.00000000000E+00 0.  1.
         14    1    4    4    0    0  0.32684546513E+02  0.17944418453E+02 -0.34520289981E+02  0.50812716467E+02  0.00000000000E+00 0. -1.
         -5    1    5    5    0  502 -0.23004988252E+01 -0.55773798659E+02  0.11007531751E+03  0.12350981515E+03  0.47000000000E+01 0.  1.
         13    1    6    6    0    0  0.91119272665E+02 -0.91823244629E+02  0.13048893665E+02  0.13001732089E+03  0.00000000000E+00 0. -1.
        -14    1    6    6    0    0  0.52635357926E+02 -0.55690950970E+02  0.77412655950E+02  0.10892512210E+03  0.00000000000E+00 0.  1.
<mgrwt>
<rscale>  2 0.30332309E+03</rscale>
<asrwt>0</asrwt>
<pdfrwt beam="1">  1       21 0.63689222E-01 0.30379172E+03</pdfrwt>
<pdfrwt beam="2">  1       21 0.39247365E-01 0.30379172E+03</pdfrwt>
<totfact> 0.13443595E+04</totfact>
</mgrwt>
</event>
<event>
12    1  0.1039378E-001  0.3106131E+03  0.7546771E-02  0.1081198E+00
         21   -1    0    0  501  502  0.00000000000E+00  0.00000000000E+00  0.93829726511E+03  0.93829726511E+03  0.00000000000E+00 0. -1.
         21   -1    0    0  502  503 -0.00000000000E+00 -0.00000000000E+00 -0.13375832527E+03  0.13375832527E+03  0.00000000000E+00 0.  1.
         -6    2    1    2    0  503  0.21521774598E+03  0.12818983929E+03  0.13654527669E+03  0.33930089760E+03  0.18365503925E+03 0.  0.
        -24    2    3    3    0    0  0.71797613826E+02 -0.13377681680E+02  0.26487105163E+02  0.10963682026E+03  0.77361527247E+02 0.  0.
          6    2    1    2  501    0 -0.21521774598E+03 -0.12818983929E+03  0.66799366314E+03  0.73275469278E+03  0.16722019231E+03 0.  0.
         24    2    5    5    0    0 -0.10704252779E+03 -0.58658797182E+02  0.49940743325E+03  0.52067015644E+03  0.82405522735E+02 0.  0.
          5    1    5    5  501    0 -0.10817521819E+03 -0.69531042110E+02  0.16858622989E+03  0.21208453635E+03  0.47000000000E+01 0. -1.
        -11    1    6    6    0    0 -0.37353336466E+02  0.17930087969E+02  0.10455215749E+03  0.11246294250E+03  0.00000000000E+00 0.  1.
         12    1    6    6    0    0 -0.69689191319E+02 -0.76588885152E+02  0.39485527576E+03  0.40820721394E+03  0.00000000000E+00 0. -1.
         -5    1    3    3    0  503  0.14342013215E+03  0.14156752097E+03  0.11005817153E+03  0.22966407734E+03  0.47000000000E+01 0.  1.
         13    1    4    4    0    0  0.59549664607E+02 -0.31919994954E+02  0.44608318787E+02  0.80962650264E+02  0.00000000000E+00 0. -1.
        -14    1    4    4    0    0  0.12247949219E+02  0.18542313274E+02 -0.18121213624E+02  0.28674169994E+02  0.00000000000E+00 0.  1.
<mgrwt>
<rscale>  2 0.30822939E+03</rscale>
<asrwt>0</asrwt>
<pdfrwt beam="1">  1       21 0.14435342E+00 0.31061308E+03</pdfrwt>
<pdfrwt beam="2">  1       21 0.20578204E-01 0.31061308E+03</pdfrwt>
<totfact> 0.67101610E+03</totfact>
</mgrwt>
</event>
<event>
12    1  0.1039378E-001  0.1765448E+03  0.7546771E-02  0.1171594E+00
         21   -1    0    0  503  502  0.00000000000E+00  0.00000000000E+00  0.11104817694E+03  0.11104817694E+03  0.00000000000E+00 0. -1.
         21   -1    0    0  501  503 -0.00000000000E+00 -0.00000000000E+00 -0.42611626723E+03  0.42611626723E+03  0.00000000000E+00 0. -1.
          6    2    1    2  501    0 -0.32193439430E+02 -0.11488300055E+02 -0.31630259663E+03  0.36223666672E+03  0.17320413245E+03 0.  0.
         24    2    3    3    0    0  0.20580418160E+02 -0.59327774362E+02 -0.15345488391E+03  0.18443013454E+03  0.80763449084E+02 0.  0.
         -6    2    1    2    0  502  0.32193439430E+02  0.11488300055E+02  0.12345063453E+01  0.17492777745E+03  0.17155117235E+03 0.  0.
        -24    2    5    5    0    0 -0.44086868009E+01 -0.45534208125E+01 -0.73241853675E+02  0.90276311691E+02  0.52395354397E+02 0.  0.
          5    1    3    3  501    0 -0.52773857589E+02  0.47839474307E+02 -0.16284771272E+03  0.17780653218E+03  0.47000000000E+01 0. -1.
        -11    1    4    4    0    0  0.42753152671E+01 -0.17214300977E+02  0.59836799715E+01  0.18719372446E+02  0.00000000000E+00 0.  1.
         12    1    4    4    0    0  0.16305102893E+02 -0.42113473385E+02 -0.15943856388E+03  0.16571076210E+03  0.00000000000E+00 0. -1.
         -5    1    5    5    0  502  0.36602126230E+02  0.16041720868E+02  0.74476360020E+02  0.84651465757E+02  0.47000000000E+01 0.  1.
         11    1    6    6    0    0  0.22117749950E+02  0.66748983558E+01 -0.24618596120E+02  0.33761285607E+02  0.00000000000E+00 0. -1.
        -12    1    6    6    0    0 -0.26526436751E+02 -0.11228319168E+02 -0.48623257555E+02  0.56515026084E+02  0.00000000000E+00 0.  1.
<mgrwt>
<rscale>  2 0.17613806E+03</rscale>
<asrwt>0</asrwt>
<pdfrwt beam="1">  1       21 0.17084335E-01 0.17654481E+03</pdfrwt>
<pdfrwt beam="2">  1       21 0.65556348E-01 0.17654481E+03</pdfrwt>
<totfact> 0.66610354E+04</totfact>
</mgrwt>
</event>
<event>
12    1  0.1039378E-001  0.1840412E+03  0.7546771E-02  0.1164028E+00
         21   -1    0    0  503  502  0.00000000000E+00  0.00000000000E+00  0.24283538516E+03  0.24283538516E+03  0.00000000000E+00 0.  1.
         21   -1    0    0  501  503 -0.00000000000E+00 -0.00000000000E+00 -0.22005570854E+03  0.22005570854E+03  0.00000000000E+00 0.  1.
          6    2    1    2  501    0  0.26418729358E+02  0.50865069208E+02 -0.12887545585E+03  0.22467769020E+03  0.17488846968E+03 0.  0.
         24    2    3    3    0    0  0.34594817807E+02  0.12178636428E+02 -0.15371937184E+03  0.17774370821E+03  0.81351459266E+02 0.  0.
         -6    2    1    2    0  502 -0.26418729358E+02 -0.50865069208E+02  0.15165513247E+03  0.23821340351E+03  0.17453120603E+03 0.  0.
        -24    2    5    5    0    0  0.39692974865E+02 -0.26170901391E+02  0.13683866729E+03  0.16594877177E+03  0.80955084168E+02 0.  0.
          5    1    3    3  501    0 -0.81760884489E+01  0.38686432780E+02  0.24843915992E+02  0.46933981990E+02  0.47000000000E+01 0. -1.
        -13    1    4    4    0    0 -0.39391743904E+01  0.32501898853E+02 -0.23148022185E+02  0.40096402021E+02  0.00000000000E+00 0.  1.
         14    1    4    4    0    0  0.38533992197E+02 -0.20323262425E+02 -0.13057134966E+03  0.13764730619E+03  0.00000000000E+00 0. -1.
         -5    1    5    5    0  502 -0.66111704223E+02 -0.24694167818E+02  0.14816465175E+02  0.72264631735E+02  0.47000000000E+01 0.  1.
         11    1    6    6    0    0  0.11801251379E+02 -0.16342621065E+01  0.12694870565E+03  0.12750652616E+03  0.00000000000E+00 0. -1.
        -12    1    6    6    0    0  0.27891723487E+02 -0.24536639284E+02  0.98899616410E+01  0.38442245612E+02  0.00000000000E+00 0.  1.
<mgrwt>
<rscale>  2 0.18395632E+03</rscale>
<asrwt>0</asrwt>
<pdfrwt beam="1">  1       21 0.37359290E-01 0.18404125E+03</pdfrwt>
<pdfrwt beam="2">  1       21 0.33854724E-01 0.18404125E+03</pdfrwt>
<totfact> 0.58305590E+04</totfact>
</mgrwt>
</event>
<event>
12    1  0.1039378E-001  0.3439515E+03  0.7546771E-02  0.1065228E+00
         21   -1    0    0  501  502  0.00000000000E+00  0.00000000000E+00  0.29845863247E+03  0.29845863247E+03  0.00000000000E+00 0. -1.
         21   -1    0    0  502  503 -0.00000000000E+00 -0.00000000000E+00 -0.11180696222E+04  0.11180696222E+04  0.00000000000E+00 0.  1.
         -6    2    1    2    0  503  0.27060346146E+03 -0.11909618776E+03 -0.97907439081E+03  0.10374092479E+04  0.17384231266E+03 0.  0.
        -24    2    3    3    0    0  0.14141057787E+03 -0.12871596612E+03 -0.69241324339E+03  0.72279830606E+03  0.80228050957E+02 0.  0.
          6    2    1    2  501    0 -0.27060346146E+03  0.11909618776E+03  0.15946340104E+03  0.37911900676E+03  0.17576265168E+03 0.  0.
         24    2    5    5    0    0 -0.89269872185E+02  0.10743505556E+03  0.80423213797E+02  0.18090878048E+03  0.82150424799E+02 0.  0.
          5    1    5    5  501    0 -0.18133358927E+03  0.11661132198E+02  0.79040187247E+02  0.19821022628E+03  0.47000000000E+01 0. -1.
        -11    1    6    6    0    0 -0.27337385807E+02  0.30979462813E+02 -0.14892939610E+02  0.43918782191E+02  0.00000000000E+00 0.  1.
         12    1    6    6    0    0 -0.61932486378E+02  0.76455592746E+02  0.95316153406E+02  0.13698999829E+03  0.00000000000E+00 0. -1.
         -5    1    3    3    0  503  0.12919288359E+03  0.96197783590E+01 -0.28666114743E+03  0.31461094188E+03  0.47000000000E+01 0.  1.
         13    1    4    4    0    0  0.26279804541E+02 -0.54046634386E+02 -0.12052836263E+03  0.13468018790E+03  0.00000000000E+00 0. -1.
        -14    1    4    4    0    0  0.11513077333E+03 -0.74669331731E+02 -0.57188488075E+03  0.58811811815E+03  0.00000000000E+00 0.  1.
<mgrwt>
<rscale>  2 0.34370692E+03</rscale>
<asrwt>0</asrwt>
<pdfrwt beam="1">  1       21 0.45916712E-01 0.34395152E+03</pdfrwt>
<pdfrwt beam="2">  1       21 0.17201071E+00 0.34395152E+03</pdfrwt>
<totfact> 0.83035543E+02</totfact>
</mgrwt>
</event>
<event>
12    1  0.1039378E-001  0.2098885E+03  0.7546771E-02  0.1142062E+00
         21   -1    0    0  501  502  0.00000000000E+00  0.00000000000E+00  0.61723915610E+03  0.61723915610E+03  0.00000000000E+00 0.  1.
         21   -1    0    0  502  503 -0.00000000000E+00 -0.00000000000E+00 -0.70865857178E+02  0.70865857178E+02  0.00000000000E+00 0. -1.
         -6    2    1    2    0  503 -0.11804969111E+03  0.63043954716E+01  0.25673768650E+03  0.33161333927E+03  0.17342921362E+03 0.  0.
        -24    2    3    3    0    0 -0.10327013041E+03  0.65894826840E+02  0.18968619301E+03  0.24057791921E+03  0.83006236841E+02 0.  0.
          6    2    1    2  501    0  0.11804969111E+03 -0.63043954716E+01  0.28963561242E+03  0.35649167401E+03  0.17094458366E+03 0.  0.
         24    2    5    5    0    0  0.12114266291E+02 -0.36762200777E+02  0.17466529589E+03  0.19714847265E+03  0.82833204861E+02 0.  0.
          5    1    5    5  501    0  0.10593542482E+03  0.30457805306E+02  0.11497031653E+03  0.15934320135E+03  0.47000000000E+01 0. -1.
        -11    1    6    6    0    0  0.34717327631E+02  0.93999023729E+01  0.10189485575E+03  0.10805652516E+03  0.00000000000E+00 0.  1.
         12    1    6    6    0    0 -0.22603061339E+02 -0.46162103150E+02  0.72770440143E+02  0.89091947491E+02  0.00000000000E+00 0. -1.
         -5    1    3    3    0  503 -0.14779560695E+02 -0.59590431368E+02  0.67051493497E+02  0.91035420058E+02  0.47000000000E+01 0.  1.
         11    1    4    4    0    0  0.88923652307E+01  0.28108312581E+02  0.42087907963E+02  0.51386217921E+02  0.00000000000E+00 0. -1.
        -12    1    4    4    0    0 -0.11216249565E+03  0.37786514259E+02  0.14759828504E+03  0.18919170129E+03  0.00000000000E+00 0.  1.
<mgrwt>
<rscale>  2 0.20937450E+03</rscale>
<asrwt>0</asrwt>
<pdfrwt beam="1">  1       21 0.94959866E-01 0.20988846E+03</pdfrwt>
<pdfrwt beam="2">  1       21 0.10902440E-01 0.20988846E+03</pdfrwt>
<totfact> 0.64035116E+04</totfact>
</mgrwt>
</event>
<event>
12    1  0.1039378E-001  0.2097733E+03  0.7546771E-02  0.1142017E+00
         21   -1    0    0  501  502  0.00000000000E+00  0.00000000000E+00  0.20357924973E+03  0.20357924973E+03  0.00000000000E+00 0. -1.
         21   -1    0    0  502  503 -0.00000000000E+00 -0.00000000000E+00 -0.42310894974E+03  0.42310894974E+03  0.00000000000E+00 0. -1.
         -6    2    1    2    0  503 -0.10101712357E+03  0.62009587441E+02 -0.32983121215E+03  0.39088804812E+03  0.17307567556E+03 0.  0.
        -24    2    3    3    0    0 -0.11820552547E+03 -0.42703339194E+01 -0.24280398371E+03  0.28005349744E+03  0.74063519496E+02 0.  0.
          6    2    1    2  501    0  0.10101712357E+03 -0.62009587441E+02  0.11030151214E+03  0.23580015135E+03  0.17142240112E+03 0.  0.
         24    2    5    5    0    0  0.13395472305E+03 -0.54439537000E+02  0.60666644797E+02  0.17556809029E+03  0.78969497394E+02 0.  0.
          5    1    5    5  501    0 -0.32937599487E+02 -0.75700504407E+01  0.49634867344E+02  0.60232061063E+02  0.47000000000E+01 0. -1.
        -11    1    6    6    0    0  0.58048216000E+02 -0.32095971895E+02 -0.12845711929E+02  0.67563001026E+02  0.00000000000E+00 0.  1.
         12    1    6    6    0    0  0.75906507053E+02 -0.22343565105E+02  0.73512356726E+02  0.10800508926E+03  0.00000000000E+00 0. -1.
         -5    1    3    3    0  503  0.17188401900E+02  0.66279921361E+02 -0.87027228443E+02  0.11083455069E+03  0.47000000000E+01 0.  1.
         13    1    4    4    0    0 -0.70204782900E+02 -0.35694007457E+02 -0.10906952343E+03  0.13453228108E+03  0.00000000000E+00 0. -1.
        -14    1    4    4    0    0 -0.48000742566E+02  0.31423673537E+02 -0.13373446028E+03  0.14552121636E+03  0.00000000000E+00 0.  1.
<mgrwt>
<rscale>  2 0.20943198E+03</rscale>
<asrwt>0</asrwt>
<pdfrwt beam="1">  1       21 0.31319884E-01 0.20977330E+03</pdfrwt>
<pdfrwt beam="2">  1       21 0.65093685E-01 0.20977330E+03</pdfrwt>
<totfact> 0.21070136E+04</totfact>
</mgrwt>
</event>
<event>
12    1  0.1039378E-001  0.1758997E+03  0.7546771E-02  0.1172093E+00
         21   -1    0    0  501  502  0.00000000000E+00  0.00000000000E+00  0.90686552663E+02  0.90686552663E+02  0.00000000000E+00 0. -1.
         21   -1    0    0  502  503 -0.00000000000E+00 -0.00000000000E+00 -0.36669219240E+03  0.36669219240E+03  0.00000000000E+00 0. -1.
         -6    2    1    2    0  503  0.25278627945E+02 -0.32176058424E+01 -0.75714384366E+02  0.19150288588E+03  0.17404403260E+03 0.  0.
        -24    2    3    3    0    0  0.74096558878E+02  0.26445702351E+02 -0.26735328811E+02  0.11610964934E+03  0.81098690815E+02 0.  0.
          6    2    1    2  501    0 -0.25278627945E+02  0.32176058424E+01 -0.20029125537E+03  0.26587585918E+03  0.17298561646E+03 0.  0.
         24    2    5    5    0    0 -0.57373608475E+02 -0.42239375829E+02 -0.80979839282E+02  0.13414230626E+03  0.79752919305E+02 0.  0.
          5    1    5    5  501    0  0.32094980529E+02  0.45456981671E+02 -0.11931141609E+03  0.13173355293E+03  0.47000000000E+01 0. -1.
        -11    1    6    6    0    0  0.10545081655E+02 -0.79219511800E+01 -0.50457813046E+02  0.52153110693E+02  0.00000000000E+00 0.  1.
         12    1    6    6    0    0 -0.67918690129E+02 -0.34317424649E+02 -0.30522026236E+02  0.81989195563E+02  0.00000000000E+00 0. -1.
         -5    1    3    3    0  503 -0.48817930933E+02 -0.29663308193E+02 -0.48979055555E+02  0.75393236544E+02  0.47000000000E+01 0.  1.
         11    1    4    4    0    0  0.10100680759E+02  0.45183527567E+02 -0.10265169661E+02  0.47423081125E+02  0.00000000000E+00 0. -1.
        -12    1    4    4    0    0  0.63995878120E+02 -0.18737825217E+02 -0.16470159149E+02  0.68686568211E+02  0.00000000000E+00 0.  1.
<mgrwt>
<rscale>  2 0.17563727E+03</rscale>
<asrwt>0</asrwt>
<pdfrwt beam="1">  1       21 0.13951777E-01 0.17589965E+03</pdfrwt>
<pdfrwt beam="2">  1       21 0.56414183E-01 0.17589965E+03</pdfrwt>
<totfact> 0.13301859E+05</totfact>
</mgrwt>
</event>
<event>
12    1  0.1039378E-001  0.2019948E+03  0.7546771E-02  0.1148241E+00
         21   -1    0    0  501  502  0.00000000000E+00  0.00000000000E+00  0.14863204269E+03  0.14863204269E+03  0.00000000000E+00 0. -1.
         21   -1    0    0  502  503 -0.00000000000E+00 -0.00000000000E+00 -0.31203681575E+03  0.31203681575E+03  0.00000000000E+00 0. -1.
         -6    2    1    2    0  503  0.99110575254E+02 -0.30642927759E+02 -0.16292119889E+03  0.25950960160E+03  0.17332057329E+03 0.  0.
        -24    2    3    3    0    0  0.90315899411E+02  0.39157483764E+02 -0.13030102460E+03  0.18182041611E+03  0.79937703745E+02 0.  0.
          6    2    1    2  501    0 -0.99110575254E+02  0.30642927759E+02 -0.48357417525E+00  0.20115925685E+03  0.17234534407E+03 0.  0.
         24    2    5    5    0    0 -0.86034280215E+01 -0.12916946452E+02 -0.42114405643E+02  0.92328091871E+02  0.80684489876E+02 0.  0.
          5    1    5    5  501    0 -0.90507147233E+02  0.43559874211E+02  0.41630831467E+02  0.10883116498E+03  0.47000000000E+01 0. -1.
        -11    1    6    6    0    0  0.28092581400E+01  0.24825536098E+02  0.10057163708E+02  0.26932243050E+02  0.00000000000E+00 0.  1.
         12    1    6    6    0    0 -0.11412686161E+02 -0.37742482550E+02 -0.52171569351E+02  0.65395848821E+02  0.00000000000E+00 0. -1.
         -5    1    3    3    0  503  0.87946758435E+01 -0.69800411523E+02 -0.32620174284E+02  0.77689185491E+02  0.47000000000E+01 0.  1.
         11    1    4    4    0    0  0.66761814787E+02  0.35957458148E+02 -0.13746600919E+03  0.15699357437E+03  0.00000000000E+00 0. -1.
        -12    1    4    4    0    0  0.23554084624E+02  0.32000256154E+01  0.71649845916E+01  0.24826841737E+02  0.00000000000E+00 0.  1.
<mgrwt>
<rscale>  2 0.20178548E+03</rscale>
<asrwt>0</asrwt>
<pdfrwt beam="1">  1       21 0.22866468E-01 0.20199484E+03</pdfrwt>
<pdfrwt beam="2">  1       21 0.48005663E-01 0.20199484E+03</pdfrwt>
<totfact> 0.74110447E+04</totfact>
</mgrwt>
</event>
<event>
12    1  0.1039378E-001  0.2808753E+03  0.7546771E-02  0.1095235E+00
         21   -1    0    0  503  502  0.00000000000E+00  0.00000000000E+00  0.40219552138E+03  0.40219552138E+03  0.00000000000E+00 0.  1.
         21   -1    0    0  501  503 -0.00000000000E+00 -0.00000000000E+00 -0.20873904500E+03  0.20873904500E+03  0.00000000000E+00 0.  1.
          6    2    1    2  501    0 -0.22456585982E+03 -0.11070762331E+02  0.21386470443E+02  0.28168831832E+03  0.16834054883E+03 0.  0.
         24    2    3    3    0    0 -0.14607287052E+03 -0.64205177719E+02  0.44286074255E+02  0.18406200361E+03  0.80361535901E+02 0.  0.
         -6    2    1    2    0  502  0.22456585982E+03  0.11070762331E+02  0.17207000594E+03  0.32924624806E+03  0.16805540082E+03 0.  0.
        -24    2    5    5    0    0  0.86867311379E+02 -0.56200434671E+02  0.64149559989E+02  0.14174900317E+03  0.72616769476E+02 0.  0.
          5    1    3    3  501    0 -0.78492989302E+02  0.53134415389E+02 -0.22899603811E+02  0.97626314705E+02  0.47000000000E+01 0. -1.
        -11    1    4    4    0    0 -0.39150658718E+02 -0.16092452333E+02 -0.23716598557E+02  0.48520285936E+02  0.00000000000E+00 0.  1.
         12    1    4    4    0    0 -0.10692221180E+03 -0.48112725386E+02  0.68002672812E+02  0.13554171767E+03  0.00000000000E+00 0. -1.
         -5    1    5    5    0  502  0.13769854844E+03  0.67271197001E+02  0.10792044595E+03  0.18749724489E+03  0.47000000000E+01 0.  1.
         13    1    6    6    0    0  0.85715280985E+02 -0.22837782296E+02  0.62141294658E+02  0.10830611338E+03  0.00000000000E+00 0. -1.
        -14    1    6    6    0    0  0.11520303942E+01 -0.33362652375E+02  0.20082653309E+01  0.33442889785E+02  0.00000000000E+00 0.  1.
<mgrwt>
<rscale>  2 0.28083258E+03</rscale>
<asrwt>0</asrwt>
<pdfrwt beam="1">  1       21 0.61876234E-01 0.28087529E+03</pdfrwt>
<pdfrwt beam="2">  1       21 0.32113699E-01 0.28087529E+03</pdfrwt>
<totfact> 0.21631978E+04</totfact>
</mgrwt>
</event>
<event>
12    1  0.1039378E-001  0.2011689E+03  0.7546771E-02  0.1149599E+00
         21   -1    0    0  503  502  0.00000000000E+00  0.00000000000E+00  0.14929541217E+04  0.14929541217E+04  0.00000000000E+00 0. -1.
         21   -1    0    0  501  503 -0.00000000000E+00 -0.00000000000E+00 -0.26612106268E+02  0.26612106268E+02  0.00000000000E+00 0. -1.
          6    2    1    2  501    0 -0.53992294548E+02 -0.80834586588E+02  0.76970742743E+03  0.79556172630E+03  0.17612364480E+03 0.  0.
         24    2    3    3    0    0  0.36830329710E+02 -0.19348919390E+02  0.30488679276E+03  0.31795357230E+03  0.80047884887E+02 0.  0.
         -6    2    1    2    0  502  0.53992294548E+02  0.80834586588E+02  0.69663458802E+03  0.72400450169E+03  0.17156156613E+03 0.  0.
        -24    2    5    5    0    0 -0.33440222711E+02  0.12443683442E+02  0.31389856202E+03  0.32546878646E+03  0.78259376254E+02 0.  0.
          5    1    3    3  501    0 -0.90822624258E+02 -0.61485667199E+02  0.46482063468E+03  0.47760815400E+03  0.47000000000E+01 0. -1.
        -13    1    4    4    0    0  0.17330876285E+02  0.13705254052E+02  0.25003510475E+03  0.25100945574E+03  0.00000000000E+00 0.  1.
         14    1    4    4    0    0  0.19499453425E+02 -0.33054173442E+02  0.54851688006E+02  0.66944116567E+02  0.00000000000E+00 0. -1.
         -5    1    5    5    0  502  0.87432517260E+02  0.68390903146E+02  0.38273602601E+03  0.39853571523E+03  0.47000000000E+01 0.  1.
         11    1    6    6    0    0 -0.22253384113E+02  0.33276998778E+02  0.28647254146E+03  0.28925609546E+03  0.00000000000E+00 0. -1.
        -12    1    6    6    0    0 -0.11186838599E+02 -0.20833315335E+02  0.27426020554E+02  0.36212690996E+02  0.00000000000E+00 0.  1.
<mgrwt>
<rscale>  2 0.20016600E+03</rscale>
<asrwt>0</asrwt>
<pdfrwt beam="1">  1       21 0.22968518E+00 0.20116893E+03</pdfrwt>
<pdfrwt beam="2">  1       21 0.40941713E-02 0.20116893E+03</pdfrwt>
<totfact> 0.32887117E+04</totfact>
</mgrwt>
</event>
<event>
12    1  0.1039378E-001  0.2046212E+03  0.7546771E-02  0.1146679E+00
         21   -1    0    0  501  502  0.00000000000E+00  0.00000000000E+00  0.40378818012E+03  0.40378818012E+03  0.00000000000E+00 0. -1.
         21   -1    0    0  502  503 -0.00000000000E+00 -0.00000000000E+00 -0.31632941720E+03  0.31632941720E+03  0.00000000000E+00 0. -1.
         -6    2    1    2    0  503 -0.71055367761E+02 -0.77872585889E+02 -0.25265935015E+03  0.32512546623E+03  0.17537621461E+03 0.  0.
        -24    2    3    3    0    0  0.23386409095E+02 -0.36971421557E+02 -0.79291441124E+02  0.12345574530E+03  0.83906961984E+02 0.  0.
          6    2    1    2  501    0  0.71055367761E+02  0.77872585889E+02  0.34011811307E+03  0.39499213109E+03  0.17095451987E+03 0.  0.
         24    2    5    5    0    0  0.27223381672E+02  0.46506520228E+02  0.32467867620E+03  0.33872900560E+03  0.80106975454E+02 0.  0.
          5    1    5    5  501    0  0.43831986088E+02  0.31366065661E+02  0.15439436865E+02  0.56263125493E+02  0.47000000000E+01 0. -1.
        -11    1    6    6    0    0  0.30812453552E+02 -0.12076489398E+01  0.42420993236E+02  0.52444316918E+02  0.00000000000E+00 0.  1.
         12    1    6    6    0    0 -0.35890718803E+01  0.47714169168E+02  0.28225768297E+03  0.28628468868E+03  0.00000000000E+00 0. -1.
         -5    1    3    3    0  503 -0.94441776856E+02 -0.40901164331E+02 -0.17336790903E+03  0.20166972093E+03  0.47000000000E+01 0.  1.
         13    1    4    4    0    0  0.29339422577E+02 -0.45210025730E+02 -0.11760187327E+02  0.55163848213E+02  0.00000000000E+00 0. -1.
        -14    1    4    4    0    0 -0.59530134820E+01  0.82386041727E+01 -0.67531253797E+02  0.68291897086E+02  0.00000000000E+00 0.  1.
<mgrwt>
<rscale>  2 0.20367036E+03</rscale>
<asrwt>0</asrwt>
<pdfrwt beam="1">  1       21 0.62121258E-01 0.20462117E+03</pdfrwt>
<pdfrwt beam="2">  1       21 0.48666064E-01 0.20462117E+03</pdfrwt>
<totfact> 0.96121558E+03</totfact>
</mgrwt>
</event>
<event>
12    1  0.1039378E-001  0.1832265E+03  0.7546771E-02  0.1165531E+00
         21   -1    0    0  503  502  0.00000000000E+00  0.00000000000E+00  0.27914392459E+03  0.27914392459E+03  0.00000000000E+00 0. -1.
         21   -1    0    0  501  503 -0.00000000000E+00 -0.00000000000E+00 -0.19911623841E+03  0.19911623841E+03  0.00000000000E+00 0.  1.
          6    2    1    2  501    0 -0.42961778388E+02 -0.28881474851E+02 -0.11279533701E+03  0.21226639259E+03  0.17220446969E+03 0.  0.
         24    2    3    3    0    0 -0.61138508909E+02 -0.25566841224E+02 -0.86365130910E+01  0.10637715362E+03  0.82764296730E+02 0.  0.
         -6    2    1    2    0  502  0.42961778388E+02  0.28881474851E+02  0.19282302318E+03  0.26599377041E+03  0.17576152491E+03 0.  0.
        -24    2    5    5    0    0  0.83045105266E+02  0.60098732680E+02  0.15625697209E+03  0.20322151243E+03  0.79839805912E+02 0.  0.
          5    1    3    3  501    0  0.18176730521E+02 -0.33146336276E+01 -0.10415882392E+03  0.10588923896E+03  0.47000000000E+01 0. -1.
        -11    1    4    4    0    0 -0.64606263798E+02 -0.22080868364E+02 -0.36954911890E+02  0.77635040945E+02  0.00000000000E+00 0.  1.
         12    1    4    4    0    0  0.34677548894E+01 -0.34859728596E+01  0.28318398799E+02  0.28742112680E+02  0.00000000000E+00 0. -1.
         -5    1    5    5    0  502 -0.40083326878E+02 -0.31217257829E+02  0.36566051088E+02  0.62772257982E+02  0.47000000000E+01 0.  1.
         11    1    6    6    0    0  0.79586655799E+02  0.37368206983E+02  0.15730121361E+03  0.18020568936E+03  0.00000000000E+00 0. -1.
        -12    1    6    6    0    0  0.34584494676E+01  0.22730525697E+02 -0.10442415182E+01  0.23015823069E+02  0.00000000000E+00 0.  1.
<mgrwt>
<rscale>  2 0.18236820E+03</rscale>
<asrwt>0</asrwt>
<pdfrwt beam="1">  1       21 0.42945219E-01 0.18322655E+03</pdfrwt>
<pdfrwt beam="2">  1       21 0.30633267E-01 0.18322655E+03</pdfrwt>
<totfact> 0.53577080E+04</totfact>
</mgrwt>
</event>
<event>
12    1  0.1039378E-001  0.2383335E+03  0.7546771E-02  0.1121123E+00
         21   -1    0    0  503  502  0.00000000000E+00  0.00000000000E+00  0.88030028780E+03  0.88030028780E+03  0.00000000000E+00 0.  1.
         21   -1    0    0  501  503 -0.00000000000E+00 -0.00000000000E+00 -0.70121446109E+02  0.70121446109E+02  0.00000000000E+00 0.  1.
          6    2    1    2  501    0 -0.46556498294E+02 -0.15562525108E+03  0.54240729039E+03  0.59194657519E+03  0.17265095684E+03 0.  0.
         24    2    3    3    0    0  0.60911959488E+01 -0.16007900921E+03  0.36391229117E+03  0.40573655822E+03  0.80793608378E+02 0.  0.
         -6    2    1    2    0  502  0.46556498294E+02  0.15562525108E+03  0.26777155130E+03  0.35847515872E+03  0.17440214858E+03 0.  0.
        -24    2    5    5    0    0  0.84140733029E+01  0.13840842508E+02  0.14602752043E+03  0.16768374867E+03  0.80817308124E+02 0.  0.
          5    1    3    3  501    0 -0.52647694243E+02  0.44537581311E+01  0.17849499922E+03  0.18621001697E+03  0.47000000000E+01 0. -1.
        -11    1    4    4    0    0  0.23719251338E+02 -0.12406070499E+03  0.32955354845E+03  0.35292945854E+03  0.00000000000E+00 0.  1.
         12    1    4    4    0    0 -0.17628055389E+02 -0.36018304225E+02  0.34358742720E+02  0.52807099687E+02  0.00000000000E+00 0. -1.
         -5    1    5    5    0  502  0.38142424991E+02  0.14178440857E+03  0.12174403086E+03  0.19079141005E+03  0.47000000000E+01 0.  1.
         11    1    6    6    0    0  0.32107282484E+02 -0.10502545670E+02  0.25127389830E+02  0.42101861880E+02  0.00000000000E+00 0. -1.
        -12    1    6    6    0    0 -0.23693209181E+02  0.24343388178E+02  0.12090013060E+03  0.12558188679E+03  0.00000000000E+00 0.  1.
<mgrwt>
<rscale>  2 0.23801320E+03</rscale>
<asrwt>0</asrwt>
<pdfrwt beam="1">  1       21 0.13543081E+00 0.23833345E+03</pdfrwt>
<pdfrwt beam="2">  1       21 0.10787915E-01 0.23833345E+03</pdfrwt>
<totfact> 0.26923813E+04</totfact>
</mgrwt>
</event>
<event>
12    1  0.1039378E-001  0.2093794E+03  0.7546771E-02  0.1142466E+00
         21   -1    0    0  501  502  0.00000000000E+00  0.00000000000E+00  0.37862844955E+03  0.37862844955E+03  0.00000000000E+00 0.  1.
         21   -1    0    0  502  503 -0.00000000000E+00 -0.00000000000E+00 -0.19404583857E+03  0.19404583857E+03  0.00000000000E+00 0.  1.
         -6    2    1    2    0  503  0.63608821598E+02 -0.98181220339E+02 -0.90585185243E+02  0.22813464963E+03  0.17364938343E+03 0.  0.
        -24    2    3    3    0    0  0.84467711871E+02 -0.22997165845E+02 -0.14838388668E+02  0.11928887551E+03  0.79661747761E+02 0.  0.
          6    2    1    2  501    0 -0.63608821598E+02  0.98181220339E+02  0.27516779622E+03  0.34453963848E+03  0.17118589952E+03 0.  0.
         24    2    5    5    0    0 -0.44323193249E+02  0.20338057361E+02  0.23821282709E+03  0.25611309707E+03  0.80438706234E+02 0.  0.
          5    1    5    5  501    0 -0.19285628349E+02  0.77843162977E+02  0.36954969131E+02  0.88426541415E+02  0.47000000000E+01 0. -1.
        -13    1    6    6    0    0  0.17544418725E+02  0.15887438249E+02  0.26642262420E+02  0.35637444765E+02  0.00000000000E+00 0.  1.
         14    1    6    6    0    0 -0.61867611974E+02  0.44506191123E+01  0.21157056467E+03  0.22047565230E+03  0.00000000000E+00 0. -1.
         -5    1    3    3    0  503 -0.20858890273E+02 -0.75184054494E+02 -0.75746796575E+02  0.10884577413E+03  0.47000000000E+01 0.  1.
         13    1    4    4    0    0  0.94819397560E+02 -0.32138295835E+02 -0.23694005695E+02  0.10288340060E+03  0.00000000000E+00 0. -1.
        -14    1    4    4    0    0 -0.10351685689E+02  0.91411299904E+01  0.88556170272E+01  0.16405474910E+02  0.00000000000E+00 0.  1.
<mgrwt>
<rscale>  2 0.20886792E+03</rscale>
<asrwt>0</asrwt>
<pdfrwt beam="1">  1       21 0.58250530E-01 0.20937942E+03</pdfrwt>
<pdfrwt beam="2">  1       21 0.29853206E-01 0.20937942E+03</pdfrwt>
<totfact> 0.29429978E+04</totfact>
</mgrwt>
</event>
<event>
12    1  0.1039378E-001  0.2723444E+03  0.7546771E-02  0.1100380E+00
         21   -1    0    0  503  502  0.00000000000E+00  0.00000000000E+00  0.40007057154E+03  0.40007057154E+03  0.00000000000E+00 0.  1.
         21   -1    0    0  501  503 -0.00000000000E+00 -0.00000000000E+00 -0.28008628788E+03  0.28008628788E+03  0.00000000000E+00 0. -1.
          6    2    1    2  501    0  0.20347118132E+03 -0.39170325755E+02 -0.13967291581E+03  0.30607184323E+03  0.17673882923E+03 0.  0.
         24    2    3    3    0    0  0.55109425721E+02 -0.68228607287E+02 -0.75149820804E+02  0.14163062565E+03  0.81972842448E+02 0.  0.
         -6    2    1    2    0  502 -0.20347118132E+03  0.39170325755E+02  0.25965719947E+03  0.37408501620E+03  0.17199680828E+03 0.  0.
        -24    2    5    5    0    0 -0.89980735533E+02  0.35521082106E+02  0.21968061971E+03  0.25361254966E+03  0.81862510522E+02 0.  0.
          5    1    3    3  501    0  0.14836175560E+03  0.29058281532E+02 -0.64523095006E+02  0.16444121758E+03  0.47000000000E+01 0. -1.
        -13    1    4    4    0    0 -0.19683092306E+02 -0.23374017474E+02 -0.32288563886E+02  0.44455822717E+02  0.00000000000E+00 0.  1.
         14    1    4    4    0    0  0.74792518027E+02 -0.44854589813E+02 -0.42861256918E+02  0.97174802931E+02  0.00000000000E+00 0. -1.
         -5    1    5    5    0  502 -0.11349044578E+03  0.36492436485E+01  0.39976579760E+02  0.12047246653E+03  0.47000000000E+01 0.  1.
         11    1    6    6    0    0  0.13161526599E+02 -0.28920952440E+01  0.46527992289E+02  0.48440108007E+02  0.00000000000E+00 0. -1.
        -12    1    6    6    0    0 -0.10314226213E+03  0.38413177350E+02  0.17315262742E+03  0.20517244166E+03  0.00000000000E+00 0.  1.
<mgrwt>
<rscale>  2 0.27157783E+03</rscale>
<asrwt>0</asrwt>
<pdfrwt beam="1">  1       21 0.61549319E-01 0.27234436E+03</pdfrwt>
<pdfrwt beam="2">  1       21 0.43090198E-01 0.27234436E+03</pdfrwt>
<totfact> 0.12134712E+04</totfact>
</mgrwt>
</event>
<event>
12    1  0.1039378E-001  0.1980158E+03  0.7546771E-02  0.1152360E+00
         21   -1    0    0  503  502  0.00000000000E+00  0.00000000000E+00  0.96054607666E+03  0.96054607666E+03  0.00000000000E+00 0.  1.
         21   -1    0    0  501  503 -0.00000000000E+00 -0.00000000000E+00 -0.11575653329E+03  0.11575653329E+03  0.00000000000E+00 0.  1.
          6    2    1    2  501    0  0.74571748533E+02 -0.52588442397E+02 -0.14751008420E+02  0.19424806215E+03  0.17084562460E+03 0.  0.
         24    2    3    3    0    0  0.50624310743E+02  0.34231818562E+02  0.54241516081E+01  0.10183396922E+03  0.81277903675E+02 0.  0.
         -6    2    1    2    0  502 -0.74571748533E+02  0.52588442397E+02  0.85954055179E+03  0.88205454781E+03  0.17573780236E+03 0.  0.
        -24    2    5    5    0    0  0.20344448531E+02  0.14790864504E+02  0.55280531751E+03  0.55871829047E+03  0.77069726725E+02 0.  0.
          5    1    3    3  501    0  0.23947437790E+02 -0.86820260958E+02 -0.20175160029E+02  0.92414092928E+02  0.47000000000E+01 0. -1.
        -11    1    4    4    0    0  0.55326132712E+02  0.18103807516E+02 -0.27870895499E+02  0.64540805878E+02  0.00000000000E+00 0.  1.
         12    1    4    4    0    0 -0.47018219685E+01  0.16128011045E+02  0.33295047107E+02  0.37293163341E+02  0.00000000000E+00 0. -1.
         -5    1    5    5    0  502 -0.94916197064E+02  0.37797577893E+02  0.30673523428E+03  0.32333625734E+03  0.47000000000E+01 0.  1.
         13    1    6    6    0    0  0.27885207200E+02  0.32279234867E+02  0.16431567852E+03  0.16976211589E+03  0.00000000000E+00 0. -1.
        -14    1    6    6    0    0 -0.75407586686E+01 -0.17488370363E+02  0.38848963899E+03  0.38895617458E+03  0.00000000000E+00 0.  1.
<mgrwt>
<rscale>  2 0.19692467E+03</rscale>
<asrwt>0</asrwt>
<pdfrwt beam="1">  1       21 0.14777631E+00 0.19801582E+03</pdfrwt>
<pdfrwt beam="2">  1       21 0.17808698E-01 0.19801582E+03</pdfrwt>
<totfact> 0.88650282E+03</totfact>
</mgrwt>
</event>
<event>
12    1  0.1039378E-001  0.1806103E+03  0.7546771E-02  0.1167394E+00
         21   -1    0    0  501  502  0.00000000000E+00  0.00000000000E+00  0.37800025855E+03  0.37800025855E+03  0.00000000000E+00 0. -1.
         21   -1    0    0  502  503 -0.00000000000E+00 -0.00000000000E+00 -0.12915905394E+03  0.12915905394E+03  0.00000000000E+00 0. -1.
         -6    2    1    2    0  503 -0.50161601996E+02  0.70462067217E+01 -0.22093698376E+02  0.18195663529E+03  0.17336161707E+03 0.  0.
        -24    2    3    3    0    0 -0.92193924864E+00 -0.51735263507E+02 -0.36422362440E+02  0.10380801890E+03  0.82292945259E+02 0.  0.
          6    2    1    2  501    0  0.50161601996E+02 -0.70462067217E+01  0.27093490299E+03  0.32520267721E+03  0.17258396294E+03 0.  0.
         24    2    5    5    0    0 -0.68601884238E+00  0.47031625578E+02  0.94000519506E+02  0.13327102649E+03  0.81930607267E+02 0.  0.
          5    1    5    5  501    0  0.50847620838E+02 -0.54077832299E+02  0.17693438348E+03  0.19193165072E+03  0.47000000000E+01 0. -1.
        -11    1    6    6    0    0  0.27694893401E+02  0.10957229047E+02  0.12799600404E+01  0.29811177210E+02  0.00000000000E+00 0.  1.
         12    1    6    6    0    0 -0.28380912244E+02  0.36074396531E+02  0.92720559466E+02  0.10345984928E+03  0.00000000000E+00 0. -1.
         -5    1    3    3    0  503 -0.49239662747E+02  0.58781470229E+02  0.14328664065E+02  0.78148616390E+02  0.47000000000E+01 0.  1.
         13    1    4    4    0    0  0.22551954299E+02 -0.36067356404E+02 -0.55363972753E+02  0.69818438251E+02  0.00000000000E+00 0. -1.
        -14    1    4    4    0    0 -0.23473893547E+02 -0.15667907103E+02  0.18941610313E+02  0.33989580646E+02  0.00000000000E+00 0.  1.
<mgrwt>
<rscale>  2 0.18042345E+03</rscale>
<asrwt>0</asrwt>
<pdfrwt beam="1">  1       21 0.58153886E-01 0.18061031E+03</pdfrwt>
<pdfrwt beam="2">  1       21 0.19870624E-01 0.18061031E+03</pdfrwt>
<totfact> 0.65075513E+04</totfact>
</mgrwt>
</event>
<event>
12    1  0.1039378E-001  0.3074779E+03  0.7546771E-02  0.1081966E+00
         21   -1    0    0  501  502  0.00000000000E+00  0.00000000000E+00  0.11828602094E+04  0.11828602094E+04  0.00000000000E+00 0. -1.
         21   -1    0    0  502  503 -0.00000000000E+00 -0.00000000000E+00 -0.95751150894E+02  0.95751150894E+02  0.00000000000E+00 0. -1.
         -6    2    1    2    0  503  0.18235691832E+03 -0.17661506292E+03  0.27424161021E+03  0.40953359410E+03  0.16751829098E+03 0.  0.
        -24    2    3    3    0    0  0.29053936004E+02 -0.80778546062E+02  0.14512222592E+03  0.18731670061E+03  0.81595227625E+02 0.  0.
          6    2    1    2  501    0 -0.18235691832E+03  0.17661506292E+03  0.81286744825E+03  0.86907776615E+03  0.17348126436E+03 0.  0.
         24    2    5    5    0    0 -0.19036931519E+03  0.19056966086E+03  0.69029507707E+03  0.74536436556E+03  0.80644108411E+02 0.  0.
          5    1    5    5  501    0  0.80123968687E+01 -0.13954597943E+02  0.12257237119E+03  0.12371340059E+03  0.47000000000E+01 0. -1.
        -13    1    6    6    0    0  0.72211396536E+01  0.15852879205E+02  0.42805317387E+02  0.46214216791E+02  0.00000000000E+00 0.  1.
         14    1    6    6    0    0 -0.19759045484E+03  0.17471678166E+03  0.64748975968E+03  0.69915014877E+03  0.00000000000E+00 0. -1.
         -5    1    3    3    0  503  0.15330298232E+03 -0.95836516860E+02  0.12911938429E+03  0.22221689349E+03  0.47000000000E+01 0.  1.
         11    1    4    4    0    0  0.33144410030E+02 -0.45362967173E+01  0.80908910586E+02  0.87552165686E+02  0.00000000000E+00 0. -1.
        -12    1    4    4    0    0 -0.40904740253E+01 -0.76242249344E+02  0.64213315333E+02  0.99764534925E+02  0.00000000000E+00 0.  1.
<mgrwt>
<rscale>  2 0.30664341E+03</rscale>
<asrwt>0</asrwt>
<pdfrwt beam="1">  1       21 0.18197848E+00 0.30747793E+03</pdfrwt>
<pdfrwt beam="2">  1       21 0.14730947E-01 0.30747793E+03</pdfrwt>
<totfact> 0.66113125E+03</totfact>
</mgrwt>
</event>
<event>
12    1  0.1039378E-001  0.1829562E+03  0.7546771E-02  0.1164983E+00
         21   -1    0    0  501  502  0.00000000000E+00  0.00000000000E+00  0.16827466191E+03  0.16827466191E+03  0.00000000000E+00 0. -1.
         21   -1    0    0  502  503 -0.00000000000E+00 -0.00000000000E+00 -0.23030349439E+03  0.23030349439E+03  0.00000000000E+00 0.  1.
         -6    2    1    2    0  503  0.56708903166E+02 -0.19459005000E+02  0.42607949771E+02  0.18785205060E+03  0.17285370391E+03 0.  0.
        -24    2    3    3    0    0  0.42784513373E+02 -0.51201969188E+02 -0.27574762709E+02  0.10943516761E+03  0.82240696364E+02 0.  0.
          6    2    1    2  501    0 -0.56708903166E+02  0.19459005000E+02 -0.10463678226E+03  0.21072610570E+03  0.17280648960E+03 0.  0.
         24    2    5    5    0    0  0.10332036117E+02  0.61706269496E+02 -0.67737373283E+02  0.12318768396E+03  0.81684999083E+02 0.  0.
          5    1    5    5  501    0 -0.67040939283E+02 -0.42247264496E+02 -0.36899408973E+02  0.87538421735E+02  0.47000000000E+01 0. -1.
        -11    1    6    6    0    0 -0.78121115855E+01  0.19523697889E+02 -0.73921050909E+02  0.76853924000E+02  0.00000000000E+00 0.  1.
         12    1    6    6    0    0  0.18144147703E+02  0.42182571607E+02  0.61836776260E+01  0.46333759962E+02  0.00000000000E+00 0. -1.
         -5    1    3    3    0  503  0.13924389793E+02  0.31742964187E+02  0.70182712481E+02  0.78416882989E+02  0.47000000000E+01 0.  1.
         13    1    4    4    0    0 -0.57398656388E+01  0.18122966006E+02  0.34235849390E+01  0.19316026720E+02  0.00000000000E+00 0. -1.
        -14    1    4    4    0    0  0.48524379012E+02 -0.69324935194E+02 -0.30998347648E+02  0.90119140892E+02  0.00000000000E+00 0.  1.
<mgrwt>
<rscale>  2 0.18294500E+03</rscale>
<asrwt>0</asrwt>
<pdfrwt beam="1">  1       21 0.25888410E-01 0.18295616E+03</pdfrwt>
<pdfrwt beam="2">  1       21 0.35431306E-01 0.18295616E+03</pdfrwt>
<totfact> 0.10919817E+05</totfact>
</mgrwt>
</event>
<event>
12    1  0.1039378E-001  0.2225181E+03  0.7546771E-02  0.1132461E+00
         21   -1    0    0  503  502  0.00000000000E+00  0.00000000000E+00  0.30149455201E+03  0.30149455201E+03  0.00000000000E+00 0. -1.
         21   -1    0    0  501  503 -0.00000000000E+00 -0.00000000000E+00 -0.25227929085E+03  0.25227929085E+03  0.00000000000E+00 0.  1.
          6    2    1    2  501    0 -0.11873539900E+03  0.57379092341E+02 -0.14068158006E+03  0.26124160586E+03  0.17625383527E+03 0.  0.
         24    2    3    3    0    0 -0.46696771329E+02  0.63791278410E+02 -0.14921026223E+03  0.18826552466E+03  0.83248361952E+02 0.  0.
         -6    2    1    2    0  502  0.11873539900E+03 -0.57379092341E+02  0.18989684123E+03  0.29253223700E+03  0.17923125889E+03 0.  0.
        -24    2    5    5    0    0 -0.36891878144E+01  0.35885467178E+01  0.99475635851E+02  0.12851115040E+03  0.81198681483E+02 0.  0.
          5    1    3    3  501    0 -0.72038627669E+02 -0.64121860693E+01  0.85286821684E+01  0.72976081192E+02  0.47000000000E+01 0. -1.
        -13    1    4    4    0    0 -0.47164639692E+02  0.82871548865E+02 -0.11839440797E+03  0.15201786963E+03  0.00000000000E+00 0.  1.
         14    1    4    4    0    0  0.46786836391E+00 -0.19080270454E+02 -0.30815854265E+02  0.36247655035E+02  0.00000000000E+00 0. -1.
         -5    1    5    5    0  502  0.12242458681E+03 -0.60967639059E+02  0.90421205377E+02  0.16402108660E+03  0.47000000000E+01 0.  1.
         11    1    6    6    0    0  0.33047382308E+02  0.49270244373E+01  0.80462934058E+02  0.87124559135E+02  0.00000000000E+00 0. -1.
        -12    1    6    6    0    0 -0.36736570123E+02 -0.13384777194E+01  0.19012701793E+02  0.41386591264E+02  0.00000000000E+00 0.  1.
<mgrwt>
<rscale>  2 0.22191788E+03</rscale>
<asrwt>0</asrwt>
<pdfrwt beam="1">  1       21 0.46383777E-01 0.22251809E+03</pdfrwt>
<pdfrwt beam="2">  1       21 0.38812199E-01 0.22251809E+03</pdfrwt>
<totfact> 0.28043645E+04</totfact>
</mgrwt>
</event>
<event>
12    1  0.1039378E-001  0.1874706E+03  0.7546771E-02  0.1162612E+00
         21   -1    0    0  503  502  0.00000000000E+00  0.00000000000E+00  0.53658903753E+02  0.53658903753E+02  0.00000000000E+00 0. -1.
         21   -1    0    0  501  503 -0.00000000000E+00 -0.00000000000E+00 -0.71940421364E+03  0.71940421364E+03  0.00000000000E+00 0. -1.
          6    2    1    2  501    0  0.48145747438E+02 -0.17594294145E+02 -0.47704804505E+03  0.51256225140E+03  0.18032651523E+03 0.  0.
         24    2    3    3    0    0  0.55487873323E+02  0.30036539328E+02 -0.43982649222E+03  0.45148740302E+03  0.80077675088E+02 0.  0.
         -6    2    1    2    0  502 -0.48145747438E+02  0.17594294145E+02 -0.18869726484E+03  0.26050086599E+03  0.17212341863E+03 0.  0.
        -24    2    5    5    0    0 -0.76402277105E+02  0.31121527846E+02 -0.63987045036E+02  0.13183017608E+03  0.80492210488E+02 0.  0.
          5    1    3    3  501    0 -0.73421258845E+01 -0.47630833473E+02 -0.37221552832E+02  0.61074848383E+02  0.47000000000E+01 0. -1.
        -11    1    4    4    0    0  0.10328307746E+02 -0.26102037505E+02 -0.16516195810E+03  0.16753048292E+03  0.00000000000E+00 0.  1.
         12    1    4    4    0    0  0.45159565577E+02  0.56138576833E+02 -0.27466453411E+03  0.28395692010E+03  0.00000000000E+00 0. -1.
         -5    1    5    5    0  502  0.28256529667E+02 -0.13527233701E+02 -0.12471021980E+03  0.12867068992E+03  0.47000000000E+01 0.  1.
         13    1    6    6    0    0 -0.27568245647E+02  0.51391721022E+02 -0.50787595393E+02  0.77333673154E+02  0.00000000000E+00 0. -1.
        -14    1    6    6    0    0 -0.48834031458E+02 -0.20270193175E+02 -0.13199449643E+02  0.54496502922E+02  0.00000000000E+00 0.  1.
<mgrwt>
<rscale>  2 0.18546967E+03</rscale>
<asrwt>0</asrwt>
<pdfrwt beam="1">  1       21 0.82552159E-02 0.18747060E+03</pdfrwt>
<pdfrwt beam="2">  1       21 0.11067757E+00 0.18747060E+03</pdfrwt>
<totfact> 0.73279754E+04</totfact>
</mgrwt>
</event>
<event>
12    1  0.1039378E-001  0.2005911E+03  0.7546771E-02  0.1150220E+00
         21   -1    0    0  503  502  0.00000000000E+00  0.00000000000E+00  0.27635299317E+03  0.27635299317E+03  0.00000000000E+00 0.  1.
         21   -1    0    0  501  503 -0.00000000000E+00 -0.00000000000E+00 -0.16367476618E+03  0.16367476618E+03  0.00000000000E+00 0.  1.
          6    2    1    2  501    0  0.97433155859E+02  0.29869207871E+02 -0.23768720283E+02  0.19742819487E+03  0.16741430830E+03 0.  0.
         24    2    3    3    0    0 -0.24728340252E+01 -0.24215780814E+02  0.96542284707E+00  0.81065569200E+02  0.77318662171E+02 0.  0.
         -6    2    1    2    0  502 -0.97433155859E+02 -0.29869207871E+02  0.13644694727E+03  0.24259956448E+03  0.17277554753E+03 0.  0.
        -24    2    5    5    0    0 -0.11738897704E+03 -0.94057827267E+01  0.46060667990E+02  0.14768509745E+03  0.76293264409E+02 0.  0.
          5    1    3    3  501    0  0.99905989885E+02  0.54084988684E+02 -0.24734143130E+02  0.11636262567E+03  0.47000000000E+01 0. -1.
        -13    1    4    4    0    0  0.29458948744E+02  0.10823592562E+02 -0.89446093297E+01  0.32634120995E+02  0.00000000000E+00 0.  1.
         14    1    4    4    0    0 -0.31931782770E+02 -0.35039373376E+02  0.99100321768E+01  0.48431448204E+02  0.00000000000E+00 0. -1.
         -5    1    5    5    0  502  0.19955821185E+02 -0.20463425144E+02  0.90386279281E+02  0.94914467022E+02  0.47000000000E+01 0.  1.
         13    1    6    6    0    0  0.72478915204E+01 -0.79174678612E+01 -0.63469009522E+01  0.12470019267E+02  0.00000000000E+00 0. -1.
        -14    1    6    6    0    0 -0.12463686856E+03 -0.14883148655E+01  0.52407568942E+02  0.13521507819E+03  0.00000000000E+00 0.  1.
<mgrwt>
<rscale>  2 0.19943134E+03</rscale>
<asrwt>0</asrwt>
<pdfrwt beam="1">  1       21 0.42515845E-01 0.20059107E+03</pdfrwt>
<pdfrwt beam="2">  1       21 0.25180733E-01 0.20059107E+03</pdfrwt>
<totfact> 0.79242255E+04</totfact>
</mgrwt>
</event>
<event>
12    1  0.1039378E-001  0.1833325E+03  0.7546771E-02  0.1165467E+00
         21   -1    0    0  503  502  0.00000000000E+00  0.00000000000E+00  0.13070577300E+03  0.13070577300E+03  0.00000000000E+00 0.  1.
         21   -1    0    0  501  503 -0.00000000000E+00 -0.00000000000E+00 -0.25292215710E+03  0.25292215710E+03  0.00000000000E+00 0.  1.
          6    2    1    2  501    0  0.33860448378E+02 -0.49921967220E+02 -0.72118019560E+02  0.19700714453E+03  0.17312444506E+03 0.  0.
         24    2    3    3    0    0 -0.43732227067E+02 -0.17721107126E+02 -0.57813510891E+02  0.11165945774E+03  0.83059539718E+02 0.  0.
         -6    2    1    2    0  502 -0.33860448378E+02  0.49921967220E+02 -0.50098364540E+02  0.18662078556E+03  0.16934798109E+03 0.  0.
        -24    2    5    5    0    0 -0.14044488966E+02 -0.36208795568E+02 -0.30510438731E+02  0.95973351050E+02  0.82290173735E+02 0.  0.
          5    1    3    3  501    0  0.77592675445E+02 -0.32200860094E+02 -0.14304508669E+02  0.85347686798E+02  0.47000000000E+01 0. -1.
        -13    1    4    4    0    0 -0.37077607720E+02 -0.50069970349E+02 -0.34335109260E+02  0.71138250280E+02  0.00000000000E+00 0.  1.
         14    1    4    4    0    0 -0.66546193469E+01  0.32348863223E+02 -0.23478401631E+02  0.40521207455E+02  0.00000000000E+00 0. -1.
         -5    1    5    5    0  502 -0.19815959412E+02  0.86130762788E+02 -0.19587925808E+02  0.90647434511E+02  0.47000000000E+01 0.  1.
         11    1    6    6    0    0 -0.30126952048E+02 -0.17902160284E+02 -0.52519267325E+02  0.63137896884E+02  0.00000000000E+00 0. -1.
        -12    1    6    6    0    0  0.16082463082E+02 -0.18306635284E+02  0.22008828594E+02  0.32835454166E+02  0.00000000000E+00 0.  1.
<mgrwt>
<rscale>  2 0.18243547E+03</rscale>
<asrwt>0</asrwt>
<pdfrwt beam="1">  1       21 0.20108581E-01 0.18333250E+03</pdfrwt>
<pdfrwt beam="2">  1       21 0.38911101E-01 0.18333250E+03</pdfrwt>
<totfact> 0.14595892E+05</totfact>
</mgrwt>
</event>
<event>
12    1  0.1039378E-001  0.1840405E+03  0.7546771E-02  0.1165692E+00
         21   -1    0    0  501  502  0.00000000000E+00  0.00000000000E+00  0.37924652797E+03  0.37924652797E+03  0.00000000000E+00 0.  1.
         21   -1    0    0  502  503 -0.00000000000E+00 -0.00000000000E+00 -0.14317324072E+03  0.14317324072E+03  0.00000000000E+00 0.  1.
         -6    2    1    2    0  503 -0.33876736120E+02 -0.15750531381E+02 -0.48685171829E+02  0.18336477356E+03  0.17279086126E+03 0.  0.
        -24    2    3    3    0    0 -0.35291806242E+02 -0.76686333541E+01  0.37761943070E+02  0.96402062159E+02  0.81012799721E+02 0.  0.
          6    2    1    2  501    0  0.33876736120E+02  0.15750531381E+02  0.28475845908E+03  0.33905499514E+03  0.18020876011E+03 0.  0.
         24    2    5    5    0    0  0.54798711117E+02 -0.29126119681E+02  0.26633735587E+03  0.28601661383E+03  0.83777602405E+02 0.  0.
          5    1    5    5  501    0 -0.20921974997E+02  0.44876651061E+02  0.18421103208E+02  0.53038381307E+02  0.47000000000E+01 0. -1.
        -13    1    6    6    0    0  0.35974880149E+01  0.98996096649E+01  0.16892464954E+03  0.16925271464E+03  0.00000000000E+00 0.  1.
         14    1    6    6    0    0  0.51201223102E+02 -0.39025729346E+02  0.97412706335E+02  0.11676389919E+03  0.00000000000E+00 0. -1.
         -5    1    3    3    0  503  0.14150701223E+01 -0.80818980265E+01 -0.86447114899E+02  0.86962711397E+02  0.47000000000E+01 0.  1.
         13    1    4    4    0    0 -0.34143783371E+02 -0.33312269136E+02 -0.34747295198E+01  0.47828641660E+02  0.00000000000E+00 0. -1.
        -14    1    4    4    0    0 -0.11480228718E+01  0.25643635782E+02  0.41236672590E+02  0.48573420498E+02  0.00000000000E+00 0.  1.
<mgrwt>
<rscale>  2 0.18219879E+03</rscale>
<asrwt>0</asrwt>
<pdfrwt beam="1">  1       21 0.58345619E-01 0.18404051E+03</pdfrwt>
<pdfrwt beam="2">  1       21 0.22026653E-01 0.18404051E+03</pdfrwt>
<totfact> 0.53196448E+04</totfact>
</mgrwt>
</event>
<event>
12    1  0.1039378E-001  0.2016272E+03  0.7546771E-02  0.1148399E+00
         21   -1    0    0  503  502  0.00000000000E+00  0.00000000000E+00  0.46824000913E+02  0.46824000913E+02  0.00000000000E+00 0.  1.
         21   -1    0    0  501  503 -0.00000000000E+00 -0.00000000000E+00 -0.89538643076E+03  0.89538643076E+03  0.00000000000E+00 0.  1.
          6    2    1    2  501    0 -0.90420083582E+02 -0.48810376596E+02 -0.34154087584E+03  0.39661528269E+03  0.17347987843E+03 0.  0.
         24    2    3    3    0    0 -0.84182974815E+02  0.22514155777E+02 -0.27559987464E+03  0.29916582870E+03  0.77144291464E+02 0.  0.
         -6    2    1    2    0  502  0.90420083582E+02  0.48810376596E+02 -0.50702155401E+03  0.54559514898E+03  0.17333483775E+03 0.  0.
        -24    2    5    5    0    0  0.16605245044E+02 -0.27200593250E+02 -0.14956915230E+03  0.17274047566E+03  0.80328912453E+02 0.  0.
          5    1    3    3  501    0 -0.62371087670E+01 -0.71324532372E+02 -0.65941001200E+02  0.97449453991E+02  0.47000000000E+01 0. -1.
        -13    1    4    4    0    0 -0.22409119355E+02 -0.96195293486E+01 -0.17575235025E+03  0.17743616484E+03  0.00000000000E+00 0.  1.
         14    1    4    4    0    0 -0.61773855460E+02  0.32133685125E+02 -0.99847524388E+02  0.12172966386E+03  0.00000000000E+00 0. -1.
         -5    1    5    5    0  502  0.73814838538E+02  0.76010969846E+02 -0.35745240172E+03  0.37285467332E+03  0.47000000000E+01 0.  1.
         13    1    6    6    0    0  0.19571505618E+02 -0.14298315251E+01  0.12911628650E+01  0.19666096508E+02  0.00000000000E+00 0. -1.
        -14    1    6    6    0    0 -0.29662605736E+01 -0.25770761725E+02 -0.15086031516E+03  0.15307437915E+03  0.00000000000E+00 0.  1.
<mgrwt>
<rscale>  2 0.20159596E+03</rscale>
<asrwt>0</asrwt>
<pdfrwt beam="1">  1       21 0.72036925E-02 0.20162716E+03</pdfrwt>
<pdfrwt beam="2">  1       21 0.13775176E+00 0.20162716E+03</pdfrwt>
<totfact> 0.53443247E+04</totfact>
</mgrwt>
</event>
<event>
12    1  0.1039378E-001  0.2032403E+03  0.7546771E-02  0.1149201E+00
         21   -1    0    0  503  502  0.00000000000E+00  0.00000000000E+00  0.81040946573E+02  0.81040946573E+02  0.00000000000E+00 0. -1.
         21   -1    0    0  501  503 -0.00000000000E+00 -0.00000000000E+00 -0.48580177866E+03  0.48580177866E+03  0.00000000000E+00 0. -1.
          6    2    1    2  501    0  0.78955604099E+02 -0.32962914928E+02 -0.18206691077E+03  0.26534774774E+03  0.17303330909E+03 0.  0.
         24    2    3    3    0    0  0.77648202707E+02  0.20664382329E+02 -0.53742367570E+02  0.12618282868E+03  0.81102429692E+02 0.  0.
         -6    2    1    2    0  502 -0.78955604099E+02  0.32962914928E+02 -0.22269392132E+03  0.30149497749E+03  0.18435318734E+03 0.  0.
        -24    2    5    5    0    0  0.14593009464E+02  0.35214643222E+02 -0.47538397961E+02  0.10285469773E+03  0.82862310749E+02 0.  0.
          5    1    3    3  501    0  0.13074013923E+01 -0.53627297257E+02 -0.12832454320E+03  0.13916491906E+03  0.47000000000E+01 0. -1.
        -11    1    4    4    0    0  0.22215933755E+02  0.29021146196E+02 -0.59500779785E+02  0.69829201873E+02  0.00000000000E+00 0.  1.
         12    1    4    4    0    0  0.55432268952E+02 -0.83567638669E+01  0.57584122154E+01  0.56353626811E+02  0.00000000000E+00 0. -1.
         -5    1    5    5    0  502 -0.93548613563E+02 -0.22517282940E+01 -0.17515552336E+03  0.19864027976E+03  0.47000000000E+01 0.  1.
         13    1    6    6    0    0 -0.26196548096E+02  0.12221025236E+02 -0.47995494773E+02  0.56028386631E+02  0.00000000000E+00 0. -1.
        -14    1    6    6    0    0  0.40789557559E+02  0.22993617985E+02  0.45709681209E+00  0.46826311102E+02  0.00000000000E+00 0.  1.
<mgrwt>
<rscale>  2 0.20063854E+03</rscale>
<asrwt>0</asrwt>
<pdfrwt beam="1">  1       21 0.12467838E-01 0.20324035E+03</pdfrwt>
<pdfrwt beam="2">  1       21 0.74738734E-01 0.20324035E+03</pdfrwt>
<totfact> 0.87402347E+04</totfact>
</mgrwt>
</event>
<event>
12    1  0.1039378E-001  0.1743074E+03  0.7546771E-02  0.1173739E+00
         21   -1    0    0  503  502  0.00000000000E+00  0.00000000000E+00  0.55601613238E+03  0.55601613238E+03  0.00000000000E+00 0. -1.
         21   -1    0    0  501  503 -0.00000000000E+00 -0.00000000000E+00 -0.58339408806E+02  0.58339408806E+02  0.00000000000E+00 0. -1.
          6    2    1    2  501    0 -0.24320154105E+01  0.20636263837E+02  0.33086928596E+03  0.37397534500E+03  0.17306445098E+03 0.  0.
         24    2    3    3    0    0 -0.48697557251E+01 -0.53971401921E+02  0.15122044784E+03  0.17937821911E+03  0.79826655320E+02 0.  0.
         -6    2    1    2    0  502  0.24320154105E+01 -0.20636263837E+02  0.16680743761E+03  0.24038019618E+03  0.17183174151E+03 0.  0.
        -24    2    5    5    0    0  0.31016743183E+02 -0.63716629455E+02  0.15263372060E+03  0.18656580389E+03  0.80547497106E+02 0.  0.
          5    1    3    3  501    0  0.24377403146E+01  0.74607665758E+02  0.17964883813E+03  0.19459712590E+03  0.47000000000E+01 0. -1.
        -13    1    4    4    0    0  0.32684344211E+02 -0.48454512100E+02  0.95180968404E+02  0.11169388007E+03  0.00000000000E+00 0.  1.
         14    1    4    4    0    0 -0.37554099936E+02 -0.55168898210E+01  0.56039479432E+02  0.67684339033E+02  0.00000000000E+00 0. -1.
         -5    1    5    5    0  502 -0.28584727773E+02  0.43080365619E+02  0.14173717010E+02  0.53814392290E+02  0.47000000000E+01 0.  1.
         13    1    6    6    0    0  0.34863200842E+02 -0.55116429536E+02  0.16116222267E+03  0.17385777404E+03  0.00000000000E+00 0. -1.
        -14    1    6    6    0    0 -0.38464576586E+01 -0.86001999195E+01 -0.85285020694E+01  0.12708029852E+02  0.00000000000E+00 0.  1.
<mgrwt>
<rscale>  2 0.17400064E+03</rscale>
<asrwt>0</asrwt>
<pdfrwt beam="1">  1       21 0.85540940E-01 0.17430741E+03</pdfrwt>
<pdfrwt beam="2">  1       21 0.89752940E-02 0.17430741E+03</pdfrwt>
<totfact> 0.11673556E+05</totfact>
</mgrwt>
</event>
<event>
12    1  0.1039378E-001  0.1927675E+03  0.7546771E-02  0.1156145E+00
         21   -1    0    0  501  502  0.00000000000E+00  0.00000000000E+00  0.15981425772E+03  0.15981425772E+03  0.00000000000E+00 0. -1.
         21   -1    0    0  502  503 -0.00000000000E+00 -0.00000000000E+00 -0.26340632019E+03  0.26340632019E+03  0.00000000000E+00 0. -1.
         -6    2    1    2    0  503  0.32665422231E+02  0.78210675139E+02 -0.12517172029E+03  0.22924891296E+03  0.17234606180E+03 0.  0.
        -24    2    3    3    0    0  0.34701554967E+02 -0.13558880261E+02 -0.23571537166E+02  0.92243495746E+02  0.81025946413E+02 0.  0.
          6    2    1    2  501    0 -0.32665422231E+02 -0.78210675139E+02  0.21579657823E+02  0.19397166495E+03  0.17313401069E+03 0.  0.
         24    2    5    5    0    0 -0.75406328020E+02 -0.74892758847E+02  0.50334583488E+02  0.14213799494E+03  0.79841090164E+02 0.  0.
          5    1    5    5  501    0  0.42740905789E+02 -0.33179162923E+01 -0.28754925666E+02  0.51833670005E+02  0.47000000000E+01 0. -1.
        -13    1    6    6    0    0 -0.53332141081E+02  0.11746531603E+00  0.10389841396E+02  0.54334886349E+02  0.00000000000E+00 0.  1.
         14    1    6    6    0    0 -0.22074186939E+02 -0.75010224163E+02  0.39944742093E+02  0.87803108594E+02  0.00000000000E+00 0. -1.
         -5    1    3    3    0  503 -0.20361327353E+01  0.91769555400E+02 -0.10160018312E+03  0.13700541721E+03  0.47000000000E+01 0.  1.
         11    1    4    4    0    0 -0.29384946135E+01  0.60567253046E+01 -0.44439416099E+02  0.44946416711E+02  0.00000000000E+00 0. -1.
        -12    1    4    4    0    0  0.37640049580E+02 -0.19615605566E+02  0.20867878933E+02  0.47297079035E+02  0.00000000000E+00 0.  1.
<mgrwt>
<rscale>  2 0.19259045E+03</rscale>
<asrwt>0</asrwt>
<pdfrwt beam="1">  1       21 0.24586809E-01 0.19276754E+03</pdfrwt>
<pdfrwt beam="2">  1       21 0.40524048E-01 0.19276754E+03</pdfrwt>
<totfact> 0.91738904E+04</totfact>
</mgrwt>
</event>
<event>
12    1  0.1039378E-001  0.2239219E+03  0.7546771E-02  0.1131239E+00
         21   -1    0    0  503  502  0.00000000000E+00  0.00000000000E+00  0.39319318716E+03  0.39319318716E+03  0.00000000000E+00 0.  1.
         21   -1    0    0  501  503 -0.00000000000E+00 -0.00000000000E+00 -0.16306163999E+03  0.16306163999E+03  0.00000000000E+00 0. -1.
          6    2    1    2  501    0  0.40675478454E+01 -0.14015432145E+03 -0.15902509319E+02  0.22448588653E+03  0.17458878739E+03 0.  0.
         24    2    3    3    0    0 -0.58787415608E+02 -0.80583251723E+02 -0.39597990064E+02  0.13458024384E+03  0.81204806034E+02 0.  0.
         -6    2    1    2    0  502 -0.40675478454E+01  0.14015432145E+03  0.24603405649E+03  0.33176894062E+03  0.17285281092E+03 0.  0.
        -24    2    5    5    0    0  0.57901247197E+02  0.12326770895E+03  0.18235633724E+03  0.24120277051E+03  0.79859002450E+02 0.  0.
          5    1    3    3  501    0  0.62854963454E+02 -0.59571069726E+02  0.23695480744E+02  0.89905642686E+02  0.47000000000E+01 0. -1.
        -11    1    4    4    0    0  0.10793753755E+02  0.84424130718E+01  0.26341006249E+01  0.13954137189E+02  0.00000000000E+00 0.  1.
         12    1    4    4    0    0 -0.69581169363E+02 -0.89025664794E+02 -0.42232090689E+02  0.12062610665E+03  0.00000000000E+00 0. -1.
         -5    1    5    5    0  502 -0.61968795042E+02  0.16886612499E+02  0.63677719250E+02  0.90566170116E+02  0.47000000000E+01 0.  1.
         11    1    6    6    0    0 -0.14935616726E+02  0.55773802379E+01  0.38031725491E+02  0.41238234214E+02  0.00000000000E+00 0. -1.
        -12    1    6    6    0    0  0.72836863923E+02  0.11769032871E+03  0.14432461175E+03  0.19996453629E+03  0.00000000000E+00 0.  1.
<mgrwt>
<rscale>  2 0.22358343E+03</rscale>
<asrwt>0</asrwt>
<pdfrwt beam="1">  1       21 0.60491259E-01 0.22392191E+03</pdfrwt>
<pdfrwt beam="2">  1       21 0.25086406E-01 0.22392191E+03</pdfrwt>
<totfact> 0.37712424E+04</totfact>
</mgrwt>
</event>
<event>
12    1  0.1039378E-001  0.2034958E+03  0.7546771E-02  0.1146990E+00
         21   -1    0    0  501  502  0.00000000000E+00  0.00000000000E+00  0.36857731616E+03  0.36857731616E+03  0.00000000000E+00 0. -1.
         21   -1    0    0  502  503 -0.00000000000E+00 -0.00000000000E+00 -0.14249585342E+03  0.14249585342E+03  0.00000000000E+00 0. -1.
         -6    2    1    2    0  503  0.43573469959E+02  0.95672622002E+02 -0.51809316741E+01  0.20356178065E+03  0.17423736282E+03 0.  0.
        -24    2    3    3    0    0 -0.23246408106E+02  0.97657046498E+02 -0.29595303561E+02  0.13223867359E+03  0.80832484685E+02 0.  0.
          6    2    1    2  501    0 -0.43573469959E+02 -0.95672622002E+02  0.23126239441E+03  0.30751138893E+03  0.17328895339E+03 0.  0.
         24    2    5    5    0    0 -0.61805599656E+02 -0.12920350112E+03  0.18389600702E+03  0.24649995507E+03  0.80193575796E+02 0.  0.
          5    1    5    5  501    0  0.18232129697E+02  0.33530879119E+02  0.47366387389E+02  0.61011433863E+02  0.47000000000E+01 0. -1.
        -13    1    6    6    0    0  0.50695483101E+01 -0.59580619685E+02  0.35726378221E+02  0.69655758290E+02  0.00000000000E+00 0.  1.
         14    1    6    6    0    0 -0.66875147966E+02 -0.69622881436E+02  0.14816962880E+03  0.17684419678E+03  0.00000000000E+00 0. -1.
         -5    1    3    3    0  503  0.66819878065E+02 -0.19844244963E+01  0.24414371887E+02  0.71323107054E+02  0.47000000000E+01 0.  1.
         11    1    4    4    0    0  0.92399023308E+01  0.94461677133E+02 -0.30164693201E+02  0.99590626857E+02  0.00000000000E+00 0. -1.
        -12    1    4    4    0    0 -0.32486310437E+02  0.31953693651E+01  0.56938963998E+00  0.32648046737E+02  0.00000000000E+00 0.  1.
<mgrwt>
<rscale>  2 0.20329267E+03</rscale>
<asrwt>0</asrwt>
<pdfrwt beam="1">  1       21 0.56704202E-01 0.20349584E+03</pdfrwt>
<pdfrwt beam="2">  1       21 0.21922439E-01 0.20349584E+03</pdfrwt>
<totfact> 0.56521666E+04</totfact>
</mgrwt>
</event>
<event>
12    1  0.1039378E-001  0.2586820E+03  0.7546771E-02  0.1107954E+00
         21   -1    0    0  501  502  0.00000000000E+00  0.00000000000E+00  0.72153698323E+03  0.72153698323E+03  0.00000000000E+00 0.  1.
         21   -1    0    0  502  503 -0.00000000000E+00 -0.00000000000E+00 -0.26871688854E+03  0.26871688854E+03  0.00000000000E+00 0. -1.
         -6    2    1    2    0  503  0.11717650127E+03 -0.15249345324E+03 -0.17429460828E+03  0.31192145860E+03  0.17300809267E+03 0.  0.
        -24    2    3    3    0    0  0.10051876268E+03 -0.77183305036E+02 -0.17921306238E+03  0.23449162024E+03  0.82508872306E+02 0.  0.
          6    2    1    2  501    0 -0.11717650127E+03  0.15249345324E+03  0.62711470297E+03  0.67833241317E+03  0.17285087891E+03 0.  0.
         24    2    5    5    0    0 -0.61656515771E+02  0.13890409624E+03  0.57692919910E+03  0.60212339656E+03  0.81298278108E+02 0.  0.
          5    1    5    5  501    0 -0.55519985495E+02  0.13589357007E+02  0.50185503869E+02  0.76209016605E+02  0.47000000000E+01 0. -1.
        -11    1    6    6    0    0 -0.75317297843E+02  0.88828962946E+02  0.33432924883E+03  0.35403294569E+03  0.00000000000E+00 0.  1.
         12    1    6    6    0    0  0.13660782072E+02  0.50075133289E+02  0.24259995028E+03  0.24809045087E+03  0.00000000000E+00 0. -1.
         -5    1    3    3    0  503  0.16657738590E+02 -0.75310148207E+02  0.49184540990E+01  0.77429838361E+02  0.47000000000E+01 0.  1.
         11    1    4    4    0    0  0.62560378640E+02 -0.53809408449E+02 -0.46997232125E+02  0.94963115159E+02  0.00000000000E+00 0. -1.
        -12    1    4    4    0    0  0.37958384036E+02 -0.23373896587E+02 -0.13221583026E+03  0.13952850508E+03  0.00000000000E+00 0.  1.
<mgrwt>
<rscale>  2 0.25865573E+03</rscale>
<asrwt>0</asrwt>
<pdfrwt beam="1">  1       21 0.11100569E+00 0.25868202E+03</pdfrwt>
<pdfrwt beam="2">  1       21 0.41341060E-01 0.25868202E+03</pdfrwt>
<totfact> 0.34262932E+03</totfact>
</mgrwt>
</event>
<event>
12    1  0.1039378E-001  0.1941368E+03  0.7546771E-02  0.1155135E+00
         21   -1    0    0  501  502  0.00000000000E+00  0.00000000000E+00  0.86372818017E+02  0.86372818017E+02  0.00000000000E+00 0.  1.
         21   -1    0    0  502  503 -0.00000000000E+00 -0.00000000000E+00 -0.53449974168E+03  0.53449974168E+03  0.00000000000E+00 0.  1.
         -6    2    1    2    0  503  0.61261047552E+02  0.65181766070E+02 -0.36025373769E+03  0.40923325162E+03  0.17230066783E+03 0.  0.
        -24    2    3    3    0    0  0.12915229515E+02  0.76771545947E+02 -0.12342303071E+03  0.16719500074E+03  0.81610356835E+02 0.  0.
          6    2    1    2  501    0 -0.61261047552E+02 -0.65181766070E+02 -0.87873185968E+02  0.21163930807E+03  0.17049317093E+03 0.  0.
         24    2    5    5    0    0  0.26074757038E+02 -0.45531155160E+02 -0.76238548342E+02  0.12124492736E+03  0.78326477718E+02 0.  0.
          5    1    5    5  501    0 -0.87335804590E+02 -0.19650610910E+02 -0.11634637626E+02  0.90394380717E+02  0.47000000000E+01 0. -1.
        -11    1    6    6    0    0  0.50709597759E+02 -0.13357793332E+02 -0.32860912546E+02  0.61884840801E+02  0.00000000000E+00 0.  1.
         12    1    6    6    0    0 -0.24634840721E+02 -0.32173361829E+02 -0.43377635796E+02  0.59360086556E+02  0.00000000000E+00 0. -1.
         -5    1    3    3    0  503  0.48345818037E+02 -0.11589779877E+02 -0.23683070698E+03  0.24203825088E+03  0.47000000000E+01 0.  1.
         13    1    4    4    0    0  0.33196403645E+02  0.30055279103E+02 -0.10301912332E+03  0.11233103216E+03  0.00000000000E+00 0. -1.
        -14    1    4    4    0    0 -0.20281174130E+02  0.46716266844E+02 -0.20403907399E+02  0.54863968587E+02  0.00000000000E+00 0.  1.
<mgrwt>
<rscale>  2 0.19373496E+03</rscale>
<asrwt>0</asrwt>
<pdfrwt beam="1">  1       21 0.13288126E-01 0.19413680E+03</pdfrwt>
<pdfrwt beam="2">  1       21 0.82230729E-01 0.19413680E+03</pdfrwt>
<totfact> 0.63101109E+04</totfact>
</mgrwt>
</event>
<event>
12    1  0.1039378E-001  0.1892907E+03  0.7546771E-02  0.1159840E+00
         21   -1    0    0  503  502  0.00000000000E+00  0.00000000000E+00  0.95188466883E+03  0.95188466883E+03  0.00000000000E+00 0. -1.
         21   -1    0    0  501  503 -0.00000000000E+00 -0.00000000000E+00 -0.39442244883E+02  0.39442244883E+02  0.00000000000E+00 0. -1.
          6    2    1    2  501    0 -0.57396236411E+02  0.43256353104E+02  0.33665612798E+03  0.38622316850E+03  0.17511581123E+03 0.  0.
         24    2    3    3    0    0 -0.68922737827E+02 -0.10559990743E+02  0.10479337344E+03  0.14787156678E+03  0.77604716034E+02 0.  0.
         -6    2    1    2    0  502  0.57396236411E+02 -0.43256353104E+02  0.57578629597E+03  0.60510374522E+03  0.17162530061E+03 0.  0.
        -24    2    5    5    0    0  0.56687822062E+02  0.14219956598E+02  0.17910943097E+03  0.20425632630E+03  0.78897035652E+02 0.  0.
          5    1    3    3  501    0  0.11526501416E+02  0.53816343847E+02  0.23186275454E+03  0.23835160172E+03  0.47000000000E+01 0. -1.
        -13    1    4    4    0    0 -0.15346751048E+02 -0.17483791317E+02 -0.65044642876E+01  0.24156029935E+02  0.00000000000E+00 0.  1.
         14    1    4    4    0    0 -0.53575986779E+02  0.69238005738E+01  0.11129783773E+03  0.12371553684E+03  0.00000000000E+00 0. -1.
         -5    1    5    5    0  502  0.70841434920E+00 -0.57476309701E+02  0.39667686500E+03  0.40084741892E+03  0.47000000000E+01 0.  1.
         13    1    6    6    0    0  0.22325229696E+02 -0.32694724761E+02  0.63185124176E+02  0.74563535494E+02  0.00000000000E+00 0. -1.
        -14    1    6    6    0    0  0.34362592367E+02  0.46914681359E+02  0.11592430680E+03  0.12969279081E+03  0.00000000000E+00 0.  1.
<mgrwt>
<rscale>  2 0.18847945E+03</rscale>
<asrwt>0</asrwt>
<pdfrwt beam="1">  1       21 0.14644378E+00 0.18929075E+03</pdfrwt>
<pdfrwt beam="2">  1       21 0.60680384E-02 0.18929075E+03</pdfrwt>
<totfact> 0.61675841E+04</totfact>
</mgrwt>
</event>
<event>
12    1  0.1039378E-001  0.1729607E+03  0.7546771E-02  0.1175110E+00
         21   -1    0    0  501  502  0.00000000000E+00  0.00000000000E+00  0.25400367328E+03  0.25400367328E+03  0.00000000000E+00 0. -1.
         21   -1    0    0  502  503 -0.00000000000E+00 -0.00000000000E+00 -0.12327319667E+03  0.12327319667E+03  0.00000000000E+00 0. -1.
         -6    2    1    2    0  503 -0.19560060259E+01 -0.14277727964E+02  0.22385533807E+02  0.17318370514E+03  0.17112511249E+03 0.  0.
        -24    2    3    3    0    0 -0.28626131323E+02 -0.66049236334E+02  0.22988847531E+00  0.11069732836E+03  0.84094522076E+02 0.  0.
          6    2    1    2  501    0  0.19560060259E+01  0.14277727964E+02  0.10834494280E+03  0.20409316481E+03  0.17235925799E+03 0.  0.
         24    2    5    5    0    0 -0.92810234242E+01  0.72570106620E+02  0.88937077466E+02  0.14145908880E+03  0.82148111881E+02 0.  0.
          5    1    5    5  501    0  0.11237029450E+02 -0.58292378656E+02  0.19407865336E+02  0.62634076006E+02  0.47000000000E+01 0. -1.
        -13    1    6    6    0    0  0.35979820593E+02  0.41760808632E+02  0.41187678527E+02  0.68810882060E+02  0.00000000000E+00 0.  1.
         14    1    6    6    0    0 -0.45260844017E+02  0.30809297988E+02  0.47749398939E+02  0.72648206741E+02  0.00000000000E+00 0. -1.
         -5    1    3    3    0  503  0.26670125298E+02  0.51771508369E+02  0.22155645332E+02  0.62486376773E+02  0.47000000000E+01 0.  1.
         13    1    4    4    0    0 -0.12542411385E+02  0.15576228487E+02  0.16499873162E+02  0.25926372512E+02  0.00000000000E+00 0. -1.
        -14    1    4    4    0    0 -0.16083719938E+02 -0.81625464820E+02 -0.16269984687E+02  0.84770955851E+02  0.00000000000E+00 0.  1.
<mgrwt>
<rscale>  2 0.17265239E+03</rscale>
<asrwt>0</asrwt>
<pdfrwt beam="1">  1       21 0.39077488E-01 0.17296067E+03</pdfrwt>
<pdfrwt beam="2">  1       21 0.18965107E-01 0.17296067E+03</pdfrwt>
<totfact> 0.16191266E+05</totfact>
</mgrwt>
</event>
<event>
12    1  0.1039378E-001  0.2400947E+03  0.7546771E-02  0.1119871E+00
         21   -1    0    0  503  502  0.00000000000E+00  0.00000000000E+00  0.16160398156E+04  0.16160398156E+04  0.00000000000E+00 0. -1.
         21   -1    0    0  501  503 -0.00000000000E+00 -0.00000000000E+00 -0.39104463016E+02  0.39104463016E+02  0.00000000000E+00 0. -1.
          6    2    1    2  501    0  0.14666611531E+03  0.78140093853E+02  0.53751499936E+03  0.58835463894E+03  0.17211038024E+03 0.  0.
         24    2    3    3    0    0  0.49475344239E+02 -0.16828682988E+02  0.17092758885E+03  0.19736418625E+03  0.83698071215E+02 0.  0.
         -6    2    1    2    0  502 -0.14666611531E+03 -0.78140093853E+02  0.10394203532E+04  0.10667896396E+04  0.17328774037E+03 0.  0.
        -24    2    5    5    0    0 -0.10597754401E+03  0.92038215237E+01  0.43772016499E+03  0.45740492874E+03  0.79400099728E+02 0.  0.
          5    1    3    3  501    0  0.97190771066E+02  0.94968776841E+02  0.36658741051E+03  0.39099045269E+03  0.47000000000E+01 0. -1.
        -13    1    4    4    0    0  0.35876194564E+01  0.75774541464E+01  0.13240468582E+03  0.13266985208E+03  0.00000000000E+00 0.  1.
         14    1    4    4    0    0  0.45887724782E+02 -0.24406137134E+02  0.38522903033E+02  0.64694334169E+02  0.00000000000E+00 0. -1.
         -5    1    5    5    0  502 -0.40688571297E+02 -0.87343915376E+02  0.60170018821E+03  0.60938471091E+03  0.47000000000E+01 0.  1.
         13    1    6    6    0    0 -0.67866716068E+02  0.25522796027E+02  0.37682241956E+03  0.38373485658E+03  0.00000000000E+00 0. -1.
        -14    1    6    6    0    0 -0.38110827941E+02 -0.16318974503E+02  0.60897745426E+02  0.73670072167E+02  0.00000000000E+00 0.  1.
<mgrwt>
<rscale>  2 0.23988233E+03</rscale>
<asrwt>0</asrwt>
<pdfrwt beam="1">  1       21 0.24862146E+00 0.24009470E+03</pdfrwt>
<pdfrwt beam="2">  1       21 0.60160725E-02 0.24009470E+03</pdfrwt>
<totfact> 0.12775477E+04</totfact>
</mgrwt>
</event>
<event>
12    1  0.1039378E-001  0.2325360E+03  0.7546771E-02  0.1125114E+00
         21   -1    0    0  501  502  0.00000000000E+00  0.00000000000E+00  0.74705077917E+02  0.74705077917E+02  0.00000000000E+00 0.  1.
         21   -1    0    0  502  503 -0.00000000000E+00 -0.00000000000E+00 -0.88524356114E+03  0.88524356114E+03  0.00000000000E+00 0.  1.
         -6    2    1    2    0  503  0.14265603788E+03  0.62221576721E+02 -0.61199859060E+03  0.65418556285E+03  0.17086312061E+03 0.  0.
        -24    2    3    3    0    0  0.12201072969E+03  0.22165513192E+02 -0.57999137091E+03  0.59871242441E+03  0.81784159077E+02 0.  0.
          6    2    1    2  501    0 -0.14265603788E+03 -0.62221576721E+02 -0.19853989261E+03  0.30576307620E+03  0.17277355138E+03 0.  0.
         24    2    5    5    0    0 -0.45960806816E+02  0.27932262281E+02 -0.55343975857E+02  0.11081476774E+03  0.79525782269E+02 0.  0.
          5    1    5    5  501    0 -0.96695231067E+02 -0.90153839002E+02 -0.14319591676E+03  0.19494830847E+03  0.47000000000E+01 0. -1.
        -13    1    6    6    0    0 -0.13794431122E+02 -0.19379851664E+02 -0.47427193435E+02  0.53058492794E+02  0.00000000000E+00 0.  1.
         14    1    6    6    0    0 -0.32166375694E+02  0.47312113945E+02 -0.79167824225E+01  0.57756274942E+02  0.00000000000E+00 0. -1.
         -5    1    3    3    0  503  0.20645308194E+02  0.40056063530E+02 -0.32007219692E+02  0.55473138439E+02  0.47000000000E+01 0.  1.
         13    1    4    4    0    0  0.70509133190E+02  0.10899532517E+02 -0.48370137431E+03  0.48893492121E+03  0.00000000000E+00 0. -1.
        -14    1    4    4    0    0  0.51501596499E+02  0.11265980674E+02 -0.96289996603E+02  0.10977750320E+03  0.00000000000E+00 0.  1.
<mgrwt>
<rscale>  2 0.23218117E+03</rscale>
<asrwt>0</asrwt>
<pdfrwt beam="1">  1       21 0.11493089E-01 0.23253595E+03</pdfrwt>
<pdfrwt beam="2">  1       21 0.13619132E+00 0.23253595E+03</pdfrwt>
<totfact> 0.23772169E+04</totfact>
</mgrwt>
</event>
<event>
12    1  0.1039378E-001  0.2112781E+03  0.7546771E-02  0.1141861E+00
         21   -1    0    0  503  502  0.00000000000E+00  0.00000000000E+00  0.19220065116E+03  0.19220065116E+03  0.00000000000E+00 0.  1.
         21   -1    0    0  501  503 -0.00000000000E+00 -0.00000000000E+00 -0.25563314241E+03  0.25563314241E+03  0.00000000000E+00 0. -1.
          6    2    1    2  501    0  0.71875395343E+02 -0.98214591479E+02 -0.10861470494E+03  0.23177854787E+03  0.16465710639E+03 0.  0.
         24    2    3    3    0    0  0.66484910390E+02  0.20834532095E+01 -0.71874218896E+02  0.12472384965E+03  0.77236981048E+02 0.  0.
         -6    2    1    2    0  502 -0.71875395343E+02  0.98214591479E+02  0.45182213697E+02  0.21605524570E+03  0.17270280347E+03 0.  0.
        -24    2    5    5    0    0 -0.41676068950E+02  0.26942030735E+02 -0.38183422036E+02  0.10219701609E+03  0.80768116452E+02 0.  0.
          5    1    3    3  501    0  0.53904849522E+01 -0.10029804469E+03 -0.36740486047E+02  0.10705469822E+03  0.47000000000E+01 0. -1.
        -13    1    4    4    0    0 -0.16441401116E+02  0.34785045693E+00 -0.25866927811E+01  0.16647271553E+02  0.00000000000E+00 0.  1.
         14    1    4    4    0    0  0.82926311507E+02  0.17356027526E+01 -0.69287526115E+02  0.10807657809E+03  0.00000000000E+00 0. -1.
         -5    1    5    5    0  502 -0.30199326392E+02  0.71272560745E+02  0.83365635733E+02  0.11385822961E+03  0.47000000000E+01 0.  1.
         11    1    6    6    0    0  0.74313788504E+01 -0.17367508474E+02 -0.30134747399E+02  0.35566258490E+02  0.00000000000E+00 0. -1.
        -12    1    6    6    0    0 -0.49107447801E+02  0.44309539208E+02 -0.80486746375E+01  0.66630757596E+02  0.00000000000E+00 0.  1.
<mgrwt>
<rscale>  2 0.20962781E+03</rscale>
<asrwt>0</asrwt>
<pdfrwt beam="1">  1       21 0.29569331E-01 0.21127810E+03</pdfrwt>
<pdfrwt beam="2">  1       21 0.39328176E-01 0.21127810E+03</pdfrwt>
<totfact> 0.67752993E+04</totfact>
</mgrwt>
</event>
<event>
12    1  0.1039378E-001  0.1988593E+03  0.7546771E-02  0.1151569E+00
         21   -1    0    0  503  502  0.00000000000E+00  0.00000000000E+00  0.11704224410E+04  0.11704224410E+04  0.00000000000E+00 0.  1.
         21   -1    0    0  501  503 -0.00000000000E+00 -0.00000000000E+00 -0.61725089086E+02  0.61725089086E+02  0.00000000000E+00 0.  1.
          6    2    1    2  501    0 -0.11021219913E+02 -0.91695837852E+02  0.13183539352E+03  0.23525018526E+03  0.17155898318E+03 0.  0.
         24    2    3    3    0    0 -0.54314354392E+02 -0.11159943541E+03  0.10065574348E+03  0.17811255085E+03  0.78663962523E+02 0.  0.
         -6    2    1    2    0  502  0.11021219913E+02  0.91695837852E+02  0.97686195840E+03  0.99689734484E+03  0.17611199961E+03 0.  0.
        -24    2    5    5    0    0 -0.28166583323E+02  0.22283307098E+02  0.77095039598E+03  0.77604570937E+03  0.81194382720E+02 0.  0.
          5    1    3    3  501    0  0.43293134479E+02  0.19903597553E+02  0.31179650037E+02  0.57137634401E+02  0.47000000000E+01 0. -1.
        -13    1    4    4    0    0 -0.22740544683E+02 -0.33502322766E+02 -0.73373268439E+01  0.41150630231E+02  0.00000000000E+00 0.  1.
         14    1    4    4    0    0 -0.31573809710E+02 -0.78097112639E+02  0.10799307033E+03  0.13696192062E+03  0.00000000000E+00 0. -1.
         -5    1    5    5    0  502  0.39187803237E+02  0.69412530754E+02  0.20591156242E+03  0.22085163546E+03  0.47000000000E+01 0.  1.
         13    1    6    6    0    0 -0.29280153427E+02  0.50840247815E+02  0.44626412854E+03  0.45010413306E+03  0.00000000000E+00 0. -1.
        -14    1    6    6    0    0  0.11135701039E+01 -0.28556940717E+02  0.32468626744E+03  0.32594157631E+03  0.00000000000E+00 0.  1.
<mgrwt>
<rscale>  2 0.19784643E+03</rscale>
<asrwt>0</asrwt>
<pdfrwt beam="1">  1       21 0.18006497E+00 0.19885932E+03</pdfrwt>
<pdfrwt beam="2">  1       21 0.94961684E-02 0.19885932E+03</pdfrwt>
<totfact> 0.16083188E+04</totfact>
</mgrwt>
</event>
<event>
12    1  0.1039378E-001  0.2533900E+03  0.7546771E-02  0.1111392E+00
         21   -1    0    0  503  502  0.00000000000E+00  0.00000000000E+00  0.44065135978E+03  0.44065135978E+03  0.00000000000E+00 0. -1.
         21   -1    0    0  501  503 -0.00000000000E+00 -0.00000000000E+00 -0.24353617773E+03  0.24353617773E+03  0.00000000000E+00 0.  1.
          6    2    1    2  501    0 -0.16314863200E+03 -0.74614143568E+02 -0.11927642833E+03  0.27883566880E+03  0.17702462342E+03 0.  0.
         24    2    3    3    0    0 -0.64132323985E+01 -0.65031927933E+01 -0.59630359533E+02  0.97769850309E+02  0.76939864732E+02 0.  0.
         -6    2    1    2    0  502  0.16314863200E+03  0.74614143568E+02  0.31639161038E+03  0.40535186871E+03  0.17894619248E+03 0.  0.
        -24    2    5    5    0    0  0.15247508857E+03  0.11332227572E+03  0.29508359984E+03  0.35965323265E+03  0.78648115394E+02 0.  0.
          5    1    3    3  501    0 -0.15673539960E+03 -0.68110950775E+02 -0.59646068795E+02  0.18106581849E+03  0.47000000000E+01 0. -1.
        -13    1    4    4    0    0  0.76826321941E+01 -0.32448031919E+02 -0.59541640821E+02  0.68242982089E+02  0.00000000000E+00 0.  1.
         14    1    4    4    0    0 -0.14095864593E+02  0.25944839125E+02 -0.88718712728E-01  0.29526868220E+02  0.00000000000E+00 0. -1.
         -5    1    5    5    0  502  0.10673543424E+02 -0.38708132151E+02  0.21308010541E+02  0.45698636053E+02  0.47000000000E+01 0.  1.
         13    1    6    6    0    0  0.97391233572E+02  0.51170064001E+02  0.22703399407E+03  0.25228527957E+03  0.00000000000E+00 0. -1.
        -14    1    6    6    0    0  0.55083855001E+02  0.62152211718E+02  0.68049605769E+02  0.10736795308E+03  0.00000000000E+00 0.  1.
<mgrwt>
<rscale>  2 0.25305097E+03</rscale>
<asrwt>0</asrwt>
<pdfrwt beam="1">  1       21 0.67792517E-01 0.25338999E+03</pdfrwt>
<pdfrwt beam="2">  1       21 0.37467104E-01 0.25338999E+03</pdfrwt>
<totfact> 0.13179001E+04</totfact>
</mgrwt>
</event>
<event>
12    1  0.1039378E-001  0.2552317E+03  0.7546771E-02  0.1111171E+00
         21   -1    0    0  501  502  0.00000000000E+00  0.00000000000E+00  0.19889068656E+03  0.19889068656E+03  0.00000000000E+00 0. -1.
         21   -1    0    0  502  503 -0.00000000000E+00 -0.00000000000E+00 -0.47719244428E+03  0.47719244428E+03  0.00000000000E+00 0. -1.
         -6    2    1    2    0  503 -0.16552561440E+03  0.66864386130E+02 -0.33285085807E+03  0.41508725047E+03  0.17215736008E+03 0.  0.
        -24    2    3    3    0    0 -0.17088660929E+03  0.11473560024E+02 -0.28183883899E+03  0.33944863617E+03  0.80363982105E+02 0.  0.
          6    2    1    2  501    0  0.16552561440E+03 -0.66864386130E+02  0.54549100349E+02  0.26099588037E+03  0.18241071806E+03 0.  0.
         24    2    5    5    0    0  0.14300769400E+03 -0.11573604447E+03  0.42728186188E+02  0.20570284519E+03  0.81498037340E+02 0.  0.
          5    1    5    5  501    0  0.22517920401E+02  0.48871658338E+02  0.11820914162E+02  0.55293035181E+02  0.47000000000E+01 0. -1.
        -13    1    6    6    0    0  0.31554701290E+02  0.92831425260E+01  0.14104775423E+02  0.35788554014E+02  0.00000000000E+00 0.  1.
         14    1    6    6    0    0  0.11145299271E+03 -0.12501918699E+03  0.28623410764E+02  0.16991429117E+03  0.00000000000E+00 0. -1.
         -5    1    3    3    0  503  0.53609948873E+01  0.55390826106E+02 -0.51012019077E+02  0.75638614300E+02  0.47000000000E+01 0.  1.
         13    1    4    4    0    0 -0.76552812190E+02 -0.27821158562E+02 -0.85375779132E+02  0.11799734565E+03  0.00000000000E+00 0. -1.
        -14    1    4    4    0    0 -0.94333797100E+02  0.39294718586E+02 -0.19646305986E+03  0.22145129052E+03  0.00000000000E+00 0.  1.
<mgrwt>
<rscale>  2 0.25340620E+03</rscale>
<asrwt>0</asrwt>
<pdfrwt beam="1">  1       21 0.30598568E-01 0.25523175E+03</pdfrwt>
<pdfrwt beam="2">  1       21 0.73414221E-01 0.25523175E+03</pdfrwt>
<totfact> 0.16503650E+04</totfact>
</mgrwt>
</event>
<event>
12    1  0.1039378E-001  0.1963933E+03  0.7546771E-02  0.1153084E+00
         21   -1    0    0  501  502  0.00000000000E+00  0.00000000000E+00  0.90232445578E+02  0.90232445578E+02  0.00000000000E+00 0. -1.
         21   -1    0    0  502  503 -0.00000000000E+00 -0.00000000000E+00 -0.42656324803E+03  0.42656324803E+03  0.00000000000E+00 0. -1.
         -6    2    1    2    0  503 -0.85480429409E+02  0.35937720152E+02 -0.18432048015E+03  0.26844617142E+03  0.17172910063E+03 0.  0.
        -24    2    3    3    0    0 -0.10685738921E+03  0.43247369646E+02 -0.79598445081E+02  0.16121184848E+03  0.79777885538E+02 0.  0.
          6    2    1    2  501    0  0.85480429409E+02 -0.35937720152E+02 -0.15201032230E+03  0.24834952219E+03  0.17312401204E+03 0.  0.
         24    2    5    5    0    0  0.79169992006E+02  0.91032687229E+01 -0.19361639152E+02  0.10804173395E+03  0.70337657548E+02 0.  0.
          5    1    5    5  501    0  0.63104374028E+01 -0.45040988875E+02 -0.13264868315E+03  0.14030778824E+03  0.47000000000E+01 0. -1.
        -11    1    6    6    0    0 -0.10968611278E+02  0.10345149056E+02  0.24954862045E+01  0.15282669720E+02  0.00000000000E+00 0.  1.
         12    1    6    6    0    0  0.90138603283E+02 -0.12418803334E+01 -0.21857125356E+02  0.92759064234E+02  0.00000000000E+00 0. -1.
         -5    1    3    3    0  503  0.21376959803E+02 -0.73096494941E+01 -0.10472203507E+03  0.10723432294E+03  0.47000000000E+01 0.  1.
         11    1    4    4    0    0 -0.50261793552E+02  0.29162508152E+02 -0.84645353987E+02  0.10267198120E+03  0.00000000000E+00 0. -1.
        -12    1    4    4    0    0 -0.56595595659E+02  0.14084861494E+02  0.50469089057E+01  0.58539867277E+02  0.00000000000E+00 0.  1.
<mgrwt>
<rscale>  2 0.19608549E+03</rscale>
<asrwt>0</asrwt>
<pdfrwt beam="1">  1       21 0.13881915E-01 0.19639335E+03</pdfrwt>
<pdfrwt beam="2">  1       21 0.65625114E-01 0.19639335E+03</pdfrwt>
<totfact> 0.96229503E+04</totfact>
</mgrwt>
</event>
<event>
12    1  0.1039378E-001  0.2377503E+03  0.7546771E-02  0.1121607E+00
         21   -1    0    0  503  502  0.00000000000E+00  0.00000000000E+00  0.12359738332E+04  0.12359738332E+04  0.00000000000E+00 0. -1.
         21   -1    0    0  501  503 -0.00000000000E+00 -0.00000000000E+00 -0.47179490232E+02  0.47179490232E+02  0.00000000000E+00 0.  1.
          6    2    1    2  501    0  0.14353838211E+03 -0.74076547938E+02  0.47148061301E+03  0.52803329206E+03  0.17445511451E+03 0.  0.
         24    2    3    3    0    0  0.95677507355E+02  0.11419445406E+02  0.16961690522E+03  0.21063131302E+03  0.79442220151E+02 0.  0.
         -6    2    1    2    0  502 -0.14353838211E+03  0.74076547938E+02  0.71731372998E+03  0.75512003140E+03  0.17197869785E+03 0.  0.
        -24    2    5    5    0    0 -0.86640032594E+02 -0.16141676339E+02  0.26989880722E+03  0.29514290885E+03  0.80603483417E+02 0.  0.
          5    1    3    3  501    0  0.47860874757E+02 -0.85495993344E+02  0.30186370780E+03  0.31740197904E+03  0.47000000000E+01 0. -1.
        -13    1    4    4    0    0  0.40712270162E+02 -0.13023489917E+02  0.13415852611E+03  0.14080344583E+03  0.00000000000E+00 0.  1.
         14    1    4    4    0    0  0.54965237192E+02  0.24442935324E+02  0.35458379110E+02  0.69827867187E+02  0.00000000000E+00 0. -1.
         -5    1    5    5    0  502 -0.56898349518E+02  0.90218224276E+02  0.44741492275E+03  0.45997712255E+03  0.47000000000E+01 0.  1.
         11    1    6    6    0    0 -0.25184081997E+02  0.24821314792E+02  0.15170011717E+03  0.15576668836E+03  0.00000000000E+00 0. -1.
        -12    1    6    6    0    0 -0.61455950597E+02 -0.40962991131E+02  0.11819869006E+03  0.13937622049E+03  0.00000000000E+00 0.  1.
<mgrwt>
<rscale>  2 0.23729618E+03</rscale>
<asrwt>0</asrwt>
<pdfrwt beam="1">  1       21 0.19014980E+00 0.23775027E+03</pdfrwt>
<pdfrwt beam="2">  1       21 0.72583841E-02 0.23775027E+03</pdfrwt>
<totfact> 0.21439797E+04</totfact>
</mgrwt>
</event>
<event>
12    1  0.1039378E-001  0.1877284E+03  0.7546771E-02  0.1161363E+00
         21   -1    0    0  501  502  0.00000000000E+00  0.00000000000E+00  0.59125364016E+02  0.59125364016E+02  0.00000000000E+00 0.  1.
         21   -1    0    0  502  503 -0.00000000000E+00 -0.00000000000E+00 -0.64834599705E+03  0.64834599705E+03  0.00000000000E+00 0.  1.
         -6    2    1    2    0  503 -0.43869324531E+02 -0.45907081324E+02 -0.40807819125E+03  0.44918789558E+03  0.17666345862E+03 0.  0.
        -24    2    3    3    0    0  0.35426002921E+02 -0.55342020487E+02 -0.18883624833E+03  0.21580861937E+03  0.81218782268E+02 0.  0.
          6    2    1    2  501    0  0.43869324531E+02  0.45907081324E+02 -0.18114244178E+03  0.25828346548E+03  0.17281720567E+03 0.  0.
         24    2    5    5    0    0  0.72931110350E+02  0.45312688254E+02 -0.19351143108E+03  0.22634567291E+03  0.80084349972E+02 0.  0.
          5    1    5    5  501    0 -0.29061785819E+02  0.59439307000E+00  0.12368989303E+02  0.31937792574E+02  0.47000000000E+01 0. -1.
        -13    1    6    6    0    0  0.15981343221E+02 -0.13720494004E+02 -0.98943692900E+02  0.10116081085E+03  0.00000000000E+00 0.  1.
         14    1    6    6    0    0  0.56949767130E+02  0.59033182258E+02 -0.94567738182E+02  0.12518486206E+03  0.00000000000E+00 0. -1.
         -5    1    3    3    0  503 -0.79295327453E+02  0.94349391631E+01 -0.21924194292E+03  0.23337927622E+03  0.47000000000E+01 0.  1.
         11    1    4    4    0    0  0.22423058852E+02 -0.63739820777E+02 -0.75094834259E+02  0.10101877278E+03  0.00000000000E+00 0. -1.
        -12    1    4    4    0    0  0.13002944069E+02  0.83978002898E+01 -0.11374141407E+03  0.11478984659E+03  0.00000000000E+00 0.  1.
<mgrwt>
<rscale>  2 0.18681807E+03</rscale>
<asrwt>0</asrwt>
<pdfrwt beam="1">  1       21 0.90962095E-02 0.18772841E+03</pdfrwt>
<pdfrwt beam="2">  1       21 0.99745542E-01 0.18772841E+03</pdfrwt>
<totfact> 0.79359386E+04</totfact>
</mgrwt>
</event>
<event>
12    1  0.1039378E-001  0.3154691E+03  0.7546771E-02  0.1078265E+00
         21   -1    0    0  503  502  0.00000000000E+00  0.00000000000E+00  0.64708693255E+03  0.64708693255E+03  0.00000000000E+00 0. -1.
         21   -1    0    0  501  503 -0.00000000000E+00 -0.00000000000E+00 -0.15179597567E+03  0.15179597567E+03  0.00000000000E+00 0. -1.
          6    2    1    2  501    0 -0.19859302841E+03  0.17404228734E+03  0.23897892126E+03  0.39576720596E+03  0.17260025431E+03 0.  0.
         24    2    3    3    0    0 -0.79904531442E+02  0.43297287937E+02  0.35720391199E+02  0.12647677868E+03  0.80380594112E+02 0.  0.
         -6    2    1    2    0  502  0.19859302841E+03 -0.17404228734E+03  0.25631203562E+03  0.40311570226E+03  0.16454938800E+03 0.  0.
        -24    2    5    5    0    0  0.19425226735E+03 -0.16972295316E+03  0.17643838369E+03  0.32286989784E+03  0.81084175372E+02 0.  0.
          5    1    3    3  501    0 -0.11868849697E+03  0.13074499940E+03  0.20325853006E+03  0.26929042728E+03  0.47000000000E+01 0. -1.
        -13    1    4    4    0    0 -0.36666560700E+02 -0.10016273285E+02  0.43067300702E+02  0.57441751313E+02  0.00000000000E+00 0.  1.
         14    1    4    4    0    0 -0.43237970742E+02  0.53313561223E+02 -0.73469095034E+01  0.69035027366E+02  0.00000000000E+00 0. -1.
         -5    1    5    5    0  502  0.43407610687E+01 -0.43193341824E+01  0.79873651932E+02  0.80245804422E+02  0.47000000000E+01 0.  1.
         13    1    6    6    0    0  0.58344166670E+02 -0.78513125312E+02  0.27595411806E+02  0.10163591581E+03  0.00000000000E+00 0. -1.
        -14    1    6    6    0    0  0.13590810067E+03 -0.91209827848E+02  0.14884297188E+03  0.22123398203E+03  0.00000000000E+00 0.  1.
<mgrwt>
<rscale>  2 0.31438053E+03</rscale>
<asrwt>0</asrwt>
<pdfrwt beam="1">  1       21 0.99551834E-01 0.31546911E+03</pdfrwt>
<pdfrwt beam="2">  1       21 0.23353227E-01 0.31546911E+03</pdfrwt>
<totfact> 0.13402295E+04</totfact>
</mgrwt>
</event>
<event>
12    1  0.1039378E-001  0.1818190E+03  0.7546771E-02  0.1171937E+00
         21   -1    0    0  503  502  0.00000000000E+00  0.00000000000E+00  0.12170850235E+04  0.12170850235E+04  0.00000000000E+00 0.  1.
         21   -1    0    0  501  503 -0.00000000000E+00 -0.00000000000E+00 -0.31998501811E+02  0.31998501811E+02  0.00000000000E+00 0.  1.
          6    2    1    2  501    0  0.50026744655E+01  0.17715747224E+02  0.24808306291E+03  0.29460270696E+03  0.15781848558E+03 0.  0.
         24    2    3    3    0    0  0.53053368621E+02 -0.18517600286E+02  0.16824922267E+03  0.19451646051E+03  0.79820367302E+02 0.  0.
         -6    2    1    2    0  502 -0.50026744655E+01 -0.17715747224E+02  0.93700345878E+03  0.95448081836E+03  0.18088470471E+03 0.  0.
        -24    2    5    5    0    0 -0.52639190866E+02  0.15776382232E+02  0.35113311909E+03  0.36570488020E+03  0.86173159549E+02 0.  0.
          5    1    3    3  501    0 -0.48050694156E+02  0.36233347510E+02  0.79833840242E+02  0.10008624645E+03  0.47000000000E+01 0. -1.
        -11    1    4    4    0    0 -0.34927261793E+01 -0.23304867798E+02  0.86066971539E+01  0.25087670979E+02  0.00000000000E+00 0.  1.
         12    1    4    4    0    0  0.56546094800E+02  0.47872675120E+01  0.15964252552E+03  0.16942878953E+03  0.00000000000E+00 0. -1.
         -5    1    5    5    0  502  0.47636516401E+02 -0.33492129455E+02  0.58587033969E+03  0.58877593816E+03  0.47000000000E+01 0.  1.
         11    1    6    6    0    0 -0.50060819016E+02  0.40079572804E+02  0.31873642875E+03  0.32512362075E+03  0.00000000000E+00 0. -1.
        -12    1    6    6    0    0 -0.25783718502E+01 -0.24303190573E+02  0.32396690341E+02  0.40581259449E+02  0.00000000000E+00 0.  1.
<mgrwt>
<rscale>  2 0.17579340E+03</rscale>
<asrwt>0</asrwt>
<pdfrwt beam="1">  1       21 0.18724381E+00 0.18181901E+03</pdfrwt>
<pdfrwt beam="2">  1       21 0.49228474E-02 0.18181901E+03</pdfrwt>
<totfact> 0.45235187E+04</totfact>
</mgrwt>
</event>
<event>
12    1  0.1039378E-001  0.2927134E+03  0.7546771E-02  0.1089016E+00
         21   -1    0    0  503  502  0.00000000000E+00  0.00000000000E+00  0.59042311188E+02  0.59042311188E+02  0.00000000000E+00 0.  1.
         21   -1    0    0  501  503 -0.00000000000E+00 -0.00000000000E+00 -0.15125513088E+04  0.15125513088E+04  0.00000000000E+00 0.  1.
          6    2    1    2  501    0 -0.22296387743E+03  0.76749569832E+02 -0.88938827450E+03  0.93631865624E+03  0.17342934034E+03 0.  0.
         24    2    3    3    0    0 -0.28884612461E+02  0.32026109199E+01 -0.33148947142E+03  0.34104638178E+03  0.74718052109E+02 0.  0.
         -6    2    1    2    0  502  0.22296387743E+03 -0.76749569832E+02 -0.56412072311E+03  0.63527496374E+03  0.17244912934E+03 0.  0.
        -24    2    5    5    0    0  0.19432829554E+03 -0.73996143362E+02 -0.56327829180E+03  0.60611372924E+03  0.82779847029E+02 0.  0.
          5    1    3    3  501    0 -0.19407926497E+03  0.73546958912E+02 -0.55789880308E+03  0.59527227446E+03  0.47000000000E+01 0. -1.
        -11    1    4    4    0    0 -0.23317645576E+01  0.29686570036E+02 -0.24464096718E+03  0.24644661164E+03  0.00000000000E+00 0.  1.
         12    1    4    4    0    0 -0.26552847903E+02 -0.26483959116E+02 -0.86848504246E+02  0.94599770147E+02  0.00000000000E+00 0. -1.
         -5    1    5    5    0  502  0.28635581889E+02 -0.27534264707E+01 -0.84243130671E+00  0.29161234507E+02  0.47000000000E+01 0.  1.
         11    1    6    6    0    0  0.67889588132E+02  0.92070836324E+01 -0.12662078659E+03  0.14396732325E+03  0.00000000000E+00 0. -1.
        -12    1    6    6    0    0  0.12643870741E+03 -0.83203226994E+02 -0.43665750521E+03  0.46214640599E+03  0.00000000000E+00 0.  1.
<mgrwt>
<rscale>  2 0.29256835E+03</rscale>
<asrwt>0</asrwt>
<pdfrwt beam="1">  1       21 0.90834333E-02 0.29271338E+03</pdfrwt>
<pdfrwt beam="2">  1       21 0.23270018E+00 0.29271338E+03</pdfrwt>
<totfact> 0.74930980E+03</totfact>
</mgrwt>
</event>
<event>
12    1  0.1039378E-001  0.1823552E+03  0.7546771E-02  0.1165884E+00
         21   -1    0    0  501  502  0.00000000000E+00  0.00000000000E+00  0.83109201310E+02  0.83109201310E+02  0.00000000000E+00 0.  1.
         21   -1    0    0  502  503 -0.00000000000E+00 -0.00000000000E+00 -0.43994316607E+03  0.43994316607E+03  0.00000000000E+00 0.  1.
         -6    2    1    2    0  503 -0.50844569886E+02 -0.21317318625E+02 -0.25949740110E+03  0.31634527421E+03  0.17232478921E+03 0.  0.
        -24    2    3    3    0    0 -0.42250807422E+02 -0.49353661965E+02 -0.65767207695E+02  0.12035199081E+03  0.77060764381E+02 0.  0.
          6    2    1    2  501    0  0.50844569886E+02  0.21317318625E+02 -0.97336563656E+02  0.20670709317E+03  0.17382122247E+03 0.  0.
         24    2    5    5    0    0  0.95617551377E+02  0.56846047062E+01 -0.99415506725E+02  0.15900579737E+03  0.78894675098E+02 0.  0.
          5    1    5    5  501    0 -0.44772981491E+02  0.15632713919E+02  0.20789430688E+01  0.47701295793E+02  0.47000000000E+01 0. -1.
        -11    1    6    6    0    0  0.36535341402E+02 -0.17354247327E+02 -0.84764211692E+02  0.93920033302E+02  0.00000000000E+00 0.  1.
         12    1    6    6    0    0  0.59082209975E+02  0.23038852033E+02 -0.14651295033E+02  0.65085764071E+02  0.00000000000E+00 0. -1.
         -5    1    3    3    0  503 -0.85937624643E+01  0.28036343340E+02 -0.19373019341E+03  0.19599328340E+03  0.47000000000E+01 0.  1.
         13    1    4    4    0    0  0.17735955984E+02 -0.74879673771E+00 -0.30902690403E+02  0.35638477876E+02  0.00000000000E+00 0. -1.
        -14    1    4    4    0    0 -0.59986763406E+02 -0.48604865228E+02 -0.34864517292E+02  0.84713512935E+02  0.00000000000E+00 0.  1.
<mgrwt>
<rscale>  2 0.18199768E+03</rscale>
<asrwt>0</asrwt>
<pdfrwt beam="1">  1       21 0.12786031E-01 0.18235519E+03</pdfrwt>
<pdfrwt beam="2">  1       21 0.67683563E-01 0.18235519E+03</pdfrwt>
<totfact> 0.10489914E+05</totfact>
</mgrwt>
</event>
<event>
12    1  0.1039378E-001  0.2025628E+03  0.7546771E-02  0.1147631E+00
         21   -1    0    0  503  502  0.00000000000E+00  0.00000000000E+00  0.10086724153E+03  0.10086724153E+03  0.00000000000E+00 0.  1.
         21   -1    0    0  501  503 -0.00000000000E+00 -0.00000000000E+00 -0.46646953188E+03  0.46646953188E+03  0.00000000000E+00 0.  1.
          6    2    1    2  501    0  0.87716549743E+02 -0.57663936324E+02 -0.28449858727E+03  0.34914080138E+03  0.17303332157E+03 0.  0.
         24    2    3    3    0    0  0.37635694815E+02 -0.41344665770E+02 -0.27918743853E+03  0.29599281061E+03  0.80872066790E+02 0.  0.
         -6    2    1    2    0  502 -0.87716549743E+02  0.57663936324E+02 -0.81103703071E+02  0.21819597204E+03  0.17324072532E+03 0.  0.
        -24    2    5    5    0    0 -0.20813175119E+02  0.95962016409E+02 -0.68025540060E+02  0.13986377673E+03  0.72749605414E+02 0.  0.
          5    1    3    3  501    0  0.50080854929E+02 -0.16319270554E+02 -0.53111487429E+01  0.53147990769E+02  0.47000000000E+01 0. -1.
        -11    1    4    4    0    0  0.44398767300E+02 -0.14110596851E+01 -0.69887613010E+02  0.82810144785E+02  0.00000000000E+00 0.  1.
         12    1    4    4    0    0 -0.67630724852E+01 -0.39933606085E+02 -0.20929982552E+03  0.21318266582E+03  0.00000000000E+00 0. -1.
         -5    1    5    5    0  502 -0.66903374624E+02 -0.38298080085E+02 -0.13078163011E+02  0.78332195309E+02  0.47000000000E+01 0.  1.
         13    1    6    6    0    0 -0.65246264892E+01  0.56160913523E+02  0.36357384631E+01  0.56655428272E+02  0.00000000000E+00 0. -1.
        -14    1    6    6    0    0 -0.14288548630E+02  0.39801102886E+02 -0.71661278523E+02  0.83208348454E+02  0.00000000000E+00 0.  1.
<mgrwt>
<rscale>  2 0.20251841E+03</rscale>
<asrwt>0</asrwt>
<pdfrwt beam="1">  1       21 0.15518037E-01 0.20256276E+03</pdfrwt>
<pdfrwt beam="2">  1       21 0.71764545E-01 0.20256276E+03</pdfrwt>
<totfact> 0.64367920E+04</totfact>
</mgrwt>
</event>
<event>
12    1  0.1039378E-001  0.1775666E+03  0.7546771E-02  0.1170491E+00
         21   -1    0    0  503  502  0.00000000000E+00  0.00000000000E+00  0.77946192118E+03  0.77946192118E+03  0.00000000000E+00 0.  1.
         21   -1    0    0  501  503 -0.00000000000E+00 -0.00000000000E+00 -0.51009297723E+02  0.51009297723E+02  0.00000000000E+00 0.  1.
          6    2    1    2  501    0 -0.13404253029E+01  0.34337264788E+02  0.17174422063E+03  0.24613044213E+03  0.17292562774E+03 0.  0.
         24    2    3    3    0    0 -0.55339192766E+02  0.58823630742E+02  0.10211220957E+03  0.15455448475E+03  0.83291894106E+02 0.  0.
         -6    2    1    2    0  502  0.13404253029E+01 -0.34337264788E+02  0.55670840283E+03  0.58434077678E+03  0.17420979632E+03 0.  0.
        -24    2    5    5    0    0 -0.65322565973E+02 -0.42917861334E+02  0.35289004703E+03  0.36967454002E+03  0.77581568688E+02 0.  0.
          5    1    3    3  501    0  0.53998767463E+02 -0.24486365954E+02  0.69632011063E+02  0.91575957378E+02  0.47000000000E+01 0. -1.
        -13    1    4    4    0    0 -0.25771574188E+01  0.62958372924E+02  0.52578042556E+02  0.82066125902E+02  0.00000000000E+00 0.  1.
         14    1    4    4    0    0 -0.52762035347E+02 -0.41347421816E+01  0.49534167015E+02  0.72488358850E+02  0.00000000000E+00 0. -1.
         -5    1    5    5    0  502  0.66662991276E+02  0.85805965464E+01  0.20381835580E+03  0.21466623676E+03  0.47000000000E+01 0.  1.
         13    1    6    6    0    0 -0.45867645540E+02  0.38137823092E+01  0.81448269801E+02  0.93553228146E+02  0.00000000000E+00 0. -1.
        -14    1    6    6    0    0 -0.19454920433E+02 -0.46731643643E+02  0.27144177723E+03  0.27612131187E+03  0.00000000000E+00 0.  1.
<mgrwt>
<rscale>  2 0.17725083E+03</rscale>
<asrwt>0</asrwt>
<pdfrwt beam="1">  1       21 0.11991721E+00 0.17756660E+03</pdfrwt>
<pdfrwt beam="2">  1       21 0.78475848E-02 0.17756660E+03</pdfrwt>
<totfact> 0.66125894E+04</totfact>
</mgrwt>
</event>
<event>
12    1  0.1039378E-001  0.2474086E+03  0.7546771E-02  0.1115095E+00
         21   -1    0    0  503  502  0.00000000000E+00  0.00000000000E+00  0.34675769504E+03  0.34675769504E+03  0.00000000000E+00 0. -1.
         21   -1    0    0  501  503 -0.00000000000E+00 -0.00000000000E+00 -0.21464832766E+03  0.21464832766E+03  0.00000000000E+00 0. -1.
          6    2    1    2  501    0  0.14865763995E+03  0.93395879917E+02  0.18542271134E+03  0.30918049850E+03  0.17432473855E+03 0.  0.
         24    2    3    3    0    0  0.17693525616E+03  0.88875565021E+02  0.14413315476E+03  0.25871294153E+03  0.83385063902E+02 0.  0.
         -6    2    1    2    0  502 -0.14865763995E+03 -0.93395879917E+02 -0.53313343959E+02  0.25222552419E+03  0.17307084708E+03 0.  0.
        -24    2    5    5    0    0 -0.64555618925E+02 -0.11802829879E+03 -0.19439746093E+02  0.15815418619E+03  0.80850081215E+02 0.  0.
          5    1    3    3  501    0 -0.28277616205E+02  0.45203148960E+01  0.41289556572E+02  0.50467556974E+02  0.47000000000E+01 0. -1.
        -13    1    4    4    0    0  0.25774965484E+02  0.14204954002E+01 -0.80833301814E+01  0.27050080956E+02  0.00000000000E+00 0.  1.
         14    1    4    4    0    0  0.15116029067E+03  0.87455069621E+02  0.15221648495E+03  0.23166286057E+03  0.00000000000E+00 0. -1.
         -5    1    5    5    0  502 -0.84102021028E+02  0.24632418871E+02 -0.33873597866E+02  0.94071337999E+02  0.47000000000E+01 0.  1.
         11    1    6    6    0    0 -0.66103549577E+02 -0.60052518905E+02 -0.38291041344E+02  0.97170922300E+02  0.00000000000E+00 0. -1.
        -12    1    6    6    0    0  0.15479306521E+01 -0.57975779883E+02  0.18851295251E+02  0.60983263892E+02  0.00000000000E+00 0.  1.
<mgrwt>
<rscale>  2 0.24718780E+03</rscale>
<asrwt>0</asrwt>
<pdfrwt beam="1">  1       21 0.53347338E-01 0.24740857E+03</pdfrwt>
<pdfrwt beam="2">  1       21 0.33022820E-01 0.24740857E+03</pdfrwt>
<totfact> 0.28562105E+04</totfact>
</mgrwt>
</event>
<event>
12    1  0.1039378E-001  0.3078957E+03  0.7546771E-02  0.1081638E+00
         21   -1    0    0  501  502  0.00000000000E+00  0.00000000000E+00  0.62105570592E+02  0.62105570592E+02  0.00000000000E+00 0.  1.
         21   -1    0    0  502  503 -0.00000000000E+00 -0.00000000000E+00 -0.17105896830E+04  0.17105896830E+04  0.00000000000E+00 0.  1.
         -6    2    1    2    0  503 -0.24971394783E+03  0.30474479889E+02 -0.11211789681E+04  0.11620804036E+04  0.17350168969E+03 0.  0.
        -24    2    3    3    0    0 -0.18771170412E+03 -0.33593352200E+02 -0.90045973826E+03  0.92398791371E+03  0.81004489279E+02 0.  0.
          6    2    1    2  501    0  0.24971394783E+03 -0.30474479889E+02 -0.52730514430E+03  0.61061484995E+03  0.17752191444E+03 0.  0.
         24    2    5    5    0    0  0.25851402282E+03 -0.21295182119E+02 -0.40677632002E+03  0.48932598686E+03  0.81792188578E+02 0.  0.
          5    1    5    5  501    0 -0.88000749868E+01 -0.91792977697E+01 -0.12052882428E+03  0.12128886309E+03  0.47000000000E+01 0. -1.
        -13    1    6    6    0    0  0.10684642109E+03 -0.40486141594E+01 -0.98731002879E+02  0.14553473779E+03  0.00000000000E+00 0.  1.
         14    1    6    6    0    0  0.15166760174E+03 -0.17246567959E+02 -0.30804531714E+03  0.34379124907E+03  0.00000000000E+00 0. -1.
         -5    1    3    3    0  503 -0.62002243714E+02  0.64067832088E+02 -0.22071922981E+03  0.23809248989E+03  0.47000000000E+01 0.  1.
         11    1    4    4    0    0  0.78963223149E+01 -0.18394164663E+01 -0.21813817630E+02  0.23271828433E+02  0.00000000000E+00 0. -1.
        -12    1    4    4    0    0 -0.19560802643E+03 -0.31753935734E+02 -0.87864592063E+03  0.90071608528E+03  0.00000000000E+00 0.  1.
<mgrwt>
<rscale>  2 0.30731904E+03</rscale>
<asrwt>0</asrwt>
<pdfrwt beam="1">  1       21 0.95547048E-02 0.30789573E+03</pdfrwt>
<pdfrwt beam="2">  1       21 0.26316760E+00 0.30789573E+03</pdfrwt>
<totfact> 0.44398947E+03</totfact>
</mgrwt>
</event>
<event>
12    1  0.1039378E-001  0.2056144E+03  0.7546771E-02  0.1145097E+00
         21   -1    0    0  501  502  0.00000000000E+00  0.00000000000E+00  0.31098900663E+03  0.31098900663E+03  0.00000000000E+00 0.  1.
         21   -1    0    0  502  503 -0.00000000000E+00 -0.00000000000E+00 -0.13595904285E+03  0.13595904285E+03  0.00000000000E+00 0. -1.
         -6    2    1    2    0  503 -0.68739634158E+02 -0.86501341113E+02  0.91662990836E+02  0.22512078864E+03  0.17340601567E+03 0.  0.
        -24    2    3    3    0    0 -0.10356200336E+03 -0.40919450585E+02  0.20886384908E+02  0.13389730434E+03  0.71363555542E+02 0.  0.
          6    2    1    2  501    0  0.68739634158E+02  0.86501341113E+02  0.83366972948E+02  0.22182726084E+03  0.17334838377E+03 0.  0.
         24    2    5    5    0    0 -0.20064076409E+02  0.80606919984E+02  0.33935428213E+02  0.11991351876E+03  0.79546187723E+02 0.  0.
          5    1    5    5  501    0  0.88803710566E+02  0.58944211290E+01  0.49431544735E+02  0.10191374208E+03  0.47000000000E+01 0. -1.
        -11    1    6    6    0    0 -0.23865155067E+02 -0.58123616806E+01 -0.49762100762E+01  0.25061760541E+02  0.00000000000E+00 0.  1.
         12    1    6    6    0    0  0.38010786582E+01  0.86419281664E+02  0.38911638289E+02  0.94851758216E+02  0.00000000000E+00 0. -1.
         -5    1    3    3    0  503  0.34822369201E+02 -0.45581890528E+02  0.70776605927E+02  0.91223484298E+02  0.47000000000E+01 0.  1.
         13    1    4    4    0    0 -0.10641838377E+03 -0.46791359650E+02  0.32381784290E+02  0.12067677364E+03  0.00000000000E+00 0. -1.
        -14    1    4    4    0    0  0.28563804112E+01  0.58719090658E+01 -0.11495399381E+02  0.13220530703E+02  0.00000000000E+00 0.  1.
<mgrwt>
<rscale>  2 0.20560221E+03</rscale>
<asrwt>0</asrwt>
<pdfrwt beam="1">  1       21 0.47844462E-01 0.20561436E+03</pdfrwt>
<pdfrwt beam="2">  1       21 0.20916776E-01 0.20561436E+03</pdfrwt>
<totfact> 0.88155590E+04</totfact>
</mgrwt>
</event>
<event>
12    1  0.1039378E-001  0.1780170E+03  0.7546771E-02  0.1170213E+00
         21   -1    0    0  503  502  0.00000000000E+00  0.00000000000E+00  0.74868388062E+03  0.74868388062E+03  0.00000000000E+00 0. -1.
         21   -1    0    0  501  503 -0.00000000000E+00 -0.00000000000E+00 -0.51110600829E+02  0.51110600829E+02  0.00000000000E+00 0. -1.
          6    2    1    2  501    0 -0.80754489708E+01  0.32276042848E+02  0.51726545854E+03  0.54641538108E+03  0.17291401988E+03 0.  0.
         24    2    3    3    0    0  0.46582685085E+02 -0.18999254035E+02  0.21309688408E+03  0.23311475967E+03  0.80008068145E+02 0.  0.
         -6    2    1    2    0  502  0.80754489708E+01 -0.32276042848E+02  0.18030782125E+03  0.25337910037E+03  0.17488025126E+03 0.  0.
        -24    2    5    5    0    0  0.63980148237E+02 -0.14655487947E+02  0.16172848682E+03  0.19170981285E+03  0.79298841085E+02 0.  0.
          5    1    3    3  501    0 -0.54658134056E+02  0.51275296883E+02  0.30416857446E+03  0.31330062142E+03  0.47000000000E+01 0. -1.
        -13    1    4    4    0    0  0.40566869929E+02  0.26225311485E+02  0.12246188336E+03  0.13164479016E+03  0.00000000000E+00 0.  1.
         14    1    4    4    0    0  0.60158151567E+01 -0.45224565520E+02  0.90635000712E+02  0.10146996951E+03  0.00000000000E+00 0. -1.
         -5    1    5    5    0  502 -0.55904699266E+02 -0.17620554901E+02  0.18579334434E+02  0.61669287519E+02  0.47000000000E+01 0.  1.
         11    1    6    6    0    0  0.45811285492E+02 -0.18964796759E+02  0.28520189465E+02  0.57199113644E+02  0.00000000000E+00 0. -1.
        -12    1    6    6    0    0  0.18168862745E+02  0.43093088120E+01  0.13320829736E+03  0.13451069920E+03  0.00000000000E+00 0.  1.
<mgrwt>
<rscale>  2 0.17753224E+03</rscale>
<asrwt>0</asrwt>
<pdfrwt beam="1">  1       21 0.11518213E+00 0.17801702E+03</pdfrwt>
<pdfrwt beam="2">  1       21 0.78631699E-02 0.17801702E+03</pdfrwt>
<totfact> 0.72714384E+04</totfact>
</mgrwt>
</event>
<event>
12    1  0.1039378E-001  0.2651539E+03  0.7546771E-02  0.1104162E+00
         21   -1    0    0  501  502  0.00000000000E+00  0.00000000000E+00  0.12217852187E+04  0.12217852187E+04  0.00000000000E+00 0.  1.
         21   -1    0    0  502  503 -0.00000000000E+00 -0.00000000000E+00 -0.10599990771E+03  0.10599990771E+03  0.00000000000E+00 0. -1.
         -6    2    1    2    0  503  0.18753129358E+03 -0.68864533664E+02  0.10879997548E+03  0.28660781577E+03  0.17434533354E+03 0.  0.
        -24    2    3    3    0    0  0.12443463952E+03  0.26875049112E+02  0.87883756323E+02  0.16995948236E+03  0.70401869580E+02 0.  0.
          6    2    1    2  501    0 -0.18753129358E+03  0.68864533664E+02  0.10069853355E+04  0.10411773106E+04  0.17355234420E+03 0.  0.
         24    2    5    5    0    0 -0.10169509248E+03  0.14290178976E+02  0.79988229502E+03  0.81039608741E+03  0.79900134928E+02 0.  0.
          5    1    5    5  501    0 -0.85836201101E+02  0.54574354688E+02  0.20710304046E+03  0.23078122319E+03  0.47000000000E+01 0. -1.
        -13    1    6    6    0    0 -0.92542129456E+02 -0.19592221765E+02  0.61134071622E+03  0.61861569022E+03  0.00000000000E+00 0.  1.
         14    1    6    6    0    0 -0.91529630281E+01  0.33882400740E+02  0.18854157880E+03  0.19178039720E+03  0.00000000000E+00 0. -1.
         -5    1    3    3    0  503  0.63096654064E+02 -0.95739582776E+02  0.20916219158E+02  0.11664833341E+03  0.47000000000E+01 0.  1.
         13    1    4    4    0    0  0.44522039601E+02  0.45237704170E+02  0.39175287752E+02  0.74587968595E+02  0.00000000000E+00 0. -1.
        -14    1    4    4    0    0  0.79912599920E+02 -0.18362655057E+02  0.48708468572E+02  0.95371513763E+02  0.00000000000E+00 0.  1.
<mgrwt>
<rscale>  2 0.26502365E+03</rscale>
<asrwt>0</asrwt>
<pdfrwt beam="1">  1       21 0.18796695E+00 0.26515393E+03</pdfrwt>
<pdfrwt beam="2">  1       21 0.16307679E-01 0.26515393E+03</pdfrwt>
<totfact> 0.51187989E+03</totfact>
</mgrwt>
</event>
<event>
12    1  0.1039378E-001  0.1958347E+03  0.7546771E-02  0.1153399E+00
         21   -1    0    0  501  502  0.00000000000E+00  0.00000000000E+00  0.15709573871E+03  0.15709573871E+03  0.00000000000E+00 0.  1.
         21   -1    0    0  502  503 -0.00000000000E+00 -0.00000000000E+00 -0.40853086599E+03  0.40853086599E+03  0.00000000000E+00 0.  1.
         -6    2    1    2    0  503 -0.21980043477E+02 -0.88036994447E+02 -0.30551787274E+03  0.36289446298E+03  0.17354419034E+03 0.  0.
        -24    2    3    3    0    0  0.46454749453E+02 -0.47018895126E+02 -0.22074364898E+03  0.24638453049E+03  0.87228195303E+02 0.  0.
          6    2    1    2  501    0  0.21980043477E+02  0.88036994447E+02  0.54082745458E+02  0.20273214172E+03  0.17303682622E+03 0.  0.
         24    2    5    5    0    0  0.74293966840E+02  0.65050712986E+02  0.65850438788E+02  0.14420279592E+03  0.81896137239E+02 0.  0.
          5    1    5    5  501    0 -0.52313923363E+02  0.22986281461E+02 -0.11767693330E+02  0.58529345796E+02  0.47000000000E+01 0. -1.
        -13    1    6    6    0    0  0.39188340662E+02  0.56295076963E+02  0.79976656450E+02  0.10536188737E+03  0.00000000000E+00 0.  1.
         14    1    6    6    0    0  0.35105626178E+02  0.87556360236E+01 -0.14126217662E+02  0.38840908550E+02  0.00000000000E+00 0. -1.
         -5    1    3    3    0  503 -0.68434792930E+02 -0.41018099321E+02 -0.84774223754E+02  0.11650993249E+03  0.47000000000E+01 0.  1.
         13    1    4    4    0    0  0.32531734662E+01  0.52551993165E+01  0.66590081067E+01  0.90852983673E+01  0.00000000000E+00 0. -1.
        -14    1    4    4    0    0  0.43201575987E+02 -0.52274094442E+02 -0.22740265709E+03  0.23729923213E+03  0.00000000000E+00 0.  1.
<mgrwt>
<rscale>  2 0.19572221E+03</rscale>
<asrwt>0</asrwt>
<pdfrwt beam="1">  1       21 0.24168575E-01 0.19583468E+03</pdfrwt>
<pdfrwt beam="2">  1       21 0.62850903E-01 0.19583468E+03</pdfrwt>
<totfact> 0.37813303E+04</totfact>
</mgrwt>
</event>
<event>
12    1  0.1039378E-001  0.2188585E+03  0.7546771E-02  0.1137155E+00
         21   -1    0    0  501  502  0.00000000000E+00  0.00000000000E+00  0.49104686829E+03  0.49104686829E+03  0.00000000000E+00 0.  1.
         21   -1    0    0  502  503 -0.00000000000E+00 -0.00000000000E+00 -0.23161097165E+03  0.23161097165E+03  0.00000000000E+00 0. -1.
         -6    2    1    2    0  503 -0.42604664290E+02 -0.10466020599E+03 -0.15222086014E+03  0.25643867710E+03  0.17268667788E+03 0.  0.
        -24    2    3    3    0    0  0.22530222009E+02 -0.68204212097E+02 -0.14584910821E+03  0.18137682177E+03  0.80412459590E+02 0.  0.
          6    2    1    2  501    0  0.42604664290E+02  0.10466020599E+03  0.41165675678E+03  0.46621916284E+03  0.18743027039E+03 0.  0.
         24    2    5    5    0    0  0.56670600690E+02  0.10371191280E+03  0.42355749654E+03  0.44718058532E+03  0.81251493378E+02 0.  0.
          5    1    5    5  501    0 -0.14065936400E+02  0.94829318956E+00 -0.11900739762E+02  0.19038577512E+02  0.47000000000E+01 0. -1.
        -13    1    6    6    0    0  0.40178161593E+02  0.39907086740E+01  0.15683172412E+03  0.16194567026E+03  0.00000000000E+00 0.  1.
         14    1    6    6    0    0  0.16492439097E+02  0.99721204126E+02  0.26672577242E+03  0.28523491506E+03  0.00000000000E+00 0. -1.
         -5    1    3    3    0  503 -0.65134886298E+02 -0.36455993893E+02 -0.63717519256E+01  0.75061855336E+02  0.47000000000E+01 0.  1.
         13    1    4    4    0    0  0.39374771668E+02 -0.31711671409E+01 -0.41688082533E+02  0.57431047093E+02  0.00000000000E+00 0. -1.
        -14    1    4    4    0    0 -0.16844549659E+02 -0.65033044956E+02 -0.10416102568E+03  0.12394577467E+03  0.00000000000E+00 0.  1.
<mgrwt>
<rscale>  2 0.21566787E+03</rscale>
<asrwt>0</asrwt>
<pdfrwt beam="1">  1       21 0.75545672E-01 0.21885845E+03</pdfrwt>
<pdfrwt beam="2">  1       21 0.35632457E-01 0.21885845E+03</pdfrwt>
<totfact> 0.11678702E+04</totfact>
</mgrwt>
</event>
<event>
12    1  0.1039378E-001  0.2376081E+03  0.7546771E-02  0.1121821E+00
         21   -1    0    0  503  502  0.00000000000E+00  0.00000000000E+00  0.13118651691E+03  0.13118651691E+03  0.00000000000E+00 0. -1.
         21   -1    0    0  501  503 -0.00000000000E+00 -0.00000000000E+00 -0.52789745480E+03  0.52789745480E+03  0.00000000000E+00 0. -1.
          6    2    1    2  501    0  0.14412625814E+03 -0.72410902069E+02 -0.34409542266E+03  0.41816179614E+03  0.17447610390E+03 0.  0.
         24    2    3    3    0    0  0.51051829898E+02 -0.87959315791E+02 -0.12786812880E+03  0.18219371573E+03  0.80629778107E+02 0.  0.
         -6    2    1    2    0  502 -0.14412625814E+03  0.72410902069E+02 -0.52615515222E+02  0.24092217556E+03  0.17105374948E+03 0.  0.
        -24    2    5    5    0    0 -0.14408707274E+03  0.10736394751E+03 -0.29877617947E+02  0.19896006297E+03  0.80027075697E+02 0.  0.
          5    1    3    3  501    0  0.93074428244E+02  0.15548413723E+02 -0.21622729387E+03  0.23596808042E+03  0.47000000000E+01 0. -1.
        -11    1    4    4    0    0 -0.49029485497E+01  0.63912785755E+00  0.87293986190E+01  0.10032436850E+02  0.00000000000E+00 0.  1.
         12    1    4    4    0    0  0.55954778448E+02 -0.88598443649E+02 -0.13659752741E+03  0.17216127888E+03  0.00000000000E+00 0. -1.
         -5    1    5    5    0  502 -0.39185398730E-01 -0.34953045440E+02 -0.22737897275E+02  0.41962112596E+02  0.47000000000E+01 0.  1.
         13    1    6    6    0    0 -0.12637357183E+03  0.48909157619E+02 -0.17421366187E+02  0.13662316552E+03  0.00000000000E+00 0. -1.
        -14    1    6    6    0    0 -0.17713500914E+02  0.58454789889E+02 -0.12456251760E+02  0.62336897448E+02  0.00000000000E+00 0.  1.
<mgrwt>
<rscale>  2 0.23698026E+03</rscale>
<asrwt>0</asrwt>
<pdfrwt beam="1">  1       21 0.20182541E-01 0.23760814E+03</pdfrwt>
<pdfrwt beam="2">  1       21 0.81214992E-01 0.23760814E+03</pdfrwt>
<totfact> 0.29460984E+04</totfact>
</mgrwt>
</event>
<event>
12    1  0.1039378E-001  0.2454119E+03  0.7546771E-02  0.1116588E+00
         21   -1    0    0  503  502  0.00000000000E+00  0.00000000000E+00  0.62229563344E+02  0.62229563344E+02  0.00000000000E+00 0.  1.
         21   -1    0    0  501  503 -0.00000000000E+00 -0.00000000000E+00 -0.11891704845E+04  0.11891704845E+04  0.00000000000E+00 0.  1.
          6    2    1    2  501    0  0.17330251828E+03  0.31813124418E+01 -0.83652516442E+03  0.87117867310E+03  0.17068698302E+03 0.  0.
         24    2    3    3    0    0  0.17661841743E+03 -0.41504964809E+02 -0.67111419087E+03  0.69974139964E+03  0.79542703660E+02 0.  0.
         -6    2    1    2    0  502 -0.17330251828E+03 -0.31813124418E+01 -0.29041575678E+03  0.38022137479E+03  0.17373283646E+03 0.  0.
        -24    2    5    5    0    0 -0.56397369855E+02 -0.58410922402E+02 -0.12134659667E+03  0.16732798727E+03  0.81738360756E+02 0.  0.
          5    1    3    3  501    0 -0.33158991516E+01  0.44686277251E+02 -0.16541097355E+03  0.17143727346E+03  0.47000000000E+01 0. -1.
        -11    1    4    4    0    0  0.76682787089E+02  0.55929118176E+01 -0.39371181931E+03  0.40114900867E+03  0.00000000000E+00 0.  1.
         12    1    4    4    0    0  0.99935630344E+02 -0.47097876627E+02 -0.27740237156E+03  0.29859239097E+03  0.00000000000E+00 0. -1.
         -5    1    5    5    0  502 -0.11690514843E+03  0.55229609960E+02 -0.16906916011E+03  0.21289338751E+03  0.47000000000E+01 0.  1.
         13    1    6    6    0    0  0.15604043357E+02 -0.12108656492E+02 -0.56741983900E+02  0.60081265533E+02  0.00000000000E+00 0. -1.
        -14    1    6    6    0    0 -0.72001413211E+02 -0.46302265910E+02 -0.64604612769E+02  0.10724672174E+03  0.00000000000E+00 0.  1.
<mgrwt>
<rscale>  2 0.24487341E+03</rscale>
<asrwt>0</asrwt>
<pdfrwt beam="1">  1       21 0.95737795E-02 0.24541186E+03</pdfrwt>
<pdfrwt beam="2">  1       21 0.18294929E+00 0.24541186E+03</pdfrwt>
<totfact> 0.14678255E+04</totfact>
</mgrwt>
</event>
<event>
12    1  0.1039378E-001  0.2184968E+03  0.7546771E-02  0.1135016E+00
         21   -1    0    0  501  502  0.00000000000E+00  0.00000000000E+00  0.24778485552E+03  0.24778485552E+03  0.00000000000E+00 0. -1.
         21   -1    0    0  502  503 -0.00000000000E+00 -0.00000000000E+00 -0.19941376635E+03  0.19941376635E+03  0.00000000000E+00 0.  1.
         -6    2    1    2    0  503 -0.11502800209E+02  0.13326995262E+03 -0.17034024311E+02  0.21912259605E+03  0.17271757129E+03 0.  0.
        -24    2    3    3    0    0  0.10291245179E+02  0.49888977338E+02  0.45175131364E+02  0.11272975559E+03  0.89846455210E+02 0.  0.
          6    2    1    2  501    0  0.11502800209E+02 -0.13326995262E+03  0.65405113484E+02  0.22807602581E+03  0.17276472440E+03 0.  0.
         24    2    5    5    0    0  0.11724800545E+02 -0.90813866020E+02  0.11181644860E+03  0.16499932171E+03  0.79606713140E+02 0.  0.
          5    1    5    5  501    0 -0.22200033524E+00 -0.42456086596E+02 -0.46411335119E+02  0.63076704105E+02  0.47000000000E+01 0. -1.
        -13    1    6    6    0    0 -0.16702641873E+02  0.23393576259E+01  0.41727992463E+02  0.45007512647E+02  0.00000000000E+00 0.  1.
         14    1    6    6    0    0  0.28427442417E+02 -0.93153223646E+02  0.70088456140E+02  0.11999180906E+03  0.00000000000E+00 0. -1.
         -5    1    3    3    0  503 -0.21794045389E+02  0.83380975278E+02 -0.62209155674E+02  0.10639284047E+03  0.47000000000E+01 0.  1.
         11    1    4    4    0    0  0.35025664464E+02 -0.11020614832E+02  0.23108362575E+02  0.43384876897E+02  0.00000000000E+00 0. -1.
        -12    1    4    4    0    0 -0.24734419285E+02  0.60909592171E+02  0.22066768789E+02  0.69344878690E+02  0.00000000000E+00 0.  1.
<mgrwt>
<rscale>  2 0.21848746E+03</rscale>
<asrwt>0</asrwt>
<pdfrwt beam="1">  1       21 0.38120747E-01 0.21849678E+03</pdfrwt>
<pdfrwt beam="2">  1       21 0.30679041E-01 0.21849678E+03</pdfrwt>
<totfact> 0.66929153E+04</totfact>
</mgrwt>
</event>
<event>
12    1  0.1039378E-001  0.1879419E+03  0.7546771E-02  0.1160521E+00
         21   -1    0    0  501  502  0.00000000000E+00  0.00000000000E+00  0.24577526749E+03  0.24577526749E+03  0.00000000000E+00 0.  1.
         21   -1    0    0  502  503 -0.00000000000E+00 -0.00000000000E+00 -0.33635617772E+03  0.33635617772E+03  0.00000000000E+00 0.  1.
         -6    2    1    2    0  503  0.68652139187E+02  0.21389897811E+02 -0.26596830754E+03  0.32567055173E+03  0.17364194110E+03 0.  0.
        -24    2    3    3    0    0  0.26011031108E+02 -0.45879066024E+02 -0.18766581273E+03  0.21388169591E+03  0.88008295849E+02 0.  0.
          6    2    1    2  501    0 -0.68652139187E+02 -0.21389897811E+02  0.17538739731E+03  0.25646089348E+03  0.17274491833E+03 0.  0.
         24    2    5    5    0    0 -0.31364106660E+02 -0.49707262746E+02  0.18346496880E+03  0.20871565615E+03  0.80301377275E+02 0.  0.
          5    1    5    5  501    0 -0.37288032526E+02  0.28317364935E+02 -0.80775714861E+01  0.47745237329E+02  0.47000000000E+01 0. -1.
        -13    1    6    6    0    0 -0.57960906655E+02 -0.35329472491E+02  0.10980455118E+03  0.12909174175E+03  0.00000000000E+00 0.  1.
         14    1    6    6    0    0  0.26596799995E+02 -0.14377790254E+02  0.73660417614E+02  0.79623914408E+02  0.00000000000E+00 0. -1.
         -5    1    3    3    0  503  0.42641108079E+02  0.67268963835E+02 -0.78302494807E+02  0.11178885582E+03  0.47000000000E+01 0.  1.
         11    1    4    4    0    0 -0.10362729378E+01 -0.23656114824E+02 -0.72324321083E+00  0.23689844046E+02  0.00000000000E+00 0. -1.
        -12    1    4    4    0    0  0.27047304046E+02 -0.22222951200E+02 -0.18694256952E+03  0.19019185186E+03  0.00000000000E+00 0.  1.
<mgrwt>
<rscale>  2 0.18773447E+03</rscale>
<asrwt>0</asrwt>
<pdfrwt beam="1">  1       21 0.37811580E-01 0.18794193E+03</pdfrwt>
<pdfrwt beam="2">  1       21 0.51747104E-01 0.18794193E+03</pdfrwt>
<totfact> 0.23986516E+04</totfact>
</mgrwt>
</event>
<event>
12    1  0.1039378E-001  0.2238149E+03  0.7546771E-02  0.1131577E+00
         21   -1    0    0  503  502  0.00000000000E+00  0.00000000000E+00  0.13847272192E+04  0.13847272192E+04  0.00000000000E+00 0. -1.
         21   -1    0    0  501  503 -0.00000000000E+00 -0.00000000000E+00 -0.37971770827E+02  0.37971770827E+02  0.00000000000E+00 0.  1.
          6    2    1    2  501    0  0.81634764191E+02 -0.11160713123E+03  0.50448824951E+03  0.55190715385E+03  0.17599069893E+03 0.  0.
         24    2    3    3    0    0  0.12290192834E+01 -0.11102181518E+03  0.37543043588E+03  0.39977748656E+03  0.80911511207E+02 0.  0.
         -6    2    1    2    0  502 -0.81634764191E+02  0.11160713123E+03  0.84226719891E+03  0.87079183623E+03  0.17246449260E+03 0.  0.
        -24    2    5    5    0    0 -0.72414877363E+02 -0.20012309662E+01  0.39498735999E+03  0.40919329791E+03  0.78588937577E+02 0.  0.
          5    1    3    3  501    0  0.80405744908E+02 -0.58531605037E+00  0.12905781363E+03  0.15212966729E+03  0.47000000000E+01 0. -1.
        -11    1    4    4    0    0  0.20564635299E+02 -0.55076978805E+02  0.84836534417E+02  0.10321635234E+03  0.00000000000E+00 0.  1.
         12    1    4    4    0    0 -0.19335616015E+02 -0.55944836373E+02  0.29059390146E+03  0.29656113422E+03  0.00000000000E+00 0. -1.
         -5    1    5    5    0  502 -0.92198868285E+01  0.11360836219E+03  0.44727983892E+03  0.46159853832E+03  0.47000000000E+01 0.  1.
         11    1    6    6    0    0 -0.63469601396E+02  0.26278361612E+02  0.33841738045E+03  0.34531907851E+03  0.00000000000E+00 0. -1.
        -12    1    6    6    0    0 -0.89452759670E+01 -0.28279592578E+02  0.56569979539E+02  0.63874219397E+02  0.00000000000E+00 0.  1.
<mgrwt>
<rscale>  2 0.22312119E+03</rscale>
<asrwt>0</asrwt>
<pdfrwt beam="1">  1       21 0.21303492E+00 0.22381491E+03</pdfrwt>
<pdfrwt beam="2">  1       21 0.58418120E-02 0.22381491E+03</pdfrwt>
<totfact> 0.22404113E+04</totfact>
</mgrwt>
</event>
<event>
12    1  0.1039378E-001  0.1899928E+03  0.7546771E-02  0.1158765E+00
         21   -1    0    0  503  502  0.00000000000E+00  0.00000000000E+00  0.13690040812E+03  0.13690040812E+03  0.00000000000E+00 0. -1.
         21   -1    0    0  501  503 -0.00000000000E+00 -0.00000000000E+00 -0.27343078508E+03  0.27343078508E+03  0.00000000000E+00 0. -1.
          6    2    1    2  501    0  0.61620898844E+02  0.44061816334E+02 -0.11070821386E+03  0.21989443011E+03  0.17423740397E+03 0.  0.
         24    2    3    3    0    0  0.90226351950E+02 -0.91054969438E+01 -0.87684338872E+02  0.15510844422E+03  0.90257307310E+02 0.  0.
         -6    2    1    2    0  502 -0.61620898844E+02 -0.44061816334E+02 -0.25822163101E+02  0.19043676309E+03  0.17280277138E+03 0.  0.
        -24    2    5    5    0    0 -0.15047978535E+02 -0.14635457712E+02 -0.78545085585E+02  0.11403817643E+03  0.79967099070E+02 0.  0.
          5    1    3    3  501    0 -0.28605453106E+02  0.53167313278E+02 -0.23023874985E+02  0.64785985891E+02  0.47000000000E+01 0. -1.
        -13    1    4    4    0    0  0.18198686881E+02 -0.11541593841E+02  0.17391544338E+02  0.27692352862E+02  0.00000000000E+00 0.  1.
         14    1    4    4    0    0  0.72027665069E+02  0.24360968970E+01 -0.10507588321E+03  0.12741609135E+03  0.00000000000E+00 0. -1.
         -5    1    5    5    0  502 -0.46572920309E+02 -0.29426358622E+02  0.52722922484E+02  0.76398586657E+02  0.47000000000E+01 0.  1.
         13    1    6    6    0    0 -0.15296347565E+02 -0.22360031067E+02  0.71309387074E+01  0.28014273594E+02  0.00000000000E+00 0. -1.
        -14    1    6    6    0    0  0.24836903045E+00  0.77245733552E+01 -0.85676024292E+02  0.86023902837E+02  0.00000000000E+00 0.  1.
<mgrwt>
<rscale>  2 0.18966321E+03</rscale>
<asrwt>0</asrwt>
<pdfrwt beam="1">  1       21 0.21061601E-01 0.18999277E+03</pdfrwt>
<pdfrwt beam="2">  1       21 0.42066275E-01 0.18999277E+03</pdfrwt>
<totfact> 0.11406751E+05</totfact>
</mgrwt>
</event>
<event>
12    1  0.1039378E-001  0.1879961E+03  0.7546771E-02  0.1160950E+00
         21   -1    0    0  501  502  0.00000000000E+00  0.00000000000E+00  0.93800712136E+03  0.93800712136E+03  0.00000000000E+00 0. -1.
         21   -1    0    0  502  503 -0.00000000000E+00 -0.00000000000E+00 -0.37538283936E+02  0.37538283936E+02  0.00000000000E+00 0. -1.
         -6    2    1    2    0  503 -0.48196252224E+02 -0.34078555706E+02  0.40093522804E+03  0.44282231507E+03  0.17848898833E+03 0.  0.
        -24    2    3    3    0    0  0.10859420764E+02 -0.59768738979E+02  0.13046038699E+03  0.16474626851E+03  0.80194708284E+02 0.  0.
          6    2    1    2  501    0  0.48196252224E+02  0.34078555706E+02  0.49953360938E+03  0.53272309022E+03  0.17543043427E+03 0.  0.
         24    2    5    5    0    0 -0.76112547938E+01 -0.33234773290E+02  0.32735628118E+03  0.33955817507E+03  0.83517292054E+02 0.  0.
          5    1    5    5  501    0  0.55807507018E+02  0.67313328996E+02  0.17217732820E+03  0.19316491515E+03  0.47000000000E+01 0. -1.
        -11    1    6    6    0    0 -0.40237344080E+02 -0.16447511302E+02  0.96955549499E+02  0.10625414376E+03  0.00000000000E+00 0.  1.
         12    1    6    6    0    0  0.32626089286E+02 -0.16787261988E+02  0.23040073168E+03  0.23330403131E+03  0.00000000000E+00 0. -1.
         -5    1    3    3    0  503 -0.59055672988E+02  0.25690183273E+02  0.27047484105E+03  0.27807604656E+03  0.47000000000E+01 0.  1.
         11    1    4    4    0    0  0.14486855340E+02  0.15098897985E+02  0.10798570032E+02  0.23546864180E+02  0.00000000000E+00 0. -1.
        -12    1    4    4    0    0 -0.36274345758E+01 -0.74867636964E+02  0.11966181696E+03  0.14119940433E+03  0.00000000000E+00 0.  1.
<mgrwt>
<rscale>  2 0.18726655E+03</rscale>
<asrwt>0</asrwt>
<pdfrwt beam="1">  1       21 0.14430877E+00 0.18799613E+03</pdfrwt>
<pdfrwt beam="2">  1       21 0.57751213E-02 0.18799613E+03</pdfrwt>
<totfact> 0.69786287E+04</totfact>
</mgrwt>
</event>
<event>
12    1  0.1039378E-001  0.1780569E+03  0.7546771E-02  0.1170271E+00
         21   -1    0    0  501  502  0.00000000000E+00  0.00000000000E+00  0.47263774837E+02  0.47263774837E+02  0.00000000000E+00 0.  1.
         21   -1    0    0  502  503 -0.00000000000E+00 -0.00000000000E+00 -0.97854245141E+03  0.97854245141E+03  0.00000000000E+00 0.  1.
         -6    2    1    2    0  503  0.62898683320E+01  0.32296324636E+02 -0.75938916801E+03  0.77998471284E+03  0.17499036757E+03 0.  0.
        -24    2    3    3    0    0 -0.28385132129E+02  0.55396176527E+02 -0.25649943450E+03  0.27535005997E+03  0.78429863719E+02 0.  0.
          6    2    1    2  501    0 -0.62898683320E+01 -0.32296324636E+02 -0.17188950857E+03  0.24582151341E+03  0.17262560144E+03 0.  0.
         24    2    5    5    0    0 -0.68705014543E+02 -0.20012611857E+02 -0.73399147930E+02  0.12848021116E+03  0.77452218080E+02 0.  0.
          5    1    5    5  501    0  0.62415146211E+02 -0.12283712780E+02 -0.98490360637E+02  0.11734130225E+03  0.47000000000E+01 0. -1.
        -13    1    6    6    0    0  0.29528973732E+01 -0.13130291383E+00  0.13664434408E+02  0.13980472490E+02  0.00000000000E+00 0.  1.
         14    1    6    6    0    0 -0.71657911916E+02 -0.19881308943E+02 -0.87063582338E+02  0.11449973867E+03  0.00000000000E+00 0. -1.
         -5    1    3    3    0  503  0.34675000461E+02 -0.23099851890E+02 -0.50288973350E+03  0.50463465287E+03  0.47000000000E+01 0.  1.
         11    1    4    4    0    0  0.88561551509E+01 -0.16699980880E+02 -0.52867097733E+02  0.56144909548E+02  0.00000000000E+00 0. -1.
        -12    1    4    4    0    0 -0.37241287280E+02  0.72096157407E+02 -0.20363233677E+03  0.21920515042E+03  0.00000000000E+00 0.  1.
<mgrwt>
<rscale>  2 0.17747312E+03</rscale>
<asrwt>0</asrwt>
<pdfrwt beam="1">  1       21 0.72713503E-02 0.17805686E+03</pdfrwt>
<pdfrwt beam="2">  1       21 0.15054499E+00 0.17805686E+03</pdfrwt>
<totfact> 0.42294012E+04</totfact>
</mgrwt>
</event>
<event>
12    1  0.1039378E-001  0.1795702E+03  0.7546771E-02  0.1169079E+00
         21   -1    0    0  501  502  0.00000000000E+00  0.00000000000E+00  0.13572213655E+03  0.13572213655E+03  0.00000000000E+00 0. -1.
         21   -1    0    0  502  503 -0.00000000000E+00 -0.00000000000E+00 -0.24958647581E+03  0.24958647581E+03  0.00000000000E+00 0. -1.
         -6    2    1    2    0  503  0.38938170834E+02 -0.97337778950E+01 -0.10610983991E+03  0.20557108048E+03  0.17143291231E+03 0.  0.
        -24    2    3    3    0    0  0.89785258749E+02  0.85516423431E+01 -0.83474474773E+02  0.14679835978E+03  0.80294752138E+02 0.  0.
          6    2    1    2  501    0 -0.38938170834E+02  0.97337778950E+01 -0.77544993416E+01  0.17973753188E+03  0.17502719939E+03 0.  0.
         24    2    5    5    0    0  0.21659923587E+02  0.74289117549E+01  0.47592960319E+02  0.97500844531E+02  0.81957207083E+02 0.  0.
          5    1    5    5  501    0 -0.60598094421E+02  0.23048661401E+01 -0.55347459661E+02  0.82236687350E+02  0.47000000000E+01 0. -1.
        -11    1    6    6    0    0  0.84125787936E+01  0.36118773607E+02 -0.36845240452E+01  0.37268123192E+02  0.00000000000E+00 0.  1.
         12    1    6    6    0    0  0.13247344793E+02 -0.28689861852E+02  0.51277484364E+02  0.60232721339E+02  0.00000000000E+00 0. -1.
         -5    1    3    3    0  503 -0.50847087915E+02 -0.18285420238E+02 -0.22635365139E+02  0.58772720693E+02  0.47000000000E+01 0.  1.
         13    1    4    4    0    0  0.24400550766E+02 -0.28133471283E+02 -0.38617897202E+01  0.37440519547E+02  0.00000000000E+00 0. -1.
        -14    1    4    4    0    0  0.65384707983E+02  0.36685113626E+02 -0.79612685053E+02  0.10935784024E+03  0.00000000000E+00 0.  1.
<mgrwt>
<rscale>  2 0.17868832E+03</rscale>
<asrwt>0</asrwt>
<pdfrwt beam="1">  1       21 0.20880329E-01 0.17957018E+03</pdfrwt>
<pdfrwt beam="2">  1       21 0.38397919E-01 0.17957018E+03</pdfrwt>
<totfact> 0.13988402E+05</totfact>
</mgrwt>
</event>
<event>
12    1  0.1039378E-001  0.2049589E+03  0.7546771E-02  0.1145844E+00
         21   -1    0    0  503  502  0.00000000000E+00  0.00000000000E+00  0.89023880013E+03  0.89023880013E+03  0.00000000000E+00 0. -1.
         21   -1    0    0  501  503 -0.00000000000E+00 -0.00000000000E+00 -0.65589703325E+02  0.65589703325E+02  0.00000000000E+00 0. -1.
          6    2    1    2  501    0  0.26826737487E+02 -0.10466458211E+03  0.15825192827E+03  0.25894366453E+03  0.17416601278E+03 0.  0.
         24    2    3    3    0    0  0.23798679785E+02 -0.13346936583E+03  0.16830881936E+03  0.22792567366E+03  0.72400312594E+02 0.  0.
         -6    2    1    2    0  502 -0.26826737487E+02  0.10466458211E+03  0.66639716854E+03  0.69688483892E+03  0.17288419216E+03 0.  0.
        -24    2    5    5    0    0  0.18786978027E+02 -0.64254217154E+01  0.26015916997E+03  0.27324229919E+03  0.81143846103E+02 0.  0.
          5    1    3    3  501    0  0.30280577015E+01  0.28804783727E+02 -0.10056891096E+02  0.31017990868E+02  0.47000000000E+01 0. -1.
        -11    1    4    4    0    0 -0.24262948246E+02 -0.24659300819E+02  0.42204559777E+02  0.54571023817E+02  0.00000000000E+00 0.  1.
         12    1    4    4    0    0  0.48061628031E+02 -0.10881006501E+03  0.12610425959E+03  0.17335464985E+03  0.00000000000E+00 0. -1.
         -5    1    5    5    0  502 -0.45613715514E+02  0.11109000382E+03  0.40623799856E+03  0.42364253973E+03  0.47000000000E+01 0.  1.
         13    1    6    6    0    0  0.39175978566E+02 -0.11539254296E+02  0.24212701640E+03  0.24554715180E+03  0.00000000000E+00 0. -1.
        -14    1    6    6    0    0 -0.20389000539E+02  0.51138325808E+01  0.18032153568E+02  0.27695147390E+02  0.00000000000E+00 0.  1.
<mgrwt>
<rscale>  2 0.20468632E+03</rscale>
<asrwt>0</asrwt>
<pdfrwt beam="1">  1       21 0.13695981E+00 0.20495889E+03</pdfrwt>
<pdfrwt beam="2">  1       21 0.10090724E-01 0.20495889E+03</pdfrwt>
<totfact> 0.30014361E+04</totfact>
</mgrwt>
</event>
<event>
12    1  0.1039378E-001  0.1781014E+03  0.7546771E-02  0.1169666E+00
         21   -1    0    0  503  502  0.00000000000E+00  0.00000000000E+00  0.11765559014E+03  0.11765559014E+03  0.00000000000E+00 0. -1.
         21   -1    0    0  501  503 -0.00000000000E+00 -0.00000000000E+00 -0.31534761398E+03  0.31534761398E+03  0.00000000000E+00 0. -1.
          6    2    1    2  501    0 -0.21963546991E+02  0.37682960357E+02 -0.18138889181E+03  0.25420868521E+03  0.17267808972E+03 0.  0.
         24    2    3    3    0    0 -0.59775123903E+02  0.30728594323E+00 -0.17321305948E+03  0.20021247589E+03  0.80679065848E+02 0.  0.
         -6    2    1    2    0  502  0.21963546991E+02 -0.37682960357E+02 -0.16303132036E+02  0.17879451891E+03  0.17262469401E+03 0.  0.
        -24    2    5    5    0    0 -0.26760329372E+02 -0.79169488434E+02 -0.10838898268E+02  0.11439656871E+03  0.77363881044E+02 0.  0.
          5    1    3    3  501    0  0.37811576912E+02  0.37375674414E+02 -0.81758323236E+01  0.53996209317E+02  0.47000000000E+01 0. -1.
        -11    1    4    4    0    0 -0.52415153427E+02 -0.35530087614E+02 -0.99909071671E+02  0.11828591648E+03  0.00000000000E+00 0.  1.
         12    1    4    4    0    0 -0.73599704768E+01  0.35837373557E+02 -0.73303987812E+02  0.81926559418E+02  0.00000000000E+00 0. -1.
         -5    1    5    5    0  502  0.48723876363E+02  0.41486528077E+02 -0.54642337687E+01  0.64397950203E+02  0.47000000000E+01 0.  1.
         11    1    6    6    0    0 -0.60311998122E+00  0.23652686953E+01  0.22408218381E+02  0.22540774182E+02  0.00000000000E+00 0. -1.
        -12    1    6    6    0    0 -0.26157209391E+02 -0.81534757129E+02 -0.33247116648E+02  0.91855794529E+02  0.00000000000E+00 0.  1.
<mgrwt>
<rscale>  2 0.17808850E+03</rscale>
<asrwt>0</asrwt>
<pdfrwt beam="1">  1       21 0.18100860E-01 0.17810145E+03</pdfrwt>
<pdfrwt beam="2">  1       21 0.48515018E-01 0.17810145E+03</pdfrwt>
<totfact> 0.11333190E+05</totfact>
</mgrwt>
</event>
<event>
12    1  0.1039378E-001  0.1806750E+03  0.7546771E-02  0.1167157E+00
         21   -1    0    0  501  502  0.00000000000E+00  0.00000000000E+00  0.12076986887E+03  0.12076986887E+03  0.00000000000E+00 0.  1.
         21   -1    0    0  502  503 -0.00000000000E+00 -0.00000000000E+00 -0.66269879476E+03  0.66269879476E+03  0.00000000000E+00 0.  1.
         -6    2    1    2    0  503 -0.24280775295E+02 -0.47990611029E+02 -0.57242447670E+03  0.60026096846E+03  0.17248418460E+03 0.  0.
        -24    2    3    3    0    0 -0.34391442525E+02  0.19599954659E+02 -0.45911173273E+03  0.46785032648E+03  0.80829544861E+02 0.  0.
          6    2    1    2  501    0  0.24280775295E+02  0.47990611029E+02  0.30495550810E+02  0.18320769516E+03  0.17245992622E+03 0.  0.
         24    2    5    5    0    0 -0.10877114339E+02  0.21454907247E+02 -0.46306192701E+02  0.94546437643E+02  0.78842505840E+02 0.  0.
          5    1    5    5  501    0  0.35157889634E+02  0.26535703782E+02  0.76801743511E+02  0.88661257520E+02  0.47000000000E+01 0. -1.
        -11    1    6    6    0    0  0.15778055064E+02 -0.74652439468E+00  0.16471700511E+02  0.22821508232E+02  0.00000000000E+00 0.  1.
         12    1    6    6    0    0 -0.26655169403E+02  0.22201431641E+02 -0.62777893211E+02  0.71724929410E+02  0.00000000000E+00 0. -1.
         -5    1    3    3    0  503  0.10110667230E+02 -0.67590565688E+02 -0.11331274397E+03  0.13241064197E+03  0.47000000000E+01 0.  1.
         13    1    4    4    0    0 -0.41685711008E+02 -0.22402755023E+02 -0.24901305620E+03  0.25347008521E+03  0.00000000000E+00 0. -1.
        -14    1    4    4    0    0  0.72942684835E+01  0.42002709682E+02 -0.21009867652E+03  0.21438024128E+03  0.00000000000E+00 0.  1.
<mgrwt>
<rscale>  2 0.18066919E+03</rscale>
<asrwt>0</asrwt>
<pdfrwt beam="1">  1       21 0.18579980E-01 0.18067498E+03</pdfrwt>
<pdfrwt beam="2">  1       21 0.10195366E+00 0.18067498E+03</pdfrwt>
<totfact> 0.20908840E+04</totfact>
</mgrwt>
</event>
<event>
12    1  0.1039378E-001  0.1876847E+03  0.7546771E-02  0.1162584E+00
         21   -1    0    0  501  502  0.00000000000E+00  0.00000000000E+00  0.15876406998E+03  0.15876406998E+03  0.00000000000E+00 0.  1.
         21   -1    0    0  502  503 -0.00000000000E+00 -0.00000000000E+00 -0.22330778437E+03  0.22330778437E+03  0.00000000000E+00 0. -1.
         -6    2    1    2    0  503 -0.37244461537E+02 -0.44317628797E+02 -0.76277118759E+02  0.20259255590E+03  0.17853386996E+03 0.  0.
        -24    2    3    3    0    0 -0.85510263520E+01  0.35955746595E+02 -0.10865841512E+01  0.88825976828E+02  0.80764705965E+02 0.  0.
          6    2    1    2  501    0  0.37244461537E+02  0.44317628797E+02  0.11733404372E+02  0.17947929845E+03  0.16948139619E+03 0.  0.
         24    2    5    5    0    0  0.18257005406E+02 -0.38281623466E+02 -0.14453403819E+02  0.90648003915E+02  0.78799484707E+02 0.  0.
          5    1    5    5  501    0  0.18987456131E+02  0.82599252263E+02  0.26186808191E+02  0.88831294531E+02  0.47000000000E+01 0. -1.
        -11    1    6    6    0    0 -0.54491420994E+01  0.18487916396E+02  0.13032458902E+02  0.23266739937E+02  0.00000000000E+00 0.  1.
         12    1    6    6    0    0  0.23706147506E+02 -0.56769539862E+02 -0.27485862721E+02  0.67381263977E+02  0.00000000000E+00 0. -1.
         -5    1    3    3    0  503 -0.28693435185E+02 -0.80273375392E+02 -0.75190534607E+02  0.11376657907E+03  0.47000000000E+01 0.  1.
         11    1    4    4    0    0 -0.15547981080E+02 -0.74057369081E+01 -0.31154547636E+02  0.35597619207E+02  0.00000000000E+00 0. -1.
        -12    1    4    4    0    0  0.69969547278E+01  0.43361483503E+02  0.30067963484E+02  0.53228357622E+02  0.00000000000E+00 0.  1.
<mgrwt>
<rscale>  2 0.18549949E+03</rscale>
<asrwt>0</asrwt>
<pdfrwt beam="1">  1       21 0.24425242E-01 0.18768470E+03</pdfrwt>
<pdfrwt beam="2">  1       21 0.34355044E-01 0.18768470E+03</pdfrwt>
<totfact> 0.12950113E+05</totfact>
</mgrwt>
</event>
<event>
12    1  0.1039378E-001  0.2021129E+03  0.7546771E-02  0.1148097E+00
         21   -1    0    0  503  502  0.00000000000E+00  0.00000000000E+00  0.51444026372E+03  0.51444026372E+03  0.00000000000E+00 0. -1.
         21   -1    0    0  501  503 -0.00000000000E+00 -0.00000000000E+00 -0.16663121372E+03  0.16663121372E+03  0.00000000000E+00 0.  1.
          6    2    1    2  501    0 -0.94332823132E+02  0.46183550640E+02 -0.72944319141E+02  0.21429204287E+03  0.17195523857E+03 0.  0.
         24    2    3    3    0    0 -0.10612957402E+03  0.83582466276E+01 -0.22346769680E+01  0.13310176974E+03  0.79860757308E+02 0.  0.
         -6    2    1    2    0  502  0.94332823132E+02 -0.46183550640E+02  0.42075336914E+03  0.46677943457E+03  0.17267901152E+03 0.  0.
        -24    2    5    5    0    0  0.60357896025E+02  0.39492123160E+02  0.19459949155E+03  0.22252079479E+03  0.80273523655E+02 0.  0.
          5    1    3    3  501    0  0.11796750888E+02  0.37825304012E+02 -0.70709642173E+02  0.81190273132E+02  0.47000000000E+01 0. -1.
        -13    1    4    4    0    0 -0.39087853460E+02 -0.35214886848E+02  0.48310094551E+01  0.52832633818E+02  0.00000000000E+00 0.  1.
         14    1    4    4    0    0 -0.67041720560E+02  0.43573133476E+02 -0.70656864232E+01  0.80269135919E+02  0.00000000000E+00 0. -1.
         -5    1    5    5    0  502  0.33974927107E+02 -0.85675673800E+02  0.22615387760E+03  0.24425863977E+03  0.47000000000E+01 0.  1.
         11    1    6    6    0    0 -0.11725627226E+02  0.33546747090E+02  0.60839722058E+02  0.70458117731E+02  0.00000000000E+00 0. -1.
        -12    1    6    6    0    0  0.72083523251E+02  0.59453760694E+01  0.13375976949E+03  0.15206267706E+03  0.00000000000E+00 0.  1.
<mgrwt>
<rscale>  2 0.20195826E+03</rscale>
<asrwt>0</asrwt>
<pdfrwt beam="1">  1       21 0.79144655E-01 0.20211295E+03</pdfrwt>
<pdfrwt beam="2">  1       21 0.25635572E-01 0.20211295E+03</pdfrwt>
<totfact> 0.20227104E+04</totfact>
</mgrwt>
</event>
<event>
12    1  0.1039378E-001  0.2192896E+03  0.7546771E-02  0.1134507E+00
         21   -1    0    0  501  502  0.00000000000E+00  0.00000000000E+00  0.22065787722E+03  0.22065787722E+03  0.00000000000E+00 0. -1.
         21   -1    0    0  502  503 -0.00000000000E+00 -0.00000000000E+00 -0.31737437812E+03  0.31737437812E+03  0.00000000000E+00 0.  1.
         -6    2    1    2    0  503  0.11341523374E+03  0.71404350328E+02 -0.19935319279E+03  0.29636063319E+03  0.17356938942E+03 0.  0.
        -24    2    3    3    0    0  0.39552789175E+02  0.62393098851E+02 -0.19290936384E+03  0.22152430310E+03  0.80010451146E+02 0.  0.
          6    2    1    2  501    0 -0.11341523374E+03 -0.71404350328E+02  0.10263669189E+03  0.24167162215E+03  0.17294301356E+03 0.  0.
         24    2    5    5    0    0 -0.50285107124E+02 -0.81265169137E+02  0.12218604458E+03  0.17468717750E+03  0.80334057413E+02 0.  0.
          5    1    5    5  501    0 -0.63130126615E+02  0.98608188088E+01 -0.19549352687E+02  0.66984444646E+02  0.47000000000E+01 0. -1.
        -11    1    6    6    0    0  0.17410458915E+02 -0.15120257395E+02  0.42139351983E+01  0.23441491275E+02  0.00000000000E+00 0.  1.
         12    1    6    6    0    0 -0.67695566039E+02 -0.66144911742E+02  0.11797210938E+03  0.15124568623E+03  0.00000000000E+00 0. -1.
         -5    1    3    3    0  503  0.73862444564E+02  0.90112514772E+01 -0.64438289479E+01  0.74836330092E+02  0.47000000000E+01 0.  1.
         13    1    4    4    0    0 -0.15896016155E+01  0.10475429342E+02  0.57896336530E+01  0.12073993168E+02  0.00000000000E+00 0. -1.
        -14    1    4    4    0    0  0.41142390790E+02  0.51917669509E+02 -0.19869899749E+03  0.20945030993E+03  0.00000000000E+00 0.  1.
<mgrwt>
<rscale>  2 0.21916564E+03</rscale>
<asrwt>0</asrwt>
<pdfrwt beam="1">  1       21 0.33947366E-01 0.21928960E+03</pdfrwt>
<pdfrwt beam="2">  1       21 0.48826827E-01 0.21928960E+03</pdfrwt>
<totfact> 0.33006058E+04</totfact>
</mgrwt>
</event>
<event>
12    1  0.1039378E-001  0.2626635E+03  0.7546771E-02  0.1105587E+00
         21   -1    0    0  501  502  0.00000000000E+00  0.00000000000E+00  0.13039742261E+03  0.13039742261E+03  0.00000000000E+00 0. -1.
         21   -1    0    0  502  503 -0.00000000000E+00 -0.00000000000E+00 -0.12846678359E+04  0.12846678359E+04  0.00000000000E+00 0. -1.
         -6    2    1    2    0  503  0.17028781801E+03  0.99215763727E+02 -0.11198090331E+04  0.11501507292E+04  0.17329951153E+03 0.  0.
        -24    2    3    3    0    0  0.14779352037E+03  0.11143045217E+03 -0.67724686186E+03  0.70682403545E+03  0.81714349165E+02 0.  0.
          6    2    1    2  501    0 -0.17028781801E+03 -0.99215763727E+02 -0.34461380258E+02  0.26491452930E+03  0.17363874098E+03 0.  0.
         24    2    5    5    0    0 -0.10695162678E+03 -0.29433901924E+01 -0.69491540392E+02  0.14437804045E+03  0.67591644168E+02 0.  0.
          5    1    5    5  501    0 -0.63336191236E+02 -0.96272373535E+02  0.35030160134E+02  0.12053648885E+03  0.47000000000E+01 0. -1.
        -11    1    6    6    0    0 -0.44010179440E+01 -0.11409047200E+02 -0.33011251805E+02  0.35203381409E+02  0.00000000000E+00 0.  1.
         12    1    6    6    0    0 -0.10255060883E+03  0.84656570076E+01 -0.36480288587E+02  0.10917465904E+03  0.00000000000E+00 0. -1.
         -5    1    3    3    0  503  0.22494297645E+02 -0.12214688446E+02 -0.44256217121E+03  0.44332669379E+03  0.47000000000E+01 0.  1.
         13    1    4    4    0    0  0.47739101424E+02  0.31919459734E+02 -0.36412368687E+03  0.36862437935E+03  0.00000000000E+00 0. -1.
        -14    1    4    4    0    0  0.10005441895E+03  0.79510992440E+02 -0.31312317499E+03  0.33819965610E+03  0.00000000000E+00 0.  1.
<mgrwt>
<rscale>  2 0.26260746E+03</rscale>
<asrwt>0</asrwt>
<pdfrwt beam="1">  1       21 0.20061143E-01 0.26266351E+03</pdfrwt>
<pdfrwt beam="2">  1       21 0.19764120E+00 0.26266351E+03</pdfrwt>
<totfact> 0.30061400E+03</totfact>
</mgrwt>
</event>
<event>
11    1  0.1039378E-001  0.1747442E+03  0.7546771E-02  0.1174405E+00
         21   -1    0    0  503  502  0.00000000000E+00  0.00000000000E+00  0.15629652060E+03  0.15629652060E+03  0.00000000000E+00 0.  1.
         21   -1    0    0  501  503 -0.00000000000E+00 -0.00000000000E+00 -0.18931211199E+03  0.18931211199E+03  0.00000000000E+00 0.  1.
          6    2    1    2  501    0  0.16563929623E+02 -0.79884098542E+01 -0.19866059848E+02  0.17037035960E+03  0.16820588765E+03 0.  0.
         24    2    3    3    0    0  0.14746757244E+02  0.50509452478E+02 -0.45231835140E+02  0.10641088361E+03  0.80676425311E+02 0.  0.
         -6    2    1    2    0  502 -0.16563929623E+02  0.79884098542E+01 -0.13149531546E+02  0.17523827299E+03  0.17377388666E+03 0.  0.
          5    1    3    3  501    0  0.18171723795E+01 -0.58497862332E+02  0.25365775293E+02  0.63959475992E+02  0.47000000000E+01 0. -1.
        -11    1    4    4    0    0  0.16437976938E+02  0.14222243213E+02  0.21410709026E+02  0.30510616985E+02  0.00000000000E+00 0.  1.
         12    1    4    4    0    0 -0.16912196942E+01  0.36287209265E+02 -0.66642544166E+02  0.75900266622E+02  0.00000000000E+00 0. -1.
         -5    1    5    5    0  502 -0.21602115314E+02  0.79877635590E+02 -0.43766970332E+02  0.93726867789E+02  0.47000000000E+01 0.  1.
         13    1    5    5    0    0  0.12826324783E+02 -0.59402937547E+02  0.23406927787E+02  0.65123788780E+02  0.00000000000E+00 0. -1.
        -14    1    5    5    0    0 -0.77881390930E+01 -0.12486288189E+02  0.72105109986E+01  0.16387616426E+02  0.00000000000E+00 0.  1.
<mgrwt>
<rscale>  2 0.17334345E+03</rscale>
<asrwt>0</asrwt>
<pdfrwt beam="1">  1       21 0.24045619E-01 0.17474422E+03</pdfrwt>
<pdfrwt beam="2">  1       21 0.29124940E-01 0.17474422E+03</pdfrwt>
<totfact> 0.18511392E+05</totfact>
</mgrwt>
</event>
<event>
12    1  0.1039378E-001  0.1841106E+03  0.7546771E-02  0.1164464E+00
         21   -1    0    0  501  502  0.00000000000E+00  0.00000000000E+00  0.25393816740E+03  0.25393816740E+03  0.00000000000E+00 0. -1.
         21   -1    0    0  502  503 -0.00000000000E+00 -0.00000000000E+00 -0.13656488949E+03  0.13656488949E+03  0.00000000000E+00 0. -1.
         -6    2    1    2    0  503 -0.52509214984E+02  0.18886426477E+02  0.95880859379E+02  0.20758094595E+03  0.17545026407E+03 0.  0.
        -24    2    3    3    0    0 -0.21129523221E+02 -0.54776986222E+02  0.72044523576E+02  0.12390750733E+03  0.81949264946E+02 0.  0.
          6    2    1    2  501    0  0.52509214984E+02 -0.18886426477E+02  0.21492418536E+02  0.18292211094E+03  0.17287180178E+03 0.  0.
         24    2    5    5    0    0  0.47668399503E+01  0.48199660257E+02  0.33902818701E+02  0.99519560379E+02  0.80055054619E+02 0.  0.
          5    1    5    5  501    0  0.47742375034E+02 -0.67086086734E+02 -0.12410400165E+02  0.83402550557E+02  0.47000000000E+01 0. -1.
        -13    1    6    6    0    0 -0.29876510158E+02 -0.24991140329E-01  0.26022975674E+02  0.39620723702E+02  0.00000000000E+00 0.  1.
         14    1    6    6    0    0  0.34643350108E+02  0.48224651397E+02  0.78798430273E+01  0.59898836677E+02  0.00000000000E+00 0. -1.
         -5    1    3    3    0  503 -0.31379691763E+02  0.73663412700E+02  0.23836335803E+02  0.83673438618E+02  0.47000000000E+01 0.  1.
         13    1    4    4    0    0 -0.48216575889E+02 -0.24453093245E+02  0.19508503849E+02  0.57474983098E+02  0.00000000000E+00 0. -1.
        -14    1    4    4    0    0  0.27087052668E+02 -0.30323892978E+02  0.52536019727E+02  0.66432524236E+02  0.00000000000E+00 0.  1.
<mgrwt>
<rscale>  2 0.18349362E+03</rscale>
<asrwt>0</asrwt>
<pdfrwt beam="1">  1       21 0.39067410E-01 0.18411059E+03</pdfrwt>
<pdfrwt beam="2">  1       21 0.21009983E-01 0.18411059E+03</pdfrwt>
<totfact> 0.13335137E+05</totfact>
</mgrwt>
</event>
<event>
12    1  0.1039378E-001  0.2875590E+03  0.7546771E-02  0.1091805E+00
         21   -1    0    0  501  502  0.00000000000E+00  0.00000000000E+00  0.17249144608E+04  0.17249144608E+04  0.00000000000E+00 0.  1.
         21   -1    0    0  502  503 -0.00000000000E+00 -0.00000000000E+00 -0.63210277898E+02  0.63210277898E+02  0.00000000000E+00 0.  1.
         -6    2    1    2    0  503  0.23016680006E+03  0.24593837494E+01  0.38969279607E+03  0.48430430631E+03  0.17235829363E+03 0.  0.
        -24    2    3    3    0    0  0.18072140995E+03 -0.83047870964E+00  0.17658059577E+03  0.26545602618E+03  0.81395806548E+02 0.  0.
          6    2    1    2  501    0 -0.23016680006E+03 -0.24593837494E+01  0.12720113868E+04  0.13038204323E+04  0.17015271746E+03 0.  0.
         24    2    5    5    0    0 -0.16988974788E+03  0.48235540690E+02  0.70203571375E+03  0.72840957371E+03  0.80852766587E+02 0.  0.
          5    1    5    5  501    0 -0.60277052182E+02 -0.50694924440E+02  0.56997567303E+03  0.57541085863E+03  0.47000000000E+01 0. -1.
        -11    1    6    6    0    0 -0.12946950081E+03  0.11959423306E+02  0.58658017783E+03  0.60081751345E+03  0.00000000000E+00 0.  1.
         12    1    6    6    0    0 -0.40420247066E+02  0.36276117385E+02  0.11545553593E+03  0.12759206026E+03  0.00000000000E+00 0. -1.
         -5    1    3    3    0  503  0.49445390113E+02  0.32898624591E+01  0.21311220031E+03  0.21884828014E+03  0.47000000000E+01 0.  1.
         11    1    4    4    0    0  0.27468636076E+02  0.11488715652E+02  0.76279526286E+02  0.81884569276E+02  0.00000000000E+00 0. -1.
        -12    1    4    4    0    0  0.15325277387E+03 -0.12319194362E+02  0.10030106948E+03  0.18357145690E+03  0.00000000000E+00 0.  1.
<mgrwt>
<rscale>  2 0.28722931E+03</rscale>
<asrwt>0</asrwt>
<pdfrwt beam="1">  1       21 0.26537142E+00 0.28755901E+03</pdfrwt>
<pdfrwt beam="2">  1       21 0.97246594E-02 0.28755901E+03</pdfrwt>
<totfact> 0.42339064E+03</totfact>
</mgrwt>
</event>
<event>
12    1  0.1039378E-001  0.1855067E+03  0.7546771E-02  0.1162717E+00
         21   -1    0    0  503  502  0.00000000000E+00  0.00000000000E+00  0.15772379056E+03  0.15772379056E+03  0.00000000000E+00 0.  1.
         21   -1    0    0  501  503 -0.00000000000E+00 -0.00000000000E+00 -0.23406811938E+03  0.23406811938E+03  0.00000000000E+00 0.  1.
          6    2    1    2  501    0 -0.26431830613E+02 -0.62887726656E+02 -0.90260856197E+02  0.20576393060E+03  0.17186699840E+03 0.  0.
         24    2    3    3    0    0  0.35908959378E+01 -0.47383029792E+01  0.14090157788E+02  0.82500214513E+02  0.81070381765E+02 0.  0.
         -6    2    1    2    0  502  0.26431830613E+02  0.62887726656E+02  0.13916527372E+02  0.18602797934E+03  0.17250864190E+03 0.  0.
        -24    2    5    5    0    0 -0.17295453475E+02 -0.92638914773E+01 -0.33657802962E+02  0.89057167858E+02  0.80083575410E+02 0.  0.
          5    1    3    3  501    0 -0.30022726551E+02 -0.58149423677E+02 -0.10435101399E+03  0.12326371609E+03  0.47000000000E+01 0. -1.
        -11    1    4    4    0    0  0.51154225195E+01 -0.34730081870E+02  0.32028321499E+02  0.47520095879E+02  0.00000000000E+00 0.  1.
         12    1    4    4    0    0 -0.15245265817E+01  0.29991778891E+02 -0.17938163711E+02  0.34980118634E+02  0.00000000000E+00 0. -1.
         -5    1    5    5    0  502  0.43727284088E+02  0.72151618133E+02  0.47574330334E+02  0.96970811483E+02  0.47000000000E+01 0.  1.
         11    1    6    6    0    0  0.18461328474E+02 -0.32551714503E+02 -0.52366932754E+01  0.37787004678E+02  0.00000000000E+00 0. -1.
        -12    1    6    6    0    0 -0.35756781949E+02  0.23287823026E+02 -0.28421109687E+02  0.51270163179E+02  0.00000000000E+00 0.  1.
<mgrwt>
<rscale>  2 0.18535740E+03</rscale>
<asrwt>0</asrwt>
<pdfrwt beam="1">  1       21 0.24265199E-01 0.18550671E+03</pdfrwt>
<pdfrwt beam="2">  1       21 0.36010480E-01 0.18550671E+03</pdfrwt>
<totfact> 0.11952730E+05</totfact>
</mgrwt>
</event>
<event>
12    1  0.1039378E-001  0.1886026E+03  0.7546771E-02  0.1161724E+00
         21   -1    0    0  503  502  0.00000000000E+00  0.00000000000E+00  0.47834142593E+03  0.47834142593E+03  0.00000000000E+00 0.  1.
         21   -1    0    0  501  503 -0.00000000000E+00 -0.00000000000E+00 -0.13649508913E+03  0.13649508913E+03  0.00000000000E+00 0.  1.
          6    2    1    2  501    0  0.63186599577E+02  0.44902035416E+02 -0.44010816708E+02  0.18535231078E+03  0.16251088571E+03 0.  0.
         24    2    3    3    0    0 -0.22296609916E+02  0.33593916505E+02 -0.53165935410E+01  0.90723638779E+02  0.81097610486E+02 0.  0.
         -6    2    1    2    0  502 -0.63186599577E+02 -0.44902035416E+02  0.38585715351E+03  0.42948420428E+03  0.17193661524E+03 0.  0.
        -24    2    5    5    0    0 -0.53634716331E+02  0.73776937805E+01  0.10171257431E+03  0.14037412067E+03  0.80176884563E+02 0.  0.
          5    1    3    3  501    0  0.85483209493E+02  0.11308118911E+02 -0.38694223167E+02  0.94628672003E+02  0.47000000000E+01 0. -1.
        -13    1    4    4    0    0  0.11962458287E+02  0.39957791747E+02  0.21339501875E+02  0.46851892916E+02  0.00000000000E+00 0.  1.
         14    1    4    4    0    0 -0.34259068203E+02 -0.63638752417E+01 -0.26656095416E+02  0.43871745863E+02  0.00000000000E+00 0. -1.
         -5    1    5    5    0  502 -0.95518832456E+01 -0.52279729197E+02  0.28414457919E+03  0.28911008361E+03  0.47000000000E+01 0.  1.
         13    1    6    6    0    0 -0.12596184935E+02 -0.34988068499E+02  0.46908251857E+02  0.59859944074E+02  0.00000000000E+00 0. -1.
        -14    1    6    6    0    0 -0.41038531396E+02  0.42365762280E+02  0.54804322457E+02  0.80514176595E+02  0.00000000000E+00 0.  1.
<mgrwt>
<rscale>  2 0.18642747E+03</rscale>
<asrwt>0</asrwt>
<pdfrwt beam="1">  1       21 0.73590988E-01 0.18860259E+03</pdfrwt>
<pdfrwt beam="2">  1       21 0.20999245E-01 0.18860259E+03</pdfrwt>
<totfact> 0.35019711E+04</totfact>
</mgrwt>
</event>
<event>
12    1  0.1039378E-001  0.1832671E+03  0.7546771E-02  0.1167202E+00
         21   -1    0    0  503  502  0.00000000000E+00  0.00000000000E+00  0.92987769346E+03  0.92987769346E+03  0.00000000000E+00 0.  1.
         21   -1    0    0  501  503 -0.00000000000E+00 -0.00000000000E+00 -0.44366571678E+02  0.44366571678E+02  0.00000000000E+00 0.  1.
          6    2    1    2  501    0 -0.81195331491E+01  0.43482779642E+01  0.19870772828E+03  0.26340972687E+03  0.17267046242E+03 0.  0.
         24    2    3    3    0    0 -0.49086917119E+02  0.54277174698E+02  0.12881523309E+03  0.16812975960E+03  0.79490343210E+02 0.  0.
         -6    2    1    2    0  502  0.81195331491E+01 -0.43482779642E+01  0.68680339351E+03  0.71083453827E+03  0.18303552969E+03 0.  0.
        -24    2    5    5    0    0  0.36260823535E+02  0.90206801323E+01  0.16133276369E+03  0.18442012541E+03  0.81156035044E+02 0.  0.
          5    1    3    3  501    0  0.40967383970E+02 -0.49928896734E+02  0.69892495193E+02  0.95279967268E+02  0.47000000000E+01 0. -1.
        -13    1    4    4    0    0 -0.50480543311E+02  0.73283180354E+02  0.10659192615E+03  0.13885441475E+03  0.00000000000E+00 0.  1.
         14    1    4    4    0    0  0.13936261927E+01 -0.19006005656E+02  0.22223306940E+02  0.29275344853E+02  0.00000000000E+00 0. -1.
         -5    1    5    5    0  502 -0.28141290386E+02 -0.13368958097E+02  0.52547062981E+03  0.52641441286E+03  0.47000000000E+01 0.  1.
         13    1    6    6    0    0  0.83867853769E+01  0.17849200678E+02 -0.73591531032E+00  0.19735088172E+02  0.00000000000E+00 0. -1.
        -14    1    6    6    0    0  0.27874038158E+02 -0.88285205459E+01  0.16206867900E+03  0.16468503724E+03  0.00000000000E+00 0.  1.
<mgrwt>
<rscale>  2 0.18062264E+03</rscale>
<asrwt>0</asrwt>
<pdfrwt beam="1">  1       21 0.14305809E+00 0.18326713E+03</pdfrwt>
<pdfrwt beam="2">  1       21 0.68256271E-02 0.18326713E+03</pdfrwt>
<totfact> 0.53728017E+04</totfact>
</mgrwt>
</event>
<event>
12    1  0.1039378E-001  0.1788765E+03  0.7546771E-02  0.1169308E+00
         21   -1    0    0  501  502  0.00000000000E+00  0.00000000000E+00  0.37451546060E+02  0.37451546060E+02  0.00000000000E+00 0.  1.
         21   -1    0    0  502  503 -0.00000000000E+00 -0.00000000000E+00 -0.11229907295E+04  0.11229907295E+04  0.00000000000E+00 0.  1.
         -6    2    1    2    0  503  0.40774583086E+02  0.10492803024E+02 -0.82882672348E+03  0.84755558828E+03  0.17211644931E+03 0.  0.
        -24    2    3    3    0    0 -0.33704742182E+02  0.67598706696E+01 -0.27815653951E+03  0.29183907225E+03  0.81346654020E+02 0.  0.
          6    2    1    2  501    0 -0.40774583086E+02 -0.10492803024E+02 -0.25671245999E+03  0.31288668732E+03  0.17385087415E+03 0.  0.
         24    2    5    5    0    0 -0.75851283173E+02  0.32050918813E+02 -0.21628727460E+03  0.24435473294E+03  0.78411553992E+02 0.  0.
          5    1    5    5  501    0  0.35076700086E+02 -0.42543721837E+02 -0.40425185392E+02  0.68531954377E+02  0.47000000000E+01 0. -1.
        -13    1    6    6    0    0 -0.11699920395E+02 -0.14278417758E+02 -0.55896834283E+01  0.19287454777E+02  0.00000000000E+00 0.  1.
         14    1    6    6    0    0 -0.64151362778E+02  0.46329336571E+02 -0.21069759117E+03  0.22506727816E+03  0.00000000000E+00 0. -1.
         -5    1    3    3    0  503  0.74479325268E+02  0.37329323540E+01 -0.55067018397E+03  0.55571651603E+03  0.47000000000E+01 0.  1.
         11    1    4    4    0    0 -0.29093675502E+02  0.22505732323E+02 -0.27174596957E+03  0.27422403600E+03  0.00000000000E+00 0. -1.
        -12    1    4    4    0    0 -0.46110666799E+01 -0.15745861653E+02 -0.64105699428E+01  0.17615036251E+02  0.00000000000E+00 0.  1.
<mgrwt>
<rscale>  2 0.17845367E+03</rscale>
<asrwt>0</asrwt>
<pdfrwt beam="1">  1       21 0.57617764E-02 0.17887647E+03</pdfrwt>
<pdfrwt beam="2">  1       21 0.17276780E+00 0.17887647E+03</pdfrwt>
<totfact> 0.43497029E+04</totfact>
</mgrwt>
</event>
<event>
12    1  0.1039378E-001  0.1760245E+03  0.7546771E-02  0.1171798E+00
         21   -1    0    0  503  502  0.00000000000E+00  0.00000000000E+00  0.44768552318E+02  0.44768552318E+02  0.00000000000E+00 0.  1.
         21   -1    0    0  501  503 -0.00000000000E+00 -0.00000000000E+00 -0.88053440347E+03  0.88053440347E+03  0.00000000000E+00 0.  1.
          6    2    1    2  501    0 -0.19134950215E+02 -0.29378432413E+02 -0.20338962033E+03  0.26898318951E+03  0.17249747816E+03 0.  0.
         24    2    3    3    0    0  0.41639103046E+02 -0.98013674364E+01 -0.17682511665E+03  0.19966861760E+03  0.82283371774E+02 0.  0.
         -6    2    1    2    0  502  0.19134950215E+02  0.29378432413E+02 -0.63237623082E+03  0.65631976628E+03  0.17212408224E+03 0.  0.
        -24    2    5    5    0    0  0.42789558128E+01 -0.16675657574E+02 -0.13954129629E+03  0.16109250282E+03  0.78629727688E+02 0.  0.
          5    1    3    3  501    0 -0.60774053261E+02 -0.19577064976E+02 -0.26564503676E+02  0.69314571905E+02  0.47000000000E+01 0. -1.
        -13    1    4    4    0    0  0.91815836139E+01  0.12145370637E+02  0.30907225677E+01  0.15535896226E+02  0.00000000000E+00 0.  1.
         14    1    4    4    0    0  0.32457519432E+02 -0.21946738073E+02 -0.17991583922E+03  0.18413272138E+03  0.00000000000E+00 0. -1.
         -5    1    5    5    0  502  0.14855994402E+02  0.46054089987E+02 -0.49283493454E+03  0.49522726346E+03  0.47000000000E+01 0.  1.
         11    1    6    6    0    0 -0.34587707630E+02  0.65499413913E+01 -0.62447347722E+02  0.71685999253E+02  0.00000000000E+00 0. -1.
        -12    1    6    6    0    0  0.38866663443E+02 -0.23225598966E+02 -0.77093948566E+02  0.89406503566E+02  0.00000000000E+00 0.  1.
<mgrwt>
<rscale>  2 0.17593294E+03</rscale>
<asrwt>0</asrwt>
<pdfrwt beam="1">  1       21 0.68874701E-02 0.17602448E+03</pdfrwt>
<pdfrwt beam="2">  1       21 0.13546682E+00 0.17602448E+03</pdfrwt>
<totfact> 0.61099103E+04</totfact>
</mgrwt>
</event>
<event>
12    1  0.1039378E-001  0.2462392E+03  0.7546771E-02  0.1115748E+00
         21   -1    0    0  503  502  0.00000000000E+00  0.00000000000E+00  0.16131836376E+03  0.16131836376E+03  0.00000000000E+00 0.  1.
         21   -1    0    0  501  503 -0.00000000000E+00 -0.00000000000E+00 -0.37880272194E+03  0.37880272194E+03  0.00000000000E+00 0.  1.
          6    2    1    2  501    0 -0.11823202004E+03 -0.12812805448E+03 -0.13408613922E+03  0.28014223872E+03  0.17350784501E+03 0.  0.
         24    2    3    3    0    0 -0.96940463775E+02 -0.13552326484E+03 -0.47600936641E+02  0.19064475401E+03  0.79470524308E+02 0.  0.
         -6    2    1    2    0  502  0.11823202004E+03  0.12812805448E+03 -0.83398218962E+02  0.25997884698E+03  0.17389114136E+03 0.  0.
        -24    2    5    5    0    0  0.13305424417E+03  0.15130495281E+03 -0.64243168106E+02  0.22612810226E+03  0.80063183456E+02 0.  0.
          5    1    3    3  501    0 -0.21291556262E+02  0.73952103612E+01 -0.86485202580E+02  0.89497484711E+02  0.47000000000E+01 0. -1.
        -13    1    4    4    0    0  0.78544289748E+01 -0.35036611681E+02 -0.24894398920E+02  0.43691959331E+02  0.00000000000E+00 0.  1.
         14    1    4    4    0    0 -0.10479489275E+03 -0.10048665316E+03 -0.22706537721E+02  0.14695279468E+03  0.00000000000E+00 0. -1.
         -5    1    5    5    0  502 -0.14822224135E+02 -0.23176898334E+02 -0.19155050856E+02  0.33850744718E+02  0.47000000000E+01 0.  1.
         13    1    6    6    0    0  0.37399969776E+02 -0.30352099575E+00 -0.14268044549E+02  0.40030325498E+02  0.00000000000E+00 0. -1.
        -14    1    6    6    0    0  0.95654274395E+02  0.15160847381E+03 -0.49975123557E+02  0.18609777676E+03  0.00000000000E+00 0.  1.
<mgrwt>
<rscale>  2 0.24617153E+03</rscale>
<asrwt>0</asrwt>
<pdfrwt beam="1">  1       21 0.24818210E-01 0.24623919E+03</pdfrwt>
<pdfrwt beam="2">  1       21 0.58277342E-01 0.24623919E+03</pdfrwt>
<totfact> 0.41305420E+04</totfact>
</mgrwt>
</event>
<event>
12    1  0.1039378E-001  0.1916014E+03  0.7546771E-02  0.1157219E+00
         21   -1    0    0  501  502  0.00000000000E+00  0.00000000000E+00  0.73310136415E+02  0.73310136415E+02  0.00000000000E+00 0.  1.
         21   -1    0    0  502  503 -0.00000000000E+00 -0.00000000000E+00 -0.58432893554E+03  0.58432893554E+03  0.00000000000E+00 0.  1.
         -6    2    1    2    0  503  0.74132723123E+02  0.34444907100E+02 -0.38103698266E+03  0.42610856858E+03  0.17232880724E+03 0.  0.
        -24    2    3    3    0    0  0.17676014983E+02  0.60188419007E+02 -0.11951043448E+03  0.15728090315E+03  0.80743118954E+02 0.  0.
          6    2    1    2  501    0 -0.74132723123E+02 -0.34444907100E+02 -0.12998181647E+03  0.23153050337E+03  0.17328874492E+03 0.  0.
         24    2    5    5    0    0 -0.29887712442E+02 -0.37350633930E+02  0.13031750826E+01  0.92880212263E+02  0.79603331304E+02 0.  0.
          5    1    5    5  501    0 -0.44245010681E+02  0.29057268295E+01 -0.13128499155E+03  0.13865029111E+03  0.47000000000E+01 0. -1.
        -13    1    6    6    0    0 -0.56133671891E+02 -0.32744742975E+02  0.77999329383E+01  0.65452626122E+02  0.00000000000E+00 0.  1.
         14    1    6    6    0    0  0.26245959449E+02 -0.46058909551E+01 -0.64967578557E+01  0.27427586141E+02  0.00000000000E+00 0. -1.
         -5    1    3    3    0  503  0.56456708140E+02 -0.25743511907E+02 -0.26152654817E+03  0.26882766543E+03  0.47000000000E+01 0.  1.
         11    1    4    4    0    0 -0.23131597850E+02 -0.59113281981E+01 -0.36282276935E+02  0.43432916546E+02  0.00000000000E+00 0. -1.
        -12    1    4    4    0    0  0.40807612833E+02  0.66099747206E+02 -0.83228157547E+02  0.11384798661E+03  0.00000000000E+00 0.  1.
<mgrwt>
<rscale>  2 0.19138411E+03</rscale>
<asrwt>0</asrwt>
<pdfrwt beam="1">  1       21 0.11278482E-01 0.19160141E+03</pdfrwt>
<pdfrwt beam="2">  1       21 0.89896760E-01 0.19160141E+03</pdfrwt>
<totfact> 0.69085173E+04</totfact>
</mgrwt>
</event>
<event>
12    1  0.1039378E-001  0.1826485E+03  0.7546771E-02  0.1165384E+00
         21   -1    0    0  503  502  0.00000000000E+00  0.00000000000E+00  0.53675100380E+02  0.53675100380E+02  0.00000000000E+00 0. -1.
         21   -1    0    0  501  503 -0.00000000000E+00 -0.00000000000E+00 -0.93632026499E+03  0.93632026499E+03  0.00000000000E+00 0. -1.
          6    2    1    2  501    0 -0.39035907213E+02 -0.44765723978E+02 -0.72952218772E+03  0.75203929387E+03  0.17272146666E+03 0.  0.
         24    2    3    3    0    0 -0.53994335466E+02 -0.38291757067E+02 -0.23327450296E+03  0.25550176109E+03  0.80514031493E+02 0.  0.
         -6    2    1    2    0  502  0.39035907213E+02  0.44765723978E+02 -0.15312297689E+03  0.23795607150E+03  0.17218790265E+03 0.  0.
        -24    2    5    5    0    0  0.33417357845E+01 -0.15297375593E+02 -0.32329320793E+02  0.98332122423E+02  0.91536027985E+02 0.  0.
          5    1    3    3  501    0  0.14958428253E+02 -0.64739669109E+01 -0.49624768477E+03  0.49653753278E+03  0.47000000000E+01 0. -1.
        -13    1    4    4    0    0 -0.33723296278E+02  0.15600329306E+02 -0.43624144854E+02  0.57303551378E+02  0.00000000000E+00 0.  1.
         14    1    4    4    0    0 -0.20271039188E+02 -0.53892086373E+02 -0.18965035810E+03  0.19819820971E+03  0.00000000000E+00 0. -1.
         -5    1    5    5    0  502  0.35694171429E+02  0.60063099571E+02 -0.12079365609E+03  0.13962394908E+03  0.47000000000E+01 0.  1.
         13    1    6    6    0    0  0.76152699554E+01  0.29183569931E+02  0.14619263676E+02  0.33517099529E+02  0.00000000000E+00 0. -1.
        -14    1    6    6    0    0 -0.42735341709E+01 -0.44480945524E+02 -0.46948584470E+02  0.64815022894E+02  0.00000000000E+00 0.  1.
<mgrwt>
<rscale>  2 0.18252226E+03</rscale>
<asrwt>0</asrwt>
<pdfrwt beam="1">  1       21 0.82577080E-02 0.18264851E+03</pdfrwt>
<pdfrwt beam="2">  1       21 0.14404927E+00 0.18264851E+03</pdfrwt>
<totfact> 0.37956636E+04</totfact>
</mgrwt>
</event>
<event>
12    1  0.1039378E-001  0.2197747E+03  0.7546771E-02  0.1134703E+00
         21   -1    0    0  501  502  0.00000000000E+00  0.00000000000E+00  0.59988356667E+02  0.59988356667E+02  0.00000000000E+00 0.  1.
         21   -1    0    0  502  503 -0.00000000000E+00 -0.00000000000E+00 -0.88578880422E+03  0.88578880422E+03  0.00000000000E+00 0.  1.
         -6    2    1    2    0  503  0.73562126423E+02  0.10514638209E+03 -0.25652695002E+03  0.33555323633E+03  0.17413428788E+03 0.  0.
        -24    2    3    3    0    0  0.82410844017E+02  0.40459394862E+02 -0.23784541124E+03  0.26748124495E+03  0.80915183429E+02 0.  0.
          6    2    1    2  501    0 -0.73562126423E+02 -0.10514638209E+03 -0.56927349754E+03  0.61022392456E+03  0.17842022026E+03 0.  0.
         24    2    5    5    0    0 -0.59727126791E+02  0.88785566647E+01 -0.32580419976E+03  0.34097964360E+03  0.80452360574E+02 0.  0.
          5    1    5    5  501    0 -0.13834999633E+02 -0.11402493875E+03 -0.24346929777E+03  0.26924428096E+03  0.47000000000E+01 0. -1.
        -13    1    6    6    0    0 -0.23011240499E+01 -0.30490018033E+02 -0.11373885761E+03  0.11777717989E+03  0.00000000000E+00 0.  1.
         14    1    6    6    0    0 -0.57426002741E+02  0.39368574697E+02 -0.21206534215E+03  0.22320246371E+03  0.00000000000E+00 0. -1.
         -5    1    3    3    0  503 -0.88487175943E+01  0.64686987223E+02 -0.18681538780E+02  0.68071991379E+02  0.47000000000E+01 0.  1.
         11    1    4    4    0    0  0.75526955313E+02  0.27201945426E+02 -0.97285745673E+02  0.12613002468E+03  0.00000000000E+00 0. -1.
        -12    1    4    4    0    0  0.68838887044E+01  0.13257449436E+02 -0.14055966557E+03  0.14135122028E+03  0.00000000000E+00 0.  1.
<mgrwt>
<rscale>  2 0.21890330E+03</rscale>
<asrwt>0</asrwt>
<pdfrwt beam="1">  1       21 0.92289785E-02 0.21977471E+03</pdfrwt>
<pdfrwt beam="2">  1       21 0.13627519E+00 0.21977471E+03</pdfrwt>
<totfact> 0.35295983E+04</totfact>
</mgrwt>
</event>
<event>
12    1  0.1039378E-001  0.2803297E+03  0.7546771E-02  0.1095672E+00
         21   -1    0    0  503  502  0.00000000000E+00  0.00000000000E+00  0.16165886433E+04  0.16165886433E+04  0.00000000000E+00 0.  1.
         21   -1    0    0  501  503 -0.00000000000E+00 -0.00000000000E+00 -0.63205051239E+02  0.63205051239E+02  0.00000000000E+00 0. -1.
          6    2    1    2  501    0 -0.99861927075E+02 -0.19678208468E+03  0.37153328256E+03  0.46542639450E+03  0.17288480360E+03 0.  0.
         24    2    3    3    0    0 -0.22880591460E+02 -0.98856572254E+02  0.93124290076E+02  0.16038674279E+03  0.82192642721E+02 0.  0.
         -6    2    1    2    0  502  0.99861927075E+02  0.19678208468E+03  0.11818503095E+04  0.12143673001E+04  0.17094499706E+03 0.  0.
        -24    2    5    5    0    0  0.44216767355E+02  0.16237807858E+03  0.58513081468E+03  0.61405382781E+03  0.79763840507E+02 0.  0.
          5    1    3    3  501    0 -0.76981335615E+02 -0.97925512422E+02  0.27840899249E+03  0.30503965171E+03  0.47000000000E+01 0. -1.
        -11    1    4    4    0    0  0.25820470007E+02 -0.29322852933E+02  0.74464894489E+01  0.39774069199E+02  0.00000000000E+00 0.  1.
         12    1    4    4    0    0 -0.48701061467E+02 -0.69533719322E+02  0.85677800627E+02  0.12061267359E+03  0.00000000000E+00 0. -1.
         -5    1    5    5    0  502  0.55645159720E+02  0.34404006098E+02  0.59671949484E+03  0.60031347224E+03  0.47000000000E+01 0.  1.
         13    1    6    6    0    0  0.48392900028E+02  0.11620134095E+03  0.30248810889E+03  0.32763345439E+03  0.00000000000E+00 0. -1.
        -14    1    6    6    0    0 -0.41761326731E+01  0.46176737627E+02  0.28264270578E+03  0.28642037343E+03  0.00000000000E+00 0.  1.
<mgrwt>
<rscale>  2 0.28003120E+03</rscale>
<asrwt>0</asrwt>
<pdfrwt beam="1">  1       21 0.24870591E+00 0.28032971E+03</pdfrwt>
<pdfrwt beam="2">  1       21 0.97238553E-02 0.28032971E+03</pdfrwt>
<totfact> 0.53517712E+03</totfact>
</mgrwt>
</event>
<event>
12    1  0.1039378E-001  0.1867070E+03  0.7546771E-02  0.1163614E+00
         21   -1    0    0  501  502  0.00000000000E+00  0.00000000000E+00  0.14392837384E+03  0.14392837384E+03  0.00000000000E+00 0.  1.
         21   -1    0    0  502  503 -0.00000000000E+00 -0.00000000000E+00 -0.25713053393E+03  0.25713053393E+03  0.00000000000E+00 0. -1.
         -6    2    1    2    0  503  0.33123006635E+02  0.59849850757E+02 -0.11975984640E+03  0.21423681315E+03  0.16393856501E+03 0.  0.
        -24    2    3    3    0    0  0.28944943925E+02  0.85479257515E+01 -0.13643950939E+03  0.15992617999E+03  0.77780244974E+02 0.  0.
          6    2    1    2  501    0 -0.33123006635E+02 -0.59849850757E+02  0.65576863017E+01  0.18682209462E+03  0.17372493656E+03 0.  0.
         24    2    5    5    0    0 -0.24894789813E+02 -0.92476263550E+02  0.46509668998E+02  0.13437748303E+03  0.81991150463E+02 0.  0.
          5    1    5    5  501    0 -0.82282168218E+01  0.32626412793E+02 -0.39951982696E+02  0.52444611593E+02  0.47000000000E+01 0. -1.
        -11    1    6    6    0    0 -0.51464980229E+02 -0.33786888659E+02  0.25175313694E+02  0.66513114908E+02  0.00000000000E+00 0.  1.
         12    1    6    6    0    0  0.26570190416E+02 -0.58689374891E+02  0.21334355304E+02  0.67864368118E+02  0.00000000000E+00 0. -1.
         -5    1    3    3    0  503  0.41780627103E+01  0.51301925005E+02  0.16679662997E+02  0.54310633167E+02  0.47000000000E+01 0.  1.
         13    1    4    4    0    0  0.49855917641E+01  0.30620469187E+02 -0.11899507499E+03  0.12297274955E+03  0.00000000000E+00 0. -1.
        -14    1    4    4    0    0  0.23959352161E+02 -0.22072543435E+02 -0.17444434398E+02  0.36953430438E+02  0.00000000000E+00 0.  1.
<mgrwt>
<rscale>  2 0.18439702E+03</rscale>
<asrwt>0</asrwt>
<pdfrwt beam="1">  1       21 0.22142827E-01 0.18670697E+03</pdfrwt>
<pdfrwt beam="2">  1       21 0.39558543E-01 0.18670697E+03</pdfrwt>
<totfact> 0.11771298E+05</totfact>
</mgrwt>
</event>
<event>
12    1  0.1039378E-001  0.3001194E+03  0.7546771E-02  0.1085352E+00
         21   -1    0    0  501  502  0.00000000000E+00  0.00000000000E+00  0.25153149596E+03  0.25153149596E+03  0.00000000000E+00 0. -1.
         21   -1    0    0  502  503 -0.00000000000E+00 -0.00000000000E+00 -0.38081930498E+03  0.38081930498E+03  0.00000000000E+00 0.  1.
         -6    2    1    2    0  503  0.18516444838E+03 -0.16031976847E+03 -0.14473424153E+03  0.33319609269E+03  0.17344547964E+03 0.  0.
        -24    2    3    3    0    0  0.18908577558E+03 -0.11071212512E+03 -0.15644290389E+03  0.28185918725E+03  0.83424301514E+02 0.  0.
          6    2    1    2  501    0 -0.18516444838E+03  0.16031976847E+03  0.15446432512E+02  0.29915470825E+03  0.17107497211E+03 0.  0.
         24    2    5    5    0    0 -0.39978340389E+02  0.66940793990E+02 -0.38785710008E+02  0.11815234884E+03  0.79851791684E+02 0.  0.
          5    1    5    5  501    0 -0.14518610799E+03  0.93378974483E+02  0.54232142520E+02  0.18100235941E+03  0.47000000000E+01 0. -1.
        -11    1    6    6    0    0  0.47883094828E+01  0.85264105578E+01 -0.43327048551E+02  0.44416896794E+02  0.00000000000E+00 0.  1.
         12    1    6    6    0    0 -0.44766649872E+02  0.58414383432E+02  0.45413385431E+01  0.73735452045E+02  0.00000000000E+00 0. -1.
         -5    1    3    3    0  503 -0.39213272003E+01 -0.49607643357E+02  0.11708662360E+02  0.51336905445E+02  0.47000000000E+01 0.  1.
         13    1    4    4    0    0  0.44781915595E+02 -0.58019356770E+02 -0.18970836672E+02  0.75707056266E+02  0.00000000000E+00 0. -1.
        -14    1    4    4    0    0  0.14430385998E+03 -0.52692768346E+02 -0.13747206722E+03  0.20615213098E+03  0.00000000000E+00 0.  1.
<mgrwt>
<rscale>  2 0.29977786E+03</rscale>
<asrwt>0</asrwt>
<pdfrwt beam="1">  1       21 0.38697153E-01 0.30011937E+03</pdfrwt>
<pdfrwt beam="2">  1       21 0.58587585E-01 0.30011937E+03</pdfrwt>
<totfact> 0.16619993E+04</totfact>
</mgrwt>
</event>
<event>
12    1  0.1039378E-001  0.1755157E+03  0.7546771E-02  0.1172695E+00
         21   -1    0    0  503  502  0.00000000000E+00  0.00000000000E+00  0.39579549435E+02  0.39579549435E+02  0.00000000000E+00 0.  1.
         21   -1    0    0  501  503 -0.00000000000E+00 -0.00000000000E+00 -0.16377772083E+04  0.16377772083E+04  0.00000000000E+00 0.  1.
          6    2    1    2  501    0 -0.85909248373E+01 -0.13977733368E+02 -0.14116708270E+04  0.14225400859E+04  0.17474722066E+03 0.  0.
         24    2    3    3    0    0 -0.23469233161E+02  0.39608375793E+02 -0.44254163778E+03  0.45180515268E+03  0.78518574100E+02 0.  0.
         -6    2    1    2    0  502  0.85909248373E+01  0.13977733368E+02 -0.18652683191E+03  0.25481667190E+03  0.17282967405E+03 0.  0.
        -24    2    5    5    0    0  0.22650513224E+02  0.70502167860E+02 -0.15310842375E+03  0.18749978156E+03  0.78932738710E+02 0.  0.
          5    1    3    3  501    0  0.14878308323E+02 -0.53586109161E+02 -0.96912918921E+03  0.97073493319E+03  0.47000000000E+01 0. -1.
        -11    1    4    4    0    0 -0.13206705787E+02 -0.34350559132E+00 -0.35269300769E+03  0.35294035296E+03  0.00000000000E+00 0.  1.
         12    1    4    4    0    0 -0.10262527373E+02  0.39951881385E+02 -0.89848630096E+02  0.98864799723E+02  0.00000000000E+00 0. -1.
         -5    1    5    5    0  502 -0.14059588387E+02 -0.56524434492E+02 -0.33418408165E+02  0.67316890336E+02  0.47000000000E+01 0.  1.
         11    1    6    6    0    0  0.26504233474E+02  0.62017537697E+01 -0.10112663889E+03  0.10472599121E+03  0.00000000000E+00 0. -1.
        -12    1    6    6    0    0 -0.38537202497E+01  0.64300414091E+02 -0.51981784861E+02  0.82773790352E+02  0.00000000000E+00 0.  1.
<mgrwt>
<rscale>  2 0.17503651E+03</rscale>
<asrwt>0</asrwt>
<pdfrwt beam="1">  1       21 0.60891629E-02 0.17551573E+03</pdfrwt>
<pdfrwt beam="2">  1       21 0.25196566E+00 0.17551573E+03</pdfrwt>
<totfact> 0.12656247E+04</totfact>
</mgrwt>
</event>
<event>
12    1  0.1039378E-001  0.2418193E+03  0.7546771E-02  0.1118663E+00
         21   -1    0    0  501  502  0.00000000000E+00  0.00000000000E+00  0.23459393769E+03  0.23459393769E+03  0.00000000000E+00 0. -1.
         21   -1    0    0  502  503 -0.00000000000E+00 -0.00000000000E+00 -0.28755803082E+03  0.28755803082E+03  0.00000000000E+00 0.  1.
         -6    2    1    2    0  503  0.13471240024E+03  0.10126334922E+03 -0.12232260468E+03  0.27058253351E+03  0.17277265741E+03 0.  0.
        -24    2    3    3    0    0  0.61063249502E+02 -0.63705072450E+01 -0.15303584188E+02  0.10180929745E+03  0.79759824197E+02 0.  0.
          6    2    1    2  501    0 -0.13471240024E+03 -0.10126334922E+03  0.69358511542E+02  0.25156943500E+03  0.17342110837E+03 0.  0.
         24    2    5    5    0    0 -0.12389802166E+03 -0.97521832328E+01  0.56910988742E+02  0.15846586305E+03  0.80166977395E+02 0.  0.
          5    1    5    5  501    0 -0.10814378579E+02 -0.91511165992E+02  0.12447522800E+02  0.93103571946E+02  0.47000000000E+01 0. -1.
        -11    1    6    6    0    0 -0.24514669615E+02 -0.37060549698E+02  0.22496889937E+02  0.49805255015E+02  0.00000000000E+00 0.  1.
         12    1    6    6    0    0 -0.99383352045E+02  0.27308366465E+02  0.34414098804E+02  0.10866060804E+03  0.00000000000E+00 0. -1.
         -5    1    3    3    0  503  0.73649150737E+02  0.10763385647E+03 -0.10701902049E+03  0.16877323606E+03  0.47000000000E+01 0.  1.
         11    1    4    4    0    0  0.80740393705E+02 -0.44131705948E+01 -0.11543325682E+02  0.81680693057E+02  0.00000000000E+00 0. -1.
        -12    1    4    4    0    0 -0.19677144204E+02 -0.19573366503E+01 -0.37602585059E+01  0.20128604393E+02  0.00000000000E+00 0.  1.
<mgrwt>
<rscale>  2 0.24170307E+03</rscale>
<asrwt>0</asrwt>
<pdfrwt beam="1">  1       21 0.36091375E-01 0.24181931E+03</pdfrwt>
<pdfrwt beam="2">  1       21 0.44239697E-01 0.24181931E+03</pdfrwt>
<totfact> 0.35464271E+04</totfact>
</mgrwt>
</event>
<event>
12    1  0.1039378E-001  0.1975175E+03  0.7546771E-02  0.1151854E+00
         21   -1    0    0  501  502  0.00000000000E+00  0.00000000000E+00  0.58033395187E+02  0.58033395187E+02  0.00000000000E+00 0. -1.
         21   -1    0    0  502  503 -0.00000000000E+00 -0.00000000000E+00 -0.68040783159E+03  0.68040783159E+03  0.00000000000E+00 0. -1.
         -6    2    1    2    0  503 -0.16919420559E+02 -0.92451126633E+02 -0.35174437217E+03  0.40339822886E+03  0.17370247576E+03 0.  0.
        -24    2    3    3    0    0 -0.13188614629E+02 -0.56760710485E+02 -0.74246860376E+02  0.12355062074E+03  0.79727296452E+02 0.  0.
          6    2    1    2  501    0  0.16919420559E+02  0.92451126633E+02 -0.27063006424E+03  0.33504299792E+03  0.17372305886E+03 0.  0.
         24    2    5    5    0    0  0.27560214545E+02  0.11413537299E+03 -0.27509089163E+03  0.31003455899E+03  0.81608702484E+02 0.  0.
          5    1    5    5  501    0 -0.10640793986E+02 -0.21684246355E+02  0.44608273884E+01  0.25008438928E+02  0.47000000000E+01 0. -1.
        -13    1    6    6    0    0 -0.22728456022E+02  0.12425555596E+02 -0.82875448988E+02  0.86829241560E+02  0.00000000000E+00 0.  1.
         14    1    6    6    0    0  0.50288670568E+02  0.10170981739E+03 -0.19221544264E+03  0.22320531743E+03  0.00000000000E+00 0. -1.
         -5    1    3    3    0  503 -0.37308059295E+01 -0.35690416148E+02 -0.27749751179E+03  0.27984760811E+03  0.47000000000E+01 0.  1.
         11    1    4    4    0    0 -0.46395937356E+02 -0.41070222260E+02 -0.44471543100E+02  0.76269681429E+02  0.00000000000E+00 0. -1.
        -12    1    4    4    0    0  0.33207322727E+02 -0.15690488225E+02 -0.29775317276E+02  0.47280939312E+02  0.00000000000E+00 0.  1.
<mgrwt>
<rscale>  2 0.19751301E+03</rscale>
<asrwt>0</asrwt>
<pdfrwt beam="1">  1       21 0.89282152E-02 0.19751754E+03</pdfrwt>
<pdfrwt beam="2">  1       21 0.10467812E+00 0.19751754E+03</pdfrwt>
<totfact> 0.72745803E+04</totfact>
</mgrwt>
</event>
<event>
12    1  0.1039378E-001  0.2241434E+03  0.7546771E-02  0.1131498E+00
         21   -1    0    0  501  502  0.00000000000E+00  0.00000000000E+00  0.14844738692E+04  0.14844738692E+04  0.00000000000E+00 0.  1.
         21   -1    0    0  502  503 -0.00000000000E+00 -0.00000000000E+00 -0.36512412750E+02  0.36512412750E+02  0.00000000000E+00 0. -1.
         -6    2    1    2    0  503  0.50186141214E+01  0.14356053735E+03  0.50371716346E+03  0.55133585839E+03  0.17206229573E+03 0.  0.
        -24    2    3    3    0    0  0.68208168455E+02  0.49293834442E+02  0.19413016324E+03  0.22157028748E+03  0.65761962077E+02 0.  0.
          6    2    1    2  501    0 -0.50186141214E+01 -0.14356053735E+03  0.94424429297E+03  0.96965042354E+03  0.16730165776E+03 0.  0.
         24    2    5    5    0    0 -0.62492887293E+02 -0.61153968406E+02  0.55230376376E+03  0.56501033270E+03  0.80944794600E+02 0.  0.
          5    1    5    5  501    0  0.57474273171E+02 -0.82406568942E+02  0.39194052921E+03  0.40464009084E+03  0.47000000000E+01 0. -1.
        -13    1    6    6    0    0 -0.18462988414E+02 -0.71419850067E+02  0.35703828329E+03  0.36457922686E+03  0.00000000000E+00 0.  1.
         14    1    6    6    0    0 -0.44029898879E+02  0.10265881661E+02  0.19526548048E+03  0.20043110584E+03  0.00000000000E+00 0. -1.
         -5    1    3    3    0  503 -0.63189554334E+02  0.94266702906E+02  0.30958700023E+03  0.32976557092E+03  0.47000000000E+01 0.  1.
         13    1    4    4    0    0  0.14838730126E+02  0.13799249909E+02  0.36422513697E+01  0.20588181193E+02  0.00000000000E+00 0. -1.
        -14    1    4    4    0    0  0.53369438329E+02  0.35494584534E+02  0.19048791187E+03  0.20098210628E+03  0.00000000000E+00 0.  1.
<mgrwt>
<rscale>  2 0.22322945E+03</rscale>
<asrwt>0</asrwt>
<pdfrwt beam="1">  1       21 0.22838055E+00 0.22414336E+03</pdfrwt>
<pdfrwt beam="2">  1       21 0.56172954E-02 0.22414336E+03</pdfrwt>
<totfact> 0.19255752E+04</totfact>
</mgrwt>
</event>
<event>
12    1  0.1039378E-001  0.1780642E+03  0.7546771E-02  0.1169994E+00
         21   -1    0    0  503  502  0.00000000000E+00  0.00000000000E+00  0.19563142611E+03  0.19563142611E+03  0.00000000000E+00 0. -1.
         21   -1    0    0  501  503 -0.00000000000E+00 -0.00000000000E+00 -0.34052207666E+03  0.34052207666E+03  0.00000000000E+00 0. -1.
          6    2    1    2  501    0  0.18923392433E+02 -0.35570084668E+02 -0.26723637353E+03  0.32112635026E+03  0.17344603711E+03 0.  0.
         24    2    3    3    0    0  0.23808800157E+01  0.44776698155E+02 -0.17040006059E+03  0.19412783952E+03  0.81478930647E+02 0.  0.
         -6    2    1    2    0  502 -0.18923392433E+02  0.35570084668E+02  0.12234572298E+03  0.21502715251E+03  0.17217687034E+03 0.  0.
        -24    2    5    5    0    0  0.55432846196E+02  0.11867061056E+02  0.76675556528E+02  0.12448137594E+03  0.80017775596E+02 0.  0.
          5    1    3    3  501    0  0.16542512417E+02 -0.80346782823E+02 -0.96836312935E+02  0.12699851074E+03  0.47000000000E+01 0. -1.
        -13    1    4    4    0    0 -0.32776712072E+02  0.23086861281E+01 -0.35374821055E+02  0.48280646750E+02  0.00000000000E+00 0.  1.
         14    1    4    4    0    0  0.35157592087E+02  0.42468012027E+02 -0.13502523954E+03  0.14584719277E+03  0.00000000000E+00 0. -1.
         -5    1    5    5    0  502 -0.74356238629E+02  0.23703023612E+02  0.45670166456E+02  0.90545776575E+02  0.47000000000E+01 0.  1.
         13    1    6    6    0    0  0.11780995135E+02 -0.46607820791E+01  0.76766789957E+02  0.77805236175E+02  0.00000000000E+00 0. -1.
        -14    1    6    6    0    0  0.43651851061E+02  0.16527843135E+02 -0.91233428692E-01  0.46676139764E+02  0.00000000000E+00 0.  1.
<mgrwt>
<rscale>  2 0.17775437E+03</rscale>
<asrwt>0</asrwt>
<pdfrwt beam="1">  1       21 0.30097142E-01 0.17806418E+03</pdfrwt>
<pdfrwt beam="2">  1       21 0.52388012E-01 0.17806418E+03</pdfrwt>
<totfact> 0.36872713E+04</totfact>
</mgrwt>
</event>
<event>
12    1  0.1039378E-001  0.1868470E+03  0.7546771E-02  0.1163701E+00
         21   -1    0    0  501  502  0.00000000000E+00  0.00000000000E+00  0.18657096279E+03  0.18657096279E+03  0.00000000000E+00 0. -1.
         21   -1    0    0  502  503 -0.00000000000E+00 -0.00000000000E+00 -0.73118003125E+03  0.73118003125E+03  0.00000000000E+00 0. -1.
         -6    2    1    2    0  503  0.20821867508E+02  0.16085142029E+02 -0.66985132204E+03  0.69281232223E+03  0.17491666083E+03 0.  0.
        -24    2    3    3    0    0  0.26854829797E+02  0.39872168742E+02 -0.65889667974E+03  0.66553021341E+03  0.80465263675E+02 0.  0.
          6    2    1    2  501    0 -0.20821867508E+02 -0.16085142029E+02  0.12524225358E+03  0.22493867181E+03  0.18498514003E+03 0.  0.
         24    2    5    5    0    0 -0.64864325526E+02  0.38215883265E+02  0.10761838910E+03  0.15268197623E+03  0.77860347629E+02 0.  0.
          5    1    5    5  501    0  0.44042458018E+02 -0.54301025294E+02  0.17623864475E+02  0.72256695574E+02  0.47000000000E+01 0. -1.
        -11    1    6    6    0    0 -0.15509806390E+02 -0.12222791262E+02 -0.44535380822E+01  0.20243140120E+02  0.00000000000E+00 0.  1.
         12    1    6    6    0    0 -0.49354519136E+02  0.50438674527E+02  0.11207192719E+03  0.13243883611E+03  0.00000000000E+00 0. -1.
         -5    1    3    3    0  503 -0.60329622888E+01 -0.23787026713E+02 -0.10954642293E+02  0.27282108819E+02  0.47000000000E+01 0.  1.
         13    1    4    4    0    0 -0.14598858497E+02 -0.34141593205E+00 -0.40014736916E+03  0.40041373638E+03  0.00000000000E+00 0. -1.
        -14    1    4    4    0    0  0.41453688294E+02  0.40213584675E+02 -0.25874931058E+03  0.26511647703E+03  0.00000000000E+00 0.  1.
<mgrwt>
<rscale>  2 0.18430493E+03</rscale>
<asrwt>0</asrwt>
<pdfrwt beam="1">  1       21 0.28703225E-01 0.18684695E+03</pdfrwt>
<pdfrwt beam="2">  1       21 0.11248924E+00 0.18684695E+03</pdfrwt>
<totfact> 0.72151212E+03</totfact>
</mgrwt>
</event>
<event>
12    1  0.1039378E-001  0.2452307E+03  0.7546771E-02  0.1116559E+00
         21   -1    0    0  503  502  0.00000000000E+00  0.00000000000E+00  0.19535585024E+03  0.19535585024E+03  0.00000000000E+00 0. -1.
         21   -1    0    0  501  503 -0.00000000000E+00 -0.00000000000E+00 -0.35132232864E+03  0.35132232864E+03  0.00000000000E+00 0. -1.
          6    2    1    2  501    0  0.12603414678E+03 -0.11663518722E+03 -0.17603436908E+03  0.30187117754E+03  0.17507065911E+03 0.  0.
         24    2    3    3    0    0  0.95004655438E+01 -0.15455228677E+02 -0.99094738040E+02  0.12936239603E+03  0.81152569037E+02 0.  0.
         -6    2    1    2    0  502 -0.12603414678E+03  0.11663518722E+03  0.20067890689E+02  0.24480700134E+03  0.17331870821E+03 0.  0.
        -24    2    5    5    0    0 -0.56781591045E+02  0.11340390476E+03 -0.37592776904E+02  0.15451192811E+03  0.79850637791E+02 0.  0.
          5    1    3    3  501    0  0.11653368124E+03 -0.10117995854E+03 -0.76939631042E+02  0.17250878151E+03  0.47000000000E+01 0. -1.
        -13    1    4    4    0    0  0.15219619141E+02 -0.25740581946E+02 -0.10958831344E+03  0.11359495063E+03  0.00000000000E+00 0.  1.
         14    1    4    4    0    0 -0.57191535974E+01  0.10285353270E+02  0.10493575403E+02  0.15767445402E+02  0.00000000000E+00 0. -1.
         -5    1    5    5    0  502 -0.69252555735E+02  0.32312824553E+01  0.57660667593E+02  0.90295073229E+02  0.47000000000E+01 0.  1.
         13    1    6    6    0    0  0.18430098466E+02  0.76832042007E+01 -0.26365695302E+01  0.20140795792E+02  0.00000000000E+00 0. -1.
        -14    1    6    6    0    0 -0.75211689511E+02  0.10572070056E+03 -0.34956207373E+02  0.13437113232E+03  0.00000000000E+00 0.  1.
<mgrwt>
<rscale>  2 0.24491822E+03</rscale>
<asrwt>0</asrwt>
<pdfrwt beam="1">  1       21 0.30054746E-01 0.24523073E+03</pdfrwt>
<pdfrwt beam="2">  1       21 0.54049589E-01 0.24523073E+03</pdfrwt>
<totfact> 0.33481944E+04</totfact>
</mgrwt>
</event>
<event>
12    1  0.1039378E-001  0.2041863E+03  0.7546771E-02  0.1149559E+00
         21   -1    0    0  503  502  0.00000000000E+00  0.00000000000E+00  0.25289093708E+03  0.25289093708E+03  0.00000000000E+00 0. -1.
         21   -1    0    0  501  503 -0.00000000000E+00 -0.00000000000E+00 -0.33834089143E+03  0.33834089143E+03  0.00000000000E+00 0. -1.
          6    2    1    2  501    0  0.45045275349E+02 -0.60589951208E+02 -0.26089983461E+03  0.32202058909E+03  0.17299802623E+03 0.  0.
         24    2    3    3    0    0  0.83253110252E+01  0.17729429895E+02 -0.19878292313E+03  0.21542376959E+03  0.80679033755E+02 0.  0.
         -6    2    1    2    0  502 -0.45045275349E+02  0.60589951208E+02  0.17544988026E+03  0.26921123943E+03  0.18971508092E+03 0.  0.
        -24    2    5    5    0    0 -0.55048617532E+02  0.94319067863E+02  0.61943355209E+02  0.15028461753E+03  0.82595703022E+02 0.  0.
          5    1    3    3  501    0  0.36719964323E+02 -0.78319381104E+02 -0.62116911483E+02  0.10659681950E+03  0.47000000000E+01 0. -1.
        -13    1    4    4    0    0 -0.23239171679E+02 -0.87301239407E+01 -0.19774526754E+02  0.31738085523E+02  0.00000000000E+00 0.  1.
         14    1    4    4    0    0  0.31564482704E+02  0.26459553836E+02 -0.17900839637E+03  0.18368568406E+03  0.00000000000E+00 0. -1.
         -5    1    5    5    0  502  0.10003342183E+02 -0.33729116655E+02  0.11350652505E+03  0.11892662189E+03  0.47000000000E+01 0.  1.
         11    1    6    6    0    0 -0.59613249704E+02  0.61366842133E+02  0.75746360938E+02  0.11426784346E+03  0.00000000000E+00 0. -1.
        -12    1    6    6    0    0  0.45646321726E+01  0.32952225730E+02 -0.13803005729E+02  0.36016774072E+02  0.00000000000E+00 0.  1.
<mgrwt>
<rscale>  2 0.20021409E+03</rscale>
<asrwt>0</asrwt>
<pdfrwt beam="1">  1       21 0.38906298E-01 0.20418627E+03</pdfrwt>
<pdfrwt beam="2">  1       21 0.52052445E-01 0.20418627E+03</pdfrwt>
<totfact> 0.22162322E+04</totfact>
</mgrwt>
</event>
<event>
12    1  0.1039378E-001  0.1972687E+03  0.7546771E-02  0.1152200E+00
         21   -1    0    0  503  502  0.00000000000E+00  0.00000000000E+00  0.35500559856E+02  0.35500559856E+02  0.00000000000E+00 0.  1.
         21   -1    0    0  501  503 -0.00000000000E+00 -0.00000000000E+00 -0.13780781268E+04  0.13780781268E+04  0.00000000000E+00 0.  1.
          6    2    1    2  501    0 -0.23271482432E+02  0.90645402314E+02 -0.99379038514E+03  0.10131802808E+04  0.17365713595E+03 0.  0.
         24    2    3    3    0    0 -0.40294754656E+02  0.80250869527E+02 -0.37881543347E+03  0.39786400494E+03  0.82041236444E+02 0.  0.
         -6    2    1    2    0  502  0.23271482432E+02 -0.90645402314E+02 -0.34878718185E+03  0.40039840594E+03  0.17293997341E+03 0.  0.
        -24    2    5    5    0    0  0.17178209039E+02 -0.67142059752E+02 -0.35882903930E+03  0.37370638479E+03  0.78070708534E+02 0.  0.
          5    1    3    3  501    0  0.17023272224E+02  0.10394532787E+02 -0.61497495167E+03  0.61531627582E+03  0.47000000000E+01 0. -1.
        -11    1    4    4    0    0 -0.22714973728E+02  0.79615895433E+02 -0.36803424661E+03  0.37723184849E+03  0.00000000000E+00 0.  1.
         12    1    4    4    0    0 -0.17579780929E+02  0.63497409383E+00 -0.10781186861E+02  0.20632156449E+02  0.00000000000E+00 0. -1.
         -5    1    5    5    0  502  0.60932733938E+01 -0.23503342562E+02  0.10041857453E+02  0.26692021155E+02  0.47000000000E+01 0.  1.
         13    1    6    6    0    0 -0.24848558664E+02 -0.55265294574E+02 -0.19936739844E+03  0.20837241471E+03  0.00000000000E+00 0. -1.
        -14    1    6    6    0    0  0.42026767703E+02 -0.11876765178E+02 -0.15946164087E+03  0.16533397008E+03  0.00000000000E+00 0.  1.
<mgrwt>
<rscale>  2 0.19711078E+03</rscale>
<asrwt>0</asrwt>
<pdfrwt beam="1">  1       21 0.54616252E-02 0.19726873E+03</pdfrwt>
<pdfrwt beam="2">  1       21 0.21201200E+00 0.19726873E+03</pdfrwt>
<totfact> 0.26006233E+04</totfact>
</mgrwt>
</event>
<event>
12    1  0.1039378E-001  0.3444819E+03  0.7546771E-02  0.1065114E+00
         21   -1    0    0  503  502  0.00000000000E+00  0.00000000000E+00  0.35961746259E+03  0.35961746259E+03  0.00000000000E+00 0.  1.
         21   -1    0    0  501  503 -0.00000000000E+00 -0.00000000000E+00 -0.60221591936E+03  0.60221591936E+03  0.00000000000E+00 0. -1.
          6    2    1    2  501    0 -0.43166492967E+02  0.29453882838E+03 -0.44558968607E+03  0.56199190263E+03  0.16931704804E+03 0.  0.
         24    2    3    3    0    0 -0.21247726297E+02  0.68179140523E+02 -0.20469730899E+03  0.23067578780E+03  0.78806533302E+02 0.  0.
         -6    2    1    2    0  502  0.43166492967E+02 -0.29453882838E+03  0.20299122930E+03  0.39984147932E+03  0.17335311325E+03 0.  0.
        -24    2    5    5    0    0  0.92255788305E+02 -0.20825859305E+03  0.17061143373E+03  0.29532076804E+03  0.78888038764E+02 0.  0.
          5    1    3    3  501    0 -0.21918766670E+02  0.22635968786E+03 -0.24089237707E+03  0.33131611484E+03  0.47000000000E+01 0. -1.
        -11    1    4    4    0    0  0.30183683767E+00  0.59608960757E+02 -0.61631162374E+02  0.85742168642E+02  0.00000000000E+00 0.  1.
         12    1    4    4    0    0 -0.21549563135E+02  0.85701797667E+01 -0.14306614662E+03  0.14493361915E+03  0.00000000000E+00 0. -1.
         -5    1    5    5    0  502 -0.49089295338E+02 -0.86280235325E+02  0.32379795568E+02  0.10452071128E+03  0.47000000000E+01 0.  1.
         13    1    6    6    0    0  0.10370699677E+03 -0.20177690856E+03  0.16690822483E+03  0.28165123384E+03  0.00000000000E+00 0. -1.
        -14    1    6    6    0    0 -0.11451208464E+02 -0.64816844915E+01  0.37032089055E+01  0.13669534203E+02  0.00000000000E+00 0.  1.
<mgrwt>
<rscale>  2 0.34397745E+03</rscale>
<asrwt>0</asrwt>
<pdfrwt beam="1">  1       21 0.55325764E-01 0.34448189E+03</pdfrwt>
<pdfrwt beam="2">  1       21 0.92648602E-01 0.34448189E+03</pdfrwt>
<totfact> 0.27432098E+03</totfact>
</mgrwt>
</event>
<event>
12    1  0.1039378E-001  0.2107522E+03  0.7546771E-02  0.1141686E+00
         21   -1    0    0  501  502  0.00000000000E+00  0.00000000000E+00  0.11336157850E+04  0.11336157850E+04  0.00000000000E+00 0. -1.
         21   -1    0    0  502  503 -0.00000000000E+00 -0.00000000000E+00 -0.59379391278E+02  0.59379391278E+02  0.00000000000E+00 0.  1.
         -6    2    1    2    0  503 -0.92090307002E+01  0.12095515288E+03  0.18056184894E+03  0.27480636511E+03  0.16793153889E+03 0.  0.
        -24    2    3    3    0    0  0.96580284731E+01  0.12450219408E+03  0.19879271221E+03  0.24791767235E+03  0.79690375777E+02 0.  0.
          6    2    1    2  501    0  0.92090307002E+01 -0.12095515288E+03  0.89367454481E+03  0.91818881120E+03  0.17234136394E+03 0.  0.
         24    2    5    5    0    0 -0.25428948266E+02 -0.51897036380E+02  0.23911327023E+03  0.25906714928E+03  0.81244680072E+02 0.  0.
          5    1    5    5  501    0  0.34637978966E+02 -0.69058116504E+02  0.65456127458E+03  0.65912166192E+03  0.47000000000E+01 0. -1.
        -11    1    6    6    0    0  0.27093750952E+02 -0.21485227563E+01  0.72445059394E+02  0.77375539554E+02  0.00000000000E+00 0.  1.
         12    1    6    6    0    0 -0.52522699218E+02 -0.49748513623E+02  0.16666821084E+03  0.18169160973E+03  0.00000000000E+00 0. -1.
         -5    1    3    3    0  503 -0.18867059173E+02 -0.35470411929E+01 -0.18230863262E+02  0.26888692760E+02  0.47000000000E+01 0.  1.
         13    1    4    4    0    0  0.35089222806E+02  0.79902150940E+02  0.79517417764E+02  0.11806196259E+03  0.00000000000E+00 0. -1.
        -14    1    4    4    0    0 -0.25431194332E+02  0.44600043136E+02  0.11927529444E+03  0.12985570976E+03  0.00000000000E+00 0.  1.
<mgrwt>
<rscale>  2 0.20984879E+03</rscale>
<asrwt>0</asrwt>
<pdfrwt beam="1">  1       21 0.17440241E+00 0.21075223E+03</pdfrwt>
<pdfrwt beam="2">  1       21 0.91352918E-02 0.21075223E+03</pdfrwt>
<totfact> 0.18677180E+04</totfact>
</mgrwt>
</event>
<event>
12    1  0.1039378E-001  0.2101986E+03  0.7546771E-02  0.1141878E+00
         21   -1    0    0  501  502  0.00000000000E+00  0.00000000000E+00  0.17317725572E+04  0.17317725572E+04  0.00000000000E+00 0.  1.
         21   -1    0    0  502  503 -0.00000000000E+00 -0.00000000000E+00 -0.43710742055E+02  0.43710742055E+02  0.00000000000E+00 0.  1.
         -6    2    1    2    0  503  0.64998607245E+02 -0.95100685568E+02  0.26401916224E+03  0.33601085529E+03  0.17299773843E+03 0.  0.
        -24    2    3    3    0    0  0.10788055450E+03 -0.95813355910E+02  0.21065709612E+03  0.26738892439E+03  0.79385209779E+02 0.  0.
          6    2    1    2  501    0 -0.64998607245E+02  0.95100685568E+02  0.14240426529E+04  0.14394724439E+04  0.17582514126E+03 0.  0.
         24    2    5    5    0    0  0.25432517504E+02  0.23450846631E+02  0.45662439247E+03  0.46518723502E+03  0.81832589310E+02 0.  0.
          5    1    5    5  501    0 -0.90431124749E+02  0.71649838937E+02  0.96741826039E+03  0.97428520890E+03  0.47000000000E+01 0. -1.
        -11    1    6    6    0    0 -0.18864723484E+02  0.36143638272E+02  0.26388827619E+03  0.26701921783E+03  0.00000000000E+00 0.  1.
         12    1    6    6    0    0  0.44297240988E+02 -0.12692791641E+02  0.19273611627E+03  0.19816801719E+03  0.00000000000E+00 0. -1.
         -5    1    3    3    0  503 -0.42881947257E+02  0.71267034191E+00  0.53362066115E+02  0.68621930894E+02  0.47000000000E+01 0.  1.
         11    1    4    4    0    0  0.87629213676E+01 -0.36664201295E+02  0.10248751954E+03  0.10920047669E+03  0.00000000000E+00 0. -1.
        -12    1    4    4    0    0  0.99117633134E+02 -0.59149154614E+02  0.10816957658E+03  0.15818844771E+03  0.00000000000E+00 0.  1.
<mgrwt>
<rscale>  2 0.20960626E+03</rscale>
<asrwt>0</asrwt>
<pdfrwt beam="1">  1       21 0.26642649E+00 0.21019857E+03</pdfrwt>
<pdfrwt beam="2">  1       21 0.67247309E-02 0.21019857E+03</pdfrwt>
<totfact> 0.84955408E+03</totfact>
</mgrwt>
</event>
<event>
12    1  0.1039378E-001  0.1940664E+03  0.7546771E-02  0.1155416E+00
         21   -1    0    0  503  502  0.00000000000E+00  0.00000000000E+00  0.12397821282E+03  0.12397821282E+03  0.00000000000E+00 0. -1.
         21   -1    0    0  501  503 -0.00000000000E+00 -0.00000000000E+00 -0.29980134187E+03  0.29980134187E+03  0.00000000000E+00 0. -1.
          6    2    1    2  501    0 -0.66659567328E+02  0.44026888040E+02 -0.91546404404E+02  0.21457521602E+03  0.17686128571E+03 0.  0.
         24    2    3    3    0    0 -0.94774414657E+02  0.47510015888E+02 -0.11625021336E+03  0.17669454817E+03  0.80420519528E+02 0.  0.
         -6    2    1    2    0  502  0.66659567328E+02 -0.44026888040E+02 -0.84276724652E+02  0.20920433867E+03  0.17401731010E+03 0.  0.
        -24    2    5    5    0    0  0.16916325611E+02 -0.85322157939E+02 -0.24057490959E+02  0.12072758738E+03  0.80189492922E+02 0.  0.
          5    1    3    3  501    0  0.28114847329E+02 -0.34831278479E+01  0.24703808959E+02  0.37880667853E+02  0.47000000000E+01 0. -1.
        -11    1    4    4    0    0 -0.85582016670E+02  0.13848105678E+02 -0.11186323481E+03  0.14152538610E+03  0.00000000000E+00 0.  1.
         12    1    4    4    0    0 -0.91923979879E+01  0.33661910210E+02 -0.43869785541E+01  0.35169162068E+02  0.00000000000E+00 0. -1.
         -5    1    5    5    0  502  0.49743241717E+02  0.41295269899E+02 -0.60219233694E+02  0.88476751292E+02  0.47000000000E+01 0.  1.
         11    1    6    6    0    0  0.29317376055E+02  0.25923815215E+01 -0.39656520664E+01  0.29697733534E+02  0.00000000000E+00 0. -1.
        -12    1    6    6    0    0 -0.12401050444E+02 -0.87914539461E+02 -0.20091838892E+02  0.91029853844E+02  0.00000000000E+00 0.  1.
<mgrwt>
<rscale>  2 0.19341610E+03</rscale>
<asrwt>0</asrwt>
<pdfrwt beam="1">  1       21 0.19073571E-01 0.19406643E+03</pdfrwt>
<pdfrwt beam="2">  1       21 0.46123283E-01 0.19406643E+03</pdfrwt>
<totfact> 0.11352728E+05</totfact>
</mgrwt>
</event>
<event>
12    1  0.1039378E-001  0.1984083E+03  0.7546771E-02  0.1151208E+00
         21   -1    0    0  503  502  0.00000000000E+00  0.00000000000E+00  0.48069589426E+03  0.48069589426E+03  0.00000000000E+00 0. -1.
         21   -1    0    0  501  503 -0.00000000000E+00 -0.00000000000E+00 -0.82140961067E+02  0.82140961067E+02  0.00000000000E+00 0. -1.
          6    2    1    2  501    0 -0.83688684339E+02 -0.48823937336E+02  0.22047288423E+03  0.29623026464E+03  0.17250073700E+03 0.  0.
         24    2    3    3    0    0 -0.34051492202E+02 -0.96776304266E+02  0.13760188496E+03  0.18828132829E+03  0.77397820720E+02 0.  0.
         -6    2    1    2    0  502  0.83688684339E+02  0.48823937336E+02  0.17808204897E+03  0.26660659069E+03  0.17314238445E+03 0.  0.
        -24    2    5    5    0    0  0.75492724364E+02  0.63561193300E+02  0.20092591521E+03  0.23782651602E+03  0.80318438704E+02 0.  0.
          5    1    3    3  501    0 -0.49637192137E+02  0.47952366929E+02  0.82870999269E+02  0.10794893634E+03  0.47000000000E+01 0. -1.
        -13    1    4    4    0    0 -0.30708065421E+02 -0.54619873843E+02  0.24061604746E+02  0.67121358177E+02  0.00000000000E+00 0.  1.
         14    1    4    4    0    0 -0.33434267808E+01 -0.42156430422E+02  0.11354028021E+03  0.12115997012E+03  0.00000000000E+00 0. -1.
         -5    1    5    5    0  502  0.81959599754E+01 -0.14737255964E+02 -0.22843866239E+02  0.28780074670E+02  0.47000000000E+01 0.  1.
         11    1    6    6    0    0  0.53734314750E+02  0.27635711880E+02  0.18198171479E+03  0.19175102000E+03  0.00000000000E+00 0. -1.
        -12    1    6    6    0    0  0.21758409613E+02  0.35925481421E+02  0.18944200414E+02  0.46075496020E+02  0.00000000000E+00 0.  1.
<mgrwt>
<rscale>  2 0.19826824E+03</rscale>
<asrwt>0</asrwt>
<pdfrwt beam="1">  1       21 0.73953213E-01 0.19840831E+03</pdfrwt>
<pdfrwt beam="2">  1       21 0.12637071E-01 0.19840831E+03</pdfrwt>
<totfact> 0.87529085E+04</totfact>
</mgrwt>
</event>
<event>
12    1  0.1039378E-001  0.5296264E+03  0.7546771E-02  0.1006353E+00
         21   -1    0    0  501  502  0.00000000000E+00  0.00000000000E+00  0.19917363979E+03  0.19917363979E+03  0.00000000000E+00 0. -1.
         21   -1    0    0  502  503 -0.00000000000E+00 -0.00000000000E+00 -0.20295934844E+04  0.20295934844E+04  0.00000000000E+00 0. -1.
         -6    2    1    2    0  503 -0.20869451736E+03 -0.45486828844E+03 -0.15321185115E+04  0.16209120745E+04  0.17178550180E+03 0.  0.
        -24    2    3    3    0    0 -0.99592110190E+02 -0.31984477238E+03 -0.85552889500E+03  0.92239200731E+03  0.81596924779E+02 0.  0.
          6    2    1    2  501    0  0.20869451736E+03  0.45486828844E+03 -0.29830133311E+03  0.60785504968E+03  0.17333642051E+03 0.  0.
         24    2    5    5    0    0  0.21842001274E+03  0.33033377204E+03 -0.22470025806E+03  0.46279423731E+03  0.82828722075E+02 0.  0.
          5    1    5    5  501    0 -0.97254953742E+01  0.12453451641E+03 -0.73601075044E+02  0.14506081237E+03  0.47000000000E+01 0. -1.
        -13    1    6    6    0    0  0.88031358515E+02  0.13955858129E+03 -0.47826987824E+02  0.17179504782E+03  0.00000000000E+00 0.  1.
         14    1    6    6    0    0  0.13038865422E+03  0.19077519075E+03 -0.17687327024E+03  0.29099918949E+03  0.00000000000E+00 0. -1.
         -5    1    3    3    0  503 -0.10910240717E+03 -0.13502351606E+03 -0.67658961648E+03  0.69852006719E+03  0.47000000000E+01 0.  1.
         11    1    4    4    0    0 -0.85575450918E+02 -0.29420007347E+03 -0.82532955392E+03  0.88036680628E+03  0.00000000000E+00 0. -1.
        -12    1    4    4    0    0 -0.14016659273E+02 -0.25644698914E+02 -0.30199341074E+02  0.42025201021E+02  0.00000000000E+00 0.  1.
<mgrwt>
<rscale>  2 0.52949992E+03</rscale>
<asrwt>0</asrwt>
<pdfrwt beam="1">  1       21 0.30642098E-01 0.52962636E+03</pdfrwt>
<pdfrwt beam="2">  1       21 0.31224516E+00 0.52962636E+03</pdfrwt>
<totfact> 0.22202172E+02</totfact>
</mgrwt>
</event>
<event>
12    1  0.1039378E-001  0.2235288E+03  0.7546771E-02  0.1131538E+00
         21   -1    0    0  503  502  0.00000000000E+00  0.00000000000E+00  0.99522971321E+02  0.99522971321E+02  0.00000000000E+00 0. -1.
         21   -1    0    0  501  503 -0.00000000000E+00 -0.00000000000E+00 -0.52258154475E+03  0.52258154475E+03  0.00000000000E+00 0.  1.
          6    2    1    2  501    0  0.13832092084E+03 -0.24716348222E+02 -0.14463707282E+03  0.26505595811E+03  0.17202093792E+03 0.  0.
         24    2    3    3    0    0  0.12932506491E+03  0.16585301240E+02 -0.15776782965E+03  0.22054462868E+03  0.82153518122E+02 0.  0.
         -6    2    1    2    0  502 -0.13832092084E+03  0.24716348222E+02 -0.27842150060E+03  0.35704855796E+03  0.17384350933E+03 0.  0.
        -24    2    5    5    0    0 -0.16740917316E+03  0.40009308179E+02 -0.24269999889E+03  0.30828261973E+03  0.80674086094E+02 0.  0.
          5    1    3    3  501    0  0.89958559307E+01 -0.41301649462E+02  0.13130756822E+02  0.44511329422E+02  0.47000000000E+01 0. -1.
        -11    1    4    4    0    0  0.94868789954E+02 -0.26387167339E+02 -0.11000334268E+03  0.14763842761E+03  0.00000000000E+00 0.  1.
         12    1    4    4    0    0  0.34456274953E+02  0.42972468579E+02 -0.47764486969E+02  0.72906201073E+02  0.00000000000E+00 0. -1.
         -5    1    5    5    0  502  0.29088252320E+02 -0.15292959957E+02 -0.35721501714E+02  0.48765938235E+02  0.47000000000E+01 0.  1.
         13    1    6    6    0    0 -0.80339369952E+02  0.60174919888E+02 -0.11915034592E+03  0.15579550790E+03  0.00000000000E+00 0. -1.
        -14    1    6    6    0    0 -0.87069803206E+02 -0.20165611709E+02 -0.12354965297E+03  0.15248711183E+03  0.00000000000E+00 0.  1.
<mgrwt>
<rscale>  2 0.22317437E+03</rscale>
<asrwt>0</asrwt>
<pdfrwt beam="1">  1       21 0.15311227E-01 0.22352884E+03</pdfrwt>
<pdfrwt beam="2">  1       21 0.80397159E-01 0.22352884E+03</pdfrwt>
<totfact> 0.50635216E+04</totfact>
</mgrwt>
</event>
<event>
12    1  0.1039378E-001  0.1753954E+03  0.7546771E-02  0.1172757E+00
         21   -1    0    0  503  502  0.00000000000E+00  0.00000000000E+00  0.75940109231E+03  0.75940109231E+03  0.00000000000E+00 0. -1.
         21   -1    0    0  501  503 -0.00000000000E+00 -0.00000000000E+00 -0.41036341909E+02  0.41036341909E+02  0.00000000000E+00 0. -1.
          6    2    1    2  501    0  0.21683977445E+02 -0.64951809980E+01  0.30118807735E+03  0.34853664009E+03  0.17392857527E+03 0.  0.
         24    2    3    3    0    0 -0.34810152582E+02  0.20253058685E+00  0.26971934617E+03  0.28335368902E+03  0.79555010184E+02 0.  0.
         -6    2    1    2    0  502 -0.21683977445E+02  0.64951809980E+01  0.41717667305E+03  0.45190079412E+03  0.17223695579E+03 0.  0.
        -24    2    5    5    0    0 -0.30829559484E+02 -0.81327790795E+01  0.89504508856E+02  0.12374114384E+03  0.79273007636E+02 0.  0.
          5    1    3    3  501    0  0.56494130027E+02 -0.66977115848E+01  0.31468731183E+02  0.65182951071E+02  0.47000000000E+01 0. -1.
        -13    1    4    4    0    0  0.17547298138E+02  0.95251673336E+01  0.16195900407E+03  0.16318503450E+03  0.00000000000E+00 0.  1.
         14    1    4    4    0    0 -0.52357450720E+02 -0.93226367468E+01  0.10776034210E+03  0.12016865453E+03  0.00000000000E+00 0. -1.
         -5    1    5    5    0  502  0.91455820390E+01  0.14627960077E+02  0.32767216419E+03  0.32815965028E+03  0.47000000000E+01 0.  1.
         13    1    6    6    0    0 -0.21650141599E+02  0.31578824032E+02  0.20073681880E+02  0.43230816123E+02  0.00000000000E+00 0. -1.
        -14    1    6    6    0    0 -0.91794178857E+01 -0.39711603111E+02  0.69430826976E+02  0.80510327716E+02  0.00000000000E+00 0.  1.
<mgrwt>
<rscale>  2 0.17497451E+03</rscale>
<asrwt>0</asrwt>
<pdfrwt beam="1">  1       21 0.11683093E+00 0.17539536E+03</pdfrwt>
<pdfrwt beam="2">  1       21 0.63132839E-02 0.17539536E+03</pdfrwt>
<totfact> 0.10268956E+05</totfact>
</mgrwt>
</event>
<event>
12    1  0.1039378E-001  0.1865299E+03  0.7546771E-02  0.1162118E+00
         21   -1    0    0  503  502  0.00000000000E+00  0.00000000000E+00  0.33230953894E+03  0.33230953894E+03  0.00000000000E+00 0. -1.
         21   -1    0    0  501  503 -0.00000000000E+00 -0.00000000000E+00 -0.10355362989E+03  0.10355362989E+03  0.00000000000E+00 0. -1.
          6    2    1    2  501    0 -0.50174309768E+02  0.46055934373E+02  0.11738916200E+03  0.21861689084E+03  0.17138996223E+03 0.  0.
         24    2    3    3    0    0 -0.42702334064E+02  0.25920327259E+02  0.15269896080E+03  0.17702187929E+03  0.74326444938E+02 0.  0.
         -6    2    1    2    0  502  0.50174309768E+02 -0.46055934373E+02  0.11136674705E+03  0.21724627799E+03  0.17365132450E+03 0.  0.
        -24    2    5    5    0    0  0.74372030345E+02 -0.59839728710E+02  0.28123383557E+02  0.12934252248E+03  0.82623068141E+02 0.  0.
          5    1    3    3  501    0 -0.74719757038E+01  0.20135607114E+02 -0.35309798801E+02  0.41595011554E+02  0.47000000000E+01 0. -1.
        -13    1    4    4    0    0 -0.13433165558E+01  0.17977780410E+01  0.11768259911E+03  0.11770399584E+03  0.00000000000E+00 0.  1.
         14    1    4    4    0    0 -0.41359017508E+02  0.24122549218E+02  0.35016361698E+02  0.59317883446E+02  0.00000000000E+00 0. -1.
         -5    1    5    5    0  502 -0.24197720577E+02  0.13783794337E+02  0.83243363494E+02  0.87903755513E+02  0.47000000000E+01 0.  1.
         11    1    6    6    0    0  0.20194091728E+02 -0.15858651150E+02  0.50003113249E+02  0.56210403766E+02  0.00000000000E+00 0. -1.
        -12    1    6    6    0    0  0.54177938617E+02 -0.43981077560E+02 -0.21879729692E+02  0.73132118713E+02  0.00000000000E+00 0.  1.
<mgrwt>
<rscale>  2 0.18600179E+03</rscale>
<asrwt>0</asrwt>
<pdfrwt beam="1">  1       21 0.51124544E-01 0.18652987E+03</pdfrwt>
<pdfrwt beam="2">  1       21 0.15931328E-01 0.18652987E+03</pdfrwt>
<totfact> 0.12810513E+05</totfact>
</mgrwt>
</event>
<event>
12    1  0.1039378E-001  0.2338223E+03  0.7546771E-02  0.1124442E+00
         21   -1    0    0  503  502  0.00000000000E+00  0.00000000000E+00  0.32152431677E+02  0.32152431677E+02  0.00000000000E+00 0.  1.
         21   -1    0    0  501  503 -0.00000000000E+00 -0.00000000000E+00 -0.17363140320E+04  0.17363140320E+04  0.00000000000E+00 0. -1.
          6    2    1    2  501    0 -0.34659013857E+02 -0.14895938618E+03 -0.69903103831E+03  0.73710056787E+03  0.17686918518E+03 0.  0.
         24    2    3    3    0    0  0.20520904771E+02 -0.37344485766E+02 -0.44143601840E+03  0.45095376343E+03  0.81717931056E+02 0.  0.
         -6    2    1    2    0  502  0.34659013857E+02  0.14895938618E+03 -0.10051305620E+04  0.10313658958E+04  0.17331479556E+03 0.  0.
        -24    2    5    5    0    0  0.14995335876E+02  0.15374230287E+03 -0.99127705409E+03  0.10063949886E+04  0.79618586529E+02 0.  0.
          5    1    3    3  501    0 -0.55179918628E+02 -0.11161490041E+03 -0.25759501991E+03  0.28614680445E+03  0.47000000000E+01 0. -1.
        -11    1    4    4    0    0 -0.29816290238E+02 -0.11795252647E+02 -0.10407289310E+03  0.10890044181E+03  0.00000000000E+00 0.  1.
         12    1    4    4    0    0  0.50337195009E+02 -0.25549233119E+02 -0.33736312530E+03  0.34205332161E+03  0.00000000000E+00 0. -1.
         -5    1    5    5    0  502  0.19663677981E+02 -0.47829166943E+01 -0.13853507876E+02  0.24970907159E+02  0.47000000000E+01 0.  1.
         13    1    6    6    0    0  0.22144998247E+02  0.83181904541E+02 -0.74961166876E+03  0.75453779503E+03  0.00000000000E+00 0. -1.
        -14    1    6    6    0    0 -0.71496623716E+01  0.70560398331E+02 -0.24166538533E+03  0.25185719357E+03  0.00000000000E+00 0.  1.
<mgrwt>
<rscale>  2 0.23315014E+03</rscale>
<asrwt>0</asrwt>
<pdfrwt beam="1">  1       21 0.49465258E-02 0.23382227E+03</pdfrwt>
<pdfrwt beam="2">  1       21 0.26712535E+00 0.23382227E+03</pdfrwt>
<totfact> 0.13949594E+04</totfact>
</mgrwt>
</event>
<event>
12    1  0.1039378E-001  0.1842146E+03  0.7546771E-02  0.1164184E+00
         21   -1    0    0  503  502  0.00000000000E+00  0.00000000000E+00  0.52100224530E+02  0.52100224530E+02  0.00000000000E+00 0.  1.
         21   -1    0    0  501  503 -0.00000000000E+00 -0.00000000000E+00 -0.64539601168E+03  0.64539601168E+03  0.00000000000E+00 0.  1.
          6    2    1    2  501    0  0.45832674969E+02 -0.41805785773E+02 -0.29708894310E+03  0.34867893943E+03  0.17165897842E+03 0.  0.
         24    2    3    3    0    0  0.21528913113E+02 -0.84639656966E+02 -0.14028506001E+03  0.18425582331E+03  0.81504262044E+02 0.  0.
         -6    2    1    2    0  502 -0.45832674969E+02  0.41805785773E+02 -0.29620684405E+03  0.34881729678E+03  0.17345504966E+03 0.  0.
        -24    2    5    5    0    0 -0.87643246726E+02  0.38299516193E+02 -0.14413172970E+03  0.19099034014E+03  0.80963960402E+02 0.  0.
          5    1    3    3  501    0  0.24303761856E+02  0.42833871193E+02 -0.15680388309E+03  0.16442311611E+03  0.47000000000E+01 0. -1.
        -13    1    4    4    0    0  0.32438298504E+02  0.14494647158E+01 -0.43176217556E+02  0.54023420108E+02  0.00000000000E+00 0.  1.
         14    1    4    4    0    0 -0.10909385390E+02 -0.86089121682E+02 -0.97108842456E+02  0.13023240321E+03  0.00000000000E+00 0. -1.
         -5    1    5    5    0  502  0.41810571757E+02  0.35062695795E+01 -0.15207511435E+03  0.15782695664E+03  0.47000000000E+01 0.  1.
         13    1    6    6    0    0 -0.18745256869E+02 -0.14279004739E+02 -0.90374442715E+00  0.23581589967E+02  0.00000000000E+00 0. -1.
        -14    1    6    6    0    0 -0.68897989857E+02  0.52578520932E+02 -0.14322798527E+03  0.16740875018E+03  0.00000000000E+00 0.  1.
<mgrwt>
<rscale>  2 0.18379058E+03</rscale>
<asrwt>0</asrwt>
<pdfrwt beam="1">  1       21 0.80154187E-02 0.18421458E+03</pdfrwt>
<pdfrwt beam="2">  1       21 0.99291700E-01 0.18421458E+03</pdfrwt>
<totfact> 0.10019858E+05</totfact>
</mgrwt>
</event>
<event>
12    1  0.1039378E-001  0.2147140E+03  0.7546771E-02  0.1138795E+00
         21   -1    0    0  503  502  0.00000000000E+00  0.00000000000E+00  0.14717868083E+03  0.14717868083E+03  0.00000000000E+00 0. -1.
         21   -1    0    0  501  503 -0.00000000000E+00 -0.00000000000E+00 -0.33592043988E+03  0.33592043988E+03  0.00000000000E+00 0. -1.
          6    2    1    2  501    0  0.52393073951E+01 -0.12172970550E+03 -0.21903067943E+02  0.21118504023E+03  0.17109589501E+03 0.  0.
         24    2    3    3    0    0 -0.27753618029E+02 -0.42429814426E+02 -0.64340831263E+02  0.11526809904E+03  0.81095250308E+02 0.  0.
         -6    2    1    2    0  502 -0.52393073951E+01  0.12172970550E+03 -0.16683869110E+03  0.27191408048E+03  0.17679521139E+03 0.  0.
        -24    2    5    5    0    0 -0.29720338208E+02  0.15211216516E+03 -0.14405053040E+03  0.22648495994E+03  0.80768016415E+02 0.  0.
          5    1    3    3  501    0  0.32992925424E+02 -0.79299891074E+02  0.42437763320E+02  0.95916941194E+02  0.47000000000E+01 0. -1.
        -13    1    4    4    0    0 -0.55752021873E+02 -0.33645666521E+02 -0.35691556244E+02  0.74257699976E+02  0.00000000000E+00 0.  1.
         14    1    4    4    0    0  0.27998403844E+02 -0.87841479048E+01 -0.28649275019E+02  0.41010399063E+02  0.00000000000E+00 0. -1.
         -5    1    5    5    0  502  0.24481030813E+02 -0.30382459663E+02 -0.22788160703E+02  0.45429120540E+02  0.47000000000E+01 0.  1.
         13    1    6    6    0    0  0.16202226926E+02  0.10514477913E+03 -0.10781449708E+03  0.15146584604E+03  0.00000000000E+00 0. -1.
        -14    1    6    6    0    0 -0.45922565134E+02  0.46967386036E+02 -0.36236033314E+02  0.75019113897E+02  0.00000000000E+00 0.  1.
<mgrwt>
<rscale>  2 0.21353743E+03</rscale>
<asrwt>0</asrwt>
<pdfrwt beam="1">  1       21 0.22642874E-01 0.21471404E+03</pdfrwt>
<pdfrwt beam="2">  1       21 0.51680067E-01 0.21471404E+03</pdfrwt>
<totfact> 0.64368439E+04</totfact>
</mgrwt>
</event>
<event>
12    1  0.1039378E-001  0.2852082E+03  0.7546771E-02  0.1093143E+00
         21   -1    0    0  501  502  0.00000000000E+00  0.00000000000E+00  0.13000905011E+04  0.13000905011E+04  0.00000000000E+00 0. -1.
         21   -1    0    0  502  503 -0.00000000000E+00 -0.00000000000E+00 -0.23723200879E+03  0.23723200879E+03  0.00000000000E+00 0.  1.
         -6    2    1    2    0  503  0.10969092028E+03  0.19492246348E+03 -0.12845685337E+03  0.31280163473E+03  0.17696563155E+03 0.  0.
        -24    2    3    3    0    0  0.52129288212E+02  0.19674678103E+02 -0.64196795769E+02  0.11741337314E+03  0.80994542758E+02 0.  0.
          6    2    1    2  501    0 -0.10969092028E+03 -0.19492246348E+03  0.11913153457E+04  0.12245208752E+04  0.17375918994E+03 0.  0.
         24    2    5    5    0    0 -0.60391431735E+02 -0.33609316431E+02  0.32199378196E+03  0.33897333712E+03  0.80288333392E+02 0.  0.
          5    1    5    5  501    0 -0.49299488543E+02 -0.16131314705E+03  0.86932156374E+03  0.88554753806E+03  0.47000000000E+01 0. -1.
        -13    1    6    6    0    0  0.87220860664E+01 -0.89580325689E+01  0.16721388018E+03  0.16768065737E+03  0.00000000000E+00 0.  1.
         14    1    6    6    0    0 -0.69113517801E+02 -0.24651283862E+02  0.15477990178E+03  0.17129267974E+03  0.00000000000E+00 0. -1.
         -5    1    3    3    0  503  0.57561632066E+02  0.17524778537E+03 -0.64260057604E+02  0.19538826159E+03  0.47000000000E+01 0.  1.
         13    1    4    4    0    0  0.71465601968E+02  0.25104102791E+02 -0.60611252188E+02  0.97011711321E+02  0.00000000000E+00 0. -1.
        -14    1    4    4    0    0 -0.19336313756E+02 -0.54294246883E+01 -0.35855435811E+01  0.20401661817E+02  0.00000000000E+00 0.  1.
<mgrwt>
<rscale>  2 0.28471229E+03</rscale>
<asrwt>0</asrwt>
<pdfrwt beam="1">  1       21 0.20001392E+00 0.28520817E+03</pdfrwt>
<pdfrwt beam="2">  1       21 0.36497233E-01 0.28520817E+03</pdfrwt>
<totfact> 0.89086997E+02</totfact>
</mgrwt>
</event>
<event>
12    1  0.1039378E-001  0.2110453E+03  0.7546771E-02  0.1143334E+00
         21   -1    0    0  503  502  0.00000000000E+00  0.00000000000E+00  0.12660133084E+03  0.12660133084E+03  0.00000000000E+00 0. -1.
         21   -1    0    0  501  503 -0.00000000000E+00 -0.00000000000E+00 -0.40789793339E+03  0.40789793339E+03  0.00000000000E+00 0. -1.
          6    2    1    2  501    0  0.80875617974E+01 -0.12052358242E+03 -0.26028475120E+03  0.33509440597E+03  0.17305711956E+03 0.  0.
         24    2    3    3    0    0 -0.28801376620E+02 -0.14430339825E+03 -0.19736049493E+03  0.25823202606E+03  0.77971945492E+02 0.  0.
         -6    2    1    2    0  502 -0.80875617974E+01  0.12052358242E+03 -0.21011851344E+02  0.19940485826E+03  0.15725602381E+03 0.  0.
        -24    2    5    5    0    0 -0.42432261160E+02  0.11301821474E+03  0.15433525236E+02  0.14854972683E+03  0.85177543933E+02 0.  0.
          5    1    3    3  501    0  0.36888938417E+02  0.23779815828E+02 -0.62924256269E+02  0.76862379910E+02  0.47000000000E+01 0. -1.
        -11    1    4    4    0    0 -0.90025364601E+01 -0.23734384785E+02  0.83815237991E+00  0.25398212206E+02  0.00000000000E+00 0.  1.
         12    1    4    4    0    0 -0.19798840160E+02 -0.12056901346E+03 -0.19819864731E+03  0.23283381386E+03  0.00000000000E+00 0. -1.
         -5    1    5    5    0  502  0.34344699363E+02  0.75053676822E+01 -0.36445376580E+02  0.50855131426E+02  0.47000000000E+01 0.  1.
         11    1    6    6    0    0 -0.44504083578E+02  0.24980373172E+02  0.30135471644E+02  0.59268702956E+02  0.00000000000E+00 0. -1.
        -12    1    6    6    0    0  0.20718224181E+01  0.88037841568E+02 -0.14701946408E+02  0.89281023875E+02  0.00000000000E+00 0.  1.
<mgrwt>
<rscale>  2 0.20778277E+03</rscale>
<asrwt>0</asrwt>
<pdfrwt beam="1">  1       21 0.19477128E-01 0.21104528E+03</pdfrwt>
<pdfrwt beam="2">  1       21 0.62753529E-01 0.21104528E+03</pdfrwt>
<totfact> 0.56557317E+04</totfact>
</mgrwt>
</event>
<event>
12    1  0.1039378E-001  0.2083106E+03  0.7546771E-02  0.1143226E+00
         21   -1    0    0  503  502  0.00000000000E+00  0.00000000000E+00  0.21609727312E+03  0.21609727312E+03  0.00000000000E+00 0. -1.
         21   -1    0    0  501  503 -0.00000000000E+00 -0.00000000000E+00 -0.20988489136E+03  0.20988489136E+03  0.00000000000E+00 0. -1.
          6    2    1    2  501    0 -0.96268236211E+02 -0.58231324550E+02 -0.44748126097E+02  0.21152874579E+03  0.17344611568E+03 0.  0.
         24    2    3    3    0    0 -0.14440428129E+02  0.34233963899E+02 -0.18174606335E+02  0.85141002335E+02  0.74418974156E+02 0.  0.
         -6    2    1    2    0  502  0.96268236211E+02  0.58231324550E+02  0.50960507858E+02  0.21445341869E+03  0.17531353332E+03 0.  0.
        -24    2    5    5    0    0 -0.18436050460E+01 -0.27803081462E+02  0.29232780513E+02  0.82082589016E+02  0.71460378845E+02 0.  0.
          5    1    3    3  501    0 -0.81827808082E+02 -0.92465288449E+02 -0.26573519762E+02  0.12638774346E+03  0.47000000000E+01 0. -1.
        -11    1    4    4    0    0 -0.25145685913E+01 -0.18131836742E+02  0.13540526302E+02  0.22769110904E+02  0.00000000000E+00 0.  1.
         12    1    4    4    0    0 -0.11925859538E+02  0.52365800641E+02 -0.31715132637E+02  0.62371891431E+02  0.00000000000E+00 0. -1.
         -5    1    5    5    0  502  0.98111841257E+02  0.86034406013E+02  0.21727727346E+02  0.13237082967E+03  0.47000000000E+01 0.  1.
         13    1    6    6    0    0  0.26435881470E+02 -0.26354306684E+01  0.34839148706E+02  0.43812870329E+02  0.00000000000E+00 0. -1.
        -14    1    6    6    0    0 -0.28279486516E+02 -0.25167650794E+02 -0.56063681929E+01  0.38269718687E+02  0.00000000000E+00 0.  1.
<mgrwt>
<rscale>  2 0.20791717E+03</rscale>
<asrwt>0</asrwt>
<pdfrwt beam="1">  1       21 0.33245734E-01 0.20831057E+03</pdfrwt>
<pdfrwt beam="2">  1       21 0.32289983E-01 0.20831057E+03</pdfrwt>
<totfact> 0.79854064E+04</totfact>
</mgrwt>
</event>
<event>
12    1  0.1039378E-001  0.2075848E+03  0.7546771E-02  0.1143527E+00
         21   -1    0    0  503  502  0.00000000000E+00  0.00000000000E+00  0.50011165863E+03  0.50011165863E+03  0.00000000000E+00 0.  1.
         21   -1    0    0  501  503 -0.00000000000E+00 -0.00000000000E+00 -0.89419275970E+02  0.89419275970E+02  0.00000000000E+00 0. -1.
          6    2    1    2  501    0  0.10973012816E+03 -0.32192371858E+02  0.26211173121E+03  0.33425137440E+03  0.17304442152E+03 0.  0.
         24    2    3    3    0    0 -0.95145922465E+01 -0.45858359727E+01  0.13617399150E+03  0.15857033259E+03  0.80558283618E+02 0.  0.
         -6    2    1    2    0  502 -0.10973012816E+03  0.32192371858E+02  0.14858065146E+03  0.25527956020E+03  0.17324662778E+03 0.  0.
        -24    2    5    5    0    0 -0.27886567759E+02 -0.42530175627E+02  0.54872134409E+02  0.11007210981E+03  0.80736867185E+02 0.  0.
          5    1    3    3  501    0  0.11924472041E+03 -0.27606535885E+02  0.12593773970E+03  0.17568104181E+03  0.47000000000E+01 0. -1.
        -13    1    4    4    0    0 -0.17795516412E+02 -0.16688132064E+02  0.14102881188E+03  0.14312337313E+03  0.00000000000E+00 0.  1.
         14    1    4    4    0    0  0.82809241653E+01  0.12102296091E+02 -0.48548203773E+01  0.15446959461E+02  0.00000000000E+00 0. -1.
         -5    1    5    5    0  502 -0.81843560405E+02  0.74722547484E+02  0.93708517046E+02  0.14520745039E+03  0.47000000000E+01 0.  1.
         13    1    6    6    0    0 -0.90253680121E+01  0.21238109173E+02  0.32602877738E+02  0.39943237047E+02  0.00000000000E+00 0. -1.
        -14    1    6    6    0    0 -0.18861199747E+02 -0.63768284799E+02  0.22269256671E+02  0.70128872762E+02  0.00000000000E+00 0.  1.
<mgrwt>
<rscale>  2 0.20754259E+03</rscale>
<asrwt>0</asrwt>
<pdfrwt beam="1">  1       21 0.76940253E-01 0.20758479E+03</pdfrwt>
<pdfrwt beam="2">  1       21 0.13756812E-01 0.20758479E+03</pdfrwt>
<totfact> 0.68447727E+04</totfact>
</mgrwt>
</event>
<event>
12    1  0.1039378E-001  0.1924123E+03  0.7546771E-02  0.1156552E+00
         21   -1    0    0  503  502  0.00000000000E+00  0.00000000000E+00  0.45999950113E+02  0.45999950113E+02  0.00000000000E+00 0.  1.
         21   -1    0    0  501  503 -0.00000000000E+00 -0.00000000000E+00 -0.27009817815E+04  0.27009817815E+04  0.00000000000E+00 0.  1.
          6    2    1    2  501    0 -0.39957140398E+02 -0.72529055118E+02 -0.24808553566E+04  0.24883058050E+04  0.17368201359E+03 0.  0.
         24    2    3    3    0    0 -0.74255247873E+02 -0.57943898332E+02 -0.23084566471E+04  0.23118617855E+04  0.82834090359E+02 0.  0.
         -6    2    1    2    0  502  0.39957140398E+02  0.72529055118E+02 -0.17412647479E+03  0.25867592663E+03  0.17244178406E+03 0.  0.
        -24    2    5    5    0    0 -0.39568680881E+02  0.14938328561E+02 -0.10477232080E+03  0.13837157628E+03  0.79878781611E+02 0.  0.
          5    1    3    3  501    0  0.34298107475E+02 -0.14585156786E+02 -0.17239870952E+03  0.17644401951E+03  0.47000000000E+01 0. -1.
        -11    1    4    4    0    0 -0.11120886199E+02 -0.34378815130E+02 -0.15489513655E+04  0.15493727472E+04  0.00000000000E+00 0.  1.
         12    1    4    4    0    0 -0.63134361674E+02 -0.23565083201E+02 -0.75950528157E+03  0.76248903829E+03  0.00000000000E+00 0. -1.
         -5    1    5    5    0  502  0.79525821279E+02  0.57590726557E+02 -0.69354153991E+02  0.12030435034E+03  0.47000000000E+01 0.  1.
         11    1    6    6    0    0 -0.14336422875E+02 -0.31434786055E+02 -0.59600385588E+02  0.68890382183E+02  0.00000000000E+00 0. -1.
        -12    1    6    6    0    0 -0.25232258007E+02  0.46373114616E+02 -0.45171935208E+02  0.69481194101E+02  0.00000000000E+00 0.  1.
<mgrwt>
<rscale>  2 0.19213196E+03</rscale>
<asrwt>0</asrwt>
<pdfrwt beam="1">  1       21 0.70769136E-02 0.19241226E+03</pdfrwt>
<pdfrwt beam="2">  1       21 0.41553576E+00 0.19241226E+03</pdfrwt>
<totfact> 0.10333053E+03</totfact>
</mgrwt>
</event>
<event>
12    1  0.1039378E-001  0.2358623E+03  0.7546771E-02  0.1122667E+00
         21   -1    0    0  503  502  0.00000000000E+00  0.00000000000E+00  0.64020650807E+02  0.64020650807E+02  0.00000000000E+00 0. -1.
         21   -1    0    0  501  503 -0.00000000000E+00 -0.00000000000E+00 -0.87393385810E+03  0.87393385810E+03  0.00000000000E+00 0. -1.
          6    2    1    2  501    0  0.37490251269E+02 -0.15521911473E+03 -0.44603980163E+03  0.50432460970E+03  0.17289683280E+03 0.  0.
         24    2    3    3    0    0  0.80178875356E+01 -0.83035792054E+02 -0.10864479797E+03  0.15800607022E+03  0.78759106245E+02 0.  0.
         -6    2    1    2    0  502 -0.37490251269E+02  0.15521911473E+03 -0.36387340566E+03  0.43362989921E+03  0.17358727378E+03 0.  0.
        -24    2    5    5    0    0  0.90033967060E+01  0.14515229584E+03 -0.34355171850E+03  0.38168703527E+03  0.80665726737E+02 0.  0.
          5    1    3    3  501    0  0.29472363733E+02 -0.72183322676E+02 -0.33739500365E+03  0.34631853948E+03  0.47000000000E+01 0. -1.
        -11    1    4    4    0    0 -0.85265941325E+01  0.12614315813E+02 -0.50548864110E+01  0.16042931389E+02  0.00000000000E+00 0.  1.
         12    1    4    4    0    0  0.16544481668E+02 -0.95650107867E+02 -0.10358991156E+03  0.14196313883E+03  0.00000000000E+00 0. -1.
         -5    1    5    5    0  502 -0.46493647975E+02  0.10066818892E+02 -0.20321687163E+02  0.51942863935E+02  0.47000000000E+01 0.  1.
         11    1    6    6    0    0  0.27616336968E+02  0.13803682802E+03 -0.25863598626E+03  0.29446460117E+03  0.00000000000E+00 0. -1.
        -12    1    6    6    0    0 -0.18612940262E+02  0.71154678202E+01 -0.84915732246E+02  0.87222434100E+02  0.00000000000E+00 0.  1.
<mgrwt>
<rscale>  2 0.23573530E+03</rscale>
<asrwt>0</asrwt>
<pdfrwt beam="1">  1       21 0.98493317E-02 0.23586232E+03</pdfrwt>
<pdfrwt beam="2">  1       21 0.13445135E+00 0.23586232E+03</pdfrwt>
<totfact> 0.32290512E+04</totfact>
</mgrwt>
</event>
<event>
12    1  0.1039378E-001  0.1992182E+03  0.7546771E-02  0.1150480E+00
         21   -1    0    0  501  502  0.00000000000E+00  0.00000000000E+00  0.10917971903E+03  0.10917971903E+03  0.00000000000E+00 0. -1.
         21   -1    0    0  502  503 -0.00000000000E+00 -0.00000000000E+00 -0.42504555687E+03  0.42504555687E+03  0.00000000000E+00 0. -1.
         -6    2    1    2    0  503  0.58890642110E+02 -0.79764747587E+02 -0.26026158944E+03  0.32775599626E+03  0.17279286866E+03 0.  0.
        -24    2    3    3    0    0  0.67697346289E+02 -0.67003516701E+02 -0.27755652916E+03  0.30405764205E+03  0.79630527236E+02 0.  0.
          6    2    1    2  501    0 -0.58890642110E+02  0.79764747587E+02 -0.55604248395E+02  0.20646927964E+03  0.17235779156E+03 0.  0.
         24    2    5    5    0    0  0.14729922617E+02 -0.10496217033E+02 -0.29164433429E+02  0.86936091364E+02  0.79876020257E+02 0.  0.
          5    1    5    5  501    0 -0.73620564727E+02  0.90260964620E+02 -0.26439814966E+02  0.11953318828E+03  0.47000000000E+01 0. -1.
        -13    1    6    6    0    0 -0.33798296755E+01 -0.26399894259E+02 -0.48973499571E+02  0.55738508464E+02  0.00000000000E+00 0.  1.
         14    1    6    6    0    0  0.18109752292E+02  0.15903677226E+02  0.19809066142E+02  0.31197582900E+02  0.00000000000E+00 0. -1.
         -5    1    3    3    0  503 -0.88067041789E+01 -0.12761230886E+02  0.17294939716E+02  0.23698354205E+02  0.47000000000E+01 0.  1.
         13    1    4    4    0    0  0.40348681793E+02 -0.74313243414E+02 -0.25239308197E+03  0.26618178392E+03  0.00000000000E+00 0. -1.
        -14    1    4    4    0    0  0.27348664496E+02  0.73097267136E+01 -0.25163447190E+02  0.37875858126E+02  0.00000000000E+00 0.  1.
<mgrwt>
<rscale>  2 0.19912384E+03</rscale>
<asrwt>0</asrwt>
<pdfrwt beam="1">  1       21 0.16796880E-01 0.19921822E+03</pdfrwt>
<pdfrwt beam="2">  1       21 0.65391624E-01 0.19921822E+03</pdfrwt>
<totfact> 0.68405091E+04</totfact>
</mgrwt>
</event>
<event>
11    1  0.1039378E-001  0.1933849E+03  0.7546771E-02  0.1155841E+00
         21   -1    0    0  501  502  0.00000000000E+00  0.00000000000E+00  0.30116718868E+03  0.30116718868E+03  0.00000000000E+00 0.  1.
         21   -1    0    0  502  503 -0.00000000000E+00 -0.00000000000E+00 -0.12468108752E+03  0.12468108752E+03  0.00000000000E+00 0.  1.
         -6    2    1    2    0  503  0.83888918016E+02  0.41433296140E+01  0.63306492356E+02  0.20177833626E+03  0.17219833700E+03 0.  0.
          6    2    1    2  501    0 -0.83888918016E+02 -0.41433296140E+01  0.11317960880E+03  0.22406993994E+03  0.17419298606E+03 0.  0.
         24    2    4    4    0    0 -0.32469931902E+02 -0.23207756329E+02 -0.76600658141E+01  0.91285598019E+02  0.81740365585E+02 0.  0.
          5    1    4    4  501    0 -0.51418986114E+02  0.19064426715E+02  0.12083967462E+03  0.13278434193E+03  0.47000000000E+01 0. -1.
        -11    1    5    5    0    0 -0.63654913041E+01 -0.51317726403E+02 -0.10690456999E+02  0.52804492172E+02  0.00000000000E+00 0.  1.
         12    1    5    5    0    0 -0.26104440598E+02  0.28109970074E+02  0.30303911850E+01  0.38481105847E+02  0.00000000000E+00 0. -1.
         -5    1    3    3    0  503 -0.36367520220E+02  0.38798512800E+02 -0.62906138513E+01  0.53754841131E+02  0.47000000000E+01 0.  1.
         11    1    3    3    0    0  0.62644595198E+02 -0.26052203581E+01  0.46900365302E+02  0.78299276792E+02  0.00000000000E+00 0. -1.
        -12    1    3    3    0    0  0.57611843038E+02 -0.32049962827E+02  0.22696740906E+02  0.69724218340E+02  0.00000000000E+00 0.  1.
<mgrwt>
<rscale>  2 0.19293463E+03</rscale>
<asrwt>0</asrwt>
<pdfrwt beam="1">  1       21 0.46333414E-01 0.19338489E+03</pdfrwt>
<pdfrwt beam="2">  1       21 0.19181706E-01 0.19338489E+03</pdfrwt>
<totfact> 0.11132251E+05</totfact>
</mgrwt>
</event>
<event>
12    1  0.1039378E-001  0.2069876E+03  0.7546771E-02  0.1144039E+00
         21   -1    0    0  503  502  0.00000000000E+00  0.00000000000E+00  0.15886375710E+03  0.15886375710E+03  0.00000000000E+00 0. -1.
         21   -1    0    0  501  503 -0.00000000000E+00 -0.00000000000E+00 -0.48437712367E+03  0.48437712367E+03  0.00000000000E+00 0. -1.
          6    2    1    2  501    0 -0.68562834640E+02  0.90745619118E+02 -0.37701551998E+03  0.42994217717E+03  0.17255127854E+03 0.  0.
         24    2    3    3    0    0 -0.58026747462E+02  0.76830743433E+02 -0.38852182809E+03  0.40851513760E+03  0.81641534678E+02 0.  0.
         -6    2    1    2    0  502  0.68562834640E+02 -0.90745619118E+02  0.51502153405E+02  0.21329870360E+03  0.17293997649E+03 0.  0.
        -24    2    5    5    0    0  0.17500941590E+02 -0.10164085428E+03  0.84111459396E+02  0.15156151944E+03  0.72519034440E+02 0.  0.
          5    1    3    3  501    0 -0.10536087178E+02  0.13914875686E+02  0.11506308117E+02  0.21427039573E+02  0.47000000000E+01 0. -1.
        -11    1    4    4    0    0 -0.13439543958E+02 -0.13725637995E+02 -0.26797061144E+02  0.32971153546E+02  0.00000000000E+00 0.  1.
         12    1    4    4    0    0 -0.44587203503E+02  0.90556381428E+02 -0.36172476695E+03  0.37554398405E+03  0.00000000000E+00 0. -1.
         -5    1    5    5    0  502  0.51061893049E+02  0.10895235167E+02 -0.32609305991E+02  0.61737184163E+02  0.47000000000E+01 0.  1.
         11    1    6    6    0    0  0.22983371452E+01 -0.10780216639E+03  0.63197940318E+02  0.12498227511E+03  0.00000000000E+00 0. -1.
        -12    1    6    6    0    0  0.15202604445E+02  0.61613121024E+01  0.20913519078E+02  0.26579244326E+02  0.00000000000E+00 0.  1.
<mgrwt>
<rscale>  2 0.20690639E+03</rscale>
<asrwt>0</asrwt>
<pdfrwt beam="1">  1       21 0.24440578E-01 0.20698760E+03</pdfrwt>
<pdfrwt beam="2">  1       21 0.74519557E-01 0.20698760E+03</pdfrwt>
<totfact> 0.25297849E+04</totfact>
</mgrwt>
</event>
<event>
11    1  0.1039378E-001  0.2091256E+03  0.7546771E-02  0.1142935E+00
         21   -1    0    0  501  502  0.00000000000E+00  0.00000000000E+00  0.87038332275E+03  0.87038332275E+03  0.00000000000E+00 0.  1.
         21   -1    0    0  502  503 -0.00000000000E+00 -0.00000000000E+00 -0.49954257005E+02  0.49954257005E+02  0.00000000000E+00 0.  1.
         -6    2    1    2    0  503  0.61110192434E+02  0.93083912740E+02  0.36031478372E+03  0.41492818994E+03  0.17303060137E+03 0.  0.
        -24    2    3    3    0    0 -0.26323892831E+01  0.76311430640E+02  0.31577240773E+03  0.33523787599E+03  0.82715513012E+02 0.  0.
          6    2    1    2  501    0 -0.61110192434E+02 -0.93083912740E+02  0.46011428202E+03  0.50540938981E+03  0.17701533368E+03 0.  0.
          5    1    5    5  501    0  0.50442775443E+02 -0.76081280351E+02  0.16762973276E+03  0.19093101404E+03  0.47000000000E+01 0. -1.
        -13    1    5    5    0    0 -0.15033756074E+02 -0.75229186113E+01  0.26693203696E+02  0.31545764370E+02  0.00000000000E+00 0.  1.
         14    1    5    5    0    0 -0.96519211802E+02 -0.94797137772E+01  0.26579134556E+03  0.28293261140E+03  0.00000000000E+00 0. -1.
         -5    1    3    3    0  503  0.63742581717E+02  0.16772482100E+02  0.44542375992E+02  0.79690313958E+02  0.47000000000E+01 0.  1.
         11    1    4    4    0    0  0.10643815009E+01 -0.95295926050E+01  0.13226171863E+03  0.13260885438E+03  0.00000000000E+00 0. -1.
        -12    1    4    4    0    0 -0.36967707840E+01  0.85841023245E+02  0.18351068910E+03  0.20262902161E+03  0.00000000000E+00 0.  1.
<mgrwt>
<rscale>  2 0.20827995E+03</rscale>
<asrwt>0</asrwt>
<pdfrwt beam="1">  1       21 0.13390512E+00 0.20912556E+03</pdfrwt>
<pdfrwt beam="2">  1       21 0.76852709E-02 0.20912556E+03</pdfrwt>
<totfact> 0.51148944E+04</totfact>
</mgrwt>
</event>
<event>
12    1  0.1039378E-001  0.2067113E+03  0.7546771E-02  0.1144371E+00
         21   -1    0    0  503  502  0.00000000000E+00  0.00000000000E+00  0.59369046397E+02  0.59369046397E+02  0.00000000000E+00 0.  1.
         21   -1    0    0  501  503 -0.00000000000E+00 -0.00000000000E+00 -0.10487828480E+04  0.10487828480E+04  0.00000000000E+00 0. -1.
          6    2    1    2  501    0  0.11031264425E+03 -0.16466380124E+02 -0.80576540715E+03  0.83164458594E+03  0.17301677612E+03 0.  0.
         24    2    3    3    0    0  0.10438158735E+02 -0.29869711480E+02 -0.53265846896E+03  0.54050192017E+03  0.86116934055E+02 0.  0.
         -6    2    1    2    0  502 -0.11031264425E+03  0.16466380124E+02 -0.18364839447E+03  0.27650730847E+03  0.17403889706E+03 0.  0.
        -24    2    5    5    0    0 -0.68549635457E+02  0.19181328473E+02 -0.20341114926E+03  0.22998659991E+03  0.80316652150E+02 0.  0.
          5    1    3    3  501    0  0.99874485511E+02  0.13403331356E+02 -0.27310693818E+03  0.29114266577E+03  0.47000000000E+01 0. -1.
        -13    1    4    4    0    0 -0.30868825640E+02 -0.36548925434E+02 -0.34019625468E+03  0.34354359264E+03  0.00000000000E+00 0.  1.
         14    1    4    4    0    0  0.41306984376E+02  0.66792139535E+01 -0.19246221428E+03  0.19695832753E+03  0.00000000000E+00 0. -1.
         -5    1    5    5    0  502 -0.41763008789E+02 -0.27149483485E+01  0.19762754790E+02  0.46520708556E+02  0.47000000000E+01 0.  1.
         11    1    6    6    0    0 -0.38619397572E+02 -0.30457773070E+02 -0.99879952613E+02  0.11133345743E+03  0.00000000000E+00 0. -1.
        -12    1    6    6    0    0 -0.29930237886E+02  0.49639101543E+02 -0.10353119665E+03  0.11865314248E+03  0.00000000000E+00 0.  1.
<mgrwt>
<rscale>  2 0.20649600E+03</rscale>
<asrwt>0</asrwt>
<pdfrwt beam="1">  1       21 0.91337001E-02 0.20671129E+03</pdfrwt>
<pdfrwt beam="2">  1       21 0.16135120E+00 0.20671129E+03</pdfrwt>
<totfact> 0.23200697E+04</totfact>
</mgrwt>
</event>
<event>
12    1  0.1039378E-001  0.1854846E+03  0.7546771E-02  0.1163215E+00
         21   -1    0    0  501  502  0.00000000000E+00  0.00000000000E+00  0.24651189383E+03  0.24651189383E+03  0.00000000000E+00 0. -1.
         21   -1    0    0  502  503 -0.00000000000E+00 -0.00000000000E+00 -0.13968995692E+03  0.13968995692E+03  0.00000000000E+00 0. -1.
         -6    2    1    2    0  503 -0.52181419249E+02 -0.34831041589E+02  0.29375378458E+02  0.18519805788E+03  0.17175361949E+03 0.  0.
        -24    2    3    3    0    0 -0.91900598471E+01 -0.25537334089E+02 -0.45009907571E+02  0.98653902903E+02  0.83487053764E+02 0.  0.
          6    2    1    2  501    0  0.52181419249E+02  0.34831041589E+02  0.77446558461E+02  0.20100379287E+03  0.17455215083E+03 0.  0.
         24    2    5    5    0    0  0.26069205311E+01  0.71694889383E+02  0.86870533428E+02  0.13833421890E+03  0.80267760297E+02 0.  0.
          5    1    5    5  501    0  0.49574498718E+02 -0.36863847795E+02 -0.94239749673E+01  0.62669573970E+02  0.47000000000E+01 0. -1.
        -13    1    6    6    0    0 -0.14101915559E+02  0.23874196041E+02 -0.96248017886E+01  0.29350946637E+02  0.00000000000E+00 0.  1.
         14    1    6    6    0    0  0.16708836090E+02  0.47820693342E+02  0.96495335216E+02  0.10898327227E+03  0.00000000000E+00 0. -1.
         -5    1    3    3    0  503 -0.42991359402E+02 -0.92937074992E+01  0.74385286029E+02  0.86544154973E+02  0.47000000000E+01 0.  1.
         13    1    4    4    0    0 -0.43740165641E+02 -0.21133444915E+02 -0.10656918406E+02  0.49733233297E+02  0.00000000000E+00 0. -1.
        -14    1    4    4    0    0  0.34550105793E+02 -0.44038891743E+01 -0.34352989165E+02  0.48920669606E+02  0.00000000000E+00 0.  1.
<mgrwt>
<rscale>  2 0.18482334E+03</rscale>
<asrwt>0</asrwt>
<pdfrwt beam="1">  1       21 0.37924907E-01 0.18548465E+03</pdfrwt>
<pdfrwt beam="2">  1       21 0.21490763E-01 0.18548465E+03</pdfrwt>
<totfact> 0.13558913E+05</totfact>
</mgrwt>
</event>
<event>
12    1  0.1039378E-001  0.2058118E+03  0.7546771E-02  0.1145350E+00
         21   -1    0    0  503  502  0.00000000000E+00  0.00000000000E+00  0.62031185631E+02  0.62031185631E+02  0.00000000000E+00 0.  1.
         21   -1    0    0  501  503 -0.00000000000E+00 -0.00000000000E+00 -0.71878253012E+03  0.71878253012E+03  0.00000000000E+00 0.  1.
          6    2    1    2  501    0  0.77401750196E+02 -0.75431139170E+02 -0.23467933720E+03  0.31214243959E+03  0.17515028859E+03 0.  0.
         24    2    3    3    0    0  0.10977159006E+03 -0.26055524068E+02 -0.20036018208E+03  0.24369061487E+03  0.80698332634E+02 0.  0.
         -6    2    1    2    0  502 -0.77401750196E+02  0.75431139170E+02 -0.42207200728E+03  0.46867127616E+03  0.17270523465E+03 0.  0.
        -24    2    5    5    0    0 -0.23976534513E+02  0.96574491086E+02 -0.18542206374E+03  0.22510079195E+03  0.79921951162E+02 0.  0.
          5    1    3    3  501    0 -0.32369839867E+02 -0.49375615102E+02 -0.34319155119E+02  0.68451824722E+02  0.47000000000E+01 0. -1.
        -13    1    4    4    0    0  0.20157415292E+02  0.17993513178E+00 -0.11635598709E+03  0.11808924379E+03  0.00000000000E+00 0.  1.
         14    1    4    4    0    0  0.89614174772E+02 -0.26235459200E+02 -0.84004194999E+02  0.12560137108E+03  0.00000000000E+00 0. -1.
         -5    1    5    5    0  502 -0.53425215683E+02 -0.21143351916E+02 -0.23664994354E+03  0.24357048421E+03  0.47000000000E+01 0.  1.
         11    1    6    6    0    0  0.24096703816E+02  0.93721429999E+01 -0.23104826570E+02  0.34674503746E+02  0.00000000000E+00 0. -1.
        -12    1    6    6    0    0 -0.48073238330E+02  0.87202348086E+02 -0.16231723717E+03  0.19042628820E+03  0.00000000000E+00 0.  1.
<mgrwt>
<rscale>  2 0.20529067E+03</rscale>
<asrwt>0</asrwt>
<pdfrwt beam="1">  1       21 0.95432588E-02 0.20581183E+03</pdfrwt>
<pdfrwt beam="2">  1       21 0.11058193E+00 0.20581183E+03</pdfrwt>
<totfact> 0.56443287E+04</totfact>
</mgrwt>
</event>
<event>
12    1  0.1039378E-001  0.1751766E+03  0.7546771E-02  0.1172561E+00
         21   -1    0    0  501  502  0.00000000000E+00  0.00000000000E+00  0.11925658923E+03  0.11925658923E+03  0.00000000000E+00 0. -1.
         21   -1    0    0  502  503 -0.00000000000E+00 -0.00000000000E+00 -0.29404297130E+03  0.29404297130E+03  0.00000000000E+00 0. -1.
         -6    2    1    2    0  503 -0.28354154285E+01 -0.25567440492E+02 -0.16045632590E+03  0.23753779050E+03  0.17325194314E+03 0.  0.
        -24    2    3    3    0    0  0.65198037799E+02 -0.32713085311E+02 -0.95809647275E+02  0.14329929489E+03  0.77680559485E+02 0.  0.
          6    2    1    2  501    0  0.28354154285E+01  0.25567440492E+02 -0.14330056165E+02  0.17576177002E+03  0.17327756836E+03 0.  0.
         24    2    5    5    0    0 -0.36897426332E+02 -0.39247111287E+02  0.69168031225E+01  0.96684947462E+02  0.79989881148E+02 0.  0.
          5    1    5    5  501    0  0.39732841761E+02  0.64814551779E+02 -0.21246859288E+02  0.79076822561E+02  0.47000000000E+01 0. -1.
        -11    1    6    6    0    0 -0.24600931709E+02 -0.27272179586E+02 -0.35405275948E+02  0.51014813391E+02  0.00000000000E+00 0.  1.
         12    1    6    6    0    0 -0.12296494624E+02 -0.11974931701E+02  0.42322079071E+02  0.45670134072E+02  0.00000000000E+00 0. -1.
         -5    1    3    3    0  503 -0.68033453227E+02  0.71456448186E+01 -0.64646678628E+02  0.94238495614E+02  0.47000000000E+01 0.  1.
         13    1    4    4    0    0  0.58801863484E+02 -0.30460447303E+02 -0.22893673429E+02  0.70068668335E+02  0.00000000000E+00 0. -1.
        -14    1    4    4    0    0  0.63961743149E+01 -0.22526380075E+01 -0.72915973847E+02  0.73230626556E+02  0.00000000000E+00 0.  1.
<mgrwt>
<rscale>  2 0.17517029E+03</rscale>
<asrwt>0</asrwt>
<pdfrwt beam="1">  1       21 0.18347168E-01 0.17517662E+03</pdfrwt>
<pdfrwt beam="2">  1       21 0.45237380E-01 0.17517662E+03</pdfrwt>
<totfact> 0.12781477E+05</totfact>
</mgrwt>
</event>
<event>
12    1  0.1039378E-001  0.1926688E+03  0.7546771E-02  0.1156604E+00
         21   -1    0    0  503  502  0.00000000000E+00  0.00000000000E+00  0.13034810004E+03  0.13034810004E+03  0.00000000000E+00 0.  1.
         21   -1    0    0  501  503 -0.00000000000E+00 -0.00000000000E+00 -0.33366843320E+03  0.33366843320E+03  0.00000000000E+00 0. -1.
          6    2    1    2  501    0  0.65421564059E+02  0.50993638295E+02 -0.19410407929E+03  0.27349158628E+03  0.17389917187E+03 0.  0.
         24    2    3    3    0    0  0.96190975206E+02 -0.75456674228E+01 -0.12348250105E+03  0.17662516129E+03  0.81479314722E+02 0.  0.
         -6    2    1    2    0  502 -0.65421564059E+02 -0.50993638295E+02 -0.92162538691E+01  0.19052494696E+03  0.17127312658E+03 0.  0.
        -24    2    5    5    0    0  0.13175869632E+02 -0.34437069930E+02  0.37858240463E+02  0.97305986683E+02  0.81704916299E+02 0.  0.
          5    1    3    3  501    0 -0.30769411147E+02  0.58539305718E+02 -0.70621578244E+02  0.96866424988E+02  0.47000000000E+01 0. -1.
        -11    1    4    4    0    0  0.98054066227E+01 -0.32868636808E+02 -0.20991815620E+02  0.40213798723E+02  0.00000000000E+00 0.  1.
         12    1    4    4    0    0  0.86385568583E+02  0.25322969386E+02 -0.10249068543E+03  0.13641136257E+03  0.00000000000E+00 0. -1.
         -5    1    5    5    0  502 -0.78597433690E+02 -0.16556568365E+02 -0.47074494332E+02  0.93218960278E+02  0.47000000000E+01 0.  1.
         13    1    6    6    0    0  0.31869659856E+02  0.13001825585E+02  0.10800494355E+01  0.34436741929E+02  0.00000000000E+00 0. -1.
        -14    1    6    6    0    0 -0.18693790224E+02 -0.47438895515E+02  0.36778191027E+02  0.62869244754E+02  0.00000000000E+00 0.  1.
<mgrwt>
<rscale>  2 0.19207431E+03</rscale>
<asrwt>0</asrwt>
<pdfrwt beam="1">  1       21 0.20053554E-01 0.19266877E+03</pdfrwt>
<pdfrwt beam="2">  1       21 0.51333604E-01 0.19266877E+03</pdfrwt>
<totfact> 0.82839756E+04</totfact>
</mgrwt>
</event>
<event>
12    1  0.1039378E-001  0.1809470E+03  0.7546771E-02  0.1167029E+00
         21   -1    0    0  501  502  0.00000000000E+00  0.00000000000E+00  0.61510926540E+03  0.61510926540E+03  0.00000000000E+00 0. -1.
         21   -1    0    0  502  503 -0.00000000000E+00 -0.00000000000E+00 -0.10919622859E+03  0.10919622859E+03  0.00000000000E+00 0. -1.
         -6    2    1    2    0  503  0.79935057893E+01 -0.50278399351E+02 -0.69048354400E+01  0.18050040080E+03  0.17303440225E+03 0.  0.
        -24    2    3    3    0    0  0.45154654074E+02 -0.81796121772E+02  0.19614747215E+02  0.12482548695E+03  0.80418378261E+02 0.  0.
          6    2    1    2  501    0 -0.79935057893E+01  0.50278399351E+02  0.51281787225E+03  0.54380509319E+03  0.17363754115E+03 0.  0.
         24    2    5    5    0    0  0.39157493956E+01 -0.38263998136E+02  0.29856309060E+03  0.31162243239E+03  0.80555289434E+02 0.  0.
          5    1    5    5  501    0 -0.11909255185E+02  0.88542397488E+02  0.21425478165E+03  0.23218266080E+03  0.47000000000E+01 0. -1.
        -11    1    6    6    0    0  0.31471487357E+02 -0.33578443277E+02  0.88913974865E+02  0.10011823658E+03  0.00000000000E+00 0.  1.
         12    1    6    6    0    0 -0.27555737961E+02 -0.46855548594E+01  0.20964911574E+03  0.21150419582E+03  0.00000000000E+00 0. -1.
         -5    1    3    3    0  503 -0.37161148285E+02  0.31517722421E+02 -0.26519582655E+02  0.55674913854E+02  0.47000000000E+01 0.  1.
         11    1    4    4    0    0  0.28932080439E+02 -0.86371369232E+02 -0.90869879814E+01  0.91540439436E+02  0.00000000000E+00 0. -1.
        -12    1    4    4    0    0  0.16222573635E+02  0.45752474599E+01  0.28701735196E+02  0.33285047513E+02  0.00000000000E+00 0.  1.
<mgrwt>
<rscale>  2 0.18080213E+03</rscale>
<asrwt>0</asrwt>
<pdfrwt beam="1">  1       21 0.94632193E-01 0.18094698E+03</pdfrwt>
<pdfrwt beam="2">  1       21 0.16799420E-01 0.18094698E+03</pdfrwt>
<totfact> 0.30002479E+04</totfact>
</mgrwt>
</event>
<event>
12    1  0.1039378E-001  0.2086476E+03  0.7546771E-02  0.1142813E+00
         21   -1    0    0  501  502  0.00000000000E+00  0.00000000000E+00  0.10889359690E+04  0.10889359690E+04  0.00000000000E+00 0.  1.
         21   -1    0    0  502  503 -0.00000000000E+00 -0.00000000000E+00 -0.56315365104E+02  0.56315365104E+02  0.00000000000E+00 0.  1.
         -6    2    1    2    0  503  0.71411010040E+02 -0.90857461199E+02  0.20709525879E+03  0.29397667541E+03  0.17372169944E+03 0.  0.
        -24    2    3    3    0    0  0.37092671713E+02 -0.35432405945E+02  0.20638015847E+02  0.96396113249E+02  0.78961770912E+02 0.  0.
          6    2    1    2  501    0 -0.71411010040E+02  0.90857461199E+02  0.82552534508E+03  0.85127465868E+03  0.17269000701E+03 0.  0.
         24    2    5    5    0    0 -0.41597191809E+02  0.21240364498E+02  0.69154245596E+03  0.69729768479E+03  0.76233938399E+02 0.  0.
          5    1    5    5  501    0 -0.29813818231E+02  0.69617096702E+02  0.13398288912E+03  0.15397697389E+03  0.47000000000E+01 0. -1.
        -11    1    6    6    0    0 -0.17207474672E+02  0.47211101806E+02  0.49574679279E+03  0.49828693328E+03  0.00000000000E+00 0.  1.
         12    1    6    6    0    0 -0.24389717137E+02 -0.25970737308E+02  0.19579566318E+03  0.19901075151E+03  0.00000000000E+00 0. -1.
         -5    1    3    3    0  503  0.34318338327E+02 -0.55425055255E+02  0.18645724295E+03  0.19758056216E+03  0.47000000000E+01 0.  1.
         11    1    4    4    0    0  0.16740520520E+02 -0.71600830602E+01  0.48489510090E+02  0.51795216048E+02  0.00000000000E+00 0. -1.
        -12    1    4    4    0    0  0.20352151193E+02 -0.28272322884E+02 -0.27851494243E+02  0.44600897200E+02  0.00000000000E+00 0.  1.
<mgrwt>
<rscale>  2 0.20843276E+03</rscale>
<asrwt>0</asrwt>
<pdfrwt beam="1">  1       21 0.16752860E+00 0.20864764E+03</pdfrwt>
<pdfrwt beam="2">  1       21 0.86639031E-02 0.20864764E+03</pdfrwt>
<totfact> 0.22944291E+04</totfact>
</mgrwt>
</event>
<event>
12    1  0.1039378E-001  0.1772082E+03  0.7546771E-02  0.1171454E+00
         21   -1    0    0  503  502  0.00000000000E+00  0.00000000000E+00  0.64323668142E+03  0.64323668142E+03  0.00000000000E+00 0.  1.
         21   -1    0    0  501  503 -0.00000000000E+00 -0.00000000000E+00 -0.69464151692E+02  0.69464151692E+02  0.00000000000E+00 0.  1.
          6    2    1    2  501    0 -0.12949807722E+02  0.56098565237E+01  0.85848849985E+02  0.19359366188E+03  0.17294309141E+03 0.  0.
         24    2    3    3    0    0  0.35825683948E+00 -0.51150742977E+02  0.94683823589E+02  0.13444117253E+03  0.80578381508E+02 0.  0.
         -6    2    1    2    0  502  0.12949807722E+02 -0.56098565237E+01  0.48792367974E+03  0.51910717123E+03  0.17664532249E+03 0.  0.
        -24    2    5    5    0    0 -0.18496646041E+02  0.61510175788E+02  0.27549513739E+03  0.29406949927E+03  0.80334749881E+02 0.  0.
          5    1    3    3  501    0 -0.13308064561E+02  0.56760599501E+02 -0.88349736043E+01  0.59152489353E+02  0.47000000000E+01 0. -1.
        -11    1    4    4    0    0 -0.13337858969E+02 -0.10703614284E+01 -0.10587503953E+02  0.17062807373E+02  0.00000000000E+00 0.  1.
         12    1    4    4    0    0  0.13696115809E+02 -0.50080381549E+02  0.10527132754E+03  0.11737836516E+03  0.00000000000E+00 0. -1.
         -5    1    5    5    0  502  0.31446453762E+02 -0.67120032312E+02  0.21242854236E+03  0.22503767196E+03  0.47000000000E+01 0.  1.
         11    1    6    6    0    0  0.21088165965E+00  0.58869651001E+02  0.89553320914E+02  0.10717032036E+03  0.00000000000E+00 0. -1.
        -12    1    6    6    0    0 -0.18707527701E+02  0.26405247872E+01  0.18594181647E+03  0.18689917891E+03  0.00000000000E+00 0.  1.
<mgrwt>
<rscale>  2 0.17627833E+03</rscale>
<asrwt>0</asrwt>
<pdfrwt beam="1">  1       21 0.98959485E-01 0.17720818E+03</pdfrwt>
<pdfrwt beam="2">  1       21 0.10686793E-01 0.17720818E+03</pdfrwt>
<totfact> 0.61156843E+04</totfact>
</mgrwt>
</event>
<event>
12    1  0.1039378E-001  0.3718236E+03  0.7546771E-02  0.1054086E+00
         21   -1    0    0  503  502  0.00000000000E+00  0.00000000000E+00  0.50683773550E+03  0.50683773550E+03  0.00000000000E+00 0. -1.
         21   -1    0    0  501  503 -0.00000000000E+00 -0.00000000000E+00 -0.27234031834E+03  0.27234031834E+03  0.00000000000E+00 0.  1.
          6    2    1    2  501    0 -0.20258668069E+03  0.25775661159E+03  0.12883921822E+03  0.39263383816E+03  0.17344149650E+03 0.  0.
         24    2    3    3    0    0 -0.71700336374E+02  0.38618637838E+02  0.35077715877E+02  0.12066693578E+03  0.81839634747E+02 0.  0.
         -6    2    1    2    0  502  0.20258668069E+03 -0.25775661159E+03  0.10565819894E+03  0.38654421567E+03  0.17542218120E+03 0.  0.
        -24    2    5    5    0    0  0.54981512634E+02 -0.35515054309E+02  0.26162028569E+02  0.10811949242E+03  0.81982236413E+02 0.  0.
          5    1    3    3  501    0 -0.13088634432E+03  0.21913797375E+03  0.93761502338E+02  0.27196690238E+03  0.47000000000E+01 0. -1.
        -11    1    4    4    0    0 -0.81835772696E+02  0.82639543546E+01  0.17275653282E+02  0.84046622958E+02  0.00000000000E+00 0.  1.
         12    1    4    4    0    0  0.10135436322E+02  0.30354683483E+02  0.17802062595E+02  0.36620312825E+02  0.00000000000E+00 0. -1.
         -5    1    5    5    0  502  0.14760516806E+03 -0.22224155728E+03  0.79496170372E+02  0.27842472326E+03  0.47000000000E+01 0.  1.
         13    1    6    6    0    0  0.76168457364E+02 -0.34580803846E+02  0.19548245877E+02  0.85904597134E+02  0.00000000000E+00 0. -1.
        -14    1    6    6    0    0 -0.21186944730E+02 -0.93425046325E+00  0.66137826926E+01  0.22214895283E+02  0.00000000000E+00 0.  1.
<mgrwt>
<rscale>  2 0.37159077E+03</rscale>
<asrwt>0</asrwt>
<pdfrwt beam="1">  1       21 0.77975036E-01 0.37182358E+03</pdfrwt>
<pdfrwt beam="2">  1       21 0.41898511E-01 0.37182358E+03</pdfrwt>
<totfact> 0.72707124E+03</totfact>
</mgrwt>
</event>
<event>
12    1  0.1039378E-001  0.1769271E+03  0.7546771E-02  0.1171160E+00
         21   -1    0    0  501  502  0.00000000000E+00  0.00000000000E+00  0.92772156623E+02  0.92772156623E+02  0.00000000000E+00 0. -1.
         21   -1    0    0  502  503 -0.00000000000E+00 -0.00000000000E+00 -0.61481285100E+03  0.61481285100E+03  0.00000000000E+00 0. -1.
         -6    2    1    2    0  503  0.19677511520E+02 -0.33177378346E+02 -0.49923885769E+03  0.52919460013E+03  0.17122950938E+03 0.  0.
        -24    2    3    3    0    0 -0.46686895413E+02 -0.46966423752E+01 -0.36225693822E+03  0.37427035061E+03  0.81525955373E+02 0.  0.
          6    2    1    2  501    0 -0.19677511520E+02  0.33177378346E+02 -0.22801836688E+02  0.17839040750E+03  0.17267099014E+03 0.  0.
         24    2    5    5    0    0 -0.26872286087E+02 -0.40658931279E+02  0.16130965286E+02  0.94477247207E+02  0.79312506873E+02 0.  0.
          5    1    5    5  501    0  0.71947745672E+01  0.73836309624E+02 -0.38932801974E+02  0.83913160288E+02  0.47000000000E+01 0. -1.
        -13    1    6    6    0    0 -0.16665850230E+02  0.22236754752E+02  0.13006845473E+02  0.30682272650E+02  0.00000000000E+00 0.  1.
         14    1    6    6    0    0 -0.10206435857E+02 -0.62895686030E+02  0.31241198130E+01  0.63794974557E+02  0.00000000000E+00 0. -1.
         -5    1    3    3    0  503  0.66364406933E+02 -0.28480735970E+02 -0.13698191947E+03  0.15492424952E+03  0.47000000000E+01 0.  1.
         13    1    4    4    0    0 -0.43349577414E+02  0.30998854295E+02 -0.15425736236E+03  0.16320370299E+03  0.00000000000E+00 0. -1.
        -14    1    4    4    0    0 -0.33373179993E+01 -0.35695496670E+02 -0.20799957587E+03  0.21106664762E+03  0.00000000000E+00 0.  1.
<mgrwt>
<rscale>  2 0.17657446E+03</rscale>
<asrwt>0</asrwt>
<pdfrwt beam="1">  1       21 0.14272639E-01 0.17692714E+03</pdfrwt>
<pdfrwt beam="2">  1       21 0.94586596E-01 0.17692714E+03</pdfrwt>
<totfact> 0.40515705E+04</totfact>
</mgrwt>
</event>
<event>
12    1  0.1039378E-001  0.2668512E+03  0.7546771E-02  0.1103487E+00
         21   -1    0    0  501  502  0.00000000000E+00  0.00000000000E+00  0.25390732722E+03  0.25390732722E+03  0.00000000000E+00 0. -1.
         21   -1    0    0  502  503 -0.00000000000E+00 -0.00000000000E+00 -0.30045427013E+03  0.30045427013E+03  0.00000000000E+00 0.  1.
         -6    2    1    2    0  503  0.10764040009E+03 -0.17012487131E+03 -0.99754776770E+02  0.28488692973E+03  0.17515884126E+03 0.  0.
        -24    2    3    3    0    0 -0.15704044882E+02 -0.69600773472E+02 -0.37299781653E+02  0.11388499182E+03  0.80545843828E+02 0.  0.
          6    2    1    2  501    0 -0.10764040009E+03  0.17012487131E+03  0.53207833856E+02  0.26947466762E+03  0.17104559432E+03 0.  0.
         24    2    5    5    0    0 -0.38388339774E+02  0.89015746210E+02 -0.34910478147E+02  0.13104972427E+03  0.80980374430E+02 0.  0.
          5    1    5    5  501    0 -0.69252060318E+02  0.81109125097E+02  0.88118312002E+02  0.13842494335E+03  0.47000000000E+01 0. -1.
        -11    1    6    6    0    0 -0.49353024873E+02  0.99305049464E+02 -0.33990395714E+02  0.11598517541E+03  0.00000000000E+00 0.  1.
         12    1    6    6    0    0  0.10964685100E+02 -0.10289303254E+02 -0.92008243261E+00  0.15064548864E+02  0.00000000000E+00 0. -1.
         -5    1    3    3    0  503  0.12334444497E+03 -0.10052409784E+03 -0.62454995116E+02  0.17100193790E+03  0.47000000000E+01 0.  1.
         13    1    4    4    0    0 -0.95801206593E+00 -0.85522375814E+02 -0.25852087934E+02  0.89349454405E+02  0.00000000000E+00 0. -1.
        -14    1    4    4    0    0 -0.14746032816E+02  0.15921602342E+02 -0.11447693719E+02  0.24535537419E+02  0.00000000000E+00 0.  1.
<mgrwt>
<rscale>  2 0.26617821E+03</rscale>
<asrwt>0</asrwt>
<pdfrwt beam="1">  1       21 0.39062666E-01 0.26685117E+03</pdfrwt>
<pdfrwt beam="2">  1       21 0.46223734E-01 0.26685117E+03</pdfrwt>
<totfact> 0.27316587E+04</totfact>
</mgrwt>
</event>
<event>
12    1  0.1039378E-001  0.2457355E+03  0.7546771E-02  0.1116551E+00
         21   -1    0    0  503  502  0.00000000000E+00  0.00000000000E+00  0.21344795025E+03  0.21344795025E+03  0.00000000000E+00 0. -1.
         21   -1    0    0  501  503 -0.00000000000E+00 -0.00000000000E+00 -0.35314777026E+03  0.35314777026E+03  0.00000000000E+00 0.  1.
          6    2    1    2  501    0 -0.12745518732E+03 -0.11220748544E+03 -0.19909558394E+03  0.31378399124E+03  0.17316465301E+03 0.  0.
         24    2    3    3    0    0 -0.94495740467E+02 -0.68325558359E+02 -0.21436553815E+03  0.25662447617E+03  0.79408506672E+02 0.  0.
         -6    2    1    2    0  502  0.12745518732E+03  0.11220748544E+03  0.59395763930E+02  0.25281172926E+03  0.17762479871E+03 0.  0.
        -24    2    5    5    0    0  0.98808568128E+02  0.54028291062E+02  0.10477055980E+03  0.17352484794E+03  0.80323180219E+02 0.  0.
          5    1    3    3  501    0 -0.32959446854E+02 -0.43881927082E+02  0.15269954215E+02  0.57159515070E+02  0.47000000000E+01 0. -1.
        -13    1    4    4    0    0 -0.57919618037E+02 -0.81660875881E+02 -0.13344068470E+03  0.16682205230E+03  0.00000000000E+00 0.  1.
         14    1    4    4    0    0 -0.36576122430E+02  0.13335317522E+02 -0.80924853460E+02  0.89802423870E+02  0.00000000000E+00 0. -1.
         -5    1    5    5    0  502  0.28646619193E+02  0.58179194378E+02 -0.45374795873E+02  0.79286881325E+02  0.47000000000E+01 0.  1.
         11    1    6    6    0    0  0.57767968434E+02  0.72488387423E+02  0.62580320031E+02  0.11183917446E+03  0.00000000000E+00 0. -1.
        -12    1    6    6    0    0  0.41040599694E+02 -0.18460096361E+02  0.42190239772E+02  0.61685673482E+02  0.00000000000E+00 0.  1.
<mgrwt>
<rscale>  2 0.24493042E+03</rscale>
<asrwt>0</asrwt>
<pdfrwt beam="1">  1       21 0.32838147E-01 0.24573545E+03</pdfrwt>
<pdfrwt beam="2">  1       21 0.54330425E-01 0.24573545E+03</pdfrwt>
<totfact> 0.27804947E+04</totfact>
</mgrwt>
</event>
<event>
12    1  0.1039378E-001  0.1951464E+03  0.7546771E-02  0.1156326E+00
         21   -1    0    0  503  502  0.00000000000E+00  0.00000000000E+00  0.32543257511E+03  0.32543257511E+03  0.00000000000E+00 0. -1.
         21   -1    0    0  501  503 -0.00000000000E+00 -0.00000000000E+00 -0.47422785138E+03  0.47422785138E+03  0.00000000000E+00 0. -1.
          6    2    1    2  501    0 -0.62009621686E+02  0.68395213057E+02 -0.42397116055E+03  0.46231210872E+03  0.15955513951E+03 0.  0.
         24    2    3    3    0    0 -0.31238084110E+02  0.83702718506E+02 -0.17557638649E+03  0.21150688344E+03  0.76981369604E+02 0.  0.
         -6    2    1    2    0  502  0.62009621686E+02 -0.68395213057E+02  0.27517588428E+03  0.33734831777E+03  0.17192737380E+03 0.  0.
        -24    2    5    5    0    0  0.21405453456E+02  0.47938875606E+01  0.22508259127E+03  0.23969192560E+03  0.79428404929E+02 0.  0.
          5    1    3    3  501    0 -0.30771537576E+02 -0.15307505449E+02 -0.24839477406E+03  0.25080522528E+03  0.47000000000E+01 0. -1.
        -13    1    4    4    0    0 -0.53408669089E+02  0.69577613171E+02 -0.10887136886E+03  0.13980881641E+03  0.00000000000E+00 0.  1.
         14    1    4    4    0    0  0.22170584979E+02  0.14125105335E+02 -0.66705017629E+02  0.71698067031E+02  0.00000000000E+00 0. -1.
         -5    1    5    5    0  502  0.40604168230E+02 -0.73189100617E+02  0.50093293006E+02  0.97656392167E+02  0.47000000000E+01 0.  1.
         13    1    6    6    0    0  0.50460069441E+02 -0.15916014661E+01  0.11368348750E+03  0.12438925651E+03  0.00000000000E+00 0. -1.
        -14    1    6    6    0    0 -0.29054615985E+02  0.63854890266E+01  0.11139910377E+03  0.11530266909E+03  0.00000000000E+00 0.  1.
<mgrwt>
<rscale>  2 0.19238661E+03</rscale>
<asrwt>0</asrwt>
<pdfrwt beam="1">  1       21 0.50066550E-01 0.19514641E+03</pdfrwt>
<pdfrwt beam="2">  1       21 0.72958130E-01 0.19514641E+03</pdfrwt>
<totfact> 0.64127458E+03</totfact>
</mgrwt>
</event>
<event>
12    1  0.1039378E-001  0.1850367E+03  0.7546771E-02  0.1163029E+00
         21   -1    0    0  501  502  0.00000000000E+00  0.00000000000E+00  0.11536582313E+04  0.11536582313E+04  0.00000000000E+00 0. -1.
         21   -1    0    0  502  503 -0.00000000000E+00 -0.00000000000E+00 -0.38076529967E+02  0.38076529967E+02  0.00000000000E+00 0. -1.
         -6    2    1    2    0  503  0.53181440733E+02  0.38494368406E+02  0.27786023657E+03  0.33383360896E+03  0.17299851261E+03 0.  0.
        -24    2    3    3    0    0  0.76963663997E+02 -0.55387412516E+01  0.10944719655E+03  0.15807937447E+03  0.84001884333E+02 0.  0.
          6    2    1    2  501    0 -0.53181440733E+02 -0.38494368406E+02  0.83772146476E+03  0.85790115231E+03  0.17293655649E+03 0.  0.
         24    2    5    5    0    0 -0.15695466274E+01  0.36359890079E+02  0.53478037201E+03  0.54157482823E+03  0.77386970494E+02 0.  0.
          5    1    5    5  501    0 -0.51611894106E+02 -0.74854258485E+02  0.30294109275E+03  0.31632632408E+03  0.47000000000E+01 0. -1.
        -11    1    6    6    0    0  0.16408841495E+02 -0.20275068088E+02  0.16774610043E+03  0.16976184104E+03  0.00000000000E+00 0.  1.
         12    1    6    6    0    0 -0.17978388123E+02  0.56634958167E+02  0.36703427158E+03  0.37181298719E+03  0.00000000000E+00 0. -1.
         -5    1    3    3    0  503 -0.23782223264E+02  0.44033109658E+02  0.16841304002E+03  0.17575423448E+03  0.47000000000E+01 0.  1.
         11    1    4    4    0    0  0.61014848072E+02 -0.23883621567E+02  0.11571294554E+03  0.13297640704E+03  0.00000000000E+00 0. -1.
        -12    1    4    4    0    0  0.15948815926E+02  0.18344880315E+02 -0.62657489970E+01  0.25102967428E+02  0.00000000000E+00 0.  1.
<mgrwt>
<rscale>  2 0.18502218E+03</rscale>
<asrwt>0</asrwt>
<pdfrwt beam="1">  1       21 0.17748585E+00 0.18503667E+03</pdfrwt>
<pdfrwt beam="2">  1       21 0.58579286E-02 0.18503667E+03</pdfrwt>
<totfact> 0.39077615E+04</totfact>
</mgrwt>
</event>
<event>
12    1  0.1039378E-001  0.1969896E+03  0.7546771E-02  0.1153092E+00
         21   -1    0    0  501  502  0.00000000000E+00  0.00000000000E+00  0.13279251523E+03  0.13279251523E+03  0.00000000000E+00 0. -1.
         21   -1    0    0  502  503 -0.00000000000E+00 -0.00000000000E+00 -0.29915479360E+03  0.29915479360E+03  0.00000000000E+00 0. -1.
         -6    2    1    2    0  503  0.55323928592E+02  0.76226268510E+02 -0.38672770472E+02  0.19719318338E+03  0.16887387990E+03 0.  0.
        -24    2    3    3    0    0  0.10044320464E+03  0.38987786127E+02 -0.20397195018E+02  0.13572335095E+03  0.79974355920E+02 0.  0.
          6    2    1    2  501    0 -0.55323928592E+02 -0.76226268510E+02 -0.12768950789E+03  0.23475412545E+03  0.17301360612E+03 0.  0.
         24    2    5    5    0    0  0.19016717756E+02 -0.89121695528E+02 -0.76258515969E+02  0.14332075808E+03  0.80132179998E+02 0.  0.
          5    1    5    5  501    0 -0.74340646348E+02  0.12895427018E+02 -0.51430991925E+02  0.91433367366E+02  0.47000000000E+01 0. -1.
        -13    1    6    6    0    0  0.30840452992E+02 -0.11108062466E+02 -0.50711442780E+02  0.60383549261E+02  0.00000000000E+00 0.  1.
         14    1    6    6    0    0 -0.11823735236E+02 -0.78013633062E+02 -0.25547073189E+02  0.82937208821E+02  0.00000000000E+00 0. -1.
         -5    1    3    3    0  503 -0.45119276043E+02  0.37238482383E+02 -0.18275575453E+02  0.61469832430E+02  0.47000000000E+01 0.  1.
         11    1    4    4    0    0  0.44477842874E+02  0.85113828826E+01 -0.48253978285E+02  0.66175286668E+02  0.00000000000E+00 0. -1.
        -12    1    4    4    0    0  0.55965361762E+02  0.30476403244E+02  0.27856783267E+02  0.69548064285E+02  0.00000000000E+00 0.  1.
<mgrwt>
<rscale>  2 0.19607681E+03</rscale>
<asrwt>0</asrwt>
<pdfrwt beam="1">  1       21 0.20429618E-01 0.19698957E+03</pdfrwt>
<pdfrwt beam="2">  1       21 0.46023815E-01 0.19698957E+03</pdfrwt>
<totfact> 0.10019445E+05</totfact>
</mgrwt>
</event>
<event>
12    1  0.1039378E-001  0.2281949E+03  0.7546771E-02  0.1127986E+00
         21   -1    0    0  501  502  0.00000000000E+00  0.00000000000E+00  0.11795833520E+03  0.11795833520E+03  0.00000000000E+00 0.  1.
         21   -1    0    0  502  503 -0.00000000000E+00 -0.00000000000E+00 -0.54140899637E+03  0.54140899637E+03  0.00000000000E+00 0.  1.
         -6    2    1    2    0  503 -0.49480468378E+02 -0.13779782817E+03 -0.35406136558E+03  0.42122722945E+03  0.17503248280E+03 0.  0.
        -24    2    3    3    0    0 -0.21011759830E+02 -0.36187599982E+02 -0.64094460141E+02  0.11262068045E+03  0.82609208930E+02 0.  0.
          6    2    1    2  501    0  0.49480468378E+02  0.13779782817E+03 -0.69389295589E+02  0.23814010212E+03  0.17452585968E+03 0.  0.
         24    2    5    5    0    0  0.63988629225E+02  0.15870968061E+03 -0.28082677997E+02  0.18939465145E+03  0.76147158881E+02 0.  0.
          5    1    5    5  501    0 -0.14508160847E+02 -0.20911852443E+02 -0.41306617591E+02  0.48745450666E+02  0.47000000000E+01 0. -1.
        -13    1    6    6    0    0  0.47382627173E+02  0.42721005930E+02  0.13226346136E+02  0.65154692369E+02  0.00000000000E+00 0.  1.
         14    1    6    6    0    0  0.16606002052E+02  0.11598867468E+03 -0.41309024133E+02  0.12423995908E+03  0.00000000000E+00 0. -1.
         -5    1    3    3    0  503 -0.28468708548E+02 -0.10161022818E+03 -0.28996690544E+03  0.30860654900E+03  0.47000000000E+01 0.  1.
         13    1    4    4    0    0  0.57203793636E-02  0.22295606282E+02  0.13939833340E+01  0.22339142368E+02  0.00000000000E+00 0. -1.
        -14    1    4    4    0    0 -0.21017480209E+02 -0.58483206263E+02 -0.65488443475E+02  0.90281538080E+02  0.00000000000E+00 0.  1.
<mgrwt>
<rscale>  2 0.22809778E+03</rscale>
<asrwt>0</asrwt>
<pdfrwt beam="1">  1       21 0.18147436E-01 0.22819493E+03</pdfrwt>
<pdfrwt beam="2">  1       21 0.83293693E-01 0.22819493E+03</pdfrwt>
<totfact> 0.34070534E+04</totfact>
</mgrwt>
</event>
<event>
12    1  0.1039378E-001  0.2056856E+03  0.7546771E-02  0.1147338E+00
         21   -1    0    0  503  502  0.00000000000E+00  0.00000000000E+00  0.24769050454E+03  0.24769050454E+03  0.00000000000E+00 0.  1.
         21   -1    0    0  501  503 -0.00000000000E+00 -0.00000000000E+00 -0.31449979452E+03  0.31449979452E+03  0.00000000000E+00 0.  1.
          6    2    1    2  501    0 -0.10334289232E+03  0.41745780464E+02  0.16196846440E+03  0.26180212508E+03  0.17287019887E+03 0.  0.
         24    2    3    3    0    0  0.13513388099E+02  0.28896129678E+02  0.54238176321E+02  0.10227655106E+03  0.80629493098E+02 0.  0.
         -6    2    1    2    0  502  0.10334289232E+03 -0.41745780464E+02 -0.22877775437E+03  0.30038817398E+03  0.15959740159E+03 0.  0.
        -24    2    5    5    0    0  0.29674852201E+02  0.29212091452E+02 -0.10674994269E+03  0.14109323826E+03  0.82327446696E+02 0.  0.
          5    1    3    3  501    0 -0.11685628042E+03  0.12849650786E+02  0.10773028807E+03  0.15952557402E+03  0.47000000000E+01 0. -1.
        -11    1    4    4    0    0 -0.31234858636E+01  0.49682884920E+02  0.10199492200E+02  0.50815104635E+02  0.00000000000E+00 0.  1.
         12    1    4    4    0    0  0.16636873962E+02 -0.20786755242E+02  0.44038684121E+02  0.51461446422E+02  0.00000000000E+00 0. -1.
         -5    1    5    5    0  502  0.73668040118E+02 -0.70957871917E+02 -0.12202781168E+03  0.15929493572E+03  0.47000000000E+01 0.  1.
         11    1    6    6    0    0  0.47912533097E+02  0.36162472083E+02 -0.10569015777E+03  0.12154729394E+03  0.00000000000E+00 0. -1.
        -12    1    6    6    0    0 -0.18237680897E+02 -0.69503806301E+01 -0.10597849185E+01  0.19545944323E+02  0.00000000000E+00 0.  1.
<mgrwt>
<rscale>  2 0.20287285E+03</rscale>
<asrwt>0</asrwt>
<pdfrwt beam="1">  1       21 0.38106232E-01 0.20568561E+03</pdfrwt>
<pdfrwt beam="2">  1       21 0.48384583E-01 0.20568561E+03</pdfrwt>
<totfact> 0.26897510E+04</totfact>
</mgrwt>
</event>
<event>
12    1  0.1039378E-001  0.1802228E+03  0.7546771E-02  0.1167770E+00
         21   -1    0    0  503  502  0.00000000000E+00  0.00000000000E+00  0.23141973088E+03  0.23141973088E+03  0.00000000000E+00 0.  1.
         21   -1    0    0  501  503 -0.00000000000E+00 -0.00000000000E+00 -0.18912435379E+03  0.18912435379E+03  0.00000000000E+00 0.  1.
          6    2    1    2  501    0 -0.14304739624E+02 -0.19785712704E+02 -0.86240698693E+02  0.19979422612E+03  0.17856140310E+03 0.  0.
         24    2    3    3    0    0  0.20793708679E+02  0.14328074575E+02 -0.11544996320E+03  0.14260224514E+03  0.79806229558E+02 0.  0.
         -6    2    1    2    0  502  0.14304739624E+02  0.19785712704E+02  0.12853607578E+03  0.22074985855E+03  0.17780010481E+03 0.  0.
        -24    2    5    5    0    0  0.45024765202E+02  0.69478157590E+02  0.34049512890E+02  0.10956146160E+03  0.63165660573E+02 0.  0.
          5    1    3    3  501    0 -0.35098448303E+02 -0.34113787278E+02  0.29209264502E+02  0.57191980981E+02  0.47000000000E+01 0. -1.
        -11    1    4    4    0    0 -0.10457968775E+02 -0.28484798393E+02 -0.35836293480E+02  0.46957350658E+02  0.00000000000E+00 0.  1.
         12    1    4    4    0    0  0.31251677454E+02  0.42812872968E+02 -0.79613669715E+02  0.95644894485E+02  0.00000000000E+00 0. -1.
         -5    1    5    5    0  502 -0.30720025578E+02 -0.49692444886E+02  0.94486562892E+02  0.11118839696E+03  0.47000000000E+01 0.  1.
         13    1    6    6    0    0 -0.10932512574E+02  0.35219139935E+02  0.21730434285E+02  0.42803264165E+02  0.00000000000E+00 0. -1.
        -14    1    6    6    0    0  0.55957277775E+02  0.34259017655E+02  0.12319078604E+02  0.66758197432E+02  0.00000000000E+00 0.  1.
<mgrwt>
<rscale>  2 0.18003399E+03</rscale>
<asrwt>0</asrwt>
<pdfrwt beam="1">  1       21 0.35603036E-01 0.18022285E+03</pdfrwt>
<pdfrwt beam="2">  1       21 0.29096054E-01 0.18022285E+03</pdfrwt>
<totfact> 0.86454116E+04</totfact>
</mgrwt>
</event>
<event>
12    1  0.1039378E-001  0.2073396E+03  0.7546771E-02  0.1144127E+00
         21   -1    0    0  501  502  0.00000000000E+00  0.00000000000E+00  0.49004161433E+02  0.49004161433E+02  0.00000000000E+00 0.  1.
         21   -1    0    0  502  503 -0.00000000000E+00 -0.00000000000E+00 -0.87708341844E+03  0.87708341844E+03  0.00000000000E+00 0.  1.
         -6    2    1    2    0  503 -0.22068802660E+02 -0.10954397463E+03 -0.36949680786E+03  0.42369517048E+03  0.17465048539E+03 0.  0.
        -24    2    3    3    0    0 -0.51376957032E+02 -0.17451528045E+02 -0.26264786445E+03  0.27954672846E+03  0.78856357693E+02 0.  0.
          6    2    1    2  501    0  0.22068802660E+02  0.10954397463E+03 -0.45858244914E+03  0.50239240938E+03  0.17208531581E+03 0.  0.
         24    2    5    5    0    0  0.79827651896E+02  0.10759276143E+03 -0.36553981986E+03  0.39276160732E+03  0.51900519838E+02 0.  0.
          5    1    5    5  501    0 -0.57758849236E+02  0.19512131982E+01 -0.93042629279E+02  0.10963080206E+03  0.47000000000E+01 0. -1.
        -11    1    6    6    0    0  0.17016466947E+02  0.20791923011E+02 -0.28796430009E+02  0.39383989020E+02  0.00000000000E+00 0.  1.
         12    1    6    6    0    0  0.62811184949E+02  0.86800838418E+02 -0.33674338985E+03  0.35337761830E+03  0.00000000000E+00 0. -1.
         -5    1    3    3    0  503  0.29308154372E+02 -0.92092446581E+02 -0.10684894341E+03  0.14414844203E+03  0.47000000000E+01 0.  1.
         13    1    4    4    0    0 -0.64174031890E+02 -0.26089484565E+02 -0.25049650974E+03  0.25989895915E+03  0.00000000000E+00 0. -1.
        -14    1    4    4    0    0  0.12797074857E+02  0.86379565199E+01 -0.12151354709E+02  0.19647769313E+02  0.00000000000E+00 0.  1.
<mgrwt>
<rscale>  2 0.20679846E+03</rscale>
<asrwt>0</asrwt>
<pdfrwt beam="1">  1       21 0.75391013E-02 0.20733959E+03</pdfrwt>
<pdfrwt beam="2">  1       21 0.13493592E+00 0.20733959E+03</pdfrwt>
<totfact> 0.51910722E+04</totfact>
</mgrwt>
</event>
<event>
12    1  0.1039378E-001  0.2097246E+03  0.7546771E-02  0.1142839E+00
         21   -1    0    0  501  502  0.00000000000E+00  0.00000000000E+00  0.58133094793E+03  0.58133094793E+03  0.00000000000E+00 0.  1.
         21   -1    0    0  502  503 -0.00000000000E+00 -0.00000000000E+00 -0.79761191394E+02  0.79761191394E+02  0.00000000000E+00 0. -1.
         -6    2    1    2    0  503 -0.23955101168E+02  0.11565426130E+03  0.16321619720E+03  0.26575161278E+03  0.17330504216E+03 0.  0.
        -24    2    3    3    0    0 -0.53023057664E+02  0.10250486614E+03  0.49066910310E+02  0.14713457191E+03  0.76956665316E+02 0.  0.
          6    2    1    2  501    0  0.23955101168E+02 -0.11565426130E+03  0.33835355934E+03  0.39534052654E+03  0.16691688286E+03 0.  0.
         24    2    5    5    0    0  0.22064399542E+02 -0.13280529684E+03  0.34260589511E+03  0.37695833048E+03  0.81207751800E+02 0.  0.
          5    1    5    5  501    0  0.18907016258E+01  0.17151035541E+02 -0.42523357772E+01  0.18382196069E+02  0.47000000000E+01 0. -1.
        -13    1    6    6    0    0  0.39847627614E+02 -0.48056634177E+02  0.20570489967E+03  0.21496925190E+03  0.00000000000E+00 0.  1.
         14    1    6    6    0    0 -0.17783228072E+02 -0.84748662660E+02  0.13690099544E+03  0.16198907857E+03  0.00000000000E+00 0. -1.
         -5    1    3    3    0  503  0.29067956495E+02  0.13149395154E+02  0.11414928689E+03  0.11861704087E+03  0.47000000000E+01 0.  1.
         11    1    4    4    0    0 -0.34173350135E+02  0.92916042404E+02  0.60328105673E+01  0.99184694377E+02  0.00000000000E+00 0. -1.
        -12    1    4    4    0    0 -0.18849707529E+02  0.95888237387E+01  0.43034099743E+02  0.47949877531E+02  0.00000000000E+00 0.  1.
<mgrwt>
<rscale>  2 0.20840028E+03</rscale>
<asrwt>0</asrwt>
<pdfrwt beam="1">  1       21 0.89435528E-01 0.20972456E+03</pdfrwt>
<pdfrwt beam="2">  1       21 0.12270953E-01 0.20972456E+03</pdfrwt>
<totfact> 0.59611597E+04</totfact>
</mgrwt>
</event>
<event>
12    1  0.1039378E-001  0.1951798E+03  0.7546771E-02  0.1154489E+00
         21   -1    0    0  503  502  0.00000000000E+00  0.00000000000E+00  0.19537636944E+03  0.19537636944E+03  0.00000000000E+00 0.  1.
         21   -1    0    0  501  503 -0.00000000000E+00 -0.00000000000E+00 -0.19296555252E+03  0.19296555252E+03  0.00000000000E+00 0. -1.
          6    2    1    2  501    0 -0.78611886088E+02 -0.40176143744E+02 -0.11198717596E+02  0.19550076331E+03  0.17407235857E+03 0.  0.
         24    2    3    3    0    0  0.10505423692E+02  0.21657239390E+02 -0.21718718061E+02  0.86422706020E+02  0.80111057019E+02 0.  0.
         -6    2    1    2    0  502  0.78611886088E+02  0.40176143744E+02  0.13609534517E+02  0.19284115866E+03  0.17090506687E+03 0.  0.
        -24    2    5    5    0    0  0.55546753491E+02  0.72645256689E+02 -0.32362272071E+02  0.13183508816E+03  0.89277089293E+02 0.  0.
          5    1    3    3  501    0 -0.89117309780E+02 -0.61833383133E+02  0.10520000465E+02  0.10907805729E+03  0.47000000000E+01 0. -1.
        -11    1    4    4    0    0 -0.22781029117E+02 -0.10305237620E+02  0.13459553472E+02  0.28395999537E+02  0.00000000000E+00 0.  1.
         12    1    4    4    0    0  0.33286452809E+02  0.31962477010E+02 -0.35178271533E+02  0.58026706483E+02  0.00000000000E+00 0. -1.
         -5    1    5    5    0  502  0.23065132597E+02 -0.32469112946E+02  0.45971806588E+02  0.61006070502E+02  0.47000000000E+01 0.  1.
         13    1    6    6    0    0 -0.41650941405E+01 -0.14688654265E+01 -0.36309971717E+02  0.36577583585E+02  0.00000000000E+00 0. -1.
        -14    1    6    6    0    0  0.59711847632E+02  0.74114122116E+02  0.39476996460E+01  0.95257504571E+02  0.00000000000E+00 0.  1.
<mgrwt>
<rscale>  2 0.19447105E+03</rscale>
<asrwt>0</asrwt>
<pdfrwt beam="1">  1       21 0.30057903E-01 0.19517976E+03</pdfrwt>
<pdfrwt beam="2">  1       21 0.29687008E-01 0.19517976E+03</pdfrwt>
<totfact> 0.11535685E+05</totfact>
</mgrwt>
</event>
<event>
12    1  0.1039378E-001  0.2265988E+03  0.7546771E-02  0.1129775E+00
         21   -1    0    0  503  502  0.00000000000E+00  0.00000000000E+00  0.10788277730E+03  0.10788277730E+03  0.00000000000E+00 0.  1.
         21   -1    0    0  501  503 -0.00000000000E+00 -0.00000000000E+00 -0.48682812294E+03  0.48682812294E+03  0.00000000000E+00 0.  1.
          6    2    1    2  501    0 -0.14313954047E+03 -0.27490543441E+02 -0.13207208768E+03  0.26227860800E+03  0.17350035691E+03 0.  0.
         24    2    3    3    0    0 -0.56730511399E+02 -0.24039643474E+02 -0.14198063728E+03  0.17510809481E+03  0.81902918879E+02 0.  0.
         -6    2    1    2    0  502  0.14313954047E+03  0.27490543441E+02 -0.24687325797E+03  0.33243229224E+03  0.16828596317E+03 0.  0.
        -24    2    5    5    0    0  0.12185080384E+03  0.72115223925E+02 -0.14105344082E+03  0.21553705659E+03  0.80696503519E+02 0.  0.
          5    1    3    3  501    0 -0.86409029071E+02 -0.34508999670E+01  0.99085496084E+01  0.87170513196E+02  0.47000000000E+01 0. -1.
        -11    1    4    4    0    0 -0.32103983782E+02 -0.49790055883E+02 -0.53898419003E+02  0.80092165725E+02  0.00000000000E+00 0.  1.
         12    1    4    4    0    0 -0.24626527617E+02  0.25750412409E+02 -0.88082218281E+02  0.95015929080E+02  0.00000000000E+00 0. -1.
         -5    1    5    5    0  502  0.21288736634E+02 -0.44624680484E+02 -0.10581981715E+03  0.11689523565E+03  0.47000000000E+01 0.  1.
         11    1    6    6    0    0 -0.11860235612E+01  0.78598891786E+01  0.84025924486E+01  0.11566679283E+02  0.00000000000E+00 0. -1.
        -12    1    6    6    0    0  0.12303682740E+03  0.64255334747E+02 -0.14945603326E+03  0.20397037731E+03  0.00000000000E+00 0.  1.
<mgrwt>
<rscale>  2 0.22560044E+03</rscale>
<asrwt>0</asrwt>
<pdfrwt beam="1">  1       21 0.16597350E-01 0.22659883E+03</pdfrwt>
<pdfrwt beam="2">  1       21 0.74896635E-01 0.22659883E+03</pdfrwt>
<totfact> 0.51165230E+04</totfact>
</mgrwt>
</event>
<event>
12    1  0.1039378E-001  0.1844945E+03  0.7546771E-02  0.1168216E+00
         21   -1    0    0  501  502  0.00000000000E+00  0.00000000000E+00  0.76939975466E+03  0.76939975466E+03  0.00000000000E+00 0.  1.
         21   -1    0    0  502  503 -0.00000000000E+00 -0.00000000000E+00 -0.54982523921E+02  0.54982523921E+02  0.00000000000E+00 0. -1.
         -6    2    1    2    0  503 -0.65129499710E+02 -0.98639602966E+01  0.12702403800E+03  0.20869649050E+03  0.15192093165E+03 0.  0.
        -24    2    3    3    0    0 -0.53158407946E+02  0.42026024873E+02  0.55134690135E+02  0.11910828852E+03  0.80962628632E+02 0.  0.
          6    2    1    2  501    0  0.65129499710E+02  0.98639602966E+01  0.58739319275E+03  0.61568578808E+03  0.17233420241E+03 0.  0.
         24    2    5    5    0    0 -0.12956844449E+02 -0.10891416471E+02  0.15514176249E+03  0.17592261117E+03  0.81199112572E+02 0.  0.
          5    1    5    5  501    0  0.78086344159E+02  0.20755376768E+02  0.43225143026E+03  0.43976317691E+03  0.47000000000E+01 0. -1.
        -11    1    6    6    0    0 -0.29925750668E+02 -0.39569661428E+02  0.94176792113E+02  0.10644518228E+03  0.00000000000E+00 0.  1.
         12    1    6    6    0    0  0.16968906218E+02  0.28678244957E+02  0.60964970377E+02  0.69477428890E+02  0.00000000000E+00 0. -1.
         -5    1    3    3    0  503 -0.11971091764E+02 -0.51889985169E+02  0.71889347863E+02  0.89588201985E+02  0.47000000000E+01 0.  1.
         11    1    4    4    0    0 -0.38795760984E+02 -0.16333452169E+01 -0.93314488458E+01  0.39935633518E+02  0.00000000000E+00 0. -1.
        -12    1    4    4    0    0 -0.14362646962E+02  0.43659370089E+02  0.64466138981E+02  0.79172654998E+02  0.00000000000E+00 0.  1.
<mgrwt>
<rscale>  2 0.17957434E+03</rscale>
<asrwt>0</asrwt>
<pdfrwt beam="1">  1       21 0.11836918E+00 0.18449452E+03</pdfrwt>
<pdfrwt beam="2">  1       21 0.84588504E-02 0.18449452E+03</pdfrwt>
<totfact> 0.59721575E+04</totfact>
</mgrwt>
</event>
<event>
12    1  0.1039378E-001  0.2042682E+03  0.7546771E-02  0.1146263E+00
         21   -1    0    0  501  502  0.00000000000E+00  0.00000000000E+00  0.10527781466E+03  0.10527781466E+03  0.00000000000E+00 0. -1.
         21   -1    0    0  502  503 -0.00000000000E+00 -0.00000000000E+00 -0.39940592908E+03  0.39940592908E+03  0.00000000000E+00 0. -1.
         -6    2    1    2    0  503 -0.10534777604E+03  0.22207869079E+02 -0.17149463299E+03  0.26643076620E+03  0.17315773350E+03 0.  0.
        -24    2    3    3    0    0 -0.13658396090E+03 -0.64567802557E+01 -0.13520221864E+03  0.21042549229E+03  0.85453961255E+02 0.  0.
          6    2    1    2  501    0  0.10534777604E+03 -0.22207869079E+02 -0.12263348143E+03  0.23825297754E+03  0.17359195597E+03 0.  0.
         24    2    5    5    0    0  0.13506951627E+03 -0.38838696090E+02 -0.12506101410E+03  0.20378633912E+03  0.78335153187E+02 0.  0.
          5    1    5    5  501    0 -0.29721740231E+02  0.16630827011E+02  0.24275326715E+01  0.34466638425E+02  0.47000000000E+01 0. -1.
        -13    1    6    6    0    0  0.81578093735E+01 -0.72764674578E+01 -0.53709246194E+02  0.54810400100E+02  0.00000000000E+00 0.  1.
         14    1    6    6    0    0  0.12691170689E+03 -0.31562228632E+02 -0.71351767907E+02  0.14897593902E+03  0.00000000000E+00 0. -1.
         -5    1    3    3    0  503  0.31236184865E+02  0.28664649334E+02 -0.36292414354E+02  0.56005273913E+02  0.47000000000E+01 0.  1.
         11    1    4    4    0    0 -0.71066786705E+02  0.39412916011E+02 -0.68357403406E+02  0.10619134014E+03  0.00000000000E+00 0. -1.
        -12    1    4    4    0    0 -0.65517174197E+02 -0.45869696267E+02 -0.66844815231E+02  0.10423415215E+03  0.00000000000E+00 0.  1.
<mgrwt>
<rscale>  2 0.20417595E+03</rscale>
<asrwt>0</asrwt>
<pdfrwt beam="1">  1       21 0.16196587E-01 0.20426823E+03</pdfrwt>
<pdfrwt beam="2">  1       21 0.61447065E-01 0.20426823E+03</pdfrwt>
<totfact> 0.83517740E+04</totfact>
</mgrwt>
</event>
<event>
12    1  0.1039378E-001  0.2145098E+03  0.7546771E-02  0.1138212E+00
         21   -1    0    0  501  502  0.00000000000E+00  0.00000000000E+00  0.34484404083E+03  0.34484404083E+03  0.00000000000E+00 0. -1.
         21   -1    0    0  502  503 -0.00000000000E+00 -0.00000000000E+00 -0.13312569459E+03  0.13312569459E+03  0.00000000000E+00 0.  1.
         -6    2    1    2    0  503 -0.51785750990E+02 -0.11639145261E+03  0.11607629214E+03  0.24390190823E+03  0.17258534409E+03 0.  0.
        -24    2    3    3    0    0 -0.52027588583E+02 -0.43358356552E+01  0.82381975599E+02  0.12679547483E+03  0.81022423372E+02 0.  0.
          6    2    1    2  501    0  0.51785750990E+02  0.11639145261E+03  0.95642054091E+02  0.23406782719E+03  0.17149813693E+03 0.  0.
         24    2    5    5    0    0 -0.35587912090E+02  0.37054337062E+02  0.72295342895E+02  0.11366976315E+03  0.71096238067E+02 0.  0.
          5    1    5    5  501    0  0.87373663080E+02  0.79337115544E+02  0.23346711197E+02  0.12039806405E+03  0.47000000000E+01 0. -1.
        -11    1    6    6    0    0 -0.23014748330E+02 -0.11240784387E+02 -0.25286623115E+00  0.25614406408E+02  0.00000000000E+00 0.  1.
         12    1    6    6    0    0 -0.12573163761E+02  0.48295121449E+02  0.72548209126E+02  0.88055356737E+02  0.00000000000E+00 0. -1.
         -5    1    3    3    0  503  0.24183759322E+00 -0.11205561695E+03  0.33694316544E+02  0.11710643340E+03  0.47000000000E+01 0.  1.
         13    1    4    4    0    0 -0.30963888401E+02  0.28795575639E+02  0.85000505497E+01  0.43130017628E+02  0.00000000000E+00 0. -1.
        -14    1    4    4    0    0 -0.21063700182E+02 -0.33131411294E+02  0.73881925049E+02  0.83665457201E+02  0.00000000000E+00 0.  1.
<mgrwt>
<rscale>  2 0.21429098E+03</rscale>
<asrwt>0</asrwt>
<pdfrwt beam="1">  1       21 0.53052929E-01 0.21450976E+03</pdfrwt>
<pdfrwt beam="2">  1       21 0.20480876E-01 0.21450976E+03</pdfrwt>
<totfact> 0.73609045E+04</totfact>
</mgrwt>
</event>
<event>
12    1  0.1039378E-001  0.2038170E+03  0.7546771E-02  0.1146990E+00
         21   -1    0    0  501  502  0.00000000000E+00  0.00000000000E+00  0.18786308727E+03  0.18786308727E+03  0.00000000000E+00 0. -1.
         21   -1    0    0  502  503 -0.00000000000E+00 -0.00000000000E+00 -0.41458489534E+03  0.41458489534E+03  0.00000000000E+00 0. -1.
         -6    2    1    2    0  503  0.52046814133E+02  0.92225101557E+02  0.93912602749E+02  0.22251668456E+03  0.17169670275E+03 0.  0.
        -24    2    3    3    0    0 -0.15988249295E+02  0.52019097743E+02  0.10372906163E+03  0.14274359722E+03  0.81574540609E+02 0.  0.
          6    2    1    2  501    0 -0.52046814133E+02 -0.92225101557E+02 -0.32063441082E+03  0.37993129805E+03  0.17414656360E+03 0.  0.
         24    2    5    5    0    0  0.35308145044E+02 -0.41224132652E+02 -0.11109685572E+03  0.14720814768E+03  0.79885124845E+02 0.  0.
          5    1    5    5  501    0 -0.87354959177E+02 -0.51000968905E+02 -0.20953755510E+03  0.23272315038E+03  0.47000000000E+01 0. -1.
        -11    1    6    6    0    0  0.18725812595E+02 -0.10085480351E+02  0.82069998445E+01  0.22797539729E+02  0.00000000000E+00 0.  1.
         12    1    6    6    0    0  0.16582332449E+02 -0.31138652300E+02 -0.11930385557E+03  0.12441060795E+03  0.00000000000E+00 0. -1.
         -5    1    3    3    0  503  0.68035063428E+02  0.40206003814E+02 -0.98164588831E+01  0.79773087337E+02  0.47000000000E+01 0.  1.
         13    1    4    4    0    0  0.14260275656E+02 -0.14498896872E+02  0.43609220804E+02  0.48117955188E+02  0.00000000000E+00 0. -1.
        -14    1    4    4    0    0 -0.30248524951E+02  0.66517994615E+02  0.60119840828E+02  0.94625642035E+02  0.00000000000E+00 0.  1.
<mgrwt>
<rscale>  2 0.20329267E+03</rscale>
<asrwt>0</asrwt>
<pdfrwt beam="1">  1       21 0.28902014E-01 0.20381699E+03</pdfrwt>
<pdfrwt beam="2">  1       21 0.63782291E-01 0.20381699E+03</pdfrwt>
<totfact> 0.25853900E+04</totfact>
</mgrwt>
</event>
<event>
12    1  0.1039378E-001  0.3830337E+03  0.7546771E-02  0.1049841E+00
         21   -1    0    0  503  502  0.00000000000E+00  0.00000000000E+00  0.10561971868E+04  0.10561971868E+04  0.00000000000E+00 0. -1.
         21   -1    0    0  501  503 -0.00000000000E+00 -0.00000000000E+00 -0.23719534458E+03  0.23719534458E+03  0.00000000000E+00 0.  1.
          6    2    1    2  501    0  0.20623380253E+03 -0.27221787103E+03 -0.70621454169E+01  0.38284515052E+03  0.17287447691E+03 0.  0.
         24    2    3    3    0    0  0.29937961879E+02 -0.71440292245E+02 -0.31763197660E+02  0.11447210502E+03  0.78070257996E+02 0.  0.
         -6    2    1    2    0  502 -0.20623380253E+03  0.27221787103E+03  0.82606398761E+03  0.91054738083E+03  0.17343549381E+03 0.  0.
        -24    2    5    5    0    0 -0.15719134708E+03  0.14402264529E+03  0.38688585988E+03  0.45039664878E+03  0.87891016061E+02 0.  0.
          5    1    3    3  501    0  0.17629584065E+03 -0.20077757878E+03  0.24701052243E+02  0.26837304551E+03  0.47000000000E+01 0. -1.
        -13    1    4    4    0    0  0.54771398229E+02 -0.61409767980E+02 -0.30166851620E+02  0.87641911229E+02  0.00000000000E+00 0.  1.
         14    1    4    4    0    0 -0.24833436349E+02 -0.10030524265E+02 -0.15963460400E+01  0.26830193786E+02  0.00000000000E+00 0. -1.
         -5    1    5    5    0  502 -0.49042455457E+02  0.12819522574E+03  0.43917812772E+03  0.46015073205E+03  0.47000000000E+01 0.  1.
         11    1    6    6    0    0 -0.44334747031E+02  0.97377701724E+02  0.15534686363E+03  0.18862829753E+03  0.00000000000E+00 0. -1.
        -12    1    6    6    0    0 -0.11285660004E+03  0.46644943565E+02  0.23153899625E+03  0.26176835125E+03  0.00000000000E+00 0.  1.
<mgrwt>
<rscale>  2 0.38297027E+03</rscale>
<asrwt>0</asrwt>
<pdfrwt beam="1">  1       21 0.16249187E+00 0.38303371E+03</pdfrwt>
<pdfrwt beam="2">  1       21 0.36491592E-01 0.38303371E+03</pdfrwt>
<totfact> 0.15300196E+03</totfact>
</mgrwt>
</event>
<event>
12    1  0.1039378E-001  0.1892160E+03  0.7546771E-02  0.1159248E+00
         21   -1    0    0  501  502  0.00000000000E+00  0.00000000000E+00  0.37408125402E+03  0.37408125402E+03  0.00000000000E+00 0.  1.
         21   -1    0    0  502  503 -0.00000000000E+00 -0.00000000000E+00 -0.96955385251E+02  0.96955385251E+02  0.00000000000E+00 0.  1.
         -6    2    1    2    0  503  0.67408381273E+02 -0.37952443439E+02  0.11018498166E+03  0.21895985816E+03  0.17268008418E+03 0.  0.
        -24    2    3    3    0    0  0.39870613263E+02  0.12785565070E+02  0.12922679409E+03  0.15798974420E+03  0.80672538613E+02 0.  0.
          6    2    1    2  501    0 -0.67408381273E+02  0.37952443439E+02  0.16694088711E+03  0.25207678112E+03  0.17230544379E+03 0.  0.
         24    2    5    5    0    0 -0.96776756795E+02  0.55778680323E+02  0.16819869159E+03  0.21737882333E+03  0.80534161367E+02 0.  0.
          5    1    5    5  501    0  0.29368375523E+02 -0.17826236885E+02 -0.12578044744E+01  0.34697957784E+02  0.47000000000E+01 0. -1.
        -11    1    6    6    0    0 -0.87841793346E+02  0.18148939247E+02  0.14967900931E+03  0.17449747987E+03  0.00000000000E+00 0.  1.
         12    1    6    6    0    0 -0.89349634486E+01  0.37629741077E+02  0.18519682282E+02  0.42881343462E+02  0.00000000000E+00 0. -1.
         -5    1    3    3    0  503  0.27537768009E+02 -0.50738008509E+02 -0.19041812436E+02  0.60970113951E+02  0.47000000000E+01 0.  1.
         13    1    4    4    0    0  0.26628539535E+02  0.38742903503E+02  0.32974301881E+02  0.57422959469E+02  0.00000000000E+00 0. -1.
        -14    1    4    4    0    0  0.13242073728E+02 -0.25957338433E+02  0.96252492211E+02  0.10056678474E+03  0.00000000000E+00 0.  1.
<mgrwt>
<rscale>  2 0.18913047E+03</rscale>
<asrwt>0</asrwt>
<pdfrwt beam="1">  1       21 0.57550961E-01 0.18921599E+03</pdfrwt>
<pdfrwt beam="2">  1       21 0.14916213E-01 0.18921599E+03</pdfrwt>
<totfact> 0.11241186E+05</totfact>
</mgrwt>
</event>
<event>
12    1  0.1039378E-001  0.3516320E+03  0.7546771E-02  0.1062000E+00
         21   -1    0    0  501  502  0.00000000000E+00  0.00000000000E+00  0.20588541297E+03  0.20588541297E+03  0.00000000000E+00 0. -1.
         21   -1    0    0  502  503 -0.00000000000E+00 -0.00000000000E+00 -0.93042654727E+03  0.93042654727E+03  0.00000000000E+00 0.  1.
         -6    2    1    2    0  503 -0.25135891129E+03 -0.17442378281E+03 -0.70119146117E+03  0.78441987914E+03  0.17332086798E+03 0.  0.
        -24    2    3    3    0    0 -0.13112081310E+03 -0.15403186709E+03 -0.34923502245E+03  0.41190349663E+03  0.82346256267E+02 0.  0.
          6    2    1    2  501    0  0.25135891129E+03  0.17442378281E+03 -0.23349673130E+02  0.35189208110E+03  0.17227266532E+03 0.  0.
         24    2    5    5    0    0  0.74772295934E+02  0.11292037652E+02 -0.67050267261E+00  0.11037348188E+03  0.80395581809E+02 0.  0.
          5    1    5    5  501    0  0.17658661536E+03  0.16313174516E+03 -0.22679170457E+02  0.24151859923E+03  0.47000000000E+01 0. -1.
        -13    1    6    6    0    0 -0.49376005948E+01 -0.92285841212E+01  0.22542551408E+02  0.24853838506E+02  0.00000000000E+00 0.  1.
         14    1    6    6    0    0  0.79709896529E+02  0.20520621773E+02 -0.23213054081E+02  0.85519643371E+02  0.00000000000E+00 0. -1.
         -5    1    3    3    0  503 -0.12023809819E+03 -0.20391915717E+02 -0.35195643873E+03  0.37251638251E+03  0.47000000000E+01 0.  1.
         11    1    4    4    0    0 -0.55734916940E+02 -0.10959237670E+03 -0.25622725657E+03  0.28419936137E+03  0.00000000000E+00 0. -1.
        -12    1    4    4    0    0 -0.75385896165E+02 -0.44439490394E+02 -0.93007765875E+02  0.12770413525E+03  0.00000000000E+00 0.  1.
<mgrwt>
<rscale>  2 0.35150309E+03</rscale>
<asrwt>0</asrwt>
<pdfrwt beam="1">  1       21 0.31674679E-01 0.35163203E+03</pdfrwt>
<pdfrwt beam="2">  1       21 0.14314254E+00 0.35163203E+03</pdfrwt>
<totfact> 0.29134424E+03</totfact>
</mgrwt>
</event>
<event>
12    1  0.1039378E-001  0.2192912E+03  0.7546771E-02  0.1134925E+00
         21   -1    0    0  503  502  0.00000000000E+00  0.00000000000E+00  0.98551056402E+03  0.98551056402E+03  0.00000000000E+00 0. -1.
         21   -1    0    0  501  503 -0.00000000000E+00 -0.00000000000E+00 -0.50174554421E+02  0.50174554421E+02  0.00000000000E+00 0.  1.
          6    2    1    2  501    0  0.13287598245E+03  0.37656360473E+01  0.36755302033E+03  0.42799984773E+03  0.17440883056E+03 0.  0.
         24    2    3    3    0    0  0.13841086980E+03 -0.48124664226E+02  0.26641936306E+03  0.31409925567E+03  0.78775079883E+02 0.  0.
         -6    2    1    2    0  502 -0.13287598245E+03 -0.37656360473E+01  0.56778298927E+03  0.60768527071E+03  0.17097853258E+03 0.  0.
        -24    2    5    5    0    0 -0.45661774691E+02  0.38910811285E+02  0.16257470494E+03  0.19097981012E+03  0.80272687044E+02 0.  0.
          5    1    3    3  501    0 -0.55348873490E+01  0.51890300273E+02  0.10113365727E+03  0.11390059206E+03  0.47000000000E+01 0. -1.
        -13    1    4    4    0    0  0.83827900992E+02  0.10003049219E+02  0.16241242275E+03  0.18304363699E+03  0.00000000000E+00 0.  1.
         14    1    4    4    0    0  0.54582968811E+02 -0.58127713445E+02  0.10400694031E+03  0.13105561868E+03  0.00000000000E+00 0. -1.
         -5    1    5    5    0  502 -0.87214207763E+02 -0.42676447332E+02  0.40520828434E+03  0.41670546059E+03  0.47000000000E+01 0.  1.
         11    1    6    6    0    0  0.17263001471E+01  0.34847699949E+02  0.12666946662E+03  0.13138681851E+03  0.00000000000E+00 0. -1.
        -12    1    6    6    0    0 -0.47388074838E+02  0.40631113362E+01  0.35905238316E+02  0.59592991610E+02  0.00000000000E+00 0.  1.
<mgrwt>
<rscale>  2 0.21860850E+03</rscale>
<asrwt>0</asrwt>
<pdfrwt beam="1">  1       21 0.15161700E+00 0.21929124E+03</pdfrwt>
<pdfrwt beam="2">  1       21 0.77191629E-02 0.21929124E+03</pdfrwt>
<totfact> 0.36526727E+04</totfact>
</mgrwt>
</event>
<event>
12    1  0.1039378E-001  0.1850925E+03  0.7546771E-02  0.1164583E+00
         21   -1    0    0  503  502  0.00000000000E+00  0.00000000000E+00  0.25569666464E+03  0.25569666464E+03  0.00000000000E+00 0.  1.
         21   -1    0    0  501  503 -0.00000000000E+00 -0.00000000000E+00 -0.20797442376E+03  0.20797442376E+03  0.00000000000E+00 0.  1.
          6    2    1    2  501    0 -0.32653584853E+02 -0.33800685208E+02 -0.11916826809E+03  0.21444891641E+03  0.17198406526E+03 0.  0.
         24    2    3    3    0    0 -0.80459399258E+02 -0.14127534535E+02 -0.40478217060E+02  0.12017992427E+03  0.78303422524E+02 0.  0.
         -6    2    1    2    0  502  0.32653584853E+02  0.33800685208E+02  0.16689050898E+03  0.24922217199E+03  0.17902655138E+03 0.  0.
        -24    2    5    5    0    0 -0.35563093961E+02  0.48751811125E+02  0.44586957108E+02  0.10830623877E+03  0.78107438012E+02 0.  0.
          5    1    3    3  501    0  0.47805814406E+02 -0.19673150674E+02 -0.78690051033E+02  0.94268992144E+02  0.47000000000E+01 0. -1.
        -11    1    4    4    0    0  0.49583112969E+01 -0.13725929116E+02 -0.30966681762E+02  0.34233336973E+02  0.00000000000E+00 0.  1.
         12    1    4    4    0    0 -0.85417710555E+02 -0.40160541925E+00 -0.95115352981E+01  0.85946587292E+02  0.00000000000E+00 0. -1.
         -5    1    5    5    0  502  0.68216678814E+02 -0.14951125917E+02  0.12230355187E+03  0.14091593322E+03  0.47000000000E+01 0.  1.
         11    1    6    6    0    0 -0.21638383597E+02 -0.18124516712E+02  0.31282464951E+01  0.28399008378E+02  0.00000000000E+00 0. -1.
        -12    1    6    6    0    0 -0.13924710365E+02  0.66876327837E+02  0.41458710613E+02  0.79907230395E+02  0.00000000000E+00 0.  1.
<mgrwt>
<rscale>  2 0.18336791E+03</rscale>
<asrwt>0</asrwt>
<pdfrwt beam="1">  1       21 0.39337948E-01 0.18509254E+03</pdfrwt>
<pdfrwt beam="2">  1       21 0.31996065E-01 0.18509254E+03</pdfrwt>
<totfact> 0.58724061E+04</totfact>
</mgrwt>
</event>
<event>
12    1  0.1039378E-001  0.1886476E+03  0.7546771E-02  0.1159813E+00
         21   -1    0    0  503  502  0.00000000000E+00  0.00000000000E+00  0.83366791313E+03  0.83366791313E+03  0.00000000000E+00 0.  1.
         21   -1    0    0  501  503 -0.00000000000E+00 -0.00000000000E+00 -0.91370735505E+02  0.91370735505E+02  0.00000000000E+00 0. -1.
          6    2    1    2  501    0 -0.99090398420E+01  0.74693045408E+02  0.32852004261E+02  0.19094030808E+03  0.17234183173E+03 0.  0.
         24    2    3    3    0    0  0.37561225573E+02 -0.86278336534E+01  0.32403231729E+02  0.94929442120E+02  0.80475737801E+02 0.  0.
         -6    2    1    2    0  502  0.99090398420E+01 -0.74693045408E+02  0.70944517336E+03  0.73409834055E+03  0.17294704244E+03 0.  0.
        -24    2    5    5    0    0  0.66101177082E+02 -0.58908344244E+02  0.35180050081E+03  0.37169178034E+03  0.80942130989E+02 0.  0.
          5    1    3    3  501    0 -0.47470265415E+02  0.83320879062E+02  0.44877253156E+00  0.96010865963E+02  0.47000000000E+01 0. -1.
        -11    1    4    4    0    0  0.35082926446E+02  0.48822365792E+01 -0.20053872179E+02  0.40703878825E+02  0.00000000000E+00 0.  1.
         12    1    4    4    0    0  0.24782991267E+01 -0.13510070233E+02  0.52457103908E+02  0.54225563295E+02  0.00000000000E+00 0. -1.
         -5    1    5    5    0  502 -0.56192137240E+02 -0.15784701164E+02  0.35764467255E+03  0.36240656020E+03  0.47000000000E+01 0.  1.
         13    1    6    6    0    0 -0.72136127041E+01  0.62906559195E+00 -0.19758534696E+00  0.72436849554E+01  0.00000000000E+00 0. -1.
        -14    1    6    6    0    0  0.73314789786E+02 -0.59537409836E+02  0.35199808616E+03  0.36444809539E+03  0.00000000000E+00 0.  1.
<mgrwt>
<rscale>  2 0.18850878E+03</rscale>
<asrwt>0</asrwt>
<pdfrwt beam="1">  1       21 0.12825660E+00 0.18864761E+03</pdfrwt>
<pdfrwt beam="2">  1       21 0.14057037E-01 0.18864761E+03</pdfrwt>
<totfact> 0.19789928E+04</totfact>
</mgrwt>
</event>
<event>
12    1  0.1039378E-001  0.1883983E+03  0.7546771E-02  0.1161483E+00
         21   -1    0    0  501  502  0.00000000000E+00  0.00000000000E+00  0.15424275230E+04  0.15424275230E+04  0.00000000000E+00 0. -1.
         21   -1    0    0  502  503 -0.00000000000E+00 -0.00000000000E+00 -0.29121346855E+02  0.29121346855E+02  0.00000000000E+00 0. -1.
         -6    2    1    2    0  503 -0.41852211428E+02 -0.45414453748E+02  0.36296674383E+03  0.40588393990E+03  0.17082984321E+03 0.  0.
        -24    2    3    3    0    0  0.21697283024E+01  0.11053761328E+02  0.29729624526E+03  0.30861475221E+03  0.82043369466E+02 0.  0.
          6    2    1    2  501    0  0.41852211428E+02  0.45414453748E+02  0.11503394323E+04  0.11656649300E+04  0.17798831192E+03 0.  0.
         24    2    5    5    0    0  0.57329238198E+02  0.24926568054E+02  0.11237644553E+04  0.11284142760E+04  0.81020071114E+02 0.  0.
          5    1    5    5  501    0 -0.15477026769E+02  0.20487885695E+02  0.26574977040E+02  0.37250653988E+02  0.47000000000E+01 0. -1.
        -13    1    6    6    0    0 -0.19472364055E+02 -0.43475846316E+01  0.19346689628E+03  0.19449296750E+03  0.00000000000E+00 0.  1.
         14    1    6    6    0    0  0.76801602253E+02  0.29274152685E+02  0.93029755902E+03  0.93392130848E+03  0.00000000000E+00 0. -1.
         -5    1    3    3    0  503 -0.44021939731E+02 -0.56468215076E+02  0.65670498564E+02  0.97269187687E+02  0.47000000000E+01 0.  1.
         13    1    4    4    0    0  0.10182145439E+02 -0.82249209635E+01  0.28074289562E+01  0.13386824416E+02  0.00000000000E+00 0. -1.
        -14    1    4    4    0    0 -0.80124171368E+01  0.19278682292E+02  0.29448881631E+03  0.29522792779E+03  0.00000000000E+00 0.  1.
<mgrwt>
<rscale>  2 0.18668821E+03</rscale>
<asrwt>0</asrwt>
<pdfrwt beam="1">  1       21 0.23729648E+00 0.18839830E+03</pdfrwt>
<pdfrwt beam="2">  1       21 0.44802084E-02 0.18839830E+03</pdfrwt>
<totfact> 0.25694548E+04</totfact>
</mgrwt>
</event>
<event>
12    1  0.1039378E-001  0.1920708E+03  0.7546771E-02  0.1156784E+00
         21   -1    0    0  501  502  0.00000000000E+00  0.00000000000E+00  0.21271886061E+03  0.21271886061E+03  0.00000000000E+00 0. -1.
         21   -1    0    0  502  503 -0.00000000000E+00 -0.00000000000E+00 -0.40168052071E+03  0.40168052071E+03  0.00000000000E+00 0.  1.
         -6    2    1    2    0  503 -0.79348158887E+02  0.23455188311E+02 -0.32650188875E+03  0.37880689552E+03  0.17333466059E+03 0.  0.
        -24    2    3    3    0    0 -0.12012338546E+03  0.25796336469E+02 -0.25732196187E+03  0.29833297204E+03  0.87709129734E+02 0.  0.
          6    2    1    2  501    0  0.79348158887E+02 -0.23455188311E+02  0.13754022865E+03  0.23559248580E+03  0.17245355517E+03 0.  0.
         24    2    5    5    0    0  0.85552401184E+02 -0.73824429560E+02  0.11338485211E+03  0.17919102037E+03  0.80523520459E+02 0.  0.
          5    1    5    5  501    0 -0.62042422968E+01  0.50369241249E+02  0.24155376543E+02  0.56401465428E+02  0.47000000000E+01 0. -1.
        -11    1    6    6    0    0  0.28537011697E+02 -0.57445890498E+02  0.17582607832E+02  0.66509694555E+02  0.00000000000E+00 0.  1.
         12    1    6    6    0    0  0.57015389487E+02 -0.16378539062E+02  0.95802244273E+02  0.11268132582E+03  0.00000000000E+00 0. -1.
         -5    1    3    3    0  503  0.40775226574E+02 -0.23411481580E+01 -0.69179926882E+02  0.80473923480E+02  0.47000000000E+01 0.  1.
         11    1    4    4    0    0  0.94431306429E+01 -0.11763422821E+02 -0.37475126556E+02  0.40397226925E+02  0.00000000000E+00 0. -1.
        -12    1    4    4    0    0 -0.12956651610E+03  0.37559759290E+02 -0.21984683531E+03  0.25793574512E+03  0.00000000000E+00 0.  1.
<mgrwt>
<rscale>  2 0.19187177E+03</rscale>
<asrwt>0</asrwt>
<pdfrwt beam="1">  1       21 0.32725978E-01 0.19207077E+03</pdfrwt>
<pdfrwt beam="2">  1       21 0.61797003E-01 0.19207077E+03</pdfrwt>
<totfact> 0.21862471E+04</totfact>
</mgrwt>
</event>
<event>
12    1  0.1039378E-001  0.1936280E+03  0.7546771E-02  0.1155280E+00
         21   -1    0    0  501  502  0.00000000000E+00  0.00000000000E+00  0.27490681900E+04  0.27490681900E+04  0.00000000000E+00 0. -1.
         21   -1    0    0  502  503 -0.00000000000E+00 -0.00000000000E+00 -0.24677972800E+02  0.24677972800E+02  0.00000000000E+00 0. -1.
         -6    2    1    2    0  503 -0.99604682898E+01  0.91048385185E+02  0.43435152078E+03  0.47555553149E+03  0.17059542946E+03 0.  0.
        -24    2    3    3    0    0 -0.18886588567E+02  0.11930357889E+03  0.25410184671E+03  0.29282604127E+03  0.81174471228E+02 0.  0.
          6    2    1    2  501    0  0.99604682898E+01 -0.91048385185E+02  0.22900386964E+04  0.22981906313E+04  0.17033475093E+03 0.  0.
         24    2    5    5    0    0 -0.17454437515E+02  0.12497713531E+02  0.88660643157E+03  0.89066884333E+03  0.82214194312E+02 0.  0.
          5    1    5    5  501    0  0.27414905804E+02 -0.10354609872E+03  0.14034322648E+04  0.14075217880E+04  0.47000000000E+01 0. -1.
        -13    1    6    6    0    0 -0.12000293112E+02 -0.30700061498E+02  0.58590599315E+03  0.58683245788E+03  0.00000000000E+00 0.  1.
         14    1    6    6    0    0 -0.54541444030E+01  0.43197775029E+02  0.30070043842E+03  0.30383638545E+03  0.00000000000E+00 0. -1.
         -5    1    3    3    0  503  0.89261202776E+01 -0.28255193701E+02  0.18024967407E+03  0.18272949022E+03  0.47000000000E+01 0.  1.
         13    1    4    4    0    0 -0.28965715727E+01  0.12269809225E+02  0.11926957506E+03  0.11993402303E+03  0.00000000000E+00 0. -1.
        -14    1    4    4    0    0 -0.15990016995E+02  0.10703376966E+03  0.13483227165E+03  0.17289201824E+03  0.00000000000E+00 0.  1.
<mgrwt>
<rscale>  2 0.19357061E+03</rscale>
<asrwt>0</asrwt>
<pdfrwt beam="1">  1       21 0.42293333E+00 0.19362805E+03</pdfrwt>
<pdfrwt beam="2">  1       21 0.37966134E-02 0.19362805E+03</pdfrwt>
<totfact> 0.26658932E+03</totfact>
</mgrwt>
</event>
<event>
12    1  0.1039378E-001  0.1797536E+03  0.7546771E-02  0.1168182E+00
         21   -1    0    0  503  502  0.00000000000E+00  0.00000000000E+00  0.37086121038E+02  0.37086121038E+02  0.00000000000E+00 0.  1.
         21   -1    0    0  501  503 -0.00000000000E+00 -0.00000000000E+00 -0.87028438190E+03  0.87028438190E+03  0.00000000000E+00 0. -1.
          6    2    1    2  501    0 -0.16530075100E+02 -0.43862677418E+02 -0.43803421687E+03  0.47348214003E+03  0.17353438831E+03 0.  0.
         24    2    3    3    0    0  0.53208528262E+02 -0.50359904131E+02 -0.24176264951E+03  0.26503477280E+03  0.80168476778E+02 0.  0.
         -6    2    1    2    0  502  0.16530075100E+02  0.43862677418E+02 -0.39516404398E+03  0.43388836290E+03  0.17293730641E+03 0.  0.
        -24    2    5    5    0    0  0.43426032527E+02  0.68923171149E+02 -0.37366350438E+03  0.39104231203E+03  0.81568691715E+02 0.  0.
          5    1    3    3  501    0 -0.69738603363E+02  0.64972267127E+01 -0.19627156736E+03  0.20844736724E+03  0.47000000000E+01 0. -1.
        -11    1    4    4    0    0 -0.10358439901E+02  0.47702549631E+01 -0.28742564934E+01  0.11760695557E+02  0.00000000000E+00 0.  1.
         12    1    4    4    0    0  0.63566968163E+02 -0.55130159094E+02 -0.23888839302E+03  0.25327407724E+03  0.00000000000E+00 0. -1.
         -5    1    5    5    0  502 -0.26895957427E+02 -0.25060493732E+02 -0.21500539605E+02  0.42846050871E+02  0.47000000000E+01 0.  1.
         13    1    6    6    0    0  0.41226005477E+01 -0.18559991721E+02 -0.74138075941E+02  0.76537072274E+02  0.00000000000E+00 0. -1.
        -14    1    6    6    0    0  0.39303431979E+02  0.87483162871E+02 -0.29952542844E+03  0.31450523975E+03  0.00000000000E+00 0.  1.
<mgrwt>
<rscale>  2 0.17960935E+03</rscale>
<asrwt>0</asrwt>
<pdfrwt beam="1">  1       21 0.57055572E-02 0.17975361E+03</pdfrwt>
<pdfrwt beam="2">  1       21 0.13388990E+00 0.17975361E+03</pdfrwt>
<totfact> 0.86729980E+04</totfact>
</mgrwt>
</event>
<event>
12    1  0.1039378E-001  0.1880206E+03  0.7546771E-02  0.1160298E+00
         21   -1    0    0  501  502  0.00000000000E+00  0.00000000000E+00  0.11396226440E+03  0.11396226440E+03  0.00000000000E+00 0. -1.
         21   -1    0    0  502  503 -0.00000000000E+00 -0.00000000000E+00 -0.40267466859E+03  0.40267466859E+03  0.00000000000E+00 0. -1.
         -6    2    1    2    0  503  0.28382947381E+02  0.68562017135E+02 -0.26828279677E+03  0.32750967704E+03  0.17257052940E+03 0.  0.
        -24    2    3    3    0    0  0.66249321478E+02  0.82089374862E+02 -0.13710210896E+03  0.19022415505E+03  0.79123971226E+02 0.  0.
          6    2    1    2  501    0 -0.28382947381E+02 -0.68562017135E+02 -0.20429607418E+02  0.18912725595E+03  0.17275823624E+03 0.  0.
         24    2    5    5    0    0  0.11959262383E+02  0.22472701238E+02 -0.26869012840E+02  0.89235465594E+02  0.81197156422E+02 0.  0.
          5    1    5    5  501    0 -0.40342209764E+02 -0.91034718373E+02  0.64394054214E+01  0.99891790353E+02  0.47000000000E+01 0. -1.
        -11    1    6    6    0    0 -0.30247358631E+01  0.33361093314E+02 -0.49638311987E+02  0.59883834138E+02  0.00000000000E+00 0.  1.
         12    1    6    6    0    0  0.14983998246E+02 -0.10888392076E+02  0.22769299147E+02  0.29351631455E+02  0.00000000000E+00 0. -1.
         -5    1    3    3    0  503 -0.37866374097E+02 -0.13527357727E+02 -0.13118068781E+03  0.13728552199E+03  0.47000000000E+01 0.  1.
         13    1    4    4    0    0  0.29907909034E+02  0.85772104802E+02 -0.11826975578E+03  0.14912770405E+03  0.00000000000E+00 0. -1.
        -14    1    4    4    0    0  0.36341412444E+02 -0.36827299400E+01 -0.18832353184E+02  0.41096450999E+02  0.00000000000E+00 0.  1.
<mgrwt>
<rscale>  2 0.18797748E+03</rscale>
<asrwt>0</asrwt>
<pdfrwt beam="1">  1       21 0.17532656E-01 0.18802061E+03</pdfrwt>
<pdfrwt beam="2">  1       21 0.61949950E-01 0.18802061E+03</pdfrwt>
<totfact> 0.71430956E+04</totfact>
</mgrwt>
</event>
<event>
12    1  0.1039378E-001  0.2331201E+03  0.7546771E-02  0.1124853E+00
         21   -1    0    0  503  502  0.00000000000E+00  0.00000000000E+00  0.85510829655E+02  0.85510829655E+02  0.00000000000E+00 0.  1.
         21   -1    0    0  501  503 -0.00000000000E+00 -0.00000000000E+00 -0.64791229617E+03  0.64791229617E+03  0.00000000000E+00 0.  1.
          6    2    1    2  501    0 -0.83343997032E+02  0.12893008983E+03 -0.22057420007E+03  0.32093292752E+03  0.17543026057E+03 0.  0.
         24    2    3    3    0    0 -0.91654660669E+02  0.85027103270E+02 -0.23230323931E+03  0.27449802986E+03  0.75856366195E+02 0.  0.
         -6    2    1    2    0  502  0.83343997032E+02 -0.12893008983E+03 -0.34182726644E+03  0.41249019830E+03  0.17243286726E+03 0.  0.
        -24    2    5    5    0    0  0.10584343811E+02 -0.13114137258E+03 -0.26555685626E+03  0.30695289505E+03  0.79934647927E+02 0.  0.
          5    1    3    3  501    0  0.83106636370E+01  0.43902986558E+02  0.11729039237E+02  0.46434897655E+02  0.47000000000E+01 0. -1.
        -11    1    4    4    0    0 -0.29093305832E+02 -0.81581420567E+01 -0.27017449190E+02  0.40532928426E+02  0.00000000000E+00 0.  1.
         12    1    4    4    0    0 -0.62561354837E+02  0.93185245326E+02 -0.20528579012E+03  0.23396510144E+03  0.00000000000E+00 0. -1.
         -5    1    5    5    0  502  0.72759653220E+02  0.22112827567E+01 -0.76270410178E+02  0.10553730325E+03  0.47000000000E+01 0.  1.
         11    1    6    6    0    0 -0.25294928673E+02 -0.71124637510E+02 -0.18767023048E+03  0.20228361991E+03  0.00000000000E+00 0. -1.
        -12    1    6    6    0    0  0.35879272485E+02 -0.60016735075E+02 -0.77886625778E+02  0.10466927514E+03  0.00000000000E+00 0.  1.
<mgrwt>
<rscale>  2 0.23255623E+03</rscale>
<asrwt>0</asrwt>
<pdfrwt beam="1">  1       21 0.13155512E-01 0.23312007E+03</pdfrwt>
<pdfrwt beam="2">  1       21 0.99678817E-01 0.23312007E+03</pdfrwt>
<totfact> 0.40319803E+04</totfact>
</mgrwt>
</event>
<event>
12    1  0.1039378E-001  0.1794010E+03  0.7546771E-02  0.1169037E+00
         21   -1    0    0  501  502  0.00000000000E+00  0.00000000000E+00  0.13156155327E+03  0.13156155327E+03  0.00000000000E+00 0.  1.
         21   -1    0    0  502  503 -0.00000000000E+00 -0.00000000000E+00 -0.27087954912E+03  0.27087954912E+03  0.00000000000E+00 0.  1.
         -6    2    1    2    0  503 -0.32981239225E+02 -0.76006327328E+01 -0.13600532243E+03  0.22300949063E+03  0.17346542429E+03 0.  0.
        -24    2    3    3    0    0 -0.67941153898E+02 -0.36512128669E+02 -0.13902017878E+03  0.17730118077E+03  0.78485429610E+02 0.  0.
          6    2    1    2  501    0  0.32981239225E+02  0.76006327328E+01 -0.33126734295E+01  0.17943161176E+03  0.17617944754E+03 0.  0.
         24    2    5    5    0    0  0.81280915112E+02 -0.20383097292E+02  0.21147826892E+02  0.11830588957E+03  0.80789820574E+02 0.  0.
          5    1    5    5  501    0 -0.48299675887E+02  0.27983730025E+02 -0.24460500321E+02  0.61125722186E+02  0.47000000000E+01 0. -1.
        -13    1    6    6    0    0 -0.40580715281E+00 -0.28220501776E+02  0.22715301481E+02  0.36229081154E+02  0.00000000000E+00 0.  1.
         14    1    6    6    0    0  0.81686722264E+02  0.78374044839E+01 -0.15674745890E+01  0.82076808417E+02  0.00000000000E+00 0. -1.
         -5    1    3    3    0  503  0.34959914673E+02  0.28911495936E+02  0.30148563570E+01  0.45708309858E+02  0.47000000000E+01 0.  1.
         11    1    4    4    0    0 -0.26753397984E+02 -0.39783305281E+02 -0.21151847636E+02  0.52400919278E+02  0.00000000000E+00 0. -1.
        -12    1    4    4    0    0 -0.41187755914E+02  0.32711766125E+01 -0.11786833115E+03  0.12490026149E+03  0.00000000000E+00 0.  1.
<mgrwt>
<rscale>  2 0.17873115E+03</rscale>
<asrwt>0</asrwt>
<pdfrwt beam="1">  1       21 0.20240239E-01 0.17940103E+03</pdfrwt>
<pdfrwt beam="2">  1       21 0.41673776E-01 0.17940103E+03</pdfrwt>
<totfact> 0.12571089E+05</totfact>
</mgrwt>
</event>
<event>
12    1  0.1039378E-001  0.1827188E+03  0.7546771E-02  0.1165499E+00
         21   -1    0    0  503  502  0.00000000000E+00  0.00000000000E+00  0.51675194324E+02  0.51675194324E+02  0.00000000000E+00 0.  1.
         21   -1    0    0  501  503 -0.00000000000E+00 -0.00000000000E+00 -0.64330204281E+03  0.64330204281E+03  0.00000000000E+00 0.  1.
          6    2    1    2  501    0  0.59940932371E+01  0.59723990328E+02 -0.27692212772E+03  0.33107447324E+03  0.17123538721E+03 0.  0.
         24    2    3    3    0    0  0.60062461891E+02  0.32936090936E+02 -0.95689281960E+02  0.14000272120E+03  0.75842190420E+02 0.  0.
         -6    2    1    2    0  502 -0.59940932371E+01 -0.59723990328E+02 -0.31470472076E+03  0.36390276389E+03  0.17257831882E+03 0.  0.
        -24    2    5    5    0    0  0.49048459923E+02  0.42898600111E+01 -0.14841410421E+03  0.17734951454E+03  0.83677653272E+02 0.  0.
          5    1    3    3  501    0 -0.54068368654E+02  0.26787899393E+02 -0.18123284576E+03  0.19107175203E+03  0.47000000000E+01 0. -1.
        -13    1    4    4    0    0 -0.13043553453E+02  0.24325011141E+02 -0.35167811300E+02  0.44705876631E+02  0.00000000000E+00 0.  1.
         14    1    4    4    0    0  0.73106015343E+02  0.86110797946E+01 -0.60521470660E+02  0.95296844572E+02  0.00000000000E+00 0. -1.
         -5    1    5    5    0  502 -0.55042553160E+02 -0.64013850339E+02 -0.16629061655E+03  0.18655324936E+03  0.47000000000E+01 0.  1.
         13    1    6    6    0    0 -0.15504774633E+01  0.14571668201E+02 -0.11481645060E+03  0.11574780699E+03  0.00000000000E+00 0. -1.
        -14    1    6    6    0    0  0.50598937387E+02 -0.10281808190E+02 -0.33597653612E+02  0.61601707546E+02  0.00000000000E+00 0.  1.
<mgrwt>
<rscale>  2 0.18240101E+03</rscale>
<asrwt>0</asrwt>
<pdfrwt beam="1">  1       21 0.79500296E-02 0.18271880E+03</pdfrwt>
<pdfrwt beam="2">  1       21 0.98969548E-01 0.18271880E+03</pdfrwt>
<totfact> 0.10248080E+05</totfact>
</mgrwt>
</event>
<event>
12    1  0.1039378E-001  0.1910498E+03  0.7546771E-02  0.1158441E+00
         21   -1    0    0  503  502  0.00000000000E+00  0.00000000000E+00  0.68316176124E+03  0.68316176124E+03  0.00000000000E+00 0.  1.
         21   -1    0    0  501  503 -0.00000000000E+00 -0.00000000000E+00 -0.59427994331E+02  0.59427994331E+02  0.00000000000E+00 0.  1.
          6    2    1    2  501    0  0.67542098326E+02  0.13183001307E+02  0.18027682855E+03  0.25972945624E+03  0.17385030617E+03 0.  0.
         24    2    3    3    0    0 -0.27778337386E+02 -0.11518877527E+02  0.62385357772E+02  0.10605233639E+03  0.80317150237E+02 0.  0.
         -6    2    1    2    0  502 -0.67542098326E+02 -0.13183001307E+02  0.44345693836E+03  0.48286029933E+03  0.17822537957E+03 0.  0.
        -24    2    5    5    0    0  0.75700676672E+01 -0.49631151671E+02  0.15055439978E+03  0.17825515780E+03  0.81164751262E+02 0.  0.
          5    1    3    3  501    0  0.95320435711E+02  0.24701878834E+02  0.11789147078E+03  0.15367711985E+03  0.47000000000E+01 0. -1.
        -11    1    4    4    0    0  0.27410731537E+02 -0.11083928690E+01  0.32167313076E+02  0.42276622011E+02  0.00000000000E+00 0.  1.
         12    1    4    4    0    0 -0.55189068923E+02 -0.10410484658E+02  0.30218044696E+02  0.63775714379E+02  0.00000000000E+00 0. -1.
         -5    1    5    5    0  502 -0.75112165993E+02  0.36448150364E+02  0.29290253858E+03  0.30460514153E+03  0.47000000000E+01 0.  1.
         13    1    6    6    0    0  0.40537241949E+02 -0.98933995620E+01  0.49238148741E+02  0.64541015108E+02  0.00000000000E+00 0. -1.
        -14    1    6    6    0    0 -0.32967174282E+02 -0.39737752109E+02  0.10131625104E+03  0.11371414269E+03  0.00000000000E+00 0.  1.
<mgrwt>
<rscale>  2 0.19002283E+03</rscale>
<asrwt>0</asrwt>
<pdfrwt beam="1">  1       21 0.10510180E+00 0.19104976E+03</pdfrwt>
<pdfrwt beam="2">  1       21 0.91427689E-02 0.19104976E+03</pdfrwt>
<totfact> 0.69315354E+04</totfact>
</mgrwt>
</event>
<event>
12    1  0.1039378E-001  0.3078104E+03  0.7546771E-02  0.1081459E+00
         21   -1    0    0  503  502  0.00000000000E+00  0.00000000000E+00  0.81635974921E+02  0.81635974921E+02  0.00000000000E+00 0.  1.
         21   -1    0    0  501  503 -0.00000000000E+00 -0.00000000000E+00 -0.16638648379E+04  0.16638648379E+04  0.00000000000E+00 0.  1.
          6    2    1    2  501    0 -0.81714392286E+02 -0.24066929868E+03 -0.12715384420E+04  0.13081499608E+04  0.17276387736E+03 0.  0.
         24    2    3    3    0    0 -0.60628229238E+02 -0.25978252729E+03 -0.11565012371E+04  0.11895515195E+04  0.79843361792E+02 0.  0.
         -6    2    1    2    0  502  0.81714392286E+02  0.24066929868E+03 -0.31069042104E+03  0.43735085205E+03  0.17363259149E+03 0.  0.
        -24    2    5    5    0    0  0.17216013889E+02  0.16269137547E+03 -0.11066048588E+03  0.21313073188E+03  0.80088020037E+02 0.  0.
          5    1    3    3  501    0 -0.21086163049E+02  0.19113228617E+02 -0.11503720488E+03  0.11859844134E+03  0.47000000000E+01 0. -1.
        -13    1    4    4    0    0 -0.66808521413E+02 -0.15010731674E+03 -0.79173551010E+03  0.80860416956E+03  0.00000000000E+00 0.  1.
         14    1    4    4    0    0  0.61802921750E+01 -0.10967521055E+03 -0.36476572699E+03  0.38094734991E+03  0.00000000000E+00 0. -1.
         -5    1    5    5    0  502  0.64498378397E+02  0.77977923211E+02 -0.20002993516E+03  0.22422012016E+03  0.47000000000E+01 0.  1.
         11    1    6    6    0    0 -0.84302551175E+01 -0.65168869814E+01 -0.35319590275E+01  0.11225584699E+02  0.00000000000E+00 0. -1.
        -12    1    6    6    0    0  0.25646269007E+02  0.16920826245E+03 -0.10712852685E+03  0.20190514719E+03  0.00000000000E+00 0.  1.
<mgrwt>
<rscale>  2 0.30768801E+03</rscale>
<asrwt>0</asrwt>
<pdfrwt beam="1">  1       21 0.12559382E-01 0.30781038E+03</pdfrwt>
<pdfrwt beam="2">  1       21 0.25597918E+00 0.30781038E+03</pdfrwt>
<totfact> 0.29994649E+03</totfact>
</mgrwt>
</event>
<event>
12    1  0.1039378E-001  0.1980977E+03  0.7546771E-02  0.1153914E+00
         21   -1    0    0  501  502  0.00000000000E+00  0.00000000000E+00  0.50694967189E+02  0.50694967189E+02  0.00000000000E+00 0. -1.
         21   -1    0    0  502  503 -0.00000000000E+00 -0.00000000000E+00 -0.78900062431E+03  0.78900062431E+03  0.00000000000E+00 0. -1.
         -6    2    1    2    0  503 -0.64453438444E+02 -0.10022927952E+02 -0.47419109846E+03  0.50954534648E+03  0.17471278559E+03 0.  0.
        -24    2    3    3    0    0  0.16732305146E+02  0.39973440942E+02 -0.21739633637E+03  0.23558111213E+03  0.79746142915E+02 0.  0.
          6    2    1    2  501    0  0.64453438444E+02  0.10022927952E+02 -0.26411455866E+03  0.33015024502E+03  0.18705074012E+03 0.  0.
         24    2    5    5    0    0  0.10444569943E+03 -0.21623438748E+02 -0.23773821435E+03  0.27254230283E+03  0.79896001389E+02 0.  0.
          5    1    5    5  501    0 -0.39992260983E+02  0.31646366701E+02 -0.26376344308E+02  0.57607942186E+02  0.47000000000E+01 0. -1.
        -11    1    6    6    0    0  0.85540145066E+02  0.19707400850E+02 -0.15363082376E+03  0.17694046478E+03  0.00000000000E+00 0.  1.
         12    1    6    6    0    0  0.18905554362E+02 -0.41330839598E+02 -0.84107390587E+02  0.95601838052E+02  0.00000000000E+00 0. -1.
         -5    1    3    3    0  503 -0.81185743591E+02 -0.49996368894E+02 -0.25679476209E+03  0.27396423435E+03  0.47000000000E+01 0.  1.
         11    1    4    4    0    0  0.20090459938E+01  0.26630495592E+00 -0.17714014086E+03  0.17715173352E+03  0.00000000000E+00 0. -1.
        -12    1    4    4    0    0  0.14723259153E+02  0.39707135986E+02 -0.40256195507E+02  0.58429378612E+02  0.00000000000E+00 0.  1.
<mgrwt>
<rscale>  2 0.19513023E+03</rscale>
<asrwt>0</asrwt>
<pdfrwt beam="1">  1       21 0.77992260E-02 0.19809766E+03</pdfrwt>
<pdfrwt beam="2">  1       21 0.12138471E+00 0.19809766E+03</pdfrwt>
<totfact> 0.64200605E+04</totfact>
</mgrwt>
</event>
<event>
12    1  0.1039378E-001  0.3068847E+03  0.7546771E-02  0.1081895E+00
         21   -1    0    0  501  502  0.00000000000E+00  0.00000000000E+00  0.82052504852E+03  0.82052504852E+03  0.00000000000E+00 0. -1.
         21   -1    0    0  502  503 -0.00000000000E+00 -0.00000000000E+00 -0.12976942402E+03  0.12976942402E+03  0.00000000000E+00 0.  1.
         -6    2    1    2    0  503 -0.24521459549E+03 -0.65766711317E+02  0.18330275108E+03  0.35746064738E+03  0.17240289356E+03 0.  0.
        -24    2    3    3    0    0 -0.24223961997E+03 -0.70105917458E+02  0.20490779566E+03  0.33473297393E+03  0.80399539602E+02 0.  0.
          6    2    1    2  501    0  0.24521459549E+03  0.65766711317E+02  0.50745287342E+03  0.59283382516E+03  0.17172089957E+03 0.  0.
         24    2    5    5    0    0  0.16989866227E+03  0.11141668903E+03  0.39010032708E+03  0.44603423254E+03  0.74088037960E+02 0.  0.
          5    1    5    5  501    0  0.75315933223E+02 -0.45649977711E+02  0.11735254634E+03  0.14679959263E+03  0.47000000000E+01 0. -1.
        -11    1    6    6    0    0  0.11497815839E+03  0.50736027236E+02  0.17152182227E+03  0.21263550241E+03  0.00000000000E+00 0.  1.
         12    1    6    6    0    0  0.54920503874E+02  0.60680661793E+02  0.21857850481E+03  0.23339873013E+03  0.00000000000E+00 0. -1.
         -5    1    3    3    0  503 -0.29749755264E+01  0.43392061404E+01 -0.21605044577E+02  0.22727673451E+02  0.47000000000E+01 0.  1.
         13    1    4    4    0    0 -0.14353970682E+02 -0.61895302436E+01  0.48712468730E+02  0.51159079045E+02  0.00000000000E+00 0. -1.
        -14    1    4    4    0    0 -0.22788564928E+03 -0.63916387214E+02  0.15619532693E+03  0.28357389488E+03  0.00000000000E+00 0.  1.
<mgrwt>
<rscale>  2 0.30678900E+03</rscale>
<asrwt>0</asrwt>
<pdfrwt beam="1">  1       21 0.12623462E+00 0.30688469E+03</pdfrwt>
<pdfrwt beam="2">  1       21 0.19964527E-01 0.30688469E+03</pdfrwt>
<totfact> 0.10081428E+04</totfact>
</mgrwt>
</event>
<event>
12    1  0.1039378E-001  0.1847606E+03  0.7546771E-02  0.1163622E+00
         21   -1    0    0  503  502  0.00000000000E+00  0.00000000000E+00  0.13023261732E+03  0.13023261732E+03  0.00000000000E+00 0. -1.
         21   -1    0    0  501  503 -0.00000000000E+00 -0.00000000000E+00 -0.26578146764E+03  0.26578146764E+03  0.00000000000E+00 0. -1.
          6    2    1    2  501    0 -0.53841671699E+02  0.36753753508E+02 -0.38346056122E+02  0.18724422659E+03  0.17128986066E+03 0.  0.
         24    2    3    3    0    0 -0.23486350947E+02 -0.12902617494E+02 -0.79254511371E+02  0.11595052147E+03  0.80281751586E+02 0.  0.
         -6    2    1    2    0  502  0.53841671699E+02 -0.36753753508E+02 -0.97202794199E+02  0.20876985836E+03  0.17287772139E+03 0.  0.
        -24    2    5    5    0    0  0.22427054933E+02  0.69401968405E+01  0.14309952104E+02  0.84861739049E+02  0.80284499750E+02 0.  0.
          5    1    3    3  501    0 -0.30355320752E+02  0.49656371002E+02  0.40908455249E+02  0.71293705121E+02  0.47000000000E+01 0. -1.
        -11    1    4    4    0    0 -0.45431939154E+00 -0.29524486420E+02  0.22745190190E+01  0.29615454433E+02  0.00000000000E+00 0.  1.
         12    1    4    4    0    0 -0.23032031556E+02  0.16621868926E+02 -0.81529030390E+02  0.86335067038E+02  0.00000000000E+00 0. -1.
         -5    1    5    5    0  502  0.31414616766E+02 -0.43693950348E+02 -0.11151274630E+03  0.12390811931E+03  0.47000000000E+01 0.  1.
         11    1    6    6    0    0  0.31596181216E+02 -0.31193799099E+02  0.86443698401E+01  0.45233802622E+02  0.00000000000E+00 0. -1.
        -12    1    6    6    0    0 -0.91691262835E+01  0.38133995939E+02  0.56655822641E+01  0.39627936428E+02  0.00000000000E+00 0.  1.
<mgrwt>
<rscale>  2 0.18438823E+03</rscale>
<asrwt>0</asrwt>
<pdfrwt beam="1">  1       21 0.20035787E-01 0.18476058E+03</pdfrwt>
<pdfrwt beam="2">  1       21 0.40889456E-01 0.18476058E+03</pdfrwt>
<totfact> 0.13289876E+05</totfact>
</mgrwt>
</event>
<event>
12    1  0.1039378E-001  0.2792971E+03  0.7546771E-02  0.1096086E+00
         21   -1    0    0  501  502  0.00000000000E+00  0.00000000000E+00  0.57429799610E+03  0.57429799610E+03  0.00000000000E+00 0.  1.
         21   -1    0    0  502  503 -0.00000000000E+00 -0.00000000000E+00 -0.14404733943E+03  0.14404733943E+03  0.00000000000E+00 0. -1.
         -6    2    1    2    0  503  0.20846488487E+03  0.69068079995E+02  0.12908235592E+03  0.30760306470E+03  0.17242210677E+03 0.  0.
        -24    2    3    3    0    0  0.41488295702E+02 -0.43268545791E+01  0.17063213324E+02  0.93504078107E+02  0.81925936204E+02 0.  0.
          6    2    1    2  501    0 -0.20846488487E+03 -0.69068079995E+02  0.30116830075E+03  0.41074227083E+03  0.17256552313E+03 0.  0.
         24    2    5    5    0    0 -0.14082085527E+03 -0.58858076592E+02  0.29476870317E+03  0.34187280184E+03  0.81814655233E+02 0.  0.
          5    1    5    5  501    0 -0.67644029601E+02 -0.10210003403E+02  0.63995975792E+01  0.68869468992E+02  0.47000000000E+01 0. -1.
        -11    1    6    6    0    0 -0.95909483920E+02  0.27119503625E-01  0.19811000372E+03  0.22010498271E+03  0.00000000000E+00 0.  1.
         12    1    6    6    0    0 -0.44911371352E+02 -0.58885196096E+02  0.96658699452E+02  0.12176781913E+03  0.00000000000E+00 0. -1.
         -5    1    3    3    0  503  0.16697658917E+03  0.73394934574E+02  0.11201914260E+03  0.21409898659E+03  0.47000000000E+01 0.  1.
         11    1    4    4    0    0  0.32477907514E+02 -0.29296712170E+02 -0.19853461445E+02  0.48034068657E+02  0.00000000000E+00 0. -1.
        -12    1    4    4    0    0  0.90103881877E+01  0.24969857590E+02  0.36916674769E+02  0.45470009450E+02  0.00000000000E+00 0.  1.
<mgrwt>
<rscale>  2 0.27927495E+03</rscale>
<asrwt>0</asrwt>
<pdfrwt beam="1">  1       21 0.88353537E-01 0.27929710E+03</pdfrwt>
<pdfrwt beam="2">  1       21 0.22161129E-01 0.27929710E+03</pdfrwt>
<totfact> 0.19946168E+04</totfact>
</mgrwt>
</event>
<event>
12    1  0.1039378E-001  0.1866766E+03  0.7546771E-02  0.1162025E+00
         21   -1    0    0  501  502  0.00000000000E+00  0.00000000000E+00  0.30131705703E+03  0.30131705703E+03  0.00000000000E+00 0.  1.
         21   -1    0    0  502  503 -0.00000000000E+00 -0.00000000000E+00 -0.17061200151E+03  0.17061200151E+03  0.00000000000E+00 0.  1.
         -6    2    1    2    0  503  0.24533312506E+02  0.77589082305E+02 -0.70553355426E+02  0.19742388738E+03  0.16545835195E+03 0.  0.
        -24    2    3    3    0    0  0.10866038700E+01 -0.16837798206E+02 -0.40972238226E+02  0.95623512119E+02  0.84737474640E+02 0.  0.
          6    2    1    2  501    0 -0.24533312506E+02 -0.77589082305E+02  0.20125841094E+03  0.27450517116E+03  0.16800652339E+03 0.  0.
         24    2    5    5    0    0  0.33281559166E+02  0.45599842956E+01  0.95241007696E+02  0.12837916963E+03  0.79258475962E+02 0.  0.
          5    1    5    5  501    0 -0.57814871672E+02 -0.82149066601E+02  0.10601740325E+03  0.14612600152E+03  0.47000000000E+01 0. -1.
        -11    1    6    6    0    0  0.96507756888E+01 -0.21866357886E+02  0.89288272354E+02  0.92431978550E+02  0.00000000000E+00 0.  1.
         12    1    6    6    0    0  0.23630783477E+02  0.26426342181E+02  0.59527353411E+01  0.35947191084E+02  0.00000000000E+00 0. -1.
         -5    1    3    3    0  503  0.23446708636E+02  0.94426880511E+02 -0.29581117200E+02  0.10180037526E+03  0.47000000000E+01 0.  1.
         11    1    4    4    0    0  0.14260629452E+02  0.26409421723E+02  0.58048347494E+01  0.30569907009E+02  0.00000000000E+00 0. -1.
        -12    1    4    4    0    0 -0.13174025582E+02 -0.43247219929E+02 -0.46777072975E+02  0.65053605109E+02  0.00000000000E+00 0.  1.
<mgrwt>
<rscale>  2 0.18610142E+03</rscale>
<asrwt>0</asrwt>
<pdfrwt beam="1">  1       21 0.46356470E-01 0.18667657E+03</pdfrwt>
<pdfrwt beam="2">  1       21 0.26248000E-01 0.18667657E+03</pdfrwt>
<totfact> 0.61671015E+04</totfact>
</mgrwt>
</event>
<event>
12    1  0.1039378E-001  0.2259992E+03  0.7546771E-02  0.1129507E+00
         21   -1    0    0  501  502  0.00000000000E+00  0.00000000000E+00  0.11231323923E+04  0.11231323923E+04  0.00000000000E+00 0.  1.
         21   -1    0    0  502  503 -0.00000000000E+00 -0.00000000000E+00 -0.50271529218E+02  0.50271529218E+02  0.00000000000E+00 0.  1.
         -6    2    1    2    0  503  0.11549441350E+03  0.92965611310E+02  0.35493218733E+03  0.42077608499E+03  0.17056990255E+03 0.  0.
        -24    2    3    3    0    0  0.17314916587E+02  0.64883495935E+01  0.21235714816E+03  0.22721146476E+03  0.78661212343E+02 0.  0.
          6    2    1    2  501    0 -0.11549441350E+03 -0.92965611310E+02  0.71792867570E+03  0.75262783648E+03  0.17042744033E+03 0.  0.
         24    2    5    5    0    0 -0.10581348428E+03 -0.96813189376E+02  0.72223232376E+03  0.74041572635E+03  0.77631380572E+02 0.  0.
          5    1    5    5  501    0 -0.96809292177E+01  0.38475780661E+01 -0.43036480523E+01  0.12212110139E+02  0.47000000000E+01 0. -1.
        -13    1    6    6    0    0 -0.11044057149E+03 -0.10572146819E+03  0.68498426662E+03  0.70183872377E+03  0.00000000000E+00 0.  1.
         14    1    6    6    0    0  0.46270872053E+01  0.89082788102E+01  0.37248057134E+02  0.38577002574E+02  0.00000000000E+00 0. -1.
         -5    1    3    3    0  503  0.98179496912E+02  0.86477261717E+02  0.14257503917E+03  0.19356462022E+03  0.47000000000E+01 0.  1.
         11    1    4    4    0    0 -0.29298610019E+02 -0.10518336230E+02  0.86044902501E+02  0.91502837074E+02  0.00000000000E+00 0. -1.
        -12    1    4    4    0    0  0.46613526606E+02  0.17006685823E+02  0.12631224566E+03  0.13570862769E+03  0.00000000000E+00 0.  1.
<mgrwt>
<rscale>  2 0.22597236E+03</rscale>
<asrwt>0</asrwt>
<pdfrwt beam="1">  1       21 0.17278958E+00 0.22599924E+03</pdfrwt>
<pdfrwt beam="2">  1       21 0.77340823E-02 0.22599924E+03</pdfrwt>
<totfact> 0.25404973E+04</totfact>
</mgrwt>
</event>
<event>
12    1  0.1039378E-001  0.2537691E+03  0.7546771E-02  0.1110977E+00
         21   -1    0    0  501  502  0.00000000000E+00  0.00000000000E+00  0.67081925335E+03  0.67081925335E+03  0.00000000000E+00 0. -1.
         21   -1    0    0  502  503 -0.00000000000E+00 -0.00000000000E+00 -0.19069539046E+03  0.19069539046E+03  0.00000000000E+00 0.  1.
         -6    2    1    2    0  503  0.17823323931E+03 -0.51027332680E+02 -0.63655474980E+02  0.26143571637E+03  0.17299057206E+03 0.  0.
        -24    2    3    3    0    0  0.15922086858E+02 -0.42557862980E+02 -0.33693768584E+02  0.96098376434E+02  0.77684897892E+02 0.  0.
          6    2    1    2  501    0 -0.17823323931E+03  0.51027332680E+02  0.54377933787E+03  0.60007892744E+03  0.17328552908E+03 0.  0.
         24    2    5    5    0    0 -0.16736468652E+03  0.13243841968E+02  0.29425186026E+03  0.34742942775E+03  0.77050063969E+02 0.  0.
          5    1    5    5  501    0 -0.10868552788E+02  0.37783490712E+02  0.24952747761E+03  0.25264949969E+03  0.47000000000E+01 0. -1.
        -11    1    6    6    0    0 -0.20129334736E+02  0.26907071511E+02  0.32218381041E+02  0.46553245764E+02  0.00000000000E+00 0.  1.
         12    1    6    6    0    0 -0.14723535178E+03 -0.13663229543E+02  0.26203347922E+03  0.30087618199E+03  0.00000000000E+00 0. -1.
         -5    1    3    3    0  503  0.16231115245E+03 -0.84694696999E+01 -0.29961706396E+02  0.16533733993E+03  0.47000000000E+01 0.  1.
         11    1    4    4    0    0  0.31278420900E+02 -0.15333394281E+02  0.15249038231E+02  0.38026119459E+02  0.00000000000E+00 0. -1.
        -12    1    4    4    0    0 -0.15356334041E+02 -0.27224468700E+02 -0.48942806816E+02  0.58072256975E+02  0.00000000000E+00 0.  1.
<mgrwt>
<rscale>  2 0.25371874E+03</rscale>
<asrwt>0</asrwt>
<pdfrwt beam="1">  1       21 0.10320296E+00 0.25376909E+03</pdfrwt>
<pdfrwt beam="2">  1       21 0.29337753E-01 0.25376909E+03</pdfrwt>
<totfact> 0.81414301E+03</totfact>
</mgrwt>
</event>
<event>
12    1  0.1039378E-001  0.1784695E+03  0.7546771E-02  0.1169414E+00
         21   -1    0    0  501  502  0.00000000000E+00  0.00000000000E+00  0.47115962727E+03  0.47115962727E+03  0.00000000000E+00 0. -1.
         21   -1    0    0  502  503 -0.00000000000E+00 -0.00000000000E+00 -0.10921766040E+03  0.10921766040E+03  0.00000000000E+00 0. -1.
         -6    2    1    2    0  503  0.49156799468E+01 -0.38645581083E+02  0.15964994188E+01  0.17847659531E+03  0.17416572974E+03 0.  0.
        -24    2    3    3    0    0  0.60378158721E+02 -0.33402068299E+02  0.36308480261E+02  0.11266935717E+03  0.81331777849E+02 0.  0.
          6    2    1    2  501    0 -0.49156799468E+01  0.38645581083E+02  0.36034546745E+03  0.40190069237E+03  0.17365962618E+03 0.  0.
         24    2    5    5    0    0  0.43829825436E+02  0.63433097858E+02  0.30827473385E+03  0.32624359369E+03  0.73869881473E+02 0.  0.
          5    1    5    5  501    0 -0.48745505383E+02 -0.24787516775E+02  0.52070733600E+02  0.75657098679E+02  0.47000000000E+01 0. -1.
        -11    1    6    6    0    0  0.39657482043E+02  0.26377503085E+02  0.67579610592E+02  0.82677036224E+02  0.00000000000E+00 0.  1.
         12    1    6    6    0    0  0.41723433932E+01  0.37055594773E+02  0.24069512326E+03  0.24356655746E+03  0.00000000000E+00 0. -1.
         -5    1    3    3    0  503 -0.55462478774E+02 -0.52435127837E+01 -0.34711980843E+02  0.65807238144E+02  0.47000000000E+01 0.  1.
         11    1    4    4    0    0  0.79485855965E+01 -0.10128320571E+02 -0.25363221639E+02  0.28443908003E+02  0.00000000000E+00 0. -1.
        -12    1    4    4    0    0  0.52429573124E+02 -0.23273747729E+02  0.61671701900E+02  0.84225449163E+02  0.00000000000E+00 0.  1.
<mgrwt>
<rscale>  2 0.17834586E+03</rscale>
<asrwt>0</asrwt>
<pdfrwt beam="1">  1       21 0.72486095E-01 0.17846945E+03</pdfrwt>
<pdfrwt beam="2">  1       21 0.16802717E-01 0.17846945E+03</pdfrwt>
<totfact> 0.55036693E+04</totfact>
</mgrwt>
</event>
<event>
12    1  0.1039378E-001  0.1929714E+03  0.7546771E-02  0.1155860E+00
         21   -1    0    0  501  502  0.00000000000E+00  0.00000000000E+00  0.33625324705E+03  0.33625324705E+03  0.00000000000E+00 0. -1.
         21   -1    0    0  502  503 -0.00000000000E+00 -0.00000000000E+00 -0.12000262165E+03  0.12000262165E+03  0.00000000000E+00 0. -1.
         -6    2    1    2    0  503 -0.83748060154E+02  0.14987789879E+02  0.44363743842E+02  0.19800535747E+03  0.17320395029E+03 0.  0.
        -24    2    3    3    0    0  0.16848775602E+02  0.36740595335E+02  0.25020584937E+02  0.93176183547E+02  0.80137500116E+02 0.  0.
          6    2    1    2  501    0  0.83748060154E+02 -0.14987789879E+02  0.17188688156E+03  0.25825051122E+03  0.17294465898E+03 0.  0.
         24    2    5    5    0    0  0.67690407761E+01  0.98016960257E+01  0.15461532449E+03  0.17542126084E+03  0.82005042702E+02 0.  0.
          5    1    5    5  501    0  0.76979019378E+02 -0.24789485905E+02  0.17271557071E+02  0.82829250386E+02  0.47000000000E+01 0. -1.
        -13    1    6    6    0    0  0.36785356301E+02  0.17458959732E+02  0.41495426602E+02  0.58136461381E+02  0.00000000000E+00 0.  1.
         14    1    6    6    0    0 -0.30016315524E+02 -0.76572637065E+01  0.11311989789E+03  0.11728479946E+03  0.00000000000E+00 0. -1.
         -5    1    3    3    0  503 -0.10059683576E+03 -0.21752805456E+02  0.19343158905E+02  0.10482917393E+03  0.47000000000E+01 0.  1.
         13    1    4    4    0    0 -0.23006737962E+02  0.21492978620E+02 -0.14818497558E+02  0.34797212410E+02  0.00000000000E+00 0. -1.
        -14    1    4    4    0    0  0.39855513565E+02  0.15247616715E+02  0.39839082495E+02  0.58378971137E+02  0.00000000000E+00 0.  1.
<mgrwt>
<rscale>  2 0.19291325E+03</rscale>
<asrwt>0</asrwt>
<pdfrwt beam="1">  1       21 0.51731268E-01 0.19297145E+03</pdfrwt>
<pdfrwt beam="2">  1       21 0.18461942E-01 0.19297145E+03</pdfrwt>
<totfact> 0.95062159E+04</totfact>
</mgrwt>
</event>
<event>
12    1  0.1039378E-001  0.2426812E+03  0.7546771E-02  0.1118414E+00
         21   -1    0    0  503  502  0.00000000000E+00  0.00000000000E+00  0.46162673989E+02  0.46162673989E+02  0.00000000000E+00 0.  1.
         21   -1    0    0  501  503 -0.00000000000E+00 -0.00000000000E+00 -0.13588829625E+04  0.13588829625E+04  0.00000000000E+00 0.  1.
          6    2    1    2  501    0 -0.12791643605E+03 -0.10736195356E+03 -0.83969430570E+03  0.87339939566E+03  0.17277376432E+03 0.  0.
         24    2    3    3    0    0 -0.57628764446E+02 -0.25568363925E+01 -0.22240113070E+03  0.24332208036E+03  0.80098439113E+02 0.  0.
         -6    2    1    2    0  502  0.12791643605E+03  0.10736195356E+03 -0.47302598277E+03  0.53164624079E+03  0.17608220035E+03 0.  0.
        -24    2    5    5    0    0  0.77405701530E+02  0.18931669593E+02 -0.37048490173E+03  0.38705020790E+03  0.78732142630E+02 0.  0.
          5    1    3    3  501    0 -0.70287671604E+02 -0.10480511717E+03 -0.61729317500E+03  0.63007731531E+03  0.47000000000E+01 0. -1.
        -13    1    4    4    0    0 -0.29608268831E+02 -0.54942343870E+01 -0.21065664745E+03  0.21279816566E+03  0.00000000000E+00 0.  1.
         14    1    4    4    0    0 -0.28020495615E+02  0.29373979945E+01 -0.11744483253E+02  0.30523914696E+02  0.00000000000E+00 0. -1.
         -5    1    5    5    0  502  0.50510734520E+02  0.88430283971E+02 -0.10254108104E+03  0.14459603288E+03  0.47000000000E+01 0.  1.
         13    1    6    6    0    0 -0.56837913533E+01 -0.10426933089E+02 -0.87896727632E+01  0.14774463275E+02  0.00000000000E+00 0. -1.
        -14    1    6    6    0    0  0.83089492884E+02  0.29358602682E+02 -0.36169522897E+03  0.37227574463E+03  0.00000000000E+00 0.  1.
<mgrwt>
<rscale>  2 0.24208151E+03</rscale>
<asrwt>0</asrwt>
<pdfrwt beam="1">  1       21 0.71019500E-02 0.24268116E+03</pdfrwt>
<pdfrwt beam="2">  1       21 0.20905891E+00 0.24268116E+03</pdfrwt>
<totfact> 0.16729543E+04</totfact>
</mgrwt>
</event>
<event>
12    1  0.1039378E-001  0.1935495E+03  0.7546771E-02  0.1155337E+00
         21   -1    0    0  501  502  0.00000000000E+00  0.00000000000E+00  0.31949183603E+03  0.31949183603E+03  0.00000000000E+00 0.  1.
         21   -1    0    0  502  503 -0.00000000000E+00 -0.00000000000E+00 -0.13350142201E+03  0.13350142201E+03  0.00000000000E+00 0.  1.
         -6    2    1    2    0  503  0.83979722735E+02 -0.18136482286E+02  0.17230454925E+03  0.25913365422E+03  0.17343548436E+03 0.  0.
        -24    2    3    3    0    0  0.94015406662E+02 -0.39431585983E+01  0.19450039424E+03  0.23055200059E+03  0.80432433904E+02 0.  0.
          6    2    1    2  501    0 -0.83979722735E+02  0.18136482286E+02  0.13685864776E+02  0.19385960382E+03  0.17324178848E+03 0.  0.
         24    2    5    5    0    0 -0.16741806400E+02  0.12826180219E+02  0.67101161334E+02  0.10769452616E+03  0.81552106852E+02 0.  0.
          5    1    5    5  501    0 -0.67237916335E+02  0.53103020669E+01 -0.53415296559E+02  0.86165077657E+02  0.47000000000E+01 0. -1.
        -13    1    6    6    0    0 -0.29806605928E+02  0.23494653141E+02 -0.56554619027E+00  0.37957243389E+02  0.00000000000E+00 0.  1.
         14    1    6    6    0    0  0.13064799529E+02 -0.10668472922E+02  0.67666707525E+02  0.69737282772E+02  0.00000000000E+00 0. -1.
         -5    1    3    3    0  503 -0.10035683927E+02 -0.14193323688E+02 -0.22195844995E+02  0.28581653630E+02  0.47000000000E+01 0.  1.
         13    1    4    4    0    0  0.36966662472E+02  0.15304872637E+02  0.17642976360E+02  0.43726969660E+02  0.00000000000E+00 0. -1.
        -14    1    4    4    0    0  0.57048744189E+02 -0.19248031236E+02  0.17685741788E+03  0.18682503093E+03  0.00000000000E+00 0.  1.
<mgrwt>
<rscale>  2 0.19350606E+03</rscale>
<asrwt>0</asrwt>
<pdfrwt beam="1">  1       21 0.49152590E-01 0.19354946E+03</pdfrwt>
<pdfrwt beam="2">  1       21 0.20538680E-01 0.19354946E+03</pdfrwt>
<totfact> 0.86697514E+04</totfact>
</mgrwt>
</event>
<event>
12    1  0.1039378E-001  0.1778071E+03  0.7546771E-02  0.1171180E+00
         21   -1    0    0  501  502  0.00000000000E+00  0.00000000000E+00  0.20443208717E+03  0.20443208717E+03  0.00000000000E+00 0.  1.
         21   -1    0    0  502  503 -0.00000000000E+00 -0.00000000000E+00 -0.36758616097E+03  0.36758616097E+03  0.00000000000E+00 0.  1.
         -6    2    1    2    0  503 -0.14281869647E+02 -0.11083129958E+02 -0.30095704608E+03  0.34706266576E+03  0.17190271322E+03 0.  0.
        -24    2    3    3    0    0 -0.54331823226E+02  0.37074327376E+02 -0.13672398882E+03  0.17122829321E+03  0.79367666645E+02 0.  0.
          6    2    1    2  501    0  0.14281869647E+02  0.11083129958E+02  0.13780297228E+03  0.22495558238E+03  0.17688568993E+03 0.  0.
         24    2    5    5    0    0 -0.29915743266E+01  0.75462189392E+02  0.70806780695E+02  0.13033203960E+03  0.79179219556E+02 0.  0.
          5    1    5    5  501    0  0.17273443974E+02 -0.64379059434E+02  0.66996191587E+02  0.94623542776E+02  0.47000000000E+01 0. -1.
        -13    1    6    6    0    0  0.36195987440E+02  0.42693019547E+02  0.50414520010E+02  0.75329059815E+02  0.00000000000E+00 0.  1.
         14    1    6    6    0    0 -0.39187561766E+02  0.32769169844E+02  0.20392260685E+02  0.55002979786E+02  0.00000000000E+00 0. -1.
         -5    1    3    3    0  503  0.40049953579E+02 -0.48157457333E+02 -0.16423305725E+03  0.17583437256E+03  0.47000000000E+01 0.  1.
         13    1    4    4    0    0 -0.25423124279E+02  0.36562130143E+02 -0.13512151123E+03  0.14227068358E+03  0.00000000000E+00 0. -1.
        -14    1    4    4    0    0 -0.28908698947E+02  0.51219723219E+00 -0.16024775927E+01  0.28957609626E+02  0.00000000000E+00 0.  1.
<mgrwt>
<rscale>  2 0.17655480E+03</rscale>
<asrwt>0</asrwt>
<pdfrwt beam="1">  1       21 0.31451091E-01 0.17780707E+03</pdfrwt>
<pdfrwt beam="2">  1       21 0.56551717E-01 0.17780707E+03</pdfrwt>
<totfact> 0.28805638E+04</totfact>
</mgrwt>
</event>
<event>
12    1  0.1039378E-001  0.1769611E+03  0.7546771E-02  0.1171612E+00
         21   -1    0    0  501  502  0.00000000000E+00  0.00000000000E+00  0.28562402553E+03  0.28562402553E+03  0.00000000000E+00 0. -1.
         21   -1    0    0  502  503 -0.00000000000E+00 -0.00000000000E+00 -0.11995859067E+03  0.11995859067E+03  0.00000000000E+00 0. -1.
         -6    2    1    2    0  503  0.11920496804E+01 -0.98839377508E+01  0.18395685837E+02  0.17791470813E+03  0.17668086740E+03 0.  0.
        -24    2    3    3    0    0  0.33604808493E+02 -0.89860789372E+01 -0.51428964242E+02  0.10078517525E+03  0.79389422582E+02 0.  0.
          6    2    1    2  501    0 -0.11920496804E+01  0.98839377508E+01  0.14726974903E+03  0.22766790808E+03  0.17333546718E+03 0.  0.
         24    2    5    5    0    0 -0.40807148054E+02  0.18267556042E+02  0.15926160879E+03  0.18517631155E+03  0.83229077791E+02 0.  0.
          5    1    5    5  501    0  0.39615098373E+02 -0.83836182908E+01 -0.11991859761E+02  0.42491596526E+02  0.47000000000E+01 0. -1.
        -11    1    6    6    0    0 -0.13106037505E+02 -0.29745512186E+02  0.28804041820E+02  0.43430824761E+02  0.00000000000E+00 0.  1.
         12    1    6    6    0    0 -0.27701110548E+02  0.48013068227E+02  0.13045756697E+03  0.14174548679E+03  0.00000000000E+00 0. -1.
         -5    1    3    3    0  503 -0.32412758812E+02 -0.89785881354E+00  0.69824650079E+02  0.77129532884E+02  0.47000000000E+01 0.  1.
         13    1    4    4    0    0 -0.21745705633E+02  0.14109770569E+02 -0.21896837286E+02  0.33932769149E+02  0.00000000000E+00 0. -1.
        -14    1    4    4    0    0  0.55350514126E+02 -0.23095849506E+02 -0.29532126956E+02  0.66852406097E+02  0.00000000000E+00 0.  1.
<mgrwt>
<rscale>  2 0.17612016E+03</rscale>
<asrwt>0</asrwt>
<pdfrwt beam="1">  1       21 0.43942158E-01 0.17696113E+03</pdfrwt>
<pdfrwt beam="2">  1       21 0.18455168E-01 0.17696113E+03</pdfrwt>
<totfact> 0.13409391E+05</totfact>
</mgrwt>
</event>
<event>
12    1  0.1039378E-001  0.2025156E+03  0.7546771E-02  0.1148390E+00
         21   -1    0    0  501  502  0.00000000000E+00  0.00000000000E+00  0.10580188868E+04  0.10580188868E+04  0.00000000000E+00 0. -1.
         21   -1    0    0  502  503 -0.00000000000E+00 -0.00000000000E+00 -0.38756255112E+02  0.38756255112E+02  0.00000000000E+00 0. -1.
         -6    2    1    2    0  503  0.15345210843E+02 -0.98967671968E+02  0.44146636395E+03  0.48570064916E+03  0.17601844934E+03 0.  0.
        -24    2    3    3    0    0  0.74399184432E+02 -0.30473774263E+02  0.24827133018E+03  0.27233430483E+03  0.77868033475E+02 0.  0.
          6    2    1    2  501    0 -0.15345210843E+02  0.98967671968E+02  0.57779626777E+03  0.61107449278E+03  0.17185294030E+03 0.  0.
         24    2    5    5    0    0  0.11698367962E+02  0.34581707171E+02  0.10550913332E+03  0.13362906660E+03  0.73428903996E+02 0.  0.
          5    1    5    5  501    0 -0.27043578805E+02  0.64385964796E+02  0.47228713445E+03  0.47744542618E+03  0.47000000000E+01 0. -1.
        -11    1    6    6    0    0  0.18095494605E+02 -0.17428575149E+02  0.56699475463E+02  0.62016390370E+02  0.00000000000E+00 0.  1.
         12    1    6    6    0    0 -0.63971266432E+01  0.52010282321E+02  0.48809657856E+02  0.71612676227E+02  0.00000000000E+00 0. -1.
         -5    1    3    3    0  503 -0.59053973588E+02 -0.68493897705E+02  0.19319503377E+03  0.21336634433E+03  0.47000000000E+01 0.  1.
         13    1    4    4    0    0  0.17945717552E+02 -0.49258691223E+02  0.11531491057E+03  0.12667279124E+03  0.00000000000E+00 0. -1.
        -14    1    4    4    0    0  0.56453466880E+02  0.18784916961E+02  0.13295641961E+03  0.14566151360E+03  0.00000000000E+00 0.  1.
<mgrwt>
<rscale>  2 0.20160705E+03</rscale>
<asrwt>0</asrwt>
<pdfrwt beam="1">  1       21 0.16277211E+00 0.20251560E+03</pdfrwt>
<pdfrwt beam="2">  1       21 0.59625016E-02 0.20251560E+03</pdfrwt>
<totfact> 0.47607300E+04</totfact>
</mgrwt>
</event>
<event>
12    1  0.1039378E-001  0.2279576E+03  0.7546771E-02  0.1128165E+00
         21   -1    0    0  503  502  0.00000000000E+00  0.00000000000E+00  0.71686495159E+02  0.71686495159E+02  0.00000000000E+00 0.  1.
         21   -1    0    0  501  503 -0.00000000000E+00 -0.00000000000E+00 -0.19037074723E+04  0.19037074723E+04  0.00000000000E+00 0.  1.
          6    2    1    2  501    0 -0.14277989017E+03  0.39568947734E+02 -0.16933629209E+04  0.17085780607E+04  0.17265343597E+03 0.  0.
         24    2    3    3    0    0 -0.14265352236E+03  0.51396770161E+02 -0.16841697326E+04  0.16928771669E+04  0.80085946973E+02 0.  0.
         -6    2    1    2    0  502  0.14277989017E+03 -0.39568947734E+02 -0.13865805625E+03  0.26681590677E+03  0.17324223758E+03 0.  0.
        -24    2    5    5    0    0  0.87233292773E+02 -0.89766280870E+02 -0.65833986204E+02  0.16226624434E+03  0.79552421487E+02 0.  0.
          5    1    3    3  501    0 -0.12636781005E+00 -0.11827822427E+02 -0.91931883224E+01  0.15700893724E+02  0.47000000000E+01 0. -1.
        -13    1    4    4    0    0 -0.65899261756E+02 -0.54625065601E+01 -0.98435323197E+03  0.98657175967E+03  0.00000000000E+00 0.  1.
         14    1    4    4    0    0 -0.76754260601E+02  0.56859276721E+02 -0.69981650058E+03  0.70630540728E+03  0.00000000000E+00 0. -1.
         -5    1    5    5    0  502  0.55546597394E+02  0.50197333136E+02 -0.72824070049E+02  0.10454966243E+03  0.47000000000E+01 0.  1.
         13    1    6    6    0    0 -0.57454024634E+01  0.21148559466E+01 -0.24373593773E+02  0.25130744887E+02  0.00000000000E+00 0. -1.
        -14    1    6    6    0    0  0.92978695237E+02 -0.91881136817E+02 -0.41460392430E+02  0.13713549946E+03  0.00000000000E+00 0.  1.
<mgrwt>
<rscale>  2 0.22784574E+03</rscale>
<asrwt>0</asrwt>
<pdfrwt beam="1">  1       21 0.11028692E-01 0.22795761E+03</pdfrwt>
<pdfrwt beam="2">  1       21 0.29287806E+00 0.22795761E+03</pdfrwt>
<totfact> 0.24579582E+03</totfact>
</mgrwt>
</event>
<event>
12    1  0.1039378E-001  0.3529639E+03  0.7546771E-02  0.1061429E+00
         21   -1    0    0  501  502  0.00000000000E+00  0.00000000000E+00  0.43410705799E+03  0.43410705799E+03  0.00000000000E+00 0.  1.
         21   -1    0    0  502  503 -0.00000000000E+00 -0.00000000000E+00 -0.29599708189E+03  0.29599708189E+03  0.00000000000E+00 0. -1.
         -6    2    1    2    0  503 -0.44403565543E+02 -0.30396752477E+03  0.13340199961E+03  0.37710888566E+03  0.17334095128E+03 0.  0.
        -24    2    3    3    0    0  0.38797670415E+02 -0.12575307365E+03  0.36419113685E+02  0.15776758445E+03  0.79026350658E+02 0.  0.
          6    2    1    2  501    0  0.44403565543E+02  0.30396752477E+03  0.47079764860E+01  0.35299525422E+03  0.17382621122E+03 0.  0.
         24    2    5    5    0    0  0.90052340390E+02  0.15793750564E+03  0.15239907460E+02  0.19956256962E+03  0.80865843938E+02 0.  0.
          5    1    5    5  501    0 -0.45648774848E+02  0.14603001913E+03 -0.10531930974E+02  0.15343268460E+03  0.47000000000E+01 0. -1.
        -11    1    6    6    0    0 -0.10146097320E+02  0.25233202378E+02 -0.14219786973E+02  0.30689739892E+02  0.00000000000E+00 0.  1.
         12    1    6    6    0    0  0.10019843771E+03  0.13270430327E+03  0.29459694433E+02  0.16887282973E+03  0.00000000000E+00 0. -1.
         -5    1    3    3    0  503 -0.83201235958E+02 -0.17821445113E+03  0.96982885925E+02  0.21934130121E+03  0.47000000000E+01 0.  1.
         13    1    4    4    0    0 -0.22328868923E+02 -0.22518249274E+02 -0.20454458374E+01  0.31777882031E+02  0.00000000000E+00 0. -1.
        -14    1    4    4    0    0  0.61126539338E+02 -0.10323482438E+03  0.38464559522E+02  0.12598970241E+03  0.00000000000E+00 0.  1.
<mgrwt>
<rscale>  2 0.35290416E+03</rscale>
<asrwt>0</asrwt>
<pdfrwt beam="1">  1       21 0.66785702E-01 0.35296386E+03</pdfrwt>
<pdfrwt beam="2">  1       21 0.45538012E-01 0.35296386E+03</pdfrwt>
<totfact> 0.87338014E+03</totfact>
</mgrwt>
</event>
<event>
12    1  0.1039378E-001  0.2367054E+03  0.7546771E-02  0.1122151E+00
         21   -1    0    0  503  502  0.00000000000E+00  0.00000000000E+00  0.41970790958E+03  0.41970790958E+03  0.00000000000E+00 0.  1.
         21   -1    0    0  501  503 -0.00000000000E+00 -0.00000000000E+00 -0.16730302678E+03  0.16730302678E+03  0.00000000000E+00 0.  1.
          6    2    1    2  501    0 -0.43982018111E+02 -0.15432438936E+03 -0.68419624674E+01  0.23595767450E+03  0.17285478483E+03 0.  0.
         24    2    3    3    0    0 -0.44675032694E+02 -0.17550619001E+03 -0.34386434170E+02  0.20088721871E+03  0.79843387377E+02 0.  0.
         -6    2    1    2    0  502  0.43982018111E+02  0.15432438936E+03  0.25924684527E+03  0.35105326185E+03  0.17400870900E+03 0.  0.
        -24    2    5    5    0    0  0.34220860978E+02  0.24886047077E+01  0.10747145919E+03  0.13609455999E+03  0.76120655785E+02 0.  0.
          5    1    3    3  501    0  0.69301458344E+00  0.21181800651E+02  0.27544471703E+02  0.35070455791E+02  0.47000000000E+01 0. -1.
        -11    1    4    4    0    0 -0.33604611629E+02 -0.51901725616E+02 -0.44795160718E+02  0.76352245994E+02  0.00000000000E+00 0.  1.
         12    1    4    4    0    0 -0.11070421065E+02 -0.12360446440E+03  0.10408726547E+02  0.12453497272E+03  0.00000000000E+00 0. -1.
         -5    1    5    5    0  502  0.97611571327E+01  0.15183578466E+03  0.15177538607E+03  0.21495870187E+03  0.47000000000E+01 0.  1.
         13    1    6    6    0    0  0.32139694342E+01 -0.21934880338E+02  0.90420294654E+02  0.93098325765E+02  0.00000000000E+00 0. -1.
        -14    1    6    6    0    0  0.31006891544E+02  0.24423485046E+02  0.17051164540E+02  0.42996234221E+02  0.00000000000E+00 0.  1.
<mgrwt>
<rscale>  2 0.23649341E+03</rscale>
<asrwt>0</asrwt>
<pdfrwt beam="1">  1       21 0.64570448E-01 0.23670544E+03</pdfrwt>
<pdfrwt beam="2">  1       21 0.25738927E-01 0.23670544E+03</pdfrwt>
<totfact> 0.30966860E+04</totfact>
</mgrwt>
</event>
<event>
12    1  0.1039378E-001  0.2136667E+03  0.7546771E-02  0.1138735E+00
         21   -1    0    0  503  502  0.00000000000E+00  0.00000000000E+00  0.38386662315E+03  0.38386662315E+03  0.00000000000E+00 0.  1.
         21   -1    0    0  501  503 -0.00000000000E+00 -0.00000000000E+00 -0.16022110083E+03  0.16022110083E+03  0.00000000000E+00 0. -1.
          6    2    1    2  501    0 -0.98108285645E+02  0.75620973274E+02 -0.26514456774E+02  0.21509915643E+03  0.17384148920E+03 0.  0.
         24    2    3    3    0    0  0.43581183544E+00  0.74489475055E+02 -0.41176817631E+02  0.11535300732E+03  0.77858295387E+02 0.  0.
         -6    2    1    2    0  502  0.98108285645E+02 -0.75620973274E+02  0.25015997909E+03  0.32898856756E+03  0.17409679817E+03 0.  0.
        -24    2    5    5    0    0  0.43451048973E+02 -0.23293115037E+02  0.23244153318E+03  0.25113195837E+03  0.81287337910E+02 0.  0.
          5    1    3    3  501    0 -0.98544097480E+02  0.11314982193E+01  0.14662360857E+02  0.99746149111E+02  0.47000000000E+01 0. -1.
        -13    1    4    4    0    0  0.22440150407E+02  0.42207729643E+02  0.12078227012E+02  0.49304526767E+02  0.00000000000E+00 0.  1.
         14    1    4    4    0    0 -0.22004338572E+02  0.32281745412E+02 -0.53255044644E+02  0.66048480549E+02  0.00000000000E+00 0. -1.
         -5    1    5    5    0  502  0.54657236672E+02 -0.52327858237E+02  0.17718445916E+02  0.77856609187E+02  0.47000000000E+01 0.  1.
         13    1    6    6    0    0  0.41613944401E+02 -0.49868284208E+02  0.13053238860E+03  0.14579873323E+03  0.00000000000E+00 0. -1.
        -14    1    6    6    0    0  0.18371045717E+01  0.26575169171E+02  0.10190914458E+03  0.10533322514E+03  0.00000000000E+00 0.  1.
<mgrwt>
<rscale>  2 0.21361470E+03</rscale>
<asrwt>0</asrwt>
<pdfrwt beam="1">  1       21 0.59056403E-01 0.21366671E+03</pdfrwt>
<pdfrwt beam="2">  1       21 0.24649400E-01 0.21366671E+03</pdfrwt>
<totfact> 0.41273702E+04</totfact>
</mgrwt>
</event>
<event>
12    1  0.1039378E-001  0.1958486E+03  0.7546771E-02  0.1154102E+00
         21   -1    0    0  503  502  0.00000000000E+00  0.00000000000E+00  0.42645805070E+03  0.42645805070E+03  0.00000000000E+00 0. -1.
         21   -1    0    0  501  503 -0.00000000000E+00 -0.00000000000E+00 -0.20174236626E+03  0.20174236626E+03  0.00000000000E+00 0. -1.
          6    2    1    2  501    0  0.58945573216E+02  0.74222901450E+02 -0.12275868126E+03  0.23114141985E+03  0.17138565414E+03 0.  0.
         24    2    3    3    0    0  0.48570206225E+02  0.96323139538E+02 -0.14565528765E+03  0.19734181411E+03  0.78045606121E+02 0.  0.
         -6    2    1    2    0  502 -0.58945573216E+02 -0.74222901450E+02  0.34747436569E+03  0.39705899711E+03  0.16713405599E+03 0.  0.
        -24    2    5    5    0    0  0.51900874469E+01 -0.92091055988E+02  0.23715997766E+03  0.26812487392E+03  0.84489013553E+02 0.  0.
          5    1    3    3  501    0  0.10375366992E+02 -0.22100238089E+02  0.22896606390E+02  0.33799605737E+02  0.47000000000E+01 0. -1.
        -13    1    4    4    0    0 -0.41931769344E+01  0.76759730264E+02 -0.83953761981E+02  0.11383265381E+03  0.00000000000E+00 0.  1.
         14    1    4    4    0    0  0.52763383159E+02  0.19563409275E+02 -0.61701525669E+02  0.83509160304E+02  0.00000000000E+00 0. -1.
         -5    1    5    5    0  502 -0.64135660663E+02  0.17868154538E+02  0.11031438803E+03  0.12893412319E+03  0.47000000000E+01 0.  1.
         11    1    6    6    0    0 -0.83465943098E+01  0.34480900911E+00  0.11010124458E+03  0.11041770052E+03  0.00000000000E+00 0. -1.
        -12    1    6    6    0    0  0.13536681757E+02 -0.92435864997E+02  0.12705873308E+03  0.15770717340E+03  0.00000000000E+00 0.  1.
<mgrwt>
<rscale>  2 0.19491453E+03</rscale>
<asrwt>0</asrwt>
<pdfrwt beam="1">  1       21 0.65608930E-01 0.19584857E+03</pdfrwt>
<pdfrwt beam="2">  1       21 0.31037287E-01 0.19584857E+03</pdfrwt>
<totfact> 0.21256517E+04</totfact>
</mgrwt>
</event>
<event>
12    1  0.1039378E-001  0.1893579E+03  0.7546771E-02  0.1159526E+00
         21   -1    0    0  503  502  0.00000000000E+00  0.00000000000E+00  0.43587207047E+02  0.43587207047E+02  0.00000000000E+00 0.  1.
         21   -1    0    0  501  503 -0.00000000000E+00 -0.00000000000E+00 -0.98725391094E+03  0.98725391094E+03  0.00000000000E+00 0.  1.
          6    2    1    2  501    0  0.53455779713E+02 -0.52126900972E+02 -0.69029652585E+03  0.71579726229E+03  0.17401635817E+03 0.  0.
         24    2    3    3    0    0  0.59663967499E+02  0.21092017928E+01 -0.61168069386E+03  0.61997119340E+03  0.81527735528E+02 0.  0.
         -6    2    1    2    0  502 -0.53455779713E+02  0.52126900972E+02 -0.25337017805E+03  0.31504385570E+03  0.17170162987E+03 0.  0.
        -24    2    5    5    0    0 -0.12572202298E+02  0.77940873316E+02 -0.24202929468E+03  0.26515865042E+03  0.74149109272E+02 0.  0.
          5    1    3    3  501    0 -0.62081877853E+01 -0.54236102765E+02 -0.78615831994E+02  0.95826068890E+02  0.47000000000E+01 0. -1.
        -13    1    4    4    0    0  0.66813383125E+02 -0.10339884957E+02 -0.28249681202E+03  0.29047442260E+03  0.00000000000E+00 0.  1.
         14    1    4    4    0    0 -0.71494156266E+01  0.12449086749E+02 -0.32918388184E+03  0.32949677080E+03  0.00000000000E+00 0. -1.
         -5    1    5    5    0  502 -0.40883577416E+02 -0.25813972344E+02 -0.11340883370E+02  0.49885205282E+02  0.47000000000E+01 0.  1.
         13    1    6    6    0    0 -0.29121783336E+02  0.85345483176E+02 -0.20205886361E+03  0.22126842098E+03  0.00000000000E+00 0. -1.
        -14    1    6    6    0    0  0.16549581038E+02 -0.74046098607E+01 -0.39970431072E+02  0.43890229435E+02  0.00000000000E+00 0.  1.
<mgrwt>
<rscale>  2 0.18882444E+03</rscale>
<asrwt>0</asrwt>
<pdfrwt beam="1">  1       21 0.67057238E-02 0.18935793E+03</pdfrwt>
<pdfrwt beam="2">  1       21 0.15188523E+00 0.18935793E+03</pdfrwt>
<totfact> 0.47201907E+04</totfact>
</mgrwt>
</event>
<event>
12    1  0.1039378E-001  0.1752083E+03  0.7546771E-02  0.1172660E+00
         21   -1    0    0  503  502  0.00000000000E+00  0.00000000000E+00  0.54250077180E+02  0.54250077180E+02  0.00000000000E+00 0.  1.
         21   -1    0    0  501  503 -0.00000000000E+00 -0.00000000000E+00 -0.96060618577E+03  0.96060618577E+03  0.00000000000E+00 0.  1.
          6    2    1    2  501    0  0.13706796134E+02  0.21811318011E+02 -0.77877016803E+03  0.79811649874E+03  0.17275231141E+03 0.  0.
         24    2    3    3    0    0 -0.25779565514E+02  0.63123727809E+02 -0.62812230443E+03  0.63692482164E+03  0.80538239917E+02 0.  0.
         -6    2    1    2    0  502 -0.13706796134E+02 -0.21811318011E+02 -0.12758594056E+03  0.21673976421E+03  0.17330419299E+03 0.  0.
        -24    2    5    5    0    0 -0.16706851296E+02  0.41029704355E+02 -0.12342913601E+03  0.15351505822E+03  0.79809560610E+02 0.  0.
          5    1    3    3  501    0  0.39486361648E+02 -0.41312409798E+02 -0.15064786360E+03  0.16119167710E+03  0.47000000000E+01 0. -1.
        -11    1    4    4    0    0 -0.48192645756E+02  0.40515087143E+02 -0.53096311993E+03  0.53468293232E+03  0.00000000000E+00 0.  1.
         12    1    4    4    0    0  0.22413080241E+02  0.22608640666E+02 -0.97159184502E+02  0.10224188932E+03  0.00000000000E+00 0. -1.
         -5    1    5    5    0  502  0.30000551621E+01 -0.62841022366E+02 -0.41568045495E+01  0.63224705986E+02  0.47000000000E+01 0.  1.
         11    1    6    6    0    0  0.71329119484E+01  0.34838274671E+02 -0.12387719996E+03  0.12888034949E+03  0.00000000000E+00 0. -1.
        -12    1    6    6    0    0 -0.23839763244E+02  0.61914296840E+01  0.44806394744E+00  0.24634708733E+02  0.00000000000E+00 0.  1.
<mgrwt>
<rscale>  2 0.17507169E+03</rscale>
<asrwt>0</asrwt>
<pdfrwt beam="1">  1       21 0.83461666E-02 0.17520831E+03</pdfrwt>
<pdfrwt beam="2">  1       21 0.14778555E+00 0.17520831E+03</pdfrwt>
<totfact> 0.35013415E+04</totfact>
</mgrwt>
</event>
<event>
12    1  0.1039378E-001  0.1832997E+03  0.7546771E-02  0.1165005E+00
         21   -1    0    0  501  502  0.00000000000E+00  0.00000000000E+00  0.18591899806E+03  0.18591899806E+03  0.00000000000E+00 0. -1.
         21   -1    0    0  502  503 -0.00000000000E+00 -0.00000000000E+00 -0.23836753667E+03  0.23836753667E+03  0.00000000000E+00 0. -1.
         -6    2    1    2    0  503 -0.34182564729E+02 -0.43894144740E+02 -0.13180408174E+03  0.22454646549E+03  0.17307124408E+03 0.  0.
        -24    2    3    3    0    0 -0.20369646552E+02  0.24797644848E+02 -0.12739965038E+03  0.15418420515E+03  0.80698528543E+02 0.  0.
          6    2    1    2  501    0  0.34182564729E+02  0.43894144740E+02  0.79355543134E+02  0.19974006923E+03  0.17465293973E+03 0.  0.
         24    2    5    5    0    0  0.12695604170E+02 -0.10072670588E+02 -0.19522161213E+02  0.84966391731E+02  0.81089678057E+02 0.  0.
          5    1    5    5  501    0  0.21486960559E+02  0.53966815328E+02  0.98877704347E+02  0.11477367750E+03  0.47000000000E+01 0. -1.
        -13    1    6    6    0    0  0.44707842815E+02  0.60315134795E+01 -0.19461355269E+02  0.49131606049E+02  0.00000000000E+00 0.  1.
         14    1    6    6    0    0 -0.32012238645E+02 -0.16104184068E+02 -0.60805943625E-01  0.35834785683E+02  0.00000000000E+00 0. -1.
         -5    1    3    3    0  503 -0.13812918177E+02 -0.68691789588E+02 -0.44044313656E+01  0.70362260346E+02  0.47000000000E+01 0.  1.
         11    1    4    4    0    0 -0.15234107861E+02 -0.18558449167E+02 -0.99536716870E+02  0.10239166022E+03  0.00000000000E+00 0. -1.
        -12    1    4    4    0    0 -0.51355386908E+01  0.43356094015E+02 -0.27862933509E+02  0.51792544923E+02  0.00000000000E+00 0.  1.
<mgrwt>
<rscale>  2 0.18292196E+03</rscale>
<asrwt>0</asrwt>
<pdfrwt beam="1">  1       21 0.28602923E-01 0.18329974E+03</pdfrwt>
<pdfrwt beam="2">  1       21 0.36671929E-01 0.18329974E+03</pdfrwt>
<totfact> 0.84153259E+04</totfact>
</mgrwt>
</event>
<event>
12    1  0.1039378E-001  0.2860197E+03  0.7546771E-02  0.1093415E+00
         21   -1    0    0  503  502  0.00000000000E+00  0.00000000000E+00  0.44728235513E+03  0.44728235513E+03  0.00000000000E+00 0. -1.
         21   -1    0    0  501  503 -0.00000000000E+00 -0.00000000000E+00 -0.56487906903E+03  0.56487906903E+03  0.00000000000E+00 0.  1.
          6    2    1    2  501    0  0.93884098595E+02 -0.19889379229E+03 -0.47719634231E+03  0.55268436026E+03  0.17137878627E+03 0.  0.
         24    2    3    3    0    0  0.55538297798E+02 -0.17104817527E+03 -0.46234476868E+03  0.50280011359E+03  0.81873611877E+02 0.  0.
         -6    2    1    2    0  502 -0.93884098595E+02  0.19889379229E+03  0.35959962840E+03  0.45947706390E+03  0.18285052617E+03 0.  0.
        -24    2    5    5    0    0 -0.11840419810E+03  0.19688921692E+03  0.35932471149E+03  0.43442872700E+03  0.82638687597E+02 0.  0.
          5    1    3    3  501    0  0.38345800796E+02 -0.27845617025E+02 -0.14851573628E+02  0.49884246666E+02  0.47000000000E+01 0. -1.
        -13    1    4    4    0    0 -0.61741459912E+00 -0.70238609498E+02 -0.97680546248E+02  0.12031347630E+03  0.00000000000E+00 0.  1.
         14    1    4    4    0    0  0.56155712397E+02 -0.10080956577E+03 -0.36466422243E+03  0.38248663729E+03  0.00000000000E+00 0. -1.
         -5    1    5    5    0  502  0.24520099503E+02  0.20045753710E+01  0.27491690937E+00  0.25048336898E+02  0.47000000000E+01 0.  1.
         13    1    6    6    0    0 -0.20232431935E+02 -0.38417848921E+01  0.34160953276E+02  0.39888360983E+02  0.00000000000E+00 0. -1.
        -14    1    6    6    0    0 -0.98171766163E+02  0.20073100182E+03  0.32516375822E+03  0.39454036602E+03  0.00000000000E+00 0.  1.
<mgrwt>
<rscale>  2 0.28420394E+03</rscale>
<asrwt>0</asrwt>
<pdfrwt beam="1">  1       21 0.68812670E-01 0.28601972E+03</pdfrwt>
<pdfrwt beam="2">  1       21 0.86904472E-01 0.28601972E+03</pdfrwt>
<totfact> 0.20431355E+03</totfact>
</mgrwt>
</event>
<event>
12    1  0.1039378E-001  0.1803617E+03  0.7546771E-02  0.1168379E+00
         21   -1    0    0  501  502  0.00000000000E+00  0.00000000000E+00  0.10826605870E+03  0.10826605870E+03  0.00000000000E+00 0. -1.
         21   -1    0    0  502  503 -0.00000000000E+00 -0.00000000000E+00 -0.29539504494E+03  0.29539504494E+03  0.00000000000E+00 0. -1.
         -6    2    1    2    0  503 -0.11782901276E+02  0.43009033597E+02 -0.10549899136E+03  0.20568687532E+03  0.17084624598E+03 0.  0.
        -24    2    3    3    0    0  0.46292379116E+02  0.15948911427E+02 -0.10557904341E+03  0.14144448423E+03  0.80388155662E+02 0.  0.
          6    2    1    2  501    0  0.11782901276E+02 -0.43009033597E+02 -0.81629994874E+02  0.19797422833E+03  0.17476191028E+03 0.  0.
         24    2    5    5    0    0 -0.15320485164E+02 -0.75658042779E+02 -0.86379814266E+01  0.11341374474E+03  0.82639010585E+02 0.  0.
          5    1    5    5  501    0  0.27103386440E+02  0.32649009182E+02 -0.72992013447E+02  0.84560483585E+02  0.47000000000E+01 0. -1.
        -13    1    6    6    0    0  0.12444600487E+02  0.68690014156E+00 -0.27344319579E+02  0.30050819063E+02  0.00000000000E+00 0.  1.
         14    1    6    6    0    0 -0.27765085651E+02 -0.76344942921E+02  0.18706338153E+02  0.83362925680E+02  0.00000000000E+00 0. -1.
         -5    1    3    3    0  503 -0.58075280392E+02  0.27060122170E+02  0.80052047588E-01  0.64242391088E+02  0.47000000000E+01 0.  1.
         13    1    4    4    0    0  0.38118873835E+01  0.35948723101E+02 -0.80429521723E+02  0.88180208338E+02  0.00000000000E+00 0. -1.
        -14    1    4    4    0    0  0.42480491732E+02 -0.19999811674E+02 -0.25149521688E+02  0.53264275889E+02  0.00000000000E+00 0.  1.
<mgrwt>
<rscale>  2 0.17940626E+03</rscale>
<asrwt>0</asrwt>
<pdfrwt beam="1">  1       21 0.16656317E-01 0.18036169E+03</pdfrwt>
<pdfrwt beam="2">  1       21 0.45445391E-01 0.18036169E+03</pdfrwt>
<totfact> 0.15100998E+05</totfact>
</mgrwt>
</event>
<event>
12    1  0.1039378E-001  0.1770522E+03  0.7546771E-02  0.1171069E+00
         21   -1    0    0  501  502  0.00000000000E+00  0.00000000000E+00  0.45949580076E+03  0.45949580076E+03  0.00000000000E+00 0. -1.
         21   -1    0    0  502  503 -0.00000000000E+00 -0.00000000000E+00 -0.88898459194E+02  0.88898459194E+02  0.00000000000E+00 0. -1.
         -6    2    1    2    0  503 -0.20774813501E+02 -0.20588587505E+02  0.31879922476E+03  0.36392061225E+03  0.17306005750E+03 0.  0.
        -24    2    3    3    0    0  0.94548968030E+00 -0.37655221884E+02  0.32363172949E+03  0.33548674721E+03  0.79969066101E+02 0.  0.
          6    2    1    2  501    0  0.20774813501E+02  0.20588587505E+02  0.51798116810E+02  0.18447364771E+03  0.17461958361E+03 0.  0.
         24    2    5    5    0    0  0.14698443193E+02  0.30537707411E+02  0.10091579398E+03  0.13377312035E+03  0.81010212000E+02 0.  0.
          5    1    5    5  501    0  0.60763703079E+01 -0.99491199056E+01 -0.49117677171E+02  0.50700527352E+02  0.47000000000E+01 0. -1.
        -11    1    6    6    0    0 -0.22396530235E+02 -0.54568763308E+01  0.69647642923E+02  0.73363316655E+02  0.00000000000E+00 0.  1.
         12    1    6    6    0    0  0.37094973429E+02  0.35994583742E+02  0.31268151058E+02  0.60409803699E+02  0.00000000000E+00 0. -1.
         -5    1    3    3    0  503 -0.21720303182E+02  0.17066634379E+02 -0.48325047308E+01  0.28433865043E+02  0.47000000000E+01 0.  1.
         13    1    4    4    0    0 -0.25767163077E+02 -0.30146962720E+02  0.28597092821E+03  0.28870773774E+03  0.00000000000E+00 0. -1.
        -14    1    4    4    0    0  0.26712652758E+02 -0.75082591644E+01  0.37660801285E+02  0.46779009465E+02  0.00000000000E+00 0.  1.
<mgrwt>
<rscale>  2 0.17666646E+03</rscale>
<asrwt>0</asrwt>
<pdfrwt beam="1">  1       21 0.70691660E-01 0.17705220E+03</pdfrwt>
<pdfrwt beam="2">  1       21 0.13676686E-01 0.17705220E+03</pdfrwt>
<totfact> 0.84643457E+04</totfact>
</mgrwt>
</event>
<event>
12    1  0.1039378E-001  0.1810122E+03  0.7546771E-02  0.1167216E+00
         21   -1    0    0  501  502  0.00000000000E+00  0.00000000000E+00  0.64534810664E+02  0.64534810664E+02  0.00000000000E+00 0. -1.
         21   -1    0    0  502  503 -0.00000000000E+00 -0.00000000000E+00 -0.57996713408E+03  0.57996713408E+03  0.00000000000E+00 0. -1.
         -6    2    1    2    0  503 -0.45912159444E+02  0.26291190159E+02 -0.37594858684E+03  0.41725621649E+03  0.17310764624E+03 0.  0.
        -24    2    3    3    0    0 -0.71277841432E+02 -0.45340304022E+02 -0.21418981669E+03  0.23847568482E+03  0.62105561997E+02 0.  0.
          6    2    1    2  501    0  0.45912159444E+02 -0.26291190159E+02 -0.13948373657E+03  0.22724572825E+03  0.17142273821E+03 0.  0.
         24    2    5    5    0    0  0.74482343256E+02 -0.57068570370E+01 -0.15309854385E+03  0.18920071346E+03  0.82325926483E+02 0.  0.
          5    1    5    5  501    0 -0.28570183812E+02 -0.20584333122E+02  0.13614807279E+02  0.38045014790E+02  0.47000000000E+01 0. -1.
        -13    1    6    6    0    0 -0.13703481207E+02  0.14012273398E+02 -0.39049862222E+02  0.43692344210E+02  0.00000000000E+00 0.  1.
         14    1    6    6    0    0  0.88185824463E+02 -0.19719130435E+02 -0.11404868163E+03  0.14550836925E+03  0.00000000000E+00 0. -1.
         -5    1    3    3    0  503  0.25365681988E+02  0.71631494181E+02 -0.16175877015E+03  0.17878053167E+03  0.47000000000E+01 0.  1.
         11    1    4    4    0    0 -0.15329647510E+02  0.15429654630E+02 -0.35795330476E+02  0.41885295972E+02  0.00000000000E+00 0. -1.
        -12    1    4    4    0    0 -0.55948193922E+02 -0.60769958652E+02 -0.17839448621E+03  0.19659038885E+03  0.00000000000E+00 0.  1.
<mgrwt>
<rscale>  2 0.18060817E+03</rscale>
<asrwt>0</asrwt>
<pdfrwt beam="1">  1       21 0.99284323E-02 0.18101218E+03</pdfrwt>
<pdfrwt beam="2">  1       21 0.89225714E-01 0.18101218E+03</pdfrwt>
<totfact> 0.88508247E+04</totfact>
</mgrwt>
</event>
<event>
12    1  0.1039378E-001  0.3158174E+03  0.7546771E-02  0.1077723E+00
         21   -1    0    0  503  502  0.00000000000E+00  0.00000000000E+00  0.11055566921E+03  0.11055566921E+03  0.00000000000E+00 0.  1.
         21   -1    0    0  501  503 -0.00000000000E+00 -0.00000000000E+00 -0.10192381614E+04  0.10192381614E+04  0.00000000000E+00 0. -1.
          6    2    1    2  501    0  0.25975255514E+03 -0.44011700246E+02 -0.26099960546E+03  0.40970891222E+03  0.17416135920E+03 0.  0.
         24    2    3    3    0    0  0.98835994269E+02 -0.12368417746E+01 -0.39643796715E+02  0.13268127434E+03  0.79136631231E+02 0.  0.
         -6    2    1    2    0  502 -0.25975255514E+03  0.44011700246E+02 -0.64768288677E+03  0.72008491843E+03  0.17210679325E+03 0.  0.
        -24    2    5    5    0    0 -0.16779581253E+03  0.54840738947E+02 -0.55849875678E+03  0.59144118701E+03  0.81968744212E+02 0.  0.
          5    1    3    3  501    0  0.16091656087E+03 -0.42774858471E+02 -0.22135580875E+03  0.27702763787E+03  0.47000000000E+01 0. -1.
        -13    1    4    4    0    0  0.23670457397E+02  0.21820708336E+02  0.16398435619E+02  0.36129524720E+02  0.00000000000E+00 0.  1.
         14    1    4    4    0    0  0.75165536872E+02 -0.23057550111E+02 -0.56042232334E+02  0.96551749624E+02  0.00000000000E+00 0. -1.
         -5    1    5    5    0  502 -0.91956742611E+02 -0.10829038701E+02 -0.89184129993E+02  0.12864373142E+03  0.47000000000E+01 0.  1.
         13    1    6    6    0    0 -0.16401478898E+03  0.43917065274E+02 -0.42826818187E+03  0.46069859478E+03  0.00000000000E+00 0. -1.
        -14    1    6    6    0    0 -0.37810235532E+01  0.10923673672E+02 -0.13023057490E+03  0.13074259224E+03  0.00000000000E+00 0.  1.
<mgrwt>
<rscale>  2 0.31553488E+03</rscale>
<asrwt>0</asrwt>
<pdfrwt beam="1">  1       21 0.17008565E-01 0.31581735E+03</pdfrwt>
<pdfrwt beam="2">  1       21 0.15680587E+00 0.31581735E+03</pdfrwt>
<totfact> 0.76628775E+03</totfact>
</mgrwt>
</event>
<event>
12    1  0.1039378E-001  0.2024936E+03  0.7546771E-02  0.1147848E+00
         21   -1    0    0  503  502  0.00000000000E+00  0.00000000000E+00  0.46368877147E+03  0.46368877147E+03  0.00000000000E+00 0. -1.
         21   -1    0    0  501  503 -0.00000000000E+00 -0.00000000000E+00 -0.36422023049E+03  0.36422023049E+03  0.00000000000E+00 0. -1.
          6    2    1    2  501    0  0.98124168255E+02 -0.35921054073E+02 -0.31072004865E+03  0.37087815017E+03  0.17345022087E+03 0.  0.
         24    2    3    3    0    0  0.87653034438E+02  0.11346642452E+02 -0.10539068334E+03  0.15986602247E+03  0.81474832091E+02 0.  0.
         -6    2    1    2    0  502 -0.98124168255E+02  0.35921054073E+02  0.41018858963E+03  0.45703085179E+03  0.17234803715E+03 0.  0.
        -24    2    5    5    0    0 -0.52448182291E+01  0.41024395446E+02  0.29901839841E+03  0.31200147832E+03  0.78882258754E+02 0.  0.
          5    1    3    3  501    0  0.10471133818E+02 -0.47267696525E+02 -0.20532936531E+03  0.21101212770E+03  0.47000000000E+01 0. -1.
        -13    1    4    4    0    0 -0.62986522899E+01  0.16651856609E+02  0.99914083666E+00  0.17831310429E+02  0.00000000000E+00 0.  1.
         14    1    4    4    0    0  0.93951686727E+02 -0.53052141564E+01 -0.10638982418E+03  0.14203471204E+03  0.00000000000E+00 0. -1.
         -5    1    5    5    0  502 -0.92879350026E+02 -0.51033413728E+01  0.11117019122E+03  0.14502937347E+03  0.47000000000E+01 0.  1.
         11    1    6    6    0    0 -0.33914632083E+02  0.42355075296E+02  0.13509295472E+03  0.14558248894E+03  0.00000000000E+00 0. -1.
        -12    1    6    6    0    0  0.28669813854E+02 -0.13306798502E+01  0.16392544370E+03  0.16641898938E+03  0.00000000000E+00 0.  1.
<mgrwt>
<rscale>  2 0.20225735E+03</rscale>
<asrwt>0</asrwt>
<pdfrwt beam="1">  1       21 0.71336734E-01 0.20249359E+03</pdfrwt>
<pdfrwt beam="2">  1       21 0.56033882E-01 0.20249359E+03</pdfrwt>
<totfact> 0.52883201E+03</totfact>
</mgrwt>
</event>
<event>
12    1  0.1039378E-001  0.2177402E+03  0.7546771E-02  0.1136050E+00
         21   -1    0    0  503  502  0.00000000000E+00  0.00000000000E+00  0.14054210177E+04  0.14054210177E+04  0.00000000000E+00 0.  1.
         21   -1    0    0  501  503 -0.00000000000E+00 -0.00000000000E+00 -0.36901988841E+02  0.36901988841E+02  0.00000000000E+00 0. -1.
          6    2    1    2  501    0  0.12454745810E+03 -0.37140016906E+02  0.46410487134E+03  0.51264426024E+03  0.17469789862E+03 0.  0.
         24    2    3    3    0    0  0.14441384794E+03 -0.42250591666E+02  0.46094187325E+03  0.49136314239E+03  0.79560387218E+02 0.  0.
         -6    2    1    2    0  502 -0.12454745810E+03  0.37140016906E+02  0.90441415757E+03  0.92967874635E+03  0.17159881360E+03 0.  0.
        -24    2    5    5    0    0 -0.10695671567E+03  0.73603399803E+02  0.47377881306E+03  0.49711903665E+03  0.76182500687E+02 0.  0.
          5    1    3    3  501    0 -0.19866389843E+02  0.51105747602E+01  0.31629980872E+01  0.21281117844E+02  0.47000000000E+01 0. -1.
        -11    1    4    4    0    0  0.95677603107E+02  0.86949965100E+01  0.31426277556E+03  0.32861968718E+03  0.00000000000E+00 0.  1.
         12    1    4    4    0    0  0.48736244834E+02 -0.50945588176E+02  0.14667909769E+03  0.16274345521E+03  0.00000000000E+00 0. -1.
         -5    1    5    5    0  502 -0.17590742428E+02 -0.36463382897E+02  0.43063534451E+03  0.43255970970E+03  0.47000000000E+01 0.  1.
         11    1    6    6    0    0 -0.43527150099E+02  0.66050082879E+02  0.33700251065E+03  0.34616169405E+03  0.00000000000E+00 0. -1.
        -12    1    6    6    0    0 -0.63429565571E+02  0.75533169239E+01  0.13677630241E+03  0.15095734260E+03  0.00000000000E+00 0.  1.
<mgrwt>
<rscale>  2 0.21711793E+03</rscale>
<asrwt>0</asrwt>
<pdfrwt beam="1">  1       21 0.21621858E+00 0.21774023E+03</pdfrwt>
<pdfrwt beam="2">  1       21 0.56772301E-02 0.21774023E+03</pdfrwt>
<totfact> 0.22571670E+04</totfact>
</mgrwt>
</event>
<event>
12    1  0.1039378E-001  0.1914186E+03  0.7546771E-02  0.1157285E+00
         21   -1    0    0  503  502  0.00000000000E+00  0.00000000000E+00  0.11783203537E+04  0.11783203537E+04  0.00000000000E+00 0. -1.
         21   -1    0    0  501  503 -0.00000000000E+00 -0.00000000000E+00 -0.44074427448E+02  0.44074427448E+02  0.00000000000E+00 0. -1.
          6    2    1    2  501    0 -0.78267122076E+02 -0.24854922214E+02  0.23501087315E+03  0.30310261125E+03  0.17290914634E+03 0.  0.
         24    2    3    3    0    0 -0.75403385967E+01 -0.20032864025E+02  0.37341096451E+02  0.93052710588E+02  0.82500164341E+02 0.  0.
         -6    2    1    2    0  502  0.78267122076E+02  0.24854922214E+02  0.89923505308E+03  0.91929216988E+03  0.17242651582E+03 0.  0.
        -24    2    5    5    0    0  0.92889770026E+02  0.36417474186E+02  0.88618098873E+03  0.89605398928E+03  0.87414330239E+02 0.  0.
          5    1    3    3  501    0 -0.70726783479E+02 -0.48220581883E+01  0.19766977670E+03  0.21004990066E+03  0.47000000000E+01 0. -1.
        -13    1    4    4    0    0  0.30421095512E+02 -0.47559715231E+01  0.41771632652E+02  0.51893464055E+02  0.00000000000E+00 0.  1.
         14    1    4    4    0    0 -0.37961434109E+02 -0.15276892502E+02 -0.44305362007E+01  0.41159246533E+02  0.00000000000E+00 0. -1.
         -5    1    5    5    0  502 -0.14622647951E+02 -0.11562551972E+02  0.13054064353E+02  0.23238180594E+02  0.47000000000E+01 0.  1.
         11    1    6    6    0    0  0.39967953891E+02 -0.27191219642E+02  0.39577586151E+03  0.39871710813E+03  0.00000000000E+00 0. -1.
        -12    1    6    6    0    0  0.52921816136E+02  0.63608693828E+02  0.49040512722E+03  0.49733688115E+03  0.00000000000E+00 0.  1.
<mgrwt>
<rscale>  2 0.19130955E+03</rscale>
<asrwt>0</asrwt>
<pdfrwt beam="1">  1       21 0.18128003E+00 0.19141861E+03</pdfrwt>
<pdfrwt beam="2">  1       21 0.67806820E-02 0.19141861E+03</pdfrwt>
<totfact> 0.28526921E+04</totfact>
</mgrwt>
</event>
<event>
12    1  0.1039378E-001  0.1902159E+03  0.7546771E-02  0.1158764E+00
         21   -1    0    0  501  502  0.00000000000E+00  0.00000000000E+00  0.15035472791E+03  0.15035472791E+03  0.00000000000E+00 0.  1.
         21   -1    0    0  502  503 -0.00000000000E+00 -0.00000000000E+00 -0.23788481340E+03  0.23788481340E+03  0.00000000000E+00 0.  1.
         -6    2    1    2    0  503 -0.55767737120E+02  0.47070129431E+02 -0.42702005744E+02  0.19495015979E+03  0.17566008630E+03 0.  0.
        -24    2    3    3    0    0 -0.52598494265E+01  0.91873067674E+02 -0.20284684705E+02  0.12365516503E+03  0.80067501687E+02 0.  0.
          6    2    1    2  501    0  0.55767737120E+02 -0.47070129431E+02 -0.44828079750E+02  0.19328938153E+03  0.17327893896E+03 0.  0.
         24    2    5    5    0    0  0.26990024696E+02  0.38564037309E+02 -0.62917091478E+01  0.94960804271E+02  0.82233340788E+02 0.  0.
          5    1    5    5  501    0  0.28777712425E+02 -0.85634166740E+02 -0.38536370602E+02  0.98328577254E+02  0.47000000000E+01 0. -1.
        -13    1    6    6    0    0  0.55783672440E+02  0.28392877315E+02 -0.12421606180E+02  0.63814339244E+02  0.00000000000E+00 0.  1.
         14    1    6    6    0    0 -0.28793647744E+02  0.10171159994E+02  0.61298970320E+01  0.31146465027E+02  0.00000000000E+00 0. -1.
         -5    1    3    3    0  503 -0.50507887694E+02 -0.44802938243E+02 -0.22417321039E+02  0.71294994754E+02  0.47000000000E+01 0.  1.
         13    1    4    4    0    0  0.33684406147E+02  0.29394485285E+02 -0.22396293200E+02  0.50002689245E+02  0.00000000000E+00 0. -1.
        -14    1    4    4    0    0 -0.38944255574E+02  0.62478582389E+02  0.21116084945E+01  0.73652475790E+02  0.00000000000E+00 0.  1.
<mgrwt>
<rscale>  2 0.18966437E+03</rscale>
<asrwt>0</asrwt>
<pdfrwt beam="1">  1       21 0.23131497E-01 0.19021594E+03</pdfrwt>
<pdfrwt beam="2">  1       21 0.36597664E-01 0.19021594E+03</pdfrwt>
<totfact> 0.12653370E+05</totfact>
</mgrwt>
</event>
<event>
12    1  0.1039378E-001  0.1757360E+03  0.7546771E-02  0.1172387E+00
         21   -1    0    0  501  502  0.00000000000E+00  0.00000000000E+00  0.47035414681E+03  0.47035414681E+03  0.00000000000E+00 0.  1.
         21   -1    0    0  502  503 -0.00000000000E+00 -0.00000000000E+00 -0.65436555829E+02  0.65436555829E+02  0.00000000000E+00 0.  1.
         -6    2    1    2    0  503  0.65160225415E+01 -0.16502232699E+02  0.22324482561E+03  0.28411509218E+03  0.17483807141E+03 0.  0.
        -24    2    3    3    0    0  0.22582246186E+02  0.51289318915E+02  0.88413891197E+02  0.13227541066E+03  0.80865419251E+02 0.  0.
          6    2    1    2  501    0 -0.65160225415E+01  0.16502232699E+02  0.18167276538E+03  0.25167561046E+03  0.17326522151E+03 0.  0.
         24    2    5    5    0    0  0.25345888098E+01  0.29816767389E+02  0.20526874814E+03  0.22272650335E+03  0.81094836888E+02 0.  0.
          5    1    5    5  501    0 -0.90506113513E+01 -0.13314534689E+02 -0.23595982766E+02  0.28949107111E+02  0.47000000000E+01 0. -1.
        -11    1    6    6    0    0 -0.15866036270E+02 -0.33083472527E+01  0.17059708692E+03  0.17136523082E+03  0.00000000000E+00 0.  1.
         12    1    6    6    0    0  0.18400625080E+02  0.33125114641E+02  0.34671661222E+02  0.51361272523E+02  0.00000000000E+00 0. -1.
         -5    1    3    3    0  503 -0.16066223644E+02 -0.67791551614E+02  0.13483093441E+03  0.15183968153E+03  0.47000000000E+01 0.  1.
         11    1    4    4    0    0  0.47057537963E+02  0.30878898958E+02  0.82487105737E+02  0.99860106614E+02  0.00000000000E+00 0. -1.
        -12    1    4    4    0    0 -0.24475291777E+02  0.20410419957E+02  0.59267854600E+01  0.32415304044E+02  0.00000000000E+00 0.  1.
<mgrwt>
<rscale>  2 0.17534348E+03</rscale>
<asrwt>0</asrwt>
<pdfrwt beam="1">  1       21 0.72362174E-01 0.17573598E+03</pdfrwt>
<pdfrwt beam="2">  1       21 0.10067163E-01 0.17573598E+03</pdfrwt>
<totfact> 0.13889126E+05</totfact>
</mgrwt>
</event>
<event>
12    1  0.1039378E-001  0.2004835E+03  0.7546771E-02  0.1149657E+00
         21   -1    0    0  501  502  0.00000000000E+00  0.00000000000E+00  0.77429507505E+03  0.77429507505E+03  0.00000000000E+00 0. -1.
         21   -1    0    0  502  503 -0.00000000000E+00 -0.00000000000E+00 -0.10869741693E+03  0.10869741693E+03  0.00000000000E+00 0. -1.
         -6    2    1    2    0  503 -0.26618261199E+02  0.93879072287E+02  0.11963722187E+02  0.19930327934E+03  0.17336912778E+03 0.  0.
        -24    2    3    3    0    0  0.34890148258E+02  0.50690133334E+02 -0.40931362393E+02  0.10727856063E+03  0.77759250771E+02 0.  0.
          6    2    1    2  501    0  0.26618261199E+02 -0.93879072287E+02  0.65363393593E+03  0.68368921263E+03  0.17513367815E+03 0.  0.
         24    2    5    5    0    0 -0.44477210706E+00 -0.10040348233E+03  0.28683671447E+03  0.31580707475E+03  0.85893833359E+02 0.  0.
          5    1    5    5  501    0  0.27063033307E+02  0.65244100402E+01  0.36679722146E+03  0.36788213788E+03  0.47000000000E+01 0. -1.
        -11    1    6    6    0    0  0.38709568330E+02 -0.41122134466E+02  0.16925827444E+03  0.17843156697E+03  0.00000000000E+00 0.  1.
         12    1    6    6    0    0 -0.39154340437E+02 -0.59281347861E+02  0.11757844003E+03  0.13737550778E+03  0.00000000000E+00 0. -1.
         -5    1    3    3    0  503 -0.61508409458E+02  0.43188938953E+02  0.52895084580E+02  0.92024718715E+02  0.47000000000E+01 0.  1.
         11    1    4    4    0    0 -0.17490937272E+02  0.36229349592E+02 -0.33658064114E+02  0.52453445439E+02  0.00000000000E+00 0. -1.
        -12    1    4    4    0    0  0.52381085530E+02  0.14460783742E+02 -0.72732982781E+01  0.54825115190E+02  0.00000000000E+00 0.  1.
<mgrwt>
<rscale>  2 0.20009745E+03</rscale>
<asrwt>0</asrwt>
<pdfrwt beam="1">  1       21 0.11912232E+00 0.20048346E+03</pdfrwt>
<pdfrwt beam="2">  1       21 0.16722680E-01 0.20048346E+03</pdfrwt>
<totfact> 0.17203962E+04</totfact>
</mgrwt>
</event>
<event>
12    1  0.1039378E-001  0.2323539E+03  0.7546771E-02  0.1125004E+00
         21   -1    0    0  501  502  0.00000000000E+00  0.00000000000E+00  0.62596447760E+03  0.62596447760E+03  0.00000000000E+00 0.  1.
         21   -1    0    0  502  503 -0.00000000000E+00 -0.00000000000E+00 -0.14117617972E+03  0.14117617972E+03  0.00000000000E+00 0.  1.
         -6    2    1    2    0  503  0.72883214827E+02  0.13873660077E+03  0.31097765821E+01  0.23237466989E+03  0.17154739608E+03 0.  0.
        -24    2    3    3    0    0  0.11204899895E+03  0.13100076949E+03 -0.88963918945E+01  0.19042184147E+03  0.80406169848E+02 0.  0.
          6    2    1    2  501    0 -0.72883214827E+02 -0.13873660077E+03  0.48167852130E+03  0.53476598743E+03  0.17146619502E+03 0.  0.
         24    2    5    5    0    0 -0.27972325918E+02 -0.14998997361E+03  0.28703746642E+03  0.33463888635E+03  0.79455861488E+02 0.  0.
          5    1    5    5  501    0 -0.44910888909E+02  0.11253372846E+02  0.19464105488E+03  0.20012710108E+03  0.47000000000E+01 0. -1.
        -13    1    6    6    0    0 -0.44042966805E+02 -0.13836021753E+03  0.27618272960E+03  0.31202601310E+03  0.00000000000E+00 0.  1.
         14    1    6    6    0    0  0.16070640887E+02 -0.11629756084E+02  0.10854736815E+02  0.22612873245E+02  0.00000000000E+00 0. -1.
         -5    1    3    3    0  503 -0.39165784118E+02  0.77358312802E+01  0.12006168477E+02  0.41952828423E+02  0.47000000000E+01 0.  1.
         11    1    4    4    0    0  0.50208696908E+02  0.10462092502E+02 -0.18703606711E+02  0.54591148813E+02  0.00000000000E+00 0. -1.
        -12    1    4    4    0    0  0.61840302037E+02  0.12053867699E+03  0.98072148167E+01  0.13583069266E+03  0.00000000000E+00 0.  1.
<mgrwt>
<rscale>  2 0.23233887E+03</rscale>
<asrwt>0</asrwt>
<pdfrwt beam="1">  1       21 0.96302226E-01 0.23235386E+03</pdfrwt>
<pdfrwt beam="2">  1       21 0.21719413E-01 0.23235386E+03</pdfrwt>
<totfact> 0.17325303E+04</totfact>
</mgrwt>
</event>
<event>
12    1  0.1039378E-001  0.1748369E+03  0.7546771E-02  0.1173153E+00
         21   -1    0    0  501  502  0.00000000000E+00  0.00000000000E+00  0.34792291725E+03  0.34792291725E+03  0.00000000000E+00 0.  1.
         21   -1    0    0  502  503 -0.00000000000E+00 -0.00000000000E+00 -0.12286529621E+03  0.12286529621E+03  0.00000000000E+00 0.  1.
         -6    2    1    2    0  503 -0.26753311064E+02 -0.92591134889E+01 -0.14271626152E+02  0.17439921978E+03  0.17149325851E+03 0.  0.
        -24    2    3    3    0    0  0.15994297022E+02  0.32943117492E+02 -0.52383005126E+02  0.10310438474E+03  0.80904069112E+02 0.  0.
          6    2    1    2  501    0  0.26753311064E+02  0.92591134889E+01  0.23932924719E+03  0.29638899368E+03  0.17252963855E+03 0.  0.
         24    2    5    5    0    0  0.90183106657E+01  0.66082830619E+02  0.19141351301E+03  0.21982873865E+03  0.85072151414E+02 0.  0.
          5    1    5    5  501    0  0.17735000398E+02 -0.56823717130E+02  0.47915734177E+02  0.76560255024E+02  0.47000000000E+01 0. -1.
        -11    1    6    6    0    0  0.90644851518E+01 -0.10145481323E+01  0.12530098792E+03  0.12563252673E+03  0.00000000000E+00 0.  1.
         12    1    6    6    0    0 -0.46174486106E-01  0.67097378751E+02  0.66112525092E+02  0.94196211927E+02  0.00000000000E+00 0. -1.
         -5    1    3    3    0  503 -0.42747608086E+02 -0.42202230981E+02  0.38111378975E+02  0.71294835046E+02  0.47000000000E+01 0.  1.
         11    1    4    4    0    0  0.16631705170E+02 -0.89106964285E+01  0.14778095667E+02  0.23966773651E+02  0.00000000000E+00 0. -1.
        -12    1    4    4    0    0 -0.63740814729E+00  0.41853813921E+02 -0.67161100793E+02  0.79137611088E+02  0.00000000000E+00 0.  1.
<mgrwt>
<rscale>  2 0.17458070E+03</rscale>
<asrwt>0</asrwt>
<pdfrwt beam="1">  1       21 0.53526602E-01 0.17483692E+03</pdfrwt>
<pdfrwt beam="2">  1       21 0.18902353E-01 0.17483692E+03</pdfrwt>
<totfact> 0.85317272E+04</totfact>
</mgrwt>
</event>
<event>
12    1  0.1039378E-001  0.2333868E+03  0.7546771E-02  0.1125051E+00
         21   -1    0    0  501  502  0.00000000000E+00  0.00000000000E+00  0.24093440476E+03  0.24093440476E+03  0.00000000000E+00 0.  1.
         21   -1    0    0  502  503 -0.00000000000E+00 -0.00000000000E+00 -0.22774754103E+03  0.22774754103E+03  0.00000000000E+00 0. -1.
         -6    2    1    2    0  503  0.32967781099E+02  0.14671159457E+03 -0.31193986747E+02  0.23546226989E+03  0.17848879282E+03 0.  0.
        -24    2    3    3    0    0  0.50785503308E+02  0.36069462374E+02 -0.56103173463E+02  0.12056357441E+03  0.86647769381E+02 0.  0.
          6    2    1    2  501    0 -0.32967781099E+02 -0.14671159457E+03  0.44380850479E+02  0.23321967590E+03  0.17265743762E+03 0.  0.
         24    2    5    5    0    0 -0.51749189934E+02 -0.11076642894E+03 -0.29101859960E+02  0.14915663418E+03  0.80334319116E+02 0.  0.
          5    1    5    5  501    0  0.18781408835E+02 -0.35945165628E+02  0.73482710439E+02  0.84063041720E+02  0.47000000000E+01 0. -1.
        -13    1    6    6    0    0 -0.56402362030E+02 -0.79164667692E+02 -0.51635494179E+02  0.11006586806E+03  0.00000000000E+00 0.  1.
         14    1    6    6    0    0  0.46531720955E+01 -0.31601761249E+02  0.22533634219E+02  0.39090766118E+02  0.00000000000E+00 0. -1.
         -5    1    3    3    0  503 -0.17817722209E+02  0.11064213219E+03  0.24909186717E+02  0.11489869548E+03  0.47000000000E+01 0.  1.
         13    1    4    4    0    0 -0.20110989925E+02 -0.94937813527E+01 -0.14777370943E+02  0.26701207690E+02  0.00000000000E+00 0. -1.
        -14    1    4    4    0    0  0.70896493233E+02  0.45563243727E+02 -0.41325802521E+02  0.93862366716E+02  0.00000000000E+00 0.  1.
<mgrwt>
<rscale>  2 0.23227166E+03</rscale>
<asrwt>0</asrwt>
<pdfrwt beam="1">  1       21 0.37066832E-01 0.23338684E+03</pdfrwt>
<pdfrwt beam="2">  1       21 0.35038083E-01 0.23338684E+03</pdfrwt>
<totfact> 0.54117289E+04</totfact>
</mgrwt>
</event>
<event>
12    1  0.1039378E-001  0.2552885E+03  0.7546771E-02  0.1110298E+00
         21   -1    0    0  501  502  0.00000000000E+00  0.00000000000E+00  0.19580813711E+03  0.19580813711E+03  0.00000000000E+00 0. -1.
         21   -1    0    0  502  503 -0.00000000000E+00 -0.00000000000E+00 -0.48765281958E+03  0.48765281958E+03  0.00000000000E+00 0.  1.
         -6    2    1    2    0  503  0.10764119421E+03 -0.15061229186E+03  0.47774678672E+02  0.25972035010E+03  0.17578837044E+03 0.  0.
        -24    2    3    3    0    0  0.29260825646E+02 -0.11511453278E+03  0.85731224538E+02  0.16555898621E+03  0.77151691353E+02 0.  0.
          6    2    1    2  501    0 -0.10764119421E+03  0.15061229186E+03 -0.33961936114E+03  0.42374060658E+03  0.17304364205E+03 0.  0.
         24    2    5    5    0    0 -0.65748704808E+02  0.16208109517E+03 -0.32515905819E+03  0.37772208336E+03  0.79701854056E+02 0.  0.
          5    1    5    5  501    0 -0.41892489404E+02 -0.11468803310E+02 -0.14460302946E+02  0.46018523217E+02  0.47000000000E+01 0. -1.
        -11    1    6    6    0    0 -0.17161707120E+02  0.11939870819E+03 -0.16017869268E+03  0.20051880036E+03  0.00000000000E+00 0.  1.
         12    1    6    6    0    0 -0.48586997688E+02  0.42682386982E+02 -0.16498036552E+03  0.17720328301E+03  0.00000000000E+00 0. -1.
         -5    1    3    3    0  503  0.78380368566E+02 -0.35497759084E+02 -0.37956545866E+02  0.94161363895E+02  0.47000000000E+01 0.  1.
         11    1    4    4    0    0  0.77063316262E+01 -0.11050221510E+03  0.45633602764E+02  0.11980214018E+03  0.00000000000E+00 0. -1.
        -12    1    4    4    0    0  0.21554494020E+02 -0.46123176780E+01  0.40097621774E+02  0.45756846031E+02  0.00000000000E+00 0.  1.
<mgrwt>
<rscale>  2 0.25481669E+03</rscale>
<asrwt>0</asrwt>
<pdfrwt beam="1">  1       21 0.30124329E-01 0.25528854E+03</pdfrwt>
<pdfrwt beam="2">  1       21 0.75023510E-01 0.25528854E+03</pdfrwt>
<totfact> 0.16208966E+04</totfact>
</mgrwt>
</event>
<event>
12    1  0.1039378E-001  0.1970386E+03  0.7546771E-02  0.1152477E+00
         21   -1    0    0  501  502  0.00000000000E+00  0.00000000000E+00  0.70863861716E+03  0.70863861716E+03  0.00000000000E+00 0. -1.
         21   -1    0    0  502  503 -0.00000000000E+00 -0.00000000000E+00 -0.61148432771E+02  0.61148432771E+02  0.00000000000E+00 0. -1.
         -6    2    1    2    0  503 -0.57059605698E+02 -0.73030095031E+02  0.19619005310E+03  0.27734821439E+03  0.17274924516E+03 0.  0.
        -24    2    3    3    0    0  0.18325498889E+02 -0.83238814161E+02  0.12828556968E+03  0.17526863362E+03  0.83650358350E+02 0.  0.
          6    2    1    2  501    0  0.57059605698E+02  0.73030095031E+02  0.45130013129E+03  0.49243883555E+03  0.17388215799E+03 0.  0.
         24    2    5    5    0    0  0.51601334587E+02 -0.24969168661E+02  0.22661515386E+03  0.24720613485E+03  0.80438100635E+02 0.  0.
          5    1    5    5  501    0  0.54582711109E+01  0.97999263692E+02  0.22468497744E+03  0.24523270070E+03  0.47000000000E+01 0. -1.
        -13    1    6    6    0    0  0.70224302669E+02 -0.47988559030E+01  0.14682385613E+03  0.16282421942E+03  0.00000000000E+00 0.  1.
         14    1    6    6    0    0 -0.18622968082E+02 -0.20170312758E+02  0.79791297730E+02  0.84381915422E+02  0.00000000000E+00 0. -1.
         -5    1    3    3    0  503 -0.75385104587E+02  0.10208719130E+02  0.67904483425E+02  0.10207958076E+03  0.47000000000E+01 0.  1.
         13    1    4    4    0    0 -0.10557035251E+02 -0.65321221304E+01  0.78272301467E+02  0.79250695831E+02  0.00000000000E+00 0. -1.
        -14    1    4    4    0    0  0.28882534139E+02 -0.76706692031E+02  0.50013268209E+02  0.96017937790E+02  0.00000000000E+00 0.  1.
<mgrwt>
<rscale>  2 0.19678833E+03</rscale>
<asrwt>0</asrwt>
<pdfrwt beam="1">  1       21 0.10902132E+00 0.19703857E+03</pdfrwt>
<pdfrwt beam="2">  1       21 0.94074517E-02 0.19703857E+03</pdfrwt>
<totfact> 0.60180269E+04</totfact>
</mgrwt>
</event>
<event>
12    1  0.1039378E-001  0.2057991E+03  0.7546771E-02  0.1145079E+00
         21   -1    0    0  503  502  0.00000000000E+00  0.00000000000E+00  0.32009955517E+02  0.32009955517E+02  0.00000000000E+00 0.  1.
         21   -1    0    0  501  503 -0.00000000000E+00 -0.00000000000E+00 -0.17895420135E+04  0.17895420135E+04  0.00000000000E+00 0.  1.
          6    2    1    2  501    0  0.77913292133E+02  0.80930277999E+02 -0.13448710132E+04  0.13604202966E+04  0.17159589189E+03 0.  0.
         24    2    3    3    0    0  0.68685096083E+02  0.73173144842E+02 -0.51957915171E+03  0.53502700886E+03  0.78863513519E+02 0.  0.
         -6    2    1    2    0  502 -0.77913292133E+02 -0.80930277999E+02 -0.41266104480E+03  0.46113167249E+03  0.17243285792E+03 0.  0.
        -24    2    5    5    0    0 -0.12024477669E+03 -0.49459141875E+02 -0.31208539068E+03  0.34746576205E+03  0.80188226612E+02 0.  0.
          5    1    3    3  501    0  0.92281960503E+01  0.77571331565E+01 -0.82529186150E+03  0.82539328770E+03  0.47000000000E+01 0. -1.
        -13    1    4    4    0    0  0.73938974249E+02  0.30462331924E+02 -0.40062829608E+03  0.40853146415E+03  0.00000000000E+00 0.  1.
         14    1    4    4    0    0 -0.52538781666E+01  0.42710812918E+02 -0.11895085563E+03  0.12649554470E+03  0.00000000000E+00 0. -1.
         -5    1    5    5    0  502  0.42331484558E+02 -0.31471136123E+02 -0.10057565412E+03  0.11366591044E+03  0.47000000000E+01 0.  1.
         13    1    6    6    0    0 -0.85983360837E+01 -0.38760894534E+02 -0.65909527056E+02  0.76944162126E+02  0.00000000000E+00 0. -1.
        -14    1    6    6    0    0 -0.11164644061E+03 -0.10698247341E+02 -0.24617586362E+03  0.27052159992E+03  0.00000000000E+00 0.  1.
<mgrwt>
<rscale>  2 0.20562371E+03</rscale>
<asrwt>0</asrwt>
<pdfrwt beam="1">  1       21 0.49246069E-02 0.20579913E+03</pdfrwt>
<pdfrwt beam="2">  1       21 0.27531425E+00 0.20579913E+03</pdfrwt>
<totfact> 0.12906973E+04</totfact>
</mgrwt>
</event>
<event>
12    1  0.1039378E-001  0.1814228E+03  0.7546771E-02  0.1166476E+00
         21   -1    0    0  501  502  0.00000000000E+00  0.00000000000E+00  0.42247068888E+02  0.42247068888E+02  0.00000000000E+00 0.  1.
         21   -1    0    0  502  503 -0.00000000000E+00 -0.00000000000E+00 -0.10450241820E+04  0.10450241820E+04  0.00000000000E+00 0.  1.
         -6    2    1    2    0  503  0.21773393883E+00  0.52762435531E+02 -0.77621310272E+03  0.79713299736E+03  0.17358085328E+03 0.  0.
        -24    2    3    3    0    0  0.34094787606E+02  0.26373428535E+02 -0.20848539714E+03  0.22776416071E+03  0.80946524387E+02 0.  0.
          6    2    1    2  501    0 -0.21773393883E+00 -0.52762435531E+02 -0.22656401038E+03  0.29013825352E+03  0.17339271422E+03 0.  0.
         24    2    5    5    0    0  0.64635274650E+02 -0.17605280658E+02 -0.11070900544E+03  0.15271041634E+03  0.81094529644E+02 0.  0.
          5    1    5    5  501    0 -0.64853008588E+02 -0.35157154873E+02 -0.11585500495E+03  0.13742783718E+03  0.47000000000E+01 0. -1.
        -13    1    6    6    0    0  0.58932100962E+02 -0.13006199041E+02 -0.12378993421E+03  0.13771747002E+03  0.00000000000E+00 0.  1.
         14    1    6    6    0    0  0.57031736880E+01 -0.45990816163E+01  0.13080928772E+02  0.14992946321E+02  0.00000000000E+00 0. -1.
         -5    1    3    3    0  503 -0.33877053667E+02  0.26389006996E+02 -0.56772770558E+03  0.56936883664E+03  0.47000000000E+01 0.  1.
         13    1    4    4    0    0 -0.98972743224E+01  0.40067274372E+02 -0.64385596152E+02  0.76477758247E+02  0.00000000000E+00 0. -1.
        -14    1    4    4    0    0  0.43992061928E+02 -0.13693845837E+02 -0.14409980099E+03  0.15128640247E+03  0.00000000000E+00 0.  1.
<mgrwt>
<rscale>  2 0.18137779E+03</rscale>
<asrwt>0</asrwt>
<pdfrwt beam="1">  1       21 0.64995494E-02 0.18142281E+03</pdfrwt>
<pdfrwt beam="2">  1       21 0.16077294E+00 0.18142281E+03</pdfrwt>
<totfact> 0.42993645E+04</totfact>
</mgrwt>
</event>
<event>
12    1  0.1039378E-001  0.2069580E+03  0.7546771E-02  0.1144291E+00
         21   -1    0    0  503  502  0.00000000000E+00  0.00000000000E+00  0.10066333089E+03  0.10066333089E+03  0.00000000000E+00 0. -1.
         21   -1    0    0  501  503 -0.00000000000E+00 -0.00000000000E+00 -0.42512127821E+03  0.42512127821E+03  0.00000000000E+00 0. -1.
          6    2    1    2  501    0  0.10263093909E+03 -0.49464704906E+02 -0.18223351905E+03  0.27466832785E+03  0.17103732975E+03 0.  0.
         24    2    3    3    0    0  0.41484947185E+02 -0.46595977192E+02 -0.23851336214E+02  0.10480347638E+03  0.80763212477E+02 0.  0.
         -6    2    1    2    0  502 -0.10263093909E+03  0.49464704906E+02 -0.14222442827E+03  0.25111628125E+03  0.17277653782E+03 0.  0.
        -24    2    5    5    0    0 -0.42539957531E+02  0.38746915843E+02 -0.41635482176E+01  0.10009080768E+03  0.81791583758E+02 0.  0.
          5    1    3    3  501    0  0.61145991907E+02 -0.28687277139E+01 -0.15838218283E+03  0.16986485147E+03  0.47000000000E+01 0. -1.
        -11    1    4    4    0    0 -0.10385372363E+02  0.15272195566E+02 -0.14594352663E+02  0.23539138603E+02  0.00000000000E+00 0.  1.
         12    1    4    4    0    0  0.51870319548E+02 -0.61868172758E+02 -0.92569835508E+01  0.81264337780E+02  0.00000000000E+00 0. -1.
         -5    1    5    5    0  502 -0.60090981561E+02  0.10717789063E+02 -0.13806088005E+03  0.15102547357E+03  0.47000000000E+01 0.  1.
         13    1    6    6    0    0 -0.54789337609E+02  0.37364630129E+00 -0.17728030861E+02  0.57587274683E+02  0.00000000000E+00 0. -1.
        -14    1    6    6    0    0  0.12249380078E+02  0.38373269542E+02  0.13564482643E+02  0.42503532995E+02  0.00000000000E+00 0.  1.
<mgrwt>
<rscale>  2 0.20659458E+03</rscale>
<asrwt>0</asrwt>
<pdfrwt beam="1">  1       21 0.15486666E-01 0.20695796E+03</pdfrwt>
<pdfrwt beam="2">  1       21 0.65403274E-01 0.20695796E+03</pdfrwt>
<totfact> 0.79087799E+04</totfact>
</mgrwt>
</event>
<event>
12    1  0.1039378E-001  0.2785365E+03  0.7546771E-02  0.1096574E+00
         21   -1    0    0  501  502  0.00000000000E+00  0.00000000000E+00  0.10138729469E+03  0.10138729469E+03  0.00000000000E+00 0.  1.
         21   -1    0    0  502  503 -0.00000000000E+00 -0.00000000000E+00 -0.76359126795E+03  0.76359126795E+03  0.00000000000E+00 0. -1.
         -6    2    1    2    0  503 -0.16452943451E+03 -0.14274637403E+03 -0.33409874215E+03  0.43458845579E+03  0.17262298306E+03 0.  0.
        -24    2    3    3    0    0 -0.43429137892E+02 -0.48797545328E+02 -0.22031274786E+03  0.24364080131E+03  0.80968158837E+02 0.  0.
          6    2    1    2  501    0  0.16452943451E+03  0.14274637403E+03 -0.32810523111E+03  0.43039010685E+03  0.17359763614E+03 0.  0.
         24    2    5    5    0    0  0.14222135270E+03  0.61919118069E+02 -0.28695221609E+03  0.33686814972E+03  0.84128982098E+02 0.  0.
          5    1    5    5  501    0  0.22308081807E+02  0.80827255964E+02 -0.41153015019E+02  0.93521957132E+02  0.47000000000E+01 0. -1.
        -11    1    6    6    0    0  0.13437035916E+03  0.23288249796E+02 -0.20978176731E+03  0.25021216177E+03  0.00000000000E+00 0.  1.
         12    1    6    6    0    0  0.78509935389E+01  0.38630868273E+02 -0.77170448774E+02  0.86655987947E+02  0.00000000000E+00 0. -1.
         -5    1    3    3    0  503 -0.12110029662E+03 -0.93948828705E+02 -0.11378599429E+03  0.19094765448E+03  0.47000000000E+01 0.  1.
         11    1    4    4    0    0 -0.50600707392E+02 -0.67109808903E+02 -0.17062695630E+03  0.19020440651E+03  0.00000000000E+00 0. -1.
        -12    1    4    4    0    0  0.71715695004E+01  0.18312263575E+02 -0.49685791560E+02  0.53436394800E+02  0.00000000000E+00 0.  1.
<mgrwt>
<rscale>  2 0.27838481E+03</rscale>
<asrwt>0</asrwt>
<pdfrwt beam="1">  1       21 0.15598045E-01 0.27853654E+03</pdfrwt>
<pdfrwt beam="2">  1       21 0.11747558E+00 0.27853654E+03</pdfrwt>
<totfact> 0.19395762E+04</totfact>
</mgrwt>
</event>
<event>
12    1  0.1039378E-001  0.2244683E+03  0.7546771E-02  0.1130767E+00
         21   -1    0    0  501  502  0.00000000000E+00  0.00000000000E+00  0.12810849887E+04  0.12810849887E+04  0.00000000000E+00 0. -1.
         21   -1    0    0  502  503 -0.00000000000E+00 -0.00000000000E+00 -0.11427243748E+03  0.11427243748E+03  0.00000000000E+00 0.  1.
         -6    2    1    2    0  503 -0.94219803010E+02  0.10468513000E+03  0.17361083635E+02  0.22419361212E+03  0.17356560941E+03 0.  0.
        -24    2    3    3    0    0 -0.37108021280E+02  0.80932033360E+02  0.73443769758E+02  0.14056752232E+03  0.80238654956E+02 0.  0.
          6    2    1    2  501    0  0.94219803010E+02 -0.10468513000E+03  0.11494514676E+04  0.11711638141E+04  0.17478459683E+03 0.  0.
         24    2    5    5    0    0 -0.19000350998E+02 -0.26915745341E+02  0.43482471644E+03  0.44344108944E+03  0.80510838348E+02 0.  0.
          5    1    5    5  501    0  0.11322015401E+03 -0.77769384659E+02  0.71462675118E+03  0.72772272464E+03  0.47000000000E+01 0. -1.
        -11    1    6    6    0    0 -0.42124653465E+02 -0.10473547989E+02  0.37178220643E+03  0.37430761501E+03  0.00000000000E+00 0.  1.
         12    1    6    6    0    0  0.23124302467E+02 -0.16442197352E+02  0.63042510008E+02  0.69133474428E+02  0.00000000000E+00 0. -1.
         -5    1    3    3    0  503 -0.57111781730E+02  0.23753096640E+02 -0.56082686124E+02  0.83626089800E+02  0.47000000000E+01 0.  1.
         11    1    4    4    0    0 -0.20562005520E+02  0.25521405816E+01 -0.11591772819E+02  0.23741918406E+02  0.00000000000E+00 0. -1.
        -12    1    4    4    0    0 -0.16546015760E+02  0.78379892778E+02  0.85035542577E+02  0.11682560392E+03  0.00000000000E+00 0.  1.
<mgrwt>
<rscale>  2 0.22423092E+03</rscale>
<asrwt>0</asrwt>
<pdfrwt beam="1">  1       21 0.19708999E+00 0.22446827E+03</pdfrwt>
<pdfrwt beam="2">  1       21 0.17580376E-01 0.22446827E+03</pdfrwt>
<totfact> 0.39953237E+03</totfact>
</mgrwt>
</event>
<event>
12    1  0.1039378E-001  0.2439235E+03  0.7546771E-02  0.1117248E+00
         21   -1    0    0  501  502  0.00000000000E+00  0.00000000000E+00  0.63013077515E+02  0.63013077515E+02  0.00000000000E+00 0.  1.
         21   -1    0    0  502  503 -0.00000000000E+00 -0.00000000000E+00 -0.10320239464E+04  0.10320239464E+04  0.00000000000E+00 0. -1.
         -6    2    1    2    0  503  0.82649706238E+02  0.15081084485E+03 -0.64485921655E+03  0.68936107404E+03  0.17262791307E+03 0.  0.
        -24    2    3    3    0    0  0.87918425066E+02  0.14272750762E+03 -0.36992116576E+03  0.41421361992E+03  0.81427655935E+02 0.  0.
          6    2    1    2  501    0 -0.82649706238E+02 -0.15081084485E+03 -0.32415165232E+03  0.40567594985E+03  0.17298496388E+03 0.  0.
         24    2    5    5    0    0 -0.80594612591E+02 -0.10226535883E+03 -0.11676422115E+03  0.19262073582E+03  0.80716598852E+02 0.  0.
          5    1    5    5  501    0 -0.20550936473E+01 -0.48545486012E+02 -0.20738743117E+03  0.21305521404E+03  0.47000000000E+01 0. -1.
        -13    1    6    6    0    0 -0.14022971252E+02 -0.59054026942E+02 -0.90601519282E+02  0.10905345990E+03  0.00000000000E+00 0.  1.
         14    1    6    6    0    0 -0.66571641339E+02 -0.43211331892E+02 -0.26162701864E+02  0.83567275912E+02  0.00000000000E+00 0. -1.
         -5    1    3    3    0  503 -0.52687188274E+01  0.80833372294E+01 -0.27493805079E+03  0.27514745412E+03  0.47000000000E+01 0.  1.
         11    1    4    4    0    0  0.85255937012E+02  0.11344361033E+03 -0.35260307689E+03  0.38008809156E+03  0.00000000000E+00 0. -1.
        -12    1    4    4    0    0  0.26624880541E+01  0.29283897290E+02 -0.17318088875E+02  0.34125528354E+02  0.00000000000E+00 0.  1.
<mgrwt>
<rscale>  2 0.24386022E+03</rscale>
<asrwt>0</asrwt>
<pdfrwt beam="1">  1       21 0.96943202E-02 0.24392352E+03</pdfrwt>
<pdfrwt beam="2">  1       21 0.15877291E+00 0.24392352E+03</pdfrwt>
<totfact> 0.21332059E+04</totfact>
</mgrwt>
</event>
<event>
12    1  0.1039378E-001  0.2548150E+03  0.7546771E-02  0.1110305E+00
         21   -1    0    0  501  502  0.00000000000E+00  0.00000000000E+00  0.16374851250E+04  0.16374851250E+04  0.00000000000E+00 0.  1.
         21   -1    0    0  502  503 -0.00000000000E+00 -0.00000000000E+00 -0.80082059196E+02  0.80082059196E+02  0.00000000000E+00 0.  1.
         -6    2    1    2    0  503 -0.14287149901E+02 -0.18671368800E+03  0.16849596843E+03  0.30548583548E+03  0.17281371579E+03 0.  0.
        -24    2    3    3    0    0 -0.50695727203E+02 -0.17249850775E+03  0.87412526231E+02  0.21535110050E+03  0.80058446227E+02 0.  0.
          6    2    1    2  501    0  0.14287149901E+02  0.18671368800E+03  0.13889070973E+04  0.14120813487E+04  0.17275614699E+03 0.  0.
         24    2    5    5    0    0  0.70338928068E+02  0.15185143809E+03  0.11189418500E+04  0.11341236126E+04  0.78734241693E+02 0.  0.
          5    1    5    5  501    0 -0.56051778167E+02  0.34862249903E+02  0.26996524731E+03  0.27795773611E+03  0.47000000000E+01 0. -1.
        -13    1    6    6    0    0 -0.15287970039E+02  0.26799856215E+02  0.12844476285E+03  0.13209849138E+03  0.00000000000E+00 0.  1.
         14    1    6    6    0    0  0.85626898107E+02  0.12505158188E+03  0.99049708719E+03  0.10020251212E+04  0.00000000000E+00 0. -1.
         -5    1    3    3    0  503  0.36408577302E+02 -0.14215180245E+02  0.81083442203E+02  0.90134734981E+02  0.47000000000E+01 0.  1.
         13    1    4    4    0    0 -0.51303217907E+02 -0.44264761496E+02  0.21002713669E+02  0.70940138563E+02  0.00000000000E+00 0. -1.
        -14    1    4    4    0    0  0.60749070412E+00 -0.12823374625E+03  0.66409812563E+02  0.14441096194E+03  0.00000000000E+00 0.  1.
<mgrwt>
<rscale>  2 0.25480528E+03</rscale>
<asrwt>0</asrwt>
<pdfrwt beam="1">  1       21 0.25192076E+00 0.25481504E+03</pdfrwt>
<pdfrwt beam="2">  1       21 0.12320318E-01 0.25481504E+03</pdfrwt>
<totfact> 0.34178652E+03</totfact>
</mgrwt>
</event>
<event>
12    1  0.1039378E-001  0.3471840E+03  0.7546771E-02  0.1063922E+00
         21   -1    0    0  501  502  0.00000000000E+00  0.00000000000E+00  0.43986988831E+03  0.43986988831E+03  0.00000000000E+00 0. -1.
         21   -1    0    0  502  503 -0.00000000000E+00 -0.00000000000E+00 -0.27321610241E+03  0.27321610241E+03  0.00000000000E+00 0.  1.
         -6    2    1    2    0  503  0.26168494919E+03 -0.14515735965E+03  0.94807920725E+02  0.35854611271E+03  0.17325444125E+03 0.  0.
        -24    2    3    3    0    0  0.17440801501E+03 -0.11498619421E+03 -0.28938451923E+01  0.22402738714E+03  0.80869742749E+02 0.  0.
          6    2    1    2  501    0 -0.26168494919E+03  0.14515735965E+03  0.71845865179E+02  0.35453987801E+03  0.17603131842E+03 0.  0.
         24    2    5    5    0    0 -0.22930652445E+03  0.91999051953E+02  0.10761137796E+03  0.28259941673E+03  0.85070053205E+02 0.  0.
          5    1    5    5  501    0 -0.32378424744E+02  0.53158307695E+02 -0.35765512778E+02  0.71940461287E+02  0.47000000000E+01 0. -1.
        -11    1    6    6    0    0 -0.47624938960E+02  0.46454621506E+02 -0.10910112093E+00  0.66529531588E+02  0.00000000000E+00 0.  1.
         12    1    6    6    0    0 -0.18168158549E+03  0.45544430447E+02  0.10772047908E+03  0.21606988514E+03  0.00000000000E+00 0. -1.
         -5    1    3    3    0  503  0.87276934189E+02 -0.30171165437E+02  0.97701765918E+02  0.13451872557E+03  0.47000000000E+01 0.  1.
         13    1    4    4    0    0  0.25586776256E+02 -0.33298284549E+02  0.29339913520E+02  0.51227818599E+02  0.00000000000E+00 0. -1.
        -14    1    4    4    0    0  0.14882123875E+03 -0.81687909662E+02 -0.32233758712E+02  0.17279956854E+03  0.00000000000E+00 0.  1.
<mgrwt>
<rscale>  2 0.34683351E+03</rscale>
<asrwt>0</asrwt>
<pdfrwt beam="1">  1       21 0.67672291E-01 0.34718395E+03</pdfrwt>
<pdfrwt beam="2">  1       21 0.42033246E-01 0.34718395E+03</pdfrwt>
<totfact> 0.10037201E+04</totfact>
</mgrwt>
</event>
<event>
12    1  0.1039378E-001  0.1886397E+03  0.7546771E-02  0.1159791E+00
         21   -1    0    0  503  502  0.00000000000E+00  0.00000000000E+00  0.39793316676E+03  0.39793316676E+03  0.00000000000E+00 0. -1.
         21   -1    0    0  501  503 -0.00000000000E+00 -0.00000000000E+00 -0.10195817788E+03  0.10195817788E+03  0.00000000000E+00 0. -1.
          6    2    1    2  501    0  0.37264338650E+02  0.64653785446E+02  0.23617775077E+03  0.30200089528E+03  0.17278850624E+03 0.  0.
         24    2    3    3    0    0 -0.36425188854E+01 -0.80186301654E+01  0.18941009456E+03  0.20627234859E+03  0.81206720778E+02 0.  0.
         -6    2    1    2    0  502 -0.37264338650E+02 -0.64653785446E+02  0.59797238112E+02  0.19789044936E+03  0.17325177446E+03 0.  0.
        -24    2    5    5    0    0  0.27215042521E+02 -0.42597882473E+01 -0.10357035688E+02  0.84980141476E+02  0.79721715497E+02 0.  0.
          5    1    3    3  501    0  0.40906857536E+02  0.72672415611E+02  0.46767656206E+02  0.95728546689E+02  0.47000000000E+01 0. -1.
        -13    1    4    4    0    0  0.45055505367E+01 -0.26100313170E+02  0.14410975443E+02  0.30152985697E+02  0.00000000000E+00 0.  1.
         14    1    4    4    0    0 -0.81480694221E+01  0.18081683004E+02  0.17499911912E+03  0.17611936290E+03  0.00000000000E+00 0. -1.
         -5    1    5    5    0  502 -0.64479381171E+02 -0.60393997199E+02  0.70154273800E+02  0.11291030788E+03  0.47000000000E+01 0.  1.
         11    1    6    6    0    0  0.66342150541E+01 -0.31823441132E+02 -0.30952482499E+02  0.44886527909E+02  0.00000000000E+00 0. -1.
        -12    1    6    6    0    0  0.20580827467E+02  0.27563652884E+02  0.20595446811E+02  0.40093613567E+02  0.00000000000E+00 0.  1.
<mgrwt>
<rscale>  2 0.18853322E+03</rscale>
<asrwt>0</asrwt>
<pdfrwt beam="1">  1       21 0.61220486E-01 0.18863966E+03</pdfrwt>
<pdfrwt beam="2">  1       21 0.15685874E-01 0.18863966E+03</pdfrwt>
<totfact> 0.89859731E+04</totfact>
</mgrwt>
</event>
<event>
12    1  0.1039378E-001  0.2190450E+03  0.7546771E-02  0.1134682E+00
         21   -1    0    0  503  502  0.00000000000E+00  0.00000000000E+00  0.19408056249E+04  0.19408056249E+04  0.00000000000E+00 0. -1.
         21   -1    0    0  501  503 -0.00000000000E+00 -0.00000000000E+00 -0.25301233669E+02  0.25301233669E+02  0.00000000000E+00 0.  1.
          6    2    1    2  501    0  0.11100539157E+03 -0.76472640674E+02  0.80357360866E+03  0.83289329310E+03  0.17265697620E+03 0.  0.
         24    2    3    3    0    0  0.12687432952E+03 -0.96449305308E+02  0.77027407822E+03  0.79068145769E+03  0.80345802406E+02 0.  0.
         -6    2    1    2    0  502 -0.11100539157E+03  0.76472640674E+02  0.11119307826E+04  0.11332135655E+04  0.17208328798E+03 0.  0.
        -24    2    5    5    0    0 -0.93367871190E+02  0.11884134420E+03  0.90609653806E+03  0.92227277904E+03  0.82068984528E+02 0.  0.
          5    1    3    3  501    0 -0.15868937953E+02  0.19976664633E+02  0.33299530440E+02  0.42211835415E+02  0.47000000000E+01 0. -1.
        -11    1    4    4    0    0 -0.90708633708E+01  0.17218297862E-01  0.17955911570E+02  0.20117047971E+02  0.00000000000E+00 0.  1.
         12    1    4    4    0    0  0.13594519289E+03 -0.96466523605E+02  0.75231816665E+03  0.77056440972E+03  0.00000000000E+00 0. -1.
         -5    1    5    5    0  502 -0.17637520376E+02 -0.42368703522E+02  0.20583424452E+03  0.21094078643E+03  0.47000000000E+01 0.  1.
         13    1    6    6    0    0 -0.10305627839E+03  0.83302107819E+02  0.76797058051E+03  0.77931935060E+03  0.00000000000E+00 0. -1.
        -14    1    6    6    0    0  0.96884072007E+01  0.35539236378E+02  0.13812595754E+03  0.14295342844E+03  0.00000000000E+00 0.  1.
<mgrwt>
<rscale>  2 0.21893189E+03</rscale>
<asrwt>0</asrwt>
<pdfrwt beam="1">  1       21 0.29858536E+00 0.21904496E+03</pdfrwt>
<pdfrwt beam="2">  1       21 0.38924990E-02 0.21904496E+03</pdfrwt>
<totfact> 0.13899718E+04</totfact>
</mgrwt>
</event>
<event>
12    1  0.1039378E-001  0.1757816E+03  0.7546771E-02  0.1172100E+00
         21   -1    0    0  501  502  0.00000000000E+00  0.00000000000E+00  0.13012589773E+04  0.13012589773E+04  0.00000000000E+00 0. -1.
         21   -1    0    0  502  503 -0.00000000000E+00 -0.00000000000E+00 -0.24330365676E+02  0.24330365676E+02  0.00000000000E+00 0. -1.
         -6    2    1    2    0  503  0.13444719192E+02 -0.19915247828E+02  0.52987571329E+03  0.55827184576E+03  0.17413157285E+03 0.  0.
        -24    2    3    3    0    0 -0.43063619066E+02  0.29244341243E+02  0.33410909555E+03  0.34861375240E+03  0.84811283747E+02 0.  0.
          6    2    1    2  501    0 -0.13444719192E+02  0.19915247828E+02  0.74705289833E+03  0.76731749721E+03  0.17352443935E+03 0.  0.
         24    2    5    5    0    0 -0.24102308656E+02 -0.35050865287E+02  0.21614693626E+03  0.23344664357E+03  0.77255115690E+02 0.  0.
          5    1    5    5  501    0  0.10657589464E+02  0.54966113115E+02  0.53090596207E+03  0.53387085364E+03  0.47000000000E+01 0. -1.
        -13    1    6    6    0    0 -0.22284121112E+02  0.92936838256E+01  0.17288870989E+02  0.29696122185E+02  0.00000000000E+00 0.  1.
         14    1    6    6    0    0 -0.18181875445E+01 -0.44344549113E+02  0.19885806527E+03  0.20375052139E+03  0.00000000000E+00 0. -1.
         -5    1    3    3    0  503  0.56508338259E+02 -0.49159589071E+02  0.19576661775E+03  0.20965809337E+03  0.47000000000E+01 0.  1.
         13    1    4    4    0    0 -0.25300744241E+02  0.52134745893E+02  0.12836303995E+03  0.14083759943E+03  0.00000000000E+00 0. -1.
        -14    1    4    4    0    0 -0.17762874826E+02 -0.22890404650E+02  0.20574605560E+03  0.20777615297E+03  0.00000000000E+00 0.  1.
<mgrwt>
<rscale>  2 0.17563109E+03</rscale>
<asrwt>0</asrwt>
<pdfrwt beam="1">  1       21 0.20019363E+00 0.17578163E+03</pdfrwt>
<pdfrwt beam="2">  1       21 0.37431342E-02 0.17578163E+03</pdfrwt>
<totfact> 0.59269465E+04</totfact>
</mgrwt>
</event>
<event>
12    1  0.1039378E-001  0.1777287E+03  0.7546771E-02  0.1170091E+00
         21   -1    0    0  501  502  0.00000000000E+00  0.00000000000E+00  0.11267513016E+04  0.11267513016E+04  0.00000000000E+00 0.  1.
         21   -1    0    0  502  503 -0.00000000000E+00 -0.00000000000E+00 -0.33304457612E+02  0.33304457612E+02  0.00000000000E+00 0.  1.
         -6    2    1    2    0  503 -0.17824581932E+02  0.36633322934E+02  0.77884320810E+03  0.79886433378E+03  0.17299643034E+03 0.  0.
        -24    2    3    3    0    0  0.39841297513E+02 -0.19954792539E+02  0.32886242676E+03  0.34166376287E+03  0.81228741158E+02 0.  0.
          6    2    1    2  501    0  0.17824581932E+02 -0.36633322934E+02  0.31460363590E+03  0.36119142545E+03  0.17269650264E+03 0.  0.
         24    2    5    5    0    0  0.61790543668E+02  0.19856831384E+02  0.15829331935E+03  0.18920552955E+03  0.80805893494E+02 0.  0.
          5    1    5    5  501    0 -0.43965961736E+02 -0.56490154318E+02  0.15631031655E+03  0.17198589590E+03  0.47000000000E+01 0. -1.
        -11    1    6    6    0    0  0.15128956959E+02  0.13286651251E+02  0.13526917991E+03  0.13675953888E+03  0.00000000000E+00 0.  1.
         12    1    6    6    0    0  0.46661586709E+02  0.65701801330E+01  0.23024139441E+02  0.52445990678E+02  0.00000000000E+00 0. -1.
         -5    1    3    3    0  503 -0.57665879446E+02  0.56588115473E+02  0.44998078135E+03  0.45720057092E+03  0.47000000000E+01 0.  1.
         13    1    4    4    0    0  0.41460892319E+02 -0.46593446003E+02  0.26876907939E+03  0.27591080595E+03  0.00000000000E+00 0. -1.
        -14    1    4    4    0    0 -0.16195948060E+01  0.26638653464E+02  0.60093347363E+02  0.65752956915E+02  0.00000000000E+00 0.  1.
<mgrwt>
<rscale>  2 0.17765565E+03</rscale>
<asrwt>0</asrwt>
<pdfrwt beam="1">  1       21 0.17334632E+00 0.17772867E+03</pdfrwt>
<pdfrwt beam="2">  1       21 0.51237636E-02 0.17772867E+03</pdfrwt>
<totfact> 0.52649153E+04</totfact>
</mgrwt>
</event>
<event>
12    1  0.1039378E-001  0.1800928E+03  0.7546771E-02  0.1167979E+00
         21   -1    0    0  503  502  0.00000000000E+00  0.00000000000E+00  0.53913955832E+03  0.53913955832E+03  0.00000000000E+00 0.  1.
         21   -1    0    0  501  503 -0.00000000000E+00 -0.00000000000E+00 -0.28143624315E+03  0.28143624315E+03  0.00000000000E+00 0.  1.
          6    2    1    2  501    0 -0.38174081462E+02 -0.32543667496E+02 -0.23516958263E+03  0.29620626494E+03  0.17296551103E+03 0.  0.
         24    2    3    3    0    0  0.39774045638E+02 -0.39179977947E+02 -0.98747094559E+02  0.13887496994E+03  0.80113814125E+02 0.  0.
         -6    2    1    2    0  502  0.38174081462E+02  0.32543667496E+02  0.49287289781E+03  0.52436953653E+03  0.17182364986E+03 0.  0.
        -24    2    5    5    0    0  0.43721685987E+02 -0.44353815266E+02  0.23569486581E+03  0.25584276149E+03  0.77618310215E+02 0.  0.
          5    1    3    3  501    0 -0.77948127100E+02  0.66363104509E+01 -0.13642248807E+03  0.15733129500E+03  0.47000000000E+01 0. -1.
        -11    1    4    4    0    0  0.19238313779E+02 -0.61267719343E+02 -0.49311407593E+02  0.80965801851E+02  0.00000000000E+00 0.  1.
         12    1    4    4    0    0  0.20535731858E+02  0.22087741396E+02 -0.49435686966E+02  0.57909168088E+02  0.00000000000E+00 0. -1.
         -5    1    5    5    0  502 -0.55476045247E+01  0.76897482762E+02  0.25717803200E+03  0.26852677504E+03  0.47000000000E+01 0.  1.
         13    1    6    6    0    0 -0.11458360491E+02 -0.38898124570E+02  0.67503738096E+02  0.78747144565E+02  0.00000000000E+00 0. -1.
        -14    1    6    6    0    0  0.55180046478E+02 -0.54556906951E+01  0.16819112772E+03  0.17709561692E+03  0.00000000000E+00 0.  1.
<mgrwt>
<rscale>  2 0.17981808E+03</rscale>
<asrwt>0</asrwt>
<pdfrwt beam="1">  1       21 0.82944547E-01 0.18009281E+03</pdfrwt>
<pdfrwt beam="2">  1       21 0.43297884E-01 0.18009281E+03</pdfrwt>
<totfact> 0.65599341E+03</totfact>
</mgrwt>
</event>
<event>
12    1  0.1039378E-001  0.1873844E+03  0.7546771E-02  0.1161230E+00
         21   -1    0    0  501  502  0.00000000000E+00  0.00000000000E+00  0.94894435131E+03  0.94894435131E+03  0.00000000000E+00 0. -1.
         21   -1    0    0  502  503 -0.00000000000E+00 -0.00000000000E+00 -0.46690523870E+02  0.46690523870E+02  0.00000000000E+00 0. -1.
         -6    2    1    2    0  503  0.46465486346E+01  0.70749231803E+02  0.22211119062E+03  0.29059646016E+03  0.17345281043E+03 0.  0.
        -24    2    3    3    0    0 -0.82240098336E+01  0.11096527593E+03  0.13178186457E+03  0.19077432522E+03  0.81531935667E+02 0.  0.
          6    2    1    2  501    0 -0.46465486346E+01 -0.70749231803E+02  0.68014263682E+03  0.70503841501E+03  0.17163366805E+03 0.  0.
         24    2    5    5    0    0 -0.41513058726E+02  0.10474779489E+02  0.42142332543E+03  0.43133373536E+03  0.81351810025E+02 0.  0.
          5    1    5    5  501    0  0.36866510091E+02 -0.81224011293E+02  0.25871931139E+03  0.27370467965E+03  0.47000000000E+01 0. -1.
        -13    1    6    6    0    0 -0.32964610875E+01  0.35777196024E+02  0.92504196260E+02  0.99236589707E+02  0.00000000000E+00 0.  1.
         14    1    6    6    0    0 -0.38216597639E+02 -0.25302416535E+02  0.32891912917E+03  0.33209714566E+03  0.00000000000E+00 0. -1.
         -5    1    3    3    0  503  0.12870558468E+02 -0.40216044128E+02  0.90329326049E+02  0.99822134946E+02  0.47000000000E+01 0.  1.
         11    1    4    4    0    0  0.23643119775E+02  0.10205519451E+03  0.97061064797E+02  0.14281144960E+03  0.00000000000E+00 0. -1.
        -12    1    4    4    0    0 -0.31867129609E+02  0.89100814243E+01  0.34720799771E+02  0.47962875615E+02  0.00000000000E+00 0.  1.
<mgrwt>
<rscale>  2 0.18696234E+03</rscale>
<asrwt>0</asrwt>
<pdfrwt beam="1">  1       21 0.14599142E+00 0.18738442E+03</pdfrwt>
<pdfrwt beam="2">  1       21 0.71831582E-02 0.18738442E+03</pdfrwt>
<totfact> 0.46560053E+04</totfact>
</mgrwt>
</event>
<event>
12    1  0.1039378E-001  0.1771936E+03  0.7546771E-02  0.1170664E+00
         21   -1    0    0  501  502  0.00000000000E+00  0.00000000000E+00  0.41399956368E+03  0.41399956368E+03  0.00000000000E+00 0. -1.
         21   -1    0    0  502  503 -0.00000000000E+00 -0.00000000000E+00 -0.10719335833E+03  0.10719335833E+03  0.00000000000E+00 0. -1.
         -6    2    1    2    0  503 -0.31406156726E+02 -0.22795010483E+02  0.11868305256E+02  0.17712036504E+03  0.17240883928E+03 0.  0.
        -24    2    3    3    0    0  0.34844490239E+02 -0.18052155146E+02 -0.34286982695E+02  0.96101580150E+02  0.80745883607E+02 0.  0.
          6    2    1    2  501    0  0.31406156726E+02  0.22795010483E+02  0.29493790009E+03  0.34407255697E+03  0.17289187478E+03 0.  0.
         24    2    5    5    0    0 -0.15836573608E+02  0.39526159543E+02  0.27677187985E+03  0.29055712733E+03  0.77509073093E+02 0.  0.
          5    1    5    5  501    0  0.47242730333E+02 -0.16731149060E+02  0.18166020234E+02  0.53515429638E+02  0.47000000000E+01 0. -1.
        -13    1    6    6    0    0 -0.40720397474E+01  0.60983261637E+02  0.16062020201E+03  0.17185572146E+03  0.00000000000E+00 0.  1.
         14    1    6    6    0    0 -0.11764533860E+02 -0.21457102094E+02  0.11615167785E+03  0.11870140586E+03  0.00000000000E+00 0. -1.
         -5    1    3    3    0  503 -0.66250646965E+02 -0.47428553363E+01  0.46155287952E+02  0.81018784895E+02  0.47000000000E+01 0.  1.
         13    1    4    4    0    0  0.22627291679E+02  0.31361850202E+02 -0.18010218081E+02  0.42660613359E+02  0.00000000000E+00 0. -1.
        -14    1    4    4    0    0  0.12217198560E+02 -0.49414005348E+02 -0.16276764614E+02  0.53440966791E+02  0.00000000000E+00 0.  1.
<mgrwt>
<rscale>  2 0.17707563E+03</rscale>
<asrwt>0</asrwt>
<pdfrwt beam="1">  1       21 0.63692240E-01 0.17719357E+03</pdfrwt>
<pdfrwt beam="2">  1       21 0.16491286E-01 0.17719357E+03</pdfrwt>
<totfact> 0.75636611E+04</totfact>
</mgrwt>
</event>
<event>
12    1  0.1039378E-001  0.2104090E+03  0.7546771E-02  0.1141284E+00
         21   -1    0    0  503  502  0.00000000000E+00  0.00000000000E+00  0.11118779609E+03  0.11118779609E+03  0.00000000000E+00 0.  1.
         21   -1    0    0  501  503 -0.00000000000E+00 -0.00000000000E+00 -0.45569086921E+03  0.45569086921E+03  0.00000000000E+00 0.  1.
          6    2    1    2  501    0 -0.11837080758E+03 -0.18227482024E+02 -0.27337759756E+03  0.34497429344E+03  0.17299729217E+03 0.  0.
         24    2    3    3    0    0 -0.25629448783E+02  0.26759318376E+02 -0.55201413023E+02  0.10362867127E+03  0.79490727408E+02 0.  0.
         -6    2    1    2    0  502  0.11837080758E+03  0.18227482024E+02 -0.71125475556E+02  0.22190437185E+03  0.17273919007E+03 0.  0.
        -24    2    5    5    0    0  0.60657375543E+02 -0.57219563868E+02 -0.45581051318E+02  0.12342744775E+03  0.78761074909E+02 0.  0.
          5    1    3    3  501    0 -0.92741358799E+02 -0.44986800400E+02 -0.21817618454E+03  0.24134562217E+03  0.47000000000E+01 0. -1.
        -13    1    4    4    0    0  0.39966769177E+01 -0.25196069624E+02 -0.60599198342E+01  0.26220945431E+02  0.00000000000E+00 0.  1.
         14    1    4    4    0    0 -0.29626125701E+02  0.51955388000E+02 -0.49141493189E+02  0.77407725836E+02  0.00000000000E+00 0. -1.
         -5    1    5    5    0  502  0.57713432038E+02  0.75447045892E+02 -0.25544424238E+02  0.98476924105E+02  0.47000000000E+01 0.  1.
         11    1    6    6    0    0 -0.14717909557E+02 -0.17553346374E+02 -0.28485276006E+02  0.36553355246E+02  0.00000000000E+00 0. -1.
        -12    1    6    6    0    0  0.75375285100E+02 -0.39666217494E+02 -0.17095775313E+02  0.86874092500E+02  0.00000000000E+00 0.  1.
<mgrwt>
<rscale>  2 0.21035595E+03</rscale>
<asrwt>0</asrwt>
<pdfrwt beam="1">  1       21 0.17105815E-01 0.21040901E+03</pdfrwt>
<pdfrwt beam="2">  1       21 0.70106288E-01 0.21040901E+03</pdfrwt>
<totfact> 0.56479074E+04</totfact>
</mgrwt>
</event>
<event>
12    1  0.1039378E-001  0.1819944E+03  0.7546771E-02  0.1166824E+00
         21   -1    0    0  501  502  0.00000000000E+00  0.00000000000E+00  0.65069654862E+03  0.65069654862E+03  0.00000000000E+00 0. -1.
         21   -1    0    0  502  503 -0.00000000000E+00 -0.00000000000E+00 -0.16826141454E+03  0.16826141454E+03  0.00000000000E+00 0. -1.
         -6    2    1    2    0  503 -0.54132063642E+02 -0.27908015780E+01 -0.10155500617E+03  0.20841152535E+03  0.17373507341E+03 0.  0.
        -24    2    3    3    0    0  0.15222593354E+02 -0.36824118846E+02 -0.10122695291E+02  0.88618818542E+02  0.78505305315E+02 0.  0.
          6    2    1    2  501    0  0.54132063642E+02  0.27908015780E+01  0.58399014024E+03  0.61054643782E+03  0.16965965915E+03 0.  0.
         24    2    5    5    0    0 -0.30679294439E+02 -0.33362064001E+02  0.21611418899E+03  0.23126448246E+03  0.68728973095E+02 0.  0.
          5    1    5    5  501    0  0.84811358081E+02  0.36152865579E+02  0.36787595125E+03  0.37928195535E+03  0.47000000000E+01 0. -1.
        -11    1    6    6    0    0 -0.64752286435E+01  0.19109523028E+02  0.28259847341E+02  0.34723499652E+02  0.00000000000E+00 0.  1.
         12    1    6    6    0    0 -0.24204065795E+02 -0.52471587030E+02  0.18785434165E+03  0.19654098281E+03  0.00000000000E+00 0. -1.
         -5    1    3    3    0  503 -0.69354656996E+02  0.34033317268E+02 -0.91432310876E+02  0.11979270680E+03  0.47000000000E+01 0.  1.
         13    1    4    4    0    0  0.27984342063E+02 -0.57074099768E+02 -0.11690885939E+02  0.64631672414E+02  0.00000000000E+00 0. -1.
        -14    1    4    4    0    0 -0.12761748709E+02  0.20249980922E+02  0.15681906489E+01  0.23987146128E+02  0.00000000000E+00 0.  1.
<mgrwt>
<rscale>  2 0.18101489E+03</rscale>
<asrwt>0</asrwt>
<pdfrwt beam="1">  1       21 0.10010716E+00 0.18199435E+03</pdfrwt>
<pdfrwt beam="2">  1       21 0.25886372E-01 0.18199435E+03</pdfrwt>
<totfact> 0.11689288E+04</totfact>
</mgrwt>
</event>
<event>
12    1  0.1039378E-001  0.2162497E+03  0.7546771E-02  0.1137143E+00
         21   -1    0    0  503  502  0.00000000000E+00  0.00000000000E+00  0.27828231363E+03  0.27828231363E+03  0.00000000000E+00 0. -1.
         21   -1    0    0  501  503 -0.00000000000E+00 -0.00000000000E+00 -0.17582887451E+03  0.17582887451E+03  0.00000000000E+00 0.  1.
          6    2    1    2  501    0  0.11109383489E+03  0.64694616163E+02 -0.18993320674E+01  0.21399993818E+03  0.17107054851E+03 0.  0.
         24    2    3    3    0    0  0.14105261953E+03  0.28841588050E+02  0.14699667960E+02  0.16419446455E+03  0.77563285605E+02 0.  0.
         -6    2    1    2    0  502 -0.11109383489E+03 -0.64694616163E+02  0.10435277119E+03  0.24011124996E+03  0.17388696902E+03 0.  0.
        -24    2    5    5    0    0 -0.97868646351E+02  0.23381866854E+02  0.70311561291E+02  0.14464782009E+03  0.76513348960E+02 0.  0.
          5    1    3    3  501    0 -0.29958784635E+02  0.35853028113E+02 -0.16599000028E+02  0.49805473631E+02  0.47000000000E+01 0. -1.
        -13    1    4    4    0    0  0.97432373899E+02 -0.15646595700E+01 -0.21604002590E+02  0.99811064373E+02  0.00000000000E+00 0.  1.
         14    1    4    4    0    0  0.43620245630E+02  0.30406247620E+02  0.36303670551E+02  0.64383400179E+02  0.00000000000E+00 0. -1.
         -5    1    5    5    0  502 -0.13225188543E+02 -0.88076483017E+02  0.34041209896E+02  0.95463429876E+02  0.47000000000E+01 0.  1.
         11    1    6    6    0    0 -0.44587118030E+02 -0.11268863371E+02 -0.48173935373E+01  0.46240735897E+02  0.00000000000E+00 0. -1.
        -12    1    6    6    0    0 -0.53281528321E+02  0.34650730224E+02  0.75128954829E+02  0.98407084191E+02  0.00000000000E+00 0.  1.
<mgrwt>
<rscale>  2 0.21568289E+03</rscale>
<asrwt>0</asrwt>
<pdfrwt beam="1">  1       21 0.42812664E-01 0.21624965E+03</pdfrwt>
<pdfrwt beam="2">  1       21 0.27050596E-01 0.21624965E+03</pdfrwt>
<totfact> 0.67624576E+04</totfact>
</mgrwt>
</event>
<event>
12    1  0.1039378E-001  0.4151537E+03  0.7546771E-02  0.1038845E+00
         21   -1    0    0  503  502  0.00000000000E+00  0.00000000000E+00  0.19641869928E+03  0.19641869928E+03  0.00000000000E+00 0. -1.
         21   -1    0    0  501  503 -0.00000000000E+00 -0.00000000000E+00 -0.89367206898E+03  0.89367206898E+03  0.00000000000E+00 0.  1.
          6    2    1    2  501    0 -0.32594310696E+03 -0.18565296565E+03 -0.26593894970E+03  0.49302746885E+03  0.17789498993E+03 0.  0.
         24    2    3    3    0    0 -0.11603376939E+03 -0.17164659042E+02 -0.79349594789E+02  0.16547912611E+03  0.85606786103E+02 0.  0.
         -6    2    1    2    0  502  0.32594310696E+03  0.18565296565E+03 -0.43131442000E+03  0.59706329941E+03  0.17247180052E+03 0.  0.
        -24    2    5    5    0    0  0.12353321840E+03  0.51931554403E+02 -0.76659566134E+02  0.16735021585E+03  0.64591510852E+02 0.  0.
          5    1    3    3  501    0 -0.20990933757E+03 -0.16848830660E+03 -0.18658935491E+03  0.32754834273E+03  0.47000000000E+01 0. -1.
        -13    1    4    4    0    0 -0.10643854140E+03 -0.32067173844E+02 -0.91509778628E+02  0.14398439609E+03  0.00000000000E+00 0.  1.
         14    1    4    4    0    0 -0.95952279896E+01  0.14902514801E+02  0.12160183839E+02  0.21494730019E+02  0.00000000000E+00 0. -1.
         -5    1    5    5    0  502  0.20240988856E+03  0.13372141124E+03 -0.35465485387E+03  0.42971308356E+03  0.47000000000E+01 0.  1.
         11    1    6    6    0    0  0.16425827974E+02  0.36514445416E+02 -0.14675053285E+02  0.42643519291E+02  0.00000000000E+00 0. -1.
        -12    1    6    6    0    0  0.10710739043E+03  0.15417108988E+02 -0.61984512849E+02  0.12470669656E+03  0.00000000000E+00 0.  1.
<mgrwt>
<rscale>  2 0.41457877E+03</rscale>
<asrwt>0</asrwt>
<pdfrwt beam="1">  1       21 0.30218261E-01 0.41515366E+03</pdfrwt>
<pdfrwt beam="2">  1       21 0.13748801E+00 0.41515366E+03</pdfrwt>
<totfact> 0.34611173E+03</totfact>
</mgrwt>
</event>
<event>
12    1  0.1039378E-001  0.2584345E+03  0.7546771E-02  0.1108810E+00
         21   -1    0    0  503  502  0.00000000000E+00  0.00000000000E+00  0.19266852162E+04  0.19266852162E+04  0.00000000000E+00 0.  1.
         21   -1    0    0  501  503 -0.00000000000E+00 -0.00000000000E+00 -0.38782056057E+02  0.38782056057E+02  0.00000000000E+00 0. -1.
          6    2    1    2  501    0 -0.16514997696E+03 -0.82901405716E+02  0.60775344973E+03  0.66041852553E+03  0.18066879986E+03 0.  0.
         24    2    3    3    0    0 -0.14079952586E+03 -0.63957317456E+02  0.60442830659E+03  0.62903430137E+03  0.80221752429E+02 0.  0.
         -6    2    1    2    0  502  0.16514997696E+03  0.82901405716E+02  0.12801497105E+04  0.13050487468E+04  0.17384416099E+03 0.  0.
        -24    2    5    5    0    0  0.11851363018E+03  0.12088935504E+03  0.83460343780E+03  0.85543601985E+03  0.80920757309E+02 0.  0.
          5    1    3    3  501    0 -0.24350451100E+02 -0.18944088260E+02  0.33251431418E+01  0.31384224153E+02  0.47000000000E+01 0. -1.
        -13    1    4    4    0    0 -0.65179951233E+02  0.10524152937E+02  0.28025120165E+03  0.28792346182E+03  0.00000000000E+00 0.  1.
         14    1    4    4    0    0 -0.75619574626E+02 -0.74481470393E+02  0.32417710494E+03  0.34111083956E+03  0.00000000000E+00 0. -1.
         -5    1    5    5    0  502  0.46636346776E+02 -0.37987949326E+02  0.44554627266E+03  0.44961272693E+03  0.47000000000E+01 0.  1.
         11    1    6    6    0    0  0.13454219840E+02  0.53157307845E+02  0.15453091701E+03  0.16397109416E+03  0.00000000000E+00 0. -1.
        -12    1    6    6    0    0  0.10505941034E+03  0.67732047197E+02  0.68007252079E+03  0.69146492569E+03  0.00000000000E+00 0.  1.
<mgrwt>
<rscale>  2 0.25724526E+03</rscale>
<asrwt>0</asrwt>
<pdfrwt beam="1">  1       21 0.29641304E+00 0.25843447E+03</pdfrwt>
<pdfrwt beam="2">  1       21 0.59664716E-02 0.25843447E+03</pdfrwt>
<totfact> 0.66872092E+03</totfact>
</mgrwt>
</event>
<event>
12    1  0.1039378E-001  0.2388948E+03  0.7546771E-02  0.1122463E+00
         21   -1    0    0  503  502  0.00000000000E+00  0.00000000000E+00  0.28812886688E+03  0.28812886688E+03  0.00000000000E+00 0. -1.
         21   -1    0    0  501  503 -0.00000000000E+00 -0.00000000000E+00 -0.33736679534E+03  0.33736679534E+03  0.00000000000E+00 0. -1.
          6    2    1    2  501    0 -0.60141688801E+02 -0.13687839569E+03 -0.23241263616E+03  0.33329620093E+03  0.18632768492E+03 0.  0.
         24    2    3    3    0    0  0.19661007384E+02 -0.40946558412E+02 -0.38068820639E+02  0.10229187986E+03  0.83373963101E+02 0.  0.
         -6    2    1    2    0  502  0.60141688801E+02  0.13687839569E+03  0.18317470769E+03  0.29219946129E+03  0.17168236282E+03 0.  0.
        -24    2    5    5    0    0  0.35193100686E+02  0.13288082752E+03  0.69954718453E+02  0.17609920908E+03  0.84978821760E+02 0.  0.
          5    1    3    3  501    0 -0.79802696185E+02 -0.95931837276E+02 -0.19434381552E+03  0.23100432107E+03  0.47000000000E+01 0. -1.
        -11    1    4    4    0    0  0.43758172963E+01  0.20722244129E+01  0.24424038488E+02  0.24899308164E+02  0.00000000000E+00 0.  1.
         12    1    4    4    0    0  0.15285190088E+02 -0.43018782825E+02 -0.62492859126E+02  0.77392571695E+02  0.00000000000E+00 0. -1.
         -5    1    5    5    0  502  0.24948588115E+02  0.39975681704E+01  0.11321998924E+03  0.11610025221E+03  0.47000000000E+01 0.  1.
         11    1    6    6    0    0 -0.72968896979E+01  0.11544211876E+03  0.49358990510E+02  0.12576341808E+03  0.00000000000E+00 0. -1.
        -12    1    6    6    0    0  0.42489990384E+02  0.17438708753E+02  0.20595727943E+02  0.50335790997E+02  0.00000000000E+00 0.  1.
<mgrwt>
<rscale>  2 0.23603429E+03</rscale>
<asrwt>0</asrwt>
<pdfrwt beam="1">  1       21 0.44327518E-01 0.23889480E+03</pdfrwt>
<pdfrwt beam="2">  1       21 0.51902584E-01 0.23889480E+03</pdfrwt>
<totfact> 0.16768840E+04</totfact>
</mgrwt>
</event>
<event>
12    1  0.1039378E-001  0.2155283E+03  0.7546771E-02  0.1137605E+00
         21   -1    0    0  501  502  0.00000000000E+00  0.00000000000E+00  0.60804053826E+02  0.60804053826E+02  0.00000000000E+00 0. -1.
         21   -1    0    0  502  503 -0.00000000000E+00 -0.00000000000E+00 -0.18392498382E+04  0.18392498382E+04  0.00000000000E+00 0.  1.
         -6    2    1    2    0  503  0.70478328345E+02 -0.10582457344E+03 -0.16162276508E+04  0.16303000130E+04  0.17181466155E+03 0.  0.
        -24    2    3    3    0    0  0.10764939241E+03 -0.10988142157E+03 -0.13907241067E+04  0.14016691217E+04  0.83069051798E+02 0.  0.
          6    2    1    2  501    0 -0.70478328345E+02  0.10582457344E+03 -0.16221813360E+03  0.26975387909E+03  0.17402987475E+03 0.  0.
         24    2    5    5    0    0 -0.33935719146E+02  0.73655380488E+01 -0.13564871116E+03  0.16132155851E+03  0.80113595706E+02 0.  0.
          5    1    5    5  501    0 -0.36542609199E+02  0.98459035394E+02 -0.26569422438E+02  0.10843232058E+03  0.47000000000E+01 0. -1.
        -11    1    6    6    0    0 -0.27429330330E+02 -0.23505574414E+02 -0.19676302005E+02  0.41134377976E+02  0.00000000000E+00 0.  1.
         12    1    6    6    0    0 -0.65063888167E+01  0.30871112463E+02 -0.11597240915E+03  0.12018718054E+03  0.00000000000E+00 0. -1.
         -5    1    3    3    0  503 -0.37171064067E+02  0.40568481242E+01 -0.22550354410E+03  0.22863089122E+03  0.47000000000E+01 0.  1.
         11    1    4    4    0    0  0.46480147756E+02  0.26343545023E+01 -0.40109403383E+03  0.40378678524E+03  0.00000000000E+00 0. -1.
        -12    1    4    4    0    0  0.61169244656E+02 -0.11251577607E+03 -0.98963007287E+03  0.99788233650E+03  0.00000000000E+00 0.  1.
<mgrwt>
<rscale>  2 0.21508070E+03</rscale>
<asrwt>0</asrwt>
<pdfrwt beam="1">  1       21 0.93544693E-02 0.21552826E+03</pdfrwt>
<pdfrwt beam="2">  1       21 0.28296153E+00 0.21552826E+03</pdfrwt>
<totfact> 0.38084144E+03</totfact>
</mgrwt>
</event>
<event>
12    1  0.1039378E-001  0.1996544E+03  0.7546771E-02  0.1150783E+00
         21   -1    0    0  503  502  0.00000000000E+00  0.00000000000E+00  0.51479031317E+02  0.51479031317E+02  0.00000000000E+00 0.  1.
         21   -1    0    0  501  503 -0.00000000000E+00 -0.00000000000E+00 -0.76093088151E+03  0.76093088151E+03  0.00000000000E+00 0.  1.
          6    2    1    2  501    0  0.12969935372E+02  0.92939214402E+02 -0.36462236935E+03  0.41570584929E+03  0.17622702434E+03 0.  0.
         24    2    3    3    0    0 -0.10783472556E+01  0.11748045466E+03 -0.35912589412E+03  0.38651804433E+03  0.81375492059E+02 0.  0.
         -6    2    1    2    0  502 -0.12969935372E+02 -0.92939214402E+02 -0.34482948084E+03  0.39670406354E+03  0.17222318767E+03 0.  0.
        -24    2    5    5    0    0 -0.46611731381E+02 -0.12066544429E+03 -0.26468364343E+03  0.30534784034E+03  0.80293645774E+02 0.  0.
          5    1    3    3  501    0  0.14048282627E+02 -0.24541240262E+02 -0.54964752334E+01  0.29187804960E+02  0.47000000000E+01 0. -1.
        -11    1    4    4    0    0  0.42908278330E+01 -0.74795835828E+01 -0.82266498311E+02  0.82717181519E+02  0.00000000000E+00 0.  1.
         12    1    4    4    0    0 -0.53691750886E+01  0.12496003825E+03 -0.27685939581E+03  0.30380086281E+03  0.00000000000E+00 0. -1.
         -5    1    5    5    0  502  0.33641796009E+02  0.27726229887E+02 -0.80145837408E+02  0.91356223194E+02  0.47000000000E+01 0.  1.
         11    1    6    6    0    0 -0.46152833993E+02 -0.90105222082E+02 -0.25321565319E+03  0.27270350594E+03  0.00000000000E+00 0. -1.
        -12    1    6    6    0    0 -0.45889738731E+00 -0.30560222207E+02 -0.11467990243E+02  0.32644334400E+02  0.00000000000E+00 0.  1.
<mgrwt>
<rscale>  2 0.19876726E+03</rscale>
<asrwt>0</asrwt>
<pdfrwt beam="1">  1       21 0.79198507E-02 0.19965440E+03</pdfrwt>
<pdfrwt beam="2">  1       21 0.11706629E+00 0.19965440E+03</pdfrwt>
<totfact> 0.68313042E+04</totfact>
</mgrwt>
</event>
<event>
12    1  0.1039378E-001  0.2164220E+03  0.7546771E-02  0.1137099E+00
         21   -1    0    0  503  502  0.00000000000E+00  0.00000000000E+00  0.43175650248E+03  0.43175650248E+03  0.00000000000E+00 0.  1.
         21   -1    0    0  501  503 -0.00000000000E+00 -0.00000000000E+00 -0.30871312627E+03  0.30871312627E+03  0.00000000000E+00 0. -1.
          6    2    1    2  501    0  0.84111648986E+02  0.93239617956E+02 -0.23751841104E+03  0.32133080639E+03  0.17626711463E+03 0.  0.
         24    2    3    3    0    0  0.32892403868E+02  0.16448677092E+02 -0.26489244770E+02  0.90949256159E+02  0.78851873137E+02 0.  0.
         -6    2    1    2    0  502 -0.84111648986E+02 -0.93239617956E+02  0.36056178724E+03  0.41913882237E+03  0.17292817626E+03 0.  0.
        -24    2    5    5    0    0 -0.10114273445E+03 -0.21630004012E+02  0.29976786482E+03  0.32355647209E+03  0.64267472688E+02 0.  0.
          5    1    3    3  501    0  0.51219245118E+02  0.76790940865E+02 -0.21102916627E+03  0.23038155023E+03  0.47000000000E+01 0. -1.
        -11    1    4    4    0    0  0.43431289000E+01  0.44602470449E+02 -0.23853914147E+02  0.50766646126E+02  0.00000000000E+00 0.  1.
         12    1    4    4    0    0  0.28549274968E+02 -0.28153793357E+02 -0.26353306229E+01  0.40182610033E+02  0.00000000000E+00 0. -1.
         -5    1    5    5    0  502  0.17031085467E+02 -0.71609613944E+02  0.60793922424E+02  0.95582350281E+02  0.47000000000E+01 0.  1.
         13    1    6    6    0    0 -0.70815589802E+01  0.14981523354E+02  0.19076121687E+02  0.25268417802E+02  0.00000000000E+00 0. -1.
        -14    1    6    6    0    0 -0.94061175473E+02 -0.36611527366E+02  0.28069174313E+03  0.29828805428E+03  0.00000000000E+00 0.  1.
<mgrwt>
<rscale>  2 0.21574115E+03</rscale>
<asrwt>0</asrwt>
<pdfrwt beam="1">  1       21 0.66424077E-01 0.21642202E+03</pdfrwt>
<pdfrwt beam="2">  1       21 0.47494327E-01 0.21642202E+03</pdfrwt>
<totfact> 0.86709407E+03</totfact>
</mgrwt>
</event>
<event>
12    1  0.1039378E-001  0.2971841E+03  0.7546771E-02  0.1086831E+00
         21   -1    0    0  501  502  0.00000000000E+00  0.00000000000E+00  0.20668189219E+03  0.20668189219E+03  0.00000000000E+00 0. -1.
         21   -1    0    0  502  503 -0.00000000000E+00 -0.00000000000E+00 -0.57670431955E+03  0.57670431955E+03  0.00000000000E+00 0.  1.
         -6    2    1    2    0  503  0.10463566154E+03 -0.21585513452E+03 -0.38599188022E+03  0.48714283076E+03  0.17543188193E+03 0.  0.
        -24    2    3    3    0    0  0.27105028415E+02 -0.27490743574E+02 -0.78059171158E+02  0.11790471495E+03  0.79484992666E+02 0.  0.
          6    2    1    2  501    0 -0.10463566154E+03  0.21585513452E+03  0.15969452863E+02  0.29624338098E+03  0.17309840145E+03 0.  0.
         24    2    5    5    0    0 -0.70927978774E+02  0.13669672564E+03  0.77801006333E+02  0.19018918456E+03  0.80013476136E+02 0.  0.
          5    1    5    5  501    0 -0.33707682767E+02  0.79158408877E+02 -0.61831553471E+02  0.10605419642E+03  0.47000000000E+01 0. -1.
        -13    1    6    6    0    0  0.61117963044E+01  0.12211504671E+02 -0.12224498033E+02  0.18327936397E+02  0.00000000000E+00 0.  1.
         14    1    6    6    0    0 -0.77039775078E+02  0.12448522097E+03  0.90025504366E+02  0.17186124816E+03  0.00000000000E+00 0. -1.
         -5    1    3    3    0  503  0.77530633125E+02 -0.18836439094E+03 -0.30793270907E+03  0.36923811580E+03  0.47000000000E+01 0.  1.
         13    1    4    4    0    0 -0.10685795340E+02 -0.10762236078E+02  0.11656232349E+02  0.19127982121E+02  0.00000000000E+00 0. -1.
        -14    1    4    4    0    0  0.37790823754E+02 -0.16728507496E+02 -0.89715403506E+02  0.98776732834E+02  0.00000000000E+00 0.  1.
<mgrwt>
<rscale>  2 0.29684066E+03</rscale>
<asrwt>0</asrwt>
<pdfrwt beam="1">  1       21 0.31797214E-01 0.29718413E+03</pdfrwt>
<pdfrwt beam="2">  1       21 0.88723742E-01 0.29718413E+03</pdfrwt>
<totfact> 0.97230688E+03</totfact>
</mgrwt>
</event>
<event>
12    1  0.1039378E-001  0.1949951E+03  0.7546771E-02  0.1154799E+00
         21   -1    0    0  503  502  0.00000000000E+00  0.00000000000E+00  0.17350983171E+03  0.17350983171E+03  0.00000000000E+00 0.  1.
         21   -1    0    0  501  503 -0.00000000000E+00 -0.00000000000E+00 -0.41931599367E+03  0.41931599367E+03  0.00000000000E+00 0.  1.
          6    2    1    2  501    0  0.51659584526E+02  0.61925933269E+02  0.84448141308E+02  0.20930141217E+03  0.17370106125E+03 0.  0.
         24    2    3    3    0    0  0.24331560431E+01 -0.30332459280E+02  0.25998182589E+02  0.89412547251E+02  0.79954485639E+02 0.  0.
         -6    2    1    2    0  502 -0.51659584526E+02 -0.61925933269E+02 -0.33025430327E+03  0.38352441321E+03  0.17753742372E+03 0.  0.
        -24    2    5    5    0    0 -0.10126038697E+03 -0.37850749673E+02 -0.19018984798E+03  0.23292562271E+03  0.79973884606E+02 0.  0.
          5    1    3    3  501    0  0.49226428483E+02  0.92258392549E+02  0.58449958720E+02  0.11988886492E+03  0.47000000000E+01 0. -1.
        -11    1    4    4    0    0 -0.69592991240E+01 -0.53026800513E+01  0.51635968899E+02  0.52371972888E+02  0.00000000000E+00 0.  1.
         12    1    4    4    0    0  0.93924551671E+01 -0.25029779228E+02 -0.25637786310E+02  0.37040574363E+02  0.00000000000E+00 0. -1.
         -5    1    5    5    0  502  0.49600802442E+02 -0.24075183597E+02 -0.14006445528E+03  0.15059879051E+03  0.47000000000E+01 0.  1.
         13    1    6    6    0    0 -0.63850203569E+02 -0.47277093311E+02 -0.67296971495E+02  0.10411942384E+03  0.00000000000E+00 0. -1.
        -14    1    6    6    0    0 -0.37410183399E+02  0.94263436386E+01 -0.12289287649E+03  0.12880619887E+03  0.00000000000E+00 0.  1.
<mgrwt>
<rscale>  2 0.19411757E+03</rscale>
<asrwt>0</asrwt>
<pdfrwt beam="1">  1       21 0.26693820E-01 0.19499505E+03</pdfrwt>
<pdfrwt beam="2">  1       21 0.64510153E-01 0.19499505E+03</pdfrwt>
<totfact> 0.29561869E+04</totfact>
</mgrwt>
</event>
<event>
12    1  0.1039378E-001  0.2230926E+03  0.7546771E-02  0.1131668E+00
         21   -1    0    0  503  502  0.00000000000E+00  0.00000000000E+00  0.41929851291E+03  0.41929851291E+03  0.00000000000E+00 0. -1.
         21   -1    0    0  501  503 -0.00000000000E+00 -0.00000000000E+00 -0.13215347020E+03  0.13215347020E+03  0.00000000000E+00 0. -1.
          6    2    1    2  501    0  0.25803935658E+02  0.13880437797E+03  0.23231883501E+03  0.32209058463E+03  0.17273623004E+03 0.  0.
         24    2    3    3    0    0 -0.47470927931E+02  0.10378035236E+03  0.12849442699E+03  0.19019105581E+03  0.81473734454E+02 0.  0.
         -6    2    1    2    0  502 -0.25803935658E+02 -0.13880437797E+03  0.54826207697E+02  0.22936139848E+03  0.17224470854E+03 0.  0.
        -24    2    5    5    0    0 -0.63960313508E+02 -0.96011050695E+02  0.84641184918E+02  0.16456787336E+03  0.81298285341E+02 0.  0.
          5    1    3    3  501    0  0.73274863589E+02  0.35024025612E+02  0.10382440802E+03  0.13189952882E+03  0.47000000000E+01 0. -1.
        -11    1    4    4    0    0  0.16181169422E+02  0.38404545882E+00  0.29015655744E+02  0.33224780105E+02  0.00000000000E+00 0.  1.
         12    1    4    4    0    0 -0.63652097353E+02  0.10339630690E+03  0.99478771248E+02  0.15696627570E+03  0.00000000000E+00 0. -1.
         -5    1    5    5    0  502  0.38156377850E+02 -0.42793327277E+02 -0.29814977220E+02  0.64793525114E+02  0.47000000000E+01 0.  1.
         13    1    6    6    0    0 -0.30429220232E+02 -0.92747668973E+02  0.33252128791E+02  0.10312018044E+03  0.00000000000E+00 0. -1.
        -14    1    6    6    0    0 -0.33531093276E+02 -0.32633817216E+01  0.51389056127E+02  0.61447692928E+02  0.00000000000E+00 0.  1.
<mgrwt>
<rscale>  2 0.22299744E+03</rscale>
<asrwt>0</asrwt>
<pdfrwt beam="1">  1       21 0.64507463E-01 0.22309259E+03</pdfrwt>
<pdfrwt beam="2">  1       21 0.20331303E-01 0.22309259E+03</pdfrwt>
<totfact> 0.48885095E+04</totfact>
</mgrwt>
</event>
<event>
12    1  0.1039378E-001  0.2051734E+03  0.7546771E-02  0.1145656E+00
         21   -1    0    0  503  502  0.00000000000E+00  0.00000000000E+00  0.28500089441E+03  0.28500089441E+03  0.00000000000E+00 0. -1.
         21   -1    0    0  501  503 -0.00000000000E+00 -0.00000000000E+00 -0.47550870365E+03  0.47550870365E+03  0.00000000000E+00 0.  1.
          6    2    1    2  501    0 -0.75207912373E+02 -0.79260358282E+02 -0.41125517453E+03  0.45913686474E+03  0.17244537543E+03 0.  0.
         24    2    3    3    0    0 -0.10480662701E+02  0.13460710064E+02 -0.14035822026E+03  0.16554861021E+03  0.86109682042E+02 0.  0.
         -6    2    1    2    0  502  0.75207912373E+02  0.79260358282E+02  0.22074736529E+03  0.30137273332E+03  0.17365969776E+03 0.  0.
        -24    2    5    5    0    0  0.11995984868E+03  0.64531535611E+02  0.17156903986E+03  0.23310655053E+03  0.79674613759E+02 0.  0.
          5    1    3    3  501    0 -0.64727249672E+02 -0.92721068346E+02 -0.27089695427E+03  0.29358825453E+03  0.47000000000E+01 0. -1.
        -11    1    4    4    0    0  0.26061711920E+02  0.33745141707E+02 -0.93478528840E+02  0.10274328577E+03  0.00000000000E+00 0.  1.
         12    1    4    4    0    0 -0.36542374621E+02 -0.20284431643E+02 -0.46879691421E+02  0.62805324438E+02  0.00000000000E+00 0. -1.
         -5    1    5    5    0  502 -0.44751936306E+02  0.14728822672E+02  0.49178325426E+02  0.68266182786E+02  0.47000000000E+01 0.  1.
         11    1    6    6    0    0  0.10513116978E+03  0.43793812791E+02  0.82952206896E+02  0.14089545602E+03  0.00000000000E+00 0. -1.
        -12    1    6    6    0    0  0.14828678897E+02  0.20737722820E+02  0.88616832969E+02  0.92211094511E+02  0.00000000000E+00 0.  1.
<mgrwt>
<rscale>  2 0.20491622E+03</rscale>
<asrwt>0</asrwt>
<pdfrwt beam="1">  1       21 0.43846292E-01 0.20517340E+03</pdfrwt>
<pdfrwt beam="2">  1       21 0.73155185E-01 0.20517340E+03</pdfrwt>
<totfact> 0.83248412E+03</totfact>
</mgrwt>
</event>
<event>
12    1  0.1039378E-001  0.2034966E+03  0.7546771E-02  0.1149027E+00
         21   -1    0    0  503  502  0.00000000000E+00  0.00000000000E+00  0.69807147320E+02  0.69807147320E+02  0.00000000000E+00 0. -1.
         21   -1    0    0  501  503 -0.00000000000E+00 -0.00000000000E+00 -0.58067224698E+03  0.58067224698E+03  0.00000000000E+00 0. -1.
          6    2    1    2  501    0  0.93153732568E+02  0.17851899153E+01 -0.31816264766E+03  0.37767489905E+03  0.18091449419E+03 0.  0.
         24    2    3    3    0    0  0.92875523623E+02  0.52500543272E+02 -0.14382900283E+03  0.19605322031E+03  0.79799205552E+02 0.  0.
         -6    2    1    2    0  502 -0.93153732568E+02 -0.17851899153E+01 -0.19270245200E+03  0.27280449526E+03  0.16913678734E+03 0.  0.
        -24    2    5    5    0    0 -0.11360310988E+02 -0.47865676736E+02 -0.12322478481E+03  0.15591646628E+03  0.81886611795E+02 0.  0.
          5    1    3    3  501    0  0.27820894436E+00 -0.50715353357E+02 -0.17433364483E+03  0.18162167873E+03  0.47000000000E+01 0. -1.
        -13    1    4    4    0    0  0.40718753155E+02 -0.18669700723E+02 -0.43438349028E+02  0.62397634169E+02  0.00000000000E+00 0.  1.
         14    1    4    4    0    0  0.52156770468E+02  0.71170243995E+02 -0.10039065381E+03  0.13365558614E+03  0.00000000000E+00 0. -1.
         -5    1    5    5    0  502 -0.81793421580E+02  0.46080486821E+02 -0.69477667187E+02  0.11688802897E+03  0.47000000000E+01 0.  1.
         13    1    6    6    0    0 -0.40799689749E+02 -0.31483353023E+02 -0.10647701158E+03  0.11829273095E+03  0.00000000000E+00 0. -1.
        -14    1    6    6    0    0  0.29439378762E+02 -0.16382323713E+02 -0.16747773234E+02  0.37623735333E+02  0.00000000000E+00 0.  1.
<mgrwt>
<rscale>  2 0.20084640E+03</rscale>
<asrwt>0</asrwt>
<pdfrwt beam="1">  1       21 0.10739561E-01 0.20349658E+03</pdfrwt>
<pdfrwt beam="2">  1       21 0.89334194E-01 0.20349658E+03</pdfrwt>
<totfact> 0.76055136E+04</totfact>
</mgrwt>
</event>
<event>
12    1  0.1039378E-001  0.1945539E+03  0.7546771E-02  0.1155311E+00
         21   -1    0    0  503  502  0.00000000000E+00  0.00000000000E+00  0.14816508850E+03  0.14816508850E+03  0.00000000000E+00 0. -1.
         21   -1    0    0  501  503 -0.00000000000E+00 -0.00000000000E+00 -0.26693005123E+03  0.26693005123E+03  0.00000000000E+00 0. -1.
          6    2    1    2  501    0 -0.40074457598E+02  0.76486467340E+02 -0.11078001356E+03  0.22037744604E+03  0.16981715308E+03 0.  0.
         24    2    3    3    0    0 -0.63455887884E+01  0.20285877125E+02  0.99071020921E+01  0.82959787724E+02  0.79576330649E+02 0.  0.
         -6    2    1    2    0  502  0.40074457598E+02 -0.76486467340E+02 -0.79849491652E+01  0.19471769370E+03  0.17434184520E+03 0.  0.
        -24    2    5    5    0    0 -0.37925886449E+02 -0.98512557799E+01 -0.17746638716E+02  0.91559147399E+02  0.80825207598E+02 0.  0.
          5    1    3    3  501    0 -0.33728868810E+02  0.56200590215E+02 -0.12068711565E+03  0.13741765831E+03  0.47000000000E+01 0. -1.
        -11    1    4    4    0    0 -0.38351230595E+02  0.26132754941E+02  0.17416907118E+02  0.49569006673E+02  0.00000000000E+00 0.  1.
         12    1    4    4    0    0  0.32005641807E+02 -0.58468778160E+01 -0.75098050255E+01  0.33390781051E+02  0.00000000000E+00 0. -1.
         -5    1    5    5    0  502  0.78000344047E+02 -0.66635211560E+02  0.97616895505E+01  0.10315854630E+03  0.47000000000E+01 0.  1.
         13    1    6    6    0    0 -0.86508183816E+01 -0.26067022296E+02  0.25089790967E+02  0.37199783881E+02  0.00000000000E+00 0. -1.
        -14    1    6    6    0    0 -0.29275068067E+02  0.16215766516E+02 -0.42836429683E+02  0.54359363517E+02  0.00000000000E+00 0.  1.
<mgrwt>
<rscale>  2 0.19353491E+03</rscale>
<asrwt>0</asrwt>
<pdfrwt beam="1">  1       21 0.22794629E-01 0.19455390E+03</pdfrwt>
<pdfrwt beam="2">  1       21 0.41066161E-01 0.19455390E+03</pdfrwt>
<totfact> 0.10302721E+05</totfact>
</mgrwt>
</event>
<event>
12    1  0.1039378E-001  0.1959094E+03  0.7546771E-02  0.1153238E+00
         21   -1    0    0  501  502  0.00000000000E+00  0.00000000000E+00  0.19650276269E+03  0.19650276269E+03  0.00000000000E+00 0. -1.
         21   -1    0    0  502  503 -0.00000000000E+00 -0.00000000000E+00 -0.44763425367E+03  0.44763425367E+03  0.00000000000E+00 0.  1.
         -6    2    1    2    0  503 -0.27217675986E+02  0.88046358820E+02 -0.36737058735E+03  0.41634319854E+03  0.17288015308E+03 0.  0.
        -24    2    3    3    0    0 -0.67854522325E+02  0.34583601343E+02 -0.15898955599E+03  0.19735834987E+03  0.88726420334E+02 0.  0.
          6    2    1    2  501    0  0.27217675986E+02 -0.88046358820E+02  0.11623909637E+03  0.22779381783E+03  0.17287432640E+03 0.  0.
         24    2    5    5    0    0 -0.56322052011E+00 -0.29645475563E+02  0.13842024472E+03  0.15926254965E+03  0.72974133318E+02 0.  0.
          5    1    5    5  501    0  0.27780896506E+02 -0.58400883257E+02 -0.22181148351E+02  0.68531268178E+02  0.47000000000E+01 0. -1.
        -13    1    6    6    0    0 -0.22483995683E+02 -0.23670103421E+02  0.19152603200E+02  0.37850047122E+02  0.00000000000E+00 0.  1.
         14    1    6    6    0    0  0.21920775163E+02 -0.59753721420E+01  0.11926764152E+03  0.12141250253E+03  0.00000000000E+00 0. -1.
         -5    1    3    3    0  503  0.40636846339E+02  0.53462757476E+02 -0.20838103136E+03  0.21898484867E+03  0.47000000000E+01 0.  1.
         13    1    4    4    0    0  0.18855161598E+02 -0.70968436317E+01 -0.35472029294E+02  0.40793959978E+02  0.00000000000E+00 0. -1.
        -14    1    4    4    0    0 -0.86709683923E+02  0.41680444975E+02 -0.12351752670E+03  0.15656438989E+03  0.00000000000E+00 0.  1.
<mgrwt>
<rscale>  2 0.19590816E+03</rscale>
<asrwt>0</asrwt>
<pdfrwt beam="1">  1       21 0.30231194E-01 0.19590944E+03</pdfrwt>
<pdfrwt beam="2">  1       21 0.68866808E-01 0.19590944E+03</pdfrwt>
<totfact> 0.20124132E+04</totfact>
</mgrwt>
</event>
<event>
12    1  0.1039378E-001  0.1856171E+03  0.7546771E-02  0.1162527E+00
         21   -1    0    0  503  502  0.00000000000E+00  0.00000000000E+00  0.62381176437E+03  0.62381176437E+03  0.00000000000E+00 0. -1.
         21   -1    0    0  501  503 -0.00000000000E+00 -0.00000000000E+00 -0.84279787766E+02  0.84279787766E+02  0.00000000000E+00 0. -1.
          6    2    1    2  501    0  0.29200272609E-01 -0.67132905484E+02  0.47775376630E+03  0.51246366731E+03  0.17281065145E+03 0.  0.
         24    2    3    3    0    0 -0.51278213597E+02 -0.64161935870E+02  0.41613645592E+03  0.43208916690E+03  0.82372865691E+02 0.  0.
         -6    2    1    2    0  502 -0.29200272609E-01  0.67132905484E+02  0.61778210310E+02  0.19562788483E+03  0.17305170962E+03 0.  0.
        -24    2    5    5    0    0  0.65782161710E+02  0.48904983207E+02  0.29016043310E+02  0.11974084968E+03  0.82322233518E+02 0.  0.
          5    1    3    3  501    0  0.51307413870E+02 -0.29709696131E+01  0.61617310374E+02  0.80374500410E+02  0.47000000000E+01 0. -1.
        -13    1    4    4    0    0 -0.36871238627E+02  0.76761031014E+00  0.65212278122E+02  0.74918079803E+02  0.00000000000E+00 0.  1.
         14    1    4    4    0    0 -0.14406974970E+02 -0.64929546181E+02  0.35092417780E+03  0.35717108710E+03  0.00000000000E+00 0. -1.
         -5    1    5    5    0  502 -0.65811361983E+02  0.18227922276E+02  0.32762167000E+02  0.75887035145E+02  0.47000000000E+01 0.  1.
         13    1    6    6    0    0 -0.14351610747E+02 -0.89266429761E+01  0.59203807711E+00  0.16911658551E+02  0.00000000000E+00 0. -1.
        -14    1    6    6    0    0  0.80133772457E+02  0.57831626183E+02  0.28424005233E+02  0.10282919113E+03  0.00000000000E+00 0.  1.
<mgrwt>
<rscale>  2 0.18556093E+03</rscale>
<asrwt>0</asrwt>
<pdfrwt beam="1">  1       21 0.95971038E-01 0.18561714E+03</pdfrwt>
<pdfrwt beam="2">  1       21 0.12966122E-01 0.18561714E+03</pdfrwt>
<totfact> 0.46358139E+04</totfact>
</mgrwt>
</event>
<event>
12    1  0.1039378E-001  0.2035284E+03  0.7546771E-02  0.1146872E+00
         21   -1    0    0  501  502  0.00000000000E+00  0.00000000000E+00  0.34178598261E+03  0.34178598261E+03  0.00000000000E+00 0.  1.
         21   -1    0    0  502  503 -0.00000000000E+00 -0.00000000000E+00 -0.12349617225E+03  0.12349617225E+03  0.00000000000E+00 0.  1.
         -6    2    1    2    0  503  0.60357573891E+02 -0.88754209652E+02  0.76017186635E+02  0.21726121833E+03  0.17292622089E+03 0.  0.
        -24    2    3    3    0    0  0.88323594533E+02 -0.63438551106E+02  0.11107304841E+01  0.13326093231E+03  0.77017759259E+02 0.  0.
          6    2    1    2  501    0 -0.60357573891E+02  0.88754209652E+02  0.14227262372E+03  0.24802093653E+03  0.17248924326E+03 0.  0.
         24    2    5    5    0    0 -0.79461676296E+02  0.11684421010E+03  0.10153723859E+03  0.19477174446E+03  0.87518536232E+02 0.  0.
          5    1    5    5  501    0  0.19104102405E+02 -0.28090000453E+02  0.40735385134E+02  0.53249192071E+02  0.47000000000E+01 0. -1.
        -13    1    6    6    0    0  0.17115657572E+02  0.25023933096E+02  0.33382463947E+02  0.45094698812E+02  0.00000000000E+00 0.  1.
         14    1    6    6    0    0 -0.96577333868E+02  0.91820277008E+02  0.68154774639E+02  0.14967704565E+03  0.00000000000E+00 0. -1.
         -5    1    3    3    0  503 -0.27966020642E+02 -0.25315658545E+02  0.74906456150E+02  0.84000286018E+02  0.47000000000E+01 0.  1.
         11    1    4    4    0    0  0.33280857817E+02  0.13380610569E+02 -0.12062398634E+02  0.37843859436E+02  0.00000000000E+00 0. -1.
        -12    1    4    4    0    0  0.55042736716E+02 -0.76819161676E+02  0.13173129118E+02  0.95417072878E+02  0.00000000000E+00 0.  1.
<mgrwt>
<rscale>  2 0.20343559E+03</rscale>
<asrwt>0</asrwt>
<pdfrwt beam="1">  1       21 0.52582458E-01 0.20352844E+03</pdfrwt>
<pdfrwt beam="2">  1       21 0.18999411E-01 0.20352844E+03</pdfrwt>
<totfact> 0.86701932E+04</totfact>
</mgrwt>
</event>
<event>
11    1  0.1039378E-001  0.1741805E+03  0.7546771E-02  0.1173925E+00
         21   -1    0    0  501  502  0.00000000000E+00  0.00000000000E+00  0.33743737701E+03  0.33743737701E+03  0.00000000000E+00 0. -1.
         21   -1    0    0  502  503 -0.00000000000E+00 -0.00000000000E+00 -0.91551828631E+02  0.91551828631E+02  0.00000000000E+00 0. -1.
         -6    2    1    2    0  503  0.93280800747E-01 -0.41146692521E+01  0.87790587381E+02  0.19375984732E+03  0.17268107017E+03 0.  0.
          6    2    1    2  501    0 -0.93280800747E-01  0.41146692521E+01  0.15809496100E+03  0.23522935832E+03  0.17413183258E+03 0.  0.
         24    2    4    4    0    0 -0.71628950885E+02  0.13034929488E+01  0.72900051078E+02  0.12384929959E+03  0.69941588939E+02 0.  0.
          5    1    4    4  501    0  0.71535670084E+02  0.28111763034E+01  0.85194909919E+02  0.11138005873E+03  0.47000000000E+01 0. -1.
        -13    1    5    5    0    0 -0.15071596724E+02  0.87962166931E+01 -0.12272994009E+02  0.21334311282E+02  0.00000000000E+00 0.  1.
         14    1    5    5    0    0 -0.56557354161E+02 -0.74927237443E+01  0.85173045086E+02  0.10251498831E+03  0.00000000000E+00 0. -1.
         -5    1    3    3    0  503  0.74940901783E+02 -0.35209645687E+02  0.62567889007E+02  0.10388786572E+03  0.47000000000E+01 0.  1.
         13    1    3    3    0    0 -0.45356547777E+02  0.25322167959E+02  0.21597664542E+01  0.51991280110E+02  0.00000000000E+00 0. -1.
        -14    1    3    3    0    0 -0.29491073205E+02  0.57728084752E+01  0.23062931920E+02  0.37880701488E+02  0.00000000000E+00 0.  1.
<mgrwt>
<rscale>  2 0.17381674E+03</rscale>
<asrwt>0</asrwt>
<pdfrwt beam="1">  1       21 0.51913442E-01 0.17418046E+03</pdfrwt>
<pdfrwt beam="2">  1       21 0.14084897E-01 0.17418046E+03</pdfrwt>
<totfact> 0.15585841E+05</totfact>
</mgrwt>
</event>
<event>
11    1  0.1039378E-001  0.1739431E+03  0.7546771E-02  0.1173817E+00
         21   -1    0    0  503  502  0.00000000000E+00  0.00000000000E+00  0.24018072634E+03  0.24018072634E+03  0.00000000000E+00 0. -1.
         21   -1    0    0  501  503 -0.00000000000E+00 -0.00000000000E+00 -0.17547022444E+03  0.17547022444E+03  0.00000000000E+00 0. -1.
          6    2    1    2  501    0  0.13885129945E+02 -0.18789625663E+02 -0.78081759149E+02  0.19066454498E+03  0.17236693631E+03 0.  0.
         24    2    3    3    0    0 -0.31403005931E+02  0.34671496918E+02 -0.57435871864E+02  0.11746994449E+03  0.91170428330E+02 0.  0.
         -6    2    1    2    0  502 -0.13885129945E+02  0.18789625663E+02  0.14279226106E+03  0.22498640580E+03  0.17228872892E+03 0.  0.
          5    1    3    3  501    0  0.45288135876E+02 -0.53461122581E+02 -0.20645887285E+02  0.73194600488E+02  0.47000000000E+01 0. -1.
        -13    1    4    4    0    0 -0.24326462272E+02 -0.17600427956E+02  0.10187090962E+02  0.31706918065E+02  0.00000000000E+00 0.  1.
         14    1    4    4    0    0 -0.70765436591E+01  0.52271924874E+02 -0.67622962827E+02  0.85763026426E+02  0.00000000000E+00 0. -1.
         -5    1    5    5    0  502 -0.26817993762E+02  0.69330920234E+02  0.10626336787E+02  0.75239552919E+02  0.47000000000E+01 0.  1.
         13    1    5    5    0    0  0.24363083368E+02 -0.44436928620E+02  0.71044698380E+02  0.87267116512E+02  0.00000000000E+00 0. -1.
        -14    1    5    5    0    0 -0.11430219551E+02 -0.61043659502E+01  0.61121225890E+02  0.62479736370E+02  0.00000000000E+00 0.  1.
<mgrwt>
<rscale>  2 0.17392374E+03</rscale>
<asrwt>0</asrwt>
<pdfrwt beam="1">  1       21 0.36950881E-01 0.17394312E+03</pdfrwt>
<pdfrwt beam="2">  1       21 0.26995419E-01 0.17394312E+03</pdfrwt>
<totfact> 0.93022937E+04</totfact>
</mgrwt>
</event>
<event>
12    1  0.1039378E-001  0.2292624E+03  0.7546771E-02  0.1128357E+00
         21   -1    0    0  503  502  0.00000000000E+00  0.00000000000E+00  0.37722811761E+02  0.37722811761E+02  0.00000000000E+00 0. -1.
         21   -1    0    0  501  503 -0.00000000000E+00 -0.00000000000E+00 -0.15841567504E+04  0.15841567504E+04  0.00000000000E+00 0. -1.
          6    2    1    2  501    0  0.12725219665E+02 -0.13836228244E+03 -0.10731370965E+04  0.10959792300E+04  0.17389994898E+03 0.  0.
         24    2    3    3    0    0  0.18828448752E+02 -0.69313656885E+02 -0.28838671316E+03  0.30815931640E+03  0.81463945650E+02 0.  0.
         -6    2    1    2    0  502 -0.12725219665E+02  0.13836228244E+03 -0.47329684216E+03  0.52590033220E+03  0.18236010031E+03 0.  0.
        -24    2    5    5    0    0  0.47864328404E+02  0.11113470855E+03 -0.21658496831E+03  0.26069190418E+03  0.80058122813E+02 0.  0.
          5    1    3    3  501    0 -0.61032290870E+01 -0.69048625559E+02 -0.78475038334E+03  0.78781991359E+03  0.47000000000E+01 0. -1.
        -11    1    4    4    0    0  0.28335228061E+02  0.75583586489E+01 -0.56165864389E+02  0.63361015280E+02  0.00000000000E+00 0.  1.
         12    1    4    4    0    0 -0.95067793090E+01 -0.76872015534E+02 -0.23222084877E+03  0.24479830112E+03  0.00000000000E+00 0. -1.
         -5    1    5    5    0  502 -0.60589548069E+02  0.27227573891E+02 -0.25671187385E+03  0.26520842802E+03  0.47000000000E+01 0.  1.
         11    1    6    6    0    0  0.54206847234E+02  0.27072205979E+02 -0.97332334985E+02  0.11465107962E+03  0.00000000000E+00 0. -1.
        -12    1    6    6    0    0 -0.63425188300E+01  0.84062502574E+02 -0.11925263333E+03  0.14604082456E+03  0.00000000000E+00 0.  1.
<mgrwt>
<rscale>  2 0.22757633E+03</rscale>
<asrwt>0</asrwt>
<pdfrwt beam="1">  1       21 0.58035092E-02 0.22926242E+03</pdfrwt>
<pdfrwt beam="2">  1       21 0.24371644E+00 0.22926242E+03</pdfrwt>
<totfact> 0.14657141E+04</totfact>
</mgrwt>
</event>
<event>
12    1  0.1039378E-001  0.1853300E+03  0.7546771E-02  0.1163015E+00
         21   -1    0    0  503  502  0.00000000000E+00  0.00000000000E+00  0.16407789235E+03  0.16407789235E+03  0.00000000000E+00 0. -1.
         21   -1    0    0  501  503 -0.00000000000E+00 -0.00000000000E+00 -0.21439312321E+03  0.21439312321E+03  0.00000000000E+00 0. -1.
          6    2    1    2  501    0 -0.56762786834E+02  0.25423776851E+02 -0.57718121480E+02  0.19299322281E+03  0.17333960916E+03 0.  0.
         24    2    3    3    0    0 -0.12756486105E+02 -0.51712952694E+02 -0.38747227636E+02  0.10206130123E+03  0.77962838233E+02 0.  0.
         -6    2    1    2    0  502  0.56762786834E+02 -0.25423776851E+02  0.74028906239E+01  0.18547779275E+03  0.17458186165E+03 0.  0.
        -24    2    5    5    0    0 -0.70280469970E+01  0.43225176763E+02  0.18609633744E+01  0.91484429847E+02  0.80300238910E+02 0.  0.
          5    1    3    3  501    0 -0.44006300728E+02  0.77136729546E+02 -0.18970893844E+02  0.90931921579E+02  0.47000000000E+01 0. -1.
        -13    1    4    4    0    0 -0.32872521725E+01 -0.87228737767E+01  0.23809034921E+02  0.25568822766E+02  0.00000000000E+00 0.  1.
         14    1    4    4    0    0 -0.94692339330E+01 -0.42990078918E+02 -0.62556262557E+02  0.76492478465E+02  0.00000000000E+00 0. -1.
         -5    1    5    5    0  502  0.63790833831E+02 -0.68648953614E+02  0.55419272496E+01  0.93993362908E+02  0.47000000000E+01 0.  1.
         11    1    6    6    0    0 -0.98617158387E+01  0.19271664945E+02  0.40506911654E+02  0.45928862394E+02  0.00000000000E+00 0. -1.
        -12    1    6    6    0    0  0.28336688418E+01  0.23953511818E+02 -0.38645948280E+02  0.45555567453E+02  0.00000000000E+00 0.  1.
<mgrwt>
<rscale>  2 0.18503687E+03</rscale>
<asrwt>0</asrwt>
<pdfrwt beam="1">  1       21 0.25242753E-01 0.18533000E+03</pdfrwt>
<pdfrwt beam="2">  1       21 0.32983557E-01 0.18533000E+03</pdfrwt>
<totfact> 0.13191163E+05</totfact>
</mgrwt>
</event>
<event>
12    1  0.1039378E-001  0.2249050E+03  0.7546771E-02  0.1130568E+00
         21   -1    0    0  501  502  0.00000000000E+00  0.00000000000E+00  0.43986205616E+02  0.43986205616E+02  0.00000000000E+00 0. -1.
         21   -1    0    0  502  503 -0.00000000000E+00 -0.00000000000E+00 -0.15197755004E+04  0.15197755004E+04  0.00000000000E+00 0. -1.
         -6    2    1    2    0  503 -0.99196406499E+02  0.10017624601E+03 -0.11297799098E+04  0.11519483004E+04  0.17523422852E+03 0.  0.
        -24    2    3    3    0    0 -0.89440964135E+02  0.61872821826E+02 -0.10787562454E+04  0.10872348915E+04  0.80850109303E+02 0.  0.
          6    2    1    2  501    0  0.99196406499E+02 -0.10017624601E+03 -0.34600938493E+03  0.41181340558E+03  0.17318365750E+03 0.  0.
         24    2    5    5    0    0  0.93201791653E+02 -0.12268736826E+03 -0.19890931326E+03  0.26280599933E+03  0.75916494148E+02 0.  0.
          5    1    5    5  501    0  0.59946148468E+01  0.22511122247E+02 -0.14710007167E+03  0.14900740625E+03  0.47000000000E+01 0. -1.
        -11    1    6    6    0    0  0.35913833077E+02 -0.10575103733E+03 -0.12159858455E+03  0.16510390991E+03  0.00000000000E+00 0.  1.
         12    1    6    6    0    0  0.57287958575E+02 -0.16936330927E+02 -0.77310728713E+02  0.97702089420E+02  0.00000000000E+00 0. -1.
         -5    1    3    3    0  503 -0.97554423642E+01  0.38303424183E+02 -0.51023664399E+02  0.64713408877E+02  0.47000000000E+01 0.  1.
         11    1    4    4    0    0 -0.50167644301E+02 -0.12122625398E+02 -0.43488659154E+03  0.43793846380E+03  0.00000000000E+00 0. -1.
        -12    1    4    4    0    0 -0.39273319834E+02  0.73995447224E+02 -0.64386965388E+03  0.64929642771E+03  0.00000000000E+00 0.  1.
<mgrwt>
<rscale>  2 0.22450540E+03</rscale>
<asrwt>0</asrwt>
<pdfrwt beam="1">  1       21 0.67671086E-02 0.22490496E+03</pdfrwt>
<pdfrwt beam="2">  1       21 0.23381161E+00 0.22490496E+03</pdfrwt>
<totfact> 0.12946971E+04</totfact>
</mgrwt>
</event>
<event>
11    1  0.1039378E-001  0.1900737E+03  0.7546771E-02  0.1158525E+00
         21   -1    0    0  501  502  0.00000000000E+00  0.00000000000E+00  0.42131649816E+03  0.42131649816E+03  0.00000000000E+00 0.  1.
         21   -1    0    0  502  503 -0.00000000000E+00 -0.00000000000E+00 -0.11225736712E+03  0.11225736712E+03  0.00000000000E+00 0.  1.
         -6    2    1    2    0  503 -0.15612135285E+01 -0.78037521342E+02  0.24433536431E+02  0.19163769438E+03  0.17330815353E+03 0.  0.
          6    2    1    2  501    0  0.15612135285E+01  0.78037521342E+02  0.28462559461E+03  0.34193617089E+03  0.17267403896E+03 0.  0.
         24    2    4    4    0    0 -0.18945008675E+02  0.28800457463E+01  0.24962050509E+03  0.25639905860E+03  0.55343226069E+02 0.  0.
          5    1    4    4  501    0  0.20506222204E+02  0.75157475595E+02  0.35005089523E+02  0.85537112293E+02  0.47000000000E+01 0. -1.
        -13    1    5    5    0    0 -0.98014895262E+01  0.28833560701E+02  0.11278746290E+03  0.11682660317E+03  0.00000000000E+00 0.  1.
         14    1    5    5    0    0 -0.91435191492E+01 -0.25953514954E+02  0.13683304218E+03  0.13957245543E+03  0.00000000000E+00 0. -1.
         -5    1    3    3    0  503  0.57912447921E+01 -0.12829898187E+03  0.29292798857E+02  0.13181170407E+03  0.47000000000E+01 0.  1.
         11    1    3    3    0    0 -0.12892258648E+02  0.24699247835E+02  0.10170316506E+02  0.29659711977E+02  0.00000000000E+00 0. -1.
        -12    1    3    3    0    0  0.55398003279E+01  0.25562212696E+02 -0.15029578932E+02  0.30166278333E+02  0.00000000000E+00 0.  1.
<mgrwt>
<rscale>  2 0.18992903E+03</rscale>
<asrwt>0</asrwt>
<pdfrwt beam="1">  1       21 0.64817922E-01 0.19007369E+03</pdfrwt>
<pdfrwt beam="2">  1       21 0.17270364E-01 0.19007369E+03</pdfrwt>
<totfact> 0.66527837E+04</totfact>
</mgrwt>
</event>
<event>
12    1  0.1039378E-001  0.2234417E+03  0.7546771E-02  0.1131485E+00
         21   -1    0    0  501  502  0.00000000000E+00  0.00000000000E+00  0.30091603297E+03  0.30091603297E+03  0.00000000000E+00 0.  1.
         21   -1    0    0  502  503 -0.00000000000E+00 -0.00000000000E+00 -0.63992584814E+03  0.63992584814E+03  0.00000000000E+00 0.  1.
         -6    2    1    2    0  503 -0.27841022435E+02  0.13708664608E+03 -0.57469786262E+03  0.61660671605E+03  0.17423644255E+03 0.  0.
        -24    2    3    3    0    0  0.37416607407E+01 -0.18962345678E+01 -0.18320182046E+03  0.19994744516E+03  0.79990487407E+02 0.  0.
          6    2    1    2  501    0  0.27841022435E+02 -0.13708664608E+03  0.23568804745E+03  0.32423516506E+03  0.17323889716E+03 0.  0.
         24    2    5    5    0    0  0.14864416061E+02 -0.14220768480E+03  0.25307396090E+03  0.30145409097E+03  0.79900956167E+02 0.  0.
          5    1    5    5  501    0  0.12976606374E+02  0.51210387175E+01 -0.17385913446E+02  0.22781074095E+02  0.47000000000E+01 0. -1.
        -13    1    6    6    0    0 -0.23107853250E+02 -0.11373062451E+03  0.17151602517E+03  0.20709025743E+03  0.00000000000E+00 0.  1.
         14    1    6    6    0    0  0.37972269311E+02 -0.28477060286E+02  0.81557935729E+02  0.94363833536E+02  0.00000000000E+00 0. -1.
         -5    1    3    3    0  503 -0.31582683176E+02  0.13898288065E+03 -0.39149604217E+03  0.41665927089E+03  0.47000000000E+01 0.  1.
         13    1    4    4    0    0  0.39420426071E+02  0.12866553825E+02 -0.97150448415E+02  0.10563014639E+03  0.00000000000E+00 0. -1.
        -14    1    4    4    0    0 -0.35678765330E+02 -0.14762788393E+02 -0.86051372041E+02  0.94317298767E+02  0.00000000000E+00 0.  1.
<mgrwt>
<rscale>  2 0.22324723E+03</rscale>
<asrwt>0</asrwt>
<pdfrwt beam="1">  1       21 0.46294775E-01 0.22344174E+03</pdfrwt>
<pdfrwt beam="2">  1       21 0.98450129E-01 0.22344174E+03</pdfrwt>
<totfact> 0.37159246E+03</totfact>
</mgrwt>
</event>
<event>
12    1  0.1039378E-001  0.2235478E+03  0.7546771E-02  0.1131334E+00
         21   -1    0    0  501  502  0.00000000000E+00  0.00000000000E+00  0.16820395747E+03  0.16820395747E+03  0.00000000000E+00 0. -1.
         21   -1    0    0  502  503 -0.00000000000E+00 -0.00000000000E+00 -0.33446598491E+03  0.33446598491E+03  0.00000000000E+00 0.  1.
         -6    2    1    2    0  503  0.12387253245E+03 -0.66272528658E+02 -0.16776022834E+03  0.27949435789E+03  0.17388832488E+03 0.  0.
        -24    2    3    3    0    0  0.10949754872E+03 -0.95567802538E+02 -0.78235993557E+02  0.18409240905E+03  0.81524390975E+02 0.  0.
          6    2    1    2  501    0 -0.12387253245E+03  0.66272528658E+02  0.14982009059E+01  0.22317558450E+03  0.17340312730E+03 0.  0.
         24    2    5    5    0    0 -0.11907521944E+03  0.29136337129E+02 -0.52999924277E+02  0.15688647090E+03  0.82319734879E+02 0.  0.
          5    1    5    5  501    0 -0.47973130131E+01  0.37136191529E+02  0.54498125183E+02  0.66289113600E+02  0.47000000000E+01 0. -1.
        -11    1    6    6    0    0 -0.10463288167E+03  0.16157770486E+02 -0.60108416705E+01  0.10604359336E+03  0.00000000000E+00 0.  1.
         12    1    6    6    0    0 -0.14442337768E+02  0.12978566643E+02 -0.46989082606E+02  0.50842877539E+02  0.00000000000E+00 0. -1.
         -5    1    3    3    0  503  0.14374983733E+02  0.29295273880E+02 -0.89524234786E+02  0.95401948843E+02  0.47000000000E+01 0.  1.
         13    1    4    4    0    0  0.26031067913E+02 -0.84013459769E+01  0.15357111695E+02  0.31369411702E+02  0.00000000000E+00 0. -1.
        -14    1    4    4    0    0  0.83466480807E+02 -0.87166456561E+02 -0.93593105253E+02  0.15272299735E+03  0.00000000000E+00 0.  1.
<mgrwt>
<rscale>  2 0.22345340E+03</rscale>
<asrwt>0</asrwt>
<pdfrwt beam="1">  1       21 0.25877532E-01 0.22354776E+03</pdfrwt>
<pdfrwt beam="2">  1       21 0.51456305E-01 0.22354776E+03</pdfrwt>
<totfact> 0.50149251E+04</totfact>
</mgrwt>
</event>
<event>
12    1  0.1039378E-001  0.2216634E+03  0.7546771E-02  0.1133023E+00
         21   -1    0    0  503  502  0.00000000000E+00  0.00000000000E+00  0.50893383935E+03  0.50893383935E+03  0.00000000000E+00 0.  1.
         21   -1    0    0  501  503 -0.00000000000E+00 -0.00000000000E+00 -0.27736647411E+03  0.27736647411E+03  0.00000000000E+00 0. -1.
          6    2    1    2  501    0 -0.12242655148E+03 -0.56879843783E+02 -0.20223850672E+03  0.30005842140E+03  0.17581543026E+03 0.  0.
         24    2    3    3    0    0 -0.95913253823E+02 -0.67815162648E+02 -0.60308378874E+02  0.15518334645E+03  0.81526203823E+02 0.  0.
         -6    2    1    2    0  502  0.12242655148E+03  0.56879843783E+02  0.43380587196E+03  0.48624189206E+03  0.17326299636E+03 0.  0.
        -24    2    5    5    0    0 -0.50256045965E+01  0.79296407683E+00  0.16011441191E+03  0.17912807689E+03  0.80152090017E+02 0.  0.
          5    1    3    3  501    0 -0.26513297656E+02  0.10935318865E+02 -0.14193012785E+03  0.14487507495E+03  0.47000000000E+01 0. -1.
        -11    1    4    4    0    0 -0.97133364385E+02 -0.35042925877E+02 -0.65057073080E+02  0.12204638417E+03  0.00000000000E+00 0.  1.
         12    1    4    4    0    0  0.12201105616E+01 -0.32772236771E+02  0.47486942056E+01  0.33136962284E+02  0.00000000000E+00 0. -1.
         -5    1    5    5    0  502  0.12745215608E+03  0.56086879706E+02  0.27369146005E+03  0.30711381517E+03  0.47000000000E+01 0.  1.
         11    1    6    6    0    0  0.28176440150E+02 -0.15798608742E+02  0.30952394632E+02  0.44738781289E+02  0.00000000000E+00 0. -1.
        -12    1    6    6    0    0 -0.33202044746E+02  0.16591572819E+02  0.12916201728E+03  0.13438929560E+03  0.00000000000E+00 0.  1.
<mgrwt>
<rscale>  2 0.22115687E+03</rscale>
<asrwt>0</asrwt>
<pdfrwt beam="1">  1       21 0.78297514E-01 0.22166335E+03</pdfrwt>
<pdfrwt beam="2">  1       21 0.42671765E-01 0.22166335E+03</pdfrwt>
<totfact> 0.74728849E+03</totfact>
</mgrwt>
</event>
<event>
12    1  0.1039378E-001  0.1933305E+03  0.7546771E-02  0.1158690E+00
         21   -1    0    0  501  502  0.00000000000E+00  0.00000000000E+00  0.62941214720E+03  0.62941214720E+03  0.00000000000E+00 0. -1.
         21   -1    0    0  502  503 -0.00000000000E+00 -0.00000000000E+00 -0.58061639725E+02  0.58061639725E+02  0.00000000000E+00 0. -1.
         -6    2    1    2    0  503 -0.45615025930E+02 -0.14337186705E+02  0.21927788480E+03  0.29233452732E+03  0.18732431660E+03 0.  0.
        -24    2    3    3    0    0 -0.23572402198E+02  0.40953603373E+02  0.37135118650E+02  0.10065503966E+03  0.80743818325E+02 0.  0.
          6    2    1    2  501    0  0.45615025930E+02  0.14337186705E+02  0.35207262267E+03  0.39513925960E+03  0.17289770770E+03 0.  0.
         24    2    5    5    0    0  0.33285112043E+02 -0.15329083877E+02  0.35199081865E+03  0.36267064277E+03  0.79306867412E+02 0.  0.
          5    1    5    5  501    0  0.12329913888E+02  0.29666270582E+02  0.81804020463E-01  0.32468616826E+02  0.47000000000E+01 0. -1.
        -13    1    6    6    0    0  0.33613554114E+02  0.25137868298E+02  0.11885925265E+03  0.12605278808E+03  0.00000000000E+00 0.  1.
         14    1    6    6    0    0 -0.32844207187E+00 -0.40466952175E+02  0.23313156600E+03  0.23661785469E+03  0.00000000000E+00 0. -1.
         -5    1    3    3    0  503 -0.22042623732E+02 -0.55290790078E+02  0.18214276615E+03  0.19167948766E+03  0.47000000000E+01 0.  1.
         11    1    4    4    0    0 -0.35421267923E+02  0.26817275554E+02  0.57834837590E+02  0.72929424298E+02  0.00000000000E+00 0. -1.
        -12    1    4    4    0    0  0.11848865725E+02  0.14136327819E+02 -0.20699718940E+02  0.27725615365E+02  0.00000000000E+00 0.  1.
<mgrwt>
<rscale>  2 0.18974633E+03</rscale>
<asrwt>0</asrwt>
<pdfrwt beam="1">  1       21 0.96832633E-01 0.19333051E+03</pdfrwt>
<pdfrwt beam="2">  1       21 0.89325604E-02 0.19333051E+03</pdfrwt>
<totfact> 0.87649771E+04</totfact>
</mgrwt>
</event>
<event>
12    1  0.1039378E-001  0.1942156E+03  0.7546771E-02  0.1155904E+00
         21   -1    0    0  501  502  0.00000000000E+00  0.00000000000E+00  0.91528335939E+02  0.91528335939E+02  0.00000000000E+00 0. -1.
         21   -1    0    0  502  503 -0.00000000000E+00 -0.00000000000E+00 -0.44967682900E+03  0.44967682900E+03  0.00000000000E+00 0. -1.
         -6    2    1    2    0  503 -0.53507343443E+02 -0.55357760315E+02 -0.27048258292E+03  0.33298730428E+03  0.17830367277E+03 0.  0.
        -24    2    3    3    0    0  0.31243666284E+02 -0.93043967156E+01 -0.18251020812E+03  0.20235471005E+03  0.81084610939E+02 0.  0.
          6    2    1    2  501    0  0.53507343443E+02  0.55357760315E+02 -0.87665910147E+02  0.20821786066E+03  0.17245825079E+03 0.  0.
         24    2    5    5    0    0  0.54258584021E+02 -0.19746206825E+02 -0.87256105731E+02  0.13296210884E+03  0.82045035041E+02 0.  0.
          5    1    5    5  501    0 -0.75124057830E+00  0.75103967140E+02 -0.40980441554E+00  0.75255751821E+02  0.47000000000E+01 0. -1.
        -11    1    6    6    0    0  0.72539507572E+01 -0.25038440868E+02  0.74403582363E+01  0.27109080645E+02  0.00000000000E+00 0.  1.
         12    1    6    6    0    0  0.47004633264E+02  0.52922340435E+01 -0.94696463967E+02  0.10585302819E+03  0.00000000000E+00 0. -1.
         -5    1    3    3    0  503 -0.84751009727E+02 -0.46053363599E+02 -0.87972374801E+02  0.13063259424E+03  0.47000000000E+01 0.  1.
         13    1    4    4    0    0  0.81580792758E+01 -0.36834716996E+02 -0.14728026309E+03  0.15203560941E+03  0.00000000000E+00 0. -1.
        -14    1    4    4    0    0  0.23085587008E+02  0.27530320280E+02 -0.35229945027E+02  0.50319100636E+02  0.00000000000E+00 0.  1.
<mgrwt>
<rscale>  2 0.19286352E+03</rscale>
<asrwt>0</asrwt>
<pdfrwt beam="1">  1       21 0.14081283E-01 0.19421565E+03</pdfrwt>
<pdfrwt beam="2">  1       21 0.69181050E-01 0.19421565E+03</pdfrwt>
<totfact> 0.83617604E+04</totfact>
</mgrwt>
</event>
<event>
12    1  0.1039378E-001  0.2075638E+03  0.7546771E-02  0.1143676E+00
         21   -1    0    0  501  502  0.00000000000E+00  0.00000000000E+00  0.47781355769E+03  0.47781355769E+03  0.00000000000E+00 0. -1.
         21   -1    0    0  502  503 -0.00000000000E+00 -0.00000000000E+00 -0.98210529145E+02  0.98210529145E+02  0.00000000000E+00 0. -1.
         -6    2    1    2    0  503  0.29370042545E+02  0.10980169806E+03  0.10521477200E+03  0.23197226718E+03  0.17269039406E+03 0.  0.
        -24    2    3    3    0    0 -0.42821111132E+02  0.97651299611E+02  0.73772018597E+02  0.15216041598E+03  0.79630757804E+02 0.  0.
          6    2    1    2  501    0 -0.29370042545E+02 -0.10980169806E+03  0.27438825655E+03  0.34405181965E+03  0.17367707671E+03 0.  0.
         24    2    5    5    0    0 -0.21819257092E+02  0.11589435764E+01  0.17940939251E+03  0.19772221579E+03  0.80180554766E+02 0.  0.
          5    1    5    5  501    0 -0.75507854531E+01 -0.11096064164E+03  0.94978864036E+02  0.14632960386E+03  0.47000000000E+01 0. -1.
        -13    1    6    6    0    0  0.13772028055E+02 -0.15488912538E+02  0.85794623986E+01  0.22431726269E+02  0.00000000000E+00 0.  1.
         14    1    6    6    0    0 -0.35591285147E+02  0.16647856114E+02  0.17082993012E+03  0.17529048952E+03  0.00000000000E+00 0. -1.
         -5    1    3    3    0  503  0.72191153677E+02  0.12150398450E+02  0.31442753399E+02  0.79811851206E+02  0.47000000000E+01 0.  1.
         13    1    4    4    0    0 -0.48288796786E+01  0.75481357796E+02  0.77152704350E+02  0.10804301570E+03  0.00000000000E+00 0. -1.
        -14    1    4    4    0    0 -0.37992231453E+02  0.22169941816E+02 -0.33806857528E+01  0.44117400275E+02  0.00000000000E+00 0.  1.
<mgrwt>
<rscale>  2 0.20735729E+03</rscale>
<asrwt>0</asrwt>
<pdfrwt beam="1">  1       21 0.73509777E-01 0.20756382E+03</pdfrwt>
<pdfrwt beam="2">  1       21 0.15109312E-01 0.20756382E+03</pdfrwt>
<totfact> 0.63921296E+04</totfact>
</mgrwt>
</event>
<event>
12    1  0.1039378E-001  0.1777237E+03  0.7546771E-02  0.1170380E+00
         21   -1    0    0  501  502  0.00000000000E+00  0.00000000000E+00  0.70419213184E+02  0.70419213184E+02  0.00000000000E+00 0. -1.
         21   -1    0    0  502  503 -0.00000000000E+00 -0.00000000000E+00 -0.55879371256E+03  0.55879371256E+03  0.00000000000E+00 0. -1.
         -6    2    1    2    0  503  0.37891408379E+02  0.51956160779E+01 -0.38542320337E+03  0.42382386044E+03  0.17208389153E+03 0.  0.
        -24    2    3    3    0    0  0.72888319384E+02  0.31332591749E+02 -0.16649482420E+03  0.20053111428E+03  0.78725871878E+02 0.  0.
          6    2    1    2  501    0 -0.37891408379E+02 -0.51956160779E+01 -0.10295129600E+03  0.20538906530E+03  0.17355963108E+03 0.  0.
         24    2    5    5    0    0 -0.50456899742E+02 -0.62945589847E+02 -0.87724837842E+02  0.14417725213E+03  0.81138072720E+02 0.  0.
          5    1    5    5  501    0  0.12565491363E+02  0.57749973770E+02 -0.15226458157E+02  0.61211813170E+02  0.47000000000E+01 0. -1.
        -11    1    6    6    0    0  0.15032877761E+02 -0.83184719655E+01  0.52966793124E+01  0.17978854284E+02  0.00000000000E+00 0.  1.
         12    1    6    6    0    0 -0.65489777503E+02 -0.54627117882E+02 -0.93021517154E+02  0.12619839785E+03  0.00000000000E+00 0. -1.
         -5    1    3    3    0  503 -0.34996911005E+02 -0.26136975671E+02 -0.21892837918E+03  0.22329274616E+03  0.47000000000E+01 0.  1.
         11    1    4    4    0    0  0.68511632666E+02 -0.52725940025E+01 -0.74118947923E+02  0.10107058177E+03  0.00000000000E+00 0. -1.
        -12    1    4    4    0    0  0.43766867179E+01  0.36605185751E+02 -0.92375876273E+02  0.99460532513E+02  0.00000000000E+00 0.  1.
<mgrwt>
<rscale>  2 0.17736234E+03</rscale>
<asrwt>0</asrwt>
<pdfrwt beam="1">  1       21 0.10833725E-01 0.17772366E+03</pdfrwt>
<pdfrwt beam="2">  1       21 0.85968265E-01 0.17772366E+03</pdfrwt>
<totfact> 0.82735817E+04</totfact>
</mgrwt>
</event>
<event>
12    1  0.1039378E-001  0.2295527E+03  0.7546771E-02  0.1127082E+00
         21   -1    0    0  501  502  0.00000000000E+00  0.00000000000E+00  0.26026950732E+03  0.26026950732E+03  0.00000000000E+00 0.  1.
         21   -1    0    0  502  503 -0.00000000000E+00 -0.00000000000E+00 -0.22016860373E+03  0.22016860373E+03  0.00000000000E+00 0. -1.
         -6    2    1    2    0  503  0.11346218278E+03  0.98550294141E+02  0.89350329161E+02  0.24566170854E+03  0.17256988824E+03 0.  0.
        -24    2    3    3    0    0  0.12316990863E+03  0.12762694634E+03  0.58457057570E+02  0.20188756236E+03  0.76693522763E+02 0.  0.
          6    2    1    2  501    0 -0.11346218278E+03 -0.98550294141E+02 -0.49249425567E+02  0.23477640250E+03  0.17351837326E+03 0.  0.
         24    2    5    5    0    0 -0.66675857528E+02 -0.62772937055E+02  0.41293073338E+02  0.12666066073E+03  0.77147219445E+02 0.  0.
          5    1    5    5  501    0 -0.46786325250E+02 -0.35777357086E+02 -0.90542498905E+02  0.10811574177E+03  0.47000000000E+01 0. -1.
        -11    1    6    6    0    0 -0.22595782530E+02 -0.67682653162E+02  0.41023918042E+02  0.82307185462E+02  0.00000000000E+00 0.  1.
         12    1    6    6    0    0 -0.44080074997E+02  0.49097161070E+01  0.26915529592E+00  0.44353475271E+02  0.00000000000E+00 0. -1.
         -5    1    3    3    0  503 -0.97077258518E+01 -0.29076652198E+02  0.30893271592E+02  0.43774146181E+02  0.47000000000E+01 0.  1.
         13    1    4    4    0    0  0.10153024612E+02 -0.10517036117E+02  0.24475468629E+01  0.14821688268E+02  0.00000000000E+00 0. -1.
        -14    1    4    4    0    0  0.11301688402E+03  0.13814398246E+03  0.56009510707E+02  0.18706587410E+03  0.00000000000E+00 0.  1.
<mgrwt>
<rscale>  2 0.22937349E+03</rscale>
<asrwt>0</asrwt>
<pdfrwt beam="1">  1       21 0.40041463E-01 0.22955272E+03</pdfrwt>
<pdfrwt beam="2">  1       21 0.33872093E-01 0.22955272E+03</pdfrwt>
<totfact> 0.49615630E+04</totfact>
</mgrwt>
</event>
<event>
12    1  0.1039378E-001  0.2294606E+03  0.7546771E-02  0.1127200E+00
         21   -1    0    0  501  502  0.00000000000E+00  0.00000000000E+00  0.33258060322E+03  0.33258060322E+03  0.00000000000E+00 0.  1.
         21   -1    0    0  502  503 -0.00000000000E+00 -0.00000000000E+00 -0.17120028701E+03  0.17120028701E+03  0.00000000000E+00 0.  1.
         -6    2    1    2    0  503 -0.15080987211E+03  0.15519300753E+02  0.15149115768E+03  0.27410726305E+03  0.17088228282E+03 0.  0.
        -24    2    3    3    0    0 -0.16418697576E+03  0.48178272592E+02  0.14450520886E+03  0.23782436316E+03  0.80001021021E+02 0.  0.
          6    2    1    2  501    0  0.15080987211E+03 -0.15519300753E+02  0.98891585268E+01  0.22967362718E+03  0.17224318083E+03 0.  0.
         24    2    5    5    0    0  0.62630944445E+02  0.50603067595E+02 -0.20216566043E+02  0.11532269569E+03  0.80045667885E+02 0.  0.
          5    1    5    5  501    0  0.88178927667E+02 -0.66122368348E+02  0.30105724570E+02  0.11435093149E+03  0.47000000000E+01 0. -1.
        -13    1    6    6    0    0  0.77854354288E+02  0.23047512971E+02 -0.20875038390E+02  0.83834691886E+02  0.00000000000E+00 0.  1.
         14    1    6    6    0    0 -0.15223409843E+02  0.27555554624E+02  0.65847234736E+00  0.31488003807E+02  0.00000000000E+00 0. -1.
         -5    1    3    3    0  503  0.13377103647E+02 -0.32658971839E+02  0.69859488110E+01  0.36282899889E+02  0.47000000000E+01 0.  1.
         11    1    4    4    0    0 -0.20385943823E+02  0.18181473701E+02  0.65638649504E+02  0.71095604647E+02  0.00000000000E+00 0. -1.
        -12    1    4    4    0    0 -0.14380103194E+03  0.29996798892E+02  0.78866559360E+02  0.16672875851E+03  0.00000000000E+00 0.  1.
<mgrwt>
<rscale>  2 0.22920526E+03</rscale>
<asrwt>0</asrwt>
<pdfrwt beam="1">  1       21 0.51166246E-01 0.22946063E+03</pdfrwt>
<pdfrwt beam="2">  1       21 0.26338506E-01 0.22946063E+03</pdfrwt>
<totfact> 0.48925675E+04</totfact>
</mgrwt>
</event>
<event>
12    1  0.1039378E-001  0.2429400E+03  0.7546771E-02  0.1117950E+00
         21   -1    0    0  501  502  0.00000000000E+00  0.00000000000E+00  0.18280803188E+04  0.18280803188E+04  0.00000000000E+00 0.  1.
         21   -1    0    0  502  503 -0.00000000000E+00 -0.00000000000E+00 -0.33957758507E+02  0.33957758507E+02  0.00000000000E+00 0.  1.
         -6    2    1    2    0  503 -0.15857394881E+03  0.60229598191E+02  0.11075597181E+04  0.11337603989E+04  0.17306302643E+03 0.  0.
        -24    2    3    3    0    0 -0.65896990542E+02  0.94782573018E+02  0.73373644935E+03  0.74704493120E+03  0.79879926273E+02 0.  0.
          6    2    1    2  501    0  0.15857394881E+03 -0.60229598191E+02  0.68656284218E+03  0.72827767843E+03  0.17391532108E+03 0.  0.
         24    2    5    5    0    0  0.16134057124E+03 -0.89196324345E+01  0.60844148281E+03  0.63465394440E+03  0.80462732757E+02 0.  0.
          5    1    5    5  501    0 -0.27666224315E+01 -0.51309965757E+02  0.78121359365E+02  0.93623734035E+02  0.47000000000E+01 0. -1.
        -11    1    6    6    0    0  0.15257825610E+03 -0.26342039727E+02  0.47004553886E+03  0.49489073127E+03  0.00000000000E+00 0.  1.
         12    1    6    6    0    0  0.87623151422E+01  0.17422407293E+02  0.13839594395E+03  0.13976321313E+03  0.00000000000E+00 0. -1.
         -5    1    3    3    0  503 -0.92676958271E+02 -0.34552974827E+02  0.37382326875E+03  0.38671546765E+03  0.47000000000E+01 0.  1.
         11    1    4    4    0    0  0.68703520912E+01  0.17070034020E+01  0.46997166466E+01  0.84972310213E+01  0.00000000000E+00 0. -1.
        -12    1    4    4    0    0 -0.72767342633E+02  0.93075569616E+02  0.72903673270E+03  0.73854770018E+03  0.00000000000E+00 0.  1.
<mgrwt>
<rscale>  2 0.24278750E+03</rscale>
<asrwt>0</asrwt>
<pdfrwt beam="1">  1       21 0.28124305E+00 0.24293999E+03</pdfrwt>
<pdfrwt beam="2">  1       21 0.52242720E-02 0.24293999E+03</pdfrwt>
<totfact> 0.10431854E+04</totfact>
</mgrwt>
</event>
<event>
12    1  0.1039378E-001  0.2301732E+03  0.7546771E-02  0.1126634E+00
         21   -1    0    0  503  502  0.00000000000E+00  0.00000000000E+00  0.44470335666E+03  0.44470335666E+03  0.00000000000E+00 0.  1.
         21   -1    0    0  501  503 -0.00000000000E+00 -0.00000000000E+00 -0.12762899469E+03  0.12762899469E+03  0.00000000000E+00 0. -1.
          6    2    1    2  501    0 -0.14850817112E+03  0.48408029095E+01  0.83037160068E+02  0.24407468387E+03  0.17492618756E+03 0.  0.
         24    2    3    3    0    0 -0.58622464640E+01  0.21235716316E+02  0.26804483563E+02  0.89799420426E+02  0.82825925824E+02 0.  0.
         -6    2    1    2    0  502  0.14850817112E+03 -0.48408029095E+01  0.23403720190E+03  0.32825766747E+03  0.17578843568E+03 0.  0.
        -24    2    5    5    0    0  0.12864568332E+03 -0.31455361691E+02  0.24775031699E+03  0.29202242653E+03  0.79735352344E+02 0.  0.
          5    1    3    3  501    0 -0.14264592465E+03 -0.16394913406E+02  0.56232676505E+02  0.15427526345E+03  0.47000000000E+01 0. -1.
        -11    1    4    4    0    0 -0.73672587462E+01 -0.83725426000E+01  0.50581263090E+02  0.51796140269E+02  0.00000000000E+00 0.  1.
         12    1    4    4    0    0  0.15050122822E+01  0.29608258916E+02 -0.23776779527E+02  0.38003280156E+02  0.00000000000E+00 0. -1.
         -5    1    5    5    0  502  0.19862487793E+02  0.26614558781E+02 -0.13713115086E+02  0.36235240938E+02  0.47000000000E+01 0.  1.
         11    1    6    6    0    0  0.23989481913E+02 -0.24242615432E+02  0.12963872067E+03  0.13404998151E+03  0.00000000000E+00 0. -1.
        -12    1    6    6    0    0  0.10465620141E+03 -0.72127462592E+01  0.11811159632E+03  0.15797244503E+03  0.00000000000E+00 0.  1.
<mgrwt>
<rscale>  2 0.23000852E+03</rscale>
<asrwt>0</asrwt>
<pdfrwt beam="1">  1       21 0.68415900E-01 0.23017316E+03</pdfrwt>
<pdfrwt beam="2">  1       21 0.19635230E-01 0.23017316E+03</pdfrwt>
<totfact> 0.45721379E+04</totfact>
</mgrwt>
</event>
<event>
12    1  0.1039378E-001  0.1777774E+03  0.7546771E-02  0.1170361E+00
         21   -1    0    0  503  502  0.00000000000E+00  0.00000000000E+00  0.44011260090E+03  0.44011260090E+03  0.00000000000E+00 0.  1.
         21   -1    0    0  501  503 -0.00000000000E+00 -0.00000000000E+00 -0.81449940224E+02  0.81449940224E+02  0.00000000000E+00 0.  1.
          6    2    1    2  501    0 -0.35358715053E+01 -0.38345360369E+02  0.86010758052E+02  0.19607235658E+03  0.17194083129E+03 0.  0.
         24    2    3    3    0    0 -0.61299838087E+01  0.43574282653E+02  0.62428284971E+02  0.11065701622E+03  0.80071153758E+02 0.  0.
         -6    2    1    2    0  502  0.35358715053E+01  0.38345360369E+02  0.27265190263E+03  0.32549018455E+03  0.17355670884E+03 0.  0.
        -24    2    5    5    0    0  0.55995581171E+02  0.29340603580E+02  0.97765949270E+02  0.14262331094E+03  0.82382351614E+02 0.  0.
          5    1    3    3  501    0  0.25941123034E+01 -0.81919643022E+02  0.23582473082E+02  0.85415340356E+02  0.47000000000E+01 0. -1.
        -13    1    4    4    0    0 -0.30440460068E+01  0.60523250416E+02  0.18327221456E+02  0.63310481780E+02  0.00000000000E+00 0.  1.
         14    1    4    4    0    0 -0.30859378019E+01 -0.16948967763E+02  0.44101063514E+02  0.47346534440E+02  0.00000000000E+00 0. -1.
         -5    1    5    5    0  502 -0.52459709666E+02  0.90047567887E+01  0.17488595336E+03  0.18286687361E+03  0.47000000000E+01 0.  1.
         13    1    6    6    0    0  0.45961694695E+02  0.36243819439E+02  0.11047337738E+03  0.12502183384E+03  0.00000000000E+00 0. -1.
        -14    1    6    6    0    0  0.10033886476E+02 -0.69032158590E+01 -0.12707428108E+02  0.17601477101E+02  0.00000000000E+00 0.  1.
<mgrwt>
<rscale>  2 0.17738178E+03</rscale>
<asrwt>0</asrwt>
<pdfrwt beam="1">  1       21 0.67709630E-01 0.17777739E+03</pdfrwt>
<pdfrwt beam="2">  1       21 0.12530760E-01 0.17777739E+03</pdfrwt>
<totfact> 0.10886203E+05</totfact>
</mgrwt>
</event>
<event>
12    1  0.1039378E-001  0.2234923E+03  0.7546771E-02  0.1131312E+00
         21   -1    0    0  503  502  0.00000000000E+00  0.00000000000E+00  0.65558065741E+03  0.65558065741E+03  0.00000000000E+00 0.  1.
         21   -1    0    0  501  503 -0.00000000000E+00 -0.00000000000E+00 -0.83888582782E+02  0.83888582782E+02  0.00000000000E+00 0.  1.
          6    2    1    2  501    0 -0.68772828649E+02  0.12429406043E+03  0.17378112256E+03  0.28310539622E+03  0.17254005736E+03 0.  0.
         24    2    3    3    0    0 -0.94400242509E+02  0.10871634494E+03  0.76464092514E+02  0.18116362903E+03  0.79011730765E+02 0.  0.
         -6    2    1    2    0  502  0.68772828649E+02 -0.12429406043E+03  0.39791095207E+03  0.45636384397E+03  0.17249961416E+03 0.  0.
        -24    2    5    5    0    0 -0.21548942195E+02 -0.78324157187E+02  0.27003891108E+03  0.29313209718E+03  0.80039880003E+02 0.  0.
          5    1    3    3  501    0  0.25627413859E+02  0.15577715495E+02  0.97317030045E+02  0.10194176719E+03  0.47000000000E+01 0. -1.
        -11    1    4    4    0    0 -0.35577709630E+02  0.98231768186E+02  0.47661757710E+02  0.11483421464E+03  0.00000000000E+00 0.  1.
         12    1    4    4    0    0 -0.58822532878E+02  0.10484576750E+02  0.28802334804E+02  0.66329414395E+02  0.00000000000E+00 0. -1.
         -5    1    5    5    0  502  0.90321770845E+02 -0.45969903244E+02  0.12787204099E+03  0.16323174679E+03  0.47000000000E+01 0.  1.
         11    1    6    6    0    0  0.82224193427E+01  0.91781413585E+01  0.89146002016E+02  0.89993644965E+02  0.00000000000E+00 0. -1.
        -12    1    6    6    0    0 -0.29771361538E+02 -0.87502298545E+02  0.18089290907E+03  0.20313845222E+03  0.00000000000E+00 0.  1.
<mgrwt>
<rscale>  2 0.22348445E+03</rscale>
<asrwt>0</asrwt>
<pdfrwt beam="1">  1       21 0.10085856E+00 0.22349225E+03</pdfrwt>
<pdfrwt beam="2">  1       21 0.12905936E-01 0.22349225E+03</pdfrwt>
<totfact> 0.40771087E+04</totfact>
</mgrwt>
</event>
<event>
12    1  0.1039378E-001  0.2201329E+03  0.7546771E-02  0.1133872E+00
         21   -1    0    0  501  502  0.00000000000E+00  0.00000000000E+00  0.30305641464E+03  0.30305641464E+03  0.00000000000E+00 0. -1.
         21   -1    0    0  502  503 -0.00000000000E+00 -0.00000000000E+00 -0.19336913751E+03  0.19336913751E+03  0.00000000000E+00 0.  1.
         -6    2    1    2    0  503  0.12364200022E+03 -0.56162747218E+02 -0.48902372229E+02  0.22549933605E+03  0.17325388929E+03 0.  0.
        -24    2    3    3    0    0  0.58632278334E+02 -0.91744976606E+02  0.13285034034E+01  0.13584672954E+03  0.81226130088E+02 0.  0.
          6    2    1    2  501    0 -0.12364200022E+03  0.56162747218E+02  0.15858964936E+03  0.27092621610E+03  0.17265207585E+03 0.  0.
         24    2    5    5    0    0 -0.99772129263E+02  0.57882998513E+01  0.17083652268E+03  0.21365989447E+03  0.80482611981E+02 0.  0.
          5    1    5    5  501    0 -0.23869870958E+02  0.50374447367E+02 -0.12246873324E+02  0.57266321632E+02  0.47000000000E+01 0. -1.
        -11    1    6    6    0    0  0.12263857949E+02  0.70726473094E+01  0.88366357274E+01  0.16688639331E+02  0.00000000000E+00 0.  1.
         12    1    6    6    0    0 -0.11203598721E+03 -0.12843474581E+01  0.16199988695E+03  0.19697125514E+03  0.00000000000E+00 0. -1.
         -5    1    3    3    0  503  0.65009721887E+02  0.35582229388E+02 -0.50230875633E+02  0.89652606515E+02  0.47000000000E+01 0.  1.
         13    1    4    4    0    0  0.73729416959E+02 -0.53102251277E+02 -0.13354349613E+02  0.91837980539E+02  0.00000000000E+00 0. -1.
        -14    1    4    4    0    0 -0.15097138626E+02 -0.38642725329E+02  0.14682853016E+02  0.44008748997E+02  0.00000000000E+00 0.  1.
<mgrwt>
<rscale>  2 0.22001450E+03</rscale>
<asrwt>0</asrwt>
<pdfrwt beam="1">  1       21 0.46624064E-01 0.22013293E+03</pdfrwt>
<pdfrwt beam="2">  1       21 0.29749098E-01 0.22013293E+03</pdfrwt>
<totfact> 0.47089566E+04</totfact>
</mgrwt>
</event>
<event>
12    1  0.1039378E-001  0.2357328E+03  0.7546771E-02  0.1122961E+00
         21   -1    0    0  501  502  0.00000000000E+00  0.00000000000E+00  0.23725273743E+03  0.23725273743E+03  0.00000000000E+00 0. -1.
         21   -1    0    0  502  503 -0.00000000000E+00 -0.00000000000E+00 -0.23271832435E+03  0.23271832435E+03  0.00000000000E+00 0. -1.
         -6    2    1    2    0  503  0.34057303772E+02  0.15591202784E+03 -0.44490235144E+01  0.23577473048E+03  0.17349775030E+03 0.  0.
        -24    2    3    3    0    0  0.43890694016E+02  0.55522693883E+02  0.53316321256E+02  0.11944056098E+03  0.80089043811E+02 0.  0.
          6    2    1    2  501    0 -0.34057303772E+02 -0.15591202784E+03  0.89834365939E+01  0.23419633130E+03  0.17116880293E+03 0.  0.
         24    2    5    5    0    0 -0.24768232499E+02 -0.97991450972E+01  0.11996478891E+02  0.87682066557E+02  0.82672490613E+02 0.  0.
          5    1    5    5  501    0 -0.92890712734E+01 -0.14611288275E+03 -0.30130422972E+01  0.14651426474E+03  0.47000000000E+01 0. -1.
        -13    1    6    6    0    0 -0.39843990250E+02  0.18327635358E+01  0.38241668904E+02  0.55256925555E+02  0.00000000000E+00 0.  1.
         14    1    6    6    0    0  0.15075757751E+02 -0.11631908633E+02 -0.26245190013E+02  0.32425141002E+02  0.00000000000E+00 0. -1.
         -5    1    3    3    0  503 -0.98333902433E+01  0.10038933396E+03 -0.57765344771E+02  0.11633416950E+03  0.47000000000E+01 0.  1.
         11    1    4    4    0    0  0.25730956572E+02  0.75488795951E+02  0.42435140965E+02  0.90340365446E+02  0.00000000000E+00 0. -1.
        -12    1    4    4    0    0  0.18159737444E+02 -0.19966102068E+02  0.10881180291E+02  0.29100195538E+02  0.00000000000E+00 0.  1.
<mgrwt>
<rscale>  2 0.23530439E+03</rscale>
<asrwt>0</asrwt>
<pdfrwt beam="1">  1       21 0.36500421E-01 0.23573275E+03</pdfrwt>
<pdfrwt beam="2">  1       21 0.35802819E-01 0.23573275E+03</pdfrwt>
<totfact> 0.53408417E+04</totfact>
</mgrwt>
</event>
<event>
12    1  0.1039378E-001  0.1728686E+03  0.7546771E-02  0.1174960E+00
         21   -1    0    0  501  502  0.00000000000E+00  0.00000000000E+00  0.68948886102E+02  0.68948886102E+02  0.00000000000E+00 0.  1.
         21   -1    0    0  502  503 -0.00000000000E+00 -0.00000000000E+00 -0.10022003887E+04  0.10022003887E+04  0.00000000000E+00 0.  1.
         -6    2    1    2    0  503 -0.11828891267E+02  0.90596327393E+01 -0.87018603012E+03  0.88713618321E+03  0.17194441233E+03 0.  0.
        -24    2    3    3    0    0  0.12007266226E+02 -0.51679181062E+02 -0.33360279439E+03  0.34657996526E+03  0.77536673210E+02 0.  0.
          6    2    1    2  501    0  0.11828891267E+02 -0.90596327393E+01 -0.63065472523E+02  0.18401309164E+03  0.17222533047E+03 0.  0.
         24    2    5    5    0    0 -0.19905308171E+02  0.51709878711E+02 -0.61236321599E+02  0.11527133774E+03  0.80420528298E+02 0.  0.
          5    1    5    5  501    0  0.31734199438E+02 -0.60769511450E+02 -0.18291509249E+01  0.68741753898E+02  0.47000000000E+01 0. -1.
        -13    1    6    6    0    0 -0.18669346858E+02  0.43513301734E+02 -0.81008774465E+02  0.93831623029E+02  0.00000000000E+00 0.  1.
         14    1    6    6    0    0 -0.12359613133E+01  0.81965769774E+01  0.19772452867E+02  0.21439714711E+02  0.00000000000E+00 0. -1.
         -5    1    3    3    0  503 -0.23836157493E+02  0.60738813802E+02 -0.53658323573E+03  0.54055621795E+03  0.47000000000E+01 0.  1.
         11    1    4    4    0    0 -0.28408526758E+02 -0.81489172999E+00 -0.11978694235E+03  0.12311222522E+03  0.00000000000E+00 0. -1.
        -12    1    4    4    0    0  0.40415792984E+02 -0.50864289332E+02 -0.21381585204E+03  0.22346774003E+03  0.00000000000E+00 0.  1.
<mgrwt>
<rscale>  2 0.17279862E+03</rscale>
<asrwt>0</asrwt>
<pdfrwt beam="1">  1       21 0.10607521E-01 0.17286863E+03</pdfrwt>
<pdfrwt beam="2">  1       21 0.15418467E+00 0.17286863E+03</pdfrwt>
<totfact> 0.20597686E+04</totfact>
</mgrwt>
</event>
<event>
12    1  0.1039378E-001  0.3466822E+03  0.7546771E-02  0.1064325E+00
         21   -1    0    0  501  502  0.00000000000E+00  0.00000000000E+00  0.66659027697E+03  0.66659027697E+03  0.00000000000E+00 0.  1.
         21   -1    0    0  502  503 -0.00000000000E+00 -0.00000000000E+00 -0.17863993356E+03  0.17863993356E+03  0.00000000000E+00 0. -1.
         -6    2    1    2    0  503  0.26246595517E+03  0.14540902217E+03  0.24010132763E+03  0.42170745283E+03  0.17365588642E+03 0.  0.
        -24    2    3    3    0    0  0.15707962700E+03  0.14392366793E+02  0.10139792452E+03  0.20368826517E+03  0.79537543539E+02 0.  0.
          6    2    1    2  501    0 -0.26246595517E+03 -0.14540902217E+03  0.24784901579E+03  0.42352275771E+03  0.16706355174E+03 0.  0.
         24    2    5    5    0    0 -0.69443438496E+02 -0.74571794946E+02  0.14173816139E+03  0.19209845448E+03  0.80179586349E+02 0.  0.
          5    1    5    5  501    0 -0.19302251667E+03 -0.70837227220E+02  0.10611085439E+03  0.23142430322E+03  0.47000000000E+01 0. -1.
        -13    1    6    6    0    0 -0.63616639312E+02 -0.14239348382E+02  0.96536621746E+02  0.11648671674E+03  0.00000000000E+00 0.  1.
         14    1    6    6    0    0 -0.58267991843E+01 -0.60332446564E+02  0.45201539649E+02  0.75611737738E+02  0.00000000000E+00 0. -1.
         -5    1    3    3    0  503  0.10538632817E+03  0.13101665537E+03  0.13870340311E+03  0.21801918766E+03  0.47000000000E+01 0.  1.
         13    1    4    4    0    0  0.90163968378E+02 -0.18634256699E+02  0.21867437805E+02  0.94630658629E+02  0.00000000000E+00 0. -1.
        -14    1    4    4    0    0  0.66915658618E+02  0.33026623492E+02  0.79530486714E+02  0.10905760654E+03  0.00000000000E+00 0.  1.
<mgrwt>
<rscale>  2 0.34586560E+03</rscale>
<asrwt>0</asrwt>
<pdfrwt beam="1">  1       21 0.10255235E+00 0.34668217E+03</pdfrwt>
<pdfrwt beam="2">  1       21 0.27483067E-01 0.34668217E+03</pdfrwt>
<totfact> 0.89838575E+03</totfact>
</mgrwt>
</event>
<event>
12    1  0.1039378E-001  0.1980923E+03  0.7546771E-02  0.1151793E+00
         21   -1    0    0  503  502  0.00000000000E+00  0.00000000000E+00  0.45452889848E+02  0.45452889848E+02  0.00000000000E+00 0.  1.
         21   -1    0    0  501  503 -0.00000000000E+00 -0.00000000000E+00 -0.86119398203E+03  0.86119398203E+03  0.00000000000E+00 0. -1.
          6    2    1    2  501    0 -0.58428578862E+02  0.71984299409E+02 -0.44981367161E+03  0.49150066635E+03  0.17505692692E+03 0.  0.
         24    2    3    3    0    0 -0.99443662699E+02  0.61397376002E+02 -0.25000930339E+03  0.28720138683E+03  0.79506634855E+02 0.  0.
         -6    2    1    2    0  502  0.58428578862E+02 -0.71984299409E+02 -0.36592742057E+03  0.41514620553E+03  0.17276532248E+03 0.  0.
        -24    2    5    5    0    0  0.73601851543E+02 -0.36454485163E+02 -0.35704844403E+03  0.37522726105E+03  0.81029278733E+02 0.  0.
          5    1    3    3  501    0  0.41015083837E+02  0.10586923407E+02 -0.19980436822E+03  0.20429927952E+03  0.47000000000E+01 0. -1.
        -11    1    4    4    0    0 -0.35429848254E+01  0.57081319884E+01  0.54878927694E+01  0.86748186908E+01  0.00000000000E+00 0.  1.
         12    1    4    4    0    0 -0.95900677874E+02  0.55689244014E+02 -0.25549719616E+03  0.27852656814E+03  0.00000000000E+00 0. -1.
         -5    1    5    5    0  502 -0.15173272681E+02 -0.35529814246E+02 -0.88789765430E+01  0.39918944483E+02  0.47000000000E+01 0.  1.
         11    1    6    6    0    0 -0.14450941956E+00 -0.33260173747E+02 -0.18570607159E+03  0.18866108520E+03  0.00000000000E+00 0. -1.
        -12    1    6    6    0    0  0.73746360963E+02 -0.31943114166E+01 -0.17134237243E+03  0.18656617585E+03  0.00000000000E+00 0.  1.
<mgrwt>
<rscale>  2 0.19758482E+03</rscale>
<asrwt>0</asrwt>
<pdfrwt beam="1">  1       21 0.69927522E-02 0.19809232E+03</pdfrwt>
<pdfrwt beam="2">  1       21 0.13249138E+00 0.19809232E+03</pdfrwt>
<totfact> 0.62256226E+04</totfact>
</mgrwt>
</event>
<event>
12    1  0.1039378E-001  0.1828929E+03  0.7546771E-02  0.1165473E+00
         21   -1    0    0  501  502  0.00000000000E+00  0.00000000000E+00  0.16675186578E+03  0.16675186578E+03  0.00000000000E+00 0. -1.
         21   -1    0    0  502  503 -0.00000000000E+00 -0.00000000000E+00 -0.24079444237E+03  0.24079444237E+03  0.00000000000E+00 0. -1.
         -6    2    1    2    0  503 -0.48852030270E+02 -0.30520093866E+02 -0.12219529609E+03  0.21842069392E+03  0.17163307419E+03 0.  0.
        -24    2    3    3    0    0 -0.69027655433E+02 -0.70855710591E+02 -0.11719164886E+03  0.17280113328E+03  0.79630397229E+02 0.  0.
          6    2    1    2  501    0  0.48852030270E+02  0.30520093866E+02  0.48152719508E+02  0.18912561423E+03  0.17358518534E+03 0.  0.
         24    2    5    5    0    0 -0.39859064814E+02  0.27965330904E+02  0.32496677045E+02  0.98884897974E+02  0.79695572323E+02 0.  0.
          5    1    5    5  501    0  0.88711095084E+02  0.25547629613E+01  0.15656042463E+02  0.90240716257E+02  0.47000000000E+01 0. -1.
        -13    1    6    6    0    0 -0.10687025449E+02  0.15170191914E+02 -0.26197413633E+02  0.32103764837E+02  0.00000000000E+00 0.  1.
         14    1    6    6    0    0 -0.29172039365E+02  0.12795138991E+02  0.58694090678E+02  0.66781133137E+02  0.00000000000E+00 0. -1.
         -5    1    3    3    0  503  0.20175625162E+02  0.40335616725E+02 -0.50036472334E+01  0.45619560639E+02  0.47000000000E+01 0.  1.
         11    1    4    4    0    0 -0.22611405291E+02 -0.22447804633E+02  0.61082419567E+01  0.32442105386E+02  0.00000000000E+00 0. -1.
        -12    1    4    4    0    0 -0.46416250141E+02 -0.48407905959E+02 -0.12329989081E+03  0.14035902789E+03  0.00000000000E+00 0.  1.
<mgrwt>
<rscale>  2 0.18242820E+03</rscale>
<asrwt>0</asrwt>
<pdfrwt beam="1">  1       21 0.25654133E-01 0.18289290E+03</pdfrwt>
<pdfrwt beam="2">  1       21 0.37045299E-01 0.18289290E+03</pdfrwt>
<totfact> 0.10168653E+05</totfact>
</mgrwt>
</event>
<event>
12    1  0.1039378E-001  0.1966859E+03  0.7546771E-02  0.1152674E+00
         21   -1    0    0  503  502  0.00000000000E+00  0.00000000000E+00  0.16536500804E+03  0.16536500804E+03  0.00000000000E+00 0.  1.
         21   -1    0    0  501  503 -0.00000000000E+00 -0.00000000000E+00 -0.26624206288E+03  0.26624206288E+03  0.00000000000E+00 0.  1.
          6    2    1    2  501    0 -0.41964915811E+02  0.81712589183E+02 -0.12624163831E+03  0.23329242118E+03  0.17335051528E+03 0.  0.
         24    2    3    3    0    0  0.27746947238E+02  0.73258758285E+02 -0.11860899330E+03  0.16250006017E+03  0.78749206469E+02 0.  0.
         -6    2    1    2    0  502  0.41964915811E+02 -0.81712589183E+02  0.25364583470E+02  0.19831464974E+03  0.17391761503E+03 0.  0.
        -24    2    5    5    0    0 -0.15569269942E+02 -0.41272447509E+02  0.69653756849E+02  0.11507278246E+03  0.80276287476E+02 0.  0.
          5    1    3    3  501    0 -0.69711863049E+02  0.84538308986E+01 -0.76326450119E+01  0.70792361004E+02  0.47000000000E+01 0. -1.
        -11    1    4    4    0    0  0.26465169265E+02  0.56372174787E+02 -0.24567972195E+02  0.66946340693E+02  0.00000000000E+00 0.  1.
         12    1    4    4    0    0  0.12817779732E+01  0.16886583498E+02 -0.94041021101E+02  0.95553719481E+02  0.00000000000E+00 0. -1.
         -5    1    5    5    0  502  0.57534185753E+02 -0.40440141674E+02 -0.44289173379E+02  0.83241867276E+02  0.47000000000E+01 0.  1.
         11    1    6    6    0    0 -0.58965189969E+00 -0.24948156419E+02 -0.13945607789E+02  0.28587377891E+02  0.00000000000E+00 0. -1.
        -12    1    6    6    0    0 -0.14979618043E+02 -0.16324291090E+02  0.83599364638E+02  0.86485404573E+02  0.00000000000E+00 0.  1.
<mgrwt>
<rscale>  2 0.19656045E+03</rscale>
<asrwt>0</asrwt>
<pdfrwt beam="1">  1       21 0.25440771E-01 0.19668589E+03</pdfrwt>
<pdfrwt beam="2">  1       21 0.40960317E-01 0.19668589E+03</pdfrwt>
<totfact> 0.83961875E+04</totfact>
</mgrwt>
</event>
<event>
12    1  0.1039378E-001  0.1902778E+03  0.7546771E-02  0.1159144E+00
         21   -1    0    0  501  502  0.00000000000E+00  0.00000000000E+00  0.16807426627E+03  0.16807426627E+03  0.00000000000E+00 0.  1.
         21   -1    0    0  502  503 -0.00000000000E+00 -0.00000000000E+00 -0.31070953174E+03  0.31070953174E+03  0.00000000000E+00 0.  1.
         -6    2    1    2    0  503 -0.44001946966E+02 -0.74295607242E+02 -0.20758871772E+03  0.28160027371E+03  0.16955715802E+03 0.  0.
        -24    2    3    3    0    0 -0.35278893894E+02  0.25224200608E+02 -0.87197654685E+02  0.12508707341E+03  0.78501492349E+02 0.  0.
          6    2    1    2  501    0  0.44001946966E+02  0.74295607242E+02  0.64953452259E+02  0.19718352430E+03  0.16494357430E+03 0.  0.
         24    2    5    5    0    0 -0.25962909782E+02  0.89430534440E+02  0.45214718880E+02  0.12278019913E+03  0.66020552252E+02 0.  0.
          5    1    5    5  501    0  0.69964856748E+02 -0.15134927198E+02  0.19738733379E+02  0.74403325171E+02  0.47000000000E+01 0. -1.
        -13    1    6    6    0    0 -0.22632382689E+02  0.59368373035E+01  0.29670883693E+02  0.37786665935E+02  0.00000000000E+00 0.  1.
         14    1    6    6    0    0 -0.33305270932E+01  0.83493697136E+02  0.15543835187E+02  0.84993533192E+02  0.00000000000E+00 0. -1.
         -5    1    3    3    0  503 -0.87230530718E+01 -0.99519807850E+02 -0.12039106304E+03  0.15651320030E+03  0.47000000000E+01 0.  1.
         13    1    4    4    0    0  0.15319954079E+02  0.33977336941E+02 -0.46317074199E+02  0.59451087298E+02  0.00000000000E+00 0. -1.
        -14    1    4    4    0    0 -0.50598847974E+02 -0.87531363334E+01 -0.40880580486E+02  0.65635986112E+02  0.00000000000E+00 0.  1.
<mgrwt>
<rscale>  2 0.18924456E+03</rscale>
<asrwt>0</asrwt>
<pdfrwt beam="1">  1       21 0.25857579E-01 0.19027779E+03</pdfrwt>
<pdfrwt beam="2">  1       21 0.47801467E-01 0.19027779E+03</pdfrwt>
<totfact> 0.59475317E+04</totfact>
</mgrwt>
</event>
<event>
12    1  0.1039378E-001  0.1735360E+03  0.7546771E-02  0.1174335E+00
         21   -1    0    0  503  502  0.00000000000E+00  0.00000000000E+00  0.34428684753E+02  0.34428684753E+02  0.00000000000E+00 0. -1.
         21   -1    0    0  501  503 -0.00000000000E+00 -0.00000000000E+00 -0.87416207273E+03  0.87416207273E+03  0.00000000000E+00 0. -1.
          6    2    1    2  501    0 -0.76791372013E+01 -0.96462221057E+01 -0.39898581613E+03  0.43509127041E+03  0.17309741006E+03 0.  0.
         24    2    3    3    0    0  0.67838186415E+01 -0.34930233490E+02 -0.39567176061E+03  0.40540067784E+03  0.80792487527E+02 0.  0.
         -6    2    1    2    0  502  0.76791372013E+01  0.96462221057E+01 -0.44074757185E+03  0.47349948707E+03  0.17260163213E+03 0.  0.
        -24    2    5    5    0    0  0.61223195692E+01  0.60712005553E+02 -0.38332124159E+03  0.39649292029E+03  0.80919905895E+02 0.  0.
          5    1    3    3  501    0 -0.14462955843E+02  0.25284011385E+02 -0.33140555151E+01  0.29690592573E+02  0.47000000000E+01 0. -1.
        -11    1    4    4    0    0 -0.32828930062E+02  0.26818721624E+01 -0.12461784150E+03  0.12889739139E+03  0.00000000000E+00 0.  1.
         12    1    4    4    0    0  0.39612748703E+02 -0.37612105653E+02 -0.27105391911E+03  0.27650328645E+03  0.00000000000E+00 0. -1.
         -5    1    5    5    0  502  0.15568176321E+01 -0.51065783447E+02 -0.57426330264E+02  0.77006566784E+02  0.47000000000E+01 0.  1.
         13    1    6    6    0    0 -0.15157315531E+02  0.50844751072E+02 -0.10957969184E+03  0.12174827222E+03  0.00000000000E+00 0. -1.
        -14    1    6    6    0    0  0.21279635101E+02  0.98672544805E+01 -0.27374154975E+03  0.27474464806E+03  0.00000000000E+00 0.  1.
<mgrwt>
<rscale>  2 0.17341221E+03</rscale>
<asrwt>0</asrwt>
<pdfrwt beam="1">  1       21 0.52967209E-02 0.17353597E+03</pdfrwt>
<pdfrwt beam="2">  1       21 0.13448647E+00 0.17353597E+03</pdfrwt>
<totfact> 0.97605757E+04</totfact>
</mgrwt>
</event>
<event>
12    1  0.1039378E-001  0.1782936E+03  0.7546771E-02  0.1169673E+00
         21   -1    0    0  503  502  0.00000000000E+00  0.00000000000E+00  0.22281236307E+02  0.22281236307E+02  0.00000000000E+00 0.  1.
         21   -1    0    0  501  503 -0.00000000000E+00 -0.00000000000E+00 -0.14221002745E+04  0.14221002745E+04  0.00000000000E+00 0.  1.
          6    2    1    2  501    0  0.37475934151E+02 -0.17336206892E+02 -0.67336174312E+03  0.69656632355E+03  0.17344629227E+03 0.  0.
         24    2    3    3    0    0  0.86503260887E+02  0.16607104642E+02 -0.48717386703E+03  0.50100599433E+03  0.76876651634E+02 0.  0.
         -6    2    1    2    0  502 -0.37475934151E+02  0.17336206892E+02 -0.72645729504E+03  0.74781518721E+03  0.17257567328E+03 0.  0.
        -24    2    5    5    0    0 -0.11402263026E+02 -0.50961939410E+02 -0.28399891291E+03  0.29933332244E+03  0.78853817412E+02 0.  0.
          5    1    3    3  501    0 -0.49027326736E+02 -0.33943311533E+02 -0.18618787608E+03  0.19556032922E+03  0.47000000000E+01 0. -1.
        -11    1    4    4    0    0  0.25861009999E+02  0.67682905319E+01 -0.31962833398E+02  0.41668025076E+02  0.00000000000E+00 0.  1.
         12    1    4    4    0    0  0.60642250889E+02  0.98388141098E+01 -0.45521103364E+03  0.45933796925E+03  0.00000000000E+00 0. -1.
         -5    1    5    5    0  502 -0.26073671125E+02  0.68298146301E+02 -0.44245838213E+03  0.44848186477E+03  0.47000000000E+01 0.  1.
         11    1    6    6    0    0  0.14521970423E+02 -0.60208306899E+00 -0.18267803112E+03  0.18325532238E+03  0.00000000000E+00 0. -1.
        -12    1    6    6    0    0 -0.25924233449E+02 -0.50359856341E+02 -0.10132088179E+03  0.11607800006E+03  0.00000000000E+00 0.  1.
<mgrwt>
<rscale>  2 0.17808151E+03</rscale>
<asrwt>0</asrwt>
<pdfrwt beam="1">  1       21 0.34278830E-02 0.17829359E+03</pdfrwt>
<pdfrwt beam="2">  1       21 0.21878463E+00 0.17829359E+03</pdfrwt>
<totfact> 0.52424458E+04</totfact>
</mgrwt>
</event>
<event>
12    1  0.1039378E-001  0.2078186E+03  0.7546771E-02  0.1143966E+00
         21   -1    0    0  501  502  0.00000000000E+00  0.00000000000E+00  0.13084451535E+03  0.13084451535E+03  0.00000000000E+00 0. -1.
         21   -1    0    0  502  503 -0.00000000000E+00 -0.00000000000E+00 -0.33452332386E+03  0.33452332386E+03  0.00000000000E+00 0. -1.
         -6    2    1    2    0  503  0.98621886547E+02 -0.57109540234E+02 -0.61607790763E+02  0.21362843476E+03  0.16986409910E+03 0.  0.
        -24    2    3    3    0    0  0.13263210143E+03 -0.23963722350E+02 -0.39791785075E+02  0.16115588895E+03  0.78881557190E+02 0.  0.
          6    2    1    2  501    0 -0.98621886547E+02  0.57109540234E+02 -0.14207101774E+03  0.25173940445E+03  0.17378370919E+03 0.  0.
         24    2    5    5    0    0  0.14803149858E+02  0.32397995106E+01 -0.69349008250E+02  0.10655755809E+03  0.79470741116E+02 0.  0.
          5    1    5    5  501    0 -0.11342503641E+03  0.53869740724E+02 -0.72722009490E+02  0.14518184636E+03  0.47000000000E+01 0. -1.
        -13    1    6    6    0    0  0.22598862078E+02  0.22365194555E+02  0.24095395054E+01  0.31885990267E+02  0.00000000000E+00 0.  1.
         14    1    6    6    0    0 -0.77957122203E+01 -0.19125395044E+02 -0.71758547755E+02  0.74671567819E+02  0.00000000000E+00 0. -1.
         -5    1    3    3    0  503 -0.34010214883E+02 -0.33145817885E+02 -0.21816005689E+02  0.52472545811E+02  0.47000000000E+01 0.  1.
         11    1    4    4    0    0  0.10145106109E+03  0.93993819784E+01 -0.51286632269E+02  0.11406570399E+03  0.00000000000E+00 0. -1.
        -12    1    4    4    0    0  0.31181040339E+02 -0.33363104328E+02  0.11494847195E+02  0.47090184955E+02  0.00000000000E+00 0.  1.
<mgrwt>
<rscale>  2 0.20699710E+03</rscale>
<asrwt>0</asrwt>
<pdfrwt beam="1">  1       21 0.20129925E-01 0.20781856E+03</pdfrwt>
<pdfrwt beam="2">  1       21 0.51465127E-01 0.20781856E+03</pdfrwt>
<totfact> 0.81279502E+04</totfact>
</mgrwt>
</event>
<event>
12    1  0.1039378E-001  0.1796276E+03  0.7546771E-02  0.1168635E+00
         21   -1    0    0  501  502  0.00000000000E+00  0.00000000000E+00  0.44634708635E+02  0.44634708635E+02  0.00000000000E+00 0.  1.
         21   -1    0    0  502  503 -0.00000000000E+00 -0.00000000000E+00 -0.24697704017E+04  0.24697704017E+04  0.00000000000E+00 0.  1.
         -6    2    1    2    0  503 -0.41451055625E+02 -0.42191756236E+01 -0.22703334268E+04  0.22772768649E+04  0.17274275385E+03 0.  0.
        -24    2    3    3    0    0  0.71688404716E+01 -0.50370920954E+02 -0.85673557420E+03  0.86208258254E+03  0.81252157285E+02 0.  0.
          6    2    1    2  501    0  0.41451055625E+02  0.42191756236E+01 -0.15480226626E+03  0.23712824545E+03  0.17472856577E+03 0.  0.
         24    2    5    5    0    0 -0.93951125074E+00 -0.55184453190E+02 -0.50196943340E+02  0.10949551117E+03  0.80145662958E+02 0.  0.
          5    1    5    5  501    0  0.42390566875E+02  0.59403628814E+02 -0.10460532292E+03  0.12763273428E+03  0.47000000000E+01 0. -1.
        -13    1    6    6    0    0  0.31028534324E+02 -0.46699707294E+02 -0.91963724689E+01  0.56817302560E+02  0.00000000000E+00 0.  1.
         14    1    6    6    0    0 -0.31968045575E+02 -0.84847458960E+01 -0.41000570871E+02  0.52678208612E+02  0.00000000000E+00 0. -1.
         -5    1    3    3    0  503 -0.48619896096E+02  0.46151745331E+02 -0.14135978526E+04  0.14151942823E+04  0.47000000000E+01 0.  1.
         11    1    4    4    0    0  0.34497481221E+02 -0.52751449702E+02 -0.71095043646E+03  0.71373896822E+03  0.00000000000E+00 0. -1.
        -12    1    4    4    0    0 -0.27328640749E+02  0.23805287475E+01 -0.14578513774E+03  0.14834361432E+03  0.00000000000E+00 0.  1.
<mgrwt>
<rscale>  2 0.17914285E+03</rscale>
<asrwt>0</asrwt>
<pdfrwt beam="1">  1       21 0.68668789E-02 0.17962757E+03</pdfrwt>
<pdfrwt beam="2">  1       21 0.37996464E+00 0.17962757E+03</pdfrwt>
<totfact> 0.18450386E+03</totfact>
</mgrwt>
</event>
<event>
12    1  0.1039378E-001  0.1802610E+03  0.7546771E-02  0.1167772E+00
         21   -1    0    0  501  502  0.00000000000E+00  0.00000000000E+00  0.92746107270E+03  0.92746107270E+03  0.00000000000E+00 0.  1.
         21   -1    0    0  502  503 -0.00000000000E+00 -0.00000000000E+00 -0.60618824544E+02  0.60618824544E+02  0.00000000000E+00 0.  1.
         -6    2    1    2    0  503 -0.12282729502E+02  0.45385219714E+02  0.11199360801E+03  0.21221825020E+03  0.17402107306E+03 0.  0.
        -24    2    3    3    0    0 -0.52610462929E+02 -0.25150644514E+02  0.68949246939E+02  0.12015011648E+03  0.79256773265E+02 0.  0.
          6    2    1    2  501    0  0.12282729502E+02 -0.45385219714E+02  0.75484864015E+03  0.77586164705E+03  0.17307265009E+03 0.  0.
         24    2    5    5    0    0  0.72076933033E+02 -0.17849941598E+02  0.40124734074E+03  0.41615411687E+03  0.81676899135E+02 0.  0.
          5    1    5    5  501    0 -0.59794203531E+02 -0.27535278117E+02  0.35360129942E+03  0.35970753018E+03  0.47000000000E+01 0. -1.
        -13    1    6    6    0    0  0.20769227296E+01  0.17790298120E+02  0.18884055786E+03  0.18968807186E+03  0.00000000000E+00 0.  1.
         14    1    6    6    0    0  0.70000010304E+02 -0.35640239718E+02  0.21240678288E+03  0.22646604501E+03  0.00000000000E+00 0. -1.
         -5    1    3    3    0  503  0.40327733427E+02  0.70535864228E+02  0.43044361066E+02  0.92068133713E+02  0.47000000000E+01 0.  1.
         11    1    4    4    0    0  0.71329237025E+01  0.96480667886E+01  0.45634873749E+02  0.47185861181E+02  0.00000000000E+00 0. -1.
        -12    1    4    4    0    0 -0.59743386631E+02 -0.34798711303E+02  0.23314373190E+02  0.72964255302E+02  0.00000000000E+00 0.  1.
<mgrwt>
<rscale>  2 0.18003168E+03</rscale>
<asrwt>0</asrwt>
<pdfrwt beam="1">  1       21 0.14268631E+00 0.18026097E+03</pdfrwt>
<pdfrwt beam="2">  1       21 0.93259737E-02 0.18026097E+03</pdfrwt>
<totfact> 0.31494944E+04</totfact>
</mgrwt>
</event>
<event>
12    1  0.1039378E-001  0.2595839E+03  0.7546771E-02  0.1107508E+00
         21   -1    0    0  501  502  0.00000000000E+00  0.00000000000E+00  0.36082882298E+03  0.36082882298E+03  0.00000000000E+00 0.  1.
         21   -1    0    0  502  503 -0.00000000000E+00 -0.00000000000E+00 -0.22573895624E+03  0.22573895624E+03  0.00000000000E+00 0. -1.
         -6    2    1    2    0  503  0.18236272271E+02  0.19187735012E+03 -0.55279188547E+02  0.26466067316E+03  0.17274259496E+03 0.  0.
        -24    2    3    3    0    0  0.16902274446E+02  0.18071398450E+03 -0.97249215249E+02  0.22095743045E+03  0.80134543906E+02 0.  0.
          6    2    1    2  501    0 -0.18236272271E+02 -0.19187735012E+03  0.19036905529E+03  0.32190710607E+03  0.17388021339E+03 0.  0.
         24    2    5    5    0    0  0.13721706938E+02 -0.18766509936E+03  0.10239104655E+03  0.22809199260E+03  0.78329789471E+02 0.  0.
          5    1    5    5  501    0 -0.31957979210E+02 -0.42122507607E+01  0.87978008741E+02  0.93815113461E+02  0.47000000000E+01 0. -1.
        -11    1    6    6    0    0 -0.70617145500E+01 -0.27804603162E+02  0.51662290955E+02  0.59092775160E+02  0.00000000000E+00 0.  1.
         12    1    6    6    0    0  0.20783421488E+02 -0.15986049620E+03  0.50728755594E+02  0.16899921744E+03  0.00000000000E+00 0. -1.
         -5    1    3    3    0  503  0.13339978258E+01  0.11163365619E+02  0.41970026702E+02  0.43703242712E+02  0.47000000000E+01 0.  1.
         11    1    4    4    0    0  0.47582345982E+02  0.81174800367E+02 -0.50489822815E+02  0.10678319190E+03  0.00000000000E+00 0. -1.
        -12    1    4    4    0    0 -0.30680071536E+02  0.99539184133E+02 -0.46759392435E+02  0.11417423855E+03  0.00000000000E+00 0.  1.
<mgrwt>
<rscale>  2 0.25939354E+03</rscale>
<asrwt>0</asrwt>
<pdfrwt beam="1">  1       21 0.55512127E-01 0.25958391E+03</pdfrwt>
<pdfrwt beam="2">  1       21 0.34729070E-01 0.25958391E+03</pdfrwt>
<totfact> 0.23612237E+04</totfact>
</mgrwt>
</event>
<event>
12    1  0.1039378E-001  0.2421890E+03  0.7546771E-02  0.1118587E+00
         21   -1    0    0  501  502  0.00000000000E+00  0.00000000000E+00  0.36623521897E+03  0.36623521897E+03  0.00000000000E+00 0. -1.
         21   -1    0    0  502  503 -0.00000000000E+00 -0.00000000000E+00 -0.16754502612E+03  0.16754502612E+03  0.00000000000E+00 0.  1.
         -6    2    1    2    0  503  0.57402842073E+02  0.15843746170E+03  0.15868550743E+03  0.28830948586E+03  0.17188296548E+03 0.  0.
        -24    2    3    3    0    0  0.27264213925E+02  0.15283655891E+03  0.56778751199E+02  0.18178820168E+03  0.75635789020E+02 0.  0.
          6    2    1    2  501    0 -0.57402842073E+02 -0.15843746170E+03  0.40004685424E+02  0.24547075922E+03  0.17394827746E+03 0.  0.
         24    2    5    5    0    0 -0.41156253327E+02 -0.77882612043E+01  0.16597979806E+02  0.92078787060E+02  0.80302651839E+02 0.  0.
          5    1    5    5  501    0 -0.16246588746E+02 -0.15064920050E+03  0.23406705618E+02  0.15339197217E+03  0.47000000000E+01 0. -1.
        -13    1    6    6    0    0 -0.55474071961E+02 -0.20052535024E+02 -0.96406187529E+01  0.59769710981E+02  0.00000000000E+00 0.  1.
         14    1    6    6    0    0  0.14317818634E+02  0.12264273819E+02  0.26238598559E+02  0.32309076079E+02  0.00000000000E+00 0. -1.
         -5    1    3    3    0  503  0.30138628148E+02  0.56009027907E+01  0.10190675623E+03  0.10652128418E+03  0.47000000000E+01 0.  1.
         13    1    4    4    0    0 -0.19907559082E+02  0.25373320173E+02  0.28338860997E+02  0.42932590509E+02  0.00000000000E+00 0. -1.
        -14    1    4    4    0    0  0.47171773008E+02  0.12746323874E+03  0.28439890202E+02  0.13885561117E+03  0.00000000000E+00 0.  1.
<mgrwt>
<rscale>  2 0.24181839E+03</rscale>
<asrwt>0</asrwt>
<pdfrwt beam="1">  1       21 0.56343880E-01 0.24218901E+03</pdfrwt>
<pdfrwt beam="2">  1       21 0.25776158E-01 0.24218901E+03</pdfrwt>
<totfact> 0.41355872E+04</totfact>
</mgrwt>
</event>
<event>
12    1  0.1039378E-001  0.2102894E+03  0.7546771E-02  0.1141435E+00
         21   -1    0    0  501  502  0.00000000000E+00  0.00000000000E+00  0.12964649239E+04  0.12964649239E+04  0.00000000000E+00 0.  1.
         21   -1    0    0  502  503 -0.00000000000E+00 -0.00000000000E+00 -0.34627054942E+02  0.34627054942E+02  0.00000000000E+00 0. -1.
         -6    2    1    2    0  503  0.11830963931E+03 -0.19676389215E+02  0.71766479036E+03  0.74770020406E+03  0.17212934895E+03 0.  0.
        -24    2    3    3    0    0  0.13900134743E+03  0.63273227963E+01  0.67403129655E+03  0.69265193791E+03  0.78019925435E+02 0.  0.
          6    2    1    2  501    0 -0.11830963931E+03  0.19676389215E+02  0.54417307861E+03  0.58339177480E+03  0.17273474571E+03 0.  0.
         24    2    5    5    0    0 -0.10883021214E+02 -0.90128376021E+01  0.35393315396E+03  0.36299016650E+03  0.79331658946E+02 0.  0.
          5    1    5    5  501    0 -0.10742661810E+03  0.28689226817E+02  0.19023992465E+03  0.22040160830E+03  0.47000000000E+01 0. -1.
        -13    1    6    6    0    0 -0.42623901529E+02  0.39406338346E+01  0.14231796506E+03  0.14861604475E+03  0.00000000000E+00 0.  1.
         14    1    6    6    0    0  0.31740880315E+02 -0.12953471437E+02  0.21161518890E+03  0.21437412175E+03  0.00000000000E+00 0. -1.
         -5    1    3    3    0  503 -0.20691708114E+02 -0.26003712011E+02  0.43633493811E+02  0.55048266141E+02  0.47000000000E+01 0.  1.
         11    1    4    4    0    0  0.90968822523E+02 -0.16930264188E+02  0.27690926281E+03  0.29196010061E+03  0.00000000000E+00 0. -1.
        -12    1    4    4    0    0  0.48032524902E+02  0.23257586985E+02  0.39712203374E+03  0.40069183731E+03  0.00000000000E+00 0.  1.
<mgrwt>
<rscale>  2 0.21016502E+03</rscale>
<asrwt>0</asrwt>
<pdfrwt beam="1">  1       21 0.19945610E+00 0.21028938E+03</pdfrwt>
<pdfrwt beam="2">  1       21 0.53272402E-02 0.21028938E+03</pdfrwt>
<totfact> 0.32295761E+04</totfact>
</mgrwt>
</event>
<event>
12    1  0.1039378E-001  0.1781574E+03  0.7546771E-02  0.1170226E+00
         21   -1    0    0  501  502  0.00000000000E+00  0.00000000000E+00  0.73912544031E+03  0.73912544031E+03  0.00000000000E+00 0.  1.
         21   -1    0    0  502  503 -0.00000000000E+00 -0.00000000000E+00 -0.63521822906E+02  0.63521822906E+02  0.00000000000E+00 0.  1.
         -6    2    1    2    0  503 -0.28908269859E+02 -0.75947770603E+01  0.10763399088E+03  0.20814690340E+03  0.17563225415E+03 0.  0.
        -24    2    3    3    0    0  0.52699542831E+01  0.61101666013E+02  0.54935871835E+02  0.11494532591E+03  0.80207804648E+02 0.  0.
          6    2    1    2  501    0  0.28908269859E+02  0.75947770603E+01  0.56796962653E+03  0.59450035982E+03  0.17305436272E+03 0.  0.
         24    2    5    5    0    0  0.77816084785E+02 -0.24052146152E+02  0.35921284481E+03  0.37771709011E+03  0.83680843095E+02 0.  0.
          5    1    5    5  501    0 -0.48907814926E+02  0.31646923212E+02  0.20875678172E+03  0.21678326971E+03  0.47000000000E+01 0. -1.
        -11    1    6    6    0    0  0.70191738271E+02  0.16165556966E+02  0.27200134844E+03  0.28137686278E+03  0.00000000000E+00 0.  1.
         12    1    6    6    0    0  0.76243465137E+01 -0.40217703117E+02  0.87211496362E+02  0.96340227327E+02  0.00000000000E+00 0. -1.
         -5    1    3    3    0  503 -0.34178224142E+02 -0.68696443074E+02  0.52698119041E+02  0.93201577492E+02  0.47000000000E+01 0.  1.
         11    1    4    4    0    0 -0.25225310633E+02  0.26043286925E+02  0.57976734318E+02  0.68380339372E+02  0.00000000000E+00 0. -1.
        -12    1    4    4    0    0  0.30495264916E+02  0.35058379088E+02 -0.30408624838E+01  0.46564986537E+02  0.00000000000E+00 0.  1.
<mgrwt>
<rscale>  2 0.17751876E+03</rscale>
<asrwt>0</asrwt>
<pdfrwt beam="1">  1       21 0.11371160E+00 0.17815740E+03</pdfrwt>
<pdfrwt beam="2">  1       21 0.97725886E-02 0.17815740E+03</pdfrwt>
<totfact> 0.51301165E+04</totfact>
</mgrwt>
</event>
<event>
12    1  0.1039378E-001  0.2396846E+03  0.7546771E-02  0.1120173E+00
         21   -1    0    0  503  502  0.00000000000E+00  0.00000000000E+00  0.59061123980E+03  0.59061123980E+03  0.00000000000E+00 0.  1.
         21   -1    0    0  501  503 -0.00000000000E+00 -0.00000000000E+00 -0.10807855959E+03  0.10807855959E+03  0.00000000000E+00 0. -1.
          6    2    1    2  501    0  0.10604174576E+03 -0.12574449541E+03  0.35428138215E+03  0.42774292396E+03  0.17433353463E+03 0.  0.
         24    2    3    3    0    0  0.58447005208E+02 -0.27581427497E+02  0.98472134179E+02  0.14960319546E+03  0.92236474997E+02 0.  0.
         -6    2    1    2    0  502 -0.10604174576E+03  0.12574449541E+03  0.12825129806E+03  0.27094687543E+03  0.17293722526E+03 0.  0.
        -24    2    5    5    0    0 -0.13671270644E+03  0.12185031636E+03  0.83583021894E+02  0.21641965878E+03  0.79457431741E+02 0.  0.
          5    1    3    3  501    0  0.47594740550E+02 -0.98163067910E+02  0.25580924797E+03  0.27813972851E+03  0.47000000000E+01 0. -1.
        -13    1    4    4    0    0  0.22089020440E+02 -0.51404682649E+02  0.19121753553E+02  0.59127046952E+02  0.00000000000E+00 0.  1.
         14    1    4    4    0    0  0.36357984768E+02  0.23823255152E+02  0.79350380626E+02  0.90476148503E+02  0.00000000000E+00 0. -1.
         -5    1    5    5    0  502  0.30670960684E+02  0.38941790514E+01  0.44668276166E+02  0.54527216648E+02  0.47000000000E+01 0.  1.
         13    1    6    6    0    0 -0.14221761239E+03  0.92899737446E+02  0.67014524039E+02  0.18261203937E+03  0.00000000000E+00 0. -1.
        -14    1    6    6    0    0  0.55049059504E+01  0.28950578910E+02  0.16568497855E+02  0.33807619407E+02  0.00000000000E+00 0.  1.
<mgrwt>
<rscale>  2 0.23943079E+03</rscale>
<asrwt>0</asrwt>
<pdfrwt beam="1">  1       21 0.90863265E-01 0.23968461E+03</pdfrwt>
<pdfrwt beam="2">  1       21 0.16627471E-01 0.23968461E+03</pdfrwt>
<totfact> 0.32586975E+04</totfact>
</mgrwt>
</event>
<event>
12    1  0.1039378E-001  0.2334424E+03  0.7546771E-02  0.1124245E+00
         21   -1    0    0  501  502  0.00000000000E+00  0.00000000000E+00  0.11743199401E+03  0.11743199401E+03  0.00000000000E+00 0.  1.
         21   -1    0    0  502  503 -0.00000000000E+00 -0.00000000000E+00 -0.49171743588E+03  0.49171743588E+03  0.00000000000E+00 0. -1.
         -6    2    1    2    0  503 -0.10309141743E+03  0.11891494959E+03 -0.25944614712E+03  0.34898903537E+03  0.17237296183E+03 0.  0.
        -24    2    3    3    0    0 -0.12935116368E+02  0.62517223988E+02 -0.50375194312E+02  0.11437953986E+03  0.80431948916E+02 0.  0.
          6    2    1    2  501    0  0.10309141743E+03 -0.11891494959E+03 -0.11483929475E+03  0.26016039452E+03  0.17241450541E+03 0.  0.
         24    2    5    5    0    0  0.33886178047E+02 -0.13155358725E+03 -0.66532540110E+02  0.17469266457E+03  0.87386090317E+02 0.  0.
          5    1    5    5  501    0  0.69205239378E+02  0.12638637654E+02 -0.48306754638E+02  0.85467729950E+02  0.47000000000E+01 0. -1.
        -13    1    6    6    0    0 -0.12749488675E+02 -0.10020635384E+03 -0.61529959588E+02  0.11827847961E+03  0.00000000000E+00 0.  1.
         14    1    6    6    0    0  0.46635666722E+02 -0.31347233402E+02 -0.50025805213E+01  0.56414184958E+02  0.00000000000E+00 0. -1.
         -5    1    3    3    0  503 -0.90156301057E+02  0.56397725603E+02 -0.20907095281E+03  0.23460949550E+03  0.47000000000E+01 0.  1.
         11    1    4    4    0    0  0.18625256653E+01 -0.11910507597E+02 -0.34913084046E+02  0.36935790647E+02  0.00000000000E+00 0. -1.
        -12    1    4    4    0    0 -0.14797642033E+02  0.74427731585E+02 -0.15462110266E+02  0.77443749215E+02  0.00000000000E+00 0.  1.
<mgrwt>
<rscale>  2 0.23343476E+03</rscale>
<asrwt>0</asrwt>
<pdfrwt beam="1">  1       21 0.18066460E-01 0.23344243E+03</pdfrwt>
<pdfrwt beam="2">  1       21 0.75648837E-01 0.23344243E+03</pdfrwt>
<totfact> 0.42633481E+04</totfact>
</mgrwt>
</event>
<event>
12    1  0.1039378E-001  0.2928391E+03  0.7546771E-02  0.1088943E+00
         21   -1    0    0  503  502  0.00000000000E+00  0.00000000000E+00  0.40643372572E+03  0.40643372572E+03  0.00000000000E+00 0.  1.
         21   -1    0    0  501  503 -0.00000000000E+00 -0.00000000000E+00 -0.21973534068E+03  0.21973534068E+03  0.00000000000E+00 0.  1.
          6    2    1    2  501    0 -0.16958327312E+03 -0.16331281142E+03  0.29490959450E+02  0.29380040828E+03  0.17326108139E+03 0.  0.
         24    2    3    3    0    0 -0.12513162583E+03 -0.33676202713E+02  0.23292200662E+02  0.15653382869E+03  0.84665828410E+02 0.  0.
         -6    2    1    2    0  502  0.16958327312E+03  0.16331281142E+03  0.15720742559E+03  0.33236865812E+03  0.17414129133E+03 0.  0.
        -24    2    5    5    0    0  0.87781514090E+02  0.14721017923E+02  0.91097378948E+02  0.15025968761E+03  0.79730412547E+02 0.  0.
          5    1    3    3  501    0 -0.44451647281E+02 -0.12963660870E+03  0.61987587884E+01  0.13726657959E+03  0.47000000000E+01 0. -1.
        -13    1    4    4    0    0 -0.83494469509E+02  0.60426443685E+01  0.44988867427E+02  0.95035983616E+02  0.00000000000E+00 0.  1.
         14    1    4    4    0    0 -0.41637156326E+02 -0.39718847081E+02 -0.21696666765E+02  0.61497845077E+02  0.00000000000E+00 0. -1.
         -5    1    5    5    0  502  0.81801759025E+02  0.14859179349E+03  0.66110046645E+02  0.18210897051E+03  0.47000000000E+01 0.  1.
         11    1    6    6    0    0  0.13036038594E+01  0.91170164015E+00  0.55828078871E+02  0.55850738342E+02  0.00000000000E+00 0. -1.
        -12    1    6    6    0    0  0.86477910231E+02  0.13809316282E+02  0.35269300077E+02  0.94408949269E+02  0.00000000000E+00 0.  1.
<mgrwt>
<rscale>  2 0.29270839E+03</rscale>
<asrwt>0</asrwt>
<pdfrwt beam="1">  1       21 0.62528265E-01 0.29283912E+03</pdfrwt>
<pdfrwt beam="2">  1       21 0.33805437E-01 0.29283912E+03</pdfrwt>
<totfact> 0.18995842E+04</totfact>
</mgrwt>
</event>
<event>
12    1  0.1039378E-001  0.1873442E+03  0.7546771E-02  0.1161576E+00
         21   -1    0    0  503  502  0.00000000000E+00  0.00000000000E+00  0.87780028610E+02  0.87780028610E+02  0.00000000000E+00 0.  1.
         21   -1    0    0  501  503 -0.00000000000E+00 -0.00000000000E+00 -0.53759531552E+03  0.53759531552E+03  0.00000000000E+00 0.  1.
          6    2    1    2  501    0 -0.55938706554E+02  0.35798942803E+02 -0.38548884923E+03  0.42729520404E+03  0.17195591097E+03 0.  0.
         24    2    3    3    0    0  0.68952104400E+01  0.46115880777E+02 -0.13818508762E+03  0.17188224266E+03  0.90962456625E+02 0.  0.
         -6    2    1    2    0  502  0.55938706554E+02 -0.35798942803E+02 -0.64326437678E+02  0.19808014009E+03  0.17517747605E+03 0.  0.
        -24    2    5    5    0    0  0.18147613480E+02  0.18742798627E+01 -0.10060094890E+03  0.13338571540E+03  0.85664166092E+02 0.  0.
          5    1    3    3  501    0 -0.62833916994E+02 -0.10316937973E+02 -0.24730376161E+03  0.25541296138E+03  0.47000000000E+01 0. -1.
        -13    1    4    4    0    0  0.96121255738E+01  0.13261042003E+02 -0.13794549250E+03  0.13891438764E+03  0.00000000000E+00 0.  1.
         14    1    4    4    0    0 -0.27169151339E+01  0.32854838774E+02 -0.23959511937E+00  0.32967855018E+02  0.00000000000E+00 0. -1.
         -5    1    5    5    0  502  0.37791093074E+02 -0.37673222666E+02  0.36274511222E+02  0.64694424691E+02  0.47000000000E+01 0.  1.
         13    1    6    6    0    0 -0.14988127630E+02  0.23425769205E+02 -0.87390547187E+02  0.91708878362E+02  0.00000000000E+00 0. -1.
        -14    1    6    6    0    0  0.33135741110E+02 -0.21551489342E+02 -0.13210401713E+02  0.41676837035E+02  0.00000000000E+00 0.  1.
<mgrwt>
<rscale>  2 0.18658743E+03</rscale>
<asrwt>0</asrwt>
<pdfrwt beam="1">  1       21 0.13504620E-01 0.18734421E+03</pdfrwt>
<pdfrwt beam="2">  1       21 0.82706973E-01 0.18734421E+03</pdfrwt>
<totfact> 0.60674417E+04</totfact>
</mgrwt>
</event>
<event>
12    1  0.1039378E-001  0.2300497E+03  0.7546771E-02  0.1126873E+00
         21   -1    0    0  501  502  0.00000000000E+00  0.00000000000E+00  0.42734334524E+03  0.42734334524E+03  0.00000000000E+00 0. -1.
         21   -1    0    0  502  503 -0.00000000000E+00 -0.00000000000E+00 -0.12713529348E+03  0.12713529348E+03  0.00000000000E+00 0.  1.
         -6    2    1    2    0  503  0.14720091880E+03  0.39087744095E+02  0.10073198687E+03  0.25113702450E+03  0.17241493458E+03 0.  0.
        -24    2    3    3    0    0  0.31402574418E+02 -0.31942685670E+02  0.20003351150E+02  0.93042808487E+02  0.79059302463E+02 0.  0.
          6    2    1    2  501    0 -0.14720091880E+03 -0.39087744095E+02  0.19947606489E+03  0.30334161422E+03  0.17038037510E+03 0.  0.
         24    2    5    5    0    0 -0.15846878319E+02 -0.24579439734E+02  0.12873076686E+03  0.15337041019E+03  0.78074323403E+02 0.  0.
          5    1    5    5  501    0 -0.13135404048E+03 -0.14508304361E+02  0.70745298037E+02  0.14997120403E+03  0.47000000000E+01 0. -1.
        -13    1    6    6    0    0 -0.40576270896E+02 -0.35507464036E+02  0.67165833975E+02  0.86130499915E+02  0.00000000000E+00 0.  1.
         14    1    6    6    0    0  0.24729392577E+02  0.10928024302E+02  0.61564932882E+02  0.67239910270E+02  0.00000000000E+00 0. -1.
         -5    1    3    3    0  503  0.11579834438E+03  0.71030429766E+02  0.80728635718E+02  0.15809421602E+03  0.47000000000E+01 0.  1.
         11    1    4    4    0    0 -0.71049269929E+01  0.22275965985E+02  0.11316054254E+02  0.25975983754E+02  0.00000000000E+00 0. -1.
        -12    1    4    4    0    0  0.38507501411E+02 -0.54218651655E+02  0.86872968961E+01  0.67066824732E+02  0.00000000000E+00 0.  1.
<mgrwt>
<rscale>  2 0.22966855E+03</rscale>
<asrwt>0</asrwt>
<pdfrwt beam="1">  1       21 0.65745129E-01 0.23004972E+03</pdfrwt>
<pdfrwt beam="2">  1       21 0.19559276E-01 0.23004972E+03</pdfrwt>
<totfact> 0.50270518E+04</totfact>
</mgrwt>
</event>
<event>
12    1  0.1039378E-001  0.2063907E+03  0.7546771E-02  0.1145001E+00
         21   -1    0    0  503  502  0.00000000000E+00  0.00000000000E+00  0.48983483596E+02  0.48983483596E+02  0.00000000000E+00 0. -1.
         21   -1    0    0  501  503 -0.00000000000E+00 -0.00000000000E+00 -0.87311013580E+03  0.87311013580E+03  0.00000000000E+00 0. -1.
          6    2    1    2  501    0 -0.44280652709E+02 -0.10140891852E+03 -0.46924163173E+03  0.51155678854E+03  0.17104997511E+03 0.  0.
         24    2    3    3    0    0  0.16118039502E+02 -0.57916462537E+02 -0.39106655636E+03  0.40351499959E+03  0.79228754645E+02 0.  0.
         -6    2    1    2    0  502  0.44280652709E+02  0.10140891852E+03 -0.35488502047E+03  0.41053683086E+03  0.17421988054E+03 0.  0.
        -24    2    5    5    0    0  0.21261384459E+02  0.92385693543E+02 -0.36332468802E+03  0.38399208961E+03  0.80361266273E+02 0.  0.
          5    1    3    3  501    0 -0.60398692212E+02 -0.43492455988E+02 -0.78175075373E+02  0.10804178894E+03  0.47000000000E+01 0. -1.
        -13    1    4    4    0    0 -0.17178070168E+02  0.94548593496E+01 -0.14231731273E+03  0.14366174843E+03  0.00000000000E+00 0.  1.
         14    1    4    4    0    0  0.33296109670E+02 -0.67371321887E+02 -0.24874924363E+03  0.25985325116E+03  0.00000000000E+00 0. -1.
         -5    1    5    5    0  502  0.23019268250E+02  0.90232249813E+01  0.84396675468E+01  0.26544741252E+02  0.47000000000E+01 0.  1.
         11    1    6    6    0    0  0.37154999721E+02  0.47566628378E+02 -0.10318521799E+03  0.11954190625E+03  0.00000000000E+00 0. -1.
        -12    1    6    6    0    0 -0.15893615261E+02  0.44819065165E+02 -0.26013947003E+03  0.26445018335E+03  0.00000000000E+00 0.  1.
<mgrwt>
<rscale>  2 0.20572024E+03</rscale>
<asrwt>0</asrwt>
<pdfrwt beam="1">  1       21 0.75359205E-02 0.20639068E+03</pdfrwt>
<pdfrwt beam="2">  1       21 0.13432464E+00 0.20639068E+03</pdfrwt>
<totfact> 0.52579910E+04</totfact>
</mgrwt>
</event>
<event>
12    1  0.1039378E-001  0.3046908E+03  0.7546771E-02  0.1083265E+00
         21   -1    0    0  501  502  0.00000000000E+00  0.00000000000E+00  0.76871562290E+03  0.76871562290E+03  0.00000000000E+00 0. -1.
         21   -1    0    0  502  503 -0.00000000000E+00 -0.00000000000E+00 -0.12359379100E+03  0.12359379100E+03  0.00000000000E+00 0.  1.
         -6    2    1    2    0  503  0.23125177364E+03 -0.87914158674E+02  0.40074060237E+03  0.50172183495E+03  0.17298984702E+03 0.  0.
        -24    2    3    3    0    0  0.48283407153E+02 -0.48891120805E+01  0.18425728142E+03  0.20632769190E+03  0.79152889193E+02 0.  0.
          6    2    1    2  501    0 -0.23125177364E+03  0.87914158674E+02  0.24438122953E+03  0.39058757895E+03  0.17784878233E+03 0.  0.
         24    2    5    5    0    0 -0.16854200676E+03  0.13188374731E+03  0.18039309512E+03  0.29067556299E+03  0.78427567270E+02 0.  0.
          5    1    5    5  501    0 -0.62709766879E+02 -0.43969588637E+02  0.63988134414E+02  0.99912015958E+02  0.47000000000E+01 0. -1.
        -13    1    6    6    0    0 -0.12182284708E+03  0.54715265716E+02  0.79857868360E+02  0.15560156012E+03  0.00000000000E+00 0.  1.
         14    1    6    6    0    0 -0.46719159680E+02  0.77168481594E+02  0.10053522676E+03  0.13507400287E+03  0.00000000000E+00 0. -1.
         -5    1    3    3    0  503  0.18296836648E+03 -0.83025046593E+02  0.21648332095E+03  0.29539414304E+03  0.47000000000E+01 0.  1.
         13    1    4    4    0    0  0.49464414462E+02 -0.22481651362E+02  0.18022944824E+03  0.18824135295E+03  0.00000000000E+00 0. -1.
        -14    1    4    4    0    0 -0.11810073089E+01  0.17592539282E+02  0.40278331724E+01  0.18086338953E+02  0.00000000000E+00 0.  1.
<mgrwt>
<rscale>  2 0.30398574E+03</rscale>
<asrwt>0</asrwt>
<pdfrwt beam="1">  1       21 0.11826394E+00 0.30469078E+03</pdfrwt>
<pdfrwt beam="2">  1       21 0.19014430E-01 0.30469078E+03</pdfrwt>
<totfact> 0.13044942E+04</totfact>
</mgrwt>
</event>
<event>
12    1  0.1039378E-001  0.1740902E+03  0.7546771E-02  0.1174098E+00
         21   -1    0    0  501  502  0.00000000000E+00  0.00000000000E+00  0.14971139824E+04  0.14971139824E+04  0.00000000000E+00 0.  1.
         21   -1    0    0  502  503 -0.00000000000E+00 -0.00000000000E+00 -0.23908510489E+02  0.23908510489E+02  0.00000000000E+00 0.  1.
         -6    2    1    2    0  503 -0.30025788119E+02  0.58391557140E+01  0.42749407330E+03  0.46091885874E+03  0.16958587188E+03 0.  0.
        -24    2    3    3    0    0  0.23298301067E+02 -0.41505456646E+02  0.16808546623E+03  0.19184658921E+03  0.79289823242E+02 0.  0.
          6    2    1    2  501    0  0.30025788119E+02 -0.58391557140E+01  0.10457113986E+04  0.10601036342E+04  0.17138186095E+03 0.  0.
         24    2    5    5    0    0  0.63054504945E+02  0.98880648020E+01  0.39366907449E+03  0.40701901173E+03  0.81335670395E+02 0.  0.
          5    1    5    5  501    0 -0.33028716826E+02 -0.15727220516E+02  0.65204232414E+03  0.65308462245E+03  0.47000000000E+01 0. -1.
        -11    1    6    6    0    0  0.28256953018E+02 -0.16540221641E+02  0.31767745364E+03  0.31936029633E+03  0.00000000000E+00 0.  1.
         12    1    6    6    0    0  0.34797551927E+02  0.26428286443E+02  0.75991620853E+02  0.87658715393E+02  0.00000000000E+00 0. -1.
         -5    1    3    3    0  503 -0.53324089186E+02  0.47344612360E+02  0.25940860707E+03  0.26907226953E+03  0.47000000000E+01 0.  1.
         13    1    4    4    0    0  0.43721632348E+01 -0.11408404985E+02 -0.63885644050E+01  0.13786996439E+02  0.00000000000E+00 0. -1.
        -14    1    4    4    0    0  0.18926137833E+02 -0.30097051661E+02  0.17447403063E+03  0.17805959277E+03  0.00000000000E+00 0.  1.
<mgrwt>
<rscale>  2 0.17364653E+03</rscale>
<asrwt>0</asrwt>
<pdfrwt beam="1">  1       21 0.23032515E+00 0.17409017E+03</pdfrwt>
<pdfrwt beam="2">  1       21 0.36782336E-02 0.17409017E+03</pdfrwt>
<totfact> 0.39818761E+04</totfact>
</mgrwt>
</event>
<event>
12    1  0.1039378E-001  0.2006781E+03  0.7546771E-02  0.1149219E+00
         21   -1    0    0  503  502  0.00000000000E+00  0.00000000000E+00  0.95523141883E+03  0.95523141883E+03  0.00000000000E+00 0. -1.
         21   -1    0    0  501  503 -0.00000000000E+00 -0.00000000000E+00 -0.55168933744E+02  0.55168933744E+02  0.00000000000E+00 0. -1.
          6    2    1    2  501    0  0.45214554538E+02 -0.90032356315E+02  0.20442979696E+03  0.28646679206E+03  0.17355546648E+03 0.  0.
         24    2    3    3    0    0  0.24540184710E+01 -0.28282377531E+02  0.19662861968E+02  0.86961319481E+02  0.79810574861E+02 0.  0.
         -6    2    1    2    0  502 -0.45214554538E+02  0.90032356315E+02  0.69563268813E+03  0.72393356052E+03  0.17327660580E+03 0.  0.
        -24    2    5    5    0    0  0.34862563310E+02  0.31582051606E+02  0.24469035243E+03  0.26219785359E+03  0.81618144731E+02 0.  0.
          5    1    3    3  501    0  0.42760536067E+02 -0.61749978784E+02  0.18476693499E+03  0.19950547258E+03  0.47000000000E+01 0. -1.
        -11    1    4    4    0    0 -0.75124900915E+01 -0.36926478000E+02  0.44819088257E+02  0.58555554451E+02  0.00000000000E+00 0.  1.
         12    1    4    4    0    0  0.99665085625E+01  0.86441004692E+01 -0.25156226289E+02  0.28405765030E+02  0.00000000000E+00 0. -1.
         -5    1    5    5    0  502 -0.80077117848E+02  0.58450304709E+02  0.45094233570E+03  0.46173570693E+03  0.47000000000E+01 0.  1.
         13    1    6    6    0    0  0.29384656484E+02  0.10570560997E+02  0.23717231888E+03  0.23921936301E+03  0.00000000000E+00 0. -1.
        -14    1    6    6    0    0  0.54779068260E+01  0.21011490609E+02  0.75180335534E+01  0.22978490580E+02  0.00000000000E+00 0.  1.
<mgrwt>
<rscale>  2 0.20061775E+03</rscale>
<asrwt>0</asrwt>
<pdfrwt beam="1">  1       21 0.14695867E+00 0.20067805E+03</pdfrwt>
<pdfrwt beam="2">  1       21 0.84875289E-02 0.20067805E+03</pdfrwt>
<totfact> 0.33973439E+04</totfact>
</mgrwt>
</event>
<event>
12    1  0.1039378E-001  0.2687860E+03  0.7546771E-02  0.1102026E+00
         21   -1    0    0  503  502  0.00000000000E+00  0.00000000000E+00  0.64203544803E+03  0.64203544803E+03  0.00000000000E+00 0. -1.
         21   -1    0    0  501  503 -0.00000000000E+00 -0.00000000000E+00 -0.11469986297E+03  0.11469986297E+03  0.00000000000E+00 0.  1.
          6    2    1    2  501    0  0.20408587018E+03 -0.23943497836E+02  0.21004277092E+03  0.34112146547E+03  0.17326729378E+03 0.  0.
         24    2    3    3    0    0  0.19667285583E+03 -0.68212494698E+02  0.17571771588E+03  0.28442052836E+03  0.81762856052E+02 0.  0.
         -6    2    1    2    0  502 -0.20408587018E+03  0.23943497836E+02  0.31729281414E+03  0.41561384552E+03  0.17273044083E+03 0.  0.
        -24    2    5    5    0    0 -0.14807143770E+03  0.10354646056E+02  0.31540276795E+03  0.35775249561E+03  0.80470943358E+02 0.  0.
          5    1    3    3  501    0  0.74130143563E+01  0.44268996863E+02  0.34325055044E+02  0.56700937107E+02  0.47000000000E+01 0. -1.
        -11    1    4    4    0    0  0.39409068211E+02 -0.51888364829E+02  0.58959309919E+02  0.87873074875E+02  0.00000000000E+00 0.  1.
         12    1    4    4    0    0  0.15726378761E+03 -0.16324129870E+02  0.11675840596E+03  0.19654745349E+03  0.00000000000E+00 0. -1.
         -5    1    5    5    0  502 -0.56014432486E+02  0.13588851780E+02  0.18900461883E+01  0.57861349915E+02  0.47000000000E+01 0.  1.
         13    1    6    6    0    0 -0.57579921965E+02 -0.34358910397E+02  0.10859933676E+03  0.12763149330E+03  0.00000000000E+00 0. -1.
        -14    1    6    6    0    0 -0.90491515732E+02  0.44713556453E+02  0.20680343120E+03  0.23012100231E+03  0.00000000000E+00 0.  1.
<mgrwt>
<rscale>  2 0.26869947E+03</rscale>
<asrwt>0</asrwt>
<pdfrwt beam="1">  1       21 0.98774682E-01 0.26878595E+03</pdfrwt>
<pdfrwt beam="2">  1       21 0.17646133E-01 0.26878595E+03</pdfrwt>
<totfact> 0.23654231E+04</totfact>
</mgrwt>
</event>
<event>
12    1  0.1039378E-001  0.2048757E+03  0.7546771E-02  0.1145721E+00
         21   -1    0    0  503  502  0.00000000000E+00  0.00000000000E+00  0.95968681058E+02  0.95968681058E+02  0.00000000000E+00 0.  1.
         21   -1    0    0  501  503 -0.00000000000E+00 -0.00000000000E+00 -0.48557512259E+03  0.48557512259E+03  0.00000000000E+00 0.  1.
          6    2    1    2  501    0 -0.59303545672E+02 -0.94041667175E+02 -0.10294124259E+03  0.22928358675E+03  0.17208520573E+03 0.  0.
         24    2    3    3    0    0  0.76228679950E+01 -0.10888761084E+03 -0.71482815469E+02  0.15371064499E+03  0.81256074023E+02 0.  0.
         -6    2    1    2    0  502  0.59303545672E+02  0.94041667175E+02 -0.28666519895E+03  0.35226021690E+03  0.17189990818E+03 0.  0.
        -24    2    5    5    0    0  0.95160723118E+01 -0.13660861265E+02 -0.75818333487E+02  0.11027443672E+03  0.78325327569E+02 0.  0.
          5    1    3    3  501    0 -0.66926413667E+02  0.14845943661E+02 -0.31458427122E+02  0.75572941761E+02  0.47000000000E+01 0. -1.
        -11    1    4    4    0    0  0.43204080664E+02 -0.56948213918E+02 -0.26089263676E+02  0.76094292385E+02  0.00000000000E+00 0.  1.
         12    1    4    4    0    0 -0.35581212669E+02 -0.51939396918E+02 -0.45393551792E+02  0.77616352603E+02  0.00000000000E+00 0. -1.
         -5    1    5    5    0  502  0.49787473360E+02  0.10770252844E+03 -0.21084686546E+03  0.24198578018E+03  0.47000000000E+01 0.  1.
         11    1    6    6    0    0  0.35395271992E+02 -0.28330824612E+01 -0.73212776798E+01  0.36255382255E+02  0.00000000000E+00 0. -1.
        -12    1    6    6    0    0 -0.25879199680E+02 -0.10827778803E+02 -0.68497055807E+02  0.74019054467E+02  0.00000000000E+00 0.  1.
<mgrwt>
<rscale>  2 0.20483681E+03</rscale>
<asrwt>0</asrwt>
<pdfrwt beam="1">  1       21 0.14764412E-01 0.20487573E+03</pdfrwt>
<pdfrwt beam="2">  1       21 0.74703867E-01 0.20487573E+03</pdfrwt>
<totfact> 0.64393992E+04</totfact>
</mgrwt>
</event>
<event>
12    1  0.1039378E-001  0.2145769E+03  0.7546771E-02  0.1138472E+00
         21   -1    0    0  503  502  0.00000000000E+00  0.00000000000E+00  0.11392420748E+03  0.11392420748E+03  0.00000000000E+00 0. -1.
         21   -1    0    0  501  503 -0.00000000000E+00 -0.00000000000E+00 -0.53906427204E+03  0.53906427204E+03  0.00000000000E+00 0.  1.
          6    2    1    2  501    0  0.44954179479E+02  0.11397180637E+03 -0.37960550337E+03  0.43605458988E+03  0.17616133589E+03 0.  0.
         24    2    3    3    0    0  0.89236074682E+02  0.11359725443E+03 -0.33238360343E+03  0.37114677551E+03  0.80022846132E+02 0.  0.
         -6    2    1    2    0  502 -0.44954179479E+02 -0.11397180637E+03 -0.45534561190E+02  0.21693388965E+03  0.17313712864E+03 0.  0.
        -24    2    5    5    0    0  0.58367882492E+01 -0.66399327647E+02  0.33119485233E+02  0.11180819273E+03  0.83434002957E+02 0.  0.
          5    1    3    3  501    0 -0.44281895203E+02  0.37455194166E+00 -0.47221899939E+02  0.64907814366E+02  0.47000000000E+01 0. -1.
        -13    1    4    4    0    0 -0.43588163985E+01  0.52733951337E+02 -0.92748176385E+02  0.10678058403E+03  0.00000000000E+00 0.  1.
         14    1    4    4    0    0  0.93594891080E+02  0.60863303093E+02 -0.23963542705E+03  0.26436619148E+03  0.00000000000E+00 0. -1.
         -5    1    5    5    0  502 -0.50790967728E+02 -0.47572478726E+02 -0.78654046423E+02  0.10512569692E+03  0.47000000000E+01 0.  1.
         13    1    6    6    0    0 -0.30903773202E+02 -0.50833246043E+02  0.39485623698E+02  0.71401516653E+02  0.00000000000E+00 0. -1.
        -14    1    6    6    0    0  0.36740561452E+02 -0.15566081603E+02 -0.63661384656E+01  0.40406676072E+02  0.00000000000E+00 0.  1.
<mgrwt>
<rscale>  2 0.21395531E+03</rscale>
<asrwt>0</asrwt>
<pdfrwt beam="1">  1       21 0.17526801E-01 0.21457695E+03</pdfrwt>
<pdfrwt beam="2">  1       21 0.82932965E-01 0.21457695E+03</pdfrwt>
<totfact> 0.36951131E+04</totfact>
</mgrwt>
</event>
<event>
12    1  0.1039378E-001  0.2524570E+03  0.7546771E-02  0.1112274E+00
         21   -1    0    0  503  502  0.00000000000E+00  0.00000000000E+00  0.82896531551E+02  0.82896531551E+02  0.00000000000E+00 0.  1.
         21   -1    0    0  501  503 -0.00000000000E+00 -0.00000000000E+00 -0.12149900565E+04  0.12149900565E+04  0.00000000000E+00 0.  1.
          6    2    1    2  501    0  0.71605351893E+02 -0.16472172234E+03 -0.96132248345E+03  0.99309598890E+03  0.17273723905E+03 0.  0.
         24    2    3    3    0    0  0.78454723295E+01 -0.14880007173E+03 -0.81868892516E+03  0.83598060725E+03  0.80056272320E+02 0.  0.
         -6    2    1    2    0  502 -0.71605351893E+02  0.16472172234E+03 -0.17077104148E+03  0.30479059914E+03  0.17740909920E+03 0.  0.
        -24    2    5    5    0    0 -0.54314634719E+02  0.17768954956E+03 -0.19001682194E+03  0.27547126237E+03  0.72487020931E+02 0.  0.
          5    1    3    3  501    0  0.63759879564E+02 -0.15921650610E+02 -0.14263355829E+03  0.15711538165E+03  0.47000000000E+01 0. -1.
        -11    1    4    4    0    0  0.18268181835E+02 -0.15431021885E+03 -0.78644305990E+03  0.80164708980E+03  0.00000000000E+00 0.  1.
         12    1    4    4    0    0 -0.10422709505E+02  0.55101471181E+01 -0.32245865259E+02  0.34333517457E+02  0.00000000000E+00 0. -1.
         -5    1    5    5    0  502 -0.17290717174E+02 -0.12967827217E+02  0.19245780454E+02  0.29319336766E+02  0.47000000000E+01 0.  1.
         11    1    6    6    0    0 -0.18795816754E+02  0.42933581337E+02 -0.10183357698E+02  0.47961191686E+02  0.00000000000E+00 0. -1.
        -12    1    6    6    0    0 -0.35518817965E+02  0.13475596822E+03 -0.17983346424E+03  0.22751007068E+03  0.00000000000E+00 0.  1.
<mgrwt>
<rscale>  2 0.25163785E+03</rscale>
<asrwt>0</asrwt>
<pdfrwt beam="1">  1       21 0.12753312E-01 0.25245705E+03</pdfrwt>
<pdfrwt beam="2">  1       21 0.18692155E+00 0.25245705E+03</pdfrwt>
<totfact> 0.82224071E+03</totfact>
</mgrwt>
</event>
<event>
12    1  0.1039378E-001  0.1775333E+03  0.7546771E-02  0.1170483E+00
         21   -1    0    0  501  502  0.00000000000E+00  0.00000000000E+00  0.10120091240E+03  0.10120091240E+03  0.00000000000E+00 0.  1.
         21   -1    0    0  502  503 -0.00000000000E+00 -0.00000000000E+00 -0.30992769187E+03  0.30992769187E+03  0.00000000000E+00 0.  1.
         -6    2    1    2    0  503  0.35832480161E+02 -0.97487564691E+01 -0.97221761463E+02  0.20241082143E+03  0.17360606223E+03 0.  0.
        -24    2    3    3    0    0  0.46591621544E+02  0.26772588202E+02  0.15636308612E+01  0.96438129307E+02  0.80064456319E+02 0.  0.
          6    2    1    2  501    0 -0.35832480161E+02  0.97487564691E+01 -0.11150501801E+03  0.20871778284E+03  0.17248402519E+03 0.  0.
         24    2    5    5    0    0 -0.29647785262E+02  0.65134290183E+02 -0.32352275120E+02  0.11180001098E+03  0.79568246310E+02 0.  0.
          5    1    5    5  501    0 -0.61846948987E+01 -0.55385533714E+02 -0.79152742888E+02  0.96917771860E+02  0.47000000000E+01 0. -1.
        -13    1    6    6    0    0 -0.41913179696E+02  0.20754488880E+02 -0.44098571249E+02  0.64281781455E+02  0.00000000000E+00 0.  1.
         14    1    6    6    0    0  0.12265394434E+02  0.44379801303E+02  0.11746296129E+02  0.47518229524E+02  0.00000000000E+00 0. -1.
         -5    1    3    3    0  503 -0.10759141383E+02 -0.36521344671E+02 -0.98785392325E+02  0.10597269213E+03  0.47000000000E+01 0.  1.
         13    1    4    4    0    0 -0.61526710761E+01  0.28642750805E+02 -0.23928736081E+02  0.37826537582E+02  0.00000000000E+00 0. -1.
        -14    1    4    4    0    0  0.52744292620E+02 -0.18701626028E+01  0.25492366943E+02  0.58611591724E+02  0.00000000000E+00 0.  1.
<mgrwt>
<rscale>  2 0.17725839E+03</rscale>
<asrwt>0</asrwt>
<pdfrwt beam="1">  1       21 0.15569372E-01 0.17753329E+03</pdfrwt>
<pdfrwt beam="2">  1       21 0.47681182E-01 0.17753329E+03</pdfrwt>
<totfact> 0.15489318E+05</totfact>
</mgrwt>
</event>
<event>
12    1  0.1039378E-001  0.2655785E+03  0.7546771E-02  0.1104207E+00
         21   -1    0    0  501  502  0.00000000000E+00  0.00000000000E+00  0.25861871107E+03  0.25861871107E+03  0.00000000000E+00 0.  1.
         21   -1    0    0  502  503 -0.00000000000E+00 -0.00000000000E+00 -0.41477248234E+03  0.41477248234E+03  0.00000000000E+00 0. -1.
         -6    2    1    2    0  503  0.14537813830E+03 -0.13956689528E+03 -0.27713402432E+03  0.38384267722E+03  0.17296881819E+03 0.  0.
        -24    2    3    3    0    0  0.75935134604E+02 -0.14426337220E+03 -0.24870020404E+03  0.30851034821E+03  0.82150947877E+02 0.  0.
          6    2    1    2  501    0 -0.14537813830E+03  0.13956689528E+03  0.12098025304E+03  0.28954851619E+03  0.16908104640E+03 0.  0.
         24    2    5    5    0    0 -0.18054827133E+02  0.15171968326E+02  0.28343633174E+02  0.88827424233E+02  0.80813268395E+02 0.  0.
          5    1    5    5  501    0 -0.12732331117E+03  0.12439492695E+03  0.92636619864E+02  0.20072109196E+03  0.47000000000E+01 0. -1.
        -11    1    6    6    0    0  0.28410630253E+02  0.22643046787E+02  0.63547791093E+01  0.36881630885E+02  0.00000000000E+00 0.  1.
         12    1    6    6    0    0 -0.46465457386E+02 -0.74710784615E+01  0.21988854065E+02  0.51945793348E+02  0.00000000000E+00 0. -1.
         -5    1    3    3    0  503  0.69443003697E+02  0.46964769177E+01 -0.28433820271E+02  0.75332329004E+02  0.47000000000E+01 0.  1.
         11    1    4    4    0    0  0.18863034697E+02 -0.15371815337E+02 -0.10279016938E+03  0.10563108305E+03  0.00000000000E+00 0. -1.
        -12    1    4    4    0    0  0.57072099908E+02 -0.12889155686E+03 -0.14591003466E+03  0.20287926516E+03  0.00000000000E+00 0.  1.
<mgrwt>
<rscale>  2 0.26494736E+03</rscale>
<asrwt>0</asrwt>
<pdfrwt beam="1">  1       21 0.39787495E-01 0.26557849E+03</pdfrwt>
<pdfrwt beam="2">  1       21 0.63811150E-01 0.26557849E+03</pdfrwt>
<totfact> 0.13248218E+04</totfact>
</mgrwt>
</event>
<event>
12    1  0.1039378E-001  0.1918897E+03  0.7546771E-02  0.1157117E+00
         21   -1    0    0  501  502  0.00000000000E+00  0.00000000000E+00  0.16049085022E+03  0.16049085022E+03  0.00000000000E+00 0.  1.
         21   -1    0    0  502  503 -0.00000000000E+00 -0.00000000000E+00 -0.28224072519E+03  0.28224072519E+03  0.00000000000E+00 0. -1.
         -6    2    1    2    0  503 -0.53900416135E+02  0.58590396323E+02 -0.15850352227E+03  0.24888760828E+03  0.17459549131E+03 0.  0.
        -24    2    3    3    0    0  0.16503264849E+00 -0.30406369199E+02 -0.92085463078E+02  0.12528766649E+03  0.79326492043E+02 0.  0.
          6    2    1    2  501    0  0.53900416135E+02 -0.58590396323E+02  0.36753647295E+02  0.19384396713E+03  0.17287730794E+03 0.  0.
         24    2    5    5    0    0 -0.22778029023E+01 -0.84043111711E+02 -0.91096038091E+01  0.11684162420E+03  0.80625971324E+02 0.  0.
          5    1    5    5  501    0  0.56178219037E+02  0.25452715388E+02  0.45863251104E+02  0.77002342930E+02  0.47000000000E+01 0. -1.
        -11    1    6    6    0    0  0.13132360085E+02 -0.40514733327E+02  0.33364140353E+02  0.54102387743E+02  0.00000000000E+00 0.  1.
         12    1    6    6    0    0 -0.15410162988E+02 -0.43528378384E+02 -0.42473744162E+02  0.62739236457E+02  0.00000000000E+00 0. -1.
         -5    1    3    3    0  503 -0.54065448783E+02  0.88996765522E+02 -0.66418059189E+02  0.12359994180E+03  0.47000000000E+01 0.  1.
         11    1    4    4    0    0  0.27544438414E+02  0.15408616416E+02 -0.35551523894E+02  0.47539798050E+02  0.00000000000E+00 0. -1.
        -12    1    4    4    0    0 -0.27379405766E+02 -0.45814985614E+02 -0.56533939184E+02  0.77747868438E+02  0.00000000000E+00 0.  1.
<mgrwt>
<rscale>  2 0.19149805E+03</rscale>
<asrwt>0</asrwt>
<pdfrwt beam="1">  1       21 0.24690900E-01 0.19188975E+03</pdfrwt>
<pdfrwt beam="2">  1       21 0.43421650E-01 0.19188975E+03</pdfrwt>
<totfact> 0.79105159E+04</totfact>
</mgrwt>
</event>
<event>
12    1  0.1039378E-001  0.2010839E+03  0.7546771E-02  0.1151720E+00
         21   -1    0    0  501  502  0.00000000000E+00  0.00000000000E+00  0.10236180586E+04  0.10236180586E+04  0.00000000000E+00 0.  1.
         21   -1    0    0  502  503 -0.00000000000E+00 -0.00000000000E+00 -0.39018326037E+02  0.39018326037E+02  0.00000000000E+00 0. -1.
         -6    2    1    2    0  503  0.96879050866E+02 -0.31422559988E+02  0.63109575888E+03  0.66235684055E+03  0.17338338899E+03 0.  0.
        -24    2    3    3    0    0  0.67335408146E+02  0.43741595974E+01  0.17754593536E+03  0.20641412006E+03  0.80814845999E+02 0.  0.
          6    2    1    2  501    0 -0.96879050866E+02  0.31422559988E+02  0.35350397371E+03  0.40027954411E+03  0.15775210373E+03 0.  0.
         24    2    5    5    0    0 -0.81183294095E+02 -0.31875580282E+02  0.26515717196E+03  0.29036931382E+03  0.79995204295E+02 0.  0.
          5    1    5    5  501    0 -0.15695756771E+02  0.63298140270E+02  0.88346801749E+02  0.10991023029E+03  0.47000000000E+01 0. -1.
        -13    1    6    6    0    0 -0.66020148724E+02  0.15191904058E+02  0.17283870006E+03  0.18564124063E+03  0.00000000000E+00 0.  1.
         14    1    6    6    0    0 -0.15163145371E+02 -0.47067484340E+02  0.92318471900E+02  0.10472807319E+03  0.00000000000E+00 0. -1.
         -5    1    3    3    0  503  0.29543642720E+02 -0.35796719586E+02  0.45354982352E+03  0.45594272049E+03  0.47000000000E+01 0.  1.
         13    1    4    4    0    0  0.43019418695E+02  0.38629510228E+02  0.68992885839E+02  0.90016263762E+02  0.00000000000E+00 0. -1.
        -14    1    4    4    0    0  0.24315989451E+02 -0.34255350631E+02  0.10855304952E+03  0.11639785629E+03  0.00000000000E+00 0.  1.
<mgrwt>
<rscale>  2 0.19767018E+03</rscale>
<asrwt>0</asrwt>
<pdfrwt beam="1">  1       21 0.15747968E+00 0.20108388E+03</pdfrwt>
<pdfrwt beam="2">  1       21 0.60028202E-02 0.20108388E+03</pdfrwt>
<totfact> 0.51501856E+04</totfact>
</mgrwt>
</event>
<event>
12    1  0.1039378E-001  0.2187958E+03  0.7546771E-02  0.1134790E+00
         21   -1    0    0  503  502  0.00000000000E+00  0.00000000000E+00  0.39338985041E+03  0.39338985041E+03  0.00000000000E+00 0.  1.
         21   -1    0    0  501  503 -0.00000000000E+00 -0.00000000000E+00 -0.17577714158E+03  0.17577714158E+03  0.00000000000E+00 0.  1.
          6    2    1    2  501    0 -0.43602365218E+02  0.12749333515E+03 -0.49075086359E+02  0.22423197878E+03  0.17238300219E+03 0.  0.
         24    2    3    3    0    0 -0.64179758540E+01  0.98742406376E+02 -0.95329528531E+02  0.15811951295E+03  0.78248374638E+02 0.  0.
         -6    2    1    2    0  502  0.43602365218E+02 -0.12749333515E+03  0.26668779519E+03  0.34493501321E+03  0.17234287473E+03 0.  0.
        -24    2    5    5    0    0  0.77787004786E+02 -0.63891807279E+02  0.10095288489E+03  0.16409283223E+03  0.81252639769E+02 0.  0.
          5    1    3    3  501    0 -0.37184389364E+02  0.28750928776E+02  0.46254442172E+02  0.66112465833E+02  0.47000000000E+01 0. -1.
        -11    1    4    4    0    0 -0.29512700497E+02  0.27740903018E+02 -0.66942099892E+02  0.78241944817E+02  0.00000000000E+00 0.  1.
         12    1    4    4    0    0  0.23094724643E+02  0.71001503358E+02 -0.28387428639E+02  0.79877568129E+02  0.00000000000E+00 0. -1.
         -5    1    5    5    0  502 -0.34184639567E+02 -0.63601527874E+02  0.16573491030E+03  0.18084218098E+03  0.47000000000E+01 0.  1.
         11    1    6    6    0    0  0.32194325094E+02 -0.14947670683E+02 -0.78691073728E+01  0.36356983895E+02  0.00000000000E+00 0. -1.
        -12    1    6    6    0    0  0.45592679692E+02 -0.48944136595E+02  0.10882199227E+03  0.12773584833E+03  0.00000000000E+00 0.  1.
<mgrwt>
<rscale>  2 0.21878793E+03</rscale>
<asrwt>0</asrwt>
<pdfrwt beam="1">  1       21 0.60521515E-01 0.21879583E+03</pdfrwt>
<pdfrwt beam="2">  1       21 0.27042637E-01 0.21879583E+03</pdfrwt>
<totfact> 0.32686371E+04</totfact>
</mgrwt>
</event>
<event>
12    1  0.1039378E-001  0.1796502E+03  0.7546771E-02  0.1168189E+00
         21   -1    0    0  501  502  0.00000000000E+00  0.00000000000E+00  0.16290705469E+04  0.16290705469E+04  0.00000000000E+00 0. -1.
         21   -1    0    0  502  503 -0.00000000000E+00 -0.00000000000E+00 -0.67810519899E+02  0.67810519899E+02  0.00000000000E+00 0. -1.
         -6    2    1    2    0  503  0.28375922039E+02 -0.40750610577E+02  0.66772780390E+02  0.19165802497E+03  0.17265106174E+03 0.  0.
        -24    2    3    3    0    0 -0.10453269135E+02 -0.74508448670E+02  0.37392925483E+01  0.11015582678E+03  0.80371289069E+02 0.  0.
          6    2    1    2  501    0 -0.28375922039E+02  0.40750610577E+02  0.14944872466E+04  0.15052230418E+04  0.17244845652E+03 0.  0.
         24    2    5    5    0    0  0.16557954948E+01 -0.41930971274E+02  0.70866286398E+03  0.71447643363E+03  0.80700504477E+02 0.  0.
          5    1    5    5  501    0 -0.30031717534E+02  0.82681581851E+02  0.78582438262E+03  0.79074660818E+03  0.47000000000E+01 0. -1.
        -11    1    6    6    0    0  0.19077624086E+01 -0.52693484553E+02  0.69539164578E+03  0.69738782889E+03  0.00000000000E+00 0.  1.
         12    1    6    6    0    0 -0.25196691381E+00  0.10762513279E+02  0.13271218204E+02  0.17088604742E+02  0.00000000000E+00 0. -1.
         -5    1    3    3    0  503  0.38829191174E+02  0.33757838093E+02  0.63033487842E+02  0.81502198188E+02  0.47000000000E+01 0.  1.
         13    1    4    4    0    0  0.39018207206E+01 -0.31606204345E+02 -0.37320398576E+02  0.49061069168E+02  0.00000000000E+00 0. -1.
        -14    1    4    4    0    0 -0.14355089855E+02 -0.42902244325E+02  0.41059691124E+02  0.61094757615E+02  0.00000000000E+00 0.  1.
<mgrwt>
<rscale>  2 0.17960150E+03</rscale>
<asrwt>0</asrwt>
<pdfrwt beam="1">  1       21 0.25062621E+00 0.17965020E+03</pdfrwt>
<pdfrwt beam="2">  1       21 0.10432389E-01 0.17965020E+03</pdfrwt>
<totfact> 0.50335755E+03</totfact>
</mgrwt>
</event>
<event>
12    1  0.1039378E-001  0.1888999E+03  0.7546771E-02  0.1159893E+00
         21   -1    0    0  503  502  0.00000000000E+00  0.00000000000E+00  0.72791268064E+02  0.72791268064E+02  0.00000000000E+00 0.  1.
         21   -1    0    0  501  503 -0.00000000000E+00 -0.00000000000E+00 -0.72313771979E+03  0.72313771979E+03  0.00000000000E+00 0. -1.
          6    2    1    2  501    0 -0.56683640147E+02 -0.49641320347E+02 -0.55230726282E+03  0.58310313830E+03  0.17113930461E+03 0.  0.
         24    2    3    3    0    0  0.36568951169E+01 -0.51289032738E+02 -0.16856050706E+03  0.19460943474E+03  0.82560582518E+02 0.  0.
         -6    2    1    2    0  502  0.56683640147E+02  0.49641320347E+02 -0.98039188904E+02  0.21282584955E+03  0.17322200764E+03 0.  0.
        -24    2    5    5    0    0  0.88002266620E+02  0.10362196009E+01 -0.97972651202E+02  0.15481372487E+03  0.81382899584E+02 0.  0.
          5    1    3    3  501    0 -0.60340535264E+02  0.16477123911E+01 -0.38374675576E+03  0.38849370356E+03  0.47000000000E+01 0. -1.
        -11    1    4    4    0    0  0.28716894113E+02 -0.60862586244E+02 -0.14051716584E+03  0.15580111780E+03  0.00000000000E+00 0.  1.
         12    1    4    4    0    0 -0.25059998996E+02  0.95735535063E+01 -0.28043341219E+02  0.38808316933E+02  0.00000000000E+00 0. -1.
         -5    1    5    5    0  502 -0.31318626473E+02  0.48605100746E+02 -0.66537701713E-01  0.58012124680E+02  0.47000000000E+01 0.  1.
         11    1    6    6    0    0  0.38857550285E+02 -0.38589537168E+02 -0.31662267912E+02  0.63257891226E+02  0.00000000000E+00 0. -1.
        -12    1    6    6    0    0  0.49144716335E+02  0.39625756768E+02 -0.66310383290E+02  0.91555833649E+02  0.00000000000E+00 0.  1.
<mgrwt>
<rscale>  2 0.18842105E+03</rscale>
<asrwt>0</asrwt>
<pdfrwt beam="1">  1       21 0.11198657E-01 0.18889987E+03</pdfrwt>
<pdfrwt beam="2">  1       21 0.11125196E+00 0.18889987E+03</pdfrwt>
<totfact> 0.42268175E+04</totfact>
</mgrwt>
</event>
<event>
12    1  0.1039378E-001  0.2097537E+03  0.7546771E-02  0.1141852E+00
         21   -1    0    0  501  502  0.00000000000E+00  0.00000000000E+00  0.55350515654E+03  0.55350515654E+03  0.00000000000E+00 0. -1.
         21   -1    0    0  502  503 -0.00000000000E+00 -0.00000000000E+00 -0.18126634474E+03  0.18126634474E+03  0.00000000000E+00 0.  1.
         -6    2    1    2    0  503 -0.14301817654E+02  0.11766320980E+03 -0.89496493579E+02  0.22762645171E+03  0.17249639482E+03 0.  0.
        -24    2    3    3    0    0  0.84892348989E+01  0.88918130828E+02  0.11372514103E+02  0.12019108345E+03  0.79611942356E+02 0.  0.
          6    2    1    2  501    0  0.14301817654E+02 -0.11766320980E+03  0.46173530538E+03  0.50714504956E+03  0.17305327543E+03 0.  0.
         24    2    5    5    0    0  0.54227960425E+02 -0.72998822518E+02  0.16776878186E+03  0.20709936751E+03  0.80462936045E+02 0.  0.
          5    1    5    5  501    0 -0.39926142771E+02 -0.44664387287E+02  0.29396652352E+03  0.30004568205E+03  0.47000000000E+01 0. -1.
        -13    1    6    6    0    0  0.65899369657E+02 -0.33393743736E+02  0.73628363477E+02  0.10430246857E+03  0.00000000000E+00 0.  1.
         14    1    6    6    0    0 -0.11671409232E+02 -0.39605078782E+02  0.94140418383E+02  0.10279689894E+03  0.00000000000E+00 0. -1.
         -5    1    3    3    0  503 -0.22791052553E+02  0.28745078976E+02 -0.10086900768E+03  0.10743536826E+03  0.47000000000E+01 0.  1.
         11    1    4    4    0    0  0.32512221792E+02  0.79998019203E+02 -0.98581835229E+01  0.86913240790E+02  0.00000000000E+00 0. -1.
        -12    1    4    4    0    0 -0.24022986893E+02  0.89201116253E+01  0.21230697626E+02  0.33277842664E+02  0.00000000000E+00 0.  1.
<mgrwt>
<rscale>  2 0.20963879E+03</rscale>
<asrwt>0</asrwt>
<pdfrwt beam="1">  1       21 0.85154639E-01 0.20975369E+03</pdfrwt>
<pdfrwt beam="2">  1       21 0.27887130E-01 0.20975369E+03</pdfrwt>
<totfact> 0.14491968E+04</totfact>
</mgrwt>
</event>
<event>
12    1  0.1039378E-001  0.1957939E+03  0.7546771E-02  0.1153845E+00
         21   -1    0    0  501  502  0.00000000000E+00  0.00000000000E+00  0.82846540752E+02  0.82846540752E+02  0.00000000000E+00 0. -1.
         21   -1    0    0  502  503 -0.00000000000E+00 -0.00000000000E+00 -0.10448929353E+04  0.10448929353E+04  0.00000000000E+00 0. -1.
         -6    2    1    2    0  503 -0.43301114392E+02  0.79760368417E+02 -0.90262782087E+03  0.92312812150E+03  0.17085620505E+03 0.  0.
        -24    2    3    3    0    0 -0.27983195841E+02  0.10338802506E+03 -0.86814427160E+03  0.87836083480E+03  0.79819401377E+02 0.  0.
          6    2    1    2  501    0  0.43301114392E+02 -0.79760368417E+02 -0.59418573718E+02  0.20461135460E+03  0.17348929838E+03 0.  0.
         24    2    5    5    0    0  0.53647169679E+02  0.20149015978E+01 -0.74096604060E+02  0.12075570350E+03  0.78800726852E+02 0.  0.
          5    1    5    5  501    0 -0.10346055287E+02 -0.81775270015E+02  0.14678030343E+02  0.83855651096E+02  0.47000000000E+01 0. -1.
        -13    1    6    6    0    0  0.65830081676E+02 -0.83789236510E+01 -0.28125801690E+02  0.72075423938E+02  0.00000000000E+00 0.  1.
         14    1    6    6    0    0 -0.12182911998E+02  0.10393825249E+02 -0.45970802370E+02  0.48680279566E+02  0.00000000000E+00 0. -1.
         -5    1    3    3    0  503 -0.15317918551E+02 -0.23627656641E+02 -0.34483549276E+02  0.44767286692E+02  0.47000000000E+01 0.  1.
         11    1    4    4    0    0 -0.24533700723E+02  0.10128099388E+03 -0.52763192392E+03  0.53782449678E+03  0.00000000000E+00 0. -1.
        -12    1    4    4    0    0 -0.34494951179E+01  0.21070311751E+01 -0.34051234768E+03  0.34053633803E+03  0.00000000000E+00 0.  1.
<mgrwt>
<rscale>  2 0.19520893E+03</rscale>
<asrwt>0</asrwt>
<pdfrwt beam="1">  1       21 0.12745621E-01 0.19579387E+03</pdfrwt>
<pdfrwt beam="2">  1       21 0.16075277E+00 0.19579387E+03</pdfrwt>
<totfact> 0.13059611E+04</totfact>
</mgrwt>
</event>
<event>
12    1  0.1039378E-001  0.1778110E+03  0.7546771E-02  0.1170119E+00
         21   -1    0    0  503  502  0.00000000000E+00  0.00000000000E+00  0.41848946114E+03  0.41848946114E+03  0.00000000000E+00 0.  1.
         21   -1    0    0  501  503 -0.00000000000E+00 -0.00000000000E+00 -0.76964249137E+02  0.76964249137E+02  0.00000000000E+00 0.  1.
          6    2    1    2  501    0 -0.44400903834E+00 -0.41028330810E+02  0.13331778919E+03  0.22165252022E+03  0.17225761444E+03 0.  0.
         24    2    3    3    0    0  0.83891573585E+01 -0.84873285639E+02  0.13234180782E+03  0.17666977428E+03  0.80149875046E+02 0.  0.
         -6    2    1    2    0  502  0.44400903834E+00  0.41028330810E+02  0.20820742281E+03  0.27380119006E+03  0.17301225301E+03 0.  0.
        -24    2    5    5    0    0  0.40453324545E+02  0.21738752759E+02  0.70174933500E+02  0.12872227617E+03  0.97651719152E+02 0.  0.
          5    1    3    3  501    0 -0.88331663968E+01  0.43844954829E+02  0.97598136944E+00  0.44982745939E+02  0.47000000000E+01 0. -1.
        -11    1    4    4    0    0 -0.21320949817E+02 -0.48991869161E+02  0.23678947921E+02  0.58442097153E+02  0.00000000000E+00 0.  1.
         12    1    4    4    0    0  0.29710107175E+02 -0.35881416479E+02  0.10866285990E+03  0.11822767713E+03  0.00000000000E+00 0. -1.
         -5    1    5    5    0  502 -0.40009315507E+02  0.19289578051E+02  0.13803248931E+03  0.14507891388E+03  0.47000000000E+01 0.  1.
         13    1    6    6    0    0 -0.28440860586E+02 -0.12288541245E+02  0.17807491080E+02  0.35735102285E+02  0.00000000000E+00 0. -1.
        -14    1    6    6    0    0  0.68894185131E+02  0.34027294003E+02  0.52367442421E+02  0.92987173888E+02  0.00000000000E+00 0.  1.
<mgrwt>
<rscale>  2 0.17762719E+03</rscale>
<asrwt>0</asrwt>
<pdfrwt beam="1">  1       21 0.64382993E-01 0.17781103E+03</pdfrwt>
<pdfrwt beam="2">  1       21 0.11840654E-01 0.17781103E+03</pdfrwt>
<totfact> 0.13442868E+05</totfact>
</mgrwt>
</event>
<event>
12    1  0.1039378E-001  0.2818656E+03  0.7546771E-02  0.1094783E+00
         21   -1    0    0  503  502  0.00000000000E+00  0.00000000000E+00  0.11594236632E+04  0.11594236632E+04  0.00000000000E+00 0. -1.
         21   -1    0    0  501  503 -0.00000000000E+00 -0.00000000000E+00 -0.33956997446E+03  0.33956997446E+03  0.00000000000E+00 0.  1.
          6    2    1    2  501    0 -0.12067213857E+03  0.18595028169E+03 -0.26004975361E+03  0.38291136145E+03  0.17278878460E+03 0.  0.
         24    2    3    3    0    0 -0.72289738745E+02  0.20269862877E+03 -0.22105658154E+03  0.31838290872E+03  0.78670985064E+02 0.  0.
         -6    2    1    2    0  502  0.12067213857E+03 -0.18595028169E+03  0.10799034424E+04  0.11160822762E+04  0.17409460121E+03 0.  0.
        -24    2    5    5    0    0  0.89761386727E+02 -0.11576251225E+03  0.95127797984E+03  0.96625438440E+03  0.85203724407E+02 0.  0.
          5    1    3    3  501    0 -0.48382399821E+02 -0.16748347084E+02 -0.38993172075E+02  0.64528452723E+02  0.47000000000E+01 0. -1.
        -11    1    4    4    0    0 -0.36512620453E+02  0.10515899500E+03 -0.16850478214E+03  0.20195407222E+03  0.00000000000E+00 0.  1.
         12    1    4    4    0    0 -0.35777118291E+02  0.97539633769E+02 -0.52551799399E+02  0.11642883650E+03  0.00000000000E+00 0. -1.
         -5    1    5    5    0  502  0.30910751838E+02 -0.70187769433E+02  0.12862546253E+03  0.14982789183E+03  0.47000000000E+01 0.  1.
         13    1    6    6    0    0  0.24952021683E+02 -0.72550103294E+02  0.27487892906E+03  0.28538490940E+03  0.00000000000E+00 0. -1.
        -14    1    6    6    0    0  0.64809365044E+02 -0.43212408959E+02  0.67639905078E+03  0.68086947500E+03  0.00000000000E+00 0.  1.
<mgrwt>
<rscale>  2 0.28166419E+03</rscale>
<asrwt>0</asrwt>
<pdfrwt beam="1">  1       21 0.17837287E+00 0.28186558E+03</pdfrwt>
<pdfrwt beam="2">  1       21 0.52241535E-01 0.28186558E+03</pdfrwt>
<totfact> 0.59571805E+02</totfact>
</mgrwt>
</event>
<event>
12    1  0.1039378E-001  0.2013706E+03  0.7546771E-02  0.1149219E+00
         21   -1    0    0  503  502  0.00000000000E+00  0.00000000000E+00  0.17345348330E+03  0.17345348330E+03  0.00000000000E+00 0.  1.
         21   -1    0    0  501  503 -0.00000000000E+00 -0.00000000000E+00 -0.23381865359E+03  0.23381865359E+03  0.00000000000E+00 0. -1.
          6    2    1    2  501    0 -0.51364924832E+02  0.89163462610E+02 -0.50295692414E+01  0.19843695214E+03  0.16959790341E+03 0.  0.
         24    2    3    3    0    0 -0.74474352570E+02  0.11777686881E+03 -0.28018101104E+01  0.16129094864E+03  0.81173271193E+02 0.  0.
         -6    2    1    2    0  502  0.51364924832E+02 -0.89163462610E+02 -0.55335601050E+02  0.20883518476E+03  0.17309427224E+03 0.  0.
        -24    2    5    5    0    0  0.79141496939E+02 -0.49785648240E+02 -0.87576366829E+02  0.15066554319E+03  0.79300054027E+02 0.  0.
          5    1    3    3  501    0  0.23109427737E+02 -0.28613406204E+02 -0.22277591310E+01  0.37146003495E+02  0.47000000000E+01 0. -1.
        -11    1    4    4    0    0 -0.59961356891E+02  0.39930542077E+02 -0.29323954001E+02  0.77779861076E+02  0.00000000000E+00 0.  1.
         12    1    4    4    0    0 -0.14512995678E+02  0.77846326738E+02  0.26522143891E+02  0.83511087567E+02  0.00000000000E+00 0. -1.
         -5    1    5    5    0  502 -0.27776572106E+02 -0.39377814371E+02  0.32240765779E+02  0.58169641572E+02  0.47000000000E+01 0.  1.
         13    1    6    6    0    0  0.82463739646E+02 -0.65134503485E+02 -0.66413025246E+02  0.12431195366E+03  0.00000000000E+00 0. -1.
        -14    1    6    6    0    0 -0.33222427079E+01  0.15348855245E+02 -0.21163341583E+02  0.26353589526E+02  0.00000000000E+00 0.  1.
<mgrwt>
<rscale>  2 0.20061701E+03</rscale>
<asrwt>0</asrwt>
<pdfrwt beam="1">  1       21 0.26685151E-01 0.20137057E+03</pdfrwt>
<pdfrwt beam="2">  1       21 0.35972100E-01 0.20137057E+03</pdfrwt>
<totfact> 0.99267532E+04</totfact>
</mgrwt>
</event>
<event>
12    1  0.1039378E-001  0.2603199E+03  0.7546771E-02  0.1108022E+00
         21   -1    0    0  503  502  0.00000000000E+00  0.00000000000E+00  0.27859523504E+03  0.27859523504E+03  0.00000000000E+00 0.  1.
         21   -1    0    0  501  503 -0.00000000000E+00 -0.00000000000E+00 -0.39611833139E+03  0.39611833139E+03  0.00000000000E+00 0. -1.
          6    2    1    2  501    0 -0.10642566177E+03 -0.16237363768E+03 -0.27323813455E+03  0.37739309670E+03  0.17342102400E+03 0.  0.
         24    2    3    3    0    0 -0.10650268958E+03 -0.18957437136E+03 -0.25476822631E+03  0.34417994633E+03  0.79194199016E+02 0.  0.
         -6    2    1    2    0  502  0.10642566177E+03  0.16237363768E+03  0.15571503820E+03  0.29732046974E+03  0.16266735661E+03 0.  0.
        -24    2    5    5    0    0 -0.31480312356E+01  0.45402124827E+02  0.74125576458E+02  0.11741032749E+03  0.78862670993E+02 0.  0.
          5    1    3    3  501    0  0.77027815535E-01  0.27200733687E+02 -0.18469908249E+02  0.33213150364E+02  0.47000000000E+01 0. -1.
        -13    1    4    4    0    0  0.43934451995E+01 -0.56594804590E+02 -0.46834174118E+02  0.73591535741E+02  0.00000000000E+00 0.  1.
         14    1    4    4    0    0 -0.11089613478E+03 -0.13297956677E+03 -0.20793405219E+03  0.27058841059E+03  0.00000000000E+00 0. -1.
         -5    1    5    5    0  502  0.10957369300E+03  0.11697151285E+03  0.81589461745E+02  0.17991014225E+03  0.47000000000E+01 0.  1.
         13    1    6    6    0    0  0.23882729008E+02 -0.11563238083E+02  0.32043761493E+02  0.41604036709E+02  0.00000000000E+00 0. -1.
        -14    1    6    6    0    0 -0.27030760244E+02  0.56965362910E+02  0.42081814964E+02  0.75806290778E+02  0.00000000000E+00 0.  1.
<mgrwt>
<rscale>  2 0.25854259E+03</rscale>
<asrwt>0</asrwt>
<pdfrwt beam="1">  1       21 0.42860805E-01 0.26031994E+03</pdfrwt>
<pdfrwt beam="2">  1       21 0.60941282E-01 0.26031994E+03</pdfrwt>
<totfact> 0.12611062E+04</totfact>
</mgrwt>
</event>
<event>
12    1  0.1039378E-001  0.3903522E+03  0.7546771E-02  0.1047193E+00
         21   -1    0    0  503  502  0.00000000000E+00  0.00000000000E+00  0.18664181780E+03  0.18664181780E+03  0.00000000000E+00 0. -1.
         21   -1    0    0  501  503 -0.00000000000E+00 -0.00000000000E+00 -0.82989841302E+03  0.82989841302E+03  0.00000000000E+00 0.  1.
          6    2    1    2  501    0 -0.30840180433E+03 -0.16490868807E+03 -0.38767745306E+03  0.55015329201E+03  0.17340210144E+03 0.  0.
         24    2    3    3    0    0 -0.19902056690E+03 -0.17446767652E+03 -0.24695811236E+03  0.37160455298E+03  0.83984988750E+02 0.  0.
         -6    2    1    2    0  502  0.30840180433E+03  0.16490868807E+03 -0.25557914216E+03  0.46638693880E+03  0.17288588855E+03 0.  0.
        -24    2    5    5    0    0  0.82193762378E+02  0.11605056270E+03 -0.66092018043E+02  0.16724708043E+03  0.58136764495E+02 0.  0.
          5    1    3    3  501    0 -0.10938123743E+03  0.95589884513E+01 -0.14071934070E+03  0.17854873903E+03  0.47000000000E+01 0. -1.
        -11    1    4    4    0    0 -0.96868536947E+02 -0.38297772569E+02 -0.12210584676E+03  0.16049944127E+03  0.00000000000E+00 0.  1.
         12    1    4    4    0    0 -0.10215202996E+03 -0.13616990395E+03 -0.12485226560E+03  0.21110511171E+03  0.00000000000E+00 0. -1.
         -5    1    5    5    0  502  0.22620804196E+03  0.48858125370E+02 -0.18948712412E+03  0.29913985837E+03  0.47000000000E+01 0.  1.
         13    1    6    6    0    0  0.76365015789E+01  0.34132402588E+02  0.54307770124E+01  0.35395344351E+02  0.00000000000E+00 0. -1.
        -14    1    6    6    0    0  0.74557260799E+02  0.81918160112E+02 -0.71522795055E+02  0.13185173608E+03  0.00000000000E+00 0.  1.
<mgrwt>
<rscale>  2 0.39029492E+03</rscale>
<asrwt>0</asrwt>
<pdfrwt beam="1">  1       21 0.28714126E-01 0.39035220E+03</pdfrwt>
<pdfrwt beam="2">  1       21 0.12767668E+00 0.39035220E+03</pdfrwt>
<totfact> 0.46878176E+03</totfact>
</mgrwt>
</event>
<event>
12    1  0.1039378E-001  0.1769510E+03  0.7546771E-02  0.1170789E+00
         21   -1    0    0  503  502  0.00000000000E+00  0.00000000000E+00  0.19627028155E+04  0.19627028155E+04  0.00000000000E+00 0. -1.
         21   -1    0    0  501  503 -0.00000000000E+00 -0.00000000000E+00 -0.18426414465E+02  0.18426414465E+02  0.00000000000E+00 0. -1.
          6    2    1    2  501    0 -0.31620650690E+02 -0.20719824327E+02  0.60918571302E+03  0.63436318192E+03  0.17285900890E+03 0.  0.
         24    2    3    3    0    0  0.17408589541E+01  0.13553043643E+02  0.55781351798E+03  0.56401538715E+03  0.82284388115E+02 0.  0.
         -6    2    1    2    0  502  0.31620650690E+02  0.20719824327E+02  0.13350906880E+04  0.13467660480E+04  0.17286545715E+03 0.  0.
        -24    2    5    5    0    0  0.78093596338E+02 -0.86454136872E+00  0.11281776428E+04  0.11335508567E+04  0.77803559704E+02 0.  0.
          5    1    3    3  501    0 -0.33361509644E+02 -0.34272867971E+02  0.51372195042E+02  0.70347794763E+02  0.47000000000E+01 0. -1.
        -11    1    4    4    0    0  0.75301879850E+01 -0.31018836879E+02  0.34692838850E+03  0.34839371222E+03  0.00000000000E+00 0.  1.
         12    1    4    4    0    0 -0.57893290309E+01  0.44571880522E+02  0.21088512948E+03  0.21562167493E+03  0.00000000000E+00 0. -1.
         -5    1    5    5    0  502 -0.46472945647E+02  0.21584365696E+02  0.20691304523E+03  0.21321519131E+03  0.47000000000E+01 0.  1.
         13    1    6    6    0    0  0.35545406551E+02  0.36100509983E+02  0.67144898385E+03  0.67335760236E+03  0.00000000000E+00 0. -1.
        -14    1    6    6    0    0  0.42548189787E+02 -0.36965051352E+02  0.45672865893E+03  0.46019325436E+03  0.00000000000E+00 0.  1.
<mgrwt>
<rscale>  2 0.17694939E+03</rscale>
<asrwt>0</asrwt>
<pdfrwt beam="1">  1       21 0.30195411E+00 0.17695096E+03</pdfrwt>
<pdfrwt beam="2">  1       21 0.28348346E-02 0.17695096E+03</pdfrwt>
<totfact> 0.23486367E+04</totfact>
</mgrwt>
</event>
<event>
11    1  0.1039378E-001  0.1755298E+03  0.7546771E-02  0.1172887E+00
         21   -1    0    0  501  502  0.00000000000E+00  0.00000000000E+00  0.54618331540E+03  0.54618331540E+03  0.00000000000E+00 0. -1.
         21   -1    0    0  502  503 -0.00000000000E+00 -0.00000000000E+00 -0.56047677170E+02  0.56047677170E+02  0.00000000000E+00 0. -1.
         -6    2    1    2    0  503  0.20920965161E+01 -0.20194068692E+01  0.21449781254E+03  0.27544828482E+03  0.17278307543E+03 0.  0.
        -24    2    3    3    0    0 -0.44791875388E+02 -0.42175495060E+02  0.17462876450E+03  0.20181236130E+03  0.80299061639E+02 0.  0.
          6    2    1    2  501    0 -0.20920965161E+01  0.20194068692E+01  0.27563782569E+03  0.32678270775E+03  0.17550576134E+03 0.  0.
          5    1    5    5  501    0  0.49730677919E+02  0.39538092233E+02  0.28609238711E+02  0.69835375014E+02  0.47000000000E+01 0. -1.
        -13    1    5    5    0    0 -0.16354285261E+02 -0.26639940764E+02  0.14634160513E+03  0.14964295667E+03  0.00000000000E+00 0.  1.
         14    1    5    5    0    0 -0.35468489174E+02 -0.10878744600E+02  0.10068698185E+03  0.10730437607E+03  0.00000000000E+00 0. -1.
         -5    1    3    3    0  503  0.46883971904E+02  0.40156088191E+02  0.39869048039E+02  0.73635923515E+02  0.47000000000E+01 0.  1.
         11    1    4    4    0    0 -0.40192896490E+02 -0.49531510660E+02  0.18043170968E+03  0.19137513249E+03  0.00000000000E+00 0. -1.
        -12    1    4    4    0    0 -0.45989788984E+01  0.73560156004E+01 -0.58029451861E+01  0.10437228811E+02  0.00000000000E+00 0.  1.
<mgrwt>
<rscale>  2 0.17484528E+03</rscale>
<asrwt>0</asrwt>
<pdfrwt beam="1">  1       21 0.84028199E-01 0.17552985E+03</pdfrwt>
<pdfrwt beam="2">  1       21 0.86227200E-02 0.17552985E+03</pdfrwt>
<totfact> 0.13033913E+05</totfact>
</mgrwt>
</event>
<event>
12    1  0.1039378E-001  0.2461846E+03  0.7546771E-02  0.1115747E+00
         21   -1    0    0  503  502  0.00000000000E+00  0.00000000000E+00  0.10144214186E+03  0.10144214186E+03  0.00000000000E+00 0.  1.
         21   -1    0    0  501  503 -0.00000000000E+00 -0.00000000000E+00 -0.12777979301E+04  0.12777979301E+04  0.00000000000E+00 0.  1.
          6    2    1    2  501    0  0.60509434523E+02 -0.16431406124E+03 -0.10913958401E+04  0.11188076272E+04  0.17298879917E+03 0.  0.
         24    2    3    3    0    0 -0.22227695659E+02 -0.66887760973E+02 -0.67342242382E+03  0.68170216697E+03  0.79069845900E+02 0.  0.
         -6    2    1    2    0  502 -0.60509434523E+02  0.16431406124E+03 -0.84959948156E+02  0.26043244471E+03  0.17305017503E+03 0.  0.
        -24    2    5    5    0    0 -0.35400631817E+02  0.92381520727E+02  0.21543986918E+02  0.12939840125E+03  0.80574516878E+02 0.  0.
          5    1    3    3  501    0  0.82737130182E+02 -0.97426300269E+02 -0.41797341626E+03  0.43710546027E+03  0.47000000000E+01 0. -1.
        -13    1    4    4    0    0  0.18355921661E+01 -0.51945143927E+02 -0.17704462048E+03  0.18451684210E+03  0.00000000000E+00 0.  1.
         14    1    4    4    0    0 -0.24063287825E+02 -0.14942617046E+02 -0.49637780333E+03  0.49718532487E+03  0.00000000000E+00 0. -1.
         -5    1    5    5    0  502 -0.25108802706E+02  0.71932540514E+02 -0.10650393507E+03  0.13103404346E+03  0.47000000000E+01 0.  1.
         11    1    6    6    0    0  0.14928189323E+02 -0.44986684444E+01  0.12254481890E+02  0.19830813917E+02  0.00000000000E+00 0. -1.
        -12    1    6    6    0    0 -0.50328821141E+02  0.96880189171E+02  0.92895050281E+01  0.10956758734E+03  0.00000000000E+00 0.  1.
<mgrwt>
<rscale>  2 0.24617383E+03</rscale>
<asrwt>0</asrwt>
<pdfrwt beam="1">  1       21 0.15606483E-01 0.24618462E+03</pdfrwt>
<pdfrwt beam="2">  1       21 0.19658430E+00 0.24618462E+03</pdfrwt>
<totfact> 0.49302936E+03</totfact>
</mgrwt>
</event>
<event>
12    1  0.1039378E-001  0.2316228E+03  0.7546771E-02  0.1126438E+00
         21   -1    0    0  503  502  0.00000000000E+00  0.00000000000E+00  0.59237637192E+03  0.59237637192E+03  0.00000000000E+00 0. -1.
         21   -1    0    0  501  503 -0.00000000000E+00 -0.00000000000E+00 -0.18956672579E+03  0.18956672579E+03  0.00000000000E+00 0. -1.
          6    2    1    2  501    0  0.72486444312E+02 -0.12726113560E+03 -0.82964298013E+02  0.24603295154E+03  0.17944207214E+03 0.  0.
         24    2    3    3    0    0  0.11355942010E+02 -0.31537734847E+02  0.25092118743E+02  0.89194859971E+02  0.78756094901E+02 0.  0.
         -6    2    1    2    0  502 -0.72486444312E+02  0.12726113560E+03  0.48577394414E+03  0.53591014617E+03  0.17255051065E+03 0.  0.
        -24    2    5    5    0    0  0.15617915908E+02  0.10225531535E+03  0.23158197378E+03  0.26568187761E+03  0.79098550529E+02 0.  0.
          5    1    3    3  501    0  0.61130502303E+02 -0.95723400757E+02 -0.10805641676E+03  0.15683809157E+03  0.47000000000E+01 0. -1.
        -11    1    4    4    0    0 -0.11070404709E+02  0.12457991191E+02  0.35057712563E+02  0.38817503978E+02  0.00000000000E+00 0.  1.
         12    1    4    4    0    0  0.22426346719E+02 -0.43995726037E+02 -0.99655938196E+01  0.50377355993E+02  0.00000000000E+00 0. -1.
         -5    1    5    5    0  502 -0.88104360221E+02  0.25005820253E+02  0.25419197036E+03  0.27022826857E+03  0.47000000000E+01 0.  1.
         13    1    6    6    0    0 -0.77261849794E+01  0.26841612185E+02  0.14838657883E+03  0.15099252582E+03  0.00000000000E+00 0. -1.
        -14    1    6    6    0    0  0.23344100888E+02  0.75413703166E+02  0.83195394950E+02  0.11468935178E+03  0.00000000000E+00 0.  1.
<mgrwt>
<rscale>  2 0.23028706E+03</rscale>
<asrwt>0</asrwt>
<pdfrwt beam="1">  1       21 0.91134825E-01 0.23162284E+03</pdfrwt>
<pdfrwt beam="2">  1       21 0.29164112E-01 0.23162284E+03</pdfrwt>
<totfact> 0.11203117E+04</totfact>
</mgrwt>
</event>
<event>
11    1  0.1039378E-001  0.1800005E+03  0.7546771E-02  0.1168082E+00
         21   -1    0    0  503  502  0.00000000000E+00  0.00000000000E+00  0.81779951827E+02  0.81779951827E+02  0.00000000000E+00 0.  1.
         21   -1    0    0  501  503 -0.00000000000E+00 -0.00000000000E+00 -0.41409956073E+03  0.41409956073E+03  0.00000000000E+00 0.  1.
          6    2    1    2  501    0  0.28926392926E+02 -0.39607536996E+02 -0.22073609734E+03  0.28409881017E+03  0.17199481409E+03 0.  0.
         24    2    3    3    0    0  0.25528234082E+02  0.33629000190E+02 -0.64774852117E+02  0.11170061449E+03  0.80614176304E+02 0.  0.
         -6    2    1    2    0  502 -0.28926392926E+02  0.39607536996E+02 -0.11158351156E+03  0.21178070239E+03  0.17318975910E+03 0.  0.
          5    1    3    3  501    0  0.33981588449E+01 -0.73236537185E+02 -0.15596124522E+03  0.17239819568E+03  0.47000000000E+01 0. -1.
        -13    1    4    4    0    0  0.52826173249E+02  0.16771444187E+02 -0.25562647676E+02  0.61035521432E+02  0.00000000000E+00 0.  1.
         14    1    4    4    0    0 -0.27297939168E+02  0.16857556003E+02 -0.39212204441E+02  0.50665093056E+02  0.00000000000E+00 0. -1.
         -5    1    5    5    0  502 -0.38810375992E+02  0.39544125924E+01 -0.40673989942E+02  0.56553922246E+02  0.47000000000E+01 0.  1.
         11    1    5    5    0    0  0.54243543259E+01 -0.69432120522E+01  0.37574843840E+02  0.38594050099E+02  0.00000000000E+00 0. -1.
        -12    1    5    5    0    0  0.44596287396E+01  0.42596336456E+02 -0.10848436546E+03  0.11663273004E+03  0.00000000000E+00 0.  1.
<mgrwt>
<rscale>  2 0.17971247E+03</rscale>
<asrwt>0</asrwt>
<pdfrwt beam="1">  1       21 0.12581531E-01 0.18000052E+03</pdfrwt>
<pdfrwt beam="2">  1       21 0.63707625E-01 0.18000052E+03</pdfrwt>
<totfact> 0.12329393E+05</totfact>
</mgrwt>
</event>
<event>
12    1  0.1039378E-001  0.1860209E+03  0.7546771E-02  0.1162202E+00
         21   -1    0    0  503  502  0.00000000000E+00  0.00000000000E+00  0.45014706867E+03  0.45014706867E+03  0.00000000000E+00 0. -1.
         21   -1    0    0  501  503 -0.00000000000E+00 -0.00000000000E+00 -0.17943904178E+03  0.17943904178E+03  0.00000000000E+00 0. -1.
          6    2    1    2  501    0  0.43003389172E+02  0.53749042830E+02 -0.10278380512E+03  0.21252831420E+03  0.17281644209E+03 0.  0.
         24    2    3    3    0    0  0.41001252605E+02 -0.32240996638E+02 -0.31251490098E+02  0.10055841856E+03  0.80092167717E+02 0.  0.
         -6    2    1    2    0  502 -0.43003389172E+02 -0.53749042830E+02  0.37349183200E+03  0.41705779625E+03  0.17234501952E+03 0.  0.
        -24    2    5    5    0    0  0.38005471621E+02 -0.45873926230E+02  0.25135601159E+03  0.27021195321E+03  0.79283176758E+02 0.  0.
          5    1    3    3  501    0  0.20021365666E+01  0.85990039468E+02 -0.71532315019E+02  0.11196989564E+03  0.47000000000E+01 0. -1.
        -11    1    4    4    0    0  0.40464010914E+02  0.10758507890E+02  0.76591532143E+01  0.42564589734E+02  0.00000000000E+00 0.  1.
         12    1    4    4    0    0  0.53724169078E+00 -0.42999504529E+02 -0.38910643312E+02  0.57993828821E+02  0.00000000000E+00 0. -1.
         -5    1    5    5    0  502 -0.81008860792E+02 -0.78751165993E+01  0.12213582041E+03  0.14684584304E+03  0.47000000000E+01 0.  1.
         11    1    6    6    0    0  0.64333103394E+01  0.32741353384E+01  0.16947943365E+03  0.16963309192E+03  0.00000000000E+00 0. -1.
        -12    1    6    6    0    0  0.31572161281E+02 -0.49148061569E+02  0.81876577935E+02  0.10057886129E+03  0.00000000000E+00 0.  1.
<mgrwt>
<rscale>  2 0.18591133E+03</rscale>
<asrwt>0</asrwt>
<pdfrwt beam="1">  1       21 0.69253395E-01 0.18602090E+03</pdfrwt>
<pdfrwt beam="2">  1       21 0.27606007E-01 0.18602090E+03</pdfrwt>
<totfact> 0.23846609E+04</totfact>
</mgrwt>
</event>
<event>
12    1  0.1039378E-001  0.1842233E+03  0.7546771E-02  0.1163984E+00
         21   -1    0    0  501  502  0.00000000000E+00  0.00000000000E+00  0.16707764798E+04  0.16707764798E+04  0.00000000000E+00 0. -1.
         21   -1    0    0  502  503 -0.00000000000E+00 -0.00000000000E+00 -0.72973726678E+02  0.72973726678E+02  0.00000000000E+00 0. -1.
         -6    2    1    2    0  503  0.59662487991E+02 -0.56669168534E+01  0.57040015652E+02  0.19201310866E+03  0.17327361048E+03 0.  0.
        -24    2    3    3    0    0 -0.10456389798E+02 -0.13143033280E+02 -0.21987603173E+02  0.85994224129E+02  0.81421597128E+02 0.  0.
          6    2    1    2  501    0 -0.59662487991E+02  0.56669168534E+01  0.15407627375E+04  0.15517370978E+04  0.17420241433E+03 0.  0.
         24    2    5    5    0    0 -0.24941549691E+02  0.62502472081E+02  0.79451640100E+03  0.80250982350E+03  0.90758280260E+02 0.  0.
          5    1    5    5  501    0 -0.34720938300E+02 -0.56835555227E+02  0.74624633650E+03  0.74922727435E+03  0.47000000000E+01 0. -1.
        -11    1    6    6    0    0  0.25288564474E+02  0.39530390045E+02  0.54176831235E+03  0.54379689912E+03  0.00000000000E+00 0.  1.
         12    1    6    6    0    0 -0.50230114164E+02  0.22972082036E+02  0.25274808865E+03  0.25871292438E+03  0.00000000000E+00 0. -1.
         -5    1    3    3    0  503  0.70118877789E+02  0.74761164266E+01  0.79027618825E+02  0.10601888453E+03  0.47000000000E+01 0.  1.
         11    1    4    4    0    0 -0.45053778660E+02  0.10640909241E+01 -0.17418178277E+02  0.48315299807E+02  0.00000000000E+00 0. -1.
        -12    1    4    4    0    0  0.34597388861E+02 -0.14207124204E+02 -0.45694248965E+01  0.37678924322E+02  0.00000000000E+00 0.  1.
<mgrwt>
<rscale>  2 0.18400335E+03</rscale>
<asrwt>0</asrwt>
<pdfrwt beam="1">  1       21 0.25704251E+00 0.18422325E+03</pdfrwt>
<pdfrwt beam="2">  1       21 0.11226728E-01 0.18422325E+03</pdfrwt>
<totfact> 0.40334056E+03</totfact>
</mgrwt>
</event>
<event>
12    1  0.1039378E-001  0.1893424E+03  0.7546771E-02  0.1159105E+00
         21   -1    0    0  501  502  0.00000000000E+00  0.00000000000E+00  0.66122797402E+02  0.66122797402E+02  0.00000000000E+00 0. -1.
         21   -1    0    0  502  503 -0.00000000000E+00 -0.00000000000E+00 -0.54402779296E+03  0.54402779296E+03  0.00000000000E+00 0. -1.
         -6    2    1    2    0  503 -0.46722318462E+02 -0.58489879629E+02 -0.25964646240E+03  0.32135153845E+03  0.17391516543E+03 0.  0.
        -24    2    3    3    0    0 -0.26245652134E+02  0.36663639634E+02 -0.12688662037E+03  0.15666774523E+03  0.80071912935E+02 0.  0.
          6    2    1    2  501    0  0.46722318462E+02  0.58489879629E+02 -0.21825853316E+03  0.28879905192E+03  0.17367804705E+03 0.  0.
         24    2    5    5    0    0  0.36545657480E+02 -0.11608763334E+02 -0.19460023589E+03  0.21397132174E+03  0.80275315319E+02 0.  0.
          5    1    5    5  501    0  0.10176660982E+02  0.70098642963E+02 -0.23658297271E+02  0.74827730179E+02  0.47000000000E+01 0. -1.
        -13    1    6    6    0    0  0.67245618949E+01  0.31107235680E+01  0.66717629513E+01  0.99703939077E+01  0.00000000000E+00 0.  1.
         14    1    6    6    0    0  0.29821095585E+02 -0.14719486902E+02 -0.20127199884E+03  0.20400092783E+03  0.00000000000E+00 0. -1.
         -5    1    3    3    0  503 -0.20476666328E+02 -0.95153519263E+02 -0.13275984203E+03  0.16468379321E+03  0.47000000000E+01 0.  1.
         13    1    4    4    0    0 -0.17891971167E+02  0.17096116254E+02  0.31101527895E+01  0.24941388766E+02  0.00000000000E+00 0. -1.
        -14    1    4    4    0    0 -0.83536809670E+01  0.19567523381E+02 -0.12999677316E+03  0.13172635647E+03  0.00000000000E+00 0.  1.
<mgrwt>
<rscale>  2 0.18928788E+03</rscale>
<asrwt>0</asrwt>
<pdfrwt beam="1">  1       21 0.10172738E-01 0.18934235E+03</pdfrwt>
<pdfrwt beam="2">  1       21 0.83696580E-01 0.18934235E+03</pdfrwt>
<totfact> 0.97852699E+04</totfact>
</mgrwt>
</event>
<event>
12    1  0.1039378E-001  0.2317807E+03  0.7546771E-02  0.1125454E+00
         21   -1    0    0  501  502  0.00000000000E+00  0.00000000000E+00  0.49181375230E+02  0.49181375230E+02  0.00000000000E+00 0. -1.
         21   -1    0    0  502  503 -0.00000000000E+00 -0.00000000000E+00 -0.11134988947E+04  0.11134988947E+04  0.00000000000E+00 0. -1.
         -6    2    1    2    0  503 -0.11245938855E+03  0.10471527990E+03 -0.44932531963E+03  0.50558433089E+03  0.17352195500E+03 0.  0.
        -24    2    3    3    0    0 -0.77332883216E+02  0.12596299182E+03 -0.42546642930E+03  0.45786983324E+03  0.82316775887E+02 0.  0.
          6    2    1    2  501    0  0.11245938855E+03 -0.10471527990E+03 -0.61499219985E+03  0.65709593905E+03  0.17305277611E+03 0.  0.
         24    2    5    5    0    0  0.11723638012E+02 -0.69255065252E+02 -0.18083608041E+03  0.20997319940E+03  0.80332737653E+02 0.  0.
          5    1    5    5  501    0  0.10073575053E+03 -0.35460214649E+02 -0.43415611944E+03  0.44712273964E+03  0.47000000000E+01 0. -1.
        -13    1    6    6    0    0  0.11173679149E+02 -0.84110392042E+02 -0.11760645496E+03  0.14501961041E+03  0.00000000000E+00 0.  1.
         14    1    6    6    0    0  0.54995886319E+00  0.14855326790E+02 -0.63229625448E+02  0.64953588993E+02  0.00000000000E+00 0. -1.
         -5    1    3    3    0  503 -0.35126505329E+02 -0.21247711923E+02 -0.23858890328E+02  0.47714497653E+02  0.47000000000E+01 0.  1.
         11    1    4    4    0    0 -0.64386953204E+02  0.43568320518E+02 -0.13627216122E+03  0.15688843240E+03  0.00000000000E+00 0. -1.
        -12    1    4    4    0    0 -0.12945930012E+02  0.82394671305E+02 -0.28919426808E+03  0.30098140084E+03  0.00000000000E+00 0.  1.
<mgrwt>
<rscale>  2 0.23169285E+03</rscale>
<asrwt>0</asrwt>
<pdfrwt beam="1">  1       21 0.75663658E-02 0.23178066E+03</pdfrwt>
<pdfrwt beam="2">  1       21 0.17130751E+00 0.23178066E+03</pdfrwt>
<totfact> 0.26941022E+04</totfact>
</mgrwt>
</event>
<event>
12    1  0.1039378E-001  0.2763567E+03  0.7546771E-02  0.1097708E+00
         21   -1    0    0  503  502  0.00000000000E+00  0.00000000000E+00  0.18420000932E+03  0.18420000932E+03  0.00000000000E+00 0.  1.
         21   -1    0    0  501  503 -0.00000000000E+00 -0.00000000000E+00 -0.53604120172E+03  0.53604120172E+03  0.00000000000E+00 0.  1.
          6    2    1    2  501    0  0.54469147211E+02  0.20705510156E+03 -0.34738446265E+03  0.44384858709E+03  0.17460498359E+03 0.  0.
         24    2    3    3    0    0  0.25353414081E+02  0.23638022214E+02 -0.13335104637E+03  0.16043732374E+03  0.82195386618E+02 0.  0.
         -6    2    1    2    0  502 -0.54469147211E+02 -0.20705510156E+03 -0.44567297526E+01  0.27639262395E+03  0.17474071379E+03 0.  0.
        -24    2    5    5    0    0 -0.14740185460E+02 -0.25514402704E+02 -0.41187459359E+02  0.86902116963E+02  0.70620912706E+02 0.  0.
          5    1    3    3  501    0  0.29115733130E+02  0.18341707934E+03 -0.21403341628E+03  0.28341126335E+03  0.47000000000E+01 0. -1.
        -13    1    4    4    0    0  0.39074911953E+02  0.16638594286E+02 -0.13796795711E+03  0.14435667201E+03  0.00000000000E+00 0.  1.
         14    1    4    4    0    0 -0.13721497872E+02  0.69994279282E+01  0.46169107453E+01  0.16080651728E+02  0.00000000000E+00 0. -1.
         -5    1    5    5    0  502 -0.39728961750E+02 -0.18154069885E+03  0.36730729606E+02  0.18949050699E+03  0.47000000000E+01 0.  1.
         11    1    6    6    0    0 -0.13466087668E+02 -0.33951742333E+02 -0.57715248908E+02  0.68301583298E+02  0.00000000000E+00 0. -1.
        -12    1    6    6    0    0 -0.12740977926E+01  0.84373396294E+01  0.16527789549E+02  0.18600533664E+02  0.00000000000E+00 0.  1.
<mgrwt>
<rscale>  2 0.27633524E+03</rscale>
<asrwt>0</asrwt>
<pdfrwt beam="1">  1       21 0.28338463E-01 0.27635669E+03</pdfrwt>
<pdfrwt beam="2">  1       21 0.82467876E-01 0.27635669E+03</pdfrwt>
<totfact> 0.14586464E+04</totfact>
</mgrwt>
</event>
<event>
12    1  0.1039378E-001  0.2063597E+03  0.7546771E-02  0.1144949E+00
         21   -1    0    0  501  502  0.00000000000E+00  0.00000000000E+00  0.29096726910E+03  0.29096726910E+03  0.00000000000E+00 0.  1.
         21   -1    0    0  502  503 -0.00000000000E+00 -0.00000000000E+00 -0.17047403845E+03  0.17047403845E+03  0.00000000000E+00 0.  1.
         -6    2    1    2    0  503 -0.93740864391E+02 -0.55937688378E+02  0.15018684160E+03  0.25522621770E+03  0.17512270034E+03 0.  0.
        -24    2    3    3    0    0 -0.94759174566E+02 -0.10117142866E+03  0.12300794974E+03  0.20223649815E+03  0.80954841392E+02 0.  0.
          6    2    1    2  501    0  0.93740864391E+02  0.55937688378E+02 -0.29693610945E+02  0.20621508986E+03  0.17241397309E+03 0.  0.
         24    2    5    5    0    0  0.11170592014E+03  0.60199899231E+02 -0.67762753461E+02  0.16364445114E+03  0.78009455640E+02 0.  0.
          5    1    5    5  501    0 -0.17965055749E+02 -0.42622108536E+01  0.38069142516E+02  0.42570638723E+02  0.47000000000E+01 0. -1.
        -13    1    6    6    0    0  0.40807994028E+02 -0.15796336295E+02 -0.10578733663E+02  0.45019176167E+02  0.00000000000E+00 0.  1.
         14    1    6    6    0    0  0.70897926112E+02  0.75996235526E+02 -0.57184019798E+02  0.11862527497E+03  0.00000000000E+00 0. -1.
         -5    1    3    3    0  503  0.10183101748E+01  0.45233740280E+02  0.27178891857E+02  0.52989719549E+02  0.47000000000E+01 0.  1.
         13    1    4    4    0    0  0.24539226702E+01 -0.50162769659E+02  0.46314206931E+02  0.68317867062E+02  0.00000000000E+00 0. -1.
        -14    1    4    4    0    0 -0.97213097236E+02 -0.51008658999E+02  0.76693742808E+02  0.13391863109E+03  0.00000000000E+00 0.  1.
<mgrwt>
<rscale>  2 0.20578390E+03</rscale>
<asrwt>0</asrwt>
<pdfrwt beam="1">  1       21 0.44764195E-01 0.20635972E+03</pdfrwt>
<pdfrwt beam="2">  1       21 0.26226775E-01 0.20635972E+03</pdfrwt>
<totfact> 0.65787544E+04</totfact>
</mgrwt>
</event>
<event>
12    1  0.1039378E-001  0.1758257E+03  0.7546771E-02  0.1172502E+00
         21   -1    0    0  501  502  0.00000000000E+00  0.00000000000E+00  0.11496722718E+04  0.11496722718E+04  0.00000000000E+00 0. -1.
         21   -1    0    0  502  503 -0.00000000000E+00 -0.00000000000E+00 -0.45059180249E+02  0.45059180249E+02  0.00000000000E+00 0. -1.
         -6    2    1    2    0  503 -0.22275339523E+02 -0.19453449749E+02  0.17143446538E+03  0.24556966100E+03  0.17332067108E+03 0.  0.
        -24    2    3    3    0    0 -0.20316759660E+02 -0.40497533165E+02  0.20543738964E+02  0.93133474999E+02  0.78733589015E+02 0.  0.
          6    2    1    2  501    0  0.22275339523E+02  0.19453449749E+02  0.93317862618E+03  0.94916179107E+03  0.17091263792E+03 0.  0.
         24    2    5    5    0    0  0.98578514678E+01 -0.44773202392E+02  0.37467076355E+03  0.38681636388E+03  0.84539348347E+02 0.  0.
          5    1    5    5  501    0  0.12417488055E+02  0.64226652142E+02  0.55850786263E+03  0.56234542719E+03  0.47000000000E+01 0. -1.
        -13    1    6    6    0    0 -0.30805013001E+02  0.56880626472E+01  0.11700862900E+03  0.12112936119E+03  0.00000000000E+00 0.  1.
         14    1    6    6    0    0  0.40662864469E+02 -0.50461265039E+02  0.25766213455E+03  0.26568700269E+03  0.00000000000E+00 0. -1.
         -5    1    3    3    0  503 -0.19585798623E+01  0.21044083416E+02  0.15089072642E+03  0.15243618600E+03  0.47000000000E+01 0.  1.
         13    1    4    4    0    0  0.24077244463E+02 -0.95041230534E+01 -0.13483141348E+02  0.29186249443E+02  0.00000000000E+00 0. -1.
        -14    1    4    4    0    0 -0.44394004124E+02 -0.30993410112E+02  0.34026880312E+02  0.63947225556E+02  0.00000000000E+00 0.  1.
<mgrwt>
<rscale>  2 0.17522938E+03</rscale>
<asrwt>0</asrwt>
<pdfrwt beam="1">  1       21 0.17687263E+00 0.17582572E+03</pdfrwt>
<pdfrwt beam="2">  1       21 0.69321825E-02 0.17582572E+03</pdfrwt>
<totfact> 0.29743470E+04</totfact>
</mgrwt>
</event>
<event>
12    1  0.1039378E-001  0.1849180E+03  0.7546771E-02  0.1163607E+00
         21   -1    0    0  503  502  0.00000000000E+00  0.00000000000E+00  0.93699741422E+02  0.93699741422E+02  0.00000000000E+00 0. -1.
         21   -1    0    0  501  503 -0.00000000000E+00 -0.00000000000E+00 -0.41195574352E+03  0.41195574352E+03  0.00000000000E+00 0. -1.
          6    2    1    2  501    0  0.40426657265E+01 -0.57601217601E+02 -0.24734650107E+03  0.30760795691E+03  0.17351691602E+03 0.  0.
         24    2    3    3    0    0  0.55152575928E+02  0.58923051698E+01 -0.16038617974E+03  0.18832745623E+03  0.81651565985E+02 0.  0.
         -6    2    1    2    0  502 -0.40426657265E+01  0.57601217601E+02 -0.70909501026E+02  0.19804752804E+03  0.17567134829E+03 0.  0.
        -24    2    5    5    0    0  0.27475779963E+02  0.76886441939E+02  0.45013654113E+01  0.11393913920E+03  0.79343693585E+02 0.  0.
          5    1    3    3  501    0 -0.51109910201E+02 -0.63493522770E+02 -0.86960321331E+02  0.11928050067E+03  0.47000000000E+01 0. -1.
        -11    1    4    4    0    0  0.36747121557E+02  0.31042761590E+02 -0.14652313044E+03  0.15421748196E+03  0.00000000000E+00 0.  1.
         12    1    4    4    0    0  0.18405454371E+02 -0.25150456421E+02 -0.13863049305E+02  0.34109974271E+02  0.00000000000E+00 0. -1.
         -5    1    5    5    0  502 -0.31518445690E+02 -0.19285224338E+02 -0.75410866438E+02  0.84108388840E+02  0.47000000000E+01 0.  1.
         13    1    6    6    0    0  0.89722627636E+01  0.28620484568E+02 -0.37013613092E+02  0.47640751360E+02  0.00000000000E+00 0. -1.
        -14    1    6    6    0    0  0.18503517200E+02  0.48265957371E+02  0.41514978503E+02  0.66298387837E+02  0.00000000000E+00 0.  1.
<mgrwt>
<rscale>  2 0.18440450E+03</rscale>
<asrwt>0</asrwt>
<pdfrwt beam="1">  1       21 0.14415345E-01 0.18491800E+03</pdfrwt>
<pdfrwt beam="2">  1       21 0.63377805E-01 0.18491800E+03</pdfrwt>
<totfact> 0.97382030E+04</totfact>
</mgrwt>
</event>
<event>
12    1  0.1039378E-001  0.1946997E+03  0.7546771E-02  0.1154587E+00
         21   -1    0    0  501  502  0.00000000000E+00  0.00000000000E+00  0.30433111334E+03  0.30433111334E+03  0.00000000000E+00 0.  1.
         21   -1    0    0  502  503 -0.00000000000E+00 -0.00000000000E+00 -0.38952365908E+03  0.38952365908E+03  0.00000000000E+00 0.  1.
         -6    2    1    2    0  503 -0.23110335434E+02 -0.83260082840E+02 -0.32924023154E+03  0.38250111374E+03  0.17447533622E+03 0.  0.
        -24    2    3    3    0    0 -0.74328288845E+02 -0.47696098771E+02 -0.14657059351E+03  0.18942506040E+03  0.81236089679E+02 0.  0.
          6    2    1    2  501    0  0.23110335434E+02  0.83260082840E+02  0.24404768580E+03  0.31135365869E+03  0.17296097489E+03 0.  0.
         24    2    5    5    0    0  0.16949595497E+02  0.11701296626E+03  0.13238575876E+03  0.19444477191E+03  0.79394314299E+02 0.  0.
          5    1    5    5  501    0  0.61607399372E+01 -0.33752883416E+02  0.11166192704E+03  0.11690888677E+03  0.47000000000E+01 0. -1.
        -11    1    6    6    0    0 -0.69839611858E+01  0.11638682625E+03  0.12064473979E+03  0.16777908773E+03  0.00000000000E+00 0.  1.
         12    1    6    6    0    0  0.23933556682E+02  0.62614000386E+00  0.11741018966E+02  0.26665684186E+02  0.00000000000E+00 0. -1.
         -5    1    3    3    0  503  0.51217953411E+02 -0.35563984069E+02 -0.18266963803E+03  0.19307605334E+03  0.47000000000E+01 0.  1.
         13    1    4    4    0    0 -0.14083952534E+02 -0.55768611864E+02 -0.87169131265E+02  0.10443635973E+03  0.00000000000E+00 0. -1.
        -14    1    4    4    0    0 -0.60244336312E+02  0.80725130929E+01 -0.59401462247E+02  0.84988700674E+02  0.00000000000E+00 0.  1.
<mgrwt>
<rscale>  2 0.19435984E+03</rscale>
<asrwt>0</asrwt>
<pdfrwt beam="1">  1       21 0.46820171E-01 0.19469970E+03</pdfrwt>
<pdfrwt beam="2">  1       21 0.59926717E-01 0.19469970E+03</pdfrwt>
<totfact> 0.11330538E+04</totfact>
</mgrwt>
</event>
<event>
12    1  0.1039378E-001  0.2450841E+03  0.7546771E-02  0.1116657E+00
         21   -1    0    0  501  502  0.00000000000E+00  0.00000000000E+00  0.18106722450E+03  0.18106722450E+03  0.00000000000E+00 0.  1.
         21   -1    0    0  502  503 -0.00000000000E+00 -0.00000000000E+00 -0.37052305558E+03  0.37052305558E+03  0.00000000000E+00 0.  1.
         -6    2    1    2    0  503 -0.65209438124E+02  0.15962115796E+03 -0.18612017798E+03  0.30774490346E+03  0.17416951532E+03 0.  0.
        -24    2    3    3    0    0 -0.85628868089E+02  0.18356395159E+03 -0.16483938043E+03  0.26946732737E+03  0.66427342317E+02 0.  0.
          6    2    1    2  501    0  0.65209438124E+02 -0.15962115796E+03 -0.33356531015E+01  0.24384537661E+03  0.17238983794E+03 0.  0.
         24    2    5    5    0    0  0.49951946977E+02 -0.12886476847E+03  0.60568296081E+02  0.17115045759E+03  0.80762832313E+02 0.  0.
          5    1    5    5  501    0  0.15257491147E+02 -0.30756389484E+02 -0.63903949182E+02  0.72694919020E+02  0.47000000000E+01 0. -1.
        -11    1    6    6    0    0 -0.18260035624E+02 -0.14444816813E+02 -0.31343122458E+01  0.23492670070E+02  0.00000000000E+00 0.  1.
         12    1    6    6    0    0  0.68211982601E+02 -0.11441995166E+03  0.63702608326E+02  0.14765778752E+03  0.00000000000E+00 0. -1.
         -5    1    3    3    0  503  0.20419429965E+02 -0.23942793632E+02 -0.21280797544E+02  0.38277576087E+02  0.47000000000E+01 0.  1.
         11    1    4    4    0    0 -0.11045465384E+02  0.18052781445E+02  0.40124579874E+01  0.21540776276E+02  0.00000000000E+00 0. -1.
        -12    1    4    4    0    0 -0.74583402704E+02  0.16551117014E+03 -0.16885183842E+03  0.24792655110E+03  0.00000000000E+00 0.  1.
<mgrwt>
<rscale>  2 0.24476809E+03</rscale>
<asrwt>0</asrwt>
<pdfrwt beam="1">  1       21 0.27856497E-01 0.24508408E+03</pdfrwt>
<pdfrwt beam="2">  1       21 0.57003546E-01 0.24508408E+03</pdfrwt>
<totfact> 0.34672072E+04</totfact>
</mgrwt>
</event>
<event>
12    1  0.1039378E-001  0.2029764E+03  0.7546771E-02  0.1147299E+00
         21   -1    0    0  503  502  0.00000000000E+00  0.00000000000E+00  0.36542479498E+03  0.36542479498E+03  0.00000000000E+00 0.  1.
         21   -1    0    0  501  503 -0.00000000000E+00 -0.00000000000E+00 -0.19571977925E+03  0.19571977925E+03  0.00000000000E+00 0.  1.
          6    2    1    2  501    0  0.27882602135E+02 -0.10281342376E+03 -0.97998855290E+02  0.22519102974E+03  0.17250850596E+03 0.  0.
         24    2    3    3    0    0  0.82824618145E+02 -0.54644369276E+02 -0.49396511634E+02  0.13730951438E+03  0.81042969545E+02 0.  0.
         -6    2    1    2    0  502 -0.27882602135E+02  0.10281342376E+03  0.26770387102E+03  0.33595354449E+03  0.17277552457E+03 0.  0.
        -24    2    5    5    0    0  0.36877613128E+02  0.55468077748E+02  0.79149750808E+02  0.13098961225E+03  0.80355021410E+02 0.  0.
          5    1    3    3  501    0 -0.54942016010E+02 -0.48169054481E+02 -0.48602343655E+02  0.87881515358E+02  0.47000000000E+01 0. -1.
        -11    1    4    4    0    0  0.28408854317E+02  0.19423746557E+02 -0.24001031525E+02  0.41957054808E+02  0.00000000000E+00 0.  1.
         12    1    4    4    0    0  0.54415763828E+02 -0.74068115833E+02 -0.25395480109E+02  0.95352459570E+02  0.00000000000E+00 0. -1.
         -5    1    5    5    0  502 -0.64760215263E+02  0.47345346009E+02  0.18855412021E+03  0.20496393224E+03  0.47000000000E+01 0.  1.
         11    1    6    6    0    0 -0.16920351047E+02 -0.99751841244E+01  0.15714827535E+02  0.25154689072E+02  0.00000000000E+00 0. -1.
        -12    1    6    6    0    0  0.53797964175E+02  0.65443261873E+02  0.63434923273E+02  0.10583492318E+03  0.00000000000E+00 0.  1.
<mgrwt>
<rscale>  2 0.20291957E+03</rscale>
<asrwt>0</asrwt>
<pdfrwt beam="1">  1       21 0.56219199E-01 0.20297641E+03</pdfrwt>
<pdfrwt beam="2">  1       21 0.30110735E-01 0.20297641E+03</pdfrwt>
<totfact> 0.31325069E+04</totfact>
</mgrwt>
</event>
<event>
12    1  0.1039378E-001  0.2383614E+03  0.7546771E-02  0.1121176E+00
         21   -1    0    0  501  502  0.00000000000E+00  0.00000000000E+00  0.23294454341E+03  0.23294454341E+03  0.00000000000E+00 0. -1.
         21   -1    0    0  502  503 -0.00000000000E+00 -0.00000000000E+00 -0.27791310344E+03  0.27791310344E+03  0.00000000000E+00 0. -1.
         -6    2    1    2    0  503 -0.12781243719E+03  0.98822438347E+02 -0.11415839233E+03  0.26428826196E+03  0.17525482433E+03 0.  0.
        -24    2    3    3    0    0  0.56770174381E+01  0.62240816089E+02 -0.60163458526E+02  0.11564374488E+03  0.76470165903E+02 0.  0.
          6    2    1    2  501    0  0.12781243719E+03 -0.98822438347E+02  0.69189832305E+02  0.24656938488E+03  0.17293737377E+03 0.  0.
         24    2    5    5    0    0  0.19164338331E+02 -0.48296703889E+01 -0.66826456689E+01  0.84033934205E+02  0.81402989903E+02 0.  0.
          5    1    5    5  501    0  0.10864809886E+03 -0.93992767958E+02  0.75872477974E+02  0.16253545068E+03  0.47000000000E+01 0. -1.
        -11    1    6    6    0    0 -0.84674370003E+01  0.48870490663E+01  0.33166863605E+02  0.34577761341E+02  0.00000000000E+00 0.  1.
         12    1    6    6    0    0  0.27631775331E+02 -0.97167194553E+01 -0.39849509274E+02  0.49456172864E+02  0.00000000000E+00 0. -1.
         -5    1    3    3    0  503 -0.13348945463E+03  0.36581622258E+02 -0.53994933802E+02  0.14864451709E+03  0.47000000000E+01 0.  1.
         11    1    4    4    0    0  0.12639351127E+02  0.65825062536E+02 -0.73938939102E+02  0.99798090013E+02  0.00000000000E+00 0. -1.
        -12    1    4    4    0    0 -0.69623336886E+01 -0.35842464470E+01  0.13775480576E+02  0.15845654865E+02  0.00000000000E+00 0.  1.
<mgrwt>
<rscale>  2 0.23793557E+03</rscale>
<asrwt>0</asrwt>
<pdfrwt beam="1">  1       21 0.35837622E-01 0.23836138E+03</pdfrwt>
<pdfrwt beam="2">  1       21 0.42755862E-01 0.23836138E+03</pdfrwt>
<totfact> 0.38639519E+04</totfact>
</mgrwt>
</event>
<event>
12    1  0.1039378E-001  0.1943738E+03  0.7546771E-02  0.1155097E+00
         21   -1    0    0  501  502  0.00000000000E+00  0.00000000000E+00  0.60877314632E+02  0.60877314632E+02  0.00000000000E+00 0.  1.
         21   -1    0    0  502  503 -0.00000000000E+00 -0.00000000000E+00 -0.69997721853E+03  0.69997721853E+03  0.00000000000E+00 0.  1.
         -6    2    1    2    0  503  0.17389616243E+02  0.81545215772E+02 -0.45531704240E+03  0.49507049138E+03  0.17558234924E+03 0.  0.
        -24    2    3    3    0    0  0.24123042254E+02 -0.24761283074E+02 -0.19590754198E+03  0.21460339949E+03  0.80497277979E+02 0.  0.
          6    2    1    2  501    0 -0.17389616243E+02 -0.81545215772E+02 -0.18378286150E+03  0.26578404178E+03  0.17295373866E+03 0.  0.
         24    2    5    5    0    0 -0.53533993952E+02 -0.86866757784E+02 -0.72952411916E+02  0.14899271760E+03  0.80405555643E+02 0.  0.
          5    1    5    5  501    0  0.36144377708E+02  0.53215420125E+01 -0.11083044958E+03  0.11679132418E+03  0.47000000000E+01 0. -1.
        -11    1    6    6    0    0 -0.62843253621E+02 -0.42499825978E+02 -0.70544826370E+02  0.10359576372E+03  0.00000000000E+00 0.  1.
         12    1    6    6    0    0  0.93092596689E+01 -0.44366931807E+02 -0.24075855467E+01  0.45396953881E+02  0.00000000000E+00 0. -1.
         -5    1    3    3    0  503 -0.67334260105E+01  0.10630649885E+03 -0.25940950042E+03  0.28046709189E+03  0.47000000000E+01 0.  1.
         13    1    4    4    0    0  0.24798782109E+02  0.16569005365E+02 -0.14954267071E+03  0.15248777622E+03  0.00000000000E+00 0. -1.
        -14    1    4    4    0    0 -0.67573985532E+00 -0.41330288438E+02 -0.46364871266E+02  0.62115623270E+02  0.00000000000E+00 0.  1.
<mgrwt>
<rscale>  2 0.19377830E+03</rscale>
<asrwt>0</asrwt>
<pdfrwt beam="1">  1       21 0.93657408E-02 0.19437382E+03</pdfrwt>
<pdfrwt beam="2">  1       21 0.10768880E+00 0.19437382E+03</pdfrwt>
<totfact> 0.62566169E+04</totfact>
</mgrwt>
</event>
<event>
12    1  0.1039378E-001  0.4847692E+03  0.7546771E-02  0.1018030E+00
         21   -1    0    0  503  502  0.00000000000E+00  0.00000000000E+00  0.10171314844E+04  0.10171314844E+04  0.00000000000E+00 0. -1.
         21   -1    0    0  501  503 -0.00000000000E+00 -0.00000000000E+00 -0.23134830432E+03  0.23134830432E+03  0.00000000000E+00 0.  1.
          6    2    1    2  501    0 -0.44508734577E+03 -0.71222836373E+02  0.34082871598E+03  0.59259207976E+03  0.17839765014E+03 0.  0.
         24    2    3    3    0    0 -0.11363062817E+03 -0.57966159858E+02  0.12900355152E+03  0.19897896335E+03  0.81723412820E+02 0.  0.
         -6    2    1    2    0  502  0.44508734577E+03  0.71222836373E+02  0.44495446406E+03  0.65588770891E+03  0.17037832559E+03 0.  0.
        -24    2    5    5    0    0  0.13786843220E+03  0.70150574488E+02  0.17773831807E+03  0.24868853249E+03  0.79537844977E+02 0.  0.
          5    1    3    3  501    0 -0.33145671760E+03 -0.13256676515E+02  0.21182516446E+03  0.39361311641E+03  0.47000000000E+01 0. -1.
        -13    1    4    4    0    0 -0.82230890760E+02 -0.30645788262E+02  0.31974039309E+02  0.93399266181E+02  0.00000000000E+00 0.  1.
         14    1    4    4    0    0 -0.31399737410E+02 -0.27320371597E+02  0.97029512215E+02  0.10557969717E+03  0.00000000000E+00 0. -1.
         -5    1    5    5    0  502  0.30721891357E+03  0.10722618854E+01  0.26721614598E+03  0.40719917642E+03  0.47000000000E+01 0.  1.
         11    1    6    6    0    0  0.12935319010E+03  0.40443693277E+02  0.16888693556E+03  0.21654269121E+03  0.00000000000E+00 0. -1.
        -12    1    6    6    0    0  0.85152420966E+01  0.29706881211E+02  0.88513825189E+01  0.32145841282E+02  0.00000000000E+00 0.  1.
<mgrwt>
<rscale>  2 0.48404419E+03</rscale>
<asrwt>0</asrwt>
<pdfrwt beam="1">  1       21 0.15648176E+00 0.48476918E+03</pdfrwt>
<pdfrwt beam="2">  1       21 0.35592048E-01 0.48476918E+03</pdfrwt>
<totfact> 0.17104891E+03</totfact>
</mgrwt>
</event>
<event>
12    1  0.1039378E-001  0.2483739E+03  0.7546771E-02  0.1114460E+00
         21   -1    0    0  501  502  0.00000000000E+00  0.00000000000E+00  0.12908551869E+03  0.12908551869E+03  0.00000000000E+00 0. -1.
         21   -1    0    0  502  503 -0.00000000000E+00 -0.00000000000E+00 -0.48721671499E+03  0.48721671499E+03  0.00000000000E+00 0. -1.
         -6    2    1    2    0  503 -0.79676396082E+02 -0.15936757407E+03 -0.22467641462E+03  0.33434517530E+03  0.17193269963E+03 0.  0.
        -24    2    3    3    0    0  0.23081477308E+02 -0.78518260971E+02 -0.11751968234E+03  0.16522850775E+03  0.82411844620E+02 0.  0.
          6    2    1    2  501    0  0.79676396082E+02  0.15936757407E+03 -0.13345478169E+03  0.28195705839E+03  0.17304118660E+03 0.  0.
         24    2    5    5    0    0  0.18367103838E+02  0.10291618825E+02 -0.69616101180E+02  0.10852137326E+03  0.80543274012E+02 0.  0.
          5    1    5    5  501    0  0.61309292244E+02  0.14907595524E+03 -0.63838680510E+02  0.17343568513E+03  0.47000000000E+01 0. -1.
        -11    1    6    6    0    0  0.12556586127E+02 -0.33472450293E+02 -0.16275285256E+02  0.39280500174E+02  0.00000000000E+00 0.  1.
         12    1    6    6    0    0  0.58105177112E+01  0.43764069117E+02 -0.53340815925E+02  0.69240873083E+02  0.00000000000E+00 0. -1.
         -5    1    3    3    0  503 -0.10275787339E+03 -0.80849313096E+02 -0.10715673227E+03  0.16911666755E+03  0.47000000000E+01 0.  1.
         11    1    4    4    0    0 -0.28145535996E+02 -0.33145762596E+02 -0.68174080759E+02  0.80861103517E+02  0.00000000000E+00 0. -1.
        -12    1    4    4    0    0  0.51227013305E+02 -0.45372498375E+02 -0.49345601585E+02  0.84367404231E+02  0.00000000000E+00 0.  1.
<mgrwt>
<rscale>  2 0.24818094E+03</rscale>
<asrwt>0</asrwt>
<pdfrwt beam="1">  1       21 0.19859311E-01 0.24837392E+03</pdfrwt>
<pdfrwt beam="2">  1       21 0.74956417E-01 0.24837392E+03</pdfrwt>
<totfact> 0.36235371E+04</totfact>
</mgrwt>
</event>
<event>
11    1  0.1039378E-001  0.4031455E+03  0.7546771E-02  0.1042700E+00
         21   -1    0    0  503  502  0.00000000000E+00  0.00000000000E+00  0.29726476380E+03  0.29726476380E+03  0.00000000000E+00 0. -1.
         21   -1    0    0  501  503 -0.00000000000E+00 -0.00000000000E+00 -0.61742386168E+03  0.61742386168E+03  0.00000000000E+00 0.  1.
          6    2    1    2  501    0 -0.52809077645E+01  0.36374228159E+03 -0.31488112427E+03  0.51150856019E+03  0.17365065310E+03 0.  0.
         -6    2    1    2    0  502  0.52809077645E+01 -0.36374228159E+03 -0.52779736124E+01  0.40318006529E+03  0.17375261907E+03 0.  0.
        -24    2    4    4    0    0  0.70575454781E+02 -0.18124050390E+03 -0.84399978891E+01  0.20926677248E+03  0.76761536112E+02 0.  0.
          5    1    3    3  501    0  0.46999309963E+02  0.74602353447E+02 -0.74338797885E+02  0.11542440447E+03  0.47000000000E+01 0. -1.
        -13    1    3    3    0    0 -0.57933590968E+02  0.20249872806E+03 -0.22441642579E+03  0.30777389102E+03  0.00000000000E+00 0.  1.
         14    1    3    3    0    0  0.56533732412E+01  0.86641200089E+02 -0.16125900596E+02  0.88310264703E+02  0.00000000000E+00 0. -1.
         -5    1    4    4    0  502 -0.65294547016E+02 -0.18250177769E+03  0.31620242767E+01  0.19391329281E+03  0.47000000000E+01 0.  1.
         13    1    5    5    0    0  0.63681152777E+01 -0.11069040763E+03 -0.21636722001E+02  0.11296489266E+03  0.00000000000E+00 0. -1.
        -14    1    5    5    0    0  0.64207339503E+02 -0.70550096274E+02  0.13196724112E+02  0.96301879824E+02  0.00000000000E+00 0.  1.
<mgrwt>
<rscale>  2 0.40313453E+03</rscale>
<asrwt>0</asrwt>
<pdfrwt beam="1">  1       21 0.45733042E-01 0.40314552E+03</pdfrwt>
<pdfrwt beam="2">  1       21 0.94988284E-01 0.40314552E+03</pdfrwt>
<totfact> 0.37743835E+03</totfact>
</mgrwt>
</event>
<event>
12    1  0.1039378E-001  0.2093587E+03  0.7546771E-02  0.1143196E+00
         21   -1    0    0  503  502  0.00000000000E+00  0.00000000000E+00  0.25711982277E+03  0.25711982277E+03  0.00000000000E+00 0.  1.
         21   -1    0    0  501  503 -0.00000000000E+00 -0.00000000000E+00 -0.20020823828E+03  0.20020823828E+03  0.00000000000E+00 0. -1.
          6    2    1    2  501    0 -0.10347749009E+03  0.17659758473E+02 -0.66411346365E+02  0.21434735362E+03  0.17468503958E+03 0.  0.
         24    2    3    3    0    0 -0.11017708568E+03  0.91699272701E+01  0.97527529461E+01  0.13727581647E+03  0.80786482916E+02 0.  0.
         -6    2    1    2    0  502  0.10347749009E+03 -0.17659758473E+02  0.12332293085E+03  0.24298070743E+03  0.18113978273E+03 0.  0.
        -24    2    5    5    0    0  0.81947613534E+02 -0.43703322949E+02  0.92131116998E+01  0.12388014630E+03  0.81461754336E+02 0.  0.
          5    1    3    3  501    0  0.66995955921E+01  0.84898312031E+01 -0.76164099312E+02  0.77071537151E+02  0.47000000000E+01 0. -1.
        -13    1    4    4    0    0 -0.63964239445E+02 -0.30067962026E+02  0.24640264892E+02  0.74850844498E+02  0.00000000000E+00 0.  1.
         14    1    4    4    0    0 -0.46212846234E+02  0.39237889296E+02 -0.14887511946E+02  0.62424971969E+02  0.00000000000E+00 0. -1.
         -5    1    5    5    0  502  0.21529876552E+02  0.26043564475E+02  0.11410981915E+03  0.11910056113E+03  0.47000000000E+01 0.  1.
         11    1    6    6    0    0  0.62385693891E+02 -0.86382995919E+01 -0.28193322130E+02  0.69003321912E+02  0.00000000000E+00 0. -1.
        -12    1    6    6    0    0  0.19561919643E+02 -0.35065023357E+02  0.37406433830E+02  0.54876824389E+02  0.00000000000E+00 0.  1.
<mgrwt>
<rscale>  2 0.20795492E+03</rscale>
<asrwt>0</asrwt>
<pdfrwt beam="1">  1       21 0.39556896E-01 0.20935873E+03</pdfrwt>
<pdfrwt beam="2">  1       21 0.30801267E-01 0.20935873E+03</pdfrwt>
<totfact> 0.61881151E+04</totfact>
</mgrwt>
</event>
<event>
12    1  0.1039378E-001  0.2413316E+03  0.7546771E-02  0.1119038E+00
         21   -1    0    0  503  502  0.00000000000E+00  0.00000000000E+00  0.98150954246E+02  0.98150954246E+02  0.00000000000E+00 0. -1.
         21   -1    0    0  501  503 -0.00000000000E+00 -0.00000000000E+00 -0.87892687231E+03  0.87892687231E+03  0.00000000000E+00 0.  1.
          6    2    1    2  501    0  0.10287501203E+03 -0.13355558510E+03 -0.66935257384E+03  0.71126567466E+03  0.17159728853E+03 0.  0.
         24    2    3    3    0    0  0.27477432586E+01 -0.25998932636E+02 -0.34122111614E+03  0.35170170681E+03  0.81109468527E+02 0.  0.
         -6    2    1    2    0  502 -0.10287501203E+03  0.13355558510E+03 -0.11142334423E+03  0.26581215190E+03  0.17268635165E+03 0.  0.
        -24    2    5    5    0    0 -0.96946130755E+02  0.33581041063E+02 -0.24449965759E+02  0.13308491411E+03  0.81163753924E+02 0.  0.
          5    1    3    3  501    0  0.10012726877E+03 -0.10755665247E+03 -0.32813145770E+03  0.35956396785E+03  0.47000000000E+01 0. -1.
        -11    1    4    4    0    0 -0.30142082226E+02 -0.12184164192E+02 -0.60134987503E+02  0.68360922316E+02  0.00000000000E+00 0.  1.
         12    1    4    4    0    0  0.32889825484E+02 -0.13814768444E+02 -0.28108612863E+03  0.28334078449E+03  0.00000000000E+00 0. -1.
         -5    1    5    5    0  502 -0.59288812761E+01  0.99974544038E+02 -0.86973378470E+02  0.13272723779E+03  0.47000000000E+01 0.  1.
         11    1    6    6    0    0 -0.65569564574E+02 -0.19977459321E+02 -0.91389831528E+01  0.69151917489E+02  0.00000000000E+00 0. -1.
        -12    1    6    6    0    0 -0.31376566181E+02  0.53558500384E+02 -0.15310982606E+02  0.63932996622E+02  0.00000000000E+00 0.  1.
<mgrwt>
<rscale>  2 0.24113684E+03</rscale>
<asrwt>0</asrwt>
<pdfrwt beam="1">  1       21 0.15100147E-01 0.24133159E+03</pdfrwt>
<pdfrwt beam="2">  1       21 0.13521952E+00 0.24133159E+03</pdfrwt>
<totfact> 0.14697713E+04</totfact>
</mgrwt>
</event>
<event>
12    1  0.1039378E-001  0.2102813E+03  0.7546771E-02  0.1141347E+00
         21   -1    0    0  503  502  0.00000000000E+00  0.00000000000E+00  0.14857923992E+03  0.14857923992E+03  0.00000000000E+00 0.  1.
         21   -1    0    0  501  503 -0.00000000000E+00 -0.00000000000E+00 -0.33415908544E+03  0.33415908544E+03  0.00000000000E+00 0.  1.
          6    2    1    2  501    0  0.25277375189E+01  0.11846688420E+03 -0.17264581932E+03  0.27205966591E+03  0.17369251791E+03 0.  0.
         24    2    3    3    0    0  0.10095636287E+02  0.13417024084E+02 -0.14022606616E+03  0.16176063329E+03  0.78874675562E+02 0.  0.
         -6    2    1    2    0  502 -0.25277375189E+01 -0.11846688420E+03 -0.12934026199E+02  0.21067865944E+03  0.17371648282E+03 0.  0.
        -24    2    5    5    0    0 -0.26650544526E+02 -0.11793418517E+03 -0.60478165768E+02  0.15715549816E+03  0.80134377848E+02 0.  0.
          5    1    3    3  501    0 -0.75678987684E+01  0.10504986011E+03 -0.32419753163E+02  0.11029903262E+03  0.47000000000E+01 0. -1.
        -11    1    4    4    0    0 -0.16716443637E+02  0.18848209551E+02 -0.75594748557E+01  0.26302854432E+02  0.00000000000E+00 0.  1.
         12    1    4    4    0    0  0.26812079924E+02 -0.54311854678E+01 -0.13266659130E+03  0.13545777886E+03  0.00000000000E+00 0. -1.
         -5    1    5    5    0  502  0.24122807007E+02 -0.53269903161E+00  0.47544139568E+02  0.53523161281E+02  0.47000000000E+01 0.  1.
         13    1    6    6    0    0 -0.52508648666E+02 -0.50605058333E+02 -0.30978738364E+02  0.79232015904E+02  0.00000000000E+00 0. -1.
        -14    1    6    6    0    0  0.25858104139E+02 -0.67329126833E+02 -0.29499427404E+02  0.77923482256E+02  0.00000000000E+00 0.  1.
<mgrwt>
<rscale>  2 0.21027631E+03</rscale>
<asrwt>0</asrwt>
<pdfrwt beam="1">  1       21 0.22858345E-01 0.21028126E+03</pdfrwt>
<pdfrwt beam="2">  1       21 0.51409090E-01 0.21028126E+03</pdfrwt>
<totfact> 0.64048802E+04</totfact>
</mgrwt>
</event>
<event>
12    1  0.1039378E-001  0.2429789E+03  0.7546771E-02  0.1117946E+00
         21   -1    0    0  501  502  0.00000000000E+00  0.00000000000E+00  0.17833611252E+03  0.17833611252E+03  0.00000000000E+00 0.  1.
         21   -1    0    0  502  503 -0.00000000000E+00 -0.00000000000E+00 -0.57304265264E+03  0.57304265264E+03  0.00000000000E+00 0.  1.
         -6    2    1    2    0  503  0.14433773953E+03 -0.88329848483E+02 -0.44217058221E+03  0.50453303647E+03  0.17436517981E+03 0.  0.
        -24    2    3    3    0    0  0.11269713189E+03  0.57211586881E+01 -0.30005588177E+03  0.33113927048E+03  0.82983788048E+02 0.  0.
          6    2    1    2  501    0 -0.14433773953E+03  0.88329848483E+02  0.47464042088E+02  0.24684572869E+03  0.17333330118E+03 0.  0.
         24    2    5    5    0    0 -0.90539615393E+02  0.12660287059E+03  0.27555928725E+02  0.17772637280E+03  0.81250388213E+02 0.  0.
          5    1    5    5  501    0 -0.53798124133E+02 -0.38273022104E+02  0.19908113363E+02  0.69119355892E+02  0.47000000000E+01 0. -1.
        -11    1    6    6    0    0 -0.35572154108E+00  0.13365009254E+01  0.23273071394E+02  0.23314129292E+02  0.00000000000E+00 0.  1.
         12    1    6    6    0    0 -0.90183893852E+02  0.12526636966E+03  0.42828573312E+01  0.15441224351E+03  0.00000000000E+00 0. -1.
         -5    1    3    3    0  503  0.31640607641E+02 -0.94051007171E+02 -0.14211470044E+03  0.17339376599E+03  0.47000000000E+01 0.  1.
         13    1    4    4    0    0  0.42018292104E+00 -0.16638913041E+02 -0.10265468876E+02  0.19555301893E+02  0.00000000000E+00 0. -1.
        -14    1    4    4    0    0  0.11227694896E+03  0.22360071729E+02 -0.28979041289E+03  0.31158396859E+03  0.00000000000E+00 0.  1.
<mgrwt>
<rscale>  2 0.24279386E+03</rscale>
<asrwt>0</asrwt>
<pdfrwt beam="1">  1       21 0.27436324E-01 0.24297893E+03</pdfrwt>
<pdfrwt beam="2">  1       21 0.88160411E-01 0.24297893E+03</pdfrwt>
<totfact> 0.13542262E+04</totfact>
</mgrwt>
</event>
<event>
12    1  0.1039378E-001  0.2283229E+03  0.7546771E-02  0.1128183E+00
         21   -1    0    0  501  502  0.00000000000E+00  0.00000000000E+00  0.71704174808E+02  0.71704174808E+02  0.00000000000E+00 0.  1.
         21   -1    0    0  502  503 -0.00000000000E+00 -0.00000000000E+00 -0.12597573232E+04  0.12597573232E+04  0.00000000000E+00 0.  1.
         -6    2    1    2    0  503  0.12871829902E+03  0.72015907362E+02 -0.10280219004E+04  0.10526401769E+04  0.17166136086E+03 0.  0.
        -24    2    3    3    0    0  0.15291921858E+03  0.90616525450E+02 -0.89308666617E+03  0.91421591981E+03  0.81186899518E+02 0.  0.
          6    2    1    2  501    0 -0.12871829902E+03 -0.72015907362E+02 -0.16003124793E+03  0.27882132109E+03  0.17428894791E+03 0.  0.
         24    2    5    5    0    0  0.38629931855E+01 -0.14143137210E+02 -0.65561279686E+02  0.10598115947E+03  0.81968126261E+02 0.  0.
          5    1    5    5  501    0 -0.13258129220E+03 -0.57872770152E+02 -0.94469968241E+02  0.17284016162E+03  0.47000000000E+01 0. -1.
        -13    1    6    6    0    0  0.12662537328E+02 -0.41698920502E+02 -0.12152292882E+02  0.45241773229E+02  0.00000000000E+00 0.  1.
         14    1    6    6    0    0 -0.87995441425E+01  0.27555783292E+02 -0.53408986804E+02  0.60739386245E+02  0.00000000000E+00 0. -1.
         -5    1    3    3    0  503 -0.24200919564E+02 -0.18600618088E+02 -0.13493523426E+03  0.13842425707E+03  0.47000000000E+01 0.  1.
         11    1    4    4    0    0  0.45564129677E+02 -0.91246876335E+01 -0.15924646843E+03  0.16588787642E+03  0.00000000000E+00 0. -1.
        -12    1    4    4    0    0  0.10735508891E+03  0.99741213083E+02 -0.73384019774E+03  0.74832804339E+03  0.00000000000E+00 0.  1.
<mgrwt>
<rscale>  2 0.22782136E+03</rscale>
<asrwt>0</asrwt>
<pdfrwt beam="1">  1       21 0.11031412E-01 0.22832286E+03</pdfrwt>
<pdfrwt beam="2">  1       21 0.19380881E+00 0.22832286E+03</pdfrwt>
<totfact> 0.97622222E+03</totfact>
</mgrwt>
</event>
<event>
12    1  0.1039378E-001  0.3037889E+03  0.7546771E-02  0.1083382E+00
         21   -1    0    0  501  502  0.00000000000E+00  0.00000000000E+00  0.72178128942E+03  0.72178128942E+03  0.00000000000E+00 0.  1.
         21   -1    0    0  502  503 -0.00000000000E+00 -0.00000000000E+00 -0.53226976256E+03  0.53226976256E+03  0.00000000000E+00 0. -1.
         -6    2    1    2    0  503  0.63694364416E+02  0.24120361169E+03 -0.45184551184E+03  0.54438455167E+03  0.17307229467E+03 0.  0.
        -24    2    3    3    0    0  0.33533000331E+02  0.58080309746E+02 -0.24340741505E+03  0.26525665663E+03  0.81339656340E+02 0.  0.
          6    2    1    2  501    0 -0.63694364416E+02 -0.24120361169E+03  0.64135703870E+03  0.70966650030E+03  0.17335378915E+03 0.  0.
         24    2    5    5    0    0 -0.86707237402E+02 -0.19811153247E+03  0.60819220449E+03  0.65043377419E+03  0.80000079305E+02 0.  0.
          5    1    5    5  501    0  0.23012872986E+02 -0.43092079225E+02  0.33164834208E+02  0.59232726115E+02  0.47000000000E+01 0. -1.
        -11    1    6    6    0    0 -0.49074340246E+02 -0.53031197398E+02  0.28757411366E+03  0.29651217448E+03  0.00000000000E+00 0.  1.
         12    1    6    6    0    0 -0.37632897156E+02 -0.14508033507E+03  0.32061809083E+03  0.35392159971E+03  0.00000000000E+00 0. -1.
         -5    1    3    3    0  503  0.30161364086E+02  0.18312330195E+03 -0.20843809679E+03  0.27912789505E+03  0.47000000000E+01 0.  1.
         13    1    4    4    0    0 -0.11924031972E+02  0.50517155936E+02 -0.79101162236E+02  0.94610567324E+02  0.00000000000E+00 0. -1.
        -14    1    4    4    0    0  0.45457032303E+02  0.75631538101E+01 -0.16430625281E+03  0.17064608930E+03  0.00000000000E+00 0.  1.
<mgrwt>
<rscale>  2 0.30374875E+03</rscale>
<asrwt>0</asrwt>
<pdfrwt beam="1">  1       21 0.11104328E+00 0.30378889E+03</pdfrwt>
<pdfrwt beam="2">  1       21 0.81887656E-01 0.30378889E+03</pdfrwt>
<totfact> 0.75893063E+02</totfact>
</mgrwt>
</event>
<event>
12    1  0.1039378E-001  0.2021847E+03  0.7546771E-02  0.1148117E+00
         21   -1    0    0  503  502  0.00000000000E+00  0.00000000000E+00  0.50393143341E+02  0.50393143341E+02  0.00000000000E+00 0. -1.
         21   -1    0    0  501  503 -0.00000000000E+00 -0.00000000000E+00 -0.85054719670E+03  0.85054719670E+03  0.00000000000E+00 0. -1.
          6    2    1    2  501    0  0.46702298019E+02  0.92936984411E+02 -0.29931825660E+03  0.36120642669E+03  0.17337899596E+03 0.  0.
         24    2    3    3    0    0  0.39323437006E+02  0.12936357632E+03 -0.27369719197E+03  0.31582060137E+03  0.80939679885E+02 0.  0.
         -6    2    1    2    0  502 -0.46702298019E+02 -0.92936984411E+02 -0.50083579676E+03  0.53973391334E+03  0.17221444244E+03 0.  0.
        -24    2    5    5    0    0 -0.72335882751E+02 -0.82127035034E+01 -0.22252277160E+03  0.24764571705E+03  0.80697514584E+02 0.  0.
          5    1    3    3  501    0  0.73788610139E+01 -0.36426591907E+02 -0.25621064624E+02  0.45385825323E+02  0.47000000000E+01 0. -1.
        -11    1    4    4    0    0 -0.21220973530E+02  0.95419849856E+01 -0.37252057978E+02  0.43921464213E+02  0.00000000000E+00 0.  1.
         12    1    4    4    0    0  0.60544410536E+02  0.11982159133E+03 -0.23644513399E+03  0.27189913716E+03  0.00000000000E+00 0. -1.
         -5    1    5    5    0  502  0.25633584731E+02 -0.84724280908E+02 -0.27831302516E+03  0.29208819630E+03  0.47000000000E+01 0.  1.
         13    1    6    6    0    0 -0.73192155157E+02 -0.35309788844E+02 -0.15846211714E+03  0.17808457355E+03  0.00000000000E+00 0. -1.
        -14    1    6    6    0    0  0.85627240637E+00  0.27097085340E+02 -0.64060654451E+02  0.69561143501E+02  0.00000000000E+00 0.  1.
<mgrwt>
<rscale>  2 0.20193483E+03</rscale>
<asrwt>0</asrwt>
<pdfrwt beam="1">  1       21 0.77527920E-02 0.20218473E+03</pdfrwt>
<pdfrwt beam="2">  1       21 0.13085340E+00 0.20218473E+03</pdfrwt>
<totfact> 0.53609340E+04</totfact>
</mgrwt>
</event>
<event>
12    1  0.1039378E-001  0.1827261E+03  0.7546771E-02  0.1165383E+00
         21   -1    0    0  503  502  0.00000000000E+00  0.00000000000E+00  0.51958047221E+03  0.51958047221E+03  0.00000000000E+00 0.  1.
         21   -1    0    0  501  503 -0.00000000000E+00 -0.00000000000E+00 -0.14620024643E+03  0.14620024643E+03  0.00000000000E+00 0.  1.
          6    2    1    2  501    0  0.56322594255E+02  0.12236314656E+02 -0.63136396029E+02  0.19256238550E+03  0.17254595268E+03 0.  0.
         24    2    3    3    0    0  0.74392670276E+02 -0.58346368499E+01 -0.99247116691E+02  0.14807462221E+03  0.80670881940E+02 0.  0.
         -6    2    1    2    0  502 -0.56322594255E+02 -0.12236314656E+02  0.43651662181E+03  0.47321833314E+03  0.17339800370E+03 0.  0.
        -24    2    5    5    0    0 -0.71111898270E+02 -0.59675573527E+02  0.24757869962E+03  0.27779869432E+03  0.85198743594E+02 0.  0.
          5    1    3    3  501    0 -0.18070076020E+02  0.18070951506E+02  0.36110720662E+02  0.44487763289E+02  0.47000000000E+01 0. -1.
        -13    1    4    4    0    0  0.80741790290E+02  0.16856510828E+02 -0.91688041378E+02  0.12332913520E+03  0.00000000000E+00 0.  1.
         14    1    4    4    0    0 -0.63491200146E+01 -0.22691147678E+02 -0.75590753128E+01  0.24745487012E+02  0.00000000000E+00 0. -1.
         -5    1    5    5    0  502  0.14789304014E+02  0.47439258870E+02  0.18893792218E+03  0.19541963881E+03  0.47000000000E+01 0.  1.
         11    1    6    6    0    0 -0.76048954148E+02 -0.18383859259E+02  0.11693054563E+03  0.14069172758E+03  0.00000000000E+00 0. -1.
        -12    1    6    6    0    0  0.49370558785E+01 -0.41291714268E+02  0.13064815399E+03  0.13710696674E+03  0.00000000000E+00 0.  1.
<mgrwt>
<rscale>  2 0.18252368E+03</rscale>
<asrwt>0</asrwt>
<pdfrwt beam="1">  1       21 0.79935456E-01 0.18272611E+03</pdfrwt>
<pdfrwt beam="2">  1       21 0.22492346E-01 0.18272611E+03</pdfrwt>
<totfact> 0.25653846E+04</totfact>
</mgrwt>
</event>
<event>
12    1  0.1039378E-001  0.2035697E+03  0.7546771E-02  0.1149390E+00
         21   -1    0    0  503  502  0.00000000000E+00  0.00000000000E+00  0.15629349180E+04  0.15629349180E+04  0.00000000000E+00 0. -1.
         21   -1    0    0  501  503 -0.00000000000E+00 -0.00000000000E+00 -0.25683653438E+02  0.25683653438E+02  0.00000000000E+00 0.  1.
          6    2    1    2  501    0 -0.10566066068E+03  0.18144654980E+02  0.92766013923E+03  0.94973361425E+03  0.17305259431E+03 0.  0.
         24    2    3    3    0    0 -0.13032726182E+03 -0.59031751036E+01  0.86213188979E+03  0.87555288347E+03  0.79381444414E+02 0.  0.
         -6    2    1    2    0  502  0.10566066068E+03 -0.18144654980E+02  0.60959112534E+03  0.63888495720E+03  0.15836427856E+03 0.  0.
        -24    2    5    5    0    0  0.81785854035E+02 -0.12684031274E+02  0.60079539535E+03  0.61244106056E+03  0.85317847028E+02 0.  0.
          5    1    3    3  501    0  0.24666601139E+02  0.24047830084E+02  0.65528249438E+02  0.74180730772E+02  0.47000000000E+01 0. -1.
        -11    1    4    4    0    0 -0.20095437548E+02  0.21962026353E+02  0.83171715976E+02  0.88338505479E+02  0.00000000000E+00 0.  1.
         12    1    4    4    0    0 -0.11023182427E+03 -0.27865201457E+02  0.77896017381E+03  0.78721437799E+03  0.00000000000E+00 0. -1.
         -5    1    5    5    0  502  0.23874806641E+02 -0.54606237057E+01  0.87957299978E+01  0.26443896642E+02  0.47000000000E+01 0.  1.
         11    1    6    6    0    0  0.50274019218E+02  0.32985705977E+02  0.38287075273E+03  0.38756360395E+03  0.00000000000E+00 0. -1.
        -12    1    6    6    0    0  0.31511834818E+02 -0.45669737252E+02  0.21792464261E+03  0.22487745661E+03  0.00000000000E+00 0.  1.
<mgrwt>
<rscale>  2 0.20041459E+03</rscale>
<asrwt>0</asrwt>
<pdfrwt beam="1">  1       21 0.24045145E+00 0.20356965E+03</pdfrwt>
<pdfrwt beam="2">  1       21 0.39513325E-02 0.20356965E+03</pdfrwt>
<totfact> 0.30023528E+04</totfact>
</mgrwt>
</event>
<event>
12    1  0.1039378E-001  0.2001702E+03  0.7546771E-02  0.1150982E+00
         21   -1    0    0  503  502  0.00000000000E+00  0.00000000000E+00  0.64165062341E+02  0.64165062341E+02  0.00000000000E+00 0. -1.
         21   -1    0    0  501  503 -0.00000000000E+00 -0.00000000000E+00 -0.86513193234E+03  0.86513193234E+03  0.00000000000E+00 0. -1.
          6    2    1    2  501    0  0.28956551873E+02  0.88712475696E+02 -0.14085387525E+03  0.23950189017E+03  0.16974379512E+03 0.  0.
         24    2    3    3    0    0  0.59617681402E+02  0.20149227352E+02 -0.12560493561E+03  0.16271879276E+03  0.82100830501E+02 0.  0.
         -6    2    1    2    0  502 -0.28956551873E+02 -0.88712475696E+02 -0.66011299476E+03  0.68979510452E+03  0.17708680112E+03 0.  0.
        -24    2    5    5    0    0  0.35409701596E+01 -0.82177143444E+02 -0.64128527707E+03  0.65138452708E+03  0.79305574578E+02 0.  0.
          5    1    3    3  501    0 -0.30661129529E+02  0.68563248344E+02 -0.15248939640E+02  0.76783097409E+02  0.47000000000E+01 0. -1.
        -11    1    4    4    0    0  0.72217976888E+02 -0.68455517860E+01 -0.77642709222E+02  0.10625764942E+03  0.00000000000E+00 0.  1.
         12    1    4    4    0    0 -0.12600295486E+02  0.26994779138E+02 -0.47962226384E+02  0.56461143335E+02  0.00000000000E+00 0. -1.
         -5    1    5    5    0  502 -0.32497522033E+02 -0.65353322527E+01 -0.18827717689E+02  0.38410577440E+02  0.47000000000E+01 0.  1.
         11    1    6    6    0    0  0.15150029113E+02 -0.78197292395E+02 -0.31654477117E+03  0.32641221190E+03  0.00000000000E+00 0. -1.
        -12    1    6    6    0    0 -0.11609058953E+02 -0.39798510485E+01 -0.32474050589E+03  0.32497231518E+03  0.00000000000E+00 0.  1.
<mgrwt>
<rscale>  2 0.19853378E+03</rscale>
<asrwt>0</asrwt>
<pdfrwt beam="1">  1       21 0.98715491E-02 0.20017023E+03</pdfrwt>
<pdfrwt beam="2">  1       21 0.13309721E+00 0.20017023E+03</pdfrwt>
<totfact> 0.33659820E+04</totfact>
</mgrwt>
</event>
<event>
11    1  0.1039378E-001  0.1822159E+03  0.7546771E-02  0.1165740E+00
         21   -1    0    0  501  502  0.00000000000E+00  0.00000000000E+00  0.10612082744E+03  0.10612082744E+03  0.00000000000E+00 0. -1.
         21   -1    0    0  502  503 -0.00000000000E+00 -0.00000000000E+00 -0.53671124752E+03  0.53671124752E+03  0.00000000000E+00 0. -1.
         -6    2    1    2    0  503 -0.53949315125E+02  0.20172719649E+02 -0.42317249074E+03  0.46073593095E+03  0.17287328866E+03 0.  0.
        -24    2    3    3    0    0 -0.54364764784E+02  0.78078824658E+02 -0.30717030247E+03  0.33099816745E+03  0.78449739479E+02 0.  0.
          6    2    1    2  501    0  0.53949315125E+02 -0.20172719649E+02 -0.74179293365E+01  0.18209614400E+03  0.17258769586E+03 0.  0.
          5    1    5    5  501    0 -0.11723987301E+02 -0.26288497881E+02  0.32910062861E+02  0.43973847189E+02  0.47000000000E+01 0. -1.
        -11    1    5    5    0    0 -0.21810449619E+02  0.75338952346E+01 -0.44926919266E+02  0.50506270548E+02  0.00000000000E+00 0.  1.
         12    1    5    5    0    0  0.87483752044E+02 -0.14181170028E+01  0.45989270678E+01  0.87616026261E+02  0.00000000000E+00 0. -1.
         -5    1    3    3    0  503  0.41544965922E+00 -0.57906105009E+02 -0.11600218827E+03  0.12973776350E+03  0.47000000000E+01 0.  1.
         11    1    4    4    0    0 -0.95500199096E+01  0.47883491054E+02 -0.23936228763E+03  0.24429149869E+03  0.00000000000E+00 0. -1.
        -12    1    4    4    0    0 -0.44814744874E+02  0.30195333604E+02 -0.67808014846E+02  0.86706668757E+02  0.00000000000E+00 0.  1.
<mgrwt>
<rscale>  2 0.18214815E+03</rscale>
<asrwt>0</asrwt>
<pdfrwt beam="1">  1       21 0.16326281E-01 0.18221592E+03</pdfrwt>
<pdfrwt beam="2">  1       21 0.82570961E-01 0.18221592E+03</pdfrwt>
<totfact> 0.43243096E+04</totfact>
</mgrwt>
</event>
<event>
12    1  0.1039378E-001  0.4322063E+03  0.7546771E-02  0.1033180E+00
         21   -1    0    0  503  502  0.00000000000E+00  0.00000000000E+00  0.12489550663E+04  0.12489550663E+04  0.00000000000E+00 0.  1.
         21   -1    0    0  501  503 -0.00000000000E+00 -0.00000000000E+00 -0.15411081677E+03  0.15411081677E+03  0.00000000000E+00 0. -1.
          6    2    1    2  501    0 -0.39204720313E+03 -0.55897027690E+02  0.42620703436E+03  0.60700471670E+03  0.17313810318E+03 0.  0.
         24    2    3    3    0    0 -0.34500707263E+03 -0.80163083144E+02  0.41709326842E+03  0.55309028399E+03  0.80536126212E+02 0.  0.
         -6    2    1    2    0  502  0.39204720313E+03  0.55897027690E+02  0.66863721521E+03  0.79606116641E+03  0.17266200484E+03 0.  0.
        -24    2    5    5    0    0  0.96198723088E+02 -0.14338283487E+02  0.15660425956E+03  0.20052849749E+03  0.78911364812E+02 0.  0.
          5    1    3    3  501    0 -0.47040130501E+02  0.24266055454E+02  0.91137659471E+01  0.53914432711E+02  0.47000000000E+01 0. -1.
        -13    1    4    4    0    0 -0.18130203332E+02 -0.20868713790E+02  0.55832426654E+02  0.62301423372E+02  0.00000000000E+00 0.  1.
         14    1    4    4    0    0 -0.32687686929E+03 -0.59294369354E+02  0.36126084176E+03  0.49078886062E+03  0.00000000000E+00 0. -1.
         -5    1    5    5    0  502  0.29584848004E+03  0.70235311177E+02  0.51203295565E+03  0.59553266892E+03  0.47000000000E+01 0.  1.
         11    1    6    6    0    0  0.10156679811E+03 -0.46456239205E+01  0.99146029701E+02  0.14201173017E+03  0.00000000000E+00 0. -1.
        -12    1    6    6    0    0 -0.53680750259E+01 -0.96926595664E+01  0.57458229862E+02  0.58516767322E+02  0.00000000000E+00 0.  1.
<mgrwt>
<rscale>  2 0.43215867E+03</rscale>
<asrwt>0</asrwt>
<pdfrwt beam="1">  1       21 0.19214693E+00 0.43220630E+03</pdfrwt>
<pdfrwt beam="2">  1       21 0.23709357E-01 0.43220630E+03</pdfrwt>
<totfact> 0.21630711E+03</totfact>
</mgrwt>
</event>
<event>
12    1  0.1039378E-001  0.1833415E+03  0.7546771E-02  0.1164710E+00
         21   -1    0    0  501  502  0.00000000000E+00  0.00000000000E+00  0.13635700233E+04  0.13635700233E+04  0.00000000000E+00 0.  1.
         21   -1    0    0  502  503 -0.00000000000E+00 -0.00000000000E+00 -0.42787423100E+02  0.42787423100E+02  0.00000000000E+00 0.  1.
         -6    2    1    2    0  503 -0.59814460329E+02 -0.29881755660E+01  0.20230463633E+03  0.27302246577E+03  0.17328416569E+03 0.  0.
        -24    2    3    3    0    0  0.17294359711E+02  0.28287279248E+02  0.15080259089E+03  0.17505065919E+03  0.82474522226E+02 0.  0.
          6    2    1    2  501    0  0.59814460329E+02  0.29881755660E+01  0.11184779639E+04  0.11333349806E+04  0.17282512487E+03 0.  0.
         24    2    5    5    0    0  0.99234612114E+02  0.16107400669E+02  0.98426130625E+03  0.99275666218E+03  0.81783340138E+02 0.  0.
          5    1    5    5  501    0 -0.39420151785E+02 -0.13119225103E+02  0.13421665764E+03  0.14057831846E+03  0.47000000000E+01 0. -1.
        -13    1    6    6    0    0  0.56592480501E+02  0.35586406146E+02  0.79382090565E+03  0.79663086270E+03  0.00000000000E+00 0.  1.
         14    1    6    6    0    0  0.42642131613E+02 -0.19479005477E+02  0.19044040060E+03  0.19612579949E+03  0.00000000000E+00 0. -1.
         -5    1    3    3    0  503 -0.77108820040E+02 -0.31275454814E+02  0.51502045433E+02  0.97971806585E+02  0.47000000000E+01 0.  1.
         11    1    4    4    0    0 -0.31744686482E+02  0.22984861585E+02  0.74791640138E+02  0.84438252092E+02  0.00000000000E+00 0. -1.
        -12    1    4    4    0    0  0.49039046193E+02  0.53024176629E+01  0.76010950756E+02  0.90612407094E+02  0.00000000000E+00 0.  1.
<mgrwt>
<rscale>  2 0.18323294E+03</rscale>
<asrwt>0</asrwt>
<pdfrwt beam="1">  1       21 0.20977997E+00 0.18334149E+03</pdfrwt>
<pdfrwt beam="2">  1       21 0.65826815E-02 0.18334149E+03</pdfrwt>
<totfact> 0.19722189E+04</totfact>
</mgrwt>
</event>
<event>
12    1  0.1039378E-001  0.1972457E+03  0.7546771E-02  0.1153975E+00
         21   -1    0    0  503  502  0.00000000000E+00  0.00000000000E+00  0.16243074297E+03  0.16243074297E+03  0.00000000000E+00 0. -1.
         21   -1    0    0  501  503 -0.00000000000E+00 -0.00000000000E+00 -0.27079329402E+03  0.27079329402E+03  0.00000000000E+00 0. -1.
          6    2    1    2  501    0 -0.57689612787E+02  0.57669375406E+02 -0.14008216845E+03  0.24192743289E+03  0.17958847565E+03 0.  0.
         24    2    3    3    0    0  0.11169553697E+02 -0.11821968617E+02 -0.15101031471E+02  0.83141393507E+02  0.80124479973E+02 0.  0.
         -6    2    1    2    0  502  0.57689612787E+02 -0.57669375406E+02  0.31719617402E+02  0.19129660410E+03  0.17010117087E+03 0.  0.
        -24    2    5    5    0    0  0.37344245343E+02  0.30631875600E+02 -0.10297247958E+02  0.91303844963E+02  0.76794884768E+02 0.  0.
          5    1    3    3  501    0 -0.68859166484E+02  0.69491344023E+02 -0.12498113698E+03  0.15878603939E+03  0.47000000000E+01 0. -1.
        -13    1    4    4    0    0  0.10111362556E+02 -0.40730072186E+02 -0.29036463924E+02  0.51032290466E+02  0.00000000000E+00 0.  1.
         14    1    4    4    0    0  0.10581911410E+01  0.28908103569E+02  0.13935432453E+02  0.32109103041E+02  0.00000000000E+00 0. -1.
         -5    1    5    5    0  502  0.20345367444E+02 -0.88301251006E+02  0.42016865360E+02  0.99992759140E+02  0.47000000000E+01 0.  1.
         13    1    6    6    0    0  0.35712676164E+02 -0.19334486950E+02 -0.23039142178E+01  0.40675860718E+02  0.00000000000E+00 0. -1.
        -14    1    6    6    0    0  0.16315691786E+01  0.49966362550E+02 -0.79933337399E+01  0.50627984245E+02  0.00000000000E+00 0.  1.
<mgrwt>
<rscale>  2 0.19506035E+03</rscale>
<asrwt>0</asrwt>
<pdfrwt beam="1">  1       21 0.24989345E-01 0.19724571E+03</pdfrwt>
<pdfrwt beam="2">  1       21 0.41660506E-01 0.19724571E+03</pdfrwt>
<totfact> 0.83925488E+04</totfact>
</mgrwt>
</event>
<event>
12    1  0.1039378E-001  0.1838610E+03  0.7546771E-02  0.1164339E+00
         21   -1    0    0  501  502  0.00000000000E+00  0.00000000000E+00  0.97553259775E+02  0.97553259775E+02  0.00000000000E+00 0. -1.
         21   -1    0    0  502  503 -0.00000000000E+00 -0.00000000000E+00 -0.34965673250E+03  0.34965673250E+03  0.00000000000E+00 0. -1.
         -6    2    1    2    0  503  0.30482192239E+02  0.54760424292E+02 -0.15219022171E+03  0.23795528155E+03  0.17185163463E+03 0.  0.
        -24    2    3    3    0    0  0.14944145064E+02  0.59692625495E+02 -0.16594886876E+02  0.10130264767E+03  0.78741978288E+02 0.  0.
          6    2    1    2  501    0 -0.30482192239E+02 -0.54760424292E+02 -0.99913251019E+02  0.20925471072E+03  0.17284966913E+03 0.  0.
         24    2    5    5    0    0  0.25746138740E+02  0.14439471419E+02 -0.72773343590E+02  0.11593314116E+03  0.85282892107E+02 0.  0.
          5    1    5    5  501    0 -0.56228330979E+02 -0.69199895711E+02 -0.27139907429E+02  0.93321569566E+02  0.47000000000E+01 0. -1.
        -13    1    6    6    0    0 -0.57651062781E+01  0.80418769665E+01 -0.81910489208E+02  0.82505978437E+02  0.00000000000E+00 0.  1.
         14    1    6    6    0    0  0.31511245019E+02  0.63975944524E+01  0.91371456181E+01  0.33427162719E+02  0.00000000000E+00 0. -1.
         -5    1    3    3    0  503  0.15538047174E+02 -0.49322012027E+01 -0.13559533483E+03  0.13665263388E+03  0.47000000000E+01 0.  1.
         13    1    4    4    0    0 -0.15068112586E+02  0.65875263033E+02 -0.19993586195E+02  0.70472276716E+02  0.00000000000E+00 0. -1.
        -14    1    4    4    0    0  0.30012257650E+02 -0.61826375384E+01  0.33986993194E+01  0.30830370955E+02  0.00000000000E+00 0.  1.
<mgrwt>
<rscale>  2 0.18362609E+03</rscale>
<asrwt>0</asrwt>
<pdfrwt beam="1">  1       21 0.15008194E-01 0.18386102E+03</pdfrwt>
<pdfrwt beam="2">  1       21 0.53793344E-01 0.18386102E+03</pdfrwt>
<totfact> 0.12849199E+05</totfact>
</mgrwt>
</event>
<event>
12    1  0.1039378E-001  0.2363929E+03  0.7546771E-02  0.1122857E+00
         21   -1    0    0  503  502  0.00000000000E+00  0.00000000000E+00  0.14973991691E+04  0.14973991691E+04  0.00000000000E+00 0.  1.
         21   -1    0    0  501  503 -0.00000000000E+00 -0.00000000000E+00 -0.81852832733E+02  0.81852832733E+02  0.00000000000E+00 0.  1.
          6    2    1    2  501    0  0.25081932353E+02 -0.15470953453E+03  0.11900881590E+03  0.26134034963E+03  0.17196376559E+03 0.  0.
         24    2    3    3    0    0  0.15390708870E+02 -0.34397945023E+02 -0.33927888660E+01  0.89372209462E+02  0.80967822415E+02 0.  0.
         -6    2    1    2    0  502 -0.25081932353E+02  0.15470953453E+03  0.12965375205E+04  0.13179116522E+04  0.17696733496E+03 0.  0.
        -24    2    5    5    0    0  0.64333346564E+01  0.18030502166E+03  0.10907406820E+04  0.11080956144E+04  0.74895704540E+02 0.  0.
          5    1    3    3  501    0  0.96912234834E+01 -0.12031158951E+03  0.12240160477E+03  0.17196814017E+03  0.47000000000E+01 0. -1.
        -13    1    4    4    0    0  0.84719926644E+01 -0.49235532169E+02  0.25554990798E+02  0.56115682678E+02  0.00000000000E+00 0.  1.
         14    1    4    4    0    0  0.69187162055E+01  0.14837587147E+02 -0.28947779664E+02  0.33256526784E+02  0.00000000000E+00 0. -1.
         -5    1    5    5    0  502 -0.31515267010E+02 -0.25595487132E+02  0.20579683849E+03  0.20981603787E+03  0.47000000000E+01 0.  1.
         11    1    6    6    0    0  0.99873747926E+01 -0.41409089265E+01  0.54611440841E+02  0.55671395283E+02  0.00000000000E+00 0. -1.
        -12    1    6    6    0    0 -0.35540401362E+01  0.18444593059E+03  0.10361292412E+04  0.10524242191E+04  0.00000000000E+00 0.  1.
<mgrwt>
<rscale>  2 0.23545678E+03</rscale>
<asrwt>0</asrwt>
<pdfrwt beam="1">  1       21 0.23036908E+00 0.23639285E+03</pdfrwt>
<pdfrwt beam="2">  1       21 0.12592745E-01 0.23639285E+03</pdfrwt>
<totfact> 0.44973457E+03</totfact>
</mgrwt>
</event>
<event>
12    1  0.1039378E-001  0.1798934E+03  0.7546771E-02  0.1168284E+00
         21   -1    0    0  503  502  0.00000000000E+00  0.00000000000E+00  0.55188192204E+02  0.55188192204E+02  0.00000000000E+00 0.  1.
         21   -1    0    0  501  503 -0.00000000000E+00 -0.00000000000E+00 -0.93413652983E+03  0.93413652983E+03  0.00000000000E+00 0.  1.
          6    2    1    2  501    0  0.35182651322E+02 -0.28394118541E+02 -0.74228272979E+03  0.76340628849E+03  0.17251511653E+03 0.  0.
         24    2    3    3    0    0  0.43032602395E+02 -0.71796232642E+01 -0.19143325556E+03  0.21207253313E+03  0.80154326846E+02 0.  0.
         -6    2    1    2    0  502 -0.35182651322E+02  0.28394118541E+02 -0.13666560783E+03  0.22591843355E+03  0.17411951450E+03 0.  0.
        -24    2    5    5    0    0 -0.27973679810E+02  0.39468661932E+02 -0.32563347626E+01  0.91773963206E+02  0.77920180760E+02 0.  0.
          5    1    3    3  501    0 -0.78499510731E+01 -0.21214495277E+02 -0.55084947423E+03  0.55133375536E+03  0.47000000000E+01 0. -1.
        -13    1    4    4    0    0 -0.21080255013E+02 -0.21690300263E+01 -0.20675550097E+02  0.29606759608E+02  0.00000000000E+00 0.  1.
         14    1    4    4    0    0  0.64112857409E+02 -0.50105932379E+01 -0.17075770547E+03  0.18246577352E+03  0.00000000000E+00 0. -1.
         -5    1    5    5    0  502 -0.72089715119E+01 -0.11074543391E+02 -0.13340927307E+03  0.13414447034E+03  0.47000000000E+01 0.  1.
         13    1    6    6    0    0 -0.12762153554E+02 -0.23289138473E+02 -0.56645095193E+01  0.27154064194E+02  0.00000000000E+00 0. -1.
        -14    1    6    6    0    0 -0.15211526256E+02  0.62757800405E+02  0.24081747568E+01  0.64619899013E+02  0.00000000000E+00 0.  1.
<mgrwt>
<rscale>  2 0.17950407E+03</rscale>
<asrwt>0</asrwt>
<pdfrwt beam="1">  1       21 0.84904913E-02 0.17989344E+03</pdfrwt>
<pdfrwt beam="2">  1       21 0.14371331E+00 0.17989344E+03</pdfrwt>
<totfact> 0.36441219E+04</totfact>
</mgrwt>
</event>
<event>
12    1  0.1039378E-001  0.2164248E+03  0.7546771E-02  0.1136844E+00
         21   -1    0    0  501  502  0.00000000000E+00  0.00000000000E+00  0.46123963189E+03  0.46123963189E+03  0.00000000000E+00 0.  1.
         21   -1    0    0  502  503 -0.00000000000E+00 -0.00000000000E+00 -0.10512466542E+03  0.10512466542E+03  0.00000000000E+00 0.  1.
         -6    2    1    2    0  503  0.11511131282E+03 -0.57649615302E+02  0.23428685774E+03  0.31800613204E+03  0.17223087941E+03 0.  0.
        -24    2    3    3    0    0  0.22501339680E+02 -0.43052076290E+01  0.27780842548E+02  0.85435589483E+02  0.77476574766E+02 0.  0.
          6    2    1    2  501    0 -0.11511131282E+03  0.57649615302E+02  0.12182810873E+03  0.24835816527E+03  0.17397010575E+03 0.  0.
         24    2    5    5    0    0 -0.13277878195E+03  0.88707406389E+02  0.95019190579E+02  0.20344119804E+03  0.82827927653E+02 0.  0.
          5    1    5    5  501    0  0.17667469124E+02 -0.31057791087E+02  0.26808918154E+02  0.44916967229E+02  0.47000000000E+01 0. -1.
        -11    1    6    6    0    0 -0.10587269716E+03  0.22245139221E+02  0.57558188949E+02  0.12254313256E+03  0.00000000000E+00 0.  1.
         12    1    6    6    0    0 -0.26906084788E+02  0.66462267167E+02  0.37461001630E+02  0.80898065482E+02  0.00000000000E+00 0. -1.
         -5    1    3    3    0  503  0.92609973144E+02 -0.53344407673E+02  0.20650601519E+03  0.23257054256E+03  0.47000000000E+01 0.  1.
         11    1    4    4    0    0 -0.28393212681E+02 -0.72405491434E+01  0.14811378454E+02  0.32832560210E+02  0.00000000000E+00 0. -1.
        -12    1    4    4    0    0  0.50894552361E+02  0.29353415144E+01  0.12969464094E+02  0.52603029273E+02  0.00000000000E+00 0.  1.
<mgrwt>
<rscale>  2 0.21607505E+03</rscale>
<asrwt>0</asrwt>
<pdfrwt beam="1">  1       21 0.70959942E-01 0.21642479E+03</pdfrwt>
<pdfrwt beam="2">  1       21 0.16173026E-01 0.21642479E+03</pdfrwt>
<totfact> 0.60799547E+04</totfact>
</mgrwt>
</event>
<event>
12    1  0.1039378E-001  0.2535279E+03  0.7546771E-02  0.1111539E+00
         21   -1    0    0  503  502  0.00000000000E+00  0.00000000000E+00  0.12576511184E+04  0.12576511184E+04  0.00000000000E+00 0. -1.
         21   -1    0    0  501  503 -0.00000000000E+00 -0.00000000000E+00 -0.63519643345E+02  0.63519643345E+02  0.00000000000E+00 0. -1.
          6    2    1    2  501    0  0.15756124099E+03 -0.88248655761E+02  0.89838150808E+03  0.93346972490E+03  0.17794106703E+03 0.  0.
         24    2    3    3    0    0  0.11329375144E+03 -0.62792006303E+02  0.84648332700E+03  0.86050971646E+03  0.84644190887E+02 0.  0.
         -6    2    1    2    0  502 -0.15756124099E+03  0.88248655761E+02  0.29574996697E+03  0.38770103684E+03  0.17386972451E+03 0.  0.
        -24    2    5    5    0    0 -0.26578247919E+02 -0.72648434250E+01  0.13359086061E+03  0.15836059389E+03  0.80451093494E+02 0.  0.
          5    1    3    3  501    0  0.44267489553E+02 -0.25456649458E+02  0.51898181077E+02  0.72960008443E+02  0.47000000000E+01 0. -1.
        -13    1    4    4    0    0  0.48769250126E+02 -0.50917986480E+02  0.23049640720E+03  0.24103874136E+03  0.00000000000E+00 0.  1.
         14    1    4    4    0    0  0.64524501310E+02 -0.11874019824E+02  0.61598691980E+03  0.61947097510E+03  0.00000000000E+00 0. -1.
         -5    1    5    5    0  502 -0.13098299307E+03  0.95513499186E+02  0.16215910636E+03  0.22934044296E+03  0.47000000000E+01 0.  1.
         13    1    6    6    0    0 -0.37880505024E+02 -0.26984864790E+02  0.37866897422E+02  0.59975140758E+02  0.00000000000E+00 0. -1.
        -14    1    6    6    0    0  0.11302257105E+02  0.19720021365E+02  0.95723963190E+02  0.98385453128E+02  0.00000000000E+00 0.  1.
<mgrwt>
<rscale>  2 0.25281471E+03</rscale>
<asrwt>0</asrwt>
<pdfrwt beam="1">  1       21 0.19348477E+00 0.25352789E+03</pdfrwt>
<pdfrwt beam="2">  1       21 0.97722537E-02 0.25352789E+03</pdfrwt>
<totfact> 0.11968126E+04</totfact>
</mgrwt>
</event>
<event>
12    1  0.1039378E-001  0.1773181E+03  0.7546771E-02  0.1170871E+00
         21   -1    0    0  503  502  0.00000000000E+00  0.00000000000E+00  0.35382572724E+03  0.35382572724E+03  0.00000000000E+00 0. -1.
         21   -1    0    0  501  503 -0.00000000000E+00 -0.00000000000E+00 -0.16223715641E+03  0.16223715641E+03  0.00000000000E+00 0. -1.
          6    2    1    2  501    0  0.25992553046E+02 -0.18215860971E+02 -0.79059586484E+02  0.19250122709E+03  0.17262350306E+03 0.  0.
         24    2    3    3    0    0  0.45169992563E+02 -0.27709378415E+01  0.20896961191E+02  0.89449195277E+02  0.74272937359E+02 0.  0.
         -6    2    1    2    0  502 -0.25992553046E+02  0.18215860971E+02  0.27064815731E+03  0.32356165656E+03  0.17445426373E+03 0.  0.
        -24    2    5    5    0    0  0.48210634612E+02  0.23264240753E+02  0.19192457349E+03  0.21515920342E+03  0.81196987134E+02 0.  0.
          5    1    3    3  501    0 -0.19177439517E+02 -0.15444923130E+02 -0.99956547675E+02  0.10305203181E+03  0.47000000000E+01 0. -1.
        -13    1    4    4    0    0  0.16792913120E+02 -0.28438509657E+02  0.35506278831E+02  0.48491716808E+02  0.00000000000E+00 0.  1.
         14    1    4    4    0    0  0.28377079443E+02  0.25667571815E+02 -0.14609317640E+02  0.40957478469E+02  0.00000000000E+00 0. -1.
         -5    1    5    5    0  502 -0.74203187658E+02 -0.50483797812E+01  0.78723583819E+02  0.10840245314E+03  0.47000000000E+01 0.  1.
         11    1    6    6    0    0  0.37754060544E+02 -0.10655402481E+02  0.29987415529E+02  0.49377644534E+02  0.00000000000E+00 0. -1.
        -12    1    6    6    0    0  0.10456574068E+02  0.33919643234E+02  0.16193715796E+03  0.16578155889E+03  0.00000000000E+00 0.  1.
<mgrwt>
<rscale>  2 0.17686619E+03</rscale>
<asrwt>0</asrwt>
<pdfrwt beam="1">  1       21 0.54434727E-01 0.17731813E+03</pdfrwt>
<pdfrwt beam="2">  1       21 0.24959563E-01 0.17731813E+03</pdfrwt>
<totfact> 0.48794634E+04</totfact>
</mgrwt>
</event>
<event>
12    1  0.1039378E-001  0.2331589E+03  0.7546771E-02  0.1124615E+00
         21   -1    0    0  503  502  0.00000000000E+00  0.00000000000E+00  0.17905700827E+03  0.17905700827E+03  0.00000000000E+00 0.  1.
         21   -1    0    0  501  503 -0.00000000000E+00 -0.00000000000E+00 -0.53003776678E+03  0.53003776678E+03  0.00000000000E+00 0. -1.
          6    2    1    2  501    0  0.96571106156E+02  0.12018252359E+03 -0.40813423996E+03  0.47003897173E+03  0.17490928963E+03 0.  0.
         24    2    3    3    0    0  0.45897338947E+02  0.94172796533E+01 -0.81212072487E+02  0.12113072658E+03  0.76694206602E+02 0.  0.
         -6    2    1    2    0  502 -0.96571106156E+02 -0.12018252359E+03  0.57153481452E+02  0.23905580331E+03  0.17352619148E+03 0.  0.
        -24    2    5    5    0    0 -0.36800357351E+02 -0.59507821973E+02  0.97947426858E+02  0.14450318403E+03  0.79950138154E+02 0.  0.
          5    1    3    3  501    0  0.50673767210E+02  0.11076524394E+03 -0.32692216748E+03  0.34890824515E+03  0.47000000000E+01 0. -1.
        -11    1    4    4    0    0  0.63926550098E+02 -0.54388166807E+01 -0.70827358892E+02  0.95565157364E+02  0.00000000000E+00 0.  1.
         12    1    4    4    0    0 -0.18029211152E+02  0.14856096334E+02 -0.10384713595E+02  0.25565569219E+02  0.00000000000E+00 0. -1.
         -5    1    5    5    0  502 -0.59770748805E+02 -0.60674701621E+02 -0.40793945406E+02  0.94552619273E+02  0.47000000000E+01 0.  1.
         11    1    6    6    0    0 -0.10563118961E+02  0.12265764338E+02  0.53944834224E+02  0.56321164729E+02  0.00000000000E+00 0. -1.
        -12    1    6    6    0    0 -0.26237238390E+02 -0.71773586311E+02  0.44002592634E+02  0.88182019305E+02  0.00000000000E+00 0.  1.
<mgrwt>
<rscale>  2 0.23289954E+03</rscale>
<asrwt>0</asrwt>
<pdfrwt beam="1">  1       21 0.27547232E-01 0.23315891E+03</pdfrwt>
<pdfrwt beam="2">  1       21 0.81544271E-01 0.23315891E+03</pdfrwt>
<totfact> 0.16163146E+04</totfact>
</mgrwt>
</event>
