<event>
 4    1  0.3992289E+006  0.6543078E+01  0.7546771E-02  0.2349681E+00
         21   -1    0    0  501  502  0.00000000000E+00  0.00000000000E+00  0.64607524629E+01  0.64607524629E+01  0.00000000000E+00 0. -1.
         21   -1    0    0  502  503 -0.00000000000E+00 -0.00000000000E+00 -0.73777805278E+01  0.73777805278E+01  0.00000000000E+00 0. -1.
          5    1    1    2  501    0  0.44364569660E+01  0.10196675504E+01  0.17495509589E+01  0.67729462483E+01  0.47000000000E+01 0. -1.
         -5    1    1    2    0  503 -0.44364569660E+01 -0.10196675504E+01 -0.26665790237E+01  0.70655867424E+01  0.47000000000E+01 0. -1.
<mgrwt>
<rscale>  2 0.65430782E+01</rscale>
<asrwt>0</asrwt>
<pdfrwt beam="1">  1       21 0.99396191E-03 0.65430782E+01</pdfrwt>
<pdfrwt beam="2">  1       21 0.11350432E-02 0.65430782E+01</pdfrwt>
<totfact> 0.28689674E+09</totfact>
</mgrwt>
</event>
<event>
 4    1  0.3992289E+006  0.8413323E+01  0.7546771E-02  0.2178407E+00
         21   -1    0    0  501  502  0.00000000000E+00  0.00000000000E+00  0.24242748214E+01  0.24242748214E+01  0.00000000000E+00 0. -1.
         21   -1    0    0  502  503 -0.00000000000E+00 -0.00000000000E+00 -0.63406856191E+02  0.63406856191E+02  0.00000000000E+00 0.  1.
          5    1    1    2  501    0  0.54139256202E+01 -0.44026601091E+01 -0.63142908491E+01  0.10519233602E+02  0.47000000000E+01 0. -1.
         -5    1    1    2    0  503 -0.54139256202E+01  0.44026601091E+01 -0.54668290521E+02  0.55311897410E+02  0.47000000000E+01 0.  1.
<mgrwt>
<rscale>  2 0.84133232E+01</rscale>
<asrwt>0</asrwt>
<pdfrwt beam="1">  1       21 0.37296535E-03 0.84133232E+01</pdfrwt>
<pdfrwt beam="2">  1       21 0.97549010E-02 0.84133232E+01</pdfrwt>
<totfact> 0.56204725E+08</totfact>
</mgrwt>
</event>
<event>
 4    1  0.3992289E+006  0.1157900E+02  0.7546771E-02  0.1994892E+00
         21   -1    0    0  501  502  0.00000000000E+00  0.00000000000E+00  0.21093990697E+02  0.21093990697E+02  0.00000000000E+00 0. -1.
         21   -1    0    0  502  503 -0.00000000000E+00 -0.00000000000E+00 -0.16630559552E+02  0.16630559552E+02  0.00000000000E+00 0.  1.
          5    1    1    2  501    0  0.92783923903E+01 -0.50886818860E+01  0.17057661355E+02  0.20616426936E+02  0.47000000000E+01 0. -1.
         -5    1    1    2    0  503 -0.92783923903E+01  0.50886818860E+01 -0.12594230211E+02  0.17108123313E+02  0.47000000000E+01 0.  1.
<mgrwt>
<rscale>  2 0.11579000E+02</rscale>
<asrwt>0</asrwt>
<pdfrwt beam="1">  1       21 0.32452293E-02 0.11579000E+02</pdfrwt>
<pdfrwt beam="2">  1       21 0.25585476E-02 0.11579000E+02</pdfrwt>
<totfact> 0.22208539E+08</totfact>
</mgrwt>
</event>
<event>
 4    1  0.3992289E+006  0.9225009E+01  0.7546771E-02  0.2121976E+00
         21   -1    0    0  501  502  0.00000000000E+00  0.00000000000E+00  0.59879867220E+03  0.59879867220E+03  0.00000000000E+00 0.  1.
         21   -1    0    0  502  503 -0.00000000000E+00 -0.00000000000E+00 -0.15845694679E+00  0.15845694679E+00  0.00000000000E+00 0.  1.
          5    1    1    2  501    0  0.72722480618E+01  0.31820117753E+01  0.39548269164E+03  0.39559026805E+03  0.47000000000E+01 0.  1.
         -5    1    1    2    0  503 -0.72722480618E+01 -0.31820117753E+01  0.20315752362E+03  0.20336686110E+03  0.47000000000E+01 0.  1.
<mgrwt>
<rscale>  2 0.92250090E+01</rscale>
<asrwt>0</asrwt>
<pdfrwt beam="1">  1       21 0.92121061E-01 0.92250090E+01</pdfrwt>
<pdfrwt beam="2">  1       21 0.24378471E-04 0.92250090E+01</pdfrwt>
<totfact> 0.48687729E+08</totfact>
</mgrwt>
</event>
<event>
 4    1  0.3992289E+006  0.6166024E+01  0.7546771E-02  0.2394304E+00
         21   -1    0    0  501  502  0.00000000000E+00  0.00000000000E+00  0.34893061470E+02  0.34893061470E+02  0.00000000000E+00 0.  1.
         21   -1    0    0  502  503 -0.00000000000E+00 -0.00000000000E+00 -0.12749861545E+01  0.12749861545E+01  0.00000000000E+00 0. -1.
          5    1    1    2  501    0 -0.29707051466E+01 -0.26654771229E+01  0.23704578075E+02  0.24493404808E+02  0.47000000000E+01 0.  1.
         -5    1    1    2    0  503  0.29707051466E+01  0.26654771229E+01  0.99134972402E+01  0.11674642816E+02  0.47000000000E+01 0. -1.
<mgrwt>
<rscale>  2 0.61660244E+01</rscale>
<asrwt>0</asrwt>
<pdfrwt beam="1">  1       21 0.53681626E-02 0.61660244E+01</pdfrwt>
<pdfrwt beam="2">  1       21 0.19615174E-03 0.61660244E+01</pdfrwt>
<totfact> 0.27239790E+09</totfact>
</mgrwt>
</event>
<event>
 4    1  0.3992289E+006  0.5536927E+01  0.7546771E-02  0.2479895E+00
         21   -1    0    0  503  502  0.00000000000E+00  0.00000000000E+00  0.10941549924E+02  0.10941549924E+02  0.00000000000E+00 0. -1.
         21   -1    0    0  501  503 -0.00000000000E+00 -0.00000000000E+00 -0.95875590665E+01  0.95875590665E+01  0.00000000000E+00 0. -1.
          5    1    1    2  501    0  0.28804591324E+01 -0.52011472728E+00 -0.79583720310E+01  0.96950115795E+01  0.47000000000E+01 0. -1.
         -5    1    1    2    0  502 -0.28804591324E+01  0.52011472728E+00  0.93123628884E+01  0.10834097411E+02  0.47000000000E+01 0. -1.
<mgrwt>
<rscale>  2 0.55369273E+01</rscale>
<asrwt>0</asrwt>
<pdfrwt beam="1">  1       21 0.16833154E-02 0.55369273E+01</pdfrwt>
<pdfrwt beam="2">  1       21 0.14750091E-02 0.55369273E+01</pdfrwt>
<totfact> 0.81260276E+08</totfact>
</mgrwt>
</event>
<event>
 4    1  0.3992289E+006  0.8851306E+01  0.7546771E-02  0.2146933E+00
         21   -1    0    0  501  502  0.00000000000E+00  0.00000000000E+00  0.61499778324E+01  0.61499778324E+01  0.00000000000E+00 0.  1.
         21   -1    0    0  502  503 -0.00000000000E+00 -0.00000000000E+00 -0.12840891460E+02  0.12840891460E+02  0.00000000000E+00 0. -1.
          5    1    1    2  501    0  0.72557647524E+01  0.18998661294E+01 -0.41905866460E+01  0.97931930385E+01  0.47000000000E+01 0.  1.
         -5    1    1    2    0  503 -0.72557647524E+01 -0.18998661294E+01 -0.25003269813E+01  0.91976762535E+01  0.47000000000E+01 0.  1.
<mgrwt>
<rscale>  2 0.88513057E+01</rscale>
<asrwt>0</asrwt>
<pdfrwt beam="1">  1       21 0.94615044E-03 0.88513057E+01</pdfrwt>
<pdfrwt beam="2">  1       21 0.19755218E-02 0.88513057E+01</pdfrwt>
<totfact> 0.17286754E+09</totfact>
</mgrwt>
</event>
<event>
 4    1  0.3992289E+006  0.4914702E+01  0.7546771E-02  0.2582512E+00
         21   -1    0    0  503  502  0.00000000000E+00  0.00000000000E+00  0.23255532458E+03  0.23255532458E+03  0.00000000000E+00 0.  1.
         21   -1    0    0  501  503 -0.00000000000E+00 -0.00000000000E+00 -0.15652322910E+00  0.15652322910E+00  0.00000000000E+00 0. -1.
          5    1    1    2  501    0 -0.31140541126E+00  0.14026114639E+01  0.48710336796E+02  0.48957647033E+02  0.47000000000E+01 0. -1.
         -5    1    1    2    0  502  0.31140541126E+00 -0.14026114639E+01  0.18368846455E+03  0.18375420077E+03  0.47000000000E+01 0.  1.
<mgrwt>
<rscale>  2 0.49147016E+01</rscale>
<asrwt>0</asrwt>
<pdfrwt beam="1">  1       21 0.35777466E-01 0.49147016E+01</pdfrwt>
<pdfrwt beam="2">  1       21 0.24080683E-04 0.49147016E+01</pdfrwt>
<totfact> 0.18754247E+09</totfact>
</mgrwt>
</event>
<event>
 4    1  0.3992289E+006  0.5775909E+01  0.7546771E-02  0.2445535E+00
         21   -1    0    0  503  502  0.00000000000E+00  0.00000000000E+00  0.84058142929E+00  0.84058142929E+00  0.00000000000E+00 0.  1.
         21   -1    0    0  501  503 -0.00000000000E+00 -0.00000000000E+00 -0.41811704914E+02  0.41811704914E+02  0.00000000000E+00 0.  1.
          5    1    1    2  501    0  0.32880602513E+01 -0.67807330234E+00 -0.15679438366E+02  0.16709455739E+02  0.47000000000E+01 0.  1.
         -5    1    1    2    0  502 -0.32880602513E+01  0.67807330234E+00 -0.25291685118E+02  0.25942830604E+02  0.47000000000E+01 0.  1.
<mgrwt>
<rscale>  2 0.57759089E+01</rscale>
<asrwt>0</asrwt>
<pdfrwt beam="1">  1       21 0.12932022E-03 0.57759089E+01</pdfrwt>
<pdfrwt beam="2">  1       21 0.64325700E-02 0.57759089E+01</pdfrwt>
<totfact> 0.34526410E+09</totfact>
</mgrwt>
</event>
<event>
 4    1  0.3992289E+006  0.5544363E+01  0.7546771E-02  0.2478788E+00
         21   -1    0    0  501  502  0.00000000000E+00  0.00000000000E+00  0.31198738552E+00  0.31198738552E+00  0.00000000000E+00 0.  1.
         21   -1    0    0  502  503 -0.00000000000E+00 -0.00000000000E+00 -0.10242867085E+03  0.10242867085E+03  0.00000000000E+00 0.  1.
          5    1    1    2  501    0  0.28587709251E+01 -0.69093097553E+00 -0.41035555278E+02  0.41408414045E+02  0.47000000000E+01 0.  1.
         -5    1    1    2    0  503 -0.28587709251E+01  0.69093097553E+00 -0.61081128192E+02  0.61332244195E+02  0.47000000000E+01 0.  1.
<mgrwt>
<rscale>  2 0.55443626E+01</rscale>
<asrwt>0</asrwt>
<pdfrwt beam="1">  1       21 0.47998001E-04 0.55443626E+01</pdfrwt>
<pdfrwt beam="2">  1       21 0.15758276E-01 0.55443626E+01</pdfrwt>
<totfact> 0.31781078E+09</totfact>
</mgrwt>
</event>
<event>
 4    1  0.3992289E+006  0.6246333E+01  0.7546771E-02  0.2384425E+00
         21   -1    0    0  503  502  0.00000000000E+00  0.00000000000E+00  0.12068911143E+01  0.12068911143E+01  0.00000000000E+00 0. -1.
         21   -1    0    0  501  503 -0.00000000000E+00 -0.00000000000E+00 -0.69345540272E+02  0.69345540272E+02  0.00000000000E+00 0. -1.
          5    1    1    2  501    0 -0.40952920987E+01 -0.39403367500E+00 -0.59842920935E+02  0.60168030264E+02  0.47000000000E+01 0. -1.
         -5    1    1    2    0  502  0.40952920987E+01  0.39403367500E+00 -0.82957282235E+01  0.10384401122E+02  0.47000000000E+01 0. -1.
<mgrwt>
<rscale>  2 0.62463333E+01</rscale>
<asrwt>0</asrwt>
<pdfrwt beam="1">  1       21 0.18567559E-03 0.62463333E+01</pdfrwt>
<pdfrwt beam="2">  1       21 0.10668542E-01 0.62463333E+01</pdfrwt>
<totfact> 0.10473074E+09</totfact>
</mgrwt>
</event>
<event>
 4    1  0.3992289E+006  0.5754253E+01  0.7546771E-02  0.2448549E+00
         21   -1    0    0  501  502  0.00000000000E+00  0.00000000000E+00  0.21084444612E+00  0.21084444612E+00  0.00000000000E+00 0.  1.
         21   -1    0    0  502  503 -0.00000000000E+00 -0.00000000000E+00 -0.18831546383E+03  0.18831546383E+03  0.00000000000E+00 0.  1.
          5    1    1    2  501    0  0.33198395108E+01 -0.97221181029E-02 -0.55638523008E+02  0.55935290036E+02  0.47000000000E+01 0.  1.
         -5    1    1    2    0  503 -0.33198395108E+01  0.97221181029E-02 -0.13246609638E+03  0.13259101824E+03  0.47000000000E+01 0.  1.
<mgrwt>
<rscale>  2 0.57542531E+01</rscale>
<asrwt>0</asrwt>
<pdfrwt beam="1">  1       21 0.32437609E-04 0.57542531E+01</pdfrwt>
<pdfrwt beam="2">  1       21 0.28971608E-01 0.57542531E+01</pdfrwt>
<totfact> 0.20629485E+09</totfact>
</mgrwt>
</event>
<event>
 4    1  0.3992289E+006  0.5393473E+01  0.7546771E-02  0.2501753E+00
         21   -1    0    0  503  502  0.00000000000E+00  0.00000000000E+00  0.41754381648E+01  0.41754381648E+01  0.00000000000E+00 0. -1.
         21   -1    0    0  501  503 -0.00000000000E+00 -0.00000000000E+00 -0.19020585490E+02  0.19020585490E+02  0.00000000000E+00 0.  1.
          5    1    1    2  501    0 -0.23570464615E+01 -0.12016171001E+01 -0.16655361700E+02  0.17506873651E+02  0.47000000000E+01 0. -1.
         -5    1    1    2    0  502  0.23570464615E+01  0.12016171001E+01  0.18102143752E+01  0.56891500034E+01  0.47000000000E+01 0. -1.
<mgrwt>
<rscale>  2 0.53934731E+01</rscale>
<asrwt>0</asrwt>
<pdfrwt beam="1">  1       21 0.64237511E-03 0.53934731E+01</pdfrwt>
<pdfrwt beam="2">  1       21 0.29262439E-02 0.53934731E+01</pdfrwt>
<totfact> 0.11543833E+09</totfact>
</mgrwt>
</event>
<event>
 4    1  0.3992289E+006  0.7371585E+01  0.7546771E-02  0.2265087E+00
         21   -1    0    0  501  502  0.00000000000E+00  0.00000000000E+00  0.40993739821E+02  0.40993739821E+02  0.00000000000E+00 0.  1.
         21   -1    0    0  502  503 -0.00000000000E+00 -0.00000000000E+00 -0.16796175341E+01  0.16796175341E+01  0.00000000000E+00 0.  1.
          5    1    1    2  501    0 -0.52068457590E+01  0.22669416411E+01  0.98610452854E+01  0.12311802520E+02  0.47000000000E+01 0.  1.
         -5    1    1    2    0  503  0.52068457590E+01 -0.22669416411E+01  0.29453077001E+02  0.30361554835E+02  0.47000000000E+01 0.  1.
<mgrwt>
<rscale>  2 0.73715851E+01</rscale>
<asrwt>0</asrwt>
<pdfrwt beam="1">  1       21 0.63067285E-02 0.73715851E+01</pdfrwt>
<pdfrwt beam="2">  1       21 0.25840273E-03 0.73715851E+01</pdfrwt>
<totfact> 0.16841409E+09</totfact>
</mgrwt>
</event>
<event>
 4    1  0.3992289E+006  0.7442843E+01  0.7546771E-02  0.2258536E+00
         21   -1    0    0  501  502  0.00000000000E+00  0.00000000000E+00  0.11227061193E+04  0.11227061193E+04  0.00000000000E+00 0. -1.
         21   -1    0    0  502  503 -0.00000000000E+00 -0.00000000000E+00 -0.54320064454E-01  0.54320064454E-01  0.00000000000E+00 0. -1.
          5    1    1    2  501    0  0.10349795205E+01  0.56775630317E+01  0.73128048894E+03  0.73131836392E+03  0.47000000000E+01 0. -1.
         -5    1    1    2    0  503 -0.10349795205E+01 -0.56775630317E+01  0.39137131031E+03  0.39144207546E+03  0.47000000000E+01 0. -1.
<mgrwt>
<rscale>  2 0.74428425E+01</rscale>
<asrwt>0</asrwt>
<pdfrwt beam="1">  1       21 0.17270544E+00 0.74428425E+01</pdfrwt>
<pdfrwt beam="2">  1       21 0.83578322E-05 0.74428425E+01</pdfrwt>
<totfact> 0.47912930E+08</totfact>
</mgrwt>
</event>
<event>
 4    1  0.3992289E+006  0.8180181E+01  0.7546771E-02  0.2196253E+00
         21   -1    0    0  501  502  0.00000000000E+00  0.00000000000E+00  0.45316580132E+01  0.45316580132E+01  0.00000000000E+00 0. -1.
         21   -1    0    0  502  503 -0.00000000000E+00 -0.00000000000E+00 -0.40071285319E+02  0.40071285319E+02  0.00000000000E+00 0. -1.
          5    1    1    2  501    0 -0.37747197886E+01  0.55296346183E+01 -0.47484861052E-01  0.81803192667E+01  0.47000000000E+01 0. -1.
         -5    1    1    2    0  503  0.37747197886E+01 -0.55296346183E+01 -0.35492142445E+02  0.36422624066E+02  0.47000000000E+01 0. -1.
<mgrwt>
<rscale>  2 0.81801814E+01</rscale>
<asrwt>0</asrwt>
<pdfrwt beam="1">  1       21 0.69717815E-03 0.81801814E+01</pdfrwt>
<pdfrwt beam="2">  1       21 0.61648132E-02 0.81801814E+01</pdfrwt>
<totfact> 0.46399775E+08</totfact>
</mgrwt>
</event>
<event>
 4    1  0.3992289E+006  0.8463237E+01  0.7546771E-02  0.2174689E+00
         21   -1    0    0  501  502  0.00000000000E+00  0.00000000000E+00  0.31799938009E+00  0.31799938009E+00  0.00000000000E+00 0. -1.
         21   -1    0    0  502  503 -0.00000000000E+00 -0.00000000000E+00 -0.22660369821E+03  0.22660369821E+03  0.00000000000E+00 0.  1.
          5    1    1    2  501    0 -0.64198500798E+01 -0.28847709538E+01 -0.12194264194E+03  0.12223597793E+03  0.47000000000E+01 0.  1.
         -5    1    1    2    0  503  0.64198500798E+01  0.28847709538E+01 -0.10434305690E+03  0.10468571966E+03  0.47000000000E+01 0. -1.
<mgrwt>
<rscale>  2 0.84632369E+01</rscale>
<asrwt>0</asrwt>
<pdfrwt beam="1">  1       21 0.48922861E-04 0.84632369E+01</pdfrwt>
<pdfrwt beam="2">  1       21 0.34862193E-01 0.84632369E+01</pdfrwt>
<totfact> 0.11332282E+09</totfact>
</mgrwt>
</event>
<event>
 4    1  0.3992289E+006  0.7019266E+01  0.7546771E-02  0.2299056E+00
         21   -1    0    0  503  502  0.00000000000E+00  0.00000000000E+00  0.14328362899E+01  0.14328362899E+01  0.00000000000E+00 0. -1.
         21   -1    0    0  501  503 -0.00000000000E+00 -0.00000000000E+00 -0.36868041980E+02  0.36868041980E+02  0.00000000000E+00 0. -1.
          5    1    1    2  501    0  0.25621759561E+01  0.45404128437E+01 -0.22686070802E+02  0.23747166207E+02  0.47000000000E+01 0. -1.
         -5    1    1    2    0  502 -0.25621759561E+01 -0.45404128437E+01 -0.12749134888E+02  0.14553712063E+02  0.47000000000E+01 0. -1.
<mgrwt>
<rscale>  2 0.70192659E+01</rscale>
<asrwt>0</asrwt>
<pdfrwt beam="1">  1       21 0.22043636E-03 0.70192659E+01</pdfrwt>
<pdfrwt beam="2">  1       21 0.56720062E-02 0.70192659E+01</pdfrwt>
<totfact> 0.23739211E+09</totfact>
</mgrwt>
</event>
<event>
 4    1  0.3992289E+006  0.5185331E+01  0.7546771E-02  0.2535290E+00
         21   -1    0    0  501  502  0.00000000000E+00  0.00000000000E+00  0.16260342772E+02  0.16260342772E+02  0.00000000000E+00 0. -1.
         21   -1    0    0  502  503 -0.00000000000E+00 -0.00000000000E+00 -0.27868747350E+01  0.27868747350E+01  0.00000000000E+00 0. -1.
          5    1    1    2  501    0 -0.17686190406E+01 -0.12921471708E+01  0.12809907272E+02  0.13819601367E+02  0.47000000000E+01 0. -1.
         -5    1    1    2    0  503  0.17686190406E+01  0.12921471708E+01  0.66356076519E+00  0.52276161404E+01  0.47000000000E+01 0. -1.
<mgrwt>
<rscale>  2 0.51853310E+01</rscale>
<asrwt>0</asrwt>
<pdfrwt beam="1">  1       21 0.25015911E-02 0.51853310E+01</pdfrwt>
<pdfrwt beam="2">  1       21 0.42874997E-03 0.51853310E+01</pdfrwt>
<totfact> 0.24327511E+09</totfact>
</mgrwt>
</event>
<event>
 4    1  0.3992289E+006  0.4969307E+01  0.7546771E-02  0.2572628E+00
         21   -1    0    0  501  502  0.00000000000E+00  0.00000000000E+00  0.83629821876E+01  0.83629821876E+01  0.00000000000E+00 0.  1.
         21   -1    0    0  502  503 -0.00000000000E+00 -0.00000000000E+00 -0.86336640933E+01  0.86336640933E+01  0.00000000000E+00 0. -1.
          5    1    1    2  501    0  0.58453150109E+00  0.15041070421E+01  0.67582224597E+01  0.83885389601E+01  0.47000000000E+01 0.  1.
         -5    1    1    2    0  503 -0.58453150109E+00 -0.15041070421E+01 -0.70289043654E+01  0.86081073209E+01  0.47000000000E+01 0. -1.
<mgrwt>
<rscale>  2 0.49693073E+01</rscale>
<asrwt>0</asrwt>
<pdfrwt beam="1">  1       21 0.12866126E-02 0.49693073E+01</pdfrwt>
<pdfrwt beam="2">  1       21 0.13282560E-02 0.49693073E+01</pdfrwt>
<totfact> 0.12459353E+09</totfact>
</mgrwt>
</event>
<event>
 4    1  0.3992289E+006  0.5329117E+01  0.7546771E-02  0.2511884E+00
         21   -1    0    0  503  502  0.00000000000E+00  0.00000000000E+00  0.25988847671E+01  0.25988847671E+01  0.00000000000E+00 0. -1.
         21   -1    0    0  501  503 -0.00000000000E+00 -0.00000000000E+00 -0.18453935649E+02  0.18453935649E+02  0.00000000000E+00 0.  1.
          5    1    1    2  501    0  0.97884730228E-01  0.25099624014E+01 -0.14649989272E+02  0.15589152586E+02  0.47000000000E+01 0.  1.
         -5    1    1    2    0  502 -0.97884730228E-01 -0.25099624014E+01 -0.12050616101E+01  0.54636678304E+01  0.47000000000E+01 0. -1.
<mgrwt>
<rscale>  2 0.53291174E+01</rscale>
<asrwt>0</asrwt>
<pdfrwt beam="1">  1       21 0.39982845E-03 0.53291174E+01</pdfrwt>
<pdfrwt beam="2">  1       21 0.28390669E-02 0.53291174E+01</pdfrwt>
<totfact> 0.22934006E+09</totfact>
</mgrwt>
</event>
<event>
 4    1  0.3992289E+006  0.6008742E+01  0.7546771E-02  0.2414287E+00
         21   -1    0    0  501  502  0.00000000000E+00  0.00000000000E+00  0.85765731749E+01  0.85765731749E+01  0.00000000000E+00 0. -1.
         21   -1    0    0  502  503 -0.00000000000E+00 -0.00000000000E+00 -0.43340058711E+01  0.43340058711E+01  0.00000000000E+00 0. -1.
          5    1    1    2  501    0  0.22468142719E+01  0.29944622316E+01  0.32144354464E+01  0.68145119904E+01  0.47000000000E+01 0. -1.
         -5    1    1    2    0  503 -0.22468142719E+01 -0.29944622316E+01  0.10281318574E+01  0.60960670555E+01  0.47000000000E+01 0. -1.
<mgrwt>
<rscale>  2 0.60087418E+01</rscale>
<asrwt>0</asrwt>
<pdfrwt beam="1">  1       21 0.13194728E-02 0.60087418E+01</pdfrwt>
<pdfrwt beam="2">  1       21 0.66677014E-03 0.60087418E+01</pdfrwt>
<totfact> 0.37714779E+09</totfact>
</mgrwt>
</event>
<event>
 4    1  0.3992289E+006  0.6733777E+01  0.7546771E-02  0.2328700E+00
         21   -1    0    0  501  502  0.00000000000E+00  0.00000000000E+00  0.26570401846E-01  0.26570401846E-01  0.00000000000E+00 0.  1.
         21   -1    0    0  502  503 -0.00000000000E+00 -0.00000000000E+00 -0.18571551787E+04  0.18571551787E+04  0.00000000000E+00 0. -1.
          5    1    1    2  501    0 -0.86682518035E+00 -0.47436660656E+01 -0.66412962934E+03  0.66416376619E+03  0.47000000000E+01 0.  1.
         -5    1    1    2    0  503  0.86682518035E+00  0.47436660656E+01 -0.11929989790E+04  0.11930179829E+04  0.47000000000E+01 0. -1.
<mgrwt>
<rscale>  2 0.67337771E+01</rscale>
<asrwt>0</asrwt>
<pdfrwt beam="1">  1       21 0.40896755E-05 0.67337771E+01</pdfrwt>
<pdfrwt beam="2">  1       21 0.28558195E+00 0.67337771E+01</pdfrwt>
<totfact> 0.36541993E+08</totfact>
</mgrwt>
</event>
<event>
 4    1  0.3992289E+006  0.6534291E+01  0.7546771E-02  0.2350672E+00
         21   -1    0    0  501  502  0.00000000000E+00  0.00000000000E+00  0.10360937106E+02  0.10360937106E+02  0.00000000000E+00 0.  1.
         21   -1    0    0  502  503 -0.00000000000E+00 -0.00000000000E+00 -0.43095292195E+01  0.43095292195E+01  0.00000000000E+00 0.  1.
          5    1    1    2  501    0 -0.37857975057E+01  0.25049336681E+01  0.45601095722E+01  0.79681588053E+01  0.47000000000E+01 0.  1.
         -5    1    1    2    0  503  0.37857975057E+01 -0.25049336681E+01  0.14912983146E+01  0.67023075205E+01  0.47000000000E+01 0.  1.
<mgrwt>
<rscale>  2 0.65342907E+01</rscale>
<asrwt>0</asrwt>
<pdfrwt beam="1">  1       21 0.15939903E-02 0.65342907E+01</pdfrwt>
<pdfrwt beam="2">  1       21 0.66300450E-03 0.65342907E+01</pdfrwt>
<totfact> 0.31241173E+09</totfact>
</mgrwt>
</event>
<event>
 4    1  0.3992289E+006  0.4850226E+01  0.7546771E-02  0.2594430E+00
         21   -1    0    0  503  502  0.00000000000E+00  0.00000000000E+00  0.62724709816E-01  0.62724709816E-01  0.00000000000E+00 0. -1.
         21   -1    0    0  501  503 -0.00000000000E+00 -0.00000000000E+00 -0.37645250337E+03  0.37645250337E+03  0.00000000000E+00 0. -1.
          5    1    1    2  501    0 -0.95259233127E+00 -0.72612525033E+00 -0.19969952935E+03  0.19975842088E+03  0.47000000000E+01 0. -1.
         -5    1    1    2    0  502  0.95259233127E+00  0.72612525033E+00 -0.17669024931E+03  0.17675680720E+03  0.47000000000E+01 0. -1.
<mgrwt>
<rscale>  2 0.48502258E+01</rscale>
<asrwt>0</asrwt>
<pdfrwt beam="1">  1       21 0.96498339E-05 0.48502258E+01</pdfrwt>
<pdfrwt beam="2">  1       21 0.57916498E-01 0.48502258E+01</pdfrwt>
<totfact> 0.26750477E+09</totfact>
</mgrwt>
</event>
<event>
 4    1  0.3992289E+006  0.5133932E+01  0.7546771E-02  0.2543929E+00
         21   -1    0    0  501  502  0.00000000000E+00  0.00000000000E+00  0.42750253580E+02  0.42750253580E+02  0.00000000000E+00 0. -1.
         21   -1    0    0  502  503 -0.00000000000E+00 -0.00000000000E+00 -0.83358665183E+00  0.83358665183E+00  0.00000000000E+00 0.  1.
          5    1    1    2  501    0 -0.16070811522E+01  0.12979029534E+01  0.32078113247E+02  0.32486344999E+02  0.47000000000E+01 0. -1.
         -5    1    1    2    0  503  0.16070811522E+01 -0.12979029534E+01  0.98385536815E+01  0.11097495233E+02  0.47000000000E+01 0.  1.
<mgrwt>
<rscale>  2 0.51339324E+01</rscale>
<asrwt>0</asrwt>
<pdfrwt beam="1">  1       21 0.65769604E-02 0.51339324E+01</pdfrwt>
<pdfrwt beam="2">  1       21 0.12824413E-03 0.51339324E+01</pdfrwt>
<totfact> 0.30233842E+09</totfact>
</mgrwt>
</event>
<event>
 4    1  0.3992289E+006  0.5168891E+01  0.7546771E-02  0.2538037E+00
         21   -1    0    0  501  502  0.00000000000E+00  0.00000000000E+00  0.13367751469E+03  0.13367751469E+03  0.00000000000E+00 0.  1.
         21   -1    0    0  502  503 -0.00000000000E+00 -0.00000000000E+00 -0.20557487982E+00  0.20557487982E+00  0.00000000000E+00 0.  1.
          5    1    1    2  501    0  0.11227182433E+01 -0.18349209762E+01  0.55579382576E+02  0.55819218902E+02  0.47000000000E+01 0.  1.
         -5    1    1    2    0  503 -0.11227182433E+01  0.18349209762E+01  0.77892557237E+02  0.78063870671E+02  0.47000000000E+01 0.  1.
<mgrwt>
<rscale>  2 0.51688907E+01</rscale>
<asrwt>0</asrwt>
<pdfrwt beam="1">  1       21 0.20565702E-01 0.51688907E+01</pdfrwt>
<pdfrwt beam="2">  1       21 0.31627011E-04 0.51688907E+01</pdfrwt>
<totfact> 0.34002518E+09</totfact>
</mgrwt>
</event>
<event>
 4    1  0.3992289E+006  0.2392771E+02  0.7546771E-02  0.1676899E+00
         21   -1    0    0  503  502  0.00000000000E+00  0.00000000000E+00  0.10181874475E+02  0.10181874475E+02  0.00000000000E+00 0. -1.
         21   -1    0    0  501  503 -0.00000000000E+00 -0.00000000000E+00 -0.68331117709E+02  0.68331117709E+02  0.00000000000E+00 0.  1.
          5    1    1    2  501    0  0.22741762435E+02  0.57669420704E+01 -0.45594235637E+02  0.51491452716E+02  0.47000000000E+01 0.  1.
         -5    1    1    2    0  502 -0.22741762435E+02 -0.57669420704E+01 -0.12555007597E+02  0.27021539469E+02  0.47000000000E+01 0. -1.
<mgrwt>
<rscale>  2 0.23927712E+02</rscale>
<asrwt>0</asrwt>
<pdfrwt beam="1">  1       21 0.15664422E-02 0.23927712E+02</pdfrwt>
<pdfrwt beam="2">  1       21 0.10512480E-01 0.23927712E+02</pdfrwt>
<totfact> 0.94271893E+07</totfact>
</mgrwt>
</event>
<event>
 4    1  0.3992289E+006  0.1479449E+02  0.7546771E-02  0.1874405E+00
         21   -1    0    0  503  502  0.00000000000E+00  0.00000000000E+00  0.22053601451E+03  0.22053601451E+03  0.00000000000E+00 0. -1.
         21   -1    0    0  501  503 -0.00000000000E+00 -0.00000000000E+00 -0.13366691803E+01  0.13366691803E+01  0.00000000000E+00 0.  1.
          5    1    1    2  501    0 -0.13040912355E+02  0.51692890140E+01  0.53305646512E+02  0.55320600991E+02  0.47000000000E+01 0.  1.
         -5    1    1    2    0  502  0.13040912355E+02 -0.51692890140E+01  0.16589369881E+03  0.16655208269E+03  0.47000000000E+01 0. -1.
<mgrwt>
<rscale>  2 0.14794490E+02</rscale>
<asrwt>0</asrwt>
<pdfrwt beam="1">  1       21 0.33928589E-01 0.14794490E+02</pdfrwt>
<pdfrwt beam="2">  1       21 0.20564159E-03 0.14794490E+02</pdfrwt>
<totfact> 0.21182147E+08</totfact>
</mgrwt>
</event>
<event>
 4    1  0.3992289E+006  0.7697303E+01  0.7546771E-02  0.2235953E+00
         21   -1    0    0  501  502  0.00000000000E+00  0.00000000000E+00  0.76048536552E+02  0.76048536552E+02  0.00000000000E+00 0.  1.
         21   -1    0    0  502  503 -0.00000000000E+00 -0.00000000000E+00 -0.10159865622E+01  0.10159865622E+01  0.00000000000E+00 0. -1.
          5    1    1    2  501    0  0.27571917097E+01 -0.54365770030E+01  0.18909887946E+02  0.20416472217E+02  0.47000000000E+01 0. -1.
         -5    1    1    2    0  503 -0.27571917097E+01  0.54365770030E+01  0.56122662043E+02  0.56648050897E+02  0.47000000000E+01 0.  1.
<mgrwt>
<rscale>  2 0.76973031E+01</rscale>
<asrwt>0</asrwt>
<pdfrwt beam="1">  1       21 0.11699770E-01 0.76973031E+01</pdfrwt>
<pdfrwt beam="2">  1       21 0.15630569E-03 0.76973031E+01</pdfrwt>
<totfact> 0.13350717E+09</totfact>
</mgrwt>
</event>
<event>
 4    1  0.3992289E+006  0.4808148E+01  0.7546771E-02  0.2602356E+00
         21   -1    0    0  501  502  0.00000000000E+00  0.00000000000E+00  0.92701924071E+02  0.92701924071E+02  0.00000000000E+00 0.  1.
         21   -1    0    0  502  503 -0.00000000000E+00 -0.00000000000E+00 -0.70662744321E+00  0.70662744321E+00  0.00000000000E+00 0.  1.
          5    1    1    2  501    0  0.74973569419E+00 -0.68277626782E+00  0.83567163782E+02  0.83705371092E+02  0.47000000000E+01 0.  1.
         -5    1    1    2    0  503 -0.74973569419E+00  0.68277626782E+00  0.84281328453E+01  0.97031804219E+01  0.47000000000E+01 0.  1.
<mgrwt>
<rscale>  2 0.48081480E+01</rscale>
<asrwt>0</asrwt>
<pdfrwt beam="1">  1       21 0.14261825E-01 0.48081480E+01</pdfrwt>
<pdfrwt beam="2">  1       21 0.10871199E-03 0.48081480E+01</pdfrwt>
<totfact> 0.10984588E+09</totfact>
</mgrwt>
</event>
<event>
 4    1  0.3992289E+006  0.6567312E+01  0.7546771E-02  0.2346959E+00
         21   -1    0    0  501  502  0.00000000000E+00  0.00000000000E+00  0.36894871693E+03  0.36894871693E+03  0.00000000000E+00 0.  1.
         21   -1    0    0  502  503 -0.00000000000E+00 -0.00000000000E+00 -0.45435682932E+00  0.45435682932E+00  0.00000000000E+00 0.  1.
          5    1    1    2  501    0  0.30738757709E+01  0.34045374132E+01  0.34342479492E+03  0.34348758253E+03  0.47000000000E+01 0.  1.
         -5    1    1    2    0  503 -0.30738757709E+01 -0.34045374132E+01  0.25069565183E+02  0.25915491230E+02  0.47000000000E+01 0.  1.
<mgrwt>
<rscale>  2 0.65673120E+01</rscale>
<asrwt>0</asrwt>
<pdfrwt beam="1">  1       21 0.56761101E-01 0.65673120E+01</pdfrwt>
<pdfrwt beam="2">  1       21 0.69901346E-04 0.65673120E+01</pdfrwt>
<totfact> 0.24936178E+08</totfact>
</mgrwt>
</event>
<event>
 4    1  0.3992289E+006  0.5175640E+01  0.7546771E-02  0.2536908E+00
         21   -1    0    0  503  502  0.00000000000E+00  0.00000000000E+00  0.31402720156E+01  0.31402720156E+01  0.00000000000E+00 0.  1.
         21   -1    0    0  501  503 -0.00000000000E+00 -0.00000000000E+00 -0.11722075963E+02  0.11722075963E+02  0.00000000000E+00 0.  1.
          5    1    1    2  501    0 -0.21230402062E+00  0.21568915609E+01 -0.81686168595E+01  0.96702407209E+01  0.47000000000E+01 0.  1.
         -5    1    1    2    0  502  0.21230402062E+00 -0.21568915609E+01 -0.41318708751E+00  0.51921072574E+01  0.47000000000E+01 0.  1.
<mgrwt>
<rscale>  2 0.51756405E+01</rscale>
<asrwt>0</asrwt>
<pdfrwt beam="1">  1       21 0.48311877E-03 0.51756405E+01</pdfrwt>
<pdfrwt beam="2">  1       21 0.18033963E-02 0.51756405E+01</pdfrwt>
<totfact> 0.32844976E+09</totfact>
</mgrwt>
</event>
<event>
 4    1  0.3992289E+006  0.4780796E+01  0.7546771E-02  0.2607574E+00
         21   -1    0    0  501  502  0.00000000000E+00  0.00000000000E+00  0.63888532864E+01  0.63888532864E+01  0.00000000000E+00 0.  1.
         21   -1    0    0  502  503 -0.00000000000E+00 -0.00000000000E+00 -0.55335448890E+01  0.55335448890E+01  0.00000000000E+00 0.  1.
          5    1    1    2  501    0  0.86542809877E+00  0.13056240227E+00  0.39718950968E+01  0.62154616076E+01  0.47000000000E+01 0.  1.
         -5    1    1    2    0  503 -0.86542809877E+00 -0.13056240227E+00 -0.31165866994E+01  0.57069365679E+01  0.47000000000E+01 0.  1.
<mgrwt>
<rscale>  2 0.47807962E+01</rscale>
<asrwt>0</asrwt>
<pdfrwt beam="1">  1       21 0.98290050E-03 0.47807962E+01</pdfrwt>
<pdfrwt beam="2">  1       21 0.85131460E-03 0.47807962E+01</pdfrwt>
<totfact> 0.32427713E+09</totfact>
</mgrwt>
</event>
<event>
 4    1  0.3992289E+006  0.5633526E+01  0.7546771E-02  0.2465710E+00
         21   -1    0    0  503  502  0.00000000000E+00  0.00000000000E+00  0.43027200306E+02  0.43027200306E+02  0.00000000000E+00 0.  1.
         21   -1    0    0  501  503 -0.00000000000E+00 -0.00000000000E+00 -0.13444565210E+01  0.13444565210E+01  0.00000000000E+00 0.  1.
          5    1    1    2  501    0  0.26145045601E+00 -0.30948770573E+01  0.59358461849E+01  0.81835744190E+01  0.47000000000E+01 0.  1.
         -5    1    1    2    0  502 -0.26145045601E+00  0.30948770573E+01  0.35746897600E+02  0.36188082408E+02  0.47000000000E+01 0.  1.
<mgrwt>
<rscale>  2 0.56335265E+01</rscale>
<asrwt>0</asrwt>
<pdfrwt beam="1">  1       21 0.66195682E-02 0.56335265E+01</pdfrwt>
<pdfrwt beam="2">  1       21 0.20683950E-03 0.56335265E+01</pdfrwt>
<totfact> 0.17156319E+09</totfact>
</mgrwt>
</event>
<event>
 4    1  0.3992289E+006  0.6691675E+01  0.7546771E-02  0.2333247E+00
         21   -1    0    0  503  502  0.00000000000E+00  0.00000000000E+00  0.16714010908E+01  0.16714010908E+01  0.00000000000E+00 0.  1.
         21   -1    0    0  501  503 -0.00000000000E+00 -0.00000000000E+00 -0.29372949582E+02  0.29372949582E+02  0.00000000000E+00 0. -1.
          5    1    1    2  501    0 -0.46264461816E+01  0.11333595570E+01 -0.92487107489E+01  0.11415654106E+02  0.47000000000E+01 0. -1.
         -5    1    1    2    0  502  0.46264461816E+01 -0.11333595570E+01 -0.18452837742E+02  0.19628696566E+02  0.47000000000E+01 0.  1.
<mgrwt>
<rscale>  2 0.66916745E+01</rscale>
<asrwt>0</asrwt>
<pdfrwt beam="1">  1       21 0.25713864E-03 0.66916745E+01</pdfrwt>
<pdfrwt beam="2">  1       21 0.45189151E-02 0.66916745E+01</pdfrwt>
<totfact> 0.25998189E+09</totfact>
</mgrwt>
</event>
<event>
 4    1  0.3992289E+006  0.5958000E+01  0.7546771E-02  0.2420922E+00
         21   -1    0    0  501  502  0.00000000000E+00  0.00000000000E+00  0.98390588971E+01  0.98390588971E+01  0.00000000000E+00 0.  1.
         21   -1    0    0  502  503 -0.00000000000E+00 -0.00000000000E+00 -0.11535362450E+02  0.11535362450E+02  0.00000000000E+00 0.  1.
          5    1    1    2  501    0  0.18050631272E+01  0.31858288321E+01  0.80115165982E+01  0.99840951740E+01  0.47000000000E+01 0.  1.
         -5    1    1    2    0  503 -0.18050631272E+01 -0.31858288321E+01 -0.97078201509E+01  0.11390326173E+02  0.47000000000E+01 0.  1.
<mgrwt>
<rscale>  2 0.59579995E+01</rscale>
<asrwt>0</asrwt>
<pdfrwt beam="1">  1       21 0.15137014E-02 0.59579995E+01</pdfrwt>
<pdfrwt beam="2">  1       21 0.17746711E-02 0.59579995E+01</pdfrwt>
<totfact> 0.77153050E+08</totfact>
</mgrwt>
</event>
<event>
 4    1  0.3992289E+006  0.6261712E+01  0.7546771E-02  0.2382557E+00
         21   -1    0    0  503  502  0.00000000000E+00  0.00000000000E+00  0.65958527255E+02  0.65958527255E+02  0.00000000000E+00 0. -1.
         21   -1    0    0  501  503 -0.00000000000E+00 -0.00000000000E+00 -0.59649923639E+00  0.59649923639E+00  0.00000000000E+00 0.  1.
          5    1    1    2  501    0  0.26041140718E+01  0.32152187588E+01  0.30730497648E+02  0.31361959879E+02  0.47000000000E+01 0. -1.
         -5    1    1    2    0  502 -0.26041140718E+01 -0.32152187588E+01  0.34631530371E+02  0.35193066613E+02  0.47000000000E+01 0.  1.
<mgrwt>
<rscale>  2 0.62617124E+01</rscale>
<asrwt>0</asrwt>
<pdfrwt beam="1">  1       21 0.10147460E-01 0.62617124E+01</pdfrwt>
<pdfrwt beam="2">  1       21 0.91769165E-04 0.62617124E+01</pdfrwt>
<totfact> 0.29420154E+09</totfact>
</mgrwt>
</event>
<event>
 4    1  0.3992289E+006  0.1553589E+02  0.7546771E-02  0.1852143E+00
         21   -1    0    0  501  502  0.00000000000E+00  0.00000000000E+00  0.20059405305E+01  0.20059405305E+01  0.00000000000E+00 0.  1.
         21   -1    0    0  502  503 -0.00000000000E+00 -0.00000000000E+00 -0.12739392275E+03  0.12739392275E+03  0.00000000000E+00 0. -1.
          5    1    1    2  501    0 -0.12985716363E+02 -0.71165255311E+01 -0.47452696958E+02  0.49931174768E+02  0.47000000000E+01 0.  1.
         -5    1    1    2    0  503  0.12985716363E+02  0.71165255311E+01 -0.77935285257E+02  0.79468688508E+02  0.47000000000E+01 0. -1.
<mgrwt>
<rscale>  2 0.15535886E+02</rscale>
<asrwt>0</asrwt>
<pdfrwt beam="1">  1       21 0.30860614E-03 0.15535886E+02</pdfrwt>
<pdfrwt beam="2">  1       21 0.19599071E-01 0.15535886E+02</pdfrwt>
<totfact> 0.31651021E+08</totfact>
</mgrwt>
</event>
<event>
 4    1  0.3992289E+006  0.7800383E+01  0.7546771E-02  0.2227146E+00
         21   -1    0    0  503  502  0.00000000000E+00  0.00000000000E+00  0.63895259451E+01  0.63895259451E+01  0.00000000000E+00 0.  1.
         21   -1    0    0  501  503 -0.00000000000E+00 -0.00000000000E+00 -0.10067354022E+02  0.10067354022E+02  0.00000000000E+00 0.  1.
          5    1    1    2  501    0  0.59740039870E-01  0.62251435879E+01 -0.37526964491E+01  0.86561372564E+01  0.47000000000E+01 0.  1.
         -5    1    1    2    0  502 -0.59740039870E-01 -0.62251435879E+01  0.74868372427E-01  0.78007427105E+01  0.47000000000E+01 0.  1.
<mgrwt>
<rscale>  2 0.78003834E+01</rscale>
<asrwt>0</asrwt>
<pdfrwt beam="1">  1       21 0.98300399E-03 0.78003834E+01</pdfrwt>
<pdfrwt beam="2">  1       21 0.15488237E-02 0.78003834E+01</pdfrwt>
<totfact> 0.21390353E+09</totfact>
</mgrwt>
</event>
<event>
 4    1  0.3992289E+006  0.5554859E+01  0.7546771E-02  0.2477230E+00
         21   -1    0    0  501  502  0.00000000000E+00  0.00000000000E+00  0.13923304953E+00  0.13923304953E+00  0.00000000000E+00 0.  1.
         21   -1    0    0  502  503 -0.00000000000E+00 -0.00000000000E+00 -0.22657049788E+03  0.22657049788E+03  0.00000000000E+00 0.  1.
          5    1    1    2  501    0 -0.16906920672E+01  0.24306407471E+01 -0.96455369714E+02  0.96615189286E+02  0.47000000000E+01 0.  1.
         -5    1    1    2    0  503  0.16906920672E+01 -0.24306407471E+01 -0.12997589512E+03  0.13009454164E+03  0.47000000000E+01 0.  1.
<mgrwt>
<rscale>  2 0.55548586E+01</rscale>
<asrwt>0</asrwt>
<pdfrwt beam="1">  1       21 0.21420441E-04 0.55548586E+01</pdfrwt>
<pdfrwt beam="2">  1       21 0.34857046E-01 0.55548586E+01</pdfrwt>
<totfact> 0.25480505E+09</totfact>
</mgrwt>
</event>
<event>
 4    1  0.3992289E+006  0.9257247E+01  0.7546771E-02  0.2119899E+00
         21   -1    0    0  501  502  0.00000000000E+00  0.00000000000E+00  0.55500587048E+01  0.55500587048E+01  0.00000000000E+00 0.  1.
         21   -1    0    0  502  503 -0.00000000000E+00 -0.00000000000E+00 -0.17147376322E+02  0.17147376322E+02  0.00000000000E+00 0. -1.
          5    1    1    2  501    0  0.73223381913E+01  0.31606933725E+01 -0.22182923743E+01  0.95193193160E+01  0.47000000000E+01 0.  1.
         -5    1    1    2    0  503 -0.73223381913E+01 -0.31606933725E+01 -0.93790252432E+01  0.13178115711E+02  0.47000000000E+01 0. -1.
<mgrwt>
<rscale>  2 0.92572468E+01</rscale>
<asrwt>0</asrwt>
<pdfrwt beam="1">  1       21 0.85385519E-03 0.92572468E+01</pdfrwt>
<pdfrwt beam="2">  1       21 0.26380579E-02 0.92572468E+01</pdfrwt>
<totfact> 0.13456728E+09</totfact>
</mgrwt>
</event>
<event>
 4    1  0.3992289E+006  0.6062224E+01  0.7546771E-02  0.2407395E+00
         21   -1    0    0  503  502  0.00000000000E+00  0.00000000000E+00  0.91442866928E+01  0.91442866928E+01  0.00000000000E+00 0.  1.
         21   -1    0    0  501  503 -0.00000000000E+00 -0.00000000000E+00 -0.17013820336E+02  0.17013820336E+02  0.00000000000E+00 0.  1.
          5    1    1    2  501    0  0.38252296306E+01 -0.16785582385E+00 -0.15365159226E+02  0.16517829014E+02  0.47000000000E+01 0.  1.
         -5    1    1    2    0  502 -0.38252296306E+01  0.16785582385E+00  0.74956255832E+01  0.96402780141E+01  0.47000000000E+01 0.  1.
<mgrwt>
<rscale>  2 0.60622238E+01</rscale>
<asrwt>0</asrwt>
<pdfrwt beam="1">  1       21 0.14068133E-02 0.60622238E+01</pdfrwt>
<pdfrwt beam="2">  1       21 0.26175108E-02 0.60622238E+01</pdfrwt>
<totfact> 0.49617649E+08</totfact>
</mgrwt>
</event>
<event>
 4    1  0.3992289E+006  0.5708929E+01  0.7546771E-02  0.2454920E+00
         21   -1    0    0  501  502  0.00000000000E+00  0.00000000000E+00  0.86553972291E+00  0.86553972291E+00  0.00000000000E+00 0. -1.
         21   -1    0    0  502  503 -0.00000000000E+00 -0.00000000000E+00 -0.14596721672E+03  0.14596721672E+03  0.00000000000E+00 0. -1.
          5    1    1    2  501    0  0.30775333601E+01 -0.10152150264E+01 -0.93090602743E+01  0.10920186643E+02  0.47000000000E+01 0. -1.
         -5    1    1    2    0  503 -0.30775333601E+01  0.10152150264E+01 -0.13579261672E+03  0.13591256980E+03  0.47000000000E+01 0. -1.
<mgrwt>
<rscale>  2 0.57089292E+01</rscale>
<asrwt>0</asrwt>
<pdfrwt beam="1">  1       21 0.13316000E-03 0.57089292E+01</pdfrwt>
<pdfrwt beam="2">  1       21 0.22456488E-01 0.57089292E+01</pdfrwt>
<totfact> 0.47232624E+08</totfact>
</mgrwt>
</event>
<event>
 4    1  0.3992289E+006  0.5710008E+01  0.7546771E-02  0.2454767E+00
         21   -1    0    0  503  502  0.00000000000E+00  0.00000000000E+00  0.18837497792E+02  0.18837497792E+02  0.00000000000E+00 0.  1.
         21   -1    0    0  501  503 -0.00000000000E+00 -0.00000000000E+00 -0.17766647685E+01  0.17766647685E+01  0.00000000000E+00 0. -1.
          5    1    1    2  501    0 -0.16430174855E+01 -0.27954748170E+01  0.68746044553E+01  0.89366868764E+01  0.47000000000E+01 0.  1.
         -5    1    1    2    0  502  0.16430174855E+01  0.27954748170E+01  0.10186228568E+02  0.11677475684E+02  0.47000000000E+01 0. -1.
<mgrwt>
<rscale>  2 0.57100075E+01</rscale>
<asrwt>0</asrwt>
<pdfrwt beam="1">  1       21 0.28980764E-02 0.57100075E+01</pdfrwt>
<pdfrwt beam="2">  1       21 0.27333305E-03 0.57100075E+01</pdfrwt>
<totfact> 0.39978422E+09</totfact>
</mgrwt>
</event>
<event>
 4    1  0.3992289E+006  0.9452122E+01  0.7546771E-02  0.2107578E+00
         21   -1    0    0  503  502  0.00000000000E+00  0.00000000000E+00  0.30776556162E+02  0.30776556162E+02  0.00000000000E+00 0. -1.
         21   -1    0    0  501  503 -0.00000000000E+00 -0.00000000000E+00 -0.30318644572E+01  0.30318644572E+01  0.00000000000E+00 0.  1.
          5    1    1    2  501    0  0.81645227708E+01 -0.77018617878E+00  0.10386558200E+02  0.14043618126E+02  0.47000000000E+01 0.  1.
         -5    1    1    2    0  502 -0.81645227708E+01  0.77018617878E+00  0.17358133505E+02  0.19764802493E+02  0.47000000000E+01 0. -1.
<mgrwt>
<rscale>  2 0.94521225E+01</rscale>
<asrwt>0</asrwt>
<pdfrwt beam="1">  1       21 0.47348546E-02 0.94521225E+01</pdfrwt>
<pdfrwt beam="2">  1       21 0.46644071E-03 0.94521225E+01</pdfrwt>
<totfact> 0.13434022E+09</totfact>
</mgrwt>
</event>
<event>
 4    1  0.3992289E+006  0.5779760E+01  0.7546771E-02  0.2445001E+00
         21   -1    0    0  503  502  0.00000000000E+00  0.00000000000E+00  0.40794099058E+02  0.40794099058E+02  0.00000000000E+00 0. -1.
         21   -1    0    0  501  503 -0.00000000000E+00 -0.00000000000E+00 -0.11480319351E+01  0.11480319351E+01  0.00000000000E+00 0.  1.
          5    1    1    2  501    0 -0.33600685399E+01 -0.15990144088E+00  0.85940828449E+01  0.10356828135E+02  0.47000000000E+01 0.  1.
         -5    1    1    2    0  502  0.33600685399E+01  0.15990144088E+00  0.31051984278E+02  0.31585302859E+02  0.47000000000E+01 0. -1.
<mgrwt>
<rscale>  2 0.57797603E+01</rscale>
<asrwt>0</asrwt>
<pdfrwt beam="1">  1       21 0.62760141E-02 0.57797603E+01</pdfrwt>
<pdfrwt beam="2">  1       21 0.17662033E-03 0.57797603E+01</pdfrwt>
<totfact> 0.23530314E+09</totfact>
</mgrwt>
</event>
<event>
 4    1  0.3992289E+006  0.7460477E+01  0.7546771E-02  0.2256931E+00
         21   -1    0    0  503  502  0.00000000000E+00  0.00000000000E+00  0.63433124349E-01  0.63433124349E-01  0.00000000000E+00 0. -1.
         21   -1    0    0  501  503 -0.00000000000E+00 -0.00000000000E+00 -0.87891540242E+03  0.87891540242E+03  0.00000000000E+00 0.  1.
          5    1    1    2  501    0 -0.49175476016E+01 -0.30637306186E+01 -0.42141551522E+03  0.42148154786E+03  0.47000000000E+01 0. -1.
         -5    1    1    2    0  502  0.49175476016E+01  0.30637306186E+01 -0.45743645407E+03  0.45749728768E+03  0.47000000000E+01 0.  1.
<mgrwt>
<rscale>  2 0.74604772E+01</rscale>
<asrwt>0</asrwt>
<pdfrwt beam="1">  1       21 0.97586018E-05 0.74604772E+01</pdfrwt>
<pdfrwt beam="2">  1       21 0.13522247E+00 0.74604772E+01</pdfrwt>
<totfact> 0.66626833E+08</totfact>
</mgrwt>
</event>
<event>
 4    1  0.3992289E+006  0.4766420E+01  0.7546771E-02  0.2610337E+00
         21   -1    0    0  501  502  0.00000000000E+00  0.00000000000E+00  0.58108487109E+03  0.58108487109E+03  0.00000000000E+00 0. -1.
         21   -1    0    0  502  503 -0.00000000000E+00 -0.00000000000E+00 -0.43350275801E-01  0.43350275801E-01  0.00000000000E+00 0. -1.
          5    1    1    2  501    0 -0.65538352843E+00 -0.44635028529E+00  0.38153318820E+03  0.38156296001E+03  0.47000000000E+01 0.  1.
         -5    1    1    2    0  503  0.65538352843E+00  0.44635028529E+00  0.19950833261E+03  0.19956526135E+03  0.47000000000E+01 0.  1.
<mgrwt>
<rscale>  2 0.47664196E+01</rscale>
<asrwt>0</asrwt>
<pdfrwt beam="1">  1       21 0.89391435E-01 0.47664196E+01</pdfrwt>
<pdfrwt beam="2">  1       21 0.66697386E-05 0.47664196E+01</pdfrwt>
<totfact> 0.19060723E+09</totfact>
</mgrwt>
</event>
<event>
 4    1  0.3992289E+006  0.5247169E+01  0.7546771E-02  0.2525090E+00
         21   -1    0    0  501  502  0.00000000000E+00  0.00000000000E+00  0.15143867784E+03  0.15143867784E+03  0.00000000000E+00 0.  1.
         21   -1    0    0  502  503 -0.00000000000E+00 -0.00000000000E+00 -0.32211379414E+00  0.32211379414E+00  0.00000000000E+00 0. -1.
          5    1    1    2  501    0 -0.19911684652E+01  0.12157422942E+01  0.12563807728E+03  0.12574760134E+03  0.47000000000E+01 0.  1.
         -5    1    1    2    0  503  0.19911684652E+01 -0.12157422942E+01  0.25478486761E+02  0.26013190285E+02  0.47000000000E+01 0. -1.
<mgrwt>
<rscale>  2 0.52471689E+01</rscale>
<asrwt>0</asrwt>
<pdfrwt beam="1">  1       21 0.23298201E-01 0.52471689E+01</pdfrwt>
<pdfrwt beam="2">  1       21 0.49556089E-04 0.52471689E+01</pdfrwt>
<totfact> 0.15536892E+09</totfact>
</mgrwt>
</event>
<event>
 4    1  0.3992289E+006  0.5460096E+01  0.7546771E-02  0.2491480E+00
         21   -1    0    0  503  502  0.00000000000E+00  0.00000000000E+00  0.67814936280E+02  0.67814936280E+02  0.00000000000E+00 0.  1.
         21   -1    0    0  501  503 -0.00000000000E+00 -0.00000000000E+00 -0.28617021622E+01  0.28617021622E+01  0.00000000000E+00 0.  1.
          5    1    1    2  501    0  0.27380660260E+01  0.47501731819E+00 -0.34232213562E-01  0.54602031885E+01  0.47000000000E+01 0.  1.
         -5    1    1    2    0  502 -0.27380660260E+01 -0.47501731819E+00  0.64987466332E+02  0.65216435254E+02  0.47000000000E+01 0.  1.
<mgrwt>
<rscale>  2 0.54600959E+01</rscale>
<asrwt>0</asrwt>
<pdfrwt beam="1">  1       21 0.10433066E-01 0.54600959E+01</pdfrwt>
<pdfrwt beam="2">  1       21 0.44026192E-03 0.54600959E+01</pdfrwt>
<totfact> 0.29961879E+08</totfact>
</mgrwt>
</event>
<event>
 4    1  0.3992289E+006  0.5952321E+01  0.7546771E-02  0.2421671E+00
         21   -1    0    0  501  502  0.00000000000E+00  0.00000000000E+00  0.22844090785E+01  0.22844090785E+01  0.00000000000E+00 0. -1.
         21   -1    0    0  502  503 -0.00000000000E+00 -0.00000000000E+00 -0.37903798004E+02  0.37903798004E+02  0.00000000000E+00 0.  1.
          5    1    1    2  501    0 -0.32212473229E+01 -0.17215367998E+01 -0.23644190990E+01  0.64047326989E+01  0.47000000000E+01 0. -1.
         -5    1    1    2    0  503  0.32212473229E+01  0.17215367998E+01 -0.33254969826E+02  0.33783474384E+02  0.47000000000E+01 0.  1.
<mgrwt>
<rscale>  2 0.59523208E+01</rscale>
<asrwt>0</asrwt>
<pdfrwt beam="1">  1       21 0.35144754E-03 0.59523208E+01</pdfrwt>
<pdfrwt beam="2">  1       21 0.58313538E-02 0.59523208E+01</pdfrwt>
<totfact> 0.10516057E+09</totfact>
</mgrwt>
</event>
<event>
 4    1  0.3992289E+006  0.5173859E+01  0.7546771E-02  0.2537206E+00
         21   -1    0    0  503  502  0.00000000000E+00  0.00000000000E+00  0.18392189483E+03  0.18392189483E+03  0.00000000000E+00 0.  1.
         21   -1    0    0  501  503 -0.00000000000E+00 -0.00000000000E+00 -0.14665133694E+00  0.14665133694E+00  0.00000000000E+00 0.  1.
          5    1    1    2  501    0  0.13291056438E+00  0.21589705024E+01  0.83892043799E+02  0.84051435631E+02  0.47000000000E+01 0.  1.
         -5    1    1    2    0  502 -0.13291056438E+00 -0.21589705024E+01  0.99883199697E+02  0.10001711054E+03  0.47000000000E+01 0.  1.
<mgrwt>
<rscale>  2 0.51738592E+01</rscale>
<asrwt>0</asrwt>
<pdfrwt beam="1">  1       21 0.28295492E-01 0.51738592E+01</pdfrwt>
<pdfrwt beam="2">  1       21 0.22561891E-04 0.51738592E+01</pdfrwt>
<totfact> 0.31712176E+09</totfact>
</mgrwt>
</event>
<event>
 4    1  0.3992289E+006  0.1124887E+02  0.7546771E-02  0.2010183E+00
         21   -1    0    0  503  502  0.00000000000E+00  0.00000000000E+00  0.13929185662E+00  0.13929185662E+00  0.00000000000E+00 0.  1.
         21   -1    0    0  501  503 -0.00000000000E+00 -0.00000000000E+00 -0.16618179496E+04  0.16618179496E+04  0.00000000000E+00 0.  1.
          5    1    1    2  501    0 -0.86567230185E+01  0.54321404447E+01 -0.13903485539E+04  0.13903940587E+04  0.47000000000E+01 0.  1.
         -5    1    1    2    0  502  0.86567230185E+01 -0.54321404447E+01 -0.27133010378E+03  0.27156318274E+03  0.47000000000E+01 0.  1.
<mgrwt>
<rscale>  2 0.11248867E+02</rscale>
<asrwt>0</asrwt>
<pdfrwt beam="1">  1       21 0.21430782E-04 0.11248867E+02</pdfrwt>
<pdfrwt beam="2">  1       21 0.25564920E+00 0.11248867E+02</pdfrwt>
<totfact> 0.61239810E+07</totfact>
</mgrwt>
</event>
<event>
 4    1  0.3992289E+006  0.1533682E+02  0.7546771E-02  0.1857961E+00
         21   -1    0    0  501  502  0.00000000000E+00  0.00000000000E+00  0.45324095451E+01  0.45324095451E+01  0.00000000000E+00 0. -1.
         21   -1    0    0  502  503 -0.00000000000E+00 -0.00000000000E+00 -0.18027609310E+03  0.18027609310E+03  0.00000000000E+00 0.  1.
          5    1    1    2  501    0 -0.10932249674E+02 -0.96754264912E+01 -0.98941776989E+01  0.18251375648E+02  0.47000000000E+01 0. -1.
         -5    1    1    2    0  503  0.10932249674E+02  0.96754264912E+01 -0.16584950586E+03  0.16655712700E+03  0.47000000000E+01 0.  1.
<mgrwt>
<rscale>  2 0.15336817E+02</rscale>
<asrwt>0</asrwt>
<pdfrwt beam="1">  1       21 0.69729378E-03 0.15336817E+02</pdfrwt>
<pdfrwt beam="2">  1       21 0.27734783E-01 0.15336817E+02</pdfrwt>
<totfact> 0.52791511E+07</totfact>
</mgrwt>
</event>
<event>
 4    1  0.3992289E+006  0.5168746E+01  0.7546771E-02  0.2538062E+00
         21   -1    0    0  501  502  0.00000000000E+00  0.00000000000E+00  0.63496153404E+00  0.63496153404E+00  0.00000000000E+00 0.  1.
         21   -1    0    0  502  503 -0.00000000000E+00 -0.00000000000E+00 -0.42280735043E+02  0.42280735043E+02  0.00000000000E+00 0. -1.
          5    1    1    2  501    0  0.21488863318E+01  0.90655907431E-01 -0.19325635634E+02  0.20004902490E+02  0.47000000000E+01 0. -1.
         -5    1    1    2    0  503 -0.21488863318E+01 -0.90655907431E-01 -0.22320137875E+02  0.22910794088E+02  0.47000000000E+01 0.  1.
<mgrwt>
<rscale>  2 0.51687456E+01</rscale>
<asrwt>0</asrwt>
<pdfrwt beam="1">  1       21 0.97686394E-04 0.51687456E+01</pdfrwt>
<pdfrwt beam="2">  1       21 0.65047282E-02 0.51687456E+01</pdfrwt>
<totfact> 0.44483059E+09</totfact>
</mgrwt>
</event>
<event>
 4    1  0.3992289E+006  0.5450738E+01  0.7546771E-02  0.2492911E+00
         21   -1    0    0  503  502  0.00000000000E+00  0.00000000000E+00  0.82165951891E+01  0.82165951891E+01  0.00000000000E+00 0.  1.
         21   -1    0    0  501  503 -0.00000000000E+00 -0.00000000000E+00 -0.80987722377E+01  0.80987722377E+01  0.00000000000E+00 0.  1.
          5    1    1    2  501    0  0.26420179445E+01  0.80017779720E+00 -0.60103315343E+01  0.81138541075E+01  0.47000000000E+01 0.  1.
         -5    1    1    2    0  502 -0.26420179445E+01 -0.80017779720E+00  0.61281544857E+01  0.82015133193E+01  0.47000000000E+01 0.  1.
<mgrwt>
<rscale>  2 0.54507379E+01</rscale>
<asrwt>0</asrwt>
<pdfrwt beam="1">  1       21 0.12640916E-02 0.54507379E+01</pdfrwt>
<pdfrwt beam="2">  1       21 0.12459650E-02 0.54507379E+01</pdfrwt>
<totfact> 0.15264709E+09</totfact>
</mgrwt>
</event>
<event>
 4    1  0.3992289E+006  0.4762174E+01  0.7546771E-02  0.2611156E+00
         21   -1    0    0  503  502  0.00000000000E+00  0.00000000000E+00  0.78387826807E+00  0.78387826807E+00  0.00000000000E+00 0. -1.
         21   -1    0    0  501  503 -0.00000000000E+00 -0.00000000000E+00 -0.58015448066E+02  0.58015448066E+02  0.00000000000E+00 0. -1.
          5    1    1    2  501    0 -0.82400703611E-01 -0.76257032388E+00 -0.49431996464E+02  0.49660855589E+02  0.47000000000E+01 0. -1.
         -5    1    1    2    0  502  0.82400703611E-01  0.76257032388E+00 -0.77995733341E+01  0.91384707456E+01  0.47000000000E+01 0. -1.
<mgrwt>
<rscale>  2 0.47621742E+01</rscale>
<asrwt>0</asrwt>
<pdfrwt beam="1">  1       21 0.12059659E-03 0.47621742E+01</pdfrwt>
<pdfrwt beam="2">  1       21 0.89254585E-02 0.47621742E+01</pdfrwt>
<totfact> 0.19321483E+09</totfact>
</mgrwt>
</event>
<event>
 4    1  0.3992289E+006  0.4793636E+01  0.7546771E-02  0.2605118E+00
         21   -1    0    0  503  502  0.00000000000E+00  0.00000000000E+00  0.12871273703E+02  0.12871273703E+02  0.00000000000E+00 0. -1.
         21   -1    0    0  501  503 -0.00000000000E+00 -0.00000000000E+00 -0.12255670575E+02  0.12255670575E+02  0.00000000000E+00 0. -1.
          5    1    1    2  501    0 -0.82368957669E+00 -0.45877801533E+00 -0.11304609440E+02  0.12278971308E+02  0.47000000000E+01 0. -1.
         -5    1    1    2    0  502  0.82368957669E+00  0.45877801533E+00  0.11920212568E+02  0.12847972971E+02  0.47000000000E+01 0. -1.
<mgrwt>
<rscale>  2 0.47936355E+01</rscale>
<asrwt>0</asrwt>
<pdfrwt beam="1">  1       21 0.19801960E-02 0.47936355E+01</pdfrwt>
<pdfrwt beam="2">  1       21 0.18854878E-02 0.47936355E+01</pdfrwt>
<totfact> 0.40094741E+08</totfact>
</mgrwt>
</event>
<event>
 4    1  0.3992289E+006  0.5366272E+01  0.7546771E-02  0.2506010E+00
         21   -1    0    0  503  502  0.00000000000E+00  0.00000000000E+00  0.56684838136E+01  0.56684838136E+01  0.00000000000E+00 0. -1.
         21   -1    0    0  501  503 -0.00000000000E+00 -0.00000000000E+00 -0.52014805655E+01  0.52014805655E+01  0.00000000000E+00 0. -1.
          5    1    1    2  501    0 -0.24326938986E+01 -0.88818960085E+00  0.10635013762E+01  0.54706412374E+01  0.47000000000E+01 0. -1.
         -5    1    1    2    0  502  0.24326938986E+01  0.88818960085E+00 -0.59649812811E+00  0.53993231417E+01  0.47000000000E+01 0. -1.
<mgrwt>
<rscale>  2 0.53662725E+01</rscale>
<asrwt>0</asrwt>
<pdfrwt beam="1">  1       21 0.87207444E-03 0.53662725E+01</pdfrwt>
<pdfrwt beam="2">  1       21 0.80022778E-03 0.53662725E+01</pdfrwt>
<totfact> 0.47089409E+09</totfact>
</mgrwt>
</event>
<event>
 4    1  0.3992289E+006  0.5401621E+01  0.7546771E-02  0.2500485E+00
         21   -1    0    0  503  502  0.00000000000E+00  0.00000000000E+00  0.25619424462E+03  0.25619424462E+03  0.00000000000E+00 0. -1.
         21   -1    0    0  501  503 -0.00000000000E+00 -0.00000000000E+00 -0.27921174810E+00  0.27921174810E+00  0.00000000000E+00 0. -1.
          5    1    1    2  501    0  0.22450226528E+01  0.14308694000E+01  0.29281211299E+02  0.29775272444E+02  0.47000000000E+01 0. -1.
         -5    1    1    2    0  502 -0.22450226528E+01 -0.14308694000E+01  0.22663382158E+03  0.22669818393E+03  0.47000000000E+01 0. -1.
<mgrwt>
<rscale>  2 0.54016214E+01</rscale>
<asrwt>0</asrwt>
<pdfrwt beam="1">  1       21 0.39414311E-01 0.54016214E+01</pdfrwt>
<pdfrwt beam="2">  1       21 0.42955858E-04 0.54016214E+01</pdfrwt>
<totfact> 0.79981029E+08</totfact>
</mgrwt>
</event>
<event>
 4    1  0.3992289E+006  0.5148238E+01  0.7546771E-02  0.2541510E+00
         21   -1    0    0  501  502  0.00000000000E+00  0.00000000000E+00  0.81886124181E+00  0.81886124181E+00  0.00000000000E+00 0. -1.
         21   -1    0    0  502  503 -0.00000000000E+00 -0.00000000000E+00 -0.34583882723E+02  0.34583882723E+02  0.00000000000E+00 0. -1.
          5    1    1    2  501    0  0.15015654684E+01  0.14695756411E+01 -0.12401157684E+02  0.13427325248E+02  0.47000000000E+01 0. -1.
         -5    1    1    2    0  503 -0.15015654684E+01 -0.14695756411E+01 -0.21363863798E+02  0.21975418717E+02  0.47000000000E+01 0. -1.
<mgrwt>
<rscale>  2 0.51482377E+01</rscale>
<asrwt>0</asrwt>
<pdfrwt beam="1">  1       21 0.12597867E-03 0.51482377E+01</pdfrwt>
<pdfrwt beam="2">  1       21 0.53205968E-02 0.51482377E+01</pdfrwt>
<totfact> 0.42453902E+09</totfact>
</mgrwt>
</event>
<event>
 4    1  0.3992289E+006  0.5184796E+01  0.7546771E-02  0.2535380E+00
         21   -1    0    0  501  502  0.00000000000E+00  0.00000000000E+00  0.32164511979E+02  0.32164511979E+02  0.00000000000E+00 0. -1.
         21   -1    0    0  502  503 -0.00000000000E+00 -0.00000000000E+00 -0.15502666673E+01  0.15502666673E+01  0.00000000000E+00 0. -1.
          5    1    1    2  501    0 -0.81617226967E-01  0.21875669798E+01  0.26751375340E+02  0.27249187020E+02  0.47000000000E+01 0. -1.
         -5    1    1    2    0  503  0.81617226967E-01 -0.21875669798E+01  0.38628699721E+01  0.64655916268E+01  0.47000000000E+01 0. -1.
<mgrwt>
<rscale>  2 0.51847961E+01</rscale>
<asrwt>0</asrwt>
<pdfrwt beam="1">  1       21 0.49483860E-02 0.51847961E+01</pdfrwt>
<pdfrwt beam="2">  1       21 0.23850259E-03 0.51847961E+01</pdfrwt>
<totfact> 0.20161413E+09</totfact>
</mgrwt>
</event>
<event>
 4    1  0.3992289E+006  0.6658812E+01  0.7546771E-02  0.2336829E+00
         21   -1    0    0  503  502  0.00000000000E+00  0.00000000000E+00  0.36741906659E+01  0.36741906659E+01  0.00000000000E+00 0. -1.
         21   -1    0    0  501  503 -0.00000000000E+00 -0.00000000000E+00 -0.28807258366E+02  0.28807258366E+02  0.00000000000E+00 0. -1.
          5    1    1    2  501    0 -0.42856762896E+01 -0.19704721433E+01 -0.24946623289E+02  0.25820027018E+02  0.47000000000E+01 0. -1.
         -5    1    1    2    0  502  0.42856762896E+01  0.19704721433E+01 -0.18644441177E+00  0.66614220138E+01  0.47000000000E+01 0. -1.
<mgrwt>
<rscale>  2 0.66588123E+01</rscale>
<asrwt>0</asrwt>
<pdfrwt beam="1">  1       21 0.56526010E-03 0.66588123E+01</pdfrwt>
<pdfrwt beam="2">  1       21 0.44318860E-02 0.66588123E+01</pdfrwt>
<totfact> 0.89255754E+08</totfact>
</mgrwt>
</event>
<event>
 4    1  0.3992289E+006  0.4752653E+01  0.7546771E-02  0.2612997E+00
         21   -1    0    0  503  502  0.00000000000E+00  0.00000000000E+00  0.19814395983E+03  0.19814395983E+03  0.00000000000E+00 0. -1.
         21   -1    0    0  501  503 -0.00000000000E+00 -0.00000000000E+00 -0.38382448946E+00  0.38382448946E+00  0.00000000000E+00 0. -1.
          5    1    1    2  501    0  0.52917578769E-01  0.70350051880E+00  0.15652255734E+02  0.16357897873E+02  0.47000000000E+01 0. -1.
         -5    1    1    2    0  502 -0.52917578769E-01 -0.70350051880E+00  0.18210787961E+03  0.18216988645E+03  0.47000000000E+01 0. -1.
<mgrwt>
<rscale>  2 0.47526533E+01</rscale>
<asrwt>0</asrwt>
<pdfrwt beam="1">  1       21 0.30483604E-01 0.47526533E+01</pdfrwt>
<pdfrwt beam="2">  1       21 0.59050080E-04 0.47526533E+01</pdfrwt>
<totfact> 0.72632318E+08</totfact>
</mgrwt>
</event>
<event>
 4    1  0.3992289E+006  0.1409120E+02  0.7546771E-02  0.1897137E+00
         21   -1    0    0  501  502  0.00000000000E+00  0.00000000000E+00  0.39713832872E+03  0.39713832872E+03  0.00000000000E+00 0.  1.
         21   -1    0    0  502  503 -0.00000000000E+00 -0.00000000000E+00 -0.37651461694E+01  0.37651461694E+01  0.00000000000E+00 0. -1.
          5    1    1    2  501    0 -0.10995835564E+02 -0.74540964703E+01  0.38335525813E+03  0.38361414975E+03  0.47000000000E+01 0.  1.
         -5    1    1    2    0  503  0.10995835564E+02  0.74540964703E+01  0.10017924416E+02  0.17289325133E+02  0.47000000000E+01 0. -1.
<mgrwt>
<rscale>  2 0.14091201E+02</rscale>
<asrwt>0</asrwt>
<pdfrwt beam="1">  1       21 0.61098171E-01 0.14091201E+02</pdfrwt>
<pdfrwt beam="2">  1       21 0.57925357E-03 0.14091201E+02</pdfrwt>
<totfact> 0.15595867E+07</totfact>
</mgrwt>
</event>
<event>
 4    1  0.3992289E+006  0.5492949E+01  0.7546771E-02  0.2486493E+00
         21   -1    0    0  503  502  0.00000000000E+00  0.00000000000E+00  0.60300643173E+01  0.60300643173E+01  0.00000000000E+00 0.  1.
         21   -1    0    0  501  503 -0.00000000000E+00 -0.00000000000E+00 -0.89280378880E+01  0.89280378880E+01  0.00000000000E+00 0.  1.
          5    1    1    2  501    0 -0.18595189985E+01  0.21505060568E+01 -0.64075176545E+01  0.84397138398E+01  0.47000000000E+01 0.  1.
         -5    1    1    2    0  502  0.18595189985E+01 -0.21505060568E+01  0.35095440838E+01  0.65183883654E+01  0.47000000000E+01 0.  1.
<mgrwt>
<rscale>  2 0.54929489E+01</rscale>
<asrwt>0</asrwt>
<pdfrwt beam="1">  1       21 0.92770220E-03 0.54929489E+01</pdfrwt>
<pdfrwt beam="2">  1       21 0.13735443E-02 0.54929489E+01</pdfrwt>
<totfact> 0.20690659E+09</totfact>
</mgrwt>
</event>
<event>
 4    1  0.3992289E+006  0.5240088E+01  0.7546771E-02  0.2526247E+00
         21   -1    0    0  503  502  0.00000000000E+00  0.00000000000E+00  0.31310666620E+02  0.31310666620E+02  0.00000000000E+00 0. -1.
         21   -1    0    0  501  503 -0.00000000000E+00 -0.00000000000E+00 -0.94167273979E+00  0.94167273979E+00  0.00000000000E+00 0.  1.
          5    1    1    2  501    0 -0.17904975812E+01 -0.14705912908E+01  0.10957401801E+02  0.12145911845E+02  0.47000000000E+01 0.  1.
         -5    1    1    2    0  502  0.17904975812E+01  0.14705912908E+01  0.19411592079E+02  0.20106427514E+02  0.47000000000E+01 0. -1.
<mgrwt>
<rscale>  2 0.52400878E+01</rscale>
<asrwt>0</asrwt>
<pdfrwt beam="1">  1       21 0.48170248E-02 0.52400878E+01</pdfrwt>
<pdfrwt beam="2">  1       21 0.14487275E-03 0.52400878E+01</pdfrwt>
<totfact> 0.41477340E+09</totfact>
</mgrwt>
</event>
<event>
 4    1  0.3992289E+006  0.5041551E+01  0.7546771E-02  0.2559835E+00
         21   -1    0    0  503  502  0.00000000000E+00  0.00000000000E+00  0.66861705903E+01  0.66861705903E+01  0.00000000000E+00 0.  1.
         21   -1    0    0  501  503 -0.00000000000E+00 -0.00000000000E+00 -0.46786682108E+01  0.46786682108E+01  0.00000000000E+00 0.  1.
          5    1    1    2  501    0 -0.13759427032E+01 -0.11975070084E+01  0.34642453880E+01  0.61170448312E+01  0.47000000000E+01 0.  1.
         -5    1    1    2    0  502  0.13759427032E+01  0.11975070084E+01 -0.14567430086E+01  0.52477939699E+01  0.47000000000E+01 0.  1.
<mgrwt>
<rscale>  2 0.50415515E+01</rscale>
<asrwt>0</asrwt>
<pdfrwt beam="1">  1       21 0.10286416E-02 0.50415515E+01</pdfrwt>
<pdfrwt beam="2">  1       21 0.71979511E-03 0.50415515E+01</pdfrwt>
<totfact> 0.40617239E+09</totfact>
</mgrwt>
</event>
<event>
 4    1  0.3992289E+006  0.1130194E+02  0.7546771E-02  0.2007679E+00
         21   -1    0    0  501  502  0.00000000000E+00  0.00000000000E+00  0.30424858704E+01  0.30424858704E+01  0.00000000000E+00 0.  1.
         21   -1    0    0  502  503 -0.00000000000E+00 -0.00000000000E+00 -0.42527623553E+02  0.42527623553E+02  0.00000000000E+00 0. -1.
          5    1    1    2  501    0 -0.10195055374E+02  0.13056054293E+01 -0.22320205878E+02  0.25018500156E+02  0.47000000000E+01 0.  1.
         -5    1    1    2    0  503  0.10195055374E+02 -0.13056054293E+01 -0.17164931804E+02  0.20551609267E+02  0.47000000000E+01 0. -1.
<mgrwt>
<rscale>  2 0.11301936E+02</rscale>
<asrwt>0</asrwt>
<pdfrwt beam="1">  1       21 0.46807474E-03 0.11301936E+02</pdfrwt>
<pdfrwt beam="2">  1       21 0.65427115E-02 0.11301936E+02</pdfrwt>
<totfact> 0.89919552E+08</totfact>
</mgrwt>
</event>
<event>
 4    1  0.3992289E+006  0.6546728E+01  0.7546771E-02  0.2349270E+00
         21   -1    0    0  501  502  0.00000000000E+00  0.00000000000E+00  0.78166321333E+02  0.78166321333E+02  0.00000000000E+00 0.  1.
         21   -1    0    0  502  503 -0.00000000000E+00 -0.00000000000E+00 -0.71841933450E+00  0.71841933450E+00  0.00000000000E+00 0.  1.
          5    1    1    2  501    0 -0.31592442163E+01 -0.32846348123E+01  0.57916541409E+02  0.58285379116E+02  0.47000000000E+01 0.  1.
         -5    1    1    2    0  503  0.31592442163E+01  0.32846348123E+01  0.19531360589E+02  0.20599361551E+02  0.47000000000E+01 0.  1.
<mgrwt>
<rscale>  2 0.65467282E+01</rscale>
<asrwt>0</asrwt>
<pdfrwt beam="1">  1       21 0.12025581E-01 0.65467282E+01</pdfrwt>
<pdfrwt beam="2">  1       21 0.11052611E-03 0.65467282E+01</pdfrwt>
<totfact> 0.18233548E+09</totfact>
</mgrwt>
</event>
<event>
 4    1  0.3992289E+006  0.7069750E+01  0.7546771E-02  0.2294019E+00
         21   -1    0    0  501  502  0.00000000000E+00  0.00000000000E+00  0.37909618509E+01  0.37909618509E+01  0.00000000000E+00 0. -1.
         21   -1    0    0  502  503 -0.00000000000E+00 -0.00000000000E+00 -0.53393220109E+02  0.53393220109E+02  0.00000000000E+00 0. -1.
          5    1    1    2  501    0 -0.50420046457E+00  0.52571044833E+01 -0.49613244856E+02  0.50114423381E+02  0.47000000000E+01 0. -1.
         -5    1    1    2    0  503  0.50420046457E+00 -0.52571044833E+01  0.10986598034E-01  0.70697585788E+01  0.47000000000E+01 0. -1.
<mgrwt>
<rscale>  2 0.70697500E+01</rscale>
<asrwt>0</asrwt>
<pdfrwt beam="1">  1       21 0.58322496E-03 0.70697500E+01</pdfrwt>
<pdfrwt beam="2">  1       21 0.82143407E-02 0.70697500E+01</pdfrwt>
<totfact> 0.35078710E+08</totfact>
</mgrwt>
</event>
<event>
 4    1  0.3992289E+006  0.8197957E+01  0.7546771E-02  0.2194864E+00
         21   -1    0    0  501  502  0.00000000000E+00  0.00000000000E+00  0.64801360029E+00  0.64801360029E+00  0.00000000000E+00 0. -1.
         21   -1    0    0  502  503 -0.00000000000E+00 -0.00000000000E+00 -0.10531954764E+03  0.10531954764E+03  0.00000000000E+00 0.  1.
          5    1    1    2  501    0 -0.66462460561E+01  0.97155409618E+00 -0.45788964219E+02  0.46517047931E+02  0.47000000000E+01 0.  1.
         -5    1    1    2    0  503  0.66462460561E+01 -0.97155409618E+00 -0.58882569818E+02  0.59450513306E+02  0.47000000000E+01 0. -1.
<mgrwt>
<rscale>  2 0.81979573E+01</rscale>
<asrwt>0</asrwt>
<pdfrwt beam="1">  1       21 0.99694479E-04 0.81979573E+01</pdfrwt>
<pdfrwt beam="2">  1       21 0.16202995E-01 0.81979573E+01</pdfrwt>
<totfact> 0.15309802E+09</totfact>
</mgrwt>
</event>
<event>
 4    1  0.3992289E+006  0.9743792E+01  0.7546771E-02  0.2089869E+00
         21   -1    0    0  501  502  0.00000000000E+00  0.00000000000E+00  0.42642941283E+02  0.42642941283E+02  0.00000000000E+00 0. -1.
         21   -1    0    0  502  503 -0.00000000000E+00 -0.00000000000E+00 -0.25849673003E+01  0.25849673003E+01  0.00000000000E+00 0.  1.
          5    1    1    2  501    0  0.38144371160E+01  0.76355454175E+01  0.28451015655E+02  0.30073273452E+02  0.47000000000E+01 0. -1.
         -5    1    1    2    0  503 -0.38144371160E+01 -0.76355454175E+01  0.11606958328E+02  0.15154635131E+02  0.47000000000E+01 0.  1.
<mgrwt>
<rscale>  2 0.97437921E+01</rscale>
<asrwt>0</asrwt>
<pdfrwt beam="1">  1       21 0.65604520E-02 0.97437921E+01</pdfrwt>
<pdfrwt beam="2">  1       21 0.39768731E-03 0.97437921E+01</pdfrwt>
<totfact> 0.10397924E+09</totfact>
</mgrwt>
</event>
<event>
 4    1  0.3992289E+006  0.7771999E+01  0.7546771E-02  0.2229553E+00
         21   -1    0    0  501  502  0.00000000000E+00  0.00000000000E+00  0.36567684359E+01  0.36567684359E+01  0.00000000000E+00 0. -1.
         21   -1    0    0  502  503 -0.00000000000E+00 -0.00000000000E+00 -0.23354638578E+02  0.23354638578E+02  0.00000000000E+00 0.  1.
          5    1    1    2  501    0 -0.61670408271E+01 -0.53064107582E+00 -0.25419341004E+01  0.81771267255E+01  0.47000000000E+01 0. -1.
         -5    1    1    2    0  503  0.61670408271E+01  0.53064107582E+00 -0.17155936042E+02  0.18834280289E+02  0.47000000000E+01 0.  1.
<mgrwt>
<rscale>  2 0.77719993E+01</rscale>
<asrwt>0</asrwt>
<pdfrwt beam="1">  1       21 0.56257976E-03 0.77719993E+01</pdfrwt>
<pdfrwt beam="2">  1       21 0.35930213E-02 0.77719993E+01</pdfrwt>
<totfact> 0.13725274E+09</totfact>
</mgrwt>
</event>
<event>
 4    1  0.3992289E+006  0.5206138E+01  0.7546771E-02  0.2531835E+00
         21   -1    0    0  503  502  0.00000000000E+00  0.00000000000E+00  0.23014790397E+02  0.23014790397E+02  0.00000000000E+00 0.  1.
         21   -1    0    0  501  503 -0.00000000000E+00 -0.00000000000E+00 -0.25283484874E+01  0.25283484874E+01  0.00000000000E+00 0.  1.
          5    1    1    2  501    0  0.15054915697E+01 -0.16575172146E+01  0.90849624894E+00  0.52848115971E+01  0.47000000000E+01 0.  1.
         -5    1    1    2    0  502 -0.15054915697E+01  0.16575172146E+01  0.19577945661E+02  0.20258327287E+02  0.47000000000E+01 0.  1.
<mgrwt>
<rscale>  2 0.52061375E+01</rscale>
<asrwt>0</asrwt>
<pdfrwt beam="1">  1       21 0.35407368E-02 0.52061375E+01</pdfrwt>
<pdfrwt beam="2">  1       21 0.38897671E-03 0.52061375E+01</pdfrwt>
<totfact> 0.16929545E+09</totfact>
</mgrwt>
</event>
<event>
 4    1  0.3992289E+006  0.5309439E+01  0.7546771E-02  0.2515023E+00
         21   -1    0    0  501  502  0.00000000000E+00  0.00000000000E+00  0.37685723195E+03  0.37685723195E+03  0.00000000000E+00 0. -1.
         21   -1    0    0  502  503 -0.00000000000E+00 -0.00000000000E+00 -0.19357973128E+00  0.19357973128E+00  0.00000000000E+00 0.  1.
          5    1    1    2  501    0  0.24670587729E+01  0.11732042716E+00  0.33600621544E+03  0.33604816166E+03  0.47000000000E+01 0. -1.
         -5    1    1    2    0  503 -0.24670587729E+01 -0.11732042716E+00  0.40657436783E+02  0.41002650022E+02  0.47000000000E+01 0.  1.
<mgrwt>
<rscale>  2 0.53094391E+01</rscale>
<asrwt>0</asrwt>
<pdfrwt beam="1">  1       21 0.57977449E-01 0.53094391E+01</pdfrwt>
<pdfrwt beam="2">  1       21 0.29781799E-04 0.53094391E+01</pdfrwt>
<totfact> 0.64711643E+08</totfact>
</mgrwt>
</event>
<event>
 4    1  0.3992289E+006  0.7315039E+01  0.7546771E-02  0.2270358E+00
         21   -1    0    0  501  502  0.00000000000E+00  0.00000000000E+00  0.13928514377E+03  0.13928514377E+03  0.00000000000E+00 0. -1.
         21   -1    0    0  502  503 -0.00000000000E+00 -0.00000000000E+00 -0.39873750189E+00  0.39873750189E+00  0.00000000000E+00 0.  1.
          5    1    1    2  501    0  0.39992085170E+01 -0.39276116433E+01  0.82790645276E+02  0.83113180346E+02  0.47000000000E+01 0.  1.
         -5    1    1    2    0  503 -0.39992085170E+01  0.39276116433E+01  0.56095760993E+02  0.56570700927E+02  0.47000000000E+01 0. -1.
<mgrwt>
<rscale>  2 0.73150394E+01</rscale>
<asrwt>0</asrwt>
<pdfrwt beam="1">  1       21 0.21428445E-01 0.73150394E+01</pdfrwt>
<pdfrwt beam="2">  1       21 0.61344342E-04 0.73150394E+01</pdfrwt>
<totfact> 0.17355521E+09</totfact>
</mgrwt>
</event>
<event>
 4    1  0.3992289E+006  0.5436813E+01  0.7546771E-02  0.2495046E+00
         21   -1    0    0  503  502  0.00000000000E+00  0.00000000000E+00  0.17885026172E+00  0.17885026172E+00  0.00000000000E+00 0.  1.
         21   -1    0    0  501  503 -0.00000000000E+00 -0.00000000000E+00 -0.19492890377E+03  0.19492890377E+03  0.00000000000E+00 0.  1.
          5    1    1    2  501    0  0.24678166524E+01  0.11742319075E+01 -0.13542631395E+03  0.13553540294E+03  0.47000000000E+01 0.  1.
         -5    1    1    2    0  502 -0.24678166524E+01 -0.11742319075E+01 -0.59323739557E+02  0.59572351092E+02  0.47000000000E+01 0.  1.
<mgrwt>
<rscale>  2 0.54368134E+01</rscale>
<asrwt>0</asrwt>
<pdfrwt beam="1">  1       21 0.27515449E-04 0.54368134E+01</pdfrwt>
<pdfrwt beam="2">  1       21 0.29989036E-01 0.54368134E+01</pdfrwt>
<totfact> 0.23119345E+09</totfact>
</mgrwt>
</event>
<event>
 4    1  0.3992289E+006  0.4930138E+01  0.7546771E-02  0.2579698E+00
         21   -1    0    0  501  502  0.00000000000E+00  0.00000000000E+00  0.13342420548E+00  0.13342420548E+00  0.00000000000E+00 0.  1.
         21   -1    0    0  502  503 -0.00000000000E+00 -0.00000000000E+00 -0.21809710131E+03  0.21809710131E+03  0.00000000000E+00 0.  1.
          5    1    1    2  501    0 -0.12007701095E+01 -0.88000891935E+00 -0.64697051085E+02  0.64884625942E+02  0.47000000000E+01 0.  1.
         -5    1    1    2    0  503  0.12007701095E+01  0.88000891935E+00 -0.15326662602E+03  0.15334589957E+03  0.47000000000E+01 0.  1.
<mgrwt>
<rscale>  2 0.49301384E+01</rscale>
<asrwt>0</asrwt>
<pdfrwt beam="1">  1       21 0.20526865E-04 0.49301384E+01</pdfrwt>
<pdfrwt beam="2">  1       21 0.33553296E-01 0.49301384E+01</pdfrwt>
<totfact> 0.25886403E+09</totfact>
</mgrwt>
</event>
<event>
 4    1  0.3992289E+006  0.5114935E+01  0.7546771E-02  0.2547160E+00
         21   -1    0    0  501  502  0.00000000000E+00  0.00000000000E+00  0.59131443352E+01  0.59131443352E+01  0.00000000000E+00 0. -1.
         21   -1    0    0  502  503 -0.00000000000E+00 -0.00000000000E+00 -0.52993301632E+01  0.52993301632E+01  0.00000000000E+00 0.  1.
          5    1    1    2  501    0 -0.14890541210E+01  0.13620857103E+01  0.25847776765E+01  0.57309366856E+01  0.47000000000E+01 0. -1.
         -5    1    1    2    0  503  0.14890541210E+01 -0.13620857103E+01 -0.19709635045E+01  0.54815378128E+01  0.47000000000E+01 0.  1.
<mgrwt>
<rscale>  2 0.51149350E+01</rscale>
<asrwt>0</asrwt>
<pdfrwt beam="1">  1       21 0.90971451E-03 0.51149350E+01</pdfrwt>
<pdfrwt beam="2">  1       21 0.81528157E-03 0.51149350E+01</pdfrwt>
<totfact> 0.41173164E+09</totfact>
</mgrwt>
</event>
<event>
 4    1  0.3992289E+006  0.1140295E+02  0.7546771E-02  0.2002961E+00
         21   -1    0    0  501  502  0.00000000000E+00  0.00000000000E+00  0.30049093559E+00  0.30049093559E+00  0.00000000000E+00 0.  1.
         21   -1    0    0  502  503 -0.00000000000E+00 -0.00000000000E+00 -0.23972043219E+04  0.23972043219E+04  0.00000000000E+00 0. -1.
          5    1    1    2  501    0 -0.78335446840E+01  0.68244336554E+01 -0.11327221351E+03  0.11384472614E+03  0.47000000000E+01 0.  1.
         -5    1    1    2    0  503  0.78335446840E+01 -0.68244336554E+01 -0.22836316174E+04  0.22836600867E+04  0.47000000000E+01 0. -1.
<mgrwt>
<rscale>  2 0.11402952E+02</rscale>
<asrwt>0</asrwt>
<pdfrwt beam="1">  1       21 0.46228252E-04 0.11402952E+02</pdfrwt>
<pdfrwt beam="2">  1       21 0.36880962E+00 0.11402952E+02</pdfrwt>
<totfact> 0.67111017E+06</totfact>
</mgrwt>
</event>
<event>
 4    1  0.3992289E+006  0.5361600E+01  0.7546771E-02  0.2506745E+00
         21   -1    0    0  501  502  0.00000000000E+00  0.00000000000E+00  0.13445182141E+00  0.13445182141E+00  0.00000000000E+00 0. -1.
         21   -1    0    0  502  503 -0.00000000000E+00 -0.00000000000E+00 -0.30503401793E+03  0.30503401793E+03  0.00000000000E+00 0. -1.
          5    1    1    2  501    0  0.20648867765E+01  0.15469309436E+01 -0.69005411039E+02  0.69213391084E+02  0.47000000000E+01 0. -1.
         -5    1    1    2    0  503 -0.20648867765E+01 -0.15469309436E+01 -0.23589415507E+03  0.23595507867E+03  0.47000000000E+01 0. -1.
<mgrwt>
<rscale>  2 0.53615998E+01</rscale>
<asrwt>0</asrwt>
<pdfrwt beam="1">  1       21 0.20684991E-04 0.53615998E+01</pdfrwt>
<pdfrwt beam="2">  1       21 0.46928095E-01 0.53615998E+01</pdfrwt>
<totfact> 0.15470481E+09</totfact>
</mgrwt>
</event>
<event>
 4    1  0.3992289E+006  0.5021829E+01  0.7546771E-02  0.2563296E+00
         21   -1    0    0  503  502  0.00000000000E+00  0.00000000000E+00  0.16677836853E+00  0.16677836853E+00  0.00000000000E+00 0. -1.
         21   -1    0    0  501  503 -0.00000000000E+00 -0.00000000000E+00 -0.23766600952E+03  0.23766600952E+03  0.00000000000E+00 0. -1.
          5    1    1    2  501    0 -0.17678548986E+01 -0.58792420214E-01 -0.19047165308E+03  0.19053784242E+03  0.47000000000E+01 0. -1.
         -5    1    1    2    0  502  0.17678548986E+01  0.58792420214E-01 -0.47027578071E+02  0.47294945467E+02  0.47000000000E+01 0. -1.
<mgrwt>
<rscale>  2 0.50218291E+01</rscale>
<asrwt>0</asrwt>
<pdfrwt beam="1">  1       21 0.25658187E-04 0.50218291E+01</pdfrwt>
<pdfrwt beam="2">  1       21 0.36564035E-01 0.50218291E+01</pdfrwt>
<totfact> 0.16944285E+09</totfact>
</mgrwt>
</event>
<event>
 4    1  0.3992289E+006  0.9391943E+01  0.7546771E-02  0.2111339E+00
         21   -1    0    0  503  502  0.00000000000E+00  0.00000000000E+00  0.78135333983E+00  0.78135333983E+00  0.00000000000E+00 0.  1.
         21   -1    0    0  501  503 -0.00000000000E+00 -0.00000000000E+00 -0.18651085480E+03  0.18651085480E+03  0.00000000000E+00 0. -1.
          5    1    1    2  501    0  0.12615936373E+01 -0.80328687036E+01 -0.15169923786E+03  0.15198969493E+03  0.47000000000E+01 0. -1.
         -5    1    1    2    0  502 -0.12615936373E+01  0.80328687036E+01 -0.34030263600E+02  0.35302513208E+02  0.47000000000E+01 0.  1.
<mgrwt>
<rscale>  2 0.93919433E+01</rscale>
<asrwt>0</asrwt>
<pdfrwt beam="1">  1       21 0.12020801E-03 0.93919433E+01</pdfrwt>
<pdfrwt beam="2">  1       21 0.28694024E-01 0.93919433E+01</pdfrwt>
<totfact> 0.49353766E+08</totfact>
</mgrwt>
</event>
<event>
 4    1  0.3992289E+006  0.9093462E+01  0.7546771E-02  0.2130576E+00
         21   -1    0    0  501  502  0.00000000000E+00  0.00000000000E+00  0.51187109263E+02  0.51187109263E+02  0.00000000000E+00 0.  1.
         21   -1    0    0  502  503 -0.00000000000E+00 -0.00000000000E+00 -0.24013879054E+01  0.24013879054E+01  0.00000000000E+00 0. -1.
          5    1    1    2  501    0 -0.77833400388E+01 -0.14375135311E+00  0.90643466724E+01  0.12839525973E+02  0.47000000000E+01 0. -1.
         -5    1    1    2    0  503  0.77833400388E+01  0.14375135311E+00  0.39721374685E+02  0.40748971196E+02  0.47000000000E+01 0.  1.
<mgrwt>
<rscale>  2 0.90934618E+01</rscale>
<asrwt>0</asrwt>
<pdfrwt beam="1">  1       21 0.78749391E-02 0.90934618E+01</pdfrwt>
<pdfrwt beam="2">  1       21 0.36944433E-03 0.90934618E+01</pdfrwt>
<totfact> 0.83403906E+08</totfact>
</mgrwt>
</event>
<event>
 4    1  0.3992289E+006  0.5317370E+01  0.7546771E-02  0.2513755E+00
         21   -1    0    0  501  502  0.00000000000E+00  0.00000000000E+00  0.31225083421E+01  0.31225083421E+01  0.00000000000E+00 0. -1.
         21   -1    0    0  502  503 -0.00000000000E+00 -0.00000000000E+00 -0.10581811868E+02  0.10581811868E+02  0.00000000000E+00 0. -1.
          5    1    1    2  501    0  0.22938172377E+01  0.96063897695E+00 -0.11268855613E+01  0.54354664779E+01  0.47000000000E+01 0.  1.
         -5    1    1    2    0  503 -0.22938172377E+01 -0.96063897695E+00 -0.63324179642E+01  0.82688537318E+01  0.47000000000E+01 0.  1.
<mgrwt>
<rscale>  2 0.53173701E+01</rscale>
<asrwt>0</asrwt>
<pdfrwt beam="1">  1       21 0.48038590E-03 0.53173701E+01</pdfrwt>
<pdfrwt beam="2">  1       21 0.16279710E-02 0.53173701E+01</pdfrwt>
<totfact> 0.39329729E+09</totfact>
</mgrwt>
</event>
<event>
 4    1  0.3992289E+006  0.6236340E+01  0.7546771E-02  0.2385643E+00
         21   -1    0    0  501  502  0.00000000000E+00  0.00000000000E+00  0.10064894112E+02  0.10064894112E+02  0.00000000000E+00 0.  1.
         21   -1    0    0  502  503 -0.00000000000E+00 -0.00000000000E+00 -0.68262277565E+01  0.68262277565E+01  0.00000000000E+00 0.  1.
          5    1    1    2  501    0 -0.20920984767E+01 -0.35249190901E+01  0.71827134119E+01  0.95122711582E+01  0.47000000000E+01 0.  1.
         -5    1    1    2    0  503  0.20920984767E+01  0.35249190901E+01 -0.39440470561E+01  0.73788507106E+01  0.47000000000E+01 0.  1.
<mgrwt>
<rscale>  2 0.62363395E+01</rscale>
<asrwt>0</asrwt>
<pdfrwt beam="1">  1       21 0.15484452E-02 0.62363395E+01</pdfrwt>
<pdfrwt beam="2">  1       21 0.10501889E-02 0.62363395E+01</pdfrwt>
<totfact> 0.16363962E+09</totfact>
</mgrwt>
</event>
<event>
 4    1  0.3992289E+006  0.9385912E+01  0.7546771E-02  0.2111719E+00
         21   -1    0    0  503  502  0.00000000000E+00  0.00000000000E+00  0.11034777800E+03  0.11034777800E+03  0.00000000000E+00 0.  1.
         21   -1    0    0  501  503 -0.00000000000E+00 -0.00000000000E+00 -0.23191368125E+01  0.23191368125E+01  0.00000000000E+00 0.  1.
          5    1    1    2  501    0  0.49389285615E-01 -0.81242168629E+01  0.83960897914E+01  0.12593238770E+02  0.47000000000E+01 0.  1.
         -5    1    1    2    0  502 -0.49389285615E-01  0.81242168629E+01  0.99632551401E+02  0.10007367605E+03  0.47000000000E+01 0.  1.
<mgrwt>
<rscale>  2 0.93859117E+01</rscale>
<asrwt>0</asrwt>
<pdfrwt beam="1">  1       21 0.16976577E-01 0.93859117E+01</pdfrwt>
<pdfrwt beam="2">  1       21 0.35679036E-03 0.93859117E+01</pdfrwt>
<totfact> 0.26159523E+08</totfact>
</mgrwt>
</event>
<event>
 4    1  0.3992289E+006  0.7277602E+01  0.7546771E-02  0.2273885E+00
         21   -1    0    0  503  502  0.00000000000E+00  0.00000000000E+00  0.38546354756E+02  0.38546354756E+02  0.00000000000E+00 0.  1.
         21   -1    0    0  501  503 -0.00000000000E+00 -0.00000000000E+00 -0.14762509833E+01  0.14762509833E+01  0.00000000000E+00 0. -1.
          5    1    1    2  501    0  0.34313760659E+01 -0.43702571209E+01  0.13269000827E+02  0.15133732916E+02  0.47000000000E+01 0. -1.
         -5    1    1    2    0  502 -0.34313760659E+01  0.43702571209E+01  0.23801102945E+02  0.24888872823E+02  0.47000000000E+01 0.  1.
<mgrwt>
<rscale>  2 0.72776019E+01</rscale>
<asrwt>0</asrwt>
<pdfrwt beam="1">  1       21 0.59302077E-02 0.72776019E+01</pdfrwt>
<pdfrwt beam="2">  1       21 0.22711556E-03 0.72776019E+01</pdfrwt>
<totfact> 0.21892145E+09</totfact>
</mgrwt>
</event>
<event>
 4    1  0.3992289E+006  0.5533454E+01  0.7546771E-02  0.2480413E+00
         21   -1    0    0  501  502  0.00000000000E+00  0.00000000000E+00  0.28342166463E+03  0.28342166463E+03  0.00000000000E+00 0.  1.
         21   -1    0    0  502  503 -0.00000000000E+00 -0.00000000000E+00 -0.81852985441E+00  0.81852985441E+00  0.00000000000E+00 0. -1.
          5    1    1    2  501    0  0.23908136951E+01  0.16772362454E+01  0.27371104667E+03  0.27376697423E+03  0.47000000000E+01 0.  1.
         -5    1    1    2    0  503 -0.23908136951E+01 -0.16772362454E+01  0.88920881032E+01  0.10473220249E+02  0.47000000000E+01 0. -1.
<mgrwt>
<rscale>  2 0.55334539E+01</rscale>
<asrwt>0</asrwt>
<pdfrwt beam="1">  1       21 0.43603255E-01 0.55334539E+01</pdfrwt>
<pdfrwt beam="2">  1       21 0.12592790E-03 0.55334539E+01</pdfrwt>
<totfact> 0.16271401E+08</totfact>
</mgrwt>
</event>
<event>
 4    1  0.3992289E+006  0.6775555E+01  0.7546771E-02  0.2324234E+00
         21   -1    0    0  501  502  0.00000000000E+00  0.00000000000E+00  0.78197450162E+00  0.78197450162E+00  0.00000000000E+00 0. -1.
         21   -1    0    0  502  503 -0.00000000000E+00 -0.00000000000E+00 -0.73759400387E+02  0.73759400387E+02  0.00000000000E+00 0.  1.
          5    1    1    2  501    0 -0.33860977044E+01  0.35146105627E+01 -0.53325042827E+02  0.53753775100E+02  0.47000000000E+01 0.  1.
         -5    1    1    2    0  503  0.33860977044E+01 -0.35146105627E+01 -0.19652383059E+02  0.20787599788E+02  0.47000000000E+01 0. -1.
<mgrwt>
<rscale>  2 0.67755550E+01</rscale>
<asrwt>0</asrwt>
<pdfrwt beam="1">  1       21 0.12030374E-03 0.67755550E+01</pdfrwt>
<pdfrwt beam="2">  1       21 0.11347603E-01 0.67755550E+01</pdfrwt>
<totfact> 0.18267882E+09</totfact>
</mgrwt>
</event>
<event>
 4    1  0.3992289E+006  0.4851638E+01  0.7546771E-02  0.2594166E+00
         21   -1    0    0  501  502  0.00000000000E+00  0.00000000000E+00  0.86789658337E+02  0.86789658337E+02  0.00000000000E+00 0.  1.
         21   -1    0    0  502  503 -0.00000000000E+00 -0.00000000000E+00 -0.12089508933E+01  0.12089508933E+01  0.00000000000E+00 0.  1.
          5    1    1    2  501    0  0.23592106586E+00  0.11801391166E+01  0.81541314345E+02  0.81685520945E+02  0.47000000000E+01 0.  1.
         -5    1    1    2    0  503 -0.23592106586E+00 -0.11801391166E+01  0.40393930992E+01  0.63130882850E+01  0.47000000000E+01 0.  1.
<mgrwt>
<rscale>  2 0.48516376E+01</rscale>
<asrwt>0</asrwt>
<pdfrwt beam="1">  1       21 0.13352250E-01 0.48516376E+01</pdfrwt>
<pdfrwt beam="2">  1       21 0.18599251E-03 0.48516376E+01</pdfrwt>
<totfact> 0.59912199E+08</totfact>
</mgrwt>
</event>
<event>
 4    1  0.3992289E+006  0.4803581E+01  0.7546771E-02  0.2603224E+00
         21   -1    0    0  503  502  0.00000000000E+00  0.00000000000E+00  0.89949339522E+01  0.89949339522E+01  0.00000000000E+00 0.  1.
         21   -1    0    0  501  503 -0.00000000000E+00 -0.00000000000E+00 -0.86997321520E+01  0.86997321520E+01  0.00000000000E+00 0.  1.
          5    1    1    2  501    0  0.95923026690E+00 -0.25350713745E+00 -0.72816985002E+01  0.87233893425E+01  0.47000000000E+01 0.  1.
         -5    1    1    2    0  502 -0.95923026690E+00  0.25350713745E+00  0.75769003004E+01  0.89712767617E+01  0.47000000000E+01 0.  1.
<mgrwt>
<rscale>  2 0.48035808E+01</rscale>
<asrwt>0</asrwt>
<pdfrwt beam="1">  1       21 0.13838360E-02 0.48035808E+01</pdfrwt>
<pdfrwt beam="2">  1       21 0.13384203E-02 0.48035808E+01</pdfrwt>
<totfact> 0.10767119E+09</totfact>
</mgrwt>
</event>
<event>
 4    1  0.3992289E+006  0.4825997E+01  0.7546771E-02  0.2598979E+00
         21   -1    0    0  501  502  0.00000000000E+00  0.00000000000E+00  0.63283786570E-01  0.63283786570E-01  0.00000000000E+00 0. -1.
         21   -1    0    0  502  503 -0.00000000000E+00 -0.00000000000E+00 -0.80375718411E+03  0.80375718411E+03  0.00000000000E+00 0. -1.
          5    1    1    2  501    0  0.49000415866E+00  0.97987034487E+00 -0.10592675513E+03  0.10603663377E+03  0.47000000000E+01 0. -1.
         -5    1    1    2    0  503 -0.49000415866E+00 -0.97987034487E+00 -0.69776714520E+03  0.69778383413E+03  0.47000000000E+01 0. -1.
<mgrwt>
<rscale>  2 0.48259973E+01</rscale>
<asrwt>0</asrwt>
<pdfrwt beam="1">  1       21 0.97363628E-05 0.48259973E+01</pdfrwt>
<pdfrwt beam="2">  1       21 0.12364993E+00 0.48259973E+01</pdfrwt>
<totfact> 0.60712282E+08</totfact>
</mgrwt>
</event>
<event>
 4    1  0.3992289E+006  0.6057471E+01  0.7546771E-02  0.2408003E+00
         21   -1    0    0  503  502  0.00000000000E+00  0.00000000000E+00  0.81403972256E+00  0.81403972256E+00  0.00000000000E+00 0.  1.
         21   -1    0    0  501  503 -0.00000000000E+00 -0.00000000000E+00 -0.53880784560E+02  0.53880784560E+02  0.00000000000E+00 0. -1.
          5    1    1    2  501    0 -0.35277088591E+01  0.14690916861E+01 -0.15477839483E+02  0.16620964931E+02  0.47000000000E+01 0. -1.
         -5    1    1    2    0  502  0.35277088591E+01 -0.14690916861E+01 -0.37588905354E+02  0.38073859352E+02  0.47000000000E+01 0.  1.
<mgrwt>
<rscale>  2 0.60574714E+01</rscale>
<asrwt>0</asrwt>
<pdfrwt beam="1">  1       21 0.12523683E-03 0.60574714E+01</pdfrwt>
<pdfrwt beam="2">  1       21 0.82893550E-02 0.60574714E+01</pdfrwt>
<totfact> 0.25643749E+09</totfact>
</mgrwt>
</event>
<event>
 4    1  0.3992289E+006  0.8473785E+01  0.7546771E-02  0.2173908E+00
         21   -1    0    0  503  502  0.00000000000E+00  0.00000000000E+00  0.12825509847E+04  0.12825509847E+04  0.00000000000E+00 0.  1.
         21   -1    0    0  501  503 -0.00000000000E+00 -0.00000000000E+00 -0.31549736241E+00  0.31549736241E+00  0.00000000000E+00 0.  1.
          5    1    1    2  501    0  0.67751265783E+01  0.19526097843E+01  0.59374024549E+02  0.59975660198E+02  0.47000000000E+01 0.  1.
         -5    1    1    2    0  502 -0.67751265783E+01 -0.19526097843E+01  0.12228614628E+04  0.12228908219E+04  0.47000000000E+01 0.  1.
<mgrwt>
<rscale>  2 0.84737846E+01</rscale>
<asrwt>0</asrwt>
<pdfrwt beam="1">  1       21 0.19731136E+00 0.84737846E+01</pdfrwt>
<pdfrwt beam="2">  1       21 0.48539083E-04 0.84737846E+01</pdfrwt>
<totfact> 0.34933312E+07</totfact>
</mgrwt>
</event>
<event>
 4    1  0.3992289E+006  0.1460696E+02  0.7546771E-02  0.1880305E+00
         21   -1    0    0  503  502  0.00000000000E+00  0.00000000000E+00  0.25411910046E+01  0.25411910046E+01  0.00000000000E+00 0. -1.
         21   -1    0    0  501  503 -0.00000000000E+00 -0.00000000000E+00 -0.91410023998E+02  0.91410023998E+02  0.00000000000E+00 0.  1.
          5    1    1    2  501    0  0.48103540959E+00  0.13821787619E+02 -0.57843501300E+02  0.59659314870E+02  0.47000000000E+01 0.  1.
         -5    1    1    2    0  502 -0.48103540959E+00 -0.13821787619E+02 -0.31025331694E+02  0.34291900133E+02  0.47000000000E+01 0. -1.
<mgrwt>
<rscale>  2 0.14606958E+02</rscale>
<asrwt>0</asrwt>
<pdfrwt beam="1">  1       21 0.39095252E-03 0.14606958E+02</pdfrwt>
<pdfrwt beam="2">  1       21 0.14063079E-01 0.14606958E+02</pdfrwt>
<totfact> 0.38416449E+08</totfact>
</mgrwt>
</event>
<event>
 4    1  0.3992289E+006  0.5243706E+01  0.7546771E-02  0.2525655E+00
         21   -1    0    0  501  502  0.00000000000E+00  0.00000000000E+00  0.92738041365E-01  0.92738041365E-01  0.00000000000E+00 0. -1.
         21   -1    0    0  502  503 -0.00000000000E+00 -0.00000000000E+00 -0.39654027967E+03  0.39654027967E+03  0.00000000000E+00 0. -1.
          5    1    1    2  501    0  0.54277499938E+00 -0.22609404615E+01 -0.98611833138E+02  0.98751152354E+02  0.47000000000E+01 0. -1.
         -5    1    1    2    0  503 -0.54277499938E+00  0.22609404615E+01 -0.29783570849E+03  0.29788186535E+03  0.47000000000E+01 0. -1.
<mgrwt>
<rscale>  2 0.52437064E+01</rscale>
<asrwt>0</asrwt>
<pdfrwt beam="1">  1       21 0.14267216E-04 0.52437064E+01</pdfrwt>
<pdfrwt beam="2">  1       21 0.61006946E-01 0.52437064E+01</pdfrwt>
<totfact> 0.15490634E+09</totfact>
</mgrwt>
</event>
<event>
 4    1  0.3992289E+006  0.7679432E+01  0.7546771E-02  0.2237500E+00
         21   -1    0    0  503  502  0.00000000000E+00  0.00000000000E+00  0.84440129705E+00  0.84440129705E+00  0.00000000000E+00 0. -1.
         21   -1    0    0  501  503 -0.00000000000E+00 -0.00000000000E+00 -0.11332311024E+03  0.11332311024E+03  0.00000000000E+00 0.  1.
          5    1    1    2  501    0  0.58145219370E+01 -0.17535702654E+01 -0.91599132592E+02  0.91920480665E+02  0.47000000000E+01 0.  1.
         -5    1    1    2    0  502 -0.58145219370E+01  0.17535702654E+01 -0.20879576349E+02  0.22247030870E+02  0.47000000000E+01 0. -1.
<mgrwt>
<rscale>  2 0.76794319E+01</rscale>
<asrwt>0</asrwt>
<pdfrwt beam="1">  1       21 0.12990803E-03 0.76794319E+01</pdfrwt>
<pdfrwt beam="2">  1       21 0.17434306E-01 0.76794319E+01</pdfrwt>
<totfact> 0.90710706E+08</totfact>
</mgrwt>
</event>
<event>
 4    1  0.3992289E+006  0.8702725E+01  0.7546771E-02  0.2157327E+00
         21   -1    0    0  501  502  0.00000000000E+00  0.00000000000E+00  0.27344442265E+00  0.27344442265E+00  0.00000000000E+00 0. -1.
         21   -1    0    0  502  503 -0.00000000000E+00 -0.00000000000E+00 -0.32905981029E+03  0.32905981029E+03  0.00000000000E+00 0. -1.
          5    1    1    2  501    0  0.72989858583E+01  0.61011063238E+00 -0.22990524417E+03  0.23006989965E+03  0.47000000000E+01 0. -1.
         -5    1    1    2    0  503 -0.72989858583E+01 -0.61011063238E+00 -0.98881121700E+02  0.99263355062E+02  0.47000000000E+01 0. -1.
<mgrwt>
<rscale>  2 0.87027254E+01</rscale>
<asrwt>0</asrwt>
<pdfrwt beam="1">  1       21 0.42068636E-04 0.87027254E+01</pdfrwt>
<pdfrwt beam="2">  1       21 0.50624269E-01 0.87027254E+01</pdfrwt>
<totfact> 0.72189370E+08</totfact>
</mgrwt>
</event>
<event>
 4    1  0.3992289E+006  0.5985079E+01  0.7546771E-02  0.2417370E+00
         21   -1    0    0  501  502  0.00000000000E+00  0.00000000000E+00  0.40882176322E+01  0.40882176322E+01  0.00000000000E+00 0. -1.
         21   -1    0    0  502  503 -0.00000000000E+00 -0.00000000000E+00 -0.21246352781E+03  0.21246352781E+03  0.00000000000E+00 0.  1.
          5    1    1    2  501    0  0.36309994977E+01  0.73960009407E+00  0.18320493118E+01  0.62591988570E+01  0.47000000000E+01 0. -1.
         -5    1    1    2    0  503 -0.36309994977E+01 -0.73960009407E+00 -0.21020735949E+03  0.21029254658E+03  0.47000000000E+01 0.  1.
<mgrwt>
<rscale>  2 0.59850786E+01</rscale>
<asrwt>0</asrwt>
<pdfrwt beam="1">  1       21 0.62895650E-03 0.59850786E+01</pdfrwt>
<pdfrwt beam="2">  1       21 0.32686699E-01 0.59850786E+01</pdfrwt>
<totfact> 0.31096096E+07</totfact>
</mgrwt>
</event>
<event>
 4    1  0.3992289E+006  0.6628920E+01  0.7546771E-02  0.2340113E+00
         21   -1    0    0  501  502  0.00000000000E+00  0.00000000000E+00  0.81416672444E+02  0.81416672444E+02  0.00000000000E+00 0. -1.
         21   -1    0    0  502  503 -0.00000000000E+00 -0.00000000000E+00 -0.70352505042E+00  0.70352505042E+00  0.00000000000E+00 0.  1.
          5    1    1    2  501    0  0.12658898934E+01  0.45000112409E+01  0.60169005939E+02  0.60533064140E+02  0.47000000000E+01 0. -1.
         -5    1    1    2    0  503 -0.12658898934E+01 -0.45000112409E+01  0.20544141454E+02  0.21587133355E+02  0.47000000000E+01 0.  1.
<mgrwt>
<rscale>  2 0.66289199E+01</rscale>
<asrwt>0</asrwt>
<pdfrwt beam="1">  1       21 0.12525634E-01 0.66289199E+01</pdfrwt>
<pdfrwt beam="2">  1       21 0.10823469E-03 0.66289199E+01</pdfrwt>
<totfact> 0.17766666E+09</totfact>
</mgrwt>
</event>
<event>
 4    1  0.3992289E+006  0.4749792E+01  0.7546771E-02  0.2613551E+00
         21   -1    0    0  503  502  0.00000000000E+00  0.00000000000E+00  0.67848692702E+03  0.67848692702E+03  0.00000000000E+00 0. -1.
         21   -1    0    0  501  503 -0.00000000000E+00 -0.00000000000E+00 -0.49730183076E-01  0.49730183076E-01  0.00000000000E+00 0. -1.
          5    1    1    2  501    0  0.29638991052E+00 -0.61860519646E+00  0.14392041419E+03  0.14399877131E+03  0.47000000000E+01 0. -1.
         -5    1    1    2    0  502 -0.29638991052E+00  0.61860519646E+00  0.53451678264E+03  0.53453788588E+03  0.47000000000E+01 0. -1.
<mgrwt>
<rscale>  2 0.47497915E+01</rscale>
<asrwt>0</asrwt>
<pdfrwt beam="1">  1       21 0.10437519E+00 0.47497915E+01</pdfrwt>
<pdfrwt beam="2">  1       21 0.76513408E-05 0.47497915E+01</pdfrwt>
<totfact> 0.11650586E+09</totfact>
</mgrwt>
</event>
<event>
 4    1  0.3992289E+006  0.5094703E+01  0.7546771E-02  0.2550623E+00
         21   -1    0    0  501  502  0.00000000000E+00  0.00000000000E+00  0.20332872179E+04  0.20332872179E+04  0.00000000000E+00 0. -1.
         21   -1    0    0  502  503 -0.00000000000E+00 -0.00000000000E+00 -0.24041314378E-01  0.24041314378E-01  0.00000000000E+00 0.  1.
          5    1    1    2  501    0 -0.11185549970E+01  0.16170447289E+01  0.17128861490E+04  0.17128937257E+04  0.47000000000E+01 0. -1.
         -5    1    1    2    0  503  0.11185549970E+01 -0.16170447289E+01  0.32037702757E+03  0.32041753353E+03  0.47000000000E+01 0.  1.
<mgrwt>
<rscale>  2 0.50947030E+01</rscale>
<asrwt>0</asrwt>
<pdfrwt beam="1">  1       21 0.31267575E+00 0.50947030E+01</pdfrwt>
<pdfrwt beam="2">  1       21 0.37002923E-05 0.50947030E+01</pdfrwt>
<totfact> 0.29467932E+08</totfact>
</mgrwt>
</event>
<event>
 4    1  0.3992289E+006  0.1789319E+02  0.7546771E-02  0.1790791E+00
         21   -1    0    0  501  502  0.00000000000E+00  0.00000000000E+00  0.48595635631E+00  0.48595635631E+00  0.00000000000E+00 0. -1.
         21   -1    0    0  502  503 -0.00000000000E+00 -0.00000000000E+00 -0.96031275982E+03  0.96031275982E+03  0.00000000000E+00 0.  1.
          5    1    1    2  501    0 -0.83180742646E+01 -0.15128971773E+02 -0.21074622931E+03  0.21150446642E+03  0.47000000000E+01 0.  1.
         -5    1    1    2    0  503  0.83180742646E+01  0.15128971773E+02 -0.74908057416E+03  0.74929424976E+03  0.47000000000E+01 0. -1.
<mgrwt>
<rscale>  2 0.17893187E+02</rscale>
<asrwt>0</asrwt>
<pdfrwt beam="1">  1       21 0.74763640E-04 0.17893187E+02</pdfrwt>
<pdfrwt beam="2">  1       21 0.14773820E+00 0.17893187E+02</pdfrwt>
<totfact> 0.46878827E+07</totfact>
</mgrwt>
</event>
<event>
 4    1  0.3992289E+006  0.5955154E+01  0.7546771E-02  0.2421297E+00
         21   -1    0    0  501  502  0.00000000000E+00  0.00000000000E+00  0.21881075499E-01  0.21881075499E-01  0.00000000000E+00 0. -1.
         21   -1    0    0  502  503 -0.00000000000E+00 -0.00000000000E+00 -0.16791253870E+04  0.16791253870E+04  0.00000000000E+00 0. -1.
          5    1    1    2  501    0 -0.11673948543E+01  0.34656958069E+01 -0.68301574525E+03  0.68304170599E+03  0.47000000000E+01 0. -1.
         -5    1    1    2    0  503  0.11673948543E+01 -0.34656958069E+01 -0.99608776067E+03  0.99610556209E+03  0.47000000000E+01 0. -1.
<mgrwt>
<rscale>  2 0.59551539E+01</rscale>
<asrwt>0</asrwt>
<pdfrwt beam="1">  1       21 0.33667389E-05 0.59551539E+01</pdfrwt>
<pdfrwt beam="2">  1       21 0.25829479E+00 0.59551539E+01</pdfrwt>
<totfact> 0.58099379E+08</totfact>
</mgrwt>
</event>
<event>
 4    1  0.3992289E+006  0.1224019E+02  0.7546771E-02  0.1966202E+00
         21   -1    0    0  503  502  0.00000000000E+00  0.00000000000E+00  0.94431889204E+00  0.94431889204E+00  0.00000000000E+00 0. -1.
         21   -1    0    0  501  503 -0.00000000000E+00 -0.00000000000E+00 -0.68915833355E+03  0.68915833355E+03  0.00000000000E+00 0.  1.
          5    1    1    2  501    0  0.65599870637E+01  0.92031909675E+01 -0.64684554990E+03  0.64696134937E+03  0.47000000000E+01 0.  1.
         -5    1    1    2    0  502 -0.65599870637E+01 -0.92031909675E+01 -0.41368464760E+02  0.43141303073E+02  0.47000000000E+01 0. -1.
<mgrwt>
<rscale>  2 0.12240186E+02</rscale>
<asrwt>0</asrwt>
<pdfrwt beam="1">  1       21 0.14528050E-03 0.12240186E+02</pdfrwt>
<pdfrwt beam="2">  1       21 0.10602387E+00 0.12240186E+02</pdfrwt>
<totfact> 0.34886934E+07</totfact>
</mgrwt>
</event>
<event>
 4    1  0.3992289E+006  0.5524080E+01  0.7546771E-02  0.2481813E+00
         21   -1    0    0  501  502  0.00000000000E+00  0.00000000000E+00  0.76994318387E+01  0.76994318387E+01  0.00000000000E+00 0.  1.
         21   -1    0    0  502  503 -0.00000000000E+00 -0.00000000000E+00 -0.40134045196E+01  0.40134045196E+01  0.00000000000E+00 0. -1.
          5    1    1    2  501    0 -0.11115001426E+01  0.26814224852E+01  0.24971143733E+01  0.60622635463E+01  0.47000000000E+01 0. -1.
         -5    1    1    2    0  503  0.11115001426E+01 -0.26814224852E+01  0.11889129458E+01  0.56505728120E+01  0.47000000000E+01 0. -1.
<mgrwt>
<rscale>  2 0.55240799E+01</rscale>
<asrwt>0</asrwt>
<pdfrwt beam="1">  1       21 0.11845280E-02 0.55240799E+01</pdfrwt>
<pdfrwt beam="2">  1       21 0.61744685E-03 0.55240799E+01</pdfrwt>
<totfact> 0.45226680E+09</totfact>
</mgrwt>
</event>
<event>
 4    1  0.3992289E+006  0.5529219E+01  0.7546771E-02  0.2481045E+00
         21   -1    0    0  503  502  0.00000000000E+00  0.00000000000E+00  0.28934377364E+02  0.28934377364E+02  0.00000000000E+00 0. -1.
         21   -1    0    0  501  503 -0.00000000000E+00 -0.00000000000E+00 -0.66392808627E+01  0.66392808627E+01  0.00000000000E+00 0. -1.
          5    1    1    2  501    0  0.10607731658E+01  0.27123829841E+01 -0.51626465016E+01  0.75647326498E+01  0.47000000000E+01 0. -1.
         -5    1    1    2    0  502 -0.10607731658E+01 -0.27123829841E+01  0.27457743003E+02  0.28008925577E+02  0.47000000000E+01 0. -1.
<mgrwt>
<rscale>  2 0.55292189E+01</rscale>
<asrwt>0</asrwt>
<pdfrwt beam="1">  1       21 0.44514426E-02 0.55292189E+01</pdfrwt>
<pdfrwt beam="2">  1       21 0.10214278E-02 0.55292189E+01</pdfrwt>
<totfact> 0.33522371E+08</totfact>
</mgrwt>
</event>
<event>
 4    1  0.3992289E+006  0.9471732E+01  0.7546771E-02  0.2106360E+00
         21   -1    0    0  503  502  0.00000000000E+00  0.00000000000E+00  0.21763457529E+01  0.21763457529E+01  0.00000000000E+00 0. -1.
         21   -1    0    0  501  503 -0.00000000000E+00 -0.00000000000E+00 -0.41225803620E+02  0.41225803620E+02  0.00000000000E+00 0.  1.
          5    1    1    2  501    0 -0.22526283538E+01  0.79088163634E+01 -0.19728255949E+02  0.21884190494E+02  0.47000000000E+01 0. -1.
         -5    1    1    2    0  502  0.22526283538E+01 -0.79088163634E+01 -0.19321201918E+02  0.21517958879E+02  0.47000000000E+01 0.  1.
<mgrwt>
<rscale>  2 0.94717322E+01</rscale>
<asrwt>0</asrwt>
<pdfrwt beam="1">  1       21 0.33482243E-03 0.94717322E+01</pdfrwt>
<pdfrwt beam="2">  1       21 0.63424311E-02 0.94717322E+01</pdfrwt>
<totfact> 0.13740664E+09</totfact>
</mgrwt>
</event>
<event>
 4    1  0.3992289E+006  0.9656607E+01  0.7546771E-02  0.2095074E+00
         21   -1    0    0  503  502  0.00000000000E+00  0.00000000000E+00  0.21964280908E+02  0.21964280908E+02  0.00000000000E+00 0.  1.
         21   -1    0    0  501  503 -0.00000000000E+00 -0.00000000000E+00 -0.44110586545E+01  0.44110586545E+01  0.00000000000E+00 0. -1.
          5    1    1    2  501    0  0.20029729213E+00 -0.84332641395E+01  0.11331254502E+02  0.14887826961E+02  0.47000000000E+01 0.  1.
         -5    1    1    2    0  502 -0.20029729213E+00  0.84332641395E+01  0.62219677514E+01  0.11487512601E+02  0.47000000000E+01 0.  1.
<mgrwt>
<rscale>  2 0.96566072E+01</rscale>
<asrwt>0</asrwt>
<pdfrwt beam="1">  1       21 0.33791201E-02 0.96566072E+01</pdfrwt>
<pdfrwt beam="2">  1       21 0.67862442E-03 0.96566072E+01</pdfrwt>
<totfact> 0.13274465E+09</totfact>
</mgrwt>
</event>
<event>
 4    1  0.3992289E+006  0.5038745E+01  0.7546771E-02  0.2560326E+00
         21   -1    0    0  503  502  0.00000000000E+00  0.00000000000E+00  0.18802195962E+02  0.18802195962E+02  0.00000000000E+00 0. -1.
         21   -1    0    0  501  503 -0.00000000000E+00 -0.00000000000E+00 -0.16933056953E+01  0.16933056953E+01  0.00000000000E+00 0. -1.
          5    1    1    2  501    0 -0.11486013321E+01  0.14070058643E+01  0.39423324330E+01  0.63977289357E+01  0.47000000000E+01 0. -1.
         -5    1    1    2    0  502  0.11486013321E+01 -0.14070058643E+01  0.13166557834E+02  0.14097772722E+02  0.47000000000E+01 0. -1.
<mgrwt>
<rscale>  2 0.50387449E+01</rscale>
<asrwt>0</asrwt>
<pdfrwt beam="1">  1       21 0.28926454E-02 0.50387449E+01</pdfrwt>
<pdfrwt beam="2">  1       21 0.26050858E-03 0.50387449E+01</pdfrwt>
<totfact> 0.37853794E+09</totfact>
</mgrwt>
</event>
<event>
 4    1  0.3992289E+006  0.4981674E+01  0.7546771E-02  0.2570415E+00
         21   -1    0    0  503  502  0.00000000000E+00  0.00000000000E+00  0.29183909765E-01  0.29183909765E-01  0.00000000000E+00 0.  1.
         21   -1    0    0  501  503 -0.00000000000E+00 -0.00000000000E+00 -0.85040020744E+03  0.85040020744E+03  0.00000000000E+00 0.  1.
          5    1    1    2  501    0  0.13667879852E+01 -0.92680394940E+00 -0.42778560929E+03  0.42781461475E+03  0.47000000000E+01 0.  1.
         -5    1    1    2    0  502 -0.13667879852E+01  0.92680394940E+00 -0.42258541424E+03  0.42261477660E+03  0.47000000000E+01 0.  1.
<mgrwt>
<rscale>  2 0.49816739E+01</rscale>
<asrwt>0</asrwt>
<pdfrwt beam="1">  1       21 0.44903525E-05 0.49816739E+01</pdfrwt>
<pdfrwt beam="2">  1       21 0.13081564E+00 0.49816739E+01</pdfrwt>
<totfact> 0.15605172E+09</totfact>
</mgrwt>
</event>
<event>
 4    1  0.3992289E+006  0.8436149E+01  0.7546771E-02  0.2176703E+00
         21   -1    0    0  503  502  0.00000000000E+00  0.00000000000E+00  0.91017928440E-01  0.91017928440E-01  0.00000000000E+00 0. -1.
         21   -1    0    0  501  503 -0.00000000000E+00 -0.00000000000E+00 -0.98803040822E+03  0.98803040822E+03  0.00000000000E+00 0. -1.
          5    1    1    2  501    0 -0.68912816967E+01 -0.12604967648E+01 -0.71962552179E+03  0.71967496846E+03  0.47000000000E+01 0. -1.
         -5    1    1    2    0  502  0.68912816967E+01  0.12604967648E+01 -0.26831386850E+03  0.26844645768E+03  0.47000000000E+01 0. -1.
<mgrwt>
<rscale>  2 0.84361493E+01</rscale>
<asrwt>0</asrwt>
<pdfrwt beam="1">  1       21 0.14002608E-04 0.84361493E+01</pdfrwt>
<pdfrwt beam="2">  1       21 0.15200631E+00 0.84361493E+01</pdfrwt>
<totfact> 0.33840213E+08</totfact>
</mgrwt>
</event>
<event>
 4    1  0.3992289E+006  0.5150316E+01  0.7546771E-02  0.2541159E+00
         21   -1    0    0  503  502  0.00000000000E+00  0.00000000000E+00  0.25584220859E+01  0.25584220859E+01  0.00000000000E+00 0.  1.
         21   -1    0    0  501  503 -0.00000000000E+00 -0.00000000000E+00 -0.14598809930E+02  0.14598809930E+02  0.00000000000E+00 0.  1.
          5    1    1    2  501    0 -0.41811381845E+00 -0.20642043818E+01 -0.10638359314E+02  0.11819494397E+02  0.47000000000E+01 0.  1.
         -5    1    1    2    0  502  0.41811381845E+00  0.20642043818E+01 -0.14020285301E+01  0.53377376194E+01  0.47000000000E+01 0.  1.
<mgrwt>
<rscale>  2 0.51503164E+01</rscale>
<asrwt>0</asrwt>
<pdfrwt beam="1">  1       21 0.39360339E-03 0.51503164E+01</pdfrwt>
<pdfrwt beam="2">  1       21 0.22459708E-02 0.51503164E+01</pdfrwt>
<totfact> 0.31689659E+09</totfact>
</mgrwt>
</event>
<event>
 4    1  0.3992289E+006  0.6769503E+01  0.7546771E-02  0.2324878E+00
         21   -1    0    0  503  502  0.00000000000E+00  0.00000000000E+00  0.27949031168E+03  0.27949031168E+03  0.00000000000E+00 0. -1.
         21   -1    0    0  501  503 -0.00000000000E+00 -0.00000000000E+00 -0.17697065343E+00  0.17697065343E+00  0.00000000000E+00 0. -1.
          5    1    1    2  501    0 -0.79716308869E+00 -0.48063193588E+01  0.10174662914E+03  0.10197157798E+03  0.47000000000E+01 0. -1.
         -5    1    1    2    0  502  0.79716308869E+00  0.48063193588E+01  0.17756671189E+03  0.17769570435E+03  0.47000000000E+01 0. -1.
<mgrwt>
<rscale>  2 0.67695033E+01</rscale>
<asrwt>0</asrwt>
<pdfrwt beam="1">  1       21 0.42998156E-01 0.67695033E+01</pdfrwt>
<pdfrwt beam="2">  1       21 0.27226478E-04 0.67695033E+01</pdfrwt>
<totfact> 0.14928555E+09</totfact>
</mgrwt>
</event>
<event>
 4    1  0.3992289E+006  0.5413024E+01  0.7546771E-02  0.2498716E+00
         21   -1    0    0  501  502  0.00000000000E+00  0.00000000000E+00  0.14677224354E+02  0.14677224354E+02  0.00000000000E+00 0.  1.
         21   -1    0    0  502  503 -0.00000000000E+00 -0.00000000000E+00 -0.23565225306E+01  0.23565225306E+01  0.00000000000E+00 0.  1.
          5    1    1    2  501    0  0.22319311216E+01  0.14930879071E+01  0.94900247525E+01  0.10925264200E+02  0.47000000000E+01 0.  1.
         -5    1    1    2    0  503 -0.22319311216E+01 -0.14930879071E+01  0.28306770705E+01  0.61084826846E+01  0.47000000000E+01 0.  1.
<mgrwt>
<rscale>  2 0.54130239E+01</rscale>
<asrwt>0</asrwt>
<pdfrwt beam="1">  1       21 0.22580345E-02 0.54130239E+01</pdfrwt>
<pdfrwt beam="2">  1       21 0.36254193E-03 0.54130239E+01</pdfrwt>
<totfact> 0.36995130E+09</totfact>
</mgrwt>
</event>
<event>
 4    1  0.3992289E+006  0.7205138E+01  0.7546771E-02  0.2280797E+00
         21   -1    0    0  503  502  0.00000000000E+00  0.00000000000E+00  0.43275643243E+00  0.43275643243E+00  0.00000000000E+00 0. -1.
         21   -1    0    0  501  503 -0.00000000000E+00 -0.00000000000E+00 -0.27345220340E+03  0.27345220340E+03  0.00000000000E+00 0.  1.
          5    1    1    2  501    0  0.23369581175E+01 -0.49358525417E+01 -0.23910770832E+03  0.23921624148E+03  0.47000000000E+01 0.  1.
         -5    1    1    2    0  502 -0.23369581175E+01  0.49358525417E+01 -0.33911738651E+02  0.34668718348E+02  0.47000000000E+01 0. -1.
<mgrwt>
<rscale>  2 0.72051380E+01</rscale>
<asrwt>0</asrwt>
<pdfrwt beam="1">  1       21 0.66577893E-04 0.72051380E+01</pdfrwt>
<pdfrwt beam="2">  1       21 0.42069582E-01 0.72051380E+01</pdfrwt>
<totfact> 0.48538253E+08</totfact>
</mgrwt>
</event>
<event>
 4    1  0.3992289E+006  0.5034574E+01  0.7546771E-02  0.2561057E+00
         21   -1    0    0  501  502  0.00000000000E+00  0.00000000000E+00  0.80076118074E-01  0.80076118074E-01  0.00000000000E+00 0. -1.
         21   -1    0    0  502  503 -0.00000000000E+00 -0.00000000000E+00 -0.34265252254E+03  0.34265252254E+03  0.00000000000E+00 0. -1.
          5    1    1    2  501    0 -0.68153313800E+00  0.16710625492E+01 -0.12397546245E+03  0.12407764596E+03  0.47000000000E+01 0. -1.
         -5    1    1    2    0  503  0.68153313800E+00 -0.16710625492E+01 -0.21859698397E+03  0.21865495269E+03  0.47000000000E+01 0. -1.
<mgrwt>
<rscale>  2 0.50345742E+01</rscale>
<asrwt>0</asrwt>
<pdfrwt beam="1">  1       21 0.12319494E-04 0.50345742E+01</pdfrwt>
<pdfrwt beam="2">  1       21 0.52715380E-01 0.50345742E+01</pdfrwt>
<totfact> 0.23699564E+09</totfact>
</mgrwt>
</event>
<event>
 4    1  0.3992289E+006  0.1853040E+02  0.7546771E-02  0.1776238E+00
         21   -1    0    0  501  502  0.00000000000E+00  0.00000000000E+00  0.47213367515E+02  0.47213367515E+02  0.00000000000E+00 0.  1.
         21   -1    0    0  502  503 -0.00000000000E+00 -0.00000000000E+00 -0.13891959161E+02  0.13891959161E+02  0.00000000000E+00 0. -1.
          5    1    1    2  501    0  0.17271403368E+02  0.47941992051E+01  0.37750244363E+02  0.42053022125E+02  0.47000000000E+01 0.  1.
         -5    1    1    2    0  503 -0.17271403368E+02 -0.47941992051E+01 -0.44288360086E+01  0.19052304551E+02  0.47000000000E+01 0. -1.
<mgrwt>
<rscale>  2 0.18530400E+02</rscale>
<asrwt>0</asrwt>
<pdfrwt beam="1">  1       21 0.72635949E-02 0.18530400E+02</pdfrwt>
<pdfrwt beam="2">  1       21 0.21372245E-02 0.18530400E+02</pdfrwt>
<totfact> 0.99565055E+07</totfact>
</mgrwt>
</event>
<event>
 4    1  0.3992289E+006  0.6872657E+01  0.7546771E-02  0.2314026E+00
         21   -1    0    0  501  502  0.00000000000E+00  0.00000000000E+00  0.10291950328E+03  0.10291950328E+03  0.00000000000E+00 0.  1.
         21   -1    0    0  502  503 -0.00000000000E+00 -0.00000000000E+00 -0.46889523723E+00  0.46889523723E+00  0.00000000000E+00 0.  1.
          5    1    1    2  501    0 -0.44797890710E+01  0.22527559395E+01  0.43691286516E+02  0.44228519497E+02  0.47000000000E+01 0.  1.
         -5    1    1    2    0  503  0.44797890710E+01 -0.22527559395E+01  0.58759321529E+02  0.59159879023E+02  0.47000000000E+01 0.  1.
<mgrwt>
<rscale>  2 0.68726574E+01</rscale>
<asrwt>0</asrwt>
<pdfrwt beam="1">  1       21 0.15833752E-01 0.68726574E+01</pdfrwt>
<pdfrwt beam="2">  1       21 0.72137811E-04 0.68726574E+01</pdfrwt>
<totfact> 0.21786433E+09</totfact>
</mgrwt>
</event>
<event>
 4    1  0.3992289E+006  0.5453977E+01  0.7546771E-02  0.2492415E+00
         21   -1    0    0  503  502  0.00000000000E+00  0.00000000000E+00  0.28207076202E+04  0.28207076202E+04  0.00000000000E+00 0.  1.
         21   -1    0    0  501  503 -0.00000000000E+00 -0.00000000000E+00 -0.17201666100E-01  0.17201666100E-01  0.00000000000E+00 0. -1.
          5    1    1    2  501    0  0.15947511216E+01 -0.22611134952E+01  0.53302836895E+03  0.53305627092E+03  0.47000000000E+01 0. -1.
         -5    1    1    2    0  502 -0.15947511216E+01  0.22611134952E+01  0.22876620496E+04  0.22876685510E+04  0.47000000000E+01 0.  1.
<mgrwt>
<rscale>  2 0.54539770E+01</rscale>
<asrwt>0</asrwt>
<pdfrwt beam="1">  1       21 0.43358487E+00 0.54539770E+01</pdfrwt>
<pdfrwt beam="2">  1       21 0.26486694E-05 0.54539770E+01</pdfrwt>
<totfact> 0.14958645E+08</totfact>
</mgrwt>
</event>
<event>
 4    1  0.3992289E+006  0.6542375E+01  0.7546771E-02  0.2349760E+00
         21   -1    0    0  501  502  0.00000000000E+00  0.00000000000E+00  0.11529310643E+02  0.11529310643E+02  0.00000000000E+00 0. -1.
         21   -1    0    0  502  503 -0.00000000000E+00 -0.00000000000E+00 -0.40581071667E+01  0.40581071667E+01  0.00000000000E+00 0.  1.
          5    1    1    2  501    0  0.26463685683E+01  0.37026220473E+01  0.60100064848E+01  0.88838535879E+01  0.47000000000E+01 0. -1.
         -5    1    1    2    0  503 -0.26463685683E+01 -0.37026220473E+01  0.14611969911E+01  0.67035642215E+01  0.47000000000E+01 0.  1.
<mgrwt>
<rscale>  2 0.65423755E+01</rscale>
<asrwt>0</asrwt>
<pdfrwt beam="1">  1       21 0.17737401E-02 0.65423755E+01</pdfrwt>
<pdfrwt beam="2">  1       21 0.62432418E-03 0.65423755E+01</pdfrwt>
<totfact> 0.29184056E+09</totfact>
</mgrwt>
</event>
<event>
 4    1  0.3992289E+006  0.5020475E+01  0.7546771E-02  0.2563534E+00
         21   -1    0    0  503  502  0.00000000000E+00  0.00000000000E+00  0.27490525912E+02  0.27490525912E+02  0.00000000000E+00 0. -1.
         21   -1    0    0  501  503 -0.00000000000E+00 -0.00000000000E+00 -0.10870791092E+01  0.10870791092E+01  0.00000000000E+00 0.  1.
          5    1    1    2  501    0  0.96021455776E+00 -0.14809312107E+01  0.75476704459E+01  0.90649047655E+01  0.47000000000E+01 0.  1.
         -5    1    1    2    0  502 -0.96021455776E+00  0.14809312107E+01  0.18855776357E+02  0.19512700256E+02  0.47000000000E+01 0. -1.
<mgrwt>
<rscale>  2 0.50204750E+01</rscale>
<asrwt>0</asrwt>
<pdfrwt beam="1">  1       21 0.42293111E-02 0.50204750E+01</pdfrwt>
<pdfrwt beam="2">  1       21 0.16724296E-03 0.50204750E+01</pdfrwt>
<totfact> 0.39601534E+09</totfact>
</mgrwt>
</event>
<event>
 4    1  0.3992289E+006  0.5242957E+01  0.7546771E-02  0.2525778E+00
         21   -1    0    0  501  502  0.00000000000E+00  0.00000000000E+00  0.16798899364E+02  0.16798899364E+02  0.00000000000E+00 0. -1.
         21   -1    0    0  502  503 -0.00000000000E+00 -0.00000000000E+00 -0.21578589970E+01  0.21578589970E+01  0.00000000000E+00 0. -1.
          5    1    1    2  501    0  0.16495854230E+01 -0.16362951856E+01  0.11980247610E+02  0.13077267558E+02  0.47000000000E+01 0. -1.
         -5    1    1    2    0  503 -0.16495854230E+01  0.16362951856E+01  0.26607927573E+01  0.58794908027E+01  0.47000000000E+01 0. -1.
<mgrwt>
<rscale>  2 0.52429566E+01</rscale>
<asrwt>0</asrwt>
<pdfrwt beam="1">  1       21 0.25844460E-02 0.52429566E+01</pdfrwt>
<pdfrwt beam="2">  1       21 0.33197832E-03 0.52429566E+01</pdfrwt>
<totfact> 0.33315949E+09</totfact>
</mgrwt>
</event>
<event>
 4    1  0.3992289E+006  0.1254819E+02  0.7546771E-02  0.1953638E+00
         21   -1    0    0  501  502  0.00000000000E+00  0.00000000000E+00  0.53761754959E+02  0.53761754959E+02  0.00000000000E+00 0.  1.
         21   -1    0    0  502  503 -0.00000000000E+00 -0.00000000000E+00 -0.37704221707E+01  0.37704221707E+01  0.00000000000E+00 0. -1.
          5    1    1    2  501    0 -0.11436241724E+02 -0.21399678062E+01  0.11404834428E+02  0.16956631013E+02  0.47000000000E+01 0. -1.
         -5    1    1    2    0  503  0.11436241724E+02  0.21399678062E+01  0.38586498360E+02  0.40575546117E+02  0.47000000000E+01 0.  1.
<mgrwt>
<rscale>  2 0.12548191E+02</rscale>
<asrwt>0</asrwt>
<pdfrwt beam="1">  1       21 0.82710387E-02 0.12548191E+02</pdfrwt>
<pdfrwt beam="2">  1       21 0.58006499E-03 0.12548191E+02</pdfrwt>
<totfact> 0.48077648E+08</totfact>
</mgrwt>
</event>
<event>
 4    1  0.3992289E+006  0.5254417E+01  0.7546771E-02  0.2523907E+00
         21   -1    0    0  501  502  0.00000000000E+00  0.00000000000E+00  0.31428919156E+01  0.31428919156E+01  0.00000000000E+00 0.  1.
         21   -1    0    0  502  503 -0.00000000000E+00 -0.00000000000E+00 -0.11261631143E+02  0.11261631143E+02  0.00000000000E+00 0.  1.
          5    1    1    2  501    0 -0.20758643144E+01  0.10998553467E+01 -0.68153591637E+00  0.52984323758E+01  0.47000000000E+01 0.  1.
         -5    1    1    2    0  503  0.20758643144E+01 -0.10998553467E+01 -0.74372033113E+01  0.91060906831E+01  0.47000000000E+01 0.  1.
<mgrwt>
<rscale>  2 0.52544167E+01</rscale>
<asrwt>0</asrwt>
<pdfrwt beam="1">  1       21 0.48352183E-03 0.52544167E+01</pdfrwt>
<pdfrwt beam="2">  1       21 0.17325586E-02 0.52544167E+01</pdfrwt>
<totfact> 0.35259989E+09</totfact>
</mgrwt>
</event>
<event>
 4    1  0.3992289E+006  0.5126530E+01  0.7546771E-02  0.2545185E+00
         21   -1    0    0  501  502  0.00000000000E+00  0.00000000000E+00  0.26434802954E+01  0.26434802954E+01  0.00000000000E+00 0.  1.
         21   -1    0    0  502  503 -0.00000000000E+00 -0.00000000000E+00 -0.99428046735E+01  0.99428046735E+01  0.00000000000E+00 0. -1.
          5    1    1    2  501    0  0.12794960122E+01  0.15981878202E+01 -0.35908712302E+01  0.62590470956E+01  0.47000000000E+01 0.  1.
         -5    1    1    2    0  503 -0.12794960122E+01 -0.15981878202E+01 -0.37084531480E+01  0.63272378733E+01  0.47000000000E+01 0. -1.
<mgrwt>
<rscale>  2 0.51265304E+01</rscale>
<asrwt>0</asrwt>
<pdfrwt beam="1">  1       21 0.40668927E-03 0.51265304E+01</pdfrwt>
<pdfrwt beam="2">  1       21 0.15296623E-02 0.51265304E+01</pdfrwt>
<totfact> 0.51994345E+09</totfact>
</mgrwt>
</event>
<event>
 4    1  0.3992289E+006  0.6370951E+01  0.7546771E-02  0.2369507E+00
         21   -1    0    0  501  502  0.00000000000E+00  0.00000000000E+00  0.21620066639E+02  0.21620066639E+02  0.00000000000E+00 0. -1.
         21   -1    0    0  502  503 -0.00000000000E+00 -0.00000000000E+00 -0.19794510842E+01  0.19794510842E+01  0.00000000000E+00 0.  1.
          5    1    1    2  501    0 -0.41184820943E+01 -0.12398064054E+01  0.12499837665E+02  0.14029788179E+02  0.47000000000E+01 0.  1.
         -5    1    1    2    0  503  0.41184820943E+01  0.12398064054E+01  0.71407778895E+01  0.95697295443E+01  0.47000000000E+01 0. -1.
<mgrwt>
<rscale>  2 0.63709508E+01</rscale>
<asrwt>0</asrwt>
<pdfrwt beam="1">  1       21 0.33261639E-02 0.63709508E+01</pdfrwt>
<pdfrwt beam="2">  1       21 0.30453095E-03 0.63709508E+01</pdfrwt>
<totfact> 0.31083966E+09</totfact>
</mgrwt>
</event>
<event>
 4    1  0.3992289E+006  0.5471389E+01  0.7546771E-02  0.2489760E+00
         21   -1    0    0  503  502  0.00000000000E+00  0.00000000000E+00  0.84796685342E+00  0.84796685342E+00  0.00000000000E+00 0. -1.
         21   -1    0    0  501  503 -0.00000000000E+00 -0.00000000000E+00 -0.56046550814E+02  0.56046550814E+02  0.00000000000E+00 0. -1.
          5    1    1    2  501    0 -0.46756278542E+00 -0.27617895978E+01 -0.44905564664E+02  0.45237659472E+02  0.47000000000E+01 0. -1.
         -5    1    1    2    0  502  0.46756278542E+00  0.27617895978E+01 -0.10293019297E+02  0.11656858195E+02  0.47000000000E+01 0. -1.
<mgrwt>
<rscale>  2 0.54713889E+01</rscale>
<asrwt>0</asrwt>
<pdfrwt beam="1">  1       21 0.13045646E-03 0.54713889E+01</pdfrwt>
<pdfrwt beam="2">  1       21 0.86225451E-02 0.54713889E+01</pdfrwt>
<totfact> 0.20933182E+09</totfact>
</mgrwt>
</event>
<event>
 4    1  0.3992289E+006  0.5873497E+01  0.7546771E-02  0.2432185E+00
         21   -1    0    0  501  502  0.00000000000E+00  0.00000000000E+00  0.29406830558E-01  0.29406830558E-01  0.00000000000E+00 0.  1.
         21   -1    0    0  502  503 -0.00000000000E+00 -0.00000000000E+00 -0.15633385501E+04  0.15633385501E+04  0.00000000000E+00 0.  1.
          5    1    1    2  501    0  0.28781338374E+01 -0.20308410325E+01 -0.39112464377E+03  0.39116874228E+03  0.47000000000E+01 0.  1.
         -5    1    1    2    0  503 -0.28781338374E+01  0.20308410325E+01 -0.11721844995E+04  0.11721992146E+04  0.47000000000E+01 0.  1.
<mgrwt>
<rscale>  2 0.58734972E+01</rscale>
<asrwt>0</asrwt>
<pdfrwt beam="1">  1       21 0.45233580E-05 0.58734972E+01</pdfrwt>
<pdfrwt beam="2">  1       21 0.24055455E+00 0.58734972E+01</pdfrwt>
<totfact> 0.45577511E+08</totfact>
</mgrwt>
</event>
<event>
 4    1  0.3992289E+006  0.5821379E+01  0.7546771E-02  0.2439268E+00
         21   -1    0    0  503  502  0.00000000000E+00  0.00000000000E+00  0.54167305355E-01  0.54167305355E-01  0.00000000000E+00 0.  1.
         21   -1    0    0  501  503 -0.00000000000E+00 -0.00000000000E+00 -0.62980317073E+03  0.62980317073E+03  0.00000000000E+00 0. -1.
          5    1    1    2  501    0  0.22571196239E+01 -0.25891813202E+01 -0.34052380238E+03  0.34057355805E+03  0.47000000000E+01 0. -1.
         -5    1    1    2    0  502 -0.22571196239E+01  0.25891813202E+01 -0.28922520104E+03  0.28928377999E+03  0.47000000000E+01 0.  1.
<mgrwt>
<rscale>  2 0.58213786E+01</rscale>
<asrwt>0</asrwt>
<pdfrwt beam="1">  1       21 0.83334510E-05 0.58213786E+01</pdfrwt>
<pdfrwt beam="2">  1       21 0.96892569E-01 0.58213786E+01</pdfrwt>
<totfact> 0.14101436E+09</totfact>
</mgrwt>
</event>
<event>
 4    1  0.3992289E+006  0.5666271E+01  0.7546771E-02  0.2460994E+00
         21   -1    0    0  503  502  0.00000000000E+00  0.00000000000E+00  0.11263895250E+01  0.11263895250E+01  0.00000000000E+00 0. -1.
         21   -1    0    0  501  503 -0.00000000000E+00 -0.00000000000E+00 -0.43342478565E+02  0.43342478565E+02  0.00000000000E+00 0. -1.
          5    1    1    2  501    0 -0.31206552349E+01  0.52738852800E+00 -0.34117634981E+02  0.34584962693E+02  0.47000000000E+01 0. -1.
         -5    1    1    2    0  502  0.31206552349E+01 -0.52738852800E+00 -0.80984540584E+01  0.98839053967E+01  0.47000000000E+01 0. -1.
<mgrwt>
<rscale>  2 0.56662711E+01</rscale>
<asrwt>0</asrwt>
<pdfrwt beam="1">  1       21 0.17329070E-03 0.56662711E+01</pdfrwt>
<pdfrwt beam="2">  1       21 0.66680734E-02 0.56662711E+01</pdfrwt>
<totfact> 0.21674871E+09</totfact>
</mgrwt>
</event>
<event>
 4    1  0.3992289E+006  0.5380638E+01  0.7546771E-02  0.2503757E+00
         21   -1    0    0  501  502  0.00000000000E+00  0.00000000000E+00  0.75440594064E+01  0.75440594064E+01  0.00000000000E+00 0. -1.
         21   -1    0    0  502  503 -0.00000000000E+00 -0.00000000000E+00 -0.41855145196E+01  0.41855145196E+01  0.00000000000E+00 0.  1.
          5    1    1    2  501    0  0.25992666694E+01  0.32414992269E+00 -0.11555293412E-01  0.53806499529E+01  0.47000000000E+01 0.  1.
         -5    1    1    2    0  503 -0.25992666694E+01 -0.32414992269E+00  0.33701001803E+01  0.63489239731E+01  0.47000000000E+01 0. -1.
<mgrwt>
<rscale>  2 0.53806375E+01</rscale>
<asrwt>0</asrwt>
<pdfrwt beam="1">  1       21 0.11606245E-02 0.53806375E+01</pdfrwt>
<pdfrwt beam="2">  1       21 0.64392531E-03 0.53806375E+01</pdfrwt>
<totfact> 0.42795045E+09</totfact>
</mgrwt>
</event>
<event>
 4    1  0.3992289E+006  0.4999829E+01  0.7546771E-02  0.2567184E+00
         21   -1    0    0  503  502  0.00000000000E+00  0.00000000000E+00  0.13104395460E+02  0.13104395460E+02  0.00000000000E+00 0. -1.
         21   -1    0    0  501  503 -0.00000000000E+00 -0.00000000000E+00 -0.25572896598E+01  0.25572896598E+01  0.00000000000E+00 0. -1.
          5    1    1    2  501    0  0.82474871640E+00  0.14926746047E+01  0.13265926152E+01  0.51728266825E+01  0.47000000000E+01 0. -1.
         -5    1    1    2    0  502 -0.82474871640E+00 -0.14926746047E+01  0.92205131848E+01  0.10488858437E+02  0.47000000000E+01 0. -1.
<mgrwt>
<rscale>  2 0.49998288E+01</rscale>
<asrwt>0</asrwt>
<pdfrwt beam="1">  1       21 0.20160608E-02 0.49998288E+01</pdfrwt>
<pdfrwt beam="2">  1       21 0.39342918E-03 0.49998288E+01</pdfrwt>
<totfact> 0.35864991E+09</totfact>
</mgrwt>
</event>
<event>
 4    1  0.3992289E+006  0.5001698E+01  0.7546771E-02  0.2566853E+00
         21   -1    0    0  501  502  0.00000000000E+00  0.00000000000E+00  0.64744096869E+02  0.64744096869E+02  0.00000000000E+00 0.  1.
         21   -1    0    0  502  503 -0.00000000000E+00 -0.00000000000E+00 -0.39662275647E+00  0.39662275647E+00  0.00000000000E+00 0.  1.
          5    1    1    2  501    0  0.16714248956E+01 -0.36512794614E+00  0.37403277066E+02  0.37736217549E+02  0.47000000000E+01 0.  1.
         -5    1    1    2    0  503 -0.16714248956E+01  0.36512794614E+00  0.26944197046E+02  0.27404502076E+02  0.47000000000E+01 0.  1.
<mgrwt>
<rscale>  2 0.50016977E+01</rscale>
<asrwt>0</asrwt>
<pdfrwt beam="1">  1       21 0.99606219E-02 0.50016977E+01</pdfrwt>
<pdfrwt beam="2">  1       21 0.61018937E-04 0.50016977E+01</pdfrwt>
<totfact> 0.42465923E+09</totfact>
</mgrwt>
</event>
<event>
 4    1  0.3992289E+006  0.4824893E+01  0.7546771E-02  0.2599187E+00
         21   -1    0    0  501  502  0.00000000000E+00  0.00000000000E+00  0.19012133252E+01  0.19012133252E+01  0.00000000000E+00 0.  1.
         21   -1    0    0  502  503 -0.00000000000E+00 -0.00000000000E+00 -0.12263310062E+02  0.12263310062E+02  0.00000000000E+00 0.  1.
          5    1    1    2  501    0  0.20066330416E-01 -0.10905014426E+01 -0.49044118158E+01  0.68798874491E+01  0.47000000000E+01 0.  1.
         -5    1    1    2    0  503 -0.20066330416E-01  0.10905014426E+01 -0.54576849211E+01  0.72846359382E+01  0.47000000000E+01 0.  1.
<mgrwt>
<rscale>  2 0.48248934E+01</rscale>
<asrwt>0</asrwt>
<pdfrwt beam="1">  1       21 0.29249435E-03 0.48248934E+01</pdfrwt>
<pdfrwt beam="2">  1       21 0.18866631E-02 0.48248934E+01</pdfrwt>
<totfact> 0.56762884E+09</totfact>
</mgrwt>
</event>
<event>
 4    1  0.3992289E+006  0.5391848E+01  0.7546771E-02  0.2502007E+00
         21   -1    0    0  503  502  0.00000000000E+00  0.00000000000E+00  0.97479822094E+00  0.97479822094E+00  0.00000000000E+00 0. -1.
         21   -1    0    0  501  503 -0.00000000000E+00 -0.00000000000E+00 -0.30439108890E+02  0.30439108890E+02  0.00000000000E+00 0. -1.
          5    1    1    2  501    0  0.80968154853E+00 -0.25152412290E+01 -0.12498674939E+02  0.13612086464E+02  0.47000000000E+01 0. -1.
         -5    1    1    2    0  502 -0.80968154853E+00  0.25152412290E+01 -0.16965635730E+02  0.17801820647E+02  0.47000000000E+01 0. -1.
<mgrwt>
<rscale>  2 0.53918478E+01</rscale>
<asrwt>0</asrwt>
<pdfrwt beam="1">  1       21 0.14996898E-03 0.53918478E+01</pdfrwt>
<pdfrwt beam="2">  1       21 0.46829390E-02 0.53918478E+01</pdfrwt>
<totfact> 0.42461538E+09</totfact>
</mgrwt>
</event>
<event>
 4    1  0.3992289E+006  0.1332214E+02  0.7546771E-02  0.1924051E+00
         21   -1    0    0  503  502  0.00000000000E+00  0.00000000000E+00  0.27518592973E+03  0.27518592973E+03  0.00000000000E+00 0.  1.
         21   -1    0    0  501  503 -0.00000000000E+00 -0.00000000000E+00 -0.23312095901E+01  0.23312095901E+01  0.00000000000E+00 0. -1.
          5    1    1    2  501    0  0.98730193873E+01 -0.76100446849E+01  0.18413708925E+02  0.22727603664E+02  0.47000000000E+01 0. -1.
         -5    1    1    2    0  502 -0.98730193873E+01  0.76100446849E+01  0.25444101122E+03  0.25478953566E+03  0.47000000000E+01 0.  1.
<mgrwt>
<rscale>  2 0.13322135E+02</rscale>
<asrwt>0</asrwt>
<pdfrwt beam="1">  1       21 0.42336271E-01 0.13322135E+02</pdfrwt>
<pdfrwt beam="2">  1       21 0.35864785E-03 0.13322135E+02</pdfrwt>
<totfact> 0.61547447E+07</totfact>
</mgrwt>
</event>
<event>
 4    1  0.3992289E+006  0.5419027E+01  0.7546771E-02  0.2497788E+00
         21   -1    0    0  503  502  0.00000000000E+00  0.00000000000E+00  0.10172807182E+01  0.10172807182E+01  0.00000000000E+00 0.  1.
         21   -1    0    0  501  503 -0.00000000000E+00 -0.00000000000E+00 -0.35050323450E+02  0.35050323450E+02  0.00000000000E+00 0. -1.
          5    1    1    2  501    0 -0.26944067323E+01  0.12658371868E+00 -0.24590986490E+02  0.25180994174E+02  0.47000000000E+01 0. -1.
         -5    1    1    2    0  502  0.26944067323E+01 -0.12658371868E+00 -0.94420562422E+01  0.10886609994E+02  0.47000000000E+01 0.  1.
<mgrwt>
<rscale>  2 0.54190268E+01</rscale>
<asrwt>0</asrwt>
<pdfrwt beam="1">  1       21 0.15650471E-03 0.54190268E+01</pdfrwt>
<pdfrwt beam="2">  1       21 0.53923578E-02 0.54190268E+01</pdfrwt>
<totfact> 0.32741501E+09</totfact>
</mgrwt>
</event>
<event>
 4    1  0.3992289E+006  0.5754887E+01  0.7546771E-02  0.2448460E+00
         21   -1    0    0  501  502  0.00000000000E+00  0.00000000000E+00  0.12079567245E+01  0.12079567245E+01  0.00000000000E+00 0. -1.
         21   -1    0    0  502  503 -0.00000000000E+00 -0.00000000000E+00 -0.27459808719E+02  0.27459808719E+02  0.00000000000E+00 0.  1.
          5    1    1    2  501    0 -0.16630770843E+01 -0.28745259216E+01 -0.12560931159E+02  0.13816501592E+02  0.47000000000E+01 0.  1.
         -5    1    1    2    0  503  0.16630770843E+01  0.28745259216E+01 -0.13690920835E+02  0.14851263851E+02  0.47000000000E+01 0. -1.
<mgrwt>
<rscale>  2 0.57548870E+01</rscale>
<asrwt>0</asrwt>
<pdfrwt beam="1">  1       21 0.18583950E-03 0.57548870E+01</pdfrwt>
<pdfrwt beam="2">  1       21 0.42245858E-02 0.57548870E+01</pdfrwt>
<totfact> 0.39304750E+09</totfact>
</mgrwt>
</event>
<event>
 4    1  0.3992289E+006  0.5646376E+01  0.7546771E-02  0.2463854E+00
         21   -1    0    0  501  502  0.00000000000E+00  0.00000000000E+00  0.35428342462E+01  0.35428342462E+01  0.00000000000E+00 0. -1.
         21   -1    0    0  502  503 -0.00000000000E+00 -0.00000000000E+00 -0.11158579464E+02  0.11158579464E+02  0.00000000000E+00 0. -1.
          5    1    1    2  501    0  0.26580909584E+01 -0.16510964333E+01 -0.57401755861E+00  0.56754791104E+01  0.47000000000E+01 0. -1.
         -5    1    1    2    0  503 -0.26580909584E+01  0.16510964333E+01 -0.70417276595E+01  0.90259346002E+01  0.47000000000E+01 0. -1.
<mgrwt>
<rscale>  2 0.56463764E+01</rscale>
<asrwt>0</asrwt>
<pdfrwt beam="1">  1       21 0.54505143E-03 0.56463764E+01</pdfrwt>
<pdfrwt beam="2">  1       21 0.17167045E-02 0.56463764E+01</pdfrwt>
<totfact> 0.32446756E+09</totfact>
</mgrwt>
</event>
<event>
 4    1  0.3992289E+006  0.4849876E+01  0.7546771E-02  0.2594495E+00
         21   -1    0    0  501  502  0.00000000000E+00  0.00000000000E+00  0.22851585978E+00  0.22851585978E+00  0.00000000000E+00 0.  1.
         21   -1    0    0  502  503 -0.00000000000E+00 -0.00000000000E+00 -0.14396325324E+03  0.14396325324E+03  0.00000000000E+00 0.  1.
          5    1    1    2  501    0  0.11747383728E+01  0.22647597699E+00 -0.33377287962E+02  0.33727802379E+02  0.47000000000E+01 0.  1.
         -5    1    1    2    0  503 -0.11747383728E+01 -0.22647597699E+00 -0.11035744942E+03  0.11046396672E+03  0.47000000000E+01 0.  1.
<mgrwt>
<rscale>  2 0.48498765E+01</rscale>
<asrwt>0</asrwt>
<pdfrwt beam="1">  1       21 0.35156234E-04 0.48498765E+01</pdfrwt>
<pdfrwt beam="2">  1       21 0.22148225E-01 0.48498765E+01</pdfrwt>
<totfact> 0.24703358E+09</totfact>
</mgrwt>
</event>
<event>
 4    1  0.3992289E+006  0.5126918E+01  0.7546771E-02  0.2545119E+00
         21   -1    0    0  503  502  0.00000000000E+00  0.00000000000E+00  0.33271983571E+00  0.33271983571E+00  0.00000000000E+00 0.  1.
         21   -1    0    0  501  503 -0.00000000000E+00 -0.00000000000E+00 -0.91103288170E+02  0.91103288170E+02  0.00000000000E+00 0.  1.
          5    1    1    2  501    0 -0.31267849673E+00  0.20242339492E+01 -0.28722442681E+02  0.29176428920E+02  0.47000000000E+01 0.  1.
         -5    1    1    2    0  502  0.31267849673E+00 -0.20242339492E+01 -0.62048125653E+02  0.62259579086E+02  0.47000000000E+01 0.  1.
<mgrwt>
<rscale>  2 0.51269183E+01</rscale>
<asrwt>0</asrwt>
<pdfrwt beam="1">  1       21 0.51187660E-04 0.51269183E+01</pdfrwt>
<pdfrwt beam="2">  1       21 0.14015892E-01 0.51269183E+01</pdfrwt>
<totfact> 0.32569030E+09</totfact>
</mgrwt>
</event>
<event>
 4    1  0.3992289E+006  0.1208315E+02  0.7546771E-02  0.1972797E+00
         21   -1    0    0  503  502  0.00000000000E+00  0.00000000000E+00  0.19166523860E+01  0.19166523860E+01  0.00000000000E+00 0. -1.
         21   -1    0    0  501  503 -0.00000000000E+00 -0.00000000000E+00 -0.79912962340E+02  0.79912962340E+02  0.00000000000E+00 0.  1.
          5    1    1    2  501    0  0.93271237043E+01  0.60759518615E+01 -0.47846171924E+02  0.49348339338E+02  0.47000000000E+01 0.  1.
         -5    1    1    2    0  502 -0.93271237043E+01 -0.60759518615E+01 -0.30150138030E+02  0.32481275388E+02  0.47000000000E+01 0. -1.
<mgrwt>
<rscale>  2 0.12083146E+02</rscale>
<asrwt>0</asrwt>
<pdfrwt beam="1">  1       21 0.29486964E-03 0.12083146E+02</pdfrwt>
<pdfrwt beam="2">  1       21 0.12294300E-01 0.12083146E+02</pdfrwt>
<totfact> 0.65885529E+08</totfact>
</mgrwt>
</event>
<event>
 4    1  0.3992289E+006  0.6324862E+01  0.7546771E-02  0.2374967E+00
         21   -1    0    0  501  502  0.00000000000E+00  0.00000000000E+00  0.54554820222E+02  0.54554820222E+02  0.00000000000E+00 0.  1.
         21   -1    0    0  502  503 -0.00000000000E+00 -0.00000000000E+00 -0.15006412019E+01  0.15006412019E+01  0.00000000000E+00 0.  1.
          5    1    1    2  501    0 -0.25557452397E+00  0.42247561243E+01  0.46569493668E+02  0.46997038451E+02  0.47000000000E+01 0.  1.
         -5    1    1    2    0  503  0.25557452397E+00 -0.42247561243E+01  0.64846853524E+01  0.90584229735E+01  0.47000000000E+01 0.  1.
<mgrwt>
<rscale>  2 0.63248623E+01</rscale>
<asrwt>0</asrwt>
<pdfrwt beam="1">  1       21 0.83930477E-02 0.63248623E+01</pdfrwt>
<pdfrwt beam="2">  1       21 0.23086792E-03 0.63248623E+01</pdfrwt>
<totfact> 0.11351982E+09</totfact>
</mgrwt>
</event>
<event>
 4    1  0.3992289E+006  0.9183192E+01  0.7546771E-02  0.2124689E+00
         21   -1    0    0  503  502  0.00000000000E+00  0.00000000000E+00  0.24681177174E+01  0.24681177174E+01  0.00000000000E+00 0. -1.
         21   -1    0    0  501  503 -0.00000000000E+00 -0.00000000000E+00 -0.48441691971E+02  0.48441691971E+02  0.00000000000E+00 0.  1.
          5    1    1    2  501    0  0.30159224987E+01 -0.72900777378E+01 -0.91693445001E+01  0.12977206961E+02  0.47000000000E+01 0. -1.
         -5    1    1    2    0  502 -0.30159224987E+01  0.72900777378E+01 -0.36804229754E+02  0.37932602728E+02  0.47000000000E+01 0.  1.
<mgrwt>
<rscale>  2 0.91831924E+01</rscale>
<asrwt>0</asrwt>
<pdfrwt beam="1">  1       21 0.37971041E-03 0.91831924E+01</pdfrwt>
<pdfrwt beam="2">  1       21 0.74525681E-02 0.91831924E+01</pdfrwt>
<totfact> 0.87941953E+08</totfact>
</mgrwt>
</event>
<event>
 4    1  0.3992289E+006  0.1153762E+02  0.7546771E-02  0.1996772E+00
         21   -1    0    0  501  502  0.00000000000E+00  0.00000000000E+00  0.47117145531E+01  0.47117145531E+01  0.00000000000E+00 0. -1.
         21   -1    0    0  502  503 -0.00000000000E+00 -0.00000000000E+00 -0.40331874355E+02  0.40331874355E+02  0.00000000000E+00 0.  1.
          5    1    1    2  501    0 -0.26743041714E+01 -0.10191892082E+02 -0.54845559585E+01  0.12774855031E+02  0.47000000000E+01 0. -1.
         -5    1    1    2    0  503  0.26743041714E+01  0.10191892082E+02 -0.30135603843E+02  0.32268733877E+02  0.47000000000E+01 0.  1.
<mgrwt>
<rscale>  2 0.11537615E+02</rscale>
<asrwt>0</asrwt>
<pdfrwt beam="1">  1       21 0.72487914E-03 0.11537615E+02</pdfrwt>
<pdfrwt beam="2">  1       21 0.62049039E-02 0.11537615E+02</pdfrwt>
<totfact> 0.52578852E+08</totfact>
</mgrwt>
</event>
<event>
 4    1  0.3992289E+006  0.7309570E+01  0.7546771E-02  0.2270872E+00
         21   -1    0    0  503  502  0.00000000000E+00  0.00000000000E+00  0.19718243608E+03  0.19718243608E+03  0.00000000000E+00 0. -1.
         21   -1    0    0  501  503 -0.00000000000E+00 -0.00000000000E+00 -0.84490602103E+00  0.84490602103E+00  0.00000000000E+00 0.  1.
          5    1    1    2  501    0 -0.12819705973E+01  0.54494372769E+01  0.16562394511E+02  0.18103666126E+02  0.47000000000E+01 0.  1.
         -5    1    1    2    0  502  0.12819705973E+01 -0.54494372769E+01  0.17977513555E+03  0.17992367598E+03  0.47000000000E+01 0. -1.
<mgrwt>
<rscale>  2 0.73095701E+01</rscale>
<asrwt>0</asrwt>
<pdfrwt beam="1">  1       21 0.30335723E-01 0.73095701E+01</pdfrwt>
<pdfrwt beam="2">  1       21 0.12998570E-03 0.73095701E+01</pdfrwt>
<totfact> 0.34933160E+08</totfact>
</mgrwt>
</event>
<event>
 4    1  0.3992289E+006  0.9521776E+01  0.7546771E-02  0.2103271E+00
         21   -1    0    0  503  502  0.00000000000E+00  0.00000000000E+00  0.77828019693E+02  0.77828019693E+02  0.00000000000E+00 0.  1.
         21   -1    0    0  501  503 -0.00000000000E+00 -0.00000000000E+00 -0.11675736836E+01  0.11675736836E+01  0.00000000000E+00 0. -1.
          5    1    1    2  501    0 -0.48816994980E+01  0.66890385103E+01  0.40209550753E+02  0.41321570613E+02  0.47000000000E+01 0. -1.
         -5    1    1    2    0  502  0.48816994980E+01 -0.66890385103E+01  0.36450895256E+02  0.37674022763E+02  0.47000000000E+01 0.  1.
<mgrwt>
<rscale>  2 0.95217764E+01</rscale>
<asrwt>0</asrwt>
<pdfrwt beam="1">  1       21 0.11973537E-01 0.95217764E+01</pdfrwt>
<pdfrwt beam="2">  1       21 0.17962678E-03 0.95217764E+01</pdfrwt>
<totfact> 0.12153333E+09</totfact>
</mgrwt>
</event>
<event>
 4    1  0.3992289E+006  0.7369661E+01  0.7546771E-02  0.2265265E+00
         21   -1    0    0  501  502  0.00000000000E+00  0.00000000000E+00  0.32135964200E+01  0.32135964200E+01  0.00000000000E+00 0. -1.
         21   -1    0    0  502  503 -0.00000000000E+00 -0.00000000000E+00 -0.20496052618E+02  0.20496052618E+02  0.00000000000E+00 0.  1.
          5    1    1    2  501    0 -0.38646127136E+01  0.41577240037E+01 -0.36760688746E+01  0.82356167157E+01  0.47000000000E+01 0. -1.
         -5    1    1    2    0  503  0.38646127136E+01 -0.41577240037E+01 -0.13606387323E+02  0.15474032322E+02  0.47000000000E+01 0.  1.
<mgrwt>
<rscale>  2 0.73696608E+01</rscale>
<asrwt>0</asrwt>
<pdfrwt beam="1">  1       21 0.49439947E-03 0.73696608E+01</pdfrwt>
<pdfrwt beam="2">  1       21 0.31532387E-02 0.73696608E+01</pdfrwt>
<totfact> 0.19221890E+09</totfact>
</mgrwt>
</event>
<event>
 4    1  0.3992289E+006  0.4957649E+01  0.7546771E-02  0.2574722E+00
         21   -1    0    0  501  502  0.00000000000E+00  0.00000000000E+00  0.25874907754E+02  0.25874907754E+02  0.00000000000E+00 0. -1.
         21   -1    0    0  502  503 -0.00000000000E+00 -0.00000000000E+00 -0.55211164975E+01  0.55211164975E+01  0.00000000000E+00 0. -1.
          5    1    1    2  501    0 -0.80226201177E+00 -0.13581806803E+01  0.24460823317E+02  0.24958168130E+02  0.47000000000E+01 0. -1.
         -5    1    1    2    0  503  0.80226201177E+00  0.13581806803E+01 -0.41070320600E+01  0.64378561212E+01  0.47000000000E+01 0. -1.
<mgrwt>
<rscale>  2 0.49576485E+01</rscale>
<asrwt>0</asrwt>
<pdfrwt beam="1">  1       21 0.39807550E-02 0.49576485E+01</pdfrwt>
<pdfrwt beam="2">  1       21 0.84940255E-03 0.49576485E+01</pdfrwt>
<totfact> 0.46504489E+08</totfact>
</mgrwt>
</event>
<event>
 4    1  0.3992289E+006  0.7616661E+01  0.7546771E-02  0.2242978E+00
         21   -1    0    0  503  502  0.00000000000E+00  0.00000000000E+00  0.33508684014E+00  0.33508684014E+00  0.00000000000E+00 0. -1.
         21   -1    0    0  501  503 -0.00000000000E+00 -0.00000000000E+00 -0.32418035461E+03  0.32418035461E+03  0.00000000000E+00 0. -1.
          5    1    1    2  501    0  0.43018513177E+01 -0.41734403507E+01 -0.27268013208E+03  0.27278648786E+03  0.47000000000E+01 0. -1.
         -5    1    1    2    0  502 -0.43018513177E+01  0.41734403507E+01 -0.51165135687E+02  0.51728953584E+02  0.47000000000E+01 0. -1.
<mgrwt>
<rscale>  2 0.76166613E+01</rscale>
<asrwt>0</asrwt>
<pdfrwt beam="1">  1       21 0.51551563E-04 0.76166613E+01</pdfrwt>
<pdfrwt beam="2">  1       21 0.49874151E-01 0.76166613E+01</pdfrwt>
<totfact> 0.52174405E+08</totfact>
</mgrwt>
</event>
<event>
 4    1  0.3992289E+006  0.7086285E+01  0.7546771E-02  0.2292382E+00
         21   -1    0    0  501  502  0.00000000000E+00  0.00000000000E+00  0.25813470608E+00  0.25813470608E+00  0.00000000000E+00 0. -1.
         21   -1    0    0  502  503 -0.00000000000E+00 -0.00000000000E+00 -0.21827785397E+03  0.21827785397E+03  0.00000000000E+00 0.  1.
          5    1    1    2  501    0 -0.18517906171E+01 -0.49695382748E+01 -0.72970024842E+02  0.73313300052E+02  0.47000000000E+01 0. -1.
         -5    1    1    2    0  503  0.18517906171E+01  0.49695382748E+01 -0.14504969443E+03  0.14522268863E+03  0.47000000000E+01 0.  1.
<mgrwt>
<rscale>  2 0.70862853E+01</rscale>
<asrwt>0</asrwt>
<pdfrwt beam="1">  1       21 0.39713196E-04 0.70862853E+01</pdfrwt>
<pdfrwt beam="2">  1       21 0.33581070E-01 0.70862853E+01</pdfrwt>
<totfact> 0.14307091E+09</totfact>
</mgrwt>
</event>
<event>
 4    1  0.3992289E+006  0.7044540E+01  0.7546771E-02  0.2296527E+00
         21   -1    0    0  503  502  0.00000000000E+00  0.00000000000E+00  0.12285344674E+02  0.12285344674E+02  0.00000000000E+00 0. -1.
         21   -1    0    0  501  503 -0.00000000000E+00 -0.00000000000E+00 -0.15854877871E+02  0.15854877871E+02  0.00000000000E+00 0. -1.
          5    1    1    2  501    0 -0.41330424629E+00 -0.52311302505E+01 -0.13930997793E+02  0.15610837377E+02  0.47000000000E+01 0. -1.
         -5    1    1    2    0  502  0.41330424629E+00  0.52311302505E+01  0.10361464597E+02  0.12529385168E+02  0.47000000000E+01 0. -1.
<mgrwt>
<rscale>  2 0.70445400E+01</rscale>
<asrwt>0</asrwt>
<pdfrwt beam="1">  1       21 0.18900530E-02 0.70445400E+01</pdfrwt>
<pdfrwt beam="2">  1       21 0.24392120E-02 0.70445400E+01</pdfrwt>
<totfact> 0.40099525E+08</totfact>
</mgrwt>
</event>
<event>
 4    1  0.3992289E+006  0.5265238E+01  0.7546771E-02  0.2522148E+00
         21   -1    0    0  503  502  0.00000000000E+00  0.00000000000E+00  0.11584151824E+03  0.11584151824E+03  0.00000000000E+00 0. -1.
         21   -1    0    0  501  503 -0.00000000000E+00 -0.00000000000E+00 -0.94830513957E+00  0.94830513957E+00  0.00000000000E+00 0.  1.
          5    1    1    2  501    0 -0.23340740906E+01 -0.42991549600E+00  0.69548192510E+01  0.87230866101E+01  0.47000000000E+01 0.  1.
         -5    1    1    2    0  502  0.23340740906E+01  0.42991549600E+00  0.10793839385E+03  0.10806673677E+03  0.47000000000E+01 0. -1.
<mgrwt>
<rscale>  2 0.52652378E+01</rscale>
<asrwt>0</asrwt>
<pdfrwt beam="1">  1       21 0.17821761E-01 0.52652378E+01</pdfrwt>
<pdfrwt beam="2">  1       21 0.14589319E-03 0.52652378E+01</pdfrwt>
<totfact> 0.56789637E+08</totfact>
</mgrwt>
</event>
<event>
 4    1  0.3992289E+006  0.5409710E+01  0.7546771E-02  0.2499230E+00
         21   -1    0    0  503  502  0.00000000000E+00  0.00000000000E+00  0.21904619524E+01  0.21904619524E+01  0.00000000000E+00 0. -1.
         21   -1    0    0  501  503 -0.00000000000E+00 -0.00000000000E+00 -0.13427959542E+02  0.13427959542E+02  0.00000000000E+00 0. -1.
          5    1    1    2  501    0  0.25742539490E+01 -0.74039450050E+00 -0.61735652516E+01  0.82084027269E+01  0.47000000000E+01 0. -1.
         -5    1    1    2    0  502 -0.25742539490E+01  0.74039450050E+00 -0.50639323378E+01  0.74100187673E+01  0.47000000000E+01 0. -1.
<mgrwt>
<rscale>  2 0.54097105E+01</rscale>
<asrwt>0</asrwt>
<pdfrwt beam="1">  1       21 0.33699413E-03 0.54097105E+01</pdfrwt>
<pdfrwt beam="2">  1       21 0.20658400E-02 0.54097105E+01</pdfrwt>
<totfact> 0.46403184E+09</totfact>
</mgrwt>
</event>
<event>
 4    1  0.3992289E+006  0.4720750E+01  0.7546771E-02  0.2619212E+00
         21   -1    0    0  503  502  0.00000000000E+00  0.00000000000E+00  0.14022552708E+00  0.14022552708E+00  0.00000000000E+00 0.  1.
         21   -1    0    0  501  503 -0.00000000000E+00 -0.00000000000E+00 -0.23405563587E+03  0.23405563587E+03  0.00000000000E+00 0.  1.
          5    1    1    2  501    0 -0.14561824720E+00  0.41746212622E+00 -0.18330074531E+03  0.18336152462E+03  0.47000000000E+01 0.  1.
         -5    1    1    2    0  502  0.14561824720E+00 -0.41746212622E+00 -0.50614665034E+02  0.50834336779E+02  0.47000000000E+01 0.  1.
<mgrwt>
<rscale>  2 0.47207499E+01</rscale>
<asrwt>0</asrwt>
<pdfrwt beam="1">  1       21 0.21573018E-04 0.47207499E+01</pdfrwt>
<pdfrwt beam="2">  1       21 0.36008793E-01 0.47207499E+01</pdfrwt>
<totfact> 0.20668021E+09</totfact>
</mgrwt>
</event>
<event>
 4    1  0.3992289E+006  0.6017067E+01  0.7546771E-02  0.2413208E+00
         21   -1    0    0  501  502  0.00000000000E+00  0.00000000000E+00  0.22438380966E+03  0.22438380966E+03  0.00000000000E+00 0. -1.
         21   -1    0    0  502  503 -0.00000000000E+00 -0.00000000000E+00 -0.58930882017E+00  0.58930882017E+00  0.00000000000E+00 0.  1.
          5    1    1    2  501    0 -0.35115589766E+01 -0.13356842978E+01  0.20775526039E+03  0.20784237614E+03  0.47000000000E+01 0. -1.
         -5    1    1    2    0  503  0.35115589766E+01  0.13356842978E+01  0.16039240452E+02  0.17130742344E+02  0.47000000000E+01 0.  1.
<mgrwt>
<rscale>  2 0.60170673E+01</rscale>
<asrwt>0</asrwt>
<pdfrwt beam="1">  1       21 0.34520518E-01 0.60170673E+01</pdfrwt>
<pdfrwt beam="2">  1       21 0.90663075E-04 0.60170673E+01</pdfrwt>
<totfact> 0.40163091E+08</totfact>
</mgrwt>
</event>
<event>
 4    1  0.3992289E+006  0.4816985E+01  0.7546771E-02  0.2600682E+00
         21   -1    0    0  501  502  0.00000000000E+00  0.00000000000E+00  0.19431530405E+03  0.19431530405E+03  0.00000000000E+00 0.  1.
         21   -1    0    0  502  503 -0.00000000000E+00 -0.00000000000E+00 -0.38117356449E+00  0.38117356449E+00  0.00000000000E+00 0.  1.
          5    1    1    2  501    0 -0.10129997309E+01  0.29525331743E+00  0.17763866308E+03  0.17770396158E+03  0.47000000000E+01 0.  1.
         -5    1    1    2    0  503  0.10129997309E+01 -0.29525331743E+00  0.16295467410E+02  0.16992516032E+02  0.47000000000E+01 0.  1.
<mgrwt>
<rscale>  2 0.48169848E+01</rscale>
<asrwt>0</asrwt>
<pdfrwt beam="1">  1       21 0.29894583E-01 0.48169848E+01</pdfrwt>
<pdfrwt beam="2">  1       21 0.58642242E-04 0.48169848E+01</pdfrwt>
<totfact> 0.76618657E+08</totfact>
</mgrwt>
</event>
<event>
 4    1  0.3992289E+006  0.7152159E+01  0.7546771E-02  0.2285922E+00
         21   -1    0    0  503  502  0.00000000000E+00  0.00000000000E+00  0.13609486174E+03  0.13609486174E+03  0.00000000000E+00 0.  1.
         21   -1    0    0  501  503 -0.00000000000E+00 -0.00000000000E+00 -0.26192944014E+01  0.26192944014E+01  0.00000000000E+00 0.  1.
          5    1    1    2  501    0  0.47063127253E+01  0.26294481984E+01  0.25496458437E+01  0.75930278035E+01  0.47000000000E+01 0.  1.
         -5    1    1    2    0  502 -0.47063127253E+01 -0.26294481984E+01  0.13092592149E+03  0.13112112834E+03  0.47000000000E+01 0.  1.
<mgrwt>
<rscale>  2 0.71521589E+01</rscale>
<asrwt>0</asrwt>
<pdfrwt beam="1">  1       21 0.20937666E-01 0.71521589E+01</pdfrwt>
<pdfrwt beam="2">  1       21 0.40296848E-03 0.71521589E+01</pdfrwt>
<totfact> 0.13471218E+08</totfact>
</mgrwt>
</event>
<event>
 4    1  0.3992289E+006  0.1014456E+02  0.7546771E-02  0.2066853E+00
         21   -1    0    0  503  502  0.00000000000E+00  0.00000000000E+00  0.36447323875E+01  0.36447323875E+01  0.00000000000E+00 0.  1.
         21   -1    0    0  501  503 -0.00000000000E+00 -0.00000000000E+00 -0.40799775267E+02  0.40799775267E+02  0.00000000000E+00 0.  1.
          5    1    1    2  501    0 -0.88829947575E+01  0.13836424024E+01 -0.30909198717E+02  0.32531379121E+02  0.47000000000E+01 0.  1.
         -5    1    1    2    0  502  0.88829947575E+01 -0.13836424024E+01 -0.62458441624E+01  0.11913128534E+02  0.47000000000E+01 0.  1.
<mgrwt>
<rscale>  2 0.10144558E+02</rscale>
<asrwt>0</asrwt>
<pdfrwt beam="1">  1       21 0.56072807E-03 0.10144558E+02</pdfrwt>
<pdfrwt beam="2">  1       21 0.62768883E-02 0.10144558E+02</pdfrwt>
<totfact> 0.69815351E+08</totfact>
</mgrwt>
</event>
<event>
 4    1  0.3992289E+006  0.7288631E+01  0.7546771E-02  0.2272843E+00
         21   -1    0    0  503  502  0.00000000000E+00  0.00000000000E+00  0.81691064392E+01  0.81691064392E+01  0.00000000000E+00 0.  1.
         21   -1    0    0  501  503 -0.00000000000E+00 -0.00000000000E+00 -0.77265463041E+01  0.77265463041E+01  0.00000000000E+00 0.  1.
          5    1    1    2  501    0  0.50341272700E+01  0.23857304915E+01 -0.29414063472E+01  0.78597721753E+01  0.47000000000E+01 0.  1.
         -5    1    1    2    0  502 -0.50341272700E+01 -0.23857304915E+01  0.33839664823E+01  0.80358805679E+01  0.47000000000E+01 0.  1.
<mgrwt>
<rscale>  2 0.72886314E+01</rscale>
<asrwt>0</asrwt>
<pdfrwt beam="1">  1       21 0.12567856E-02 0.72886314E+01</pdfrwt>
<pdfrwt beam="2">  1       21 0.11886994E-02 0.72886314E+01</pdfrwt>
<totfact> 0.20927694E+09</totfact>
</mgrwt>
</event>
<event>
 4    1  0.3992289E+006  0.5316162E+01  0.7546771E-02  0.2513948E+00
         21   -1    0    0  501  502  0.00000000000E+00  0.00000000000E+00  0.13238826028E+03  0.13238826028E+03  0.00000000000E+00 0. -1.
         21   -1    0    0  502  503 -0.00000000000E+00 -0.00000000000E+00 -0.31110580528E+00  0.31110580528E+00  0.00000000000E+00 0. -1.
          5    1    1    2  501    0 -0.24307421175E+01  0.51290821690E+00  0.28869801151E+02  0.29355186945E+02  0.47000000000E+01 0. -1.
         -5    1    1    2    0  503  0.24307421175E+01 -0.51290821690E+00  0.10320735332E+03  0.10334417914E+03  0.47000000000E+01 0. -1.
<mgrwt>
<rscale>  2 0.53161623E+01</rscale>
<asrwt>0</asrwt>
<pdfrwt beam="1">  1       21 0.20367380E-01 0.53161623E+01</pdfrwt>
<pdfrwt beam="2">  1       21 0.47862537E-04 0.53161623E+01</pdfrwt>
<totfact> 0.20444873E+09</totfact>
</mgrwt>
</event>
<event>
 4    1  0.3992289E+006  0.4894016E+01  0.7546771E-02  0.2586306E+00
         21   -1    0    0  501  502  0.00000000000E+00  0.00000000000E+00  0.10924765628E+00  0.10924765628E+00  0.00000000000E+00 0. -1.
         21   -1    0    0  502  503 -0.00000000000E+00 -0.00000000000E+00 -0.22024290288E+03  0.22024290288E+03  0.00000000000E+00 0. -1.
          5    1    1    2  501    0 -0.57508291972E+00  0.12372046744E+01 -0.10263003910E+03  0.10274666087E+03  0.47000000000E+01 0. -1.
         -5    1    1    2    0  503  0.57508291972E+00 -0.12372046744E+01 -0.11750361612E+03  0.11760548966E+03  0.47000000000E+01 0. -1.
<mgrwt>
<rscale>  2 0.48940163E+01</rscale>
<asrwt>0</asrwt>
<pdfrwt beam="1">  1       21 0.16807398E-04 0.48940163E+01</pdfrwt>
<pdfrwt beam="2">  1       21 0.33883390E-01 0.48940163E+01</pdfrwt>
<totfact> 0.32945622E+09</totfact>
</mgrwt>
</event>
<event>
 4    1  0.3992289E+006  0.5159451E+01  0.7546771E-02  0.2539622E+00
         21   -1    0    0  503  502  0.00000000000E+00  0.00000000000E+00  0.25673078116E+02  0.25673078116E+02  0.00000000000E+00 0. -1.
         21   -1    0    0  501  503 -0.00000000000E+00 -0.00000000000E+00 -0.31568046121E+01  0.31568046121E+01  0.00000000000E+00 0. -1.
          5    1    1    2  501    0  0.18967893937E+01  0.96546407578E+00 -0.55456173969E+00  0.51891684892E+01  0.47000000000E+01 0. -1.
         -5    1    1    2    0  502 -0.18967893937E+01 -0.96546407578E+00  0.23070835244E+02  0.23640714239E+02  0.47000000000E+01 0. -1.
<mgrwt>
<rscale>  2 0.51594506E+01</rscale>
<asrwt>0</asrwt>
<pdfrwt beam="1">  1       21 0.39497042E-02 0.51594506E+01</pdfrwt>
<pdfrwt beam="2">  1       21 0.48566227E-03 0.51594506E+01</pdfrwt>
<totfact> 0.10563743E+09</totfact>
</mgrwt>
</event>
<event>
 4    1  0.3992289E+006  0.4709782E+01  0.7546771E-02  0.2621365E+00
         21   -1    0    0  503  502  0.00000000000E+00  0.00000000000E+00  0.57781011844E+00  0.57781011844E+00  0.00000000000E+00 0.  1.
         21   -1    0    0  501  503 -0.00000000000E+00 -0.00000000000E+00 -0.59282487113E+02  0.59282487113E+02  0.00000000000E+00 0.  1.
          5    1    1    2  501    0 -0.30170291536E+00 -0.32030208420E-01 -0.47120486928E+02  0.47355277836E+02  0.47000000000E+01 0.  1.
         -5    1    1    2    0  502  0.30170291536E+00  0.32030208420E-01 -0.11584190066E+02  0.12505019395E+02  0.47000000000E+01 0.  1.
<mgrwt>
<rscale>  2 0.47097824E+01</rscale>
<asrwt>0</asrwt>
<pdfrwt beam="1">  1       21 0.88893867E-04 0.47097824E+01</pdfrwt>
<pdfrwt beam="2">  1       21 0.91203823E-02 0.47097824E+01</pdfrwt>
<totfact> 0.27709029E+09</totfact>
</mgrwt>
</event>
<event>
 4    1  0.3992289E+006  0.7578789E+01  0.7546771E-02  0.2246318E+00
         21   -1    0    0  501  502  0.00000000000E+00  0.00000000000E+00  0.29465979853E+03  0.29465979853E+03  0.00000000000E+00 0.  1.
         21   -1    0    0  502  503 -0.00000000000E+00 -0.00000000000E+00 -0.57346191313E+00  0.57346191313E+00  0.00000000000E+00 0.  1.
          5    1    1    2  501    0  0.66502228011E+00 -0.59081123163E+01  0.26697493340E+03  0.26708248372E+03  0.47000000000E+01 0.  1.
         -5    1    1    2    0  503 -0.66502228011E+00  0.59081123163E+01  0.27111403223E+02  0.28150776730E+02  0.47000000000E+01 0.  1.
<mgrwt>
<rscale>  2 0.75787892E+01</rscale>
<asrwt>0</asrwt>
<pdfrwt beam="1">  1       21 0.45332156E-01 0.75787892E+01</pdfrwt>
<pdfrwt beam="2">  1       21 0.88225145E-04 0.75787892E+01</pdfrwt>
<totfact> 0.29879021E+08</totfact>
</mgrwt>
</event>
<event>
 4    1  0.3992289E+006  0.4920948E+01  0.7546771E-02  0.2581371E+00
         21   -1    0    0  501  502  0.00000000000E+00  0.00000000000E+00  0.68891201693E+02  0.68891201693E+02  0.00000000000E+00 0.  1.
         21   -1    0    0  502  503 -0.00000000000E+00 -0.00000000000E+00 -0.37210213524E+00  0.37210213524E+00  0.00000000000E+00 0.  1.
          5    1    1    2  501    0 -0.13829918800E+01 -0.46159155104E+00  0.42407069494E+02  0.42691630050E+02  0.47000000000E+01 0.  1.
         -5    1    1    2    0  503  0.13829918800E+01  0.46159155104E+00  0.26112030064E+02  0.26571673778E+02  0.47000000000E+01 0.  1.
<mgrwt>
<rscale>  2 0.49209484E+01</rscale>
<asrwt>0</asrwt>
<pdfrwt beam="1">  1       21 0.10598636E-01 0.49209484E+01</pdfrwt>
<pdfrwt beam="2">  1       21 0.57246537E-04 0.49209484E+01</pdfrwt>
<totfact> 0.41372818E+09</totfact>
</mgrwt>
</event>
<event>
 4    1  0.3992289E+006  0.5704191E+01  0.7546771E-02  0.2455591E+00
         21   -1    0    0  503  502  0.00000000000E+00  0.00000000000E+00  0.13440235328E+02  0.13440235328E+02  0.00000000000E+00 0. -1.
         21   -1    0    0  501  503 -0.00000000000E+00 -0.00000000000E+00 -0.33982098789E+01  0.33982098789E+01  0.00000000000E+00 0. -1.
          5    1    1    2  501    0 -0.32274391117E+01 -0.17729716067E+00  0.50601482613E+00  0.57265913515E+01  0.47000000000E+01 0. -1.
         -5    1    1    2    0  502  0.32274391117E+01  0.17729716067E+00  0.95360106229E+01  0.11111853855E+02  0.47000000000E+01 0. -1.
<mgrwt>
<rscale>  2 0.57041912E+01</rscale>
<asrwt>0</asrwt>
<pdfrwt beam="1">  1       21 0.20677285E-02 0.57041912E+01</pdfrwt>
<pdfrwt beam="2">  1       21 0.52280153E-03 0.57041912E+01</pdfrwt>
<totfact> 0.26599949E+09</totfact>
</mgrwt>
</event>
<event>
 4    1  0.3992289E+006  0.9578335E+01  0.7546771E-02  0.2099810E+00
         21   -1    0    0  503  502  0.00000000000E+00  0.00000000000E+00  0.10575695570E+01  0.10575695570E+01  0.00000000000E+00 0. -1.
         21   -1    0    0  501  503 -0.00000000000E+00 -0.00000000000E+00 -0.28645977910E+03  0.28645977910E+03  0.00000000000E+00 0.  1.
          5    1    1    2  501    0 -0.15637151712E+01 -0.81981274778E+01 -0.26273435025E+03  0.26290888783E+03  0.47000000000E+01 0.  1.
         -5    1    1    2    0  502  0.15637151712E+01  0.81981274778E+01 -0.22667859289E+02  0.24608460822E+02  0.47000000000E+01 0. -1.
<mgrwt>
<rscale>  2 0.95783349E+01</rscale>
<asrwt>0</asrwt>
<pdfrwt beam="1">  1       21 0.16270313E-03 0.95783349E+01</pdfrwt>
<pdfrwt beam="2">  1       21 0.44070702E-01 0.95783349E+01</pdfrwt>
<totfact> 0.15308770E+08</totfact>
</mgrwt>
</event>
<event>
 4    1  0.3992289E+006  0.8465216E+01  0.7546771E-02  0.2174543E+00
         21   -1    0    0  501  502  0.00000000000E+00  0.00000000000E+00  0.39050675943E+01  0.39050675943E+01  0.00000000000E+00 0.  1.
         21   -1    0    0  502  503 -0.00000000000E+00 -0.00000000000E+00 -0.18681779051E+02  0.18681779051E+02  0.00000000000E+00 0. -1.
          5    1    1    2  501    0  0.29348951751E+01  0.63997088155E+01 -0.58844396727E+01  0.10309535046E+02  0.47000000000E+01 0.  1.
         -5    1    1    2    0  503 -0.29348951751E+01 -0.63997088155E+01 -0.88922717839E+01  0.12277311599E+02  0.47000000000E+01 0. -1.
<mgrwt>
<rscale>  2 0.84652160E+01</rscale>
<asrwt>0</asrwt>
<pdfrwt beam="1">  1       21 0.60077963E-03 0.84652160E+01</pdfrwt>
<pdfrwt beam="2">  1       21 0.28741199E-02 0.84652160E+01</pdfrwt>
<totfact> 0.18473925E+09</totfact>
</mgrwt>
</event>
<event>
 4    1  0.3992289E+006  0.6105189E+01  0.7546771E-02  0.2401931E+00
         21   -1    0    0  501  502  0.00000000000E+00  0.00000000000E+00  0.11143257673E+01  0.11143257673E+01  0.00000000000E+00 0. -1.
         21   -1    0    0  502  503 -0.00000000000E+00 -0.00000000000E+00 -0.34374777755E+02  0.34374777755E+02  0.00000000000E+00 0. -1.
          5    1    1    2  501    0  0.36741340477E+01  0.12977162975E+01 -0.13718525717E+02  0.15015700998E+02  0.47000000000E+01 0. -1.
         -5    1    1    2    0  503 -0.36741340477E+01 -0.12977162975E+01 -0.19541926270E+02  0.20473402525E+02  0.47000000000E+01 0. -1.
<mgrwt>
<rscale>  2 0.61051887E+01</rscale>
<asrwt>0</asrwt>
<pdfrwt beam="1">  1       21 0.17143475E-03 0.61051887E+01</pdfrwt>
<pdfrwt beam="2">  1       21 0.52884269E-02 0.61051887E+01</pdfrwt>
<totfact> 0.33168759E+09</totfact>
</mgrwt>
</event>
<event>
 4    1  0.3992289E+006  0.5007015E+01  0.7546771E-02  0.2565911E+00
         21   -1    0    0  503  502  0.00000000000E+00  0.00000000000E+00  0.74306615450E+00  0.74306615450E+00  0.00000000000E+00 0. -1.
         21   -1    0    0  501  503 -0.00000000000E+00 -0.00000000000E+00 -0.62990416924E+02  0.62990416924E+02  0.00000000000E+00 0. -1.
          5    1    1    2  501    0 -0.64435156620E+00 -0.16015661636E+01 -0.52839430129E+02  0.53076130035E+02  0.47000000000E+01 0. -1.
         -5    1    1    2    0  502  0.64435156620E+00  0.16015661636E+01 -0.94079206397E+01  0.10657353043E+02  0.47000000000E+01 0. -1.
<mgrwt>
<rscale>  2 0.50070154E+01</rscale>
<asrwt>0</asrwt>
<pdfrwt beam="1">  1       21 0.11431787E-03 0.50070154E+01</pdfrwt>
<pdfrwt beam="2">  1       21 0.96908330E-02 0.50070154E+01</pdfrwt>
<totfact> 0.19258559E+09</totfact>
</mgrwt>
</event>
<event>
 4    1  0.3992289E+006  0.1638421E+02  0.7546771E-02  0.1828550E+00
         21   -1    0    0  503  502  0.00000000000E+00  0.00000000000E+00  0.12713951516E+02  0.12713951516E+02  0.00000000000E+00 0.  1.
         21   -1    0    0  501  503 -0.00000000000E+00 -0.00000000000E+00 -0.21982140984E+02  0.21982140984E+02  0.00000000000E+00 0. -1.
          5    1    1    2  501    0  0.37466940341E+01 -0.15241872902E+02 -0.11865488974E+01  0.16427120990E+02  0.47000000000E+01 0. -1.
         -5    1    1    2    0  502 -0.37466940341E+01  0.15241872902E+02 -0.80816405708E+01  0.18268971510E+02  0.47000000000E+01 0.  1.
<mgrwt>
<rscale>  2 0.16384212E+02</rscale>
<asrwt>0</asrwt>
<pdfrwt beam="1">  1       21 0.19559926E-02 0.16384212E+02</pdfrwt>
<pdfrwt beam="2">  1       21 0.33818678E-02 0.16384212E+02</pdfrwt>
<totfact> 0.36300156E+08</totfact>
</mgrwt>
</event>
<event>
 4    1  0.3992289E+006  0.1024018E+02  0.7546771E-02  0.2061571E+00
         21   -1    0    0  501  502  0.00000000000E+00  0.00000000000E+00  0.56360698511E+02  0.56360698511E+02  0.00000000000E+00 0. -1.
         21   -1    0    0  502  503 -0.00000000000E+00 -0.00000000000E+00 -0.40315142400E+01  0.40315142400E+01  0.00000000000E+00 0.  1.
          5    1    1    2  501    0 -0.82576301146E+01 -0.38187534550E+01  0.40058968978E+01  0.10995842078E+02  0.47000000000E+01 0.  1.
         -5    1    1    2    0  503  0.82576301146E+01  0.38187534550E+01  0.48323287373E+02  0.49396370672E+02  0.47000000000E+01 0. -1.
<mgrwt>
<rscale>  2 0.10240182E+02</rscale>
<asrwt>0</asrwt>
<pdfrwt beam="1">  1       21 0.86708761E-02 0.10240182E+02</pdfrwt>
<pdfrwt beam="2">  1       21 0.62023300E-03 0.10240182E+02</pdfrwt>
<totfact> 0.36653430E+08</totfact>
</mgrwt>
</event>
<event>
 4    1  0.3992289E+006  0.6207134E+01  0.7546771E-02  0.2389220E+00
         21   -1    0    0  503  502  0.00000000000E+00  0.00000000000E+00  0.64866474718E+00  0.64866474718E+00  0.00000000000E+00 0. -1.
         21   -1    0    0  501  503 -0.00000000000E+00 -0.00000000000E+00 -0.62243502305E+02  0.62243502305E+02  0.00000000000E+00 0.  1.
          5    1    1    2  501    0  0.29712075597E+01  0.27587028860E+01 -0.37522563988E+02  0.38032503523E+02  0.47000000000E+01 0. -1.
         -5    1    1    2    0  502 -0.29712075597E+01 -0.27587028860E+01 -0.24072273570E+02  0.24859663530E+02  0.47000000000E+01 0. -1.
<mgrwt>
<rscale>  2 0.62071343E+01</rscale>
<asrwt>0</asrwt>
<pdfrwt beam="1">  1       21 0.99794567E-04 0.62071343E+01</pdfrwt>
<pdfrwt beam="2">  1       21 0.95759243E-02 0.62071343E+01</pdfrwt>
<totfact> 0.28521819E+09</totfact>
</mgrwt>
</event>
<event>
 4    1  0.3992289E+006  0.1404245E+02  0.7546771E-02  0.1898777E+00
         21   -1    0    0  503  502  0.00000000000E+00  0.00000000000E+00  0.16937312800E+01  0.16937312800E+01  0.00000000000E+00 0.  1.
         21   -1    0    0  501  503 -0.00000000000E+00 -0.00000000000E+00 -0.34368238150E+03  0.34368238150E+03  0.00000000000E+00 0. -1.
          5    1    1    2  501    0 -0.91052366959E+01  0.96018260826E+01 -0.31141916711E+03  0.31173560599E+03  0.47000000000E+01 0. -1.
         -5    1    1    2    0  502  0.91052366959E+01 -0.96018260826E+01 -0.30569483115E+02  0.33640506793E+02  0.47000000000E+01 0.  1.
<mgrwt>
<rscale>  2 0.14042450E+02</rscale>
<asrwt>0</asrwt>
<pdfrwt beam="1">  1       21 0.26057382E-03 0.14042450E+02</pdfrwt>
<pdfrwt beam="2">  1       21 0.52874258E-01 0.14042450E+02</pdfrwt>
<totfact> 0.65109795E+07</totfact>
</mgrwt>
</event>
<event>
 4    1  0.3992289E+006  0.5389680E+01  0.7546771E-02  0.2502345E+00
         21   -1    0    0  503  502  0.00000000000E+00  0.00000000000E+00  0.16388285293E+03  0.16388285293E+03  0.00000000000E+00 0.  1.
         21   -1    0    0  501  503 -0.00000000000E+00 -0.00000000000E+00 -0.17753402640E+00  0.17753402640E+00  0.00000000000E+00 0.  1.
          5    1    1    2  501    0  0.25081382599E+01  0.81724498332E+00  0.85119180134E+02  0.85289644586E+02  0.47000000000E+01 0.  1.
         -5    1    1    2    0  502 -0.25081382599E+01 -0.81724498332E+00  0.78586138766E+02  0.78770742367E+02  0.47000000000E+01 0.  1.
<mgrwt>
<rscale>  2 0.53896797E+01</rscale>
<asrwt>0</asrwt>
<pdfrwt beam="1">  1       21 0.25212626E-01 0.53896797E+01</pdfrwt>
<pdfrwt beam="2">  1       21 0.27313058E-04 0.53896797E+01</pdfrwt>
<totfact> 0.30868784E+09</totfact>
</mgrwt>
</event>
<event>
 4    1  0.3992289E+006  0.6521278E+01  0.7546771E-02  0.2352144E+00
         21   -1    0    0  501  502  0.00000000000E+00  0.00000000000E+00  0.31057502276E+03  0.31057502276E+03  0.00000000000E+00 0.  1.
         21   -1    0    0  502  503 -0.00000000000E+00 -0.00000000000E+00 -0.14297607155E+00  0.14297607155E+00  0.00000000000E+00 0.  1.
          5    1    1    2  501    0  0.39941162429E+01  0.21175709804E+01  0.18716356880E+03  0.18727714371E+03  0.47000000000E+01 0.  1.
         -5    1    1    2    0  503 -0.39941162429E+01 -0.21175709804E+01  0.12326847789E+03  0.12344085512E+03  0.47000000000E+01 0.  1.
<mgrwt>
<rscale>  2 0.65212784E+01</rscale>
<asrwt>0</asrwt>
<pdfrwt beam="1">  1       21 0.47780233E-01 0.65212784E+01</pdfrwt>
<pdfrwt beam="2">  1       21 0.21996567E-04 0.65212784E+01</pdfrwt>
<totfact> 0.16021618E+09</totfact>
</mgrwt>
</event>
<event>
 4    1  0.3992289E+006  0.5306032E+01  0.7546771E-02  0.2515569E+00
         21   -1    0    0  503  502  0.00000000000E+00  0.00000000000E+00  0.22147802312E+03  0.22147802312E+03  0.00000000000E+00 0.  1.
         21   -1    0    0  501  503 -0.00000000000E+00 -0.00000000000E+00 -0.26153191553E+00  0.26153191553E+00  0.00000000000E+00 0.  1.
          5    1    1    2  501    0  0.50669309283E-01 -0.24619928299E+01  0.31125661778E+02  0.31574686019E+02  0.47000000000E+01 0.  1.
         -5    1    1    2    0  502 -0.50669309283E-01  0.24619928299E+01  0.19009082943E+03  0.19016486902E+03  0.47000000000E+01 0.  1.
<mgrwt>
<rscale>  2 0.53060320E+01</rscale>
<asrwt>0</asrwt>
<pdfrwt beam="1">  1       21 0.34073392E-01 0.53060320E+01</pdfrwt>
<pdfrwt beam="2">  1       21 0.40235856E-04 0.53060320E+01</pdfrwt>
<totfact> 0.11027181E+09</totfact>
</mgrwt>
</event>
<event>
 4    1  0.3992289E+006  0.7459630E+01  0.7546771E-02  0.2257008E+00
         21   -1    0    0  503  502  0.00000000000E+00  0.00000000000E+00  0.45328019446E+02  0.45328019446E+02  0.00000000000E+00 0.  1.
         21   -1    0    0  501  503 -0.00000000000E+00 -0.00000000000E+00 -0.13487697410E+01  0.13487697410E+01  0.00000000000E+00 0. -1.
          5    1    1    2  501    0  0.56673260153E+01  0.11989552710E+01  0.14995332927E+02  0.16748315960E+02  0.47000000000E+01 0. -1.
         -5    1    1    2    0  502 -0.56673260153E+01 -0.11989552710E+01  0.28983916778E+02  0.29928473227E+02  0.47000000000E+01 0.  1.
<mgrwt>
<rscale>  2 0.74596299E+01</rscale>
<asrwt>0</asrwt>
<pdfrwt beam="1">  1       21 0.69735403E-02 0.74596299E+01</pdfrwt>
<pdfrwt beam="2">  1       21 0.20750307E-03 0.74596299E+01</pdfrwt>
<totfact> 0.19737139E+09</totfact>
</mgrwt>
</event>
<event>
 4    1  0.3992289E+006  0.6769675E+01  0.7546771E-02  0.2324860E+00
         21   -1    0    0  501  502  0.00000000000E+00  0.00000000000E+00  0.49137363930E+03  0.49137363930E+03  0.00000000000E+00 0. -1.
         21   -1    0    0  502  503 -0.00000000000E+00 -0.00000000000E+00 -0.18210452954E+00  0.18210452954E+00  0.00000000000E+00 0. -1.
          5    1    1    2  501    0 -0.25740948709E+01 -0.41367307788E+01  0.41726118999E+03  0.41731610223E+03  0.47000000000E+01 0. -1.
         -5    1    1    2    0  503  0.25740948709E+01  0.41367307788E+01  0.73930344783E+02  0.74239641605E+02  0.47000000000E+01 0. -1.
<mgrwt>
<rscale>  2 0.67696755E+01</rscale>
<asrwt>0</asrwt>
<pdfrwt beam="1">  1       21 0.75594883E-01 0.67696755E+01</pdfrwt>
<pdfrwt beam="2">  1       21 0.28016475E-04 0.67696755E+01</pdfrwt>
<totfact> 0.50412440E+08</totfact>
</mgrwt>
</event>
<event>
 4    1  0.3992289E+006  0.6615583E+01  0.7546771E-02  0.2341586E+00
         21   -1    0    0  503  502  0.00000000000E+00  0.00000000000E+00  0.18049962502E+02  0.18049962502E+02  0.00000000000E+00 0. -1.
         21   -1    0    0  501  503 -0.00000000000E+00 -0.00000000000E+00 -0.84099160862E+01  0.84099160862E+01  0.00000000000E+00 0. -1.
          5    1    1    2  501    0  0.23033764328E+01 -0.40460352225E+01 -0.63409363788E+01  0.91637011176E+01  0.47000000000E+01 0. -1.
         -5    1    1    2    0  502 -0.23033764328E+01  0.40460352225E+01  0.15980982794E+02  0.17296177470E+02  0.47000000000E+01 0. -1.
<mgrwt>
<rscale>  2 0.66155834E+01</rscale>
<asrwt>0</asrwt>
<pdfrwt beam="1">  1       21 0.27769173E-02 0.66155834E+01</pdfrwt>
<pdfrwt beam="2">  1       21 0.12938333E-02 0.66155834E+01</pdfrwt>
<totfact> 0.54800551E+08</totfact>
</mgrwt>
</event>
<event>
 4    1  0.3992289E+006  0.9370147E+01  0.7546771E-02  0.2112711E+00
         21   -1    0    0  501  502  0.00000000000E+00  0.00000000000E+00  0.11947585475E+01  0.11947585475E+01  0.00000000000E+00 0.  1.
         21   -1    0    0  502  503 -0.00000000000E+00 -0.00000000000E+00 -0.93728308952E+02  0.93728308952E+02  0.00000000000E+00 0.  1.
          5    1    1    2  501    0 -0.40477161389E+01 -0.70232222930E+01 -0.68322521640E+02  0.68962066534E+02  0.47000000000E+01 0.  1.
         -5    1    1    2    0  503  0.40477161389E+01  0.70232222930E+01 -0.24211028764E+02  0.25961000966E+02  0.47000000000E+01 0.  1.
<mgrwt>
<rscale>  2 0.93701471E+01</rscale>
<asrwt>0</asrwt>
<pdfrwt beam="1">  1       21 0.18380898E-03 0.93701471E+01</pdfrwt>
<pdfrwt beam="2">  1       21 0.14419742E-01 0.93701471E+01</pdfrwt>
<totfact> 0.86407622E+08</totfact>
</mgrwt>
</event>
<event>
 4    1  0.3992289E+006  0.4801774E+01  0.7546771E-02  0.2603568E+00
         21   -1    0    0  503  502  0.00000000000E+00  0.00000000000E+00  0.95327571491E+01  0.95327571491E+01  0.00000000000E+00 0.  1.
         21   -1    0    0  501  503 -0.00000000000E+00 -0.00000000000E+00 -0.24272541308E+01  0.24272541308E+01  0.00000000000E+00 0.  1.
          5    1    1    2  501    0  0.79633175334E+00  0.57696340714E+00  0.39074248853E+01  0.61907188814E+01  0.47000000000E+01 0. -1.
         -5    1    1    2    0  502 -0.79633175334E+00 -0.57696340714E+00  0.31980781331E+01  0.57692923985E+01  0.47000000000E+01 0. -1.
<mgrwt>
<rscale>  2 0.48017737E+01</rscale>
<asrwt>0</asrwt>
<pdfrwt beam="1">  1       21 0.14665780E-02 0.48017737E+01</pdfrwt>
<pdfrwt beam="2">  1       21 0.37342372E-03 0.48017737E+01</pdfrwt>
<totfact> 0.57774509E+09</totfact>
</mgrwt>
</event>
<event>
 4    1  0.3992289E+006  0.5442712E+01  0.7546771E-02  0.2494140E+00
         21   -1    0    0  503  502  0.00000000000E+00  0.00000000000E+00  0.65100597524E+02  0.65100597524E+02  0.00000000000E+00 0.  1.
         21   -1    0    0  501  503 -0.00000000000E+00 -0.00000000000E+00 -0.88498238998E+00  0.88498238998E+00  0.00000000000E+00 0.  1.
          5    1    1    2  501    0 -0.46612882073E+00 -0.27047803483E+01  0.91114579877E+01  0.10613283162E+02  0.47000000000E+01 0.  1.
         -5    1    1    2    0  502  0.46612882073E+00  0.27047803483E+01  0.55104157146E+02  0.55372296752E+02  0.47000000000E+01 0.  1.
<mgrwt>
<rscale>  2 0.54427119E+01</rscale>
<asrwt>0</asrwt>
<pdfrwt beam="1">  1       21 0.10015473E-01 0.54427119E+01</pdfrwt>
<pdfrwt beam="2">  1       21 0.13615119E-03 0.54427119E+01</pdfrwt>
<totfact> 0.15676678E+09</totfact>
</mgrwt>
</event>
<event>
 4    1  0.3992289E+006  0.1268044E+02  0.7546771E-02  0.1948387E+00
         21   -1    0    0  503  502  0.00000000000E+00  0.00000000000E+00  0.17635836622E+02  0.17635836622E+02  0.00000000000E+00 0.  1.
         21   -1    0    0  501  503 -0.00000000000E+00 -0.00000000000E+00 -0.17410814179E+02  0.17410814179E+02  0.00000000000E+00 0. -1.
          5    1    1    2  501    0 -0.10963410238E+02  0.43020085535E+01 -0.11981564290E+02  0.17445673518E+02  0.47000000000E+01 0. -1.
         -5    1    1    2    0  502  0.10963410238E+02 -0.43020085535E+01  0.12206586734E+02  0.17600977283E+02  0.47000000000E+01 0.  1.
<mgrwt>
<rscale>  2 0.12680443E+02</rscale>
<asrwt>0</asrwt>
<pdfrwt beam="1">  1       21 0.27132056E-02 0.12680443E+02</pdfrwt>
<pdfrwt beam="2">  1       21 0.26785868E-02 0.12680443E+02</pdfrwt>
<totfact> 0.28318678E+08</totfact>
</mgrwt>
</event>
<event>
 4    1  0.3992289E+006  0.6422759E+01  0.7546771E-02  0.2363447E+00
         21   -1    0    0  503  502  0.00000000000E+00  0.00000000000E+00  0.15768961081E+03  0.15768961081E+03  0.00000000000E+00 0.  1.
         21   -1    0    0  501  503 -0.00000000000E+00 -0.00000000000E+00 -0.25370197332E+01  0.25370197332E+01  0.00000000000E+00 0. -1.
          5    1    1    2  501    0 -0.21163056219E+01  0.38318515343E+01  0.17057161901E+01  0.66453971580E+01  0.47000000000E+01 0. -1.
         -5    1    1    2    0  502  0.21163056219E+01 -0.38318515343E+01  0.15344687489E+03  0.15358123339E+03  0.47000000000E+01 0.  1.
<mgrwt>
<rscale>  2 0.64227592E+01</rscale>
<asrwt>0</asrwt>
<pdfrwt beam="1">  1       21 0.24259932E-01 0.64227592E+01</pdfrwt>
<pdfrwt beam="2">  1       21 0.39031085E-03 0.64227592E+01</pdfrwt>
<totfact> 0.10374216E+08</totfact>
</mgrwt>
</event>
<event>
 4    1  0.3992289E+006  0.8702833E+01  0.7546771E-02  0.2157319E+00
         21   -1    0    0  501  502  0.00000000000E+00  0.00000000000E+00  0.40955612579E+01  0.40955612579E+01  0.00000000000E+00 0. -1.
         21   -1    0    0  502  503 -0.00000000000E+00 -0.00000000000E+00 -0.21471180325E+02  0.21471180325E+02  0.00000000000E+00 0.  1.
          5    1    1    2  501    0 -0.57877578610E+01  0.44890040909E+01 -0.39268836757E+01  0.95477596423E+01  0.47000000000E+01 0. -1.
         -5    1    1    2    0  503  0.57877578610E+01 -0.44890040909E+01 -0.13448735391E+02  0.16018981941E+02  0.47000000000E+01 0.  1.
<mgrwt>
<rscale>  2 0.87028328E+01</rscale>
<asrwt>0</asrwt>
<pdfrwt beam="1">  1       21 0.63008634E-03 0.87028328E+01</pdfrwt>
<pdfrwt beam="2">  1       21 0.33032585E-02 0.87028328E+01</pdfrwt>
<totfact> 0.14293651E+09</totfact>
</mgrwt>
</event>
<event>
 4    1  0.3992289E+006  0.4890473E+01  0.7546771E-02  0.2586958E+00
         21   -1    0    0  503  502  0.00000000000E+00  0.00000000000E+00  0.19686131601E+01  0.19686131601E+01  0.00000000000E+00 0. -1.
         21   -1    0    0  501  503 -0.00000000000E+00 -0.00000000000E+00 -0.12149924480E+02  0.12149924480E+02  0.00000000000E+00 0. -1.
          5    1    1    2  501    0  0.13508075045E+01 -0.45250831029E-01 -0.51514281700E+01  0.71030937444E+01  0.47000000000E+01 0. -1.
         -5    1    1    2    0  502 -0.13508075045E+01  0.45250831029E-01 -0.50298831501E+01  0.70154438958E+01  0.47000000000E+01 0. -1.
<mgrwt>
<rscale>  2 0.48904732E+01</rscale>
<asrwt>0</asrwt>
<pdfrwt beam="1">  1       21 0.30286356E-03 0.48904732E+01</pdfrwt>
<pdfrwt beam="2">  1       21 0.18692192E-02 0.48904732E+01</pdfrwt>
<totfact> 0.55672826E+09</totfact>
</mgrwt>
</event>
<event>
 4    1  0.3992289E+006  0.4786844E+01  0.7546771E-02  0.2606416E+00
         21   -1    0    0  501  502  0.00000000000E+00  0.00000000000E+00  0.14596025138E+02  0.14596025138E+02  0.00000000000E+00 0.  1.
         21   -1    0    0  502  503 -0.00000000000E+00 -0.00000000000E+00 -0.35711328208E+01  0.35711328208E+01  0.00000000000E+00 0.  1.
          5    1    1    2  501    0 -0.54691964778E+00 -0.72440053730E+00  0.12312399695E+02  0.13210187867E+02  0.47000000000E+01 0.  1.
         -5    1    1    2    0  503  0.54691964778E+00  0.72440053730E+00 -0.12875073778E+01  0.49569700914E+01  0.47000000000E+01 0.  1.
<mgrwt>
<rscale>  2 0.47868442E+01</rscale>
<asrwt>0</asrwt>
<pdfrwt beam="1">  1       21 0.22455423E-02 0.47868442E+01</pdfrwt>
<pdfrwt beam="2">  1       21 0.54940506E-03 0.47868442E+01</pdfrwt>
<totfact> 0.18630593E+09</totfact>
</mgrwt>
</event>
<event>
 4    1  0.3992289E+006  0.7855630E+01  0.7546771E-02  0.2222503E+00
         21   -1    0    0  501  502  0.00000000000E+00  0.00000000000E+00  0.19186623790E+00  0.19186623790E+00  0.00000000000E+00 0. -1.
         21   -1    0    0  502  503 -0.00000000000E+00 -0.00000000000E+00 -0.36854632722E+03  0.36854632722E+03  0.00000000000E+00 0. -1.
          5    1    1    2  501    0  0.50526654411E+01  0.37538642629E+01 -0.24995517226E+03  0.25007858577E+03  0.47000000000E+01 0. -1.
         -5    1    1    2    0  503 -0.50526654411E+01 -0.37538642629E+01 -0.11839928873E+03  0.11865960769E+03  0.47000000000E+01 0. -1.
<mgrwt>
<rscale>  2 0.78556301E+01</rscale>
<asrwt>0</asrwt>
<pdfrwt beam="1">  1       21 0.29517989E-04 0.78556301E+01</pdfrwt>
<pdfrwt beam="2">  1       21 0.56699230E-01 0.78556301E+01</pdfrwt>
<totfact> 0.89024337E+08</totfact>
</mgrwt>
</event>
<event>
 4    1  0.3992289E+006  0.5846600E+01  0.7546771E-02  0.2435827E+00
         21   -1    0    0  501  502  0.00000000000E+00  0.00000000000E+00  0.64775412806E+00  0.64775412806E+00  0.00000000000E+00 0. -1.
         21   -1    0    0  502  503 -0.00000000000E+00 -0.00000000000E+00 -0.71844067191E+02  0.71844067191E+02  0.00000000000E+00 0. -1.
          5    1    1    2  501    0  0.31847374557E+01 -0.13964888955E+01 -0.16922664271E+02  0.17904169903E+02  0.47000000000E+01 0. -1.
         -5    1    1    2    0  503 -0.31847374557E+01  0.13964888955E+01 -0.54273648791E+02  0.54587651415E+02  0.47000000000E+01 0. -1.
<mgrwt>
<rscale>  2 0.58466002E+01</rscale>
<asrwt>0</asrwt>
<pdfrwt beam="1">  1       21 0.99654546E-04 0.58466002E+01</pdfrwt>
<pdfrwt beam="2">  1       21 0.11052926E-01 0.58466002E+01</pdfrwt>
<totfact> 0.21788931E+09</totfact>
</mgrwt>
</event>
<event>
 4    1  0.3992289E+006  0.1688237E+02  0.7546771E-02  0.1815530E+00
         21   -1    0    0  501  502  0.00000000000E+00  0.00000000000E+00  0.45858636702E+02  0.45858636702E+02  0.00000000000E+00 0.  1.
         21   -1    0    0  502  503 -0.00000000000E+00 -0.00000000000E+00 -0.11794892531E+02  0.11794892531E+02  0.00000000000E+00 0. -1.
          5    1    1    2  501    0 -0.13538606452E+02  0.89235935928E+01  0.36858977381E+02  0.40541319674E+02  0.47000000000E+01 0.  1.
         -5    1    1    2    0  503  0.13538606452E+02 -0.89235935928E+01 -0.27952332104E+01  0.17112209559E+02  0.47000000000E+01 0. -1.
<mgrwt>
<rscale>  2 0.16882369E+02</rscale>
<asrwt>0</asrwt>
<pdfrwt beam="1">  1       21 0.70551748E-02 0.16882369E+02</pdfrwt>
<pdfrwt beam="2">  1       21 0.18145989E-02 0.16882369E+02</pdfrwt>
<totfact> 0.12970382E+08</totfact>
</mgrwt>
</event>
<event>
 4    1  0.3992289E+006  0.1005360E+02  0.7546771E-02  0.2071950E+00
         21   -1    0    0  501  502  0.00000000000E+00  0.00000000000E+00  0.34744372141E+02  0.34744372141E+02  0.00000000000E+00 0. -1.
         21   -1    0    0  502  503 -0.00000000000E+00 -0.00000000000E+00 -0.30368788903E+01  0.30368788903E+01  0.00000000000E+00 0.  1.
          5    1    1    2  501    0  0.93741765014E+00  0.88377632518E+01  0.19728679693E+02  0.22142619845E+02  0.47000000000E+01 0.  1.
         -5    1    1    2    0  503 -0.93741765014E+00 -0.88377632518E+01  0.11978813557E+02  0.15638631186E+02  0.47000000000E+01 0. -1.
<mgrwt>
<rscale>  2 0.10053597E+02</rscale>
<asrwt>0</asrwt>
<pdfrwt beam="1">  1       21 0.53452877E-02 0.10053597E+02</pdfrwt>
<pdfrwt beam="2">  1       21 0.46721216E-03 0.10053597E+02</pdfrwt>
<totfact> 0.11548609E+09</totfact>
</mgrwt>
</event>
<event>
 4    1  0.3992289E+006  0.6988554E+01  0.7546771E-02  0.2302149E+00
         21   -1    0    0  503  502  0.00000000000E+00  0.00000000000E+00  0.33894624669E+03  0.33894624669E+03  0.00000000000E+00 0. -1.
         21   -1    0    0  501  503 -0.00000000000E+00 -0.00000000000E+00 -0.35566362457E+01  0.35566362457E+01  0.00000000000E+00 0. -1.
          5    1    1    2  501    0  0.47559053421E+01  0.20325463433E+01 -0.51735941552E-01  0.69887450138E+01  0.47000000000E+01 0. -1.
         -5    1    1    2    0  502 -0.47559053421E+01 -0.20325463433E+01  0.33544134638E+03  0.33551413792E+03  0.47000000000E+01 0. -1.
<mgrwt>
<rscale>  2 0.69885535E+01</rscale>
<asrwt>0</asrwt>
<pdfrwt beam="1">  1       21 0.52145551E-01 0.69885535E+01</pdfrwt>
<pdfrwt beam="2">  1       21 0.54717507E-03 0.69885535E+01</pdfrwt>
<totfact> 0.17919242E+07</totfact>
</mgrwt>
</event>
<event>
 4    1  0.3992289E+006  0.7876131E+01  0.7546771E-02  0.2220793E+00
         21   -1    0    0  501  502  0.00000000000E+00  0.00000000000E+00  0.18992040149E+00  0.18992040149E+00  0.00000000000E+00 0.  1.
         21   -1    0    0  502  503 -0.00000000000E+00 -0.00000000000E+00 -0.35496980529E+03  0.35496980529E+03  0.00000000000E+00 0. -1.
          5    1    1    2  501    0  0.34333102663E+01 -0.53062060352E+01 -0.12721268911E+03  0.12745627372E+03  0.47000000000E+01 0.  1.
         -5    1    1    2    0  503 -0.34333102663E+01  0.53062060352E+01 -0.22756719578E+03  0.22770345196E+03  0.47000000000E+01 0. -1.
<mgrwt>
<rscale>  2 0.78761311E+01</rscale>
<asrwt>0</asrwt>
<pdfrwt beam="1">  1       21 0.29218610E-04 0.78761311E+01</pdfrwt>
<pdfrwt beam="2">  1       21 0.54610578E-01 0.78761311E+01</pdfrwt>
<totfact> 0.96955298E+08</totfact>
</mgrwt>
</event>
<event>
 4    1  0.3992289E+006  0.4948600E+01  0.7546771E-02  0.2576354E+00
         21   -1    0    0  503  502  0.00000000000E+00  0.00000000000E+00  0.32309410332E+03  0.32309410332E+03  0.00000000000E+00 0. -1.
         21   -1    0    0  501  503 -0.00000000000E+00 -0.00000000000E+00 -0.12793218072E+00  0.12793218072E+00  0.00000000000E+00 0. -1.
          5    1    1    2  501    0 -0.15482038986E+01  0.41352264013E-01  0.58311918138E+02  0.58521521189E+02  0.47000000000E+01 0. -1.
         -5    1    1    2    0  502  0.15482038986E+01 -0.41352264013E-01  0.26465425300E+03  0.26470051431E+03  0.47000000000E+01 0. -1.
<mgrwt>
<rscale>  2 0.49486003E+01</rscale>
<asrwt>0</asrwt>
<pdfrwt beam="1">  1       21 0.49706132E-01 0.49486003E+01</pdfrwt>
<pdfrwt beam="2">  1       21 0.19682133E-04 0.49486003E+01</pdfrwt>
<totfact> 0.13947749E+09</totfact>
</mgrwt>
</event>
<event>
 4    1  0.3992289E+006  0.6543769E+01  0.7546771E-02  0.2349603E+00
         21   -1    0    0  501  502  0.00000000000E+00  0.00000000000E+00  0.79044735025E+00  0.79044735025E+00  0.00000000000E+00 0. -1.
         21   -1    0    0  502  503 -0.00000000000E+00 -0.00000000000E+00 -0.63524722470E+02  0.63524722470E+02  0.00000000000E+00 0.  1.
          5    1    1    2  501    0  0.18619508569E+01  0.41550026716E+01 -0.19028769324E+02  0.20122499104E+02  0.47000000000E+01 0. -1.
         -5    1    1    2    0  503 -0.18619508569E+01 -0.41550026716E+01 -0.43705505796E+02  0.44192670717E+02  0.47000000000E+01 0.  1.
<mgrwt>
<rscale>  2 0.65437687E+01</rscale>
<asrwt>0</asrwt>
<pdfrwt beam="1">  1       21 0.12160726E-03 0.65437687E+01</pdfrwt>
<pdfrwt beam="2">  1       21 0.97730362E-02 0.65437687E+01</pdfrwt>
<totfact> 0.22101156E+09</totfact>
</mgrwt>
</event>
<event>
 4    1  0.3992289E+006  0.5267922E+01  0.7546771E-02  0.2521712E+00
         21   -1    0    0  503  502  0.00000000000E+00  0.00000000000E+00  0.22490494656E+02  0.22490494656E+02  0.00000000000E+00 0. -1.
         21   -1    0    0  501  503 -0.00000000000E+00 -0.00000000000E+00 -0.20194821148E+01  0.20194821148E+01  0.00000000000E+00 0. -1.
          5    1    1    2  501    0 -0.23750658411E+01 -0.14164379310E+00  0.25920647749E+01  0.58710987482E+01  0.47000000000E+01 0. -1.
         -5    1    1    2    0  502  0.23750658411E+01  0.14164379310E+00  0.17878947766E+02  0.18638878023E+02  0.47000000000E+01 0. -1.
<mgrwt>
<rscale>  2 0.52679219E+01</rscale>
<asrwt>0</asrwt>
<pdfrwt beam="1">  1       21 0.34600759E-02 0.52679219E+01</pdfrwt>
<pdfrwt beam="2">  1       21 0.31068957E-03 0.52679219E+01</pdfrwt>
<totfact> 0.24068351E+09</totfact>
</mgrwt>
</event>
<event>
 4    1  0.3992289E+006  0.6493288E+01  0.7546771E-02  0.2355327E+00
         21   -1    0    0  503  502  0.00000000000E+00  0.00000000000E+00  0.16609950786E+01  0.16609950786E+01  0.00000000000E+00 0. -1.
         21   -1    0    0  501  503 -0.00000000000E+00 -0.00000000000E+00 -0.27122649234E+02  0.27122649234E+02  0.00000000000E+00 0. -1.
          5    1    1    2  501    0 -0.29303174647E+01 -0.33891035894E+01 -0.16374583706E+02  0.17615044000E+02  0.47000000000E+01 0.  1.
         -5    1    1    2    0  502  0.29303174647E+01  0.33891035894E+01 -0.90870704487E+01  0.11168600312E+02  0.47000000000E+01 0.  1.
<mgrwt>
<rscale>  2 0.64932876E+01</rscale>
<asrwt>0</asrwt>
<pdfrwt beam="1">  1       21 0.25553772E-03 0.64932876E+01</pdfrwt>
<pdfrwt beam="2">  1       21 0.41727150E-02 0.64932876E+01</pdfrwt>
<totfact> 0.28802422E+09</totfact>
</mgrwt>
</event>
<event>
 4    1  0.3992289E+006  0.5495064E+01  0.7546771E-02  0.2486173E+00
         21   -1    0    0  503  502  0.00000000000E+00  0.00000000000E+00  0.24953778722E+03  0.24953778722E+03  0.00000000000E+00 0. -1.
         21   -1    0    0  501  503 -0.00000000000E+00 -0.00000000000E+00 -0.15711770204E+00  0.15711770204E+00  0.00000000000E+00 0. -1.
          5    1    1    2  501    0  0.15519696964E+01  0.23868641616E+01  0.64837155307E+02  0.65069596885E+02  0.47000000000E+01 0. -1.
         -5    1    1    2    0  502 -0.15519696964E+01 -0.23868641616E+01  0.18454351421E+03  0.18462530804E+03  0.47000000000E+01 0. -1.
<mgrwt>
<rscale>  2 0.54950642E+01</rscale>
<asrwt>0</asrwt>
<pdfrwt beam="1">  1       21 0.38390112E-01 0.54950642E+01</pdfrwt>
<pdfrwt beam="2">  1       21 0.24172154E-04 0.54950642E+01</pdfrwt>
<totfact> 0.18226749E+09</totfact>
</mgrwt>
</event>
<event>
 4    1  0.3992289E+006  0.8496990E+01  0.7546771E-02  0.2172195E+00
         21   -1    0    0  501  502  0.00000000000E+00  0.00000000000E+00  0.16649206109E+02  0.16649206109E+02  0.00000000000E+00 0.  1.
         21   -1    0    0  502  503 -0.00000000000E+00 -0.00000000000E+00 -0.75688521658E+01  0.75688521658E+01  0.00000000000E+00 0. -1.
          5    1    1    2  501    0  0.46683908242E-01 -0.70786058259E+01  0.12453436945E+02  0.15076038325E+02  0.47000000000E+01 0.  1.
         -5    1    1    2    0  503 -0.46683908242E-01  0.70786058259E+01 -0.33730830020E+01  0.91420199499E+01  0.47000000000E+01 0. -1.
<mgrwt>
<rscale>  2 0.84969900E+01</rscale>
<asrwt>0</asrwt>
<pdfrwt beam="1">  1       21 0.25614163E-02 0.84969900E+01</pdfrwt>
<pdfrwt beam="2">  1       21 0.11644388E-02 0.84969900E+01</pdfrwt>
<totfact> 0.85090341E+08</totfact>
</mgrwt>
</event>
<event>
 4    1  0.3992289E+006  0.5522450E+01  0.7546771E-02  0.2482057E+00
         21   -1    0    0  501  502  0.00000000000E+00  0.00000000000E+00  0.18793732593E+01  0.18793732593E+01  0.00000000000E+00 0. -1.
         21   -1    0    0  502  503 -0.00000000000E+00 -0.00000000000E+00 -0.20133976363E+02  0.20133976363E+02  0.00000000000E+00 0. -1.
          5    1    1    2  501    0  0.28982604252E+01 -0.86839432271E-01 -0.42790384845E+01  0.69862454102E+01  0.47000000000E+01 0. -1.
         -5    1    1    2    0  503 -0.28982604252E+01  0.86839432271E-01 -0.13975564620E+02  0.15027104213E+02  0.47000000000E+01 0. -1.
<mgrwt>
<rscale>  2 0.55224501E+01</rscale>
<asrwt>0</asrwt>
<pdfrwt beam="1">  1       21 0.28913436E-03 0.55224501E+01</pdfrwt>
<pdfrwt beam="2">  1       21 0.30975346E-02 0.55224501E+01</pdfrwt>
<totfact> 0.32600642E+09</totfact>
</mgrwt>
</event>
<event>
 4    1  0.3992289E+006  0.5384025E+01  0.7546771E-02  0.2503228E+00
         21   -1    0    0  501  502  0.00000000000E+00  0.00000000000E+00  0.26883858916E+00  0.26883858916E+00  0.00000000000E+00 0. -1.
         21   -1    0    0  502  503 -0.00000000000E+00 -0.00000000000E+00 -0.22794800089E+03  0.22794800089E+03  0.00000000000E+00 0. -1.
          5    1    1    2  501    0  0.20515943414E+01 -0.16397198028E+01 -0.31005026399E+02  0.31469022584E+02  0.47000000000E+01 0. -1.
         -5    1    1    2    0  503 -0.20515943414E+01  0.16397198028E+01 -0.19667413590E+03  0.19674781689E+03  0.47000000000E+01 0. -1.
<mgrwt>
<rscale>  2 0.53840246E+01</rscale>
<asrwt>0</asrwt>
<pdfrwt beam="1">  1       21 0.41359816E-04 0.53840246E+01</pdfrwt>
<pdfrwt beam="2">  1       21 0.35068895E-01 0.53840246E+01</pdfrwt>
<totfact> 0.10247596E+09</totfact>
</mgrwt>
</event>
<event>
 4    1  0.3992289E+006  0.6373976E+01  0.7546771E-02  0.2369151E+00
         21   -1    0    0  501  502  0.00000000000E+00  0.00000000000E+00  0.35952213086E+02  0.35952213086E+02  0.00000000000E+00 0.  1.
         21   -1    0    0  502  503 -0.00000000000E+00 -0.00000000000E+00 -0.24623450565E+01  0.24623450565E+01  0.00000000000E+00 0. -1.
          5    1    1    2  501    0 -0.28479303502E+01  0.32290661403E+01  0.30873321897E+02  0.31524428312E+02  0.47000000000E+01 0.  1.
         -5    1    1    2    0  503  0.28479303502E+01 -0.32290661403E+01  0.26165461320E+01  0.68901298304E+01  0.47000000000E+01 0. -1.
<mgrwt>
<rscale>  2 0.63739764E+01</rscale>
<asrwt>0</asrwt>
<pdfrwt beam="1">  1       21 0.55311093E-02 0.63739764E+01</pdfrwt>
<pdfrwt beam="2">  1       21 0.37882234E-03 0.63739764E+01</pdfrwt>
<totfact> 0.10836479E+09</totfact>
</mgrwt>
</event>
<event>
 4    1  0.3992289E+006  0.5407754E+01  0.7546771E-02  0.2499533E+00
         21   -1    0    0  503  502  0.00000000000E+00  0.00000000000E+00  0.22335055567E+01  0.22335055567E+01  0.00000000000E+00 0. -1.
         21   -1    0    0  501  503 -0.00000000000E+00 -0.00000000000E+00 -0.13225027414E+02  0.13225027414E+02  0.00000000000E+00 0.  1.
          5    1    1    2  501    0  0.49211643111E+00 -0.26289963530E+01 -0.62673651273E+01  0.82779022732E+01  0.47000000000E+01 0.  1.
         -5    1    1    2    0  502 -0.49211643111E+00  0.26289963530E+01 -0.47241567305E+01  0.71806306979E+01  0.47000000000E+01 0.  1.
<mgrwt>
<rscale>  2 0.54077537E+01</rscale>
<asrwt>0</asrwt>
<pdfrwt beam="1">  1       21 0.34361624E-03 0.54077537E+01</pdfrwt>
<pdfrwt beam="2">  1       21 0.20346196E-02 0.54077537E+01</pdfrwt>
<totfact> 0.46159566E+09</totfact>
</mgrwt>
</event>
<event>
 4    1  0.3992289E+006  0.7185477E+01  0.7546771E-02  0.2282691E+00
         21   -1    0    0  501  502  0.00000000000E+00  0.00000000000E+00  0.57786238598E+01  0.57786238598E+01  0.00000000000E+00 0. -1.
         21   -1    0    0  502  503 -0.00000000000E+00 -0.00000000000E+00 -0.11684961344E+02  0.11684961344E+02  0.00000000000E+00 0.  1.
          5    1    1    2  501    0  0.48754349456E+01 -0.24023357590E+01  0.12829258920E+01  0.72991082916E+01  0.47000000000E+01 0. -1.
         -5    1    1    2    0  503 -0.48754349456E+01  0.24023357590E+01 -0.71892633762E+01  0.10164476912E+02  0.47000000000E+01 0.  1.
<mgrwt>
<rscale>  2 0.71854772E+01</rscale>
<asrwt>0</asrwt>
<pdfrwt beam="1">  1       21 0.88901905E-03 0.71854772E+01</pdfrwt>
<pdfrwt beam="2">  1       21 0.17976864E-02 0.71854772E+01</pdfrwt>
<totfact> 0.18707836E+09</totfact>
</mgrwt>
</event>
<event>
 4    1  0.3992289E+006  0.5719967E+01  0.7546771E-02  0.2453360E+00
         21   -1    0    0  503  502  0.00000000000E+00  0.00000000000E+00  0.53480216454E+03  0.53480216454E+03  0.00000000000E+00 0. -1.
         21   -1    0    0  501  503 -0.00000000000E+00 -0.00000000000E+00 -0.66682553652E-01  0.66682553652E-01  0.00000000000E+00 0.  1.
          5    1    1    2  501    0 -0.14905833872E+01 -0.28993426060E+01  0.19052910273E+03  0.19061494436E+03  0.47000000000E+01 0.  1.
         -5    1    1    2    0  502  0.14905833872E+01  0.28993426060E+01  0.34420637925E+03  0.34425390273E+03  0.47000000000E+01 0. -1.
<mgrwt>
<rscale>  2 0.57199673E+01</rscale>
<asrwt>0</asrwt>
<pdfrwt beam="1">  1       21 0.82273821E-01 0.57199673E+01</pdfrwt>
<pdfrwt beam="2">  1       21 0.10259283E-04 0.57199673E+01</pdfrwt>
<totfact> 0.14580235E+09</totfact>
</mgrwt>
</event>
<event>
 4    1  0.3992289E+006  0.4744966E+01  0.7546771E-02  0.2614488E+00
         21   -1    0    0  501  502  0.00000000000E+00  0.00000000000E+00  0.18792900537E+01  0.18792900537E+01  0.00000000000E+00 0.  1.
         21   -1    0    0  502  503 -0.00000000000E+00 -0.00000000000E+00 -0.17294406177E+02  0.17294406177E+02  0.00000000000E+00 0.  1.
          5    1    1    2  501    0 -0.32437634003E+00  0.56522482994E+00 -0.23934191316E+01  0.53144288741E+01  0.47000000000E+01 0.  1.
         -5    1    1    2    0  503  0.32437634003E+00 -0.56522482994E+00 -0.13021696992E+02  0.13859267357E+02  0.47000000000E+01 0.  1.
<mgrwt>
<rscale>  2 0.47449657E+01</rscale>
<asrwt>0</asrwt>
<pdfrwt beam="1">  1       21 0.28912154E-03 0.47449657E+01</pdfrwt>
<pdfrwt beam="2">  1       21 0.26606780E-02 0.47449657E+01</pdfrwt>
<totfact> 0.34781764E+09</totfact>
</mgrwt>
</event>
<event>
 4    1  0.3992289E+006  0.5348923E+01  0.7546771E-02  0.2508744E+00
         21   -1    0    0  501  502  0.00000000000E+00  0.00000000000E+00  0.89457521570E+00  0.89457521570E+00  0.00000000000E+00 0. -1.
         21   -1    0    0  502  503 -0.00000000000E+00 -0.00000000000E+00 -0.33102774471E+02  0.33102774471E+02  0.00000000000E+00 0. -1.
          5    1    1    2  501    0 -0.15848997161E+01  0.20022655081E+01 -0.12977322791E+02  0.14036448308E+02  0.47000000000E+01 0. -1.
         -5    1    1    2    0  503  0.15848997161E+01 -0.20022655081E+01 -0.19230876464E+02  0.19960901379E+02  0.47000000000E+01 0. -1.
<mgrwt>
<rscale>  2 0.53489227E+01</rscale>
<asrwt>0</asrwt>
<pdfrwt beam="1">  1       21 0.13762694E-03 0.53489227E+01</pdfrwt>
<pdfrwt beam="2">  1       21 0.50927351E-02 0.53489227E+01</pdfrwt>
<totfact> 0.41794195E+09</totfact>
</mgrwt>
</event>
<event>
 4    1  0.3992289E+006  0.4729130E+01  0.7546771E-02  0.2617572E+00
         21   -1    0    0  501  502  0.00000000000E+00  0.00000000000E+00  0.23896656567E+01  0.23896656567E+01  0.00000000000E+00 0.  1.
         21   -1    0    0  502  503 -0.00000000000E+00 -0.00000000000E+00 -0.31330346287E+02  0.31330346287E+02  0.00000000000E+00 0.  1.
          5    1    1    2  501    0  0.50480976906E+00 -0.14085059822E+00 -0.35132771428E+00  0.47421622660E+01  0.47000000000E+01 0.  1.
         -5    1    1    2    0  503 -0.50480976906E+00  0.14085059822E+00 -0.28589352916E+02  0.28977849678E+02  0.47000000000E+01 0.  1.
<mgrwt>
<rscale>  2 0.47291301E+01</rscale>
<asrwt>0</asrwt>
<pdfrwt beam="1">  1       21 0.36764089E-03 0.47291301E+01</pdfrwt>
<pdfrwt beam="2">  1       21 0.48200530E-02 0.47291301E+01</pdfrwt>
<totfact> 0.10651690E+09</totfact>
</mgrwt>
</event>
<event>
 4    1  0.3992289E+006  0.8797949E+01  0.7546771E-02  0.2150633E+00
         21   -1    0    0  503  502  0.00000000000E+00  0.00000000000E+00  0.17971628452E+04  0.17971628452E+04  0.00000000000E+00 0. -1.
         21   -1    0    0  501  503 -0.00000000000E+00 -0.00000000000E+00 -0.68927821206E-01  0.68927821206E-01  0.00000000000E+00 0. -1.
          5    1    1    2  501    0 -0.40018345383E+01  0.62689092160E+01  0.34815469639E+03  0.34826584173E+03  0.47000000000E+01 0. -1.
         -5    1    1    2    0  502  0.40018345383E+01 -0.62689092160E+01  0.14489392210E+04  0.14489659313E+04  0.47000000000E+01 0. -1.
<mgrwt>
<rscale>  2 0.87979488E+01</rscale>
<asrwt>0</asrwt>
<pdfrwt beam="1">  1       21 0.27644907E+00 0.87979488E+01</pdfrwt>
<pdfrwt beam="2">  1       21 0.10605720E-04 0.87979488E+01</pdfrwt>
<totfact> 0.12074377E+08</totfact>
</mgrwt>
</event>
<event>
 4    1  0.3992289E+006  0.8733069E+01  0.7546771E-02  0.2155181E+00
         21   -1    0    0  503  502  0.00000000000E+00  0.00000000000E+00  0.34301650665E+03  0.34301650665E+03  0.00000000000E+00 0. -1.
         21   -1    0    0  501  503 -0.00000000000E+00 -0.00000000000E+00 -0.48404267054E+00  0.48404267054E+00  0.00000000000E+00 0. -1.
          5    1    1    2  501    0  0.43041836868E+01 -0.59708033689E+01  0.44979068282E+02  0.45819025237E+02  0.47000000000E+01 0. -1.
         -5    1    1    2    0  502 -0.43041836868E+01  0.59708033689E+01  0.29755339570E+03  0.29768152408E+03  0.47000000000E+01 0. -1.
<mgrwt>
<rscale>  2 0.87330688E+01</rscale>
<asrwt>0</asrwt>
<pdfrwt beam="1">  1       21 0.52771576E-01 0.87330688E+01</pdfrwt>
<pdfrwt beam="2">  1       21 0.74468377E-04 0.87330688E+01</pdfrwt>
<totfact> 0.30768957E+08</totfact>
</mgrwt>
</event>
<event>
 4    1  0.3992289E+006  0.1022324E+02  0.7546771E-02  0.2062501E+00
         21   -1    0    0  503  502  0.00000000000E+00  0.00000000000E+00  0.50099819966E+02  0.50099819966E+02  0.00000000000E+00 0.  1.
         21   -1    0    0  501  503 -0.00000000000E+00 -0.00000000000E+00 -0.15821230524E+02  0.15821230524E+02  0.00000000000E+00 0.  1.
          5    1    1    2  501    0  0.35339599455E+01  0.83627632896E+01 -0.13571420650E+02  0.16991119480E+02  0.47000000000E+01 0.  1.
         -5    1    1    2    0  502 -0.35339599455E+01 -0.83627632896E+01  0.47850010092E+02  0.48929931009E+02  0.47000000000E+01 0.  1.
<mgrwt>
<rscale>  2 0.10223242E+02</rscale>
<asrwt>0</asrwt>
<pdfrwt beam="1">  1       21 0.77076645E-02 0.10223242E+02</pdfrwt>
<pdfrwt beam="2">  1       21 0.24340355E-02 0.10223242E+02</pdfrwt>
<totfact> 0.59751095E+07</totfact>
</mgrwt>
</event>
<event>
 4    1  0.3992289E+006  0.8619690E+01  0.7546771E-02  0.2163259E+00
         21   -1    0    0  503  502  0.00000000000E+00  0.00000000000E+00  0.45585890085E+02  0.45585890085E+02  0.00000000000E+00 0.  1.
         21   -1    0    0  501  503 -0.00000000000E+00 -0.00000000000E+00 -0.25029348269E+01  0.25029348269E+01  0.00000000000E+00 0. -1.
          5    1    1    2  501    0  0.45070573807E+01  0.56476095868E+01  0.73406805000E+01  0.11321866034E+02  0.47000000000E+01 0. -1.
         -5    1    1    2    0  502 -0.45070573807E+01 -0.56476095868E+01  0.35742274758E+02  0.36766958879E+02  0.47000000000E+01 0.  1.
<mgrwt>
<rscale>  2 0.86196903E+01</rscale>
<asrwt>0</asrwt>
<pdfrwt beam="1">  1       21 0.70132133E-02 0.86196903E+01</pdfrwt>
<pdfrwt beam="2">  1       21 0.38506693E-03 0.86196903E+01</pdfrwt>
<totfact> 0.91112550E+08</totfact>
</mgrwt>
</event>
<event>
 4    1  0.3992289E+006  0.6254699E+01  0.7546771E-02  0.2383408E+00
         21   -1    0    0  503  502  0.00000000000E+00  0.00000000000E+00  0.21279769598E+01  0.21279769598E+01  0.00000000000E+00 0. -1.
         21   -1    0    0  501  503 -0.00000000000E+00 -0.00000000000E+00 -0.23855045574E+02  0.23855045574E+02  0.00000000000E+00 0. -1.
          5    1    1    2  501    0 -0.28465276156E+01 -0.29880669577E+01 -0.17085028971E+02  0.18193940710E+02  0.47000000000E+01 0. -1.
         -5    1    1    2    0  502  0.28465276156E+01  0.29880669577E+01 -0.46420396427E+01  0.77890818236E+01  0.47000000000E+01 0. -1.
<mgrwt>
<rscale>  2 0.62546993E+01</rscale>
<asrwt>0</asrwt>
<pdfrwt beam="1">  1       21 0.32738107E-03 0.62546993E+01</pdfrwt>
<pdfrwt beam="2">  1       21 0.36700070E-02 0.62546993E+01</pdfrwt>
<totfact> 0.23972977E+09</totfact>
</mgrwt>
</event>
<event>
 4    1  0.3992289E+006  0.5436767E+01  0.7546771E-02  0.2495053E+00
         21   -1    0    0  501  502  0.00000000000E+00  0.00000000000E+00  0.62531944204E+00  0.62531944204E+00  0.00000000000E+00 0.  1.
         21   -1    0    0  502  503 -0.00000000000E+00 -0.00000000000E+00 -0.22316854896E+03  0.22316854896E+03  0.00000000000E+00 0.  1.
          5    1    1    2  501    0 -0.19180566073E+00  0.27261046466E+01 -0.11929445583E+02  0.13109924022E+02  0.47000000000E+01 0.  1.
         -5    1    1    2    0  503  0.19180566073E+00 -0.27261046466E+01 -0.21061378393E+03  0.21068394438E+03  0.47000000000E+01 0.  1.
<mgrwt>
<rscale>  2 0.54367670E+01</rscale>
<asrwt>0</asrwt>
<pdfrwt beam="1">  1       21 0.96202987E-04 0.54367670E+01</pdfrwt>
<pdfrwt beam="2">  1       21 0.34333624E-01 0.54367670E+01</pdfrwt>
<totfact> 0.34802459E+08</totfact>
</mgrwt>
</event>
<event>
 4    1  0.3992289E+006  0.8198861E+01  0.7546771E-02  0.2194793E+00
         21   -1    0    0  501  502  0.00000000000E+00  0.00000000000E+00  0.53306586019E+03  0.53306586019E+03  0.00000000000E+00 0. -1.
         21   -1    0    0  502  503 -0.00000000000E+00 -0.00000000000E+00 -0.16674975652E+00  0.16674975652E+00  0.00000000000E+00 0. -1.
          5    1    1    2  501    0 -0.64190132567E+01  0.19818160619E+01  0.39808287282E+03  0.39816729519E+03  0.47000000000E+01 0. -1.
         -5    1    1    2    0  503  0.64190132567E+01 -0.19818160619E+01  0.13481623762E+03  0.13506531476E+03  0.47000000000E+01 0. -1.
<mgrwt>
<rscale>  2 0.81988613E+01</rscale>
<asrwt>0</asrwt>
<pdfrwt beam="1">  1       21 0.82008768E-01 0.81988613E+01</pdfrwt>
<pdfrwt beam="2">  1       21 0.25654235E-04 0.81988613E+01</pdfrwt>
<totfact> 0.54059380E+08</totfact>
</mgrwt>
</event>
<event>
 4    1  0.3992289E+006  0.6812236E+01  0.7546771E-02  0.2320350E+00
         21   -1    0    0  501  502  0.00000000000E+00  0.00000000000E+00  0.80448324178E+02  0.80448324178E+02  0.00000000000E+00 0.  1.
         21   -1    0    0  502  503 -0.00000000000E+00 -0.00000000000E+00 -0.89495392838E+00  0.89495392838E+00  0.00000000000E+00 0. -1.
          5    1    1    2  501    0 -0.31731239035E+01 -0.37746307556E+01  0.64024711034E+02  0.64386102349E+02  0.47000000000E+01 0.  1.
         -5    1    1    2    0  503  0.31731239035E+01  0.37746307556E+01  0.15528659216E+02  0.16957175758E+02  0.47000000000E+01 0. -1.
<mgrwt>
<rscale>  2 0.68122355E+01</rscale>
<asrwt>0</asrwt>
<pdfrwt beam="1">  1       21 0.12376660E-01 0.68122355E+01</pdfrwt>
<pdfrwt beam="2">  1       21 0.13768528E-03 0.68122355E+01</pdfrwt>
<totfact> 0.13328034E+09</totfact>
</mgrwt>
</event>
<event>
 4    1  0.3992289E+006  0.5020579E+01  0.7546771E-02  0.2563516E+00
         21   -1    0    0  501  502  0.00000000000E+00  0.00000000000E+00  0.28218566013E+01  0.28218566013E+01  0.00000000000E+00 0. -1.
         21   -1    0    0  502  503 -0.00000000000E+00 -0.00000000000E+00 -0.10503261012E+02  0.10503261012E+02  0.00000000000E+00 0. -1.
          5    1    1    2  501    0 -0.17430098800E+01 -0.27952353177E+00 -0.12641741391E+01  0.51772920625E+01  0.47000000000E+01 0. -1.
         -5    1    1    2    0  503  0.17430098800E+01  0.27952353177E+00 -0.64172302714E+01  0.81478255506E+01  0.47000000000E+01 0. -1.
<mgrwt>
<rscale>  2 0.50205793E+01</rscale>
<asrwt>0</asrwt>
<pdfrwt beam="1">  1       21 0.43413178E-03 0.50205793E+01</pdfrwt>
<pdfrwt beam="2">  1       21 0.16158863E-02 0.50205793E+01</pdfrwt>
<totfact> 0.43052029E+09</totfact>
</mgrwt>
</event>
<event>
 4    1  0.3992289E+006  0.6375401E+01  0.7546771E-02  0.2368983E+00
         21   -1    0    0  501  502  0.00000000000E+00  0.00000000000E+00  0.10435792159E+02  0.10435792159E+02  0.00000000000E+00 0.  1.
         21   -1    0    0  502  503 -0.00000000000E+00 -0.00000000000E+00 -0.92569366469E+01  0.92569366469E+01  0.00000000000E+00 0. -1.
          5    1    1    2  501    0 -0.34620855452E+01 -0.25631421051E+01  0.80833572795E+01  0.10294969581E+02  0.47000000000E+01 0.  1.
         -5    1    1    2    0  503  0.34620855452E+01  0.25631421051E+01 -0.69045017678E+01  0.93977592241E+01  0.47000000000E+01 0. -1.
<mgrwt>
<rscale>  2 0.63754007E+01</rscale>
<asrwt>0</asrwt>
<pdfrwt beam="1">  1       21 0.16055065E-02 0.63754007E+01</pdfrwt>
<pdfrwt beam="2">  1       21 0.14241441E-02 0.63754007E+01</pdfrwt>
<totfact> 0.10258121E+09</totfact>
</mgrwt>
</event>
<event>
 4    1  0.3992289E+006  0.5295578E+01  0.7546771E-02  0.2517246E+00
         21   -1    0    0  501  502  0.00000000000E+00  0.00000000000E+00  0.82830256731E+00  0.82830256731E+00  0.00000000000E+00 0. -1.
         21   -1    0    0  502  503 -0.00000000000E+00 -0.00000000000E+00 -0.34173062661E+02  0.34173062661E+02  0.00000000000E+00 0.  1.
          5    1    1    2  501    0 -0.37136090952E+00  0.24114793983E+01 -0.14987077047E+02  0.15895144549E+02  0.47000000000E+01 0. -1.
         -5    1    1    2    0  503  0.37136090952E+00 -0.24114793983E+01 -0.18357683047E+02  0.19106220679E+02  0.47000000000E+01 0.  1.
<mgrwt>
<rscale>  2 0.52955776E+01</rscale>
<asrwt>0</asrwt>
<pdfrwt beam="1">  1       21 0.12743115E-03 0.52955776E+01</pdfrwt>
<pdfrwt beam="2">  1       21 0.52573949E-02 0.52955776E+01</pdfrwt>
<totfact> 0.43776004E+09</totfact>
</mgrwt>
</event>
<event>
 4    1  0.3992289E+006  0.6082291E+01  0.7546771E-02  0.2404835E+00
         21   -1    0    0  501  502  0.00000000000E+00  0.00000000000E+00  0.87791724694E+02  0.87791724694E+02  0.00000000000E+00 0. -1.
         21   -1    0    0  502  503 -0.00000000000E+00 -0.00000000000E+00 -0.94013608624E+00  0.94013608624E+00  0.00000000000E+00 0.  1.
          5    1    1    2  501    0 -0.31799774902E+01 -0.21890663701E+01  0.76381682011E+02  0.76623466479E+02  0.47000000000E+01 0. -1.
         -5    1    1    2    0  503  0.31799774902E+01  0.21890663701E+01  0.10469906596E+02  0.12108394301E+02  0.47000000000E+01 0.  1.
<mgrwt>
<rscale>  2 0.60822914E+01</rscale>
<asrwt>0</asrwt>
<pdfrwt beam="1">  1       21 0.13506413E-01 0.60822914E+01</pdfrwt>
<pdfrwt beam="2">  1       21 0.14463639E-03 0.60822914E+01</pdfrwt>
<totfact> 0.99757702E+08</totfact>
</mgrwt>
</event>
<event>
 4    1  0.3992289E+006  0.5488628E+01  0.7546771E-02  0.2487146E+00
         21   -1    0    0  503  502  0.00000000000E+00  0.00000000000E+00  0.13469488757E+02  0.13469488757E+02  0.00000000000E+00 0.  1.
         21   -1    0    0  501  503 -0.00000000000E+00 -0.00000000000E+00 -0.24031099290E+01  0.24031099290E+01  0.00000000000E+00 0. -1.
          5    1    1    2  501    0  0.25356375760E+01 -0.12671130632E+01  0.76226354663E+01  0.93930615288E+01  0.47000000000E+01 0. -1.
         -5    1    1    2    0  502 -0.25356375760E+01  0.12671130632E+01  0.34437433620E+01  0.64795371575E+01  0.47000000000E+01 0. -1.
<mgrwt>
<rscale>  2 0.54886276E+01</rscale>
<asrwt>0</asrwt>
<pdfrwt beam="1">  1       21 0.20722290E-02 0.54886276E+01</pdfrwt>
<pdfrwt beam="2">  1       21 0.36970923E-03 0.54886276E+01</pdfrwt>
<totfact> 0.41265334E+09</totfact>
</mgrwt>
</event>
<event>
 4    1  0.3992289E+006  0.5018789E+01  0.7546771E-02  0.2563831E+00
         21   -1    0    0  501  502  0.00000000000E+00  0.00000000000E+00  0.12685232016E+04  0.12685232016E+04  0.00000000000E+00 0.  1.
         21   -1    0    0  502  503 -0.00000000000E+00 -0.00000000000E+00 -0.22984489745E-01  0.22984489745E-01  0.00000000000E+00 0.  1.
          5    1    1    2  501    0 -0.80870918428E+00 -0.15634037436E+01  0.40025764718E+03  0.40028911098E+03  0.47000000000E+01 0.  1.
         -5    1    1    2    0  503  0.80870918428E+00  0.15634037436E+01  0.86824256996E+03  0.86825707514E+03  0.47000000000E+01 0.  1.
<mgrwt>
<rscale>  2 0.50187889E+01</rscale>
<asrwt>0</asrwt>
<pdfrwt beam="1">  1       21 0.19510136E+00 0.50187889E+01</pdfrwt>
<pdfrwt beam="2">  1       21 0.35370913E-05 0.50187889E+01</pdfrwt>
<totfact> 0.92810709E+08</totfact>
</mgrwt>
</event>
<event>
 4    1  0.3992289E+006  0.7126216E+01  0.7546771E-02  0.2288454E+00
         21   -1    0    0  503  502  0.00000000000E+00  0.00000000000E+00  0.41565951388E+00  0.41565951388E+00  0.00000000000E+00 0. -1.
         21   -1    0    0  501  503 -0.00000000000E+00 -0.00000000000E+00 -0.17168935737E+03  0.17168935737E+03  0.00000000000E+00 0. -1.
          5    1    1    2  501    0 -0.48062035836E+00  0.53349750635E+01 -0.13184940799E+03  0.13204184694E+03  0.47000000000E+01 0. -1.
         -5    1    1    2    0  502  0.48062035836E+00 -0.53349750635E+01 -0.39424289867E+02  0.40063169949E+02  0.47000000000E+01 0. -1.
<mgrwt>
<rscale>  2 0.71262160E+01</rscale>
<asrwt>0</asrwt>
<pdfrwt beam="1">  1       21 0.63947548E-04 0.71262160E+01</pdfrwt>
<pdfrwt beam="2">  1       21 0.26413776E-01 0.71262160E+01</pdfrwt>
<totfact> 0.11375382E+09</totfact>
</mgrwt>
</event>
<event>
 4    1  0.3992289E+006  0.7132690E+01  0.7546771E-02  0.2287821E+00
         21   -1    0    0  503  502  0.00000000000E+00  0.00000000000E+00  0.15162612903E+01  0.15162612903E+01  0.00000000000E+00 0.  1.
         21   -1    0    0  501  503 -0.00000000000E+00 -0.00000000000E+00 -0.41860628668E+02  0.41860628668E+02  0.00000000000E+00 0.  1.
          5    1    1    2  501    0 -0.20215688017E+01 -0.49697605204E+01 -0.29834062388E+02  0.30674851892E+02  0.47000000000E+01 0.  1.
         -5    1    1    2    0  502  0.20215688017E+01  0.49697605204E+01 -0.10510304990E+02  0.12702038066E+02  0.47000000000E+01 0.  1.
<mgrwt>
<rscale>  2 0.71326895E+01</rscale>
<asrwt>0</asrwt>
<pdfrwt beam="1">  1       21 0.23327098E-03 0.71326895E+01</pdfrwt>
<pdfrwt beam="2">  1       21 0.64400965E-02 0.71326895E+01</pdfrwt>
<totfact> 0.18342493E+09</totfact>
</mgrwt>
</event>
<event>
 4    1  0.3992289E+006  0.4733810E+01  0.7546771E-02  0.2616659E+00
         21   -1    0    0  503  502  0.00000000000E+00  0.00000000000E+00  0.12298244067E+03  0.12298244067E+03  0.00000000000E+00 0. -1.
         21   -1    0    0  501  503 -0.00000000000E+00 -0.00000000000E+00 -0.36446486266E+00  0.36446486266E+00  0.00000000000E+00 0. -1.
          5    1    1    2  501    0  0.48005997077E-01  0.56271761259E+00  0.17696903669E+02  0.18319098099E+02  0.47000000000E+01 0. -1.
         -5    1    1    2    0  502 -0.48005997077E-01 -0.56271761259E+00  0.10492107213E+03  0.10502780743E+03  0.47000000000E+01 0. -1.
<mgrwt>
<rscale>  2 0.47338098E+01</rscale>
<asrwt>0</asrwt>
<pdfrwt beam="1">  1       21 0.18920342E-01 0.47338098E+01</pdfrwt>
<pdfrwt beam="2">  1       21 0.56071616E-04 0.47338098E+01</pdfrwt>
<totfact> 0.16721903E+09</totfact>
</mgrwt>
</event>
<event>
 4    1  0.3992289E+006  0.6056167E+01  0.7546771E-02  0.2408170E+00
         21   -1    0    0  501  502  0.00000000000E+00  0.00000000000E+00  0.70738545733E+01  0.70738545733E+01  0.00000000000E+00 0.  1.
         21   -1    0    0  502  503 -0.00000000000E+00 -0.00000000000E+00 -0.21576989975E+02  0.21576989975E+02  0.00000000000E+00 0. -1.
          5    1    1    2  501    0  0.26275707879E+01  0.27718273317E+01  0.52346040687E+01  0.80048881790E+01  0.47000000000E+01 0.  1.
         -5    1    1    2    0  503 -0.26275707879E+01 -0.27718273317E+01 -0.19737739470E+02  0.20645956369E+02  0.47000000000E+01 0. -1.
<mgrwt>
<rscale>  2 0.60561667E+01</rscale>
<asrwt>0</asrwt>
<pdfrwt beam="1">  1       21 0.10882853E-02 0.60561667E+01</pdfrwt>
<pdfrwt beam="2">  1       21 0.33195369E-02 0.60561667E+01</pdfrwt>
<totfact> 0.50520660E+08</totfact>
</mgrwt>
</event>
<event>
 4    1  0.3992289E+006  0.7290633E+01  0.7546771E-02  0.2272654E+00
         21   -1    0    0  503  502  0.00000000000E+00  0.00000000000E+00  0.39012965768E+03  0.39012965768E+03  0.00000000000E+00 0.  1.
         21   -1    0    0  501  503 -0.00000000000E+00 -0.00000000000E+00 -0.13631802644E+00  0.13631802644E+00  0.00000000000E+00 0. -1.
          5    1    1    2  501    0 -0.55610381181E+01 -0.37173768725E+00  0.19048966637E+03  0.19062913295E+03  0.47000000000E+01 0. -1.
         -5    1    1    2    0  502  0.55610381181E+01  0.37173768725E+00  0.19950367328E+03  0.19963684276E+03  0.47000000000E+01 0.  1.
<mgrwt>
<rscale>  2 0.72906333E+01</rscale>
<asrwt>0</asrwt>
<pdfrwt beam="1">  1       21 0.60019054E-01 0.72906333E+01</pdfrwt>
<pdfrwt beam="2">  1       21 0.20972316E-04 0.72906333E+01</pdfrwt>
<totfact> 0.12107683E+09</totfact>
</mgrwt>
</event>
<event>
 4    1  0.3992289E+006  0.4831693E+01  0.7546771E-02  0.2597906E+00
         21   -1    0    0  503  502  0.00000000000E+00  0.00000000000E+00  0.72790588805E+01  0.72790588805E+01  0.00000000000E+00 0. -1.
         21   -1    0    0  501  503 -0.00000000000E+00 -0.00000000000E+00 -0.61813868251E+01  0.61813868251E+01  0.00000000000E+00 0. -1.
          5    1    1    2  501    0 -0.16842065538E+00 -0.11076495269E+01 -0.41196069385E+01  0.63495207945E+01  0.47000000000E+01 0. -1.
         -5    1    1    2    0  502  0.16842065538E+00  0.11076495269E+01  0.52172789939E+01  0.71109249112E+01  0.47000000000E+01 0. -1.
<mgrwt>
<rscale>  2 0.48316926E+01</rscale>
<asrwt>0</asrwt>
<pdfrwt beam="1">  1       21 0.11198552E-02 0.48316926E+01</pdfrwt>
<pdfrwt beam="2">  1       21 0.95098259E-03 0.48316926E+01</pdfrwt>
<totfact> 0.23450953E+09</totfact>
</mgrwt>
</event>
<event>
 4    1  0.3992289E+006  0.4781216E+01  0.7546771E-02  0.2607493E+00
         21   -1    0    0  503  502  0.00000000000E+00  0.00000000000E+00  0.10966211891E+01  0.10966211891E+01  0.00000000000E+00 0. -1.
         21   -1    0    0  501  503 -0.00000000000E+00 -0.00000000000E+00 -0.63210223532E+02  0.63210223532E+02  0.00000000000E+00 0. -1.
          5    1    1    2  501    0  0.62856266247E+00 -0.61231974000E+00 -0.57379706184E+02  0.57578561186E+02  0.47000000000E+01 0. -1.
         -5    1    1    2    0  502 -0.62856266247E+00  0.61231974000E+00 -0.47338961589E+01  0.67282835350E+01  0.47000000000E+01 0. -1.
<mgrwt>
<rscale>  2 0.47812160E+01</rscale>
<asrwt>0</asrwt>
<pdfrwt beam="1">  1       21 0.16871090E-03 0.47812160E+01</pdfrwt>
<pdfrwt beam="2">  1       21 0.97246530E-02 0.47812160E+01</pdfrwt>
<totfact> 0.10904936E+09</totfact>
</mgrwt>
</event>
<event>
 4    1  0.3992289E+006  0.8924626E+01  0.7546771E-02  0.2141906E+00
         21   -1    0    0  501  502  0.00000000000E+00  0.00000000000E+00  0.16977016221E+02  0.16977016221E+02  0.00000000000E+00 0. -1.
         21   -1    0    0  502  503 -0.00000000000E+00 -0.00000000000E+00 -0.72462282915E+01  0.72462282915E+01  0.00000000000E+00 0. -1.
          5    1    1    2  501    0 -0.52682575224E+01  0.54593422025E+01  0.12056774103E+02  0.15000491871E+02  0.47000000000E+01 0. -1.
         -5    1    1    2    0  503  0.52682575224E+01 -0.54593422025E+01 -0.23259861733E+01  0.92227526414E+01  0.47000000000E+01 0. -1.
<mgrwt>
<rscale>  2 0.89246263E+01</rscale>
<asrwt>0</asrwt>
<pdfrwt beam="1">  1       21 0.26118486E-02 0.89246263E+01</pdfrwt>
<pdfrwt beam="2">  1       21 0.11148044E-02 0.89246263E+01</pdfrwt>
<totfact> 0.90815206E+08</totfact>
</mgrwt>
</event>
<event>
 4    1  0.3992289E+006  0.5589331E+01  0.7546771E-02  0.2472148E+00
         21   -1    0    0  501  502  0.00000000000E+00  0.00000000000E+00  0.63891062894E+01  0.63891062894E+01  0.00000000000E+00 0.  1.
         21   -1    0    0  502  503 -0.00000000000E+00 -0.00000000000E+00 -0.49331718668E+01  0.49331718668E+01  0.00000000000E+00 0.  1.
          5    1    1    2  501    0  0.18728389269E+00 -0.30191962512E+01  0.19635528057E+00  0.55927789744E+01  0.47000000000E+01 0.  1.
         -5    1    1    2    0  503 -0.18728389269E+00  0.30191962512E+01  0.12595791420E+01  0.57294991818E+01  0.47000000000E+01 0.  1.
<mgrwt>
<rscale>  2 0.55893310E+01</rscale>
<asrwt>0</asrwt>
<pdfrwt beam="1">  1       21 0.98293943E-03 0.55893310E+01</pdfrwt>
<pdfrwt beam="2">  1       21 0.75894952E-03 0.55893310E+01</pdfrwt>
<totfact> 0.44612775E+09</totfact>
</mgrwt>
</event>
<event>
 4    1  0.3992289E+006  0.4781935E+01  0.7546771E-02  0.2607356E+00
         21   -1    0    0  503  502  0.00000000000E+00  0.00000000000E+00  0.24720362612E+02  0.24720362612E+02  0.00000000000E+00 0.  1.
         21   -1    0    0  501  503 -0.00000000000E+00 -0.00000000000E+00 -0.31472581241E+01  0.31472581241E+01  0.00000000000E+00 0.  1.
          5    1    1    2  501    0  0.88129548052E+00  0.14909458012E-01 -0.92187921117E+00  0.48699861700E+01  0.47000000000E+01 0.  1.
         -5    1    1    2    0  502 -0.88129548052E+00 -0.14909458012E-01  0.22494983699E+02  0.22997634566E+02  0.47000000000E+01 0.  1.
<mgrwt>
<rscale>  2 0.47819352E+01</rscale>
<asrwt>0</asrwt>
<pdfrwt beam="1">  1       21 0.38031326E-02 0.47819352E+01</pdfrwt>
<pdfrwt beam="2">  1       21 0.48419357E-03 0.47819352E+01</pdfrwt>
<totfact> 0.10422020E+09</totfact>
</mgrwt>
</event>
<event>
 4    1  0.3992289E+006  0.5801064E+01  0.7546771E-02  0.2442057E+00
         21   -1    0    0  501  502  0.00000000000E+00  0.00000000000E+00  0.10117561578E+03  0.10117561578E+03  0.00000000000E+00 0. -1.
         21   -1    0    0  502  503 -0.00000000000E+00 -0.00000000000E+00 -0.35591544591E+00  0.35591544591E+00  0.00000000000E+00 0. -1.
          5    1    1    2  501    0 -0.29127070289E+01  0.17545595259E+01  0.37420220258E+02  0.37867205145E+02  0.47000000000E+01 0. -1.
         -5    1    1    2    0  503  0.29127070289E+01 -0.17545595259E+01  0.63399480074E+02  0.63664326078E+02  0.47000000000E+01 0. -1.
<mgrwt>
<rscale>  2 0.58010638E+01</rscale>
<asrwt>0</asrwt>
<pdfrwt beam="1">  1       21 0.15565456E-01 0.58010638E+01</pdfrwt>
<pdfrwt beam="2">  1       21 0.54756303E-04 0.58010638E+01</pdfrwt>
<totfact> 0.28279679E+09</totfact>
</mgrwt>
</event>
<event>
 4    1  0.3992289E+006  0.6531329E+01  0.7546771E-02  0.2351007E+00
         21   -1    0    0  501  502  0.00000000000E+00  0.00000000000E+00  0.22872248653E+01  0.22872248653E+01  0.00000000000E+00 0. -1.
         21   -1    0    0  502  503 -0.00000000000E+00 -0.00000000000E+00 -0.23275633700E+02  0.23275633700E+02  0.00000000000E+00 0.  1.
          5    1    1    2  501    0  0.45325532845E+01  0.15561902636E+00 -0.47967188788E+01  0.81035034745E+01  0.47000000000E+01 0. -1.
         -5    1    1    2    0  503 -0.45325532845E+01 -0.15561902636E+00 -0.16191689956E+02  0.17459355091E+02  0.47000000000E+01 0.  1.
<mgrwt>
<rscale>  2 0.65313289E+01</rscale>
<asrwt>0</asrwt>
<pdfrwt beam="1">  1       21 0.35188075E-03 0.65313289E+01</pdfrwt>
<pdfrwt beam="2">  1       21 0.35808667E-02 0.65313289E+01</pdfrwt>
<totfact> 0.23326186E+09</totfact>
</mgrwt>
</event>
<event>
 4    1  0.3992289E+006  0.7330882E+01  0.7546771E-02  0.2268875E+00
         21   -1    0    0  503  502  0.00000000000E+00  0.00000000000E+00  0.67000095523E+02  0.67000095523E+02  0.00000000000E+00 0.  1.
         21   -1    0    0  501  503 -0.00000000000E+00 -0.00000000000E+00 -0.12952303484E+01  0.12952303484E+01  0.00000000000E+00 0. -1.
          5    1    1    2  501    0 -0.48110793007E+00 -0.56053870628E+01  0.11782583303E+02  0.13876998892E+02  0.47000000000E+01 0. -1.
         -5    1    1    2    0  502  0.48110793007E+00  0.56053870628E+01  0.53922281872E+02  0.54418326980E+02  0.47000000000E+01 0. -1.
<mgrwt>
<rscale>  2 0.73308819E+01</rscale>
<asrwt>0</asrwt>
<pdfrwt beam="1">  1       21 0.10307704E-01 0.73308819E+01</pdfrwt>
<pdfrwt beam="2">  1       21 0.19926626E-03 0.73308819E+01</pdfrwt>
<totfact> 0.11276427E+09</totfact>
</mgrwt>
</event>
<event>
 4    1  0.3992289E+006  0.6479425E+01  0.7546771E-02  0.2356911E+00
         21   -1    0    0  501  502  0.00000000000E+00  0.00000000000E+00  0.29335019753E+01  0.29335019753E+01  0.00000000000E+00 0. -1.
         21   -1    0    0  502  503 -0.00000000000E+00 -0.00000000000E+00 -0.41741180623E+02  0.41741180623E+02  0.00000000000E+00 0.  1.
          5    1    1    2  501    0 -0.40228784057E+01 -0.19259793957E+01 -0.12963127971E+01  0.66078267356E+01  0.47000000000E+01 0. -1.
         -5    1    1    2    0  503  0.40228784057E+01  0.19259793957E+01 -0.37511365851E+02  0.38066855863E+02  0.47000000000E+01 0.  1.
<mgrwt>
<rscale>  2 0.64794249E+01</rscale>
<asrwt>0</asrwt>
<pdfrwt beam="1">  1       21 0.45130803E-03 0.64794249E+01</pdfrwt>
<pdfrwt beam="2">  1       21 0.64217197E-02 0.64794249E+01</pdfrwt>
<totfact> 0.68776982E+08</totfact>
</mgrwt>
</event>
<event>
 4    1  0.3992289E+006  0.5376769E+01  0.7546771E-02  0.2504363E+00
         21   -1    0    0  501  502  0.00000000000E+00  0.00000000000E+00  0.76084969546E+01  0.76084969546E+01  0.00000000000E+00 0. -1.
         21   -1    0    0  502  503 -0.00000000000E+00 -0.00000000000E+00 -0.10656652229E+02  0.10656652229E+02  0.00000000000E+00 0. -1.
          5    1    1    2  501    0  0.20983772591E+01  0.15544956585E+01  0.58016353605E+01  0.79100326630E+01  0.47000000000E+01 0.  1.
         -5    1    1    2    0  503 -0.20983772591E+01 -0.15544956585E+01 -0.88497906353E+01  0.10355116521E+02  0.47000000000E+01 0.  1.
<mgrwt>
<rscale>  2 0.53767689E+01</rscale>
<asrwt>0</asrwt>
<pdfrwt beam="1">  1       21 0.11705380E-02 0.53767689E+01</pdfrwt>
<pdfrwt beam="2">  1       21 0.16394850E-02 0.53767689E+01</pdfrwt>
<totfact> 0.11395686E+09</totfact>
</mgrwt>
</event>
<event>
 4    1  0.3992289E+006  0.4963178E+01  0.7546771E-02  0.2573728E+00
         21   -1    0    0  503  502  0.00000000000E+00  0.00000000000E+00  0.50035328311E+02  0.50035328311E+02  0.00000000000E+00 0.  1.
         21   -1    0    0  501  503 -0.00000000000E+00 -0.00000000000E+00 -0.25053121972E+01  0.25053121972E+01  0.00000000000E+00 0. -1.
          5    1    1    2  501    0  0.15762595648E+01  0.24194456138E+00  0.21689836455E+00  0.49679146819E+01  0.47000000000E+01 0. -1.
         -5    1    1    2    0  502 -0.15762595648E+01 -0.24194456138E+00  0.47313117749E+02  0.47572725826E+02  0.47000000000E+01 0.  1.
<mgrwt>
<rscale>  2 0.49631775E+01</rscale>
<asrwt>0</asrwt>
<pdfrwt beam="1">  1       21 0.76977421E-02 0.49631775E+01</pdfrwt>
<pdfrwt beam="2">  1       21 0.38543268E-03 0.49631775E+01</pdfrwt>
<totfact> 0.52480588E+08</totfact>
</mgrwt>
</event>
<event>
 4    1  0.3992289E+006  0.5523792E+01  0.7546771E-02  0.2481856E+00
         21   -1    0    0  503  502  0.00000000000E+00  0.00000000000E+00  0.16700723725E+04  0.16700723725E+04  0.00000000000E+00 0.  1.
         21   -1    0    0  501  503 -0.00000000000E+00 -0.00000000000E+00 -0.39451986035E-01  0.39451986035E-01  0.00000000000E+00 0.  1.
          5    1    1    2  501    0  0.20477046325E+01  0.20564973517E+01  0.22313945716E+03  0.22320781710E+03  0.47000000000E+01 0.  1.
         -5    1    1    2    0  502 -0.20477046325E+01 -0.20564973517E+01  0.14468934633E+04  0.14469040074E+04  0.47000000000E+01 0.  1.
<mgrwt>
<rscale>  2 0.55237918E+01</rscale>
<asrwt>0</asrwt>
<pdfrwt beam="1">  1       21 0.25687760E+00 0.55237918E+01</pdfrwt>
<pdfrwt beam="2">  1       21 0.60708739E-05 0.55237918E+01</pdfrwt>
<totfact> 0.25472833E+08</totfact>
</mgrwt>
</event>
<event>
 4    1  0.3992289E+006  0.5759247E+01  0.7546771E-02  0.2447852E+00
         21   -1    0    0  503  502  0.00000000000E+00  0.00000000000E+00  0.93832785418E+00  0.93832785418E+00  0.00000000000E+00 0. -1.
         21   -1    0    0  501  503 -0.00000000000E+00 -0.00000000000E+00 -0.13503158463E+03  0.13503158463E+03  0.00000000000E+00 0. -1.
          5    1    1    2  501    0  0.31544381816E+01  0.10622837632E+01 -0.12545900029E+03  0.12559112103E+03  0.47000000000E+01 0. -1.
         -5    1    1    2    0  502 -0.31544381816E+01 -0.10622837632E+01 -0.86342564815E+01  0.10378791453E+02  0.47000000000E+01 0. -1.
<mgrwt>
<rscale>  2 0.57592471E+01</rscale>
<asrwt>0</asrwt>
<pdfrwt beam="1">  1       21 0.14435815E-03 0.57592471E+01</pdfrwt>
<pdfrwt beam="2">  1       21 0.20774088E-01 0.57592471E+01</pdfrwt>
<totfact> 0.48380837E+08</totfact>
</mgrwt>
</event>
<event>
 4    1  0.3992289E+006  0.7124489E+01  0.7546771E-02  0.2288623E+00
         21   -1    0    0  503  502  0.00000000000E+00  0.00000000000E+00  0.11874427771E+02  0.11874427771E+02  0.00000000000E+00 0.  1.
         21   -1    0    0  501  503 -0.00000000000E+00 -0.00000000000E+00 -0.90443106271E+01  0.90443106271E+01  0.00000000000E+00 0.  1.
          5    1    1    2  501    0 -0.36339791009E+01  0.39322437062E+01 -0.61805766070E+01  0.94317480811E+01  0.47000000000E+01 0.  1.
         -5    1    1    2    0  502  0.36339791009E+01 -0.39322437062E+01  0.90106937508E+01  0.11486990317E+02  0.47000000000E+01 0.  1.
<mgrwt>
<rscale>  2 0.71244891E+01</rscale>
<asrwt>0</asrwt>
<pdfrwt beam="1">  1       21 0.18268350E-02 0.71244891E+01</pdfrwt>
<pdfrwt beam="2">  1       21 0.13914324E-02 0.71244891E+01</pdfrwt>
<totfact> 0.95721720E+08</totfact>
</mgrwt>
</event>
<event>
 4    1  0.3992289E+006  0.5473866E+01  0.7546771E-02  0.2489384E+00
         21   -1    0    0  501  502  0.00000000000E+00  0.00000000000E+00  0.75887363417E+02  0.75887363417E+02  0.00000000000E+00 0.  1.
         21   -1    0    0  502  503 -0.00000000000E+00 -0.00000000000E+00 -0.19443702973E+01  0.19443702973E+01  0.00000000000E+00 0. -1.
          5    1    1    2  501    0  0.15989965326E+01 -0.23057360558E+01  0.71712115177E+02  0.71920724912E+02  0.47000000000E+01 0.  1.
         -5    1    1    2    0  503 -0.15989965326E+01  0.23057360558E+01  0.22308779427E+01  0.59110088027E+01  0.47000000000E+01 0. -1.
<mgrwt>
<rscale>  2 0.54738660E+01</rscale>
<asrwt>0</asrwt>
<pdfrwt beam="1">  1       21 0.11674977E-01 0.54738660E+01</pdfrwt>
<pdfrwt beam="2">  1       21 0.29913395E-03 0.54738660E+01</pdfrwt>
<totfact> 0.42923428E+08</totfact>
</mgrwt>
</event>
<event>
 4    1  0.3992289E+006  0.5027724E+01  0.7546771E-02  0.2562259E+00
         21   -1    0    0  503  502  0.00000000000E+00  0.00000000000E+00  0.43563351939E+02  0.43563351939E+02  0.00000000000E+00 0.  1.
         21   -1    0    0  501  503 -0.00000000000E+00 -0.00000000000E+00 -0.75755777121E+00  0.75755777121E+00  0.00000000000E+00 0.  1.
          5    1    1    2  501    0 -0.13106881444E+00  0.17806837047E+01  0.10682175069E+02  0.11806221991E+02  0.47000000000E+01 0.  1.
         -5    1    1    2    0  502  0.13106881444E+00 -0.17806837047E+01  0.32123619099E+02  0.32514687720E+02  0.47000000000E+01 0.  1.
<mgrwt>
<rscale>  2 0.50277245E+01</rscale>
<asrwt>0</asrwt>
<pdfrwt beam="1">  1       21 0.67020522E-02 0.50277245E+01</pdfrwt>
<pdfrwt beam="2">  1       21 0.11654738E-03 0.50277245E+01</pdfrwt>
<totfact> 0.32712308E+09</totfact>
</mgrwt>
</event>
<event>
 4    1  0.3992289E+006  0.6739632E+01  0.7546771E-02  0.2328071E+00
         21   -1    0    0  503  502  0.00000000000E+00  0.00000000000E+00  0.17631498750E+01  0.17631498750E+01  0.00000000000E+00 0. -1.
         21   -1    0    0  501  503 -0.00000000000E+00 -0.00000000000E+00 -0.25819314630E+02  0.25819314630E+02  0.00000000000E+00 0. -1.
          5    1    1    2  501    0 -0.19096816667E+01 -0.44368634775E+01 -0.11379511834E+02  0.13225578671E+02  0.47000000000E+01 0.  1.
         -5    1    1    2    0  502  0.19096816667E+01  0.44368634775E+01 -0.12676652920E+02  0.14356885834E+02  0.47000000000E+01 0.  1.
<mgrwt>
<rscale>  2 0.67396322E+01</rscale>
<asrwt>0</asrwt>
<pdfrwt beam="1">  1       21 0.27125383E-03 0.67396322E+01</pdfrwt>
<pdfrwt beam="2">  1       21 0.39722022E-02 0.67396322E+01</pdfrwt>
<totfact> 0.29411816E+09</totfact>
</mgrwt>
</event>
<event>
 4    1  0.3992289E+006  0.5103638E+01  0.7546771E-02  0.2549091E+00
         21   -1    0    0  503  502  0.00000000000E+00  0.00000000000E+00  0.80491921242E-01  0.80491921242E-01  0.00000000000E+00 0. -1.
         21   -1    0    0  501  503 -0.00000000000E+00 -0.00000000000E+00 -0.68893814319E+03  0.68893814319E+03  0.00000000000E+00 0. -1.
          5    1    1    2  501    0  0.19797647048E+01 -0.19403667975E+00 -0.59530467851E+03  0.59532655525E+03  0.47000000000E+01 0. -1.
         -5    1    1    2    0  502 -0.19797647048E+01  0.19403667975E+00 -0.93552972753E+02  0.93692079865E+02  0.47000000000E+01 0. -1.
<mgrwt>
<rscale>  2 0.51036378E+01</rscale>
<asrwt>0</asrwt>
<pdfrwt beam="1">  1       21 0.12383639E-04 0.51036378E+01</pdfrwt>
<pdfrwt beam="2">  1       21 0.10598820E+00 0.51036378E+01</pdfrwt>
<totfact> 0.63126996E+08</totfact>
</mgrwt>
</event>
<event>
 4    1  0.3992289E+006  0.5032549E+01  0.7546771E-02  0.2561412E+00
         21   -1    0    0  503  502  0.00000000000E+00  0.00000000000E+00  0.47259461115E+00  0.47259461115E+00  0.00000000000E+00 0. -1.
         21   -1    0    0  501  503 -0.00000000000E+00 -0.00000000000E+00 -0.55605964543E+02  0.55605964543E+02  0.00000000000E+00 0. -1.
          5    1    1    2  501    0 -0.17215828110E+01  0.52221138310E+00 -0.32904953867E+02  0.33287573373E+02  0.47000000000E+01 0. -1.
         -5    1    1    2    0  502  0.17215828110E+01 -0.52221138310E+00 -0.22228416064E+02  0.22790985780E+02  0.47000000000E+01 0. -1.
<mgrwt>
<rscale>  2 0.50325493E+01</rscale>
<asrwt>0</asrwt>
<pdfrwt beam="1">  1       21 0.72706911E-04 0.50325493E+01</pdfrwt>
<pdfrwt beam="2">  1       21 0.85547581E-02 0.50325493E+01</pdfrwt>
<totfact> 0.42599421E+09</totfact>
</mgrwt>
</event>
<event>
 4    1  0.3992289E+006  0.5822026E+01  0.7546771E-02  0.2439179E+00
         21   -1    0    0  501  502  0.00000000000E+00  0.00000000000E+00  0.30880037286E+02  0.30880037286E+02  0.00000000000E+00 0. -1.
         21   -1    0    0  502  503 -0.00000000000E+00 -0.00000000000E+00 -0.11030671083E+01  0.11030671083E+01  0.00000000000E+00 0. -1.
          5    1    1    2  501    0  0.20811189562E+00 -0.34296753654E+01  0.16007431782E+02  0.17033316058E+02  0.47000000000E+01 0. -1.
         -5    1    1    2    0  503 -0.20811189562E+00  0.34296753654E+01  0.13769538396E+02  0.14949788337E+02  0.47000000000E+01 0. -1.
<mgrwt>
<rscale>  2 0.58220257E+01</rscale>
<asrwt>0</asrwt>
<pdfrwt beam="1">  1       21 0.47507743E-02 0.58220257E+01</pdfrwt>
<pdfrwt beam="2">  1       21 0.16970265E-03 0.58220257E+01</pdfrwt>
<totfact> 0.37793738E+09</totfact>
</mgrwt>
</event>
<event>
 4    1  0.3992289E+006  0.7375908E+01  0.7546771E-02  0.2264686E+00
         21   -1    0    0  501  502  0.00000000000E+00  0.00000000000E+00  0.96953702293E+01  0.96953702293E+01  0.00000000000E+00 0.  1.
         21   -1    0    0  502  503 -0.00000000000E+00 -0.00000000000E+00 -0.78571214133E+01  0.78571214133E+01  0.00000000000E+00 0.  1.
          5    1    1    2  501    0 -0.51564270275E+01 -0.23927562087E+01  0.56111541569E+01  0.92676357793E+01  0.47000000000E+01 0.  1.
         -5    1    1    2    0  503  0.51564270275E+01  0.23927562087E+01 -0.37729053409E+01  0.82848558633E+01  0.47000000000E+01 0.  1.
<mgrwt>
<rscale>  2 0.73759082E+01</rscale>
<asrwt>0</asrwt>
<pdfrwt beam="1">  1       21 0.14915954E-02 0.73759082E+01</pdfrwt>
<pdfrwt beam="2">  1       21 0.12087879E-02 0.73759082E+01</pdfrwt>
<totfact> 0.16110378E+09</totfact>
</mgrwt>
</event>
<event>
 4    1  0.3992289E+006  0.5716442E+01  0.7546771E-02  0.2453858E+00
         21   -1    0    0  501  502  0.00000000000E+00  0.00000000000E+00  0.15131784544E+00  0.15131784544E+00  0.00000000000E+00 0.  1.
         21   -1    0    0  502  503 -0.00000000000E+00 -0.00000000000E+00 -0.21763709957E+03  0.21763709957E+03  0.00000000000E+00 0.  1.
          5    1    1    2  501    0 -0.14124589431E+01  0.29313257209E+01 -0.99167005508E+02  0.99331629868E+02  0.47000000000E+01 0.  1.
         -5    1    1    2    0  503  0.14124589431E+01 -0.29313257209E+01 -0.11831877622E+03  0.11845678755E+03  0.47000000000E+01 0.  1.
<mgrwt>
<rscale>  2 0.57164421E+01</rscale>
<asrwt>0</asrwt>
<pdfrwt beam="1">  1       21 0.23279675E-04 0.57164421E+01</pdfrwt>
<pdfrwt beam="2">  1       21 0.33482622E-01 0.57164421E+01</pdfrwt>
<totfact> 0.25012908E+09</totfact>
</mgrwt>
</event>
<event>
 4    1  0.3992289E+006  0.6109918E+01  0.7546771E-02  0.2401334E+00
         21   -1    0    0  501  502  0.00000000000E+00  0.00000000000E+00  0.10456621949E+03  0.10456621949E+03  0.00000000000E+00 0. -1.
         21   -1    0    0  502  503 -0.00000000000E+00 -0.00000000000E+00 -0.11499207028E+01  0.11499207028E+01  0.00000000000E+00 0.  1.
          5    1    1    2  501    0 -0.12284503874E+01  0.37056720791E+01  0.95600590192E+02  0.95795636336E+02  0.47000000000E+01 0. -1.
         -5    1    1    2    0  503  0.12284503874E+01 -0.37056720791E+01  0.78157085904E+01  0.99205038522E+01  0.47000000000E+01 0.  1.
<mgrwt>
<rscale>  2 0.61099178E+01</rscale>
<asrwt>0</asrwt>
<pdfrwt beam="1">  1       21 0.16087103E-01 0.61099178E+01</pdfrwt>
<pdfrwt beam="2">  1       21 0.17691096E-03 0.61099178E+01</pdfrwt>
<totfact> 0.57814663E+08</totfact>
</mgrwt>
</event>
<event>
 4    1  0.3992289E+006  0.6790900E+01  0.7546771E-02  0.2322605E+00
         21   -1    0    0  501  502  0.00000000000E+00  0.00000000000E+00  0.36229754451E+02  0.36229754451E+02  0.00000000000E+00 0.  1.
         21   -1    0    0  502  503 -0.00000000000E+00 -0.00000000000E+00 -0.28785643539E+01  0.28785643539E+01  0.00000000000E+00 0. -1.
          5    1    1    2  501    0 -0.25940179662E+01  0.41590131692E+01  0.31279888757E+02  0.32008557612E+02  0.47000000000E+01 0.  1.
         -5    1    1    2    0  503  0.25940179662E+01 -0.41590131692E+01  0.20713013398E+01  0.70997611925E+01  0.47000000000E+01 0. -1.
<mgrwt>
<rscale>  2 0.67908998E+01</rscale>
<asrwt>0</asrwt>
<pdfrwt beam="1">  1       21 0.55738080E-02 0.67908998E+01</pdfrwt>
<pdfrwt beam="2">  1       21 0.44285608E-03 0.67908998E+01</pdfrwt>
<totfact> 0.90430623E+08</totfact>
</mgrwt>
</event>
<event>
 4    1  0.3992289E+006  0.6584307E+01  0.7546771E-02  0.2345060E+00
         21   -1    0    0  503  502  0.00000000000E+00  0.00000000000E+00  0.22172680811E+03  0.22172680811E+03  0.00000000000E+00 0.  1.
         21   -1    0    0  501  503 -0.00000000000E+00 -0.00000000000E+00 -0.75442781690E+00  0.75442781690E+00  0.00000000000E+00 0. -1.
          5    1    1    2  501    0 -0.40215474923E+01 -0.22561605661E+01  0.14739725493E+02  0.16143500622E+02  0.47000000000E+01 0. -1.
         -5    1    1    2    0  502  0.40215474923E+01  0.22561605661E+01  0.20623265480E+03  0.20633773530E+03  0.47000000000E+01 0.  1.
<mgrwt>
<rscale>  2 0.65843075E+01</rscale>
<asrwt>0</asrwt>
<pdfrwt beam="1">  1       21 0.34111765E-01 0.65843075E+01</pdfrwt>
<pdfrwt beam="2">  1       21 0.11606599E-03 0.65843075E+01</pdfrwt>
<totfact> 0.31221858E+08</totfact>
</mgrwt>
</event>
<event>
 4    1  0.3992289E+006  0.4726451E+01  0.7546771E-02  0.2618096E+00
         21   -1    0    0  501  502  0.00000000000E+00  0.00000000000E+00  0.13026743179E+01  0.13026743179E+01  0.00000000000E+00 0.  1.
         21   -1    0    0  502  503 -0.00000000000E+00 -0.00000000000E+00 -0.10922400588E+03  0.10922400588E+03  0.00000000000E+00 0.  1.
          5    1    1    2  501    0  0.46262095777E+00  0.18794856663E+00 -0.32207953448E+01  0.57195161917E+01  0.47000000000E+01 0.  1.
         -5    1    1    2    0  503 -0.46262095777E+00 -0.18794856663E+00 -0.10470053621E+03  0.10480716400E+03  0.47000000000E+01 0.  1.
<mgrwt>
<rscale>  2 0.47264514E+01</rscale>
<asrwt>0</asrwt>
<pdfrwt beam="1">  1       21 0.20041144E-03 0.47264514E+01</pdfrwt>
<pdfrwt beam="2">  1       21 0.16803692E-01 0.47264514E+01</pdfrwt>
<totfact> 0.37103246E+08</totfact>
</mgrwt>
</event>
<event>
 4    1  0.3992289E+006  0.5260323E+01  0.7546771E-02  0.2522946E+00
         21   -1    0    0  503  502  0.00000000000E+00  0.00000000000E+00  0.23017252326E+00  0.23017252326E+00  0.00000000000E+00 0.  1.
         21   -1    0    0  501  503 -0.00000000000E+00 -0.00000000000E+00 -0.13774969411E+03  0.13774969411E+03  0.00000000000E+00 0.  1.
          5    1    1    2  501    0 -0.23280913665E+01 -0.40122959769E+00 -0.93371720790E+02  0.93519779929E+02  0.47000000000E+01 0.  1.
         -5    1    1    2    0  502  0.23280913665E+01  0.40122959769E+00 -0.44147800797E+02  0.44460086705E+02  0.47000000000E+01 0.  1.
<mgrwt>
<rscale>  2 0.52603227E+01</rscale>
<asrwt>0</asrwt>
<pdfrwt beam="1">  1       21 0.35411178E-04 0.52603227E+01</pdfrwt>
<pdfrwt beam="2">  1       21 0.21192248E-01 0.52603227E+01</pdfrwt>
<totfact> 0.28350064E+09</totfact>
</mgrwt>
</event>
<event>
 4    1  0.3992289E+006  0.8462578E+01  0.7546771E-02  0.2174738E+00
         21   -1    0    0  503  502  0.00000000000E+00  0.00000000000E+00  0.66389841179E-01  0.66389841179E-01  0.00000000000E+00 0. -1.
         21   -1    0    0  501  503 -0.00000000000E+00 -0.00000000000E+00 -0.10877136578E+04  0.10877136578E+04  0.00000000000E+00 0. -1.
          5    1    1    2  501    0 -0.48018913677E+01  0.51446159000E+01 -0.49433350982E+03  0.49440594066E+03  0.47000000000E+01 0. -1.
         -5    1    1    2    0  502  0.48018913677E+01 -0.51446159000E+01 -0.59331375812E+03  0.59337410696E+03  0.47000000000E+01 0. -1.
<mgrwt>
<rscale>  2 0.84625784E+01</rscale>
<asrwt>0</asrwt>
<pdfrwt beam="1">  1       21 0.10213453E-04 0.84625784E+01</pdfrwt>
<pdfrwt beam="2">  1       21 0.16734660E+00 0.84625784E+01</pdfrwt>
<totfact> 0.41834148E+08</totfact>
</mgrwt>
</event>
<event>
 4    1  0.3992289E+006  0.5470320E+01  0.7546771E-02  0.2489923E+00
         21   -1    0    0  501  502  0.00000000000E+00  0.00000000000E+00  0.40388898493E+01  0.40388898493E+01  0.00000000000E+00 0.  1.
         21   -1    0    0  502  503 -0.00000000000E+00 -0.00000000000E+00 -0.94546682058E+01  0.94546682058E+01  0.00000000000E+00 0.  1.
          5    1    1    2  501    0  0.73534421497E+00 -0.27006792311E+01  0.43033515203E+00  0.54872204044E+01  0.47000000000E+01 0.  1.
         -5    1    1    2    0  503 -0.73534421497E+00  0.27006792311E+01 -0.58461135085E+01  0.80063376507E+01  0.47000000000E+01 0.  1.
<mgrwt>
<rscale>  2 0.54703199E+01</rscale>
<asrwt>0</asrwt>
<pdfrwt beam="1">  1       21 0.62136767E-03 0.54703199E+01</pdfrwt>
<pdfrwt beam="2">  1       21 0.14545643E-02 0.54703199E+01</pdfrwt>
<totfact> 0.33234944E+09</totfact>
</mgrwt>
</event>
<event>
 4    1  0.3992289E+006  0.6011449E+01  0.7546771E-02  0.2413936E+00
         21   -1    0    0  501  502  0.00000000000E+00  0.00000000000E+00  0.33366209327E+00  0.33366209327E+00  0.00000000000E+00 0.  1.
         21   -1    0    0  502  503 -0.00000000000E+00 -0.00000000000E+00 -0.10952242925E+03  0.10952242925E+03  0.00000000000E+00 0. -1.
          5    1    1    2  501    0 -0.37021622753E+01 -0.58439459595E+00 -0.60383750009E+02  0.60682244419E+02  0.47000000000E+01 0.  1.
         -5    1    1    2    0  503  0.37021622753E+01  0.58439459595E+00 -0.48805017145E+02  0.49173846922E+02  0.47000000000E+01 0. -1.
<mgrwt>
<rscale>  2 0.60114493E+01</rscale>
<asrwt>0</asrwt>
<pdfrwt beam="1">  1       21 0.51332619E-04 0.60114493E+01</pdfrwt>
<pdfrwt beam="2">  1       21 0.16849608E-01 0.60114493E+01</pdfrwt>
<totfact> 0.28019508E+09</totfact>
</mgrwt>
</event>
<event>
 4    1  0.3992289E+006  0.8623942E+01  0.7546771E-02  0.2162953E+00
         21   -1    0    0  503  502  0.00000000000E+00  0.00000000000E+00  0.11068186874E+02  0.11068186874E+02  0.00000000000E+00 0.  1.
         21   -1    0    0  501  503 -0.00000000000E+00 -0.00000000000E+00 -0.33427899382E+02  0.33427899382E+02  0.00000000000E+00 0. -1.
          5    1    1    2  501    0 -0.52543781914E+01 -0.49672819224E+01 -0.31066496953E+02  0.32241271885E+02  0.47000000000E+01 0. -1.
         -5    1    1    2    0  502  0.52543781914E+01  0.49672819224E+01  0.87067844452E+01  0.12254814370E+02  0.47000000000E+01 0.  1.
<mgrwt>
<rscale>  2 0.86239422E+01</rscale>
<asrwt>0</asrwt>
<pdfrwt beam="1">  1       21 0.17027980E-02 0.86239422E+01</pdfrwt>
<pdfrwt beam="2">  1       21 0.51427536E-02 0.86239422E+01</pdfrwt>
<totfact> 0.17395702E+08</totfact>
</mgrwt>
</event>
<event>
 4    1  0.3992289E+006  0.6027860E+01  0.7546771E-02  0.2411812E+00
         21   -1    0    0  503  502  0.00000000000E+00  0.00000000000E+00  0.74300800772E+03  0.74300800772E+03  0.00000000000E+00 0.  1.
         21   -1    0    0  501  503 -0.00000000000E+00 -0.00000000000E+00 -0.71470926643E-01  0.71470926643E-01  0.00000000000E+00 0.  1.
          5    1    1    2  501    0  0.11824940174E+01 -0.35842436203E+01  0.16268806073E+03  0.16279969348E+03  0.47000000000E+01 0.  1.
         -5    1    1    2    0  502 -0.11824940174E+01  0.35842436203E+01  0.58024847606E+03  0.58027978516E+03  0.47000000000E+01 0.  1.
<mgrwt>
<rscale>  2 0.60278599E+01</rscale>
<asrwt>0</asrwt>
<pdfrwt beam="1">  1       21 0.11430274E+00 0.60278599E+01</pdfrwt>
<pdfrwt beam="2">  1       21 0.10996122E-04 0.60278599E+01</pdfrwt>
<totfact> 0.71244320E+08</totfact>
</mgrwt>
</event>
<event>
 4    1  0.3992289E+006  0.5849318E+01  0.7546771E-02  0.2435457E+00
         21   -1    0    0  501  502  0.00000000000E+00  0.00000000000E+00  0.12358634728E+04  0.12358634728E+04  0.00000000000E+00 0. -1.
         21   -1    0    0  502  503 -0.00000000000E+00 -0.00000000000E+00 -0.32642941013E-01  0.32642941013E-01  0.00000000000E+00 0.  1.
          5    1    1    2  501    0 -0.23802194868E+01 -0.25414710004E+01  0.85875107254E+03  0.85877099340E+03  0.47000000000E+01 0.  1.
         -5    1    1    2    0  503  0.23802194868E+01  0.25414710004E+01  0.37707975736E+03  0.37712512238E+03  0.47000000000E+01 0. -1.
<mgrwt>
<rscale>  2 0.58493179E+01</rscale>
<asrwt>0</asrwt>
<pdfrwt beam="1">  1       21 0.19009537E+00 0.58493179E+01</pdfrwt>
<pdfrwt beam="2">  1       21 0.50229807E-05 0.58493179E+01</pdfrwt>
<totfact> 0.67146515E+08</totfact>
</mgrwt>
</event>
<event>
 4    1  0.3992289E+006  0.5062383E+01  0.7546771E-02  0.2556205E+00
         21   -1    0    0  501  502  0.00000000000E+00  0.00000000000E+00  0.58026439297E+03  0.58026439297E+03  0.00000000000E+00 0.  1.
         21   -1    0    0  502  503 -0.00000000000E+00 -0.00000000000E+00 -0.69427528172E-01  0.69427528172E-01  0.00000000000E+00 0.  1.
          5    1    1    2  501    0 -0.76362433426E+00  0.17188943565E+01  0.46512863738E+03  0.46515618563E+03  0.47000000000E+01 0.  1.
         -5    1    1    2    0  503  0.76362433426E+00 -0.17188943565E+01  0.11506632806E+03  0.11517763487E+03  0.47000000000E+01 0.  1.
<mgrwt>
<rscale>  2 0.50623828E+01</rscale>
<asrwt>0</asrwt>
<pdfrwt beam="1">  1       21 0.89267562E-01 0.50623828E+01</pdfrwt>
<pdfrwt beam="2">  1       21 0.10681623E-04 0.50623828E+01</pdfrwt>
<totfact> 0.10736131E+09</totfact>
</mgrwt>
</event>
<event>
 4    1  0.3992289E+006  0.5827385E+01  0.7546771E-02  0.2438446E+00
         21   -1    0    0  503  502  0.00000000000E+00  0.00000000000E+00  0.93838128968E+01  0.93838128968E+01  0.00000000000E+00 0.  1.
         21   -1    0    0  501  503 -0.00000000000E+00 -0.00000000000E+00 -0.53797642381E+01  0.53797642381E+01  0.00000000000E+00 0.  1.
          5    1    1    2  501    0 -0.33388549093E+01  0.84879893748E+00 -0.22212734584E+01  0.62363825667E+01  0.47000000000E+01 0.  1.
         -5    1    1    2    0  502  0.33388549093E+01 -0.84879893748E+00  0.62253221171E+01  0.85271945682E+01  0.47000000000E+01 0.  1.
<mgrwt>
<rscale>  2 0.58273846E+01</rscale>
<asrwt>0</asrwt>
<pdfrwt beam="1">  1       21 0.14436635E-02 0.58273846E+01</pdfrwt>
<pdfrwt beam="2">  1       21 0.82765604E-03 0.58273846E+01</pdfrwt>
<totfact> 0.23857405E+09</totfact>
</mgrwt>
</event>
<event>
 4    1  0.3992289E+006  0.7483894E+01  0.7546771E-02  0.2254809E+00
         21   -1    0    0  501  502  0.00000000000E+00  0.00000000000E+00  0.82394844021E+00  0.82394844021E+00  0.00000000000E+00 0.  1.
         21   -1    0    0  502  503 -0.00000000000E+00 -0.00000000000E+00 -0.83154139565E+02  0.83154139565E+02  0.00000000000E+00 0. -1.
          5    1    1    2  501    0 -0.57247676736E+01  0.10703763503E+01 -0.23225850331E+02  0.24401819482E+02  0.47000000000E+01 0.  1.
         -5    1    1    2    0  503  0.57247676736E+01 -0.10703763503E+01 -0.59104340794E+02  0.59576268523E+02  0.47000000000E+01 0. -1.
<mgrwt>
<rscale>  2 0.74838941E+01</rscale>
<asrwt>0</asrwt>
<pdfrwt beam="1">  1       21 0.12676125E-03 0.74838941E+01</pdfrwt>
<pdfrwt beam="2">  1       21 0.12792950E-01 0.74838941E+01</pdfrwt>
<totfact> 0.15144787E+09</totfact>
</mgrwt>
</event>
<event>
 4    1  0.3992289E+006  0.5642018E+01  0.7546771E-02  0.2464482E+00
         21   -1    0    0  501  502  0.00000000000E+00  0.00000000000E+00  0.18437901706E+00  0.18437901706E+00  0.00000000000E+00 0.  1.
         21   -1    0    0  502  503 -0.00000000000E+00 -0.00000000000E+00 -0.20515320183E+03  0.20515320183E+03  0.00000000000E+00 0. -1.
          5    1    1    2  501    0  0.60517414346E+00 -0.30620472702E+01 -0.61616111334E+02  0.61873884194E+02  0.47000000000E+01 0.  1.
         -5    1    1    2    0  503 -0.60517414346E+00  0.30620472702E+01 -0.14335271148E+03  0.14346369666E+03  0.47000000000E+01 0. -1.
<mgrwt>
<rscale>  2 0.56420182E+01</rscale>
<asrwt>0</asrwt>
<pdfrwt beam="1">  1       21 0.28366095E-04 0.56420182E+01</pdfrwt>
<pdfrwt beam="2">  1       21 0.31561928E-01 0.56420182E+01</pdfrwt>
<totfact> 0.21020481E+09</totfact>
</mgrwt>
</event>
<event>
 4    1  0.3992289E+006  0.1085618E+02  0.7546771E-02  0.2029303E+00
         21   -1    0    0  503  502  0.00000000000E+00  0.00000000000E+00  0.16744860702E+01  0.16744860702E+01  0.00000000000E+00 0.  1.
         21   -1    0    0  501  503 -0.00000000000E+00 -0.00000000000E+00 -0.74192950165E+02  0.74192950165E+02  0.00000000000E+00 0. -1.
          5    1    1    2  501    0 -0.72865483789E+01 -0.65324490347E+01 -0.44854484756E+02  0.46149555582E+02  0.47000000000E+01 0. -1.
         -5    1    1    2    0  502  0.72865483789E+01  0.65324490347E+01 -0.27663979339E+02  0.29717880653E+02  0.47000000000E+01 0.  1.
<mgrwt>
<rscale>  2 0.10856182E+02</rscale>
<asrwt>0</asrwt>
<pdfrwt beam="1">  1       21 0.25761327E-03 0.10856182E+02</pdfrwt>
<pdfrwt beam="2">  1       21 0.11414299E-01 0.10856182E+02</pdfrwt>
<totfact> 0.85187263E+08</totfact>
</mgrwt>
</event>
<event>
 4    1  0.3992289E+006  0.6983197E+01  0.7546771E-02  0.2302691E+00
         21   -1    0    0  501  502  0.00000000000E+00  0.00000000000E+00  0.14856058352E+00  0.14856058352E+00  0.00000000000E+00 0.  1.
         21   -1    0    0  502  503 -0.00000000000E+00 -0.00000000000E+00 -0.39232041581E+03  0.39232041581E+03  0.00000000000E+00 0.  1.
          5    1    1    2  501    0  0.21957657987E+01  0.46747883437E+01 -0.11678410795E+03  0.11699270448E+03  0.47000000000E+01 0.  1.
         -5    1    1    2    0  503 -0.21957657987E+01 -0.46747883437E+01 -0.27538774728E+03  0.27547627191E+03  0.47000000000E+01 0.  1.
<mgrwt>
<rscale>  2 0.69831965E+01</rscale>
<asrwt>0</asrwt>
<pdfrwt beam="1">  1       21 0.22855469E-04 0.69831965E+01</pdfrwt>
<pdfrwt beam="2">  1       21 0.60357000E-01 0.69831965E+01</pdfrwt>
<totfact> 0.10382570E+09</totfact>
</mgrwt>
</event>
<event>
 4    1  0.3992289E+006  0.1474727E+02  0.7546771E-02  0.1875880E+00
         21   -1    0    0  501  502  0.00000000000E+00  0.00000000000E+00  0.46466958602E+02  0.46466958602E+02  0.00000000000E+00 0.  1.
         21   -1    0    0  502  503 -0.00000000000E+00 -0.00000000000E+00 -0.83388505224E+01  0.83388505224E+01  0.00000000000E+00 0. -1.
          5    1    1    2  501    0 -0.13804400263E+02  0.21978474207E+01  0.37214804726E+02  0.40030284670E+02  0.47000000000E+01 0.  1.
         -5    1    1    2    0  503  0.13804400263E+02 -0.21978474207E+01  0.91330335342E+00  0.14775524455E+02  0.47000000000E+01 0. -1.
<mgrwt>
<rscale>  2 0.14747271E+02</rscale>
<asrwt>0</asrwt>
<pdfrwt beam="1">  1       21 0.71487627E-02 0.14747271E+02</pdfrwt>
<pdfrwt beam="2">  1       21 0.12829001E-02 0.14747271E+02</pdfrwt>
<totfact> 0.20302704E+08</totfact>
</mgrwt>
</event>
<event>
 4    1  0.3992289E+006  0.6776111E+01  0.7546771E-02  0.2324175E+00
         21   -1    0    0  503  502  0.00000000000E+00  0.00000000000E+00  0.15316727840E+04  0.15316727840E+04  0.00000000000E+00 0. -1.
         21   -1    0    0  501  503 -0.00000000000E+00 -0.00000000000E+00 -0.99336928272E-01  0.99336928272E-01  0.00000000000E+00 0. -1.
          5    1    1    2  501    0 -0.26846624263E+01  0.40765504050E+01  0.12581373071E+03  0.12599607339E+03  0.47000000000E+01 0. -1.
         -5    1    1    2    0  502  0.26846624263E+01 -0.40765504050E+01  0.14057597164E+04  0.14057760476E+04  0.47000000000E+01 0. -1.
<mgrwt>
<rscale>  2 0.67761107E+01</rscale>
<asrwt>0</asrwt>
<pdfrwt beam="1">  1       21 0.23562305E+00 0.67761107E+01</pdfrwt>
<pdfrwt beam="2">  1       21 0.15283831E-04 0.67761107E+01</pdfrwt>
<totfact> 0.10011162E+08</totfact>
</mgrwt>
</event>
<event>
 4    1  0.3992289E+006  0.5457173E+01  0.7546771E-02  0.2491927E+00
         21   -1    0    0  501  502  0.00000000000E+00  0.00000000000E+00  0.36829222039E+02  0.36829222039E+02  0.00000000000E+00 0. -1.
         21   -1    0    0  502  503 -0.00000000000E+00 -0.00000000000E+00 -0.10114000916E+01  0.10114000916E+01  0.00000000000E+00 0. -1.
          5    1    1    2  501    0  0.25336837258E+01  0.11274685151E+01  0.26380844666E+02  0.26939370886E+02  0.47000000000E+01 0. -1.
         -5    1    1    2    0  503 -0.25336837258E+01 -0.11274685151E+01  0.94369772820E+01  0.10901251245E+02  0.47000000000E+01 0. -1.
<mgrwt>
<rscale>  2 0.54571731E+01</rscale>
<asrwt>0</asrwt>
<pdfrwt beam="1">  1       21 0.56660331E-02 0.54571731E+01</pdfrwt>
<pdfrwt beam="2">  1       21 0.15560004E-03 0.54571731E+01</pdfrwt>
<totfact> 0.30871931E+09</totfact>
</mgrwt>
</event>
<event>
 4    1  0.3992289E+006  0.4915576E+01  0.7546771E-02  0.2582352E+00
         21   -1    0    0  501  502  0.00000000000E+00  0.00000000000E+00  0.22494940854E+03  0.22494940854E+03  0.00000000000E+00 0.  1.
         21   -1    0    0  502  503 -0.00000000000E+00 -0.00000000000E+00 -0.49949886682E+00  0.49949886682E+00  0.00000000000E+00 0.  1.
          5    1    1    2  501    0 -0.14192423214E+01  0.24216323521E+00  0.21209620640E+03  0.21215316086E+03  0.47000000000E+01 0.  1.
         -5    1    1    2    0  503  0.14192423214E+01 -0.24216323521E+00  0.12353703278E+02  0.13295746556E+02  0.47000000000E+01 0.  1.
<mgrwt>
<rscale>  2 0.49155764E+01</rscale>
<asrwt>0</asrwt>
<pdfrwt beam="1">  1       21 0.34607520E-01 0.49155764E+01</pdfrwt>
<pdfrwt beam="2">  1       21 0.76846159E-04 0.49155764E+01</pdfrwt>
<totfact> 0.42707423E+08</totfact>
</mgrwt>
</event>
<event>
 4    1  0.3992289E+006  0.5002051E+01  0.7546771E-02  0.2566790E+00
         21   -1    0    0  501  502  0.00000000000E+00  0.00000000000E+00  0.32815942883E+01  0.32815942883E+01  0.00000000000E+00 0. -1.
         21   -1    0    0  502  503 -0.00000000000E+00 -0.00000000000E+00 -0.94702568401E+01  0.94702568401E+01  0.00000000000E+00 0. -1.
          5    1    1    2  501    0  0.94868425768E+00  0.14249597911E+01 -0.27951712626E+00  0.50098544940E+01  0.47000000000E+01 0. -1.
         -5    1    1    2    0  503 -0.94868425768E+00 -0.14249597911E+01 -0.59091454255E+01  0.77419966344E+01  0.47000000000E+01 0. -1.
<mgrwt>
<rscale>  2 0.50020508E+01</rscale>
<asrwt>0</asrwt>
<pdfrwt beam="1">  1       21 0.50486066E-03 0.50020508E+01</pdfrwt>
<pdfrwt beam="2">  1       21 0.14569626E-02 0.50020508E+01</pdfrwt>
<totfact> 0.40340307E+09</totfact>
</mgrwt>
</event>
<event>
 4    1  0.3992289E+006  0.5762792E+01  0.7546771E-02  0.2447358E+00
         21   -1    0    0  503  502  0.00000000000E+00  0.00000000000E+00  0.40324486831E+01  0.40324486831E+01  0.00000000000E+00 0.  1.
         21   -1    0    0  501  503 -0.00000000000E+00 -0.00000000000E+00 -0.26761973473E+03  0.26761973473E+03  0.00000000000E+00 0.  1.
          5    1    1    2  501    0  0.18390506634E+01 -0.27816663433E+01 -0.26551347176E+03  0.26557600317E+03  0.47000000000E+01 0.  1.
         -5    1    1    2    0  502 -0.18390506634E+01  0.27816663433E+01  0.19261857085E+01  0.60761802452E+01  0.47000000000E+01 0.  1.
<mgrwt>
<rscale>  2 0.57627923E+01</rscale>
<asrwt>0</asrwt>
<pdfrwt beam="1">  1       21 0.62037662E-03 0.57627923E+01</pdfrwt>
<pdfrwt beam="2">  1       21 0.41172274E-01 0.57627923E+01</pdfrwt>
<totfact> 0.20866341E+07</totfact>
</mgrwt>
</event>
<event>
 4    1  0.3992289E+006  0.4722604E+01  0.7546771E-02  0.2618849E+00
         21   -1    0    0  501  502  0.00000000000E+00  0.00000000000E+00  0.72484345924E+00  0.72484345924E+00  0.00000000000E+00 0.  1.
         21   -1    0    0  502  503 -0.00000000000E+00 -0.00000000000E+00 -0.34006729995E+02  0.34006729995E+02  0.00000000000E+00 0.  1.
          5    1    1    2  501    0  0.40488382480E+00  0.22148750465E+00 -0.11282896464E+02  0.12231383415E+02  0.47000000000E+01 0. -1.
         -5    1    1    2    0  503 -0.40488382480E+00 -0.22148750465E+00 -0.21998990072E+02  0.22500190040E+02  0.47000000000E+01 0. -1.
<mgrwt>
<rscale>  2 0.47226039E+01</rscale>
<asrwt>0</asrwt>
<pdfrwt beam="1">  1       21 0.11151439E-03 0.47226039E+01</pdfrwt>
<pdfrwt beam="2">  1       21 0.52318041E-02 0.47226039E+01</pdfrwt>
<totfact> 0.46757529E+09</totfact>
</mgrwt>
</event>
<event>
 4    1  0.3992289E+006  0.5895619E+01  0.7546771E-02  0.2429210E+00
         21   -1    0    0  503  502  0.00000000000E+00  0.00000000000E+00  0.14365432461E+03  0.14365432461E+03  0.00000000000E+00 0.  1.
         21   -1    0    0  501  503 -0.00000000000E+00 -0.00000000000E+00 -0.24298785064E+00  0.24298785064E+00  0.00000000000E+00 0.  1.
          5    1    1    2  501    0 -0.40005490183E-01 -0.35590343030E+01  0.67021859907E+02  0.67280666102E+02  0.47000000000E+01 0.  1.
         -5    1    1    2    0  502  0.40005490183E-01  0.35590343030E+01  0.76389476848E+02  0.76616646355E+02  0.47000000000E+01 0.  1.
<mgrwt>
<rscale>  2 0.58956192E+01</rscale>
<asrwt>0</asrwt>
<pdfrwt beam="1">  1       21 0.22100597E-01 0.58956192E+01</pdfrwt>
<pdfrwt beam="2">  1       21 0.37382861E-04 0.58956192E+01</pdfrwt>
<totfact> 0.27215767E+09</totfact>
</mgrwt>
</event>
<event>
 4    1  0.3992289E+006  0.5988536E+01  0.7546771E-02  0.2416918E+00
         21   -1    0    0  501  502  0.00000000000E+00  0.00000000000E+00  0.14913740229E+03  0.14913740229E+03  0.00000000000E+00 0. -1.
         21   -1    0    0  502  503 -0.00000000000E+00 -0.00000000000E+00 -0.47746648623E+01  0.47746648623E+01  0.00000000000E+00 0. -1.
          5    1    1    2  501    0 -0.25277468080E+01  0.27171787393E+01  0.14717449898E+03  0.14729628547E+03  0.47000000000E+01 0. -1.
         -5    1    1    2    0  503  0.25277468080E+01 -0.27171787393E+01 -0.28117615508E+01  0.66157816806E+01  0.47000000000E+01 0. -1.
<mgrwt>
<rscale>  2 0.59885361E+01</rscale>
<asrwt>0</asrwt>
<pdfrwt beam="1">  1       21 0.22944212E-01 0.59885361E+01</pdfrwt>
<pdfrwt beam="2">  1       21 0.73456394E-03 0.59885361E+01</pdfrwt>
<totfact> 0.45159256E+07</totfact>
</mgrwt>
</event>
<event>
 4    1  0.3992289E+006  0.8913051E+01  0.7546771E-02  0.2142695E+00
         21   -1    0    0  501  502  0.00000000000E+00  0.00000000000E+00  0.12445913310E+03  0.12445913310E+03  0.00000000000E+00 0. -1.
         21   -1    0    0  502  503 -0.00000000000E+00 -0.00000000000E+00 -0.22249051099E+01  0.22249051099E+01  0.00000000000E+00 0.  1.
          5    1    1    2  501    0 -0.26671430913E+01  0.70879356045E+01  0.11460683590E+03  0.11495290044E+03  0.47000000000E+01 0. -1.
         -5    1    1    2    0  503  0.26671430913E+01 -0.70879356045E+01  0.76273920909E+01  0.11731137776E+02  0.47000000000E+01 0.  1.
<mgrwt>
<rscale>  2 0.89130513E+01</rscale>
<asrwt>0</asrwt>
<pdfrwt beam="1">  1       21 0.19147554E-01 0.89130513E+01</pdfrwt>
<pdfrwt beam="2">  1       21 0.34229319E-03 0.89130513E+01</pdfrwt>
<totfact> 0.22135911E+08</totfact>
</mgrwt>
</event>
<event>
 4    1  0.3992289E+006  0.7731974E+01  0.7546771E-02  0.2232970E+00
         21   -1    0    0  501  502  0.00000000000E+00  0.00000000000E+00  0.14852460202E+02  0.14852460202E+02  0.00000000000E+00 0. -1.
         21   -1    0    0  502  503 -0.00000000000E+00 -0.00000000000E+00 -0.24593313205E+02  0.24593313205E+02  0.00000000000E+00 0.  1.
          5    1    1    2  501    0 -0.35180212457E+01  0.50315956639E+01  0.13166381410E+02  0.15268825359E+02  0.47000000000E+01 0. -1.
         -5    1    1    2    0  503  0.35180212457E+01 -0.50315956639E+01 -0.22907234414E+02  0.24176948048E+02  0.47000000000E+01 0.  1.
<mgrwt>
<rscale>  2 0.77319744E+01</rscale>
<asrwt>0</asrwt>
<pdfrwt beam="1">  1       21 0.22849939E-02 0.77319744E+01</pdfrwt>
<pdfrwt beam="2">  1       21 0.37835866E-02 0.77319744E+01</pdfrwt>
<totfact> 0.16890942E+08</totfact>
</mgrwt>
</event>
<event>
 4    1  0.3992289E+006  0.1062799E+02  0.7546771E-02  0.2040916E+00
         21   -1    0    0  501  502  0.00000000000E+00  0.00000000000E+00  0.82095616761E+02  0.82095616761E+02  0.00000000000E+00 0.  1.
         21   -1    0    0  502  503 -0.00000000000E+00 -0.00000000000E+00 -0.17731421560E+01  0.17731421560E+01  0.00000000000E+00 0.  1.
          5    1    1    2  501    0  0.61549763609E+01 -0.72787623129E+01  0.60010043591E+02  0.60943904098E+02  0.47000000000E+01 0.  1.
         -5    1    1    2    0  503 -0.61549763609E+01  0.72787623129E+01  0.20312431014E+02  0.22924854819E+02  0.47000000000E+01 0.  1.
<mgrwt>
<rscale>  2 0.10627987E+02</rscale>
<asrwt>0</asrwt>
<pdfrwt beam="1">  1       21 0.12630092E-01 0.10627987E+02</pdfrwt>
<pdfrwt beam="2">  1       21 0.27279117E-03 0.10627987E+02</pdfrwt>
<totfact> 0.65989844E+08</totfact>
</mgrwt>
</event>
<event>
 4    1  0.3992289E+006  0.7899683E+01  0.7546771E-02  0.2218838E+00
         21   -1    0    0  503  502  0.00000000000E+00  0.00000000000E+00  0.29794373169E+03  0.29794373169E+03  0.00000000000E+00 0.  1.
         21   -1    0    0  501  503 -0.00000000000E+00 -0.00000000000E+00 -0.47383795272E+00  0.47383795272E+00  0.00000000000E+00 0. -1.
          5    1    1    2  501    0  0.60895408873E+01  0.17979123340E+01  0.37280238020E+02  0.38108019416E+02  0.47000000000E+01 0. -1.
         -5    1    1    2    0  502 -0.60895408873E+01 -0.17979123340E+01  0.26018965572E+03  0.26030955023E+03  0.47000000000E+01 0.  1.
<mgrwt>
<rscale>  2 0.78996833E+01</rscale>
<asrwt>0</asrwt>
<pdfrwt beam="1">  1       21 0.45837347E-01 0.78996833E+01</pdfrwt>
<pdfrwt beam="2">  1       21 0.72898385E-04 0.78996833E+01</pdfrwt>
<totfact> 0.38866839E+08</totfact>
</mgrwt>
</event>
<event>
 4    1  0.3992289E+006  0.5539496E+01  0.7546771E-02  0.2479512E+00
         21   -1    0    0  501  502  0.00000000000E+00  0.00000000000E+00  0.45077690777E+01  0.45077690777E+01  0.00000000000E+00 0.  1.
         21   -1    0    0  502  503 -0.00000000000E+00 -0.00000000000E+00 -0.96791881832E+01  0.96791881832E+01  0.00000000000E+00 0.  1.
          5    1    1    2  501    0  0.25336801517E+01  0.14752889944E+01  0.12781286040E+01  0.56850352203E+01  0.47000000000E+01 0.  1.
         -5    1    1    2    0  503 -0.25336801517E+01 -0.14752889944E+01 -0.64495477095E+01  0.85019220406E+01  0.47000000000E+01 0.  1.
<mgrwt>
<rscale>  2 0.55394957E+01</rscale>
<asrwt>0</asrwt>
<pdfrwt beam="1">  1       21 0.69350294E-03 0.55394957E+01</pdfrwt>
<pdfrwt beam="2">  1       21 0.14891059E-02 0.55394957E+01</pdfrwt>
<totfact> 0.27921024E+09</totfact>
</mgrwt>
</event>
<event>
 4    1  0.3992289E+006  0.5296562E+01  0.7546771E-02  0.2517088E+00
         21   -1    0    0  501  502  0.00000000000E+00  0.00000000000E+00  0.32136419306E-01  0.32136419306E-01  0.00000000000E+00 0. -1.
         21   -1    0    0  502  503 -0.00000000000E+00 -0.00000000000E+00 -0.13675718486E+04  0.13675718486E+04  0.00000000000E+00 0.  1.
          5    1    1    2  501    0 -0.13839810615E+01  0.20120056286E+01 -0.27253416487E+03  0.27258562800E+03  0.47000000000E+01 0. -1.
         -5    1    1    2    0  503  0.13839810615E+01 -0.20120056286E+01 -0.10950055473E+04  0.10950183570E+04  0.47000000000E+01 0.  1.
<mgrwt>
<rscale>  2 0.52965621E+01</rscale>
<asrwt>0</asrwt>
<pdfrwt beam="1">  1       21 0.49443772E-05 0.52965621E+01</pdfrwt>
<pdfrwt beam="2">  1       21 0.21038236E+00 0.52965621E+01</pdfrwt>
<totfact> 0.51532102E+08</totfact>
</mgrwt>
</event>
<event>
 4    1  0.3992289E+006  0.6571808E+01  0.7546771E-02  0.2346456E+00
         21   -1    0    0  503  502  0.00000000000E+00  0.00000000000E+00  0.15152824696E+02  0.15152824696E+02  0.00000000000E+00 0.  1.
         21   -1    0    0  501  503 -0.00000000000E+00 -0.00000000000E+00 -0.43668471748E+01  0.43668471748E+01  0.00000000000E+00 0.  1.
          5    1    1    2  501    0  0.25576702051E+01  0.38153621466E+01 -0.35876128698E+00  0.65815936405E+01  0.47000000000E+01 0.  1.
         -5    1    1    2    0  502 -0.25576702051E+01 -0.38153621466E+01  0.11144738808E+02  0.12938078230E+02  0.47000000000E+01 0.  1.
<mgrwt>
<rscale>  2 0.65718084E+01</rscale>
<asrwt>0</asrwt>
<pdfrwt beam="1">  1       21 0.23312038E-02 0.65718084E+01</pdfrwt>
<pdfrwt beam="2">  1       21 0.67182265E-03 0.65718084E+01</pdfrwt>
<totfact> 0.17802558E+09</totfact>
</mgrwt>
</event>
<event>
 4    1  0.3992289E+006  0.5878969E+01  0.7546771E-02  0.2431447E+00
         21   -1    0    0  503  502  0.00000000000E+00  0.00000000000E+00  0.15498986738E+03  0.15498986738E+03  0.00000000000E+00 0. -1.
         21   -1    0    0  501  503 -0.00000000000E+00 -0.00000000000E+00 -0.29842398575E+00  0.29842398575E+00  0.00000000000E+00 0.  1.
          5    1    1    2  501    0 -0.18348194355E+01 -0.30175681094E+01  0.38310634772E+02  0.38759089466E+02  0.47000000000E+01 0.  1.
         -5    1    1    2    0  502  0.18348194355E+01  0.30175681094E+01  0.11638080862E+03  0.11652920190E+03  0.47000000000E+01 0. -1.
<mgrwt>
<rscale>  2 0.58789693E+01</rscale>
<asrwt>0</asrwt>
<pdfrwt beam="1">  1       21 0.23844531E-01 0.58789693E+01</pdfrwt>
<pdfrwt beam="2">  1       21 0.45911506E-04 0.58789693E+01</pdfrwt>
<totfact> 0.18228703E+09</totfact>
</mgrwt>
</event>
<event>
 4    1  0.3992289E+006  0.7353367E+01  0.7546771E-02  0.2266778E+00
         21   -1    0    0  503  502  0.00000000000E+00  0.00000000000E+00  0.24782591996E+03  0.24782591996E+03  0.00000000000E+00 0. -1.
         21   -1    0    0  501  503 -0.00000000000E+00 -0.00000000000E+00 -0.32238915151E+00  0.32238915151E+00  0.00000000000E+00 0.  1.
          5    1    1    2  501    0 -0.24147063624E+01 -0.51138242589E+01  0.53212208729E+02  0.53717884947E+02  0.47000000000E+01 0.  1.
         -5    1    1    2    0  502  0.24147063624E+01  0.51138242589E+01  0.19429132208E+03  0.19443042416E+03  0.47000000000E+01 0. -1.
<mgrwt>
<rscale>  2 0.73533669E+01</rscale>
<asrwt>0</asrwt>
<pdfrwt beam="1">  1       21 0.38126912E-01 0.73533669E+01</pdfrwt>
<pdfrwt beam="2">  1       21 0.49598529E-04 0.73533669E+01</pdfrwt>
<totfact> 0.87094512E+08</totfact>
</mgrwt>
</event>
<event>
 4    1  0.3992289E+006  0.5773553E+01  0.7546771E-02  0.2445862E+00
         21   -1    0    0  503  502  0.00000000000E+00  0.00000000000E+00  0.84610768799E+02  0.84610768799E+02  0.00000000000E+00 0.  1.
         21   -1    0    0  501  503 -0.00000000000E+00 -0.00000000000E+00 -0.85981307017E+00  0.85981307017E+00  0.00000000000E+00 0.  1.
          5    1    1    2  501    0 -0.30138022533E+01  0.14700044168E+01  0.10419332966E+02  0.11912028226E+02  0.47000000000E+01 0.  1.
         -5    1    1    2    0  502  0.30138022533E+01 -0.14700044168E+01  0.73331622763E+02  0.73558553643E+02  0.47000000000E+01 0.  1.
<mgrwt>
<rscale>  2 0.57735532E+01</rscale>
<asrwt>0</asrwt>
<pdfrwt beam="1">  1       21 0.13017035E-01 0.57735532E+01</pdfrwt>
<pdfrwt beam="2">  1       21 0.13227900E-03 0.57735532E+01</pdfrwt>
<totfact> 0.11437808E+09</totfact>
</mgrwt>
</event>
<event>
 4    1  0.3992289E+006  0.4723571E+01  0.7546771E-02  0.2618659E+00
         21   -1    0    0  503  502  0.00000000000E+00  0.00000000000E+00  0.45544402797E+01  0.45544402797E+01  0.00000000000E+00 0. -1.
         21   -1    0    0  501  503 -0.00000000000E+00 -0.00000000000E+00 -0.49050297865E+01  0.49050297865E+01  0.00000000000E+00 0. -1.
          5    1    1    2  501    0  0.46167073253E+00 -0.94779013254E-01 -0.34136760098E+00  0.47358900711E+01  0.47000000000E+01 0. -1.
         -5    1    1    2    0  502 -0.46167073253E+00  0.94779013254E-01 -0.92219058932E-02  0.47235799951E+01  0.47000000000E+01 0. -1.
<mgrwt>
<rscale>  2 0.47235710E+01</rscale>
<asrwt>0</asrwt>
<pdfrwt beam="1">  1       21 0.70068312E-03 0.47235710E+01</pdfrwt>
<pdfrwt beam="2">  1       21 0.75461997E-03 0.47235710E+01</pdfrwt>
<totfact> 0.60400203E+09</totfact>
</mgrwt>
</event>
<event>
 4    1  0.3992289E+006  0.4934598E+01  0.7546771E-02  0.2578888E+00
         21   -1    0    0  503  502  0.00000000000E+00  0.00000000000E+00  0.19763962762E-01  0.19763962762E-01  0.00000000000E+00 0.  1.
         21   -1    0    0  501  503 -0.00000000000E+00 -0.00000000000E+00 -0.16278018746E+04  0.16278018746E+04  0.00000000000E+00 0.  1.
          5    1    1    2  501    0  0.97013989306E+00  0.11485153724E+01 -0.12152062782E+04  0.12152162971E+04  0.47000000000E+01 0.  1.
         -5    1    1    2    0  502 -0.97013989306E+00 -0.11485153724E+01 -0.41257583251E+03  0.41260534149E+03  0.47000000000E+01 0.  1.
<mgrwt>
<rscale>  2 0.49345982E+01</rscale>
<asrwt>0</asrwt>
<pdfrwt beam="1">  1       21 0.30412816E-05 0.49345982E+01</pdfrwt>
<pdfrwt beam="2">  1       21 0.25037573E+00 0.49345982E+01</pdfrwt>
<totfact> 0.65097387E+08</totfact>
</mgrwt>
</event>
<event>
 4    1  0.3992289E+006  0.7794454E+01  0.7546771E-02  0.2227648E+00
         21   -1    0    0  503  502  0.00000000000E+00  0.00000000000E+00  0.95260209785E+02  0.95260209785E+02  0.00000000000E+00 0.  1.
         21   -1    0    0  501  503 -0.00000000000E+00 -0.00000000000E+00 -0.13607523864E+01  0.13607523864E+01  0.00000000000E+00 0. -1.
          5    1    1    2  501    0  0.61162024654E+01  0.11205301330E+01  0.11735554477E+02  0.14088177996E+02  0.47000000000E+01 0. -1.
         -5    1    1    2    0  502 -0.61162024654E+01 -0.11205301330E+01  0.82163902922E+02  0.82532784175E+02  0.47000000000E+01 0.  1.
<mgrwt>
<rscale>  2 0.77944545E+01</rscale>
<asrwt>0</asrwt>
<pdfrwt beam="1">  1       21 0.14655412E-01 0.77944545E+01</pdfrwt>
<pdfrwt beam="2">  1       21 0.20934660E-03 0.77944545E+01</pdfrwt>
<totfact> 0.62907256E+08</totfact>
</mgrwt>
</event>
<event>
 4    1  0.3992289E+006  0.9210938E+01  0.7546771E-02  0.2122887E+00
         21   -1    0    0  501  502  0.00000000000E+00  0.00000000000E+00  0.97034378372E+02  0.97034378372E+02  0.00000000000E+00 0. -1.
         21   -1    0    0  502  503 -0.00000000000E+00 -0.00000000000E+00 -0.14206471515E+01  0.14206471515E+01  0.00000000000E+00 0.  1.
          5    1    1    2  501    0 -0.78072517261E+01  0.13409675058E+01  0.78333705698E+02  0.78873384749E+02  0.47000000000E+01 0. -1.
         -5    1    1    2    0  503  0.78072517261E+01 -0.13409675058E+01  0.17280025522E+02  0.19581640774E+02  0.47000000000E+01 0.  1.
<mgrwt>
<rscale>  2 0.92109377E+01</rscale>
<asrwt>0</asrwt>
<pdfrwt beam="1">  1       21 0.14928361E-01 0.92109377E+01</pdfrwt>
<pdfrwt beam="2">  1       21 0.21856118E-03 0.92109377E+01</pdfrwt>
<totfact> 0.63540713E+08</totfact>
</mgrwt>
</event>
<event>
 4    1  0.3992289E+006  0.5135592E+01  0.7546771E-02  0.2543648E+00
         21   -1    0    0  501  502  0.00000000000E+00  0.00000000000E+00  0.10335631484E+00  0.10335631484E+00  0.00000000000E+00 0.  1.
         21   -1    0    0  502  503 -0.00000000000E+00 -0.00000000000E+00 -0.28337018411E+03  0.28337018411E+03  0.00000000000E+00 0.  1.
          5    1    1    2  501    0 -0.19814116794E+01 -0.59859220891E+00 -0.96927363609E+02  0.97063320163E+02  0.47000000000E+01 0. -1.
         -5    1    1    2    0  503  0.19814116794E+01  0.59859220891E+00 -0.18633946418E+03  0.18641022026E+03  0.47000000000E+01 0. -1.
<mgrwt>
<rscale>  2 0.51355920E+01</rscale>
<asrwt>0</asrwt>
<pdfrwt beam="1">  1       21 0.15900647E-04 0.51355920E+01</pdfrwt>
<pdfrwt beam="2">  1       21 0.43596304E-01 0.51355920E+01</pdfrwt>
<totfact> 0.24062040E+09</totfact>
</mgrwt>
</event>
<event>
 4    1  0.3992289E+006  0.4744539E+01  0.7546771E-02  0.2614571E+00
         21   -1    0    0  501  502  0.00000000000E+00  0.00000000000E+00  0.15837408082E+01  0.15837408082E+01  0.00000000000E+00 0.  1.
         21   -1    0    0  502  503 -0.00000000000E+00 -0.00000000000E+00 -0.18667372246E+02  0.18667372246E+02  0.00000000000E+00 0.  1.
          5    1    1    2  501    0 -0.27641568428E+00 -0.58672029861E+00 -0.35959572923E+01  0.59532810439E+01  0.47000000000E+01 0.  1.
         -5    1    1    2    0  503  0.27641568428E+00  0.58672029861E+00 -0.13487674146E+02  0.14297832010E+02  0.47000000000E+01 0.  1.
<mgrwt>
<rscale>  2 0.47445386E+01</rscale>
<asrwt>0</asrwt>
<pdfrwt beam="1">  1       21 0.24365243E-03 0.47445386E+01</pdfrwt>
<pdfrwt beam="2">  1       21 0.28719034E-02 0.47445386E+01</pdfrwt>
<totfact> 0.39290669E+09</totfact>
</mgrwt>
</event>
<event>
 4    1  0.3992289E+006  0.5984359E+01  0.7546771E-02  0.2417464E+00
         21   -1    0    0  501  502  0.00000000000E+00  0.00000000000E+00  0.58203396119E-01  0.58203396119E-01  0.00000000000E+00 0.  1.
         21   -1    0    0  502  503 -0.00000000000E+00 -0.00000000000E+00 -0.79896415376E+03  0.79896415376E+03  0.00000000000E+00 0.  1.
          5    1    1    2  501    0 -0.30538798519E+01 -0.20967523617E+01 -0.20790506032E+03  0.20799116967E+03  0.47000000000E+01 0.  1.
         -5    1    1    2    0  503  0.30538798519E+01  0.20967523617E+01 -0.59100089005E+03  0.59103118749E+03  0.47000000000E+01 0.  1.
<mgrwt>
<rscale>  2 0.59843590E+01</rscale>
<asrwt>0</asrwt>
<pdfrwt beam="1">  1       21 0.89547955E-05 0.59843590E+01</pdfrwt>
<pdfrwt beam="2">  1       21 0.12291170E+00 0.59843590E+01</pdfrwt>
<totfact> 0.80141567E+08</totfact>
</mgrwt>
</event>
<event>
 4    1  0.3992289E+006  0.1218257E+02  0.7546771E-02  0.1968606E+00
         21   -1    0    0  501  502  0.00000000000E+00  0.00000000000E+00  0.41692101749E+03  0.41692101749E+03  0.00000000000E+00 0. -1.
         21   -1    0    0  502  503 -0.00000000000E+00 -0.00000000000E+00 -0.52624606985E+00  0.52624606985E+00  0.00000000000E+00 0.  1.
          5    1    1    2  501    0 -0.11085901532E+02  0.18514628481E+01  0.32692247900E+03  0.32714938851E+03  0.47000000000E+01 0. -1.
         -5    1    1    2    0  503  0.11085901532E+02 -0.18514628481E+01  0.89472292418E+02  0.90297875047E+02  0.47000000000E+01 0.  1.
<mgrwt>
<rscale>  2 0.12182575E+02</rscale>
<asrwt>0</asrwt>
<pdfrwt beam="1">  1       21 0.64141431E-01 0.12182575E+02</pdfrwt>
<pdfrwt beam="2">  1       21 0.80961267E-04 0.12182575E+02</pdfrwt>
<totfact> 0.21990537E+08</totfact>
</mgrwt>
</event>
<event>
 4    1  0.3992289E+006  0.6024749E+01  0.7546771E-02  0.2412214E+00
         21   -1    0    0  501  502  0.00000000000E+00  0.00000000000E+00  0.51517913952E+01  0.51517913952E+01  0.00000000000E+00 0.  1.
         21   -1    0    0  502  503 -0.00000000000E+00 -0.00000000000E+00 -0.14887842282E+02  0.14887842282E+02  0.00000000000E+00 0. -1.
          5    1    1    2  501    0  0.27319561936E+01  0.25969253668E+01  0.24041316822E+01  0.64867137404E+01  0.47000000000E+01 0.  1.
         -5    1    1    2    0  503 -0.27319561936E+01 -0.25969253668E+01 -0.12140182569E+02  0.13552919937E+02  0.47000000000E+01 0. -1.
<mgrwt>
<rscale>  2 0.60247495E+01</rscale>
<asrwt>0</asrwt>
<pdfrwt beam="1">  1       21 0.79258329E-03 0.60247495E+01</pdfrwt>
<pdfrwt beam="2">  1       21 0.22904373E-02 0.60247495E+01</pdfrwt>
<totfact> 0.13475657E+09</totfact>
</mgrwt>
</event>
<event>
 4    1  0.3992289E+006  0.5453547E+01  0.7546771E-02  0.2492481E+00
         21   -1    0    0  503  502  0.00000000000E+00  0.00000000000E+00  0.15421504042E+00  0.15421504042E+00  0.00000000000E+00 0. -1.
         21   -1    0    0  501  503 -0.00000000000E+00 -0.00000000000E+00 -0.24319880149E+03  0.24319880149E+03  0.00000000000E+00 0.  1.
          5    1    1    2  501    0  0.25871279860E+00 -0.27539505591E+01 -0.17688254606E+03  0.17696659650E+03  0.47000000000E+01 0.  1.
         -5    1    1    2    0  502 -0.25871279860E+00  0.27539505591E+01 -0.66162040391E+02  0.66386420032E+02  0.47000000000E+01 0. -1.
<mgrwt>
<rscale>  2 0.54535471E+01</rscale>
<asrwt>0</asrwt>
<pdfrwt beam="1">  1       21 0.23725481E-04 0.54535471E+01</pdfrwt>
<pdfrwt beam="2">  1       21 0.37415058E-01 0.54535471E+01</pdfrwt>
<totfact> 0.19407129E+09</totfact>
</mgrwt>
</event>
<event>
 4    1  0.3992289E+006  0.5831572E+01  0.7546771E-02  0.2437874E+00
         21   -1    0    0  501  502  0.00000000000E+00  0.00000000000E+00  0.55155908233E+00  0.55155908233E+00  0.00000000000E+00 0. -1.
         21   -1    0    0  502  503 -0.00000000000E+00 -0.00000000000E+00 -0.90834359333E+02  0.90834359333E+02  0.00000000000E+00 0. -1.
          5    1    1    2  501    0 -0.32850349155E+01 -0.10610249494E+01 -0.19244333643E+02  0.20108495859E+02  0.47000000000E+01 0. -1.
         -5    1    1    2    0  503  0.32850349155E+01  0.10610249494E+01 -0.71038466607E+02  0.71277422556E+02  0.47000000000E+01 0. -1.
<mgrwt>
<rscale>  2 0.58315717E+01</rscale>
<asrwt>0</asrwt>
<pdfrwt beam="1">  1       21 0.84855194E-04 0.58315717E+01</pdfrwt>
<pdfrwt beam="2">  1       21 0.13974525E-01 0.58315717E+01</pdfrwt>
<totfact> 0.18735656E+09</totfact>
</mgrwt>
</event>
<event>
 4    1  0.3992289E+006  0.1238152E+02  0.7546771E-02  0.1960377E+00
         21   -1    0    0  501  502  0.00000000000E+00  0.00000000000E+00  0.72227613699E+02  0.72227613699E+02  0.00000000000E+00 0. -1.
         21   -1    0    0  502  503 -0.00000000000E+00 -0.00000000000E+00 -0.21283882782E+01  0.21283882782E+01  0.00000000000E+00 0.  1.
          5    1    1    2  501    0 -0.11448301924E+02  0.38519500176E+00  0.37007667409E+02  0.39023959810E+02  0.47000000000E+01 0.  1.
         -5    1    1    2    0  503  0.11448301924E+02 -0.38519500176E+00  0.33091558012E+02  0.35332042168E+02  0.47000000000E+01 0. -1.
<mgrwt>
<rscale>  2 0.12381518E+02</rscale>
<asrwt>0</asrwt>
<pdfrwt beam="1">  1       21 0.11111939E-01 0.12381518E+02</pdfrwt>
<pdfrwt beam="2">  1       21 0.32744441E-03 0.12381518E+02</pdfrwt>
<totfact> 0.67656511E+08</totfact>
</mgrwt>
</event>
<event>
 4    1  0.3992289E+006  0.7790581E+01  0.7546771E-02  0.2227976E+00
         21   -1    0    0  501  502  0.00000000000E+00  0.00000000000E+00  0.22909877420E+02  0.22909877420E+02  0.00000000000E+00 0.  1.
         21   -1    0    0  502  503 -0.00000000000E+00 -0.00000000000E+00 -0.26513582726E+01  0.26513582726E+01  0.00000000000E+00 0. -1.
          5    1    1    2  501    0  0.74711340990E+00  0.61680611901E+01  0.10492760037E+02  0.13068709595E+02  0.47000000000E+01 0.  1.
         -5    1    1    2    0  503 -0.74711340990E+00 -0.61680611901E+01  0.97657591109E+01  0.12492526098E+02  0.47000000000E+01 0. -1.
<mgrwt>
<rscale>  2 0.77905813E+01</rscale>
<asrwt>0</asrwt>
<pdfrwt beam="1">  1       21 0.35245964E-02 0.77905813E+01</pdfrwt>
<pdfrwt beam="2">  1       21 0.40790129E-03 0.77905813E+01</pdfrwt>
<totfact> 0.22247721E+09</totfact>
</mgrwt>
</event>
<event>
 4    1  0.3992289E+006  0.1477489E+02  0.7546771E-02  0.1875017E+00
         21   -1    0    0  501  502  0.00000000000E+00  0.00000000000E+00  0.93693890201E+02  0.93693890201E+02  0.00000000000E+00 0.  1.
         21   -1    0    0  502  503 -0.00000000000E+00 -0.00000000000E+00 -0.27927057423E+01  0.27927057423E+01  0.00000000000E+00 0.  1.
          5    1    1    2  501    0  0.13344705848E+02 -0.42574818909E+01  0.65089806697E+02  0.66745638525E+02  0.47000000000E+01 0.  1.
         -5    1    1    2    0  503 -0.13344705848E+02  0.42574818909E+01  0.25811377762E+02  0.29740957419E+02  0.47000000000E+01 0.  1.
<mgrwt>
<rscale>  2 0.14774888E+02</rscale>
<asrwt>0</asrwt>
<pdfrwt beam="1">  1       21 0.14414442E-01 0.14774888E+02</pdfrwt>
<pdfrwt beam="2">  1       21 0.42964711E-03 0.14774888E+02</pdfrwt>
<totfact> 0.32325248E+08</totfact>
</mgrwt>
</event>
<event>
 4    1  0.3992289E+006  0.6422354E+01  0.7546771E-02  0.2363494E+00
         21   -1    0    0  501  502  0.00000000000E+00  0.00000000000E+00  0.65783723569E+02  0.65783723569E+02  0.00000000000E+00 0.  1.
         21   -1    0    0  502  503 -0.00000000000E+00 -0.00000000000E+00 -0.86924124780E+00  0.86924124780E+00  0.00000000000E+00 0. -1.
          5    1    1    2  501    0 -0.10407307419E+01  0.42512958932E+01  0.50050247341E+02  0.50460617279E+02  0.47000000000E+01 0.  1.
         -5    1    1    2    0  503  0.10407307419E+01 -0.42512958932E+01  0.14864234980E+02  0.16192347538E+02  0.47000000000E+01 0. -1.
<mgrwt>
<rscale>  2 0.64223545E+01</rscale>
<asrwt>0</asrwt>
<pdfrwt beam="1">  1       21 0.10120569E-01 0.64223545E+01</pdfrwt>
<pdfrwt beam="2">  1       21 0.13372947E-03 0.64223545E+01</pdfrwt>
<totfact> 0.18137659E+09</totfact>
</mgrwt>
</event>
<event>
 4    1  0.3992289E+006  0.6366984E+01  0.7546771E-02  0.2369975E+00
         21   -1    0    0  501  502  0.00000000000E+00  0.00000000000E+00  0.29039495144E+00  0.29039495144E+00  0.00000000000E+00 0.  1.
         21   -1    0    0  502  503 -0.00000000000E+00 -0.00000000000E+00 -0.14340115210E+03  0.14340115210E+03  0.00000000000E+00 0.  1.
          5    1    1    2  501    0  0.33440239077E+01  0.26955490208E+01 -0.59854693142E+02  0.60192381341E+02  0.47000000000E+01 0.  1.
         -5    1    1    2    0  503 -0.33440239077E+01 -0.26955490208E+01 -0.83256064008E+02  0.83499165711E+02  0.47000000000E+01 0.  1.
<mgrwt>
<rscale>  2 0.63669836E+01</rscale>
<asrwt>0</asrwt>
<pdfrwt beam="1">  1       21 0.44676059E-04 0.63669836E+01</pdfrwt>
<pdfrwt beam="2">  1       21 0.22061759E-01 0.63669836E+01</pdfrwt>
<totfact> 0.22878916E+09</totfact>
</mgrwt>
</event>
<event>
 4    1  0.3992289E+006  0.6140273E+01  0.7546771E-02  0.2397517E+00
         21   -1    0    0  501  502  0.00000000000E+00  0.00000000000E+00  0.47273618276E+00  0.47273618276E+00  0.00000000000E+00 0. -1.
         21   -1    0    0  502  503 -0.00000000000E+00 -0.00000000000E+00 -0.20306160803E+03  0.20306160803E+03  0.00000000000E+00 0.  1.
          5    1    1    2  501    0  0.72374547024E+00 -0.38844746118E+01 -0.21991834764E+02  0.22832953089E+02  0.47000000000E+01 0. -1.
         -5    1    1    2    0  503 -0.72374547024E+00  0.38844746118E+01 -0.18059703708E+03  0.18070139112E+03  0.47000000000E+01 0.  1.
<mgrwt>
<rscale>  2 0.61402728E+01</rscale>
<asrwt>0</asrwt>
<pdfrwt beam="1">  1       21 0.72728578E-04 0.61402728E+01</pdfrwt>
<pdfrwt beam="2">  1       21 0.31240276E-01 0.61402728E+01</pdfrwt>
<totfact> 0.64922413E+08</totfact>
</mgrwt>
</event>
<event>
 4    1  0.3992289E+006  0.4871029E+01  0.7546771E-02  0.2590554E+00
         21   -1    0    0  503  502  0.00000000000E+00  0.00000000000E+00  0.16557006939E+02  0.16557006939E+02  0.00000000000E+00 0. -1.
         21   -1    0    0  501  503 -0.00000000000E+00 -0.00000000000E+00 -0.19532690112E+01  0.19532690112E+01  0.00000000000E+00 0. -1.
          5    1    1    2  501    0  0.12781978428E+01 -0.56018856110E-01  0.25255065701E+01  0.54868124875E+01  0.47000000000E+01 0.  1.
         -5    1    1    2    0  502 -0.12781978428E+01  0.56018856110E-01  0.12078231358E+02  0.13023463463E+02  0.47000000000E+01 0.  1.
<mgrwt>
<rscale>  2 0.48710294E+01</rscale>
<asrwt>0</asrwt>
<pdfrwt beam="1">  1       21 0.25472317E-02 0.48710294E+01</pdfrwt>
<pdfrwt beam="2">  1       21 0.30050294E-03 0.48710294E+01</pdfrwt>
<totfact> 0.36114161E+09</totfact>
</mgrwt>
</event>
<event>
 4    1  0.3992289E+006  0.6263851E+01  0.7546771E-02  0.2382298E+00
         21   -1    0    0  501  502  0.00000000000E+00  0.00000000000E+00  0.40142143908E+00  0.40142143908E+00  0.00000000000E+00 0.  1.
         21   -1    0    0  502  503 -0.00000000000E+00 -0.00000000000E+00 -0.17227482026E+03  0.17227482026E+03  0.00000000000E+00 0. -1.
          5    1    1    2  501    0  0.38685662336E+01  0.14764916808E+01 -0.29147629642E+02  0.29813086827E+02  0.47000000000E+01 0.  1.
         -5    1    1    2    0  503 -0.38685662336E+01 -0.14764916808E+01 -0.14272576918E+03  0.14286315487E+03  0.47000000000E+01 0. -1.
<mgrwt>
<rscale>  2 0.62638512E+01</rscale>
<asrwt>0</asrwt>
<pdfrwt beam="1">  1       21 0.61757089E-04 0.62638512E+01</pdfrwt>
<pdfrwt beam="2">  1       21 0.26503842E-01 0.62638512E+01</pdfrwt>
<totfact> 0.10813240E+09</totfact>
</mgrwt>
</event>
<event>
 4    1  0.3992289E+006  0.6495612E+01  0.7546771E-02  0.2355062E+00
         21   -1    0    0  501  502  0.00000000000E+00  0.00000000000E+00  0.10118863037E+04  0.10118863037E+04  0.00000000000E+00 0. -1.
         21   -1    0    0  502  503 -0.00000000000E+00 -0.00000000000E+00 -0.76540598880E-01  0.76540598880E-01  0.00000000000E+00 0. -1.
          5    1    1    2  501    0  0.40863596748E+01 -0.18451666381E+01  0.84729266632E+03  0.84731756465E+03  0.47000000000E+01 0. -1.
         -5    1    1    2    0  503 -0.40863596748E+01  0.18451666381E+01  0.16451709677E+03  0.16464527963E+03  0.47000000000E+01 0. -1.
<mgrwt>
<rscale>  2 0.64956120E+01</rscale>
<asrwt>0</asrwt>
<pdfrwt beam="1">  1       21 0.15566410E+00 0.64956120E+01</pdfrwt>
<pdfrwt beam="2">  1       21 0.11776287E-04 0.64956120E+01</pdfrwt>
<totfact> 0.35316347E+08</totfact>
</mgrwt>
</event>
<event>
 4    1  0.3992289E+006  0.1187230E+02  0.7546771E-02  0.1981862E+00
         21   -1    0    0  501  502  0.00000000000E+00  0.00000000000E+00  0.25772369360E+01  0.25772369360E+01  0.00000000000E+00 0. -1.
         21   -1    0    0  502  503 -0.00000000000E+00 -0.00000000000E+00 -0.54805667673E+02  0.54805667673E+02  0.00000000000E+00 0.  1.
          5    1    1    2  501    0  0.10861568058E+02 -0.94221565146E+00 -0.27427117492E+02  0.29886421749E+02  0.47000000000E+01 0. -1.
         -5    1    1    2    0  503 -0.10861568058E+02  0.94221565146E+00 -0.24801313244E+02  0.27496482860E+02  0.47000000000E+01 0.  1.
<mgrwt>
<rscale>  2 0.11872297E+02</rscale>
<asrwt>0</asrwt>
<pdfrwt beam="1">  1       21 0.39649798E-03 0.11872297E+02</pdfrwt>
<pdfrwt beam="2">  1       21 0.84316413E-02 0.11872297E+02</pdfrwt>
<totfact> 0.78470838E+08</totfact>
</mgrwt>
</event>
<event>
 4    1  0.3992289E+006  0.5115186E+01  0.7546771E-02  0.2547117E+00
         21   -1    0    0  503  502  0.00000000000E+00  0.00000000000E+00  0.36796885663E+02  0.36796885663E+02  0.00000000000E+00 0.  1.
         21   -1    0    0  501  503 -0.00000000000E+00 -0.00000000000E+00 -0.23074950763E+01  0.23074950763E+01  0.00000000000E+00 0.  1.
          5    1    1    2  501    0  0.20156036498E+01 -0.11166804803E+00  0.98174178364E+00  0.52085453589E+01  0.47000000000E+01 0.  1.
         -5    1    1    2    0  502 -0.20156036498E+01  0.11166804803E+00  0.33507648804E+02  0.33895835381E+02  0.47000000000E+01 0.  1.
<mgrwt>
<rscale>  2 0.51151860E+01</rscale>
<asrwt>0</asrwt>
<pdfrwt beam="1">  1       21 0.56610589E-02 0.51151860E+01</pdfrwt>
<pdfrwt beam="2">  1       21 0.35499927E-03 0.51151860E+01</pdfrwt>
<totfact> 0.95126606E+08</totfact>
</mgrwt>
</event>
<event>
 4    1  0.3992289E+006  0.4703540E+01  0.7546771E-02  0.2622595E+00
         21   -1    0    0  501  502  0.00000000000E+00  0.00000000000E+00  0.53260569221E+01  0.53260569221E+01  0.00000000000E+00 0. -1.
         21   -1    0    0  502  503 -0.00000000000E+00 -0.00000000000E+00 -0.10694572668E+02  0.10694572668E+02  0.00000000000E+00 0. -1.
          5    1    1    2  501    0 -0.16721228230E+00 -0.72981411938E-01  0.35801921388E+01  0.59110965129E+01  0.47000000000E+01 0. -1.
         -5    1    1    2    0  503  0.16721228230E+00  0.72981411938E-01 -0.89487078851E+01  0.10109533078E+02  0.47000000000E+01 0. -1.
<mgrwt>
<rscale>  2 0.47035398E+01</rscale>
<asrwt>0</asrwt>
<pdfrwt beam="1">  1       21 0.81939338E-03 0.47035398E+01</pdfrwt>
<pdfrwt beam="2">  1       21 0.16453189E-02 0.47035398E+01</pdfrwt>
<totfact> 0.16365425E+09</totfact>
</mgrwt>
</event>
<event>
 4    1  0.3992289E+006  0.6403846E+01  0.7546771E-02  0.2365650E+00
         21   -1    0    0  503  502  0.00000000000E+00  0.00000000000E+00  0.27728072124E+02  0.27728072124E+02  0.00000000000E+00 0.  1.
         21   -1    0    0  501  503 -0.00000000000E+00 -0.00000000000E+00 -0.19898146098E+01  0.19898146098E+01  0.00000000000E+00 0.  1.
          5    1    1    2  501    0 -0.15854129219E+01  0.40503961490E+01  0.53403922332E+01  0.83384070601E+01  0.47000000000E+01 0.  1.
         -5    1    1    2    0  502  0.15854129219E+01 -0.40503961490E+01  0.20397865281E+02  0.21379479673E+02  0.47000000000E+01 0.  1.
<mgrwt>
<rscale>  2 0.64038460E+01</rscale>
<asrwt>0</asrwt>
<pdfrwt beam="1">  1       21 0.42658570E-02 0.64038460E+01</pdfrwt>
<pdfrwt beam="2">  1       21 0.30612534E-03 0.64038460E+01</pdfrwt>
<totfact> 0.21488491E+09</totfact>
</mgrwt>
</event>
<event>
 4    1  0.3992289E+006  0.6760778E+01  0.7546771E-02  0.2325808E+00
         21   -1    0    0  501  502  0.00000000000E+00  0.00000000000E+00  0.33036932040E+00  0.33036932040E+00  0.00000000000E+00 0. -1.
         21   -1    0    0  502  503 -0.00000000000E+00 -0.00000000000E+00 -0.17441499923E+03  0.17441499923E+03  0.00000000000E+00 0. -1.
          5    1    1    2  501    0 -0.11272105216E+01 -0.47273160511E+01 -0.47314111210E+02  0.47794698871E+02  0.47000000000E+01 0. -1.
         -5    1    1    2    0  503  0.11272105216E+01  0.47273160511E+01 -0.12677051870E+03  0.12695066968E+03  0.47000000000E+01 0. -1.
<mgrwt>
<rscale>  2 0.67607781E+01</rscale>
<asrwt>0</asrwt>
<pdfrwt beam="1">  1       21 0.50826160E-04 0.67607781E+01</pdfrwt>
<pdfrwt beam="2">  1       21 0.26833018E-01 0.67607781E+01</pdfrwt>
<totfact> 0.14549988E+09</totfact>
</mgrwt>
</event>
<event>
 4    1  0.3992289E+006  0.5323674E+01  0.7546771E-02  0.2512750E+00
         21   -1    0    0  501  502  0.00000000000E+00  0.00000000000E+00  0.16858655682E+02  0.16858655682E+02  0.00000000000E+00 0. -1.
         21   -1    0    0  502  503 -0.00000000000E+00 -0.00000000000E+00 -0.26940497254E+01  0.26940497254E+01  0.00000000000E+00 0. -1.
          5    1    1    2  501    0  0.22751831146E+01 -0.10368463530E+01  0.13076936400E+02  0.14119057128E+02  0.47000000000E+01 0. -1.
         -5    1    1    2    0  503 -0.22751831146E+01  0.10368463530E+01  0.10876695568E+01  0.54336482799E+01  0.47000000000E+01 0. -1.
<mgrwt>
<rscale>  2 0.53236743E+01</rscale>
<asrwt>0</asrwt>
<pdfrwt beam="1">  1       21 0.25936393E-02 0.53236743E+01</pdfrwt>
<pdfrwt beam="2">  1       21 0.41446920E-03 0.53236743E+01</pdfrwt>
<totfact> 0.24833720E+09</totfact>
</mgrwt>
</event>
<event>
 4    1  0.3992289E+006  0.6584097E+01  0.7546771E-02  0.2345084E+00
         21   -1    0    0  503  502  0.00000000000E+00  0.00000000000E+00  0.18514346010E+04  0.18514346010E+04  0.00000000000E+00 0. -1.
         21   -1    0    0  501  503 -0.00000000000E+00 -0.00000000000E+00 -0.23561073496E-01  0.23561073496E-01  0.00000000000E+00 0. -1.
          5    1    1    2  501    0  0.62253935031E+00 -0.45686734838E+01  0.99873199784E+03  0.99875370029E+03  0.47000000000E+01 0. -1.
         -5    1    1    2    0  502 -0.62253935031E+00  0.45686734838E+01  0.85267904207E+03  0.85270446177E+03  0.47000000000E+01 0. -1.
<mgrwt>
<rscale>  2 0.65840969E+01</rscale>
<asrwt>0</asrwt>
<pdfrwt beam="1">  1       21 0.28471962E+00 0.65840969E+01</pdfrwt>
<pdfrwt beam="2">  1       21 0.36262634E-05 0.65840969E+01</pdfrwt>
<totfact> 0.42981672E+08</totfact>
</mgrwt>
</event>
<event>
 4    1  0.3992289E+006  0.5724114E+01  0.7546771E-02  0.2452776E+00
         21   -1    0    0  501  502  0.00000000000E+00  0.00000000000E+00  0.41355289001E+03  0.41355289001E+03  0.00000000000E+00 0.  1.
         21   -1    0    0  502  503 -0.00000000000E+00 -0.00000000000E+00 -0.91140528801E-01  0.91140528801E-01  0.00000000000E+00 0.  1.
          5    1    1    2  501    0  0.31150510955E+01 -0.98587147974E+00  0.28149963205E+03  0.28155782414E+03  0.47000000000E+01 0.  1.
         -5    1    1    2    0  503 -0.31150510955E+01  0.98587147974E+00  0.13196211743E+03  0.13208620641E+03  0.47000000000E+01 0.  1.
<mgrwt>
<rscale>  2 0.57241144E+01</rscale>
<asrwt>0</asrwt>
<pdfrwt beam="1">  1       21 0.63622019E-01 0.57241144E+01</pdfrwt>
<pdfrwt beam="2">  1       21 0.14021951E-04 0.57241144E+01</pdfrwt>
<totfact> 0.15713581E+09</totfact>
</mgrwt>
</event>
<event>
 4    1  0.3992289E+006  0.5321385E+01  0.7546771E-02  0.2513115E+00
         21   -1    0    0  503  502  0.00000000000E+00  0.00000000000E+00  0.22243718348E+04  0.22243718348E+04  0.00000000000E+00 0.  1.
         21   -1    0    0  501  503 -0.00000000000E+00 -0.00000000000E+00 -0.13019691813E-01  0.13019691813E-01  0.00000000000E+00 0. -1.
          5    1    1    2  501    0  0.19013146908E+01 -0.16162128733E+01  0.94639327776E+03  0.94640823820E+03  0.47000000000E+01 0. -1.
         -5    1    1    2    0  502 -0.19013146908E+01  0.16162128733E+01  0.12779655374E+04  0.12779766163E+04  0.47000000000E+01 0. -1.
<mgrwt>
<rscale>  2 0.53213853E+01</rscale>
<asrwt>0</asrwt>
<pdfrwt beam="1">  1       21 0.34190694E+00 0.53213853E+01</pdfrwt>
<pdfrwt beam="2">  1       21 0.20048111E-05 0.53213853E+01</pdfrwt>
<totfact> 0.54139660E+08</totfact>
</mgrwt>
</event>
<event>
 4    1  0.3992289E+006  0.7930043E+01  0.7546771E-02  0.2216332E+00
         21   -1    0    0  501  502  0.00000000000E+00  0.00000000000E+00  0.32825418816E+03  0.32825418816E+03  0.00000000000E+00 0. -1.
         21   -1    0    0  502  503 -0.00000000000E+00 -0.00000000000E+00 -0.30131103790E+00  0.30131103790E+00  0.00000000000E+00 0.  1.
          5    1    1    2  501    0 -0.60920440787E+01 -0.19190049492E+01  0.26311534960E+03  0.26323482440E+03  0.47000000000E+01 0. -1.
         -5    1    1    2    0  503  0.60920440787E+01  0.19190049492E+01  0.64837527522E+02  0.65320674799E+02  0.47000000000E+01 0. -1.
<mgrwt>
<rscale>  2 0.79300429E+01</rscale>
<asrwt>0</asrwt>
<pdfrwt beam="1">  1       21 0.50500358E-01 0.79300429E+01</pdfrwt>
<pdfrwt beam="2">  1       21 0.46355807E-04 0.79300429E+01</pdfrwt>
<totfact> 0.60292177E+08</totfact>
</mgrwt>
</event>
<event>
 4    1  0.3992289E+006  0.5192121E+01  0.7546771E-02  0.2534160E+00
         21   -1    0    0  503  502  0.00000000000E+00  0.00000000000E+00  0.35504355898E+01  0.35504355898E+01  0.00000000000E+00 0. -1.
         21   -1    0    0  501  503 -0.00000000000E+00 -0.00000000000E+00 -0.26104807442E+03  0.26104807442E+03  0.00000000000E+00 0. -1.
          5    1    1    2  501    0  0.19294211256E+01 -0.10702576791E+01 -0.25910983313E+03  0.25916184855E+03  0.47000000000E+01 0. -1.
         -5    1    1    2    0  502 -0.19294211256E+01  0.10702576791E+01  0.16121943016E+01  0.54366614614E+01  0.47000000000E+01 0. -1.
<mgrwt>
<rscale>  2 0.51921207E+01</rscale>
<asrwt>0</asrwt>
<pdfrwt beam="1">  1       21 0.54622070E-03 0.51921207E+01</pdfrwt>
<pdfrwt beam="2">  1       21 0.40161254E-01 0.51921207E+01</pdfrwt>
<totfact> 0.24484192E+07</totfact>
</mgrwt>
</event>
<event>
 4    1  0.3992289E+006  0.5375306E+01  0.7546771E-02  0.2504592E+00
         21   -1    0    0  501  502  0.00000000000E+00  0.00000000000E+00  0.56214256203E+00  0.56214256203E+00  0.00000000000E+00 0. -1.
         21   -1    0    0  502  503 -0.00000000000E+00 -0.00000000000E+00 -0.55557061495E+02  0.55557061495E+02  0.00000000000E+00 0. -1.
          5    1    1    2  501    0 -0.20468941072E+01 -0.16168299831E+01 -0.19821637547E+02  0.20537556567E+02  0.47000000000E+01 0. -1.
         -5    1    1    2    0  503  0.20468941072E+01  0.16168299831E+01 -0.35173281386E+02  0.35581647491E+02  0.47000000000E+01 0. -1.
<mgrwt>
<rscale>  2 0.53753060E+01</rscale>
<asrwt>0</asrwt>
<pdfrwt beam="1">  1       21 0.86483433E-04 0.53753060E+01</pdfrwt>
<pdfrwt beam="2">  1       21 0.85472439E-02 0.53753060E+01</pdfrwt>
<totfact> 0.36151683E+09</totfact>
</mgrwt>
</event>
<event>
 4    1  0.3992289E+006  0.5133541E+01  0.7546771E-02  0.2543995E+00
         21   -1    0    0  501  502  0.00000000000E+00  0.00000000000E+00  0.23603109410E+02  0.23603109410E+02  0.00000000000E+00 0.  1.
         21   -1    0    0  502  503 -0.00000000000E+00 -0.00000000000E+00 -0.14961063337E+01  0.14961063337E+01  0.00000000000E+00 0. -1.
          5    1    1    2  501    0  0.19340302400E+01 -0.72303083264E+00  0.17374803901E+02  0.18117313740E+02  0.47000000000E+01 0.  1.
         -5    1    1    2    0  503 -0.19340302400E+01  0.72303083264E+00  0.47321991749E+01  0.69819020034E+01  0.47000000000E+01 0. -1.
<mgrwt>
<rscale>  2 0.51335413E+01</rscale>
<asrwt>0</asrwt>
<pdfrwt beam="1">  1       21 0.36312473E-02 0.51335413E+01</pdfrwt>
<pdfrwt beam="2">  1       21 0.23017022E-03 0.51335413E+01</pdfrwt>
<totfact> 0.32875083E+09</totfact>
</mgrwt>
</event>
<event>
 4    1  0.3992289E+006  0.5253658E+01  0.7546771E-02  0.2524031E+00
         21   -1    0    0  503  502  0.00000000000E+00  0.00000000000E+00  0.19489761201E+02  0.19489761201E+02  0.00000000000E+00 0. -1.
         21   -1    0    0  501  503 -0.00000000000E+00 -0.00000000000E+00 -0.15714418309E+01  0.15714418309E+01  0.00000000000E+00 0. -1.
          5    1    1    2  501    0  0.67079188686E+00  0.22496584668E+01  0.56490492862E+01  0.77144463710E+01  0.47000000000E+01 0. -1.
         -5    1    1    2    0  502 -0.67079188686E+00 -0.22496584668E+01  0.12269270084E+02  0.13346756661E+02  0.47000000000E+01 0. -1.
<mgrwt>
<rscale>  2 0.52536582E+01</rscale>
<asrwt>0</asrwt>
<pdfrwt beam="1">  1       21 0.29984246E-02 0.52536582E+01</pdfrwt>
<pdfrwt beam="2">  1       21 0.24176030E-03 0.52536582E+01</pdfrwt>
<totfact> 0.41513763E+09</totfact>
</mgrwt>
</event>
<event>
 4    1  0.3992289E+006  0.5438885E+01  0.7546771E-02  0.2494728E+00
         21   -1    0    0  501  502  0.00000000000E+00  0.00000000000E+00  0.47128270849E+02  0.47128270849E+02  0.00000000000E+00 0. -1.
         21   -1    0    0  502  503 -0.00000000000E+00 -0.00000000000E+00 -0.85176209109E+00  0.85176209109E+00  0.00000000000E+00 0.  1.
          5    1    1    2  501    0  0.27352306501E+01 -0.99905076763E-01  0.35443069024E+02  0.35857950437E+02  0.47000000000E+01 0.  1.
         -5    1    1    2    0  503 -0.27352306501E+01  0.99905076763E-01  0.10833439734E+02  0.12122082503E+02  0.47000000000E+01 0.  1.
<mgrwt>
<rscale>  2 0.54388848E+01</rscale>
<asrwt>0</asrwt>
<pdfrwt beam="1">  1       21 0.72505012E-02 0.54388848E+01</pdfrwt>
<pdfrwt beam="2">  1       21 0.13104036E-03 0.54388848E+01</pdfrwt>
<totfact> 0.26859394E+09</totfact>
</mgrwt>
</event>
<event>
 4    1  0.3992289E+006  0.8605342E+01  0.7546771E-02  0.2164294E+00
         21   -1    0    0  503  502  0.00000000000E+00  0.00000000000E+00  0.15144607275E+01  0.15144607275E+01  0.00000000000E+00 0.  1.
         21   -1    0    0  501  503 -0.00000000000E+00 -0.00000000000E+00 -0.11870300270E+03  0.11870300270E+03  0.00000000000E+00 0. -1.
          5    1    1    2  501    0  0.72083718495E+01  0.35862541191E-01 -0.10468934154E+03  0.10504242069E+03  0.47000000000E+01 0. -1.
         -5    1    1    2    0  502 -0.72083718495E+01 -0.35862541191E-01 -0.12499200431E+02  0.15175042743E+02  0.47000000000E+01 0.  1.
<mgrwt>
<rscale>  2 0.86053420E+01</rscale>
<asrwt>0</asrwt>
<pdfrwt beam="1">  1       21 0.23299400E-03 0.86053420E+01</pdfrwt>
<pdfrwt beam="2">  1       21 0.18261997E-01 0.86053420E+01</pdfrwt>
<totfact> 0.40230435E+08</totfact>
</mgrwt>
</event>
<event>
 4    1  0.3992289E+006  0.5231391E+01  0.7546771E-02  0.2527673E+00
         21   -1    0    0  503  502  0.00000000000E+00  0.00000000000E+00  0.25522379930E-01  0.25522379930E-01  0.00000000000E+00 0. -1.
         21   -1    0    0  501  503 -0.00000000000E+00 -0.00000000000E+00 -0.13665394613E+04  0.13665394613E+04  0.00000000000E+00 0. -1.
          5    1    1    2  501    0  0.13898999561E+01 -0.18291068073E+01 -0.36619417463E+03  0.36623154013E+03  0.47000000000E+01 0. -1.
         -5    1    1    2    0  502 -0.13898999561E+01  0.18291068073E+01 -0.10003197643E+04  0.10003334435E+04  0.47000000000E+01 0. -1.
<mgrwt>
<rscale>  2 0.52313912E+01</rscale>
<asrwt>0</asrwt>
<pdfrwt beam="1">  1       21 0.39275851E-05 0.52313912E+01</pdfrwt>
<pdfrwt beam="2">  1       21 0.21017983E+00 0.52313912E+01</pdfrwt>
<totfact> 0.70074103E+08</totfact>
</mgrwt>
</event>
<event>
 4    1  0.3992289E+006  0.5843402E+01  0.7546771E-02  0.2436262E+00
         21   -1    0    0  503  502  0.00000000000E+00  0.00000000000E+00  0.29680234192E+02  0.29680234192E+02  0.00000000000E+00 0. -1.
         21   -1    0    0  501  503 -0.00000000000E+00 -0.00000000000E+00 -0.12196117021E+01  0.12196117021E+01  0.00000000000E+00 0. -1.
          5    1    1    2  501    0 -0.29794212077E+01  0.17828073210E+01  0.10550909470E+02  0.12060971906E+02  0.47000000000E+01 0. -1.
         -5    1    1    2    0  502  0.29794212077E+01 -0.17828073210E+01  0.17909713021E+02  0.18838873989E+02  0.47000000000E+01 0. -1.
<mgrwt>
<rscale>  2 0.58434025E+01</rscale>
<asrwt>0</asrwt>
<pdfrwt beam="1">  1       21 0.45661893E-02 0.58434025E+01</pdfrwt>
<pdfrwt beam="2">  1       21 0.18763259E-03 0.58434025E+01</pdfrwt>
<totfact> 0.35084912E+09</totfact>
</mgrwt>
</event>
<event>
 4    1  0.3992289E+006  0.6261276E+01  0.7546771E-02  0.2382610E+00
         21   -1    0    0  503  502  0.00000000000E+00  0.00000000000E+00  0.15339707077E+03  0.15339707077E+03  0.00000000000E+00 0.  1.
         21   -1    0    0  501  503 -0.00000000000E+00 -0.00000000000E+00 -0.67836441150E+00  0.67836441150E+00  0.00000000000E+00 0. -1.
          5    1    1    2  501    0  0.41302388674E+01  0.23388591114E+00  0.15540688714E+02  0.16754598814E+02  0.47000000000E+01 0. -1.
         -5    1    1    2    0  502 -0.41302388674E+01 -0.23388591114E+00  0.13717801765E+03  0.13732083637E+03  0.47000000000E+01 0.  1.
<mgrwt>
<rscale>  2 0.62612759E+01</rscale>
<asrwt>0</asrwt>
<pdfrwt beam="1">  1       21 0.23599522E-01 0.62612759E+01</pdfrwt>
<pdfrwt beam="2">  1       21 0.10436388E-03 0.62612759E+01</pdfrwt>
<totfact> 0.64718135E+08</totfact>
</mgrwt>
</event>
<event>
 4    1  0.3992289E+006  0.6604137E+01  0.7546771E-02  0.2342855E+00
         21   -1    0    0  503  502  0.00000000000E+00  0.00000000000E+00  0.17622480620E+02  0.17622480620E+02  0.00000000000E+00 0. -1.
         21   -1    0    0  501  503 -0.00000000000E+00 -0.00000000000E+00 -0.46914566468E+01  0.46914566468E+01  0.00000000000E+00 0. -1.
          5    1    1    2  501    0 -0.11446298604E+01 -0.44960481213E+01 -0.12032915555E+01  0.67128635316E+01  0.47000000000E+01 0. -1.
         -5    1    1    2    0  502  0.11446298604E+01  0.44960481213E+01  0.14134315529E+02  0.15601073736E+02  0.47000000000E+01 0. -1.
<mgrwt>
<rscale>  2 0.66041371E+01</rscale>
<asrwt>0</asrwt>
<pdfrwt beam="1">  1       21 0.27111508E-02 0.66041371E+01</pdfrwt>
<pdfrwt beam="2">  1       21 0.72176257E-03 0.66041371E+01</pdfrwt>
<totfact> 0.12969406E+09</totfact>
</mgrwt>
</event>
<event>
 4    1  0.3992289E+006  0.5301011E+01  0.7546771E-02  0.2516374E+00
         21   -1    0    0  501  502  0.00000000000E+00  0.00000000000E+00  0.16015325704E+01  0.16015325704E+01  0.00000000000E+00 0.  1.
         21   -1    0    0  502  503 -0.00000000000E+00 -0.00000000000E+00 -0.20721445202E+02  0.20721445202E+02  0.00000000000E+00 0.  1.
          5    1    1    2  501    0  0.24506084285E+01 -0.72334492105E-01 -0.51907265905E+01  0.74191883981E+01  0.47000000000E+01 0.  1.
         -5    1    1    2    0  503 -0.24506084285E+01  0.72334492105E-01 -0.13929186041E+02  0.14903789375E+02  0.47000000000E+01 0.  1.
<mgrwt>
<rscale>  2 0.53010107E+01</rscale>
<asrwt>0</asrwt>
<pdfrwt beam="1">  1       21 0.24638963E-03 0.53010107E+01</pdfrwt>
<pdfrwt beam="2">  1       21 0.31879146E-02 0.53010107E+01</pdfrwt>
<totfact> 0.37372820E+09</totfact>
</mgrwt>
</event>
<event>
 4    1  0.3992289E+006  0.4995860E+01  0.7546771E-02  0.2567889E+00
         21   -1    0    0  501  502  0.00000000000E+00  0.00000000000E+00  0.86707872479E+01  0.86707872479E+01  0.00000000000E+00 0. -1.
         21   -1    0    0  502  503 -0.00000000000E+00 -0.00000000000E+00 -0.47365882821E+01  0.47365882821E+01  0.00000000000E+00 0. -1.
          5    1    1    2  501    0 -0.12197665983E+01  0.11750682698E+01  0.61658245287E+01  0.79357424423E+01  0.47000000000E+01 0. -1.
         -5    1    1    2    0  503  0.12197665983E+01 -0.11750682698E+01 -0.22316255629E+01  0.54716330877E+01  0.47000000000E+01 0. -1.
<mgrwt>
<rscale>  2 0.49958599E+01</rscale>
<asrwt>0</asrwt>
<pdfrwt beam="1">  1       21 0.13339673E-02 0.49958599E+01</pdfrwt>
<pdfrwt beam="2">  1       21 0.72870589E-03 0.49958599E+01</pdfrwt>
<totfact> 0.27490702E+09</totfact>
</mgrwt>
</event>
<event>
 4    1  0.3992289E+006  0.7098045E+01  0.7546771E-02  0.2291221E+00
         21   -1    0    0  501  502  0.00000000000E+00  0.00000000000E+00  0.54722799030E+03  0.54722799030E+03  0.00000000000E+00 0.  1.
         21   -1    0    0  502  503 -0.00000000000E+00 -0.00000000000E+00 -0.11841828043E+00  0.11841828043E+00  0.00000000000E+00 0. -1.
          5    1    1    2  501    0 -0.47914117105E+01  0.23096800564E+01  0.40265132407E+03  0.40271388234E+03  0.47000000000E+01 0.  1.
         -5    1    1    2    0  503  0.47914117105E+01 -0.23096800564E+01  0.14445824794E+03  0.14463252624E+03  0.47000000000E+01 0. -1.
<mgrwt>
<rscale>  2 0.70980454E+01</rscale>
<asrwt>0</asrwt>
<pdfrwt beam="1">  1       21 0.84186897E-01 0.70980454E+01</pdfrwt>
<pdfrwt beam="2">  1       21 0.18218635E-04 0.70980454E+01</pdfrwt>
<totfact> 0.74846121E+08</totfact>
</mgrwt>
</event>
<event>
 4    1  0.3992289E+006  0.7489424E+01  0.7546771E-02  0.2254309E+00
         21   -1    0    0  503  502  0.00000000000E+00  0.00000000000E+00  0.39604754632E+00  0.39604754632E+00  0.00000000000E+00 0. -1.
         21   -1    0    0  501  503 -0.00000000000E+00 -0.00000000000E+00 -0.16048381867E+03  0.16048381867E+03  0.00000000000E+00 0. -1.
          5    1    1    2  501    0 -0.16579299736E+01  0.55904154342E+01 -0.10761645149E+03  0.10787674498E+03  0.47000000000E+01 0. -1.
         -5    1    1    2    0  502  0.16579299736E+01 -0.55904154342E+01 -0.52471319634E+02  0.53003121235E+02  0.47000000000E+01 0. -1.
<mgrwt>
<rscale>  2 0.74894243E+01</rscale>
<asrwt>0</asrwt>
<pdfrwt beam="1">  1       21 0.60930330E-04 0.74894243E+01</pdfrwt>
<pdfrwt beam="2">  1       21 0.24689843E-01 0.74894243E+01</pdfrwt>
<totfact> 0.14066480E+09</totfact>
</mgrwt>
</event>
<event>
 4    1  0.3992289E+006  0.7564931E+01  0.7546771E-02  0.2247547E+00
         21   -1    0    0  501  502  0.00000000000E+00  0.00000000000E+00  0.43776424735E+02  0.43776424735E+02  0.00000000000E+00 0.  1.
         21   -1    0    0  502  503 -0.00000000000E+00 -0.00000000000E+00 -0.13553195733E+01  0.13553195733E+01  0.00000000000E+00 0.  1.
          5    1    1    2  501    0 -0.52744709877E+01 -0.27052047214E+01  0.25458872188E+02  0.26559035184E+02  0.47000000000E+01 0.  1.
         -5    1    1    2    0  503  0.52744709877E+01  0.27052047214E+01  0.16962232974E+02  0.18572709125E+02  0.47000000000E+01 0.  1.
<mgrwt>
<rscale>  2 0.75649307E+01</rscale>
<asrwt>0</asrwt>
<pdfrwt beam="1">  1       21 0.67348335E-02 0.75649307E+01</pdfrwt>
<pdfrwt beam="2">  1       21 0.20851074E-03 0.75649307E+01</pdfrwt>
<totfact> 0.20889684E+09</totfact>
</mgrwt>
</event>
<event>
 4    1  0.3992289E+006  0.7126967E+01  0.7546771E-02  0.2288381E+00
         21   -1    0    0  501  502  0.00000000000E+00  0.00000000000E+00  0.15636258586E+01  0.15636258586E+01  0.00000000000E+00 0. -1.
         21   -1    0    0  502  503 -0.00000000000E+00 -0.00000000000E+00 -0.52624242007E+02  0.52624242007E+02  0.00000000000E+00 0.  1.
          5    1    1    2  501    0 -0.51881666840E+01 -0.13366306858E+01 -0.87690836525E+01  0.11300021382E+02  0.47000000000E+01 0. -1.
         -5    1    1    2    0  503  0.51881666840E+01  0.13366306858E+01 -0.42291532496E+02  0.42887846483E+02  0.47000000000E+01 0.  1.
<mgrwt>
<rscale>  2 0.71269668E+01</rscale>
<asrwt>0</asrwt>
<pdfrwt beam="1">  1       21 0.24055779E-03 0.71269668E+01</pdfrwt>
<pdfrwt beam="2">  1       21 0.80960382E-02 0.71269668E+01</pdfrwt>
<totfact> 0.12390457E+09</totfact>
</mgrwt>
</event>
<event>
 4    1  0.3992289E+006  0.6590005E+01  0.7546771E-02  0.2344425E+00
         21   -1    0    0  503  502  0.00000000000E+00  0.00000000000E+00  0.69537975482E+01  0.69537975482E+01  0.00000000000E+00 0. -1.
         21   -1    0    0  501  503 -0.00000000000E+00 -0.00000000000E+00 -0.11587206871E+02  0.11587206871E+02  0.00000000000E+00 0.  1.
          5    1    1    2  501    0  0.45920974678E+01  0.50081265140E+00 -0.86112483939E+01  0.10843512870E+02  0.47000000000E+01 0.  1.
         -5    1    1    2    0  502 -0.45920974678E+01 -0.50081265140E+00  0.39778390713E+01  0.76974915487E+01  0.47000000000E+01 0. -1.
<mgrwt>
<rscale>  2 0.65900055E+01</rscale>
<asrwt>0</asrwt>
<pdfrwt beam="1">  1       21 0.10698150E-02 0.65900055E+01</pdfrwt>
<pdfrwt beam="2">  1       21 0.17826472E-02 0.65900055E+01</pdfrwt>
<totfact> 0.13622437E+09</totfact>
</mgrwt>
</event>
<event>
 4    1  0.3992289E+006  0.4704903E+01  0.7546771E-02  0.2622326E+00
         21   -1    0    0  503  502  0.00000000000E+00  0.00000000000E+00  0.40303188011E-01  0.40303188011E-01  0.00000000000E+00 0. -1.
         21   -1    0    0  501  503 -0.00000000000E+00 -0.00000000000E+00 -0.15567749812E+04  0.15567749812E+04  0.00000000000E+00 0. -1.
          5    1    1    2  501    0 -0.21210042549E+00 -0.33502465083E-01 -0.14045835569E+04  0.14045914368E+04  0.47000000000E+01 0. -1.
         -5    1    1    2    0  502  0.21210042549E+00  0.33502465083E-01 -0.15215112113E+03  0.15222384757E+03  0.47000000000E+01 0. -1.
<mgrwt>
<rscale>  2 0.47049027E+01</rscale>
<asrwt>0</asrwt>
<pdfrwt beam="1">  1       21 0.62007658E-05 0.47049027E+01</pdfrwt>
<pdfrwt beam="2">  1       21 0.23949321E+00 0.47049027E+01</pdfrwt>
<totfact> 0.26483801E+08</totfact>
</mgrwt>
</event>
<event>
 4    1  0.3992289E+006  0.8948747E+01  0.7546771E-02  0.2140266E+00
         21   -1    0    0  503  502  0.00000000000E+00  0.00000000000E+00  0.46747084834E+00  0.46747084834E+00  0.00000000000E+00 0.  1.
         21   -1    0    0  501  503 -0.00000000000E+00 -0.00000000000E+00 -0.17636886236E+03  0.17636886236E+03  0.00000000000E+00 0. -1.
          5    1    1    2  501    0  0.78272460307E+00 -0.75747885070E+01 -0.10293280178E+03  0.10332106155E+03  0.47000000000E+01 0.  1.
         -5    1    1    2    0  502 -0.78272460307E+00  0.75747885070E+01 -0.72968589737E+02  0.73515271658E+02  0.47000000000E+01 0. -1.
<mgrwt>
<rscale>  2 0.89487473E+01</rscale>
<asrwt>0</asrwt>
<pdfrwt beam="1">  1       21 0.71918593E-04 0.89487473E+01</pdfrwt>
<pdfrwt beam="2">  1       21 0.27133671E-01 0.89487473E+01</pdfrwt>
<totfact> 0.10702722E+09</totfact>
</mgrwt>
</event>
<event>
 4    1  0.3992289E+006  0.6614194E+01  0.7546771E-02  0.2341740E+00
         21   -1    0    0  503  502  0.00000000000E+00  0.00000000000E+00  0.24232484382E-01  0.24232484382E-01  0.00000000000E+00 0. -1.
         21   -1    0    0  501  503 -0.00000000000E+00 -0.00000000000E+00 -0.23220152343E+04  0.23220152343E+04  0.00000000000E+00 0.  1.
          5    1    1    2  501    0 -0.41097716669E+01 -0.21834249074E+01 -0.17086683313E+04  0.17086811329E+04  0.47000000000E+01 0.  1.
         -5    1    1    2    0  502  0.41097716669E+01  0.21834249074E+01 -0.61332267058E+03  0.61335833394E+03  0.47000000000E+01 0. -1.
<mgrwt>
<rscale>  2 0.66141944E+01</rscale>
<asrwt>0</asrwt>
<pdfrwt beam="1">  1       21 0.37285533E-05 0.66141944E+01</pdfrwt>
<pdfrwt beam="2">  1       21 0.35718724E+00 0.66141944E+01</pdfrwt>
<totfact> 0.21272391E+08</totfact>
</mgrwt>
</event>
<event>
 4    1  0.3992289E+006  0.9701499E+01  0.7546771E-02  0.2092385E+00
         21   -1    0    0  501  502  0.00000000000E+00  0.00000000000E+00  0.19872394511E+02  0.19872394511E+02  0.00000000000E+00 0. -1.
         21   -1    0    0  502  503 -0.00000000000E+00 -0.00000000000E+00 -0.59499060373E+01  0.59499060373E+01  0.00000000000E+00 0.  1.
          5    1    1    2  501    0  0.92976125120E+00  0.84359125938E+01  0.12792628474E+02  0.16055230317E+02  0.47000000000E+01 0. -1.
         -5    1    1    2    0  503 -0.92976125120E+00 -0.84359125938E+01  0.11298599996E+01  0.97670702308E+01  0.47000000000E+01 0.  1.
<mgrwt>
<rscale>  2 0.97014987E+01</rscale>
<asrwt>0</asrwt>
<pdfrwt beam="1">  1       21 0.30572914E-02 0.97014987E+01</pdfrwt>
<pdfrwt beam="2">  1       21 0.91537017E-03 0.97014987E+01</pdfrwt>
<totfact> 0.10052476E+09</totfact>
</mgrwt>
</event>
<event>
 4    1  0.3992289E+006  0.4872543E+01  0.7546771E-02  0.2590274E+00
         21   -1    0    0  501  502  0.00000000000E+00  0.00000000000E+00  0.23720933643E+01  0.23720933643E+01  0.00000000000E+00 0. -1.
         21   -1    0    0  502  503 -0.00000000000E+00 -0.00000000000E+00 -0.12566401965E+02  0.12566401965E+02  0.00000000000E+00 0. -1.
          5    1    1    2  501    0  0.49010892092E+00 -0.11880528832E+01 -0.17274439106E+01  0.51696942726E+01  0.47000000000E+01 0. -1.
         -5    1    1    2    0  503 -0.49010892092E+00  0.11880528832E+01 -0.84668646900E+01  0.97688010567E+01  0.47000000000E+01 0. -1.
<mgrwt>
<rscale>  2 0.48725431E+01</rscale>
<asrwt>0</asrwt>
<pdfrwt beam="1">  1       21 0.36493744E-03 0.48725431E+01</pdfrwt>
<pdfrwt beam="2">  1       21 0.19332926E-02 0.48725431E+01</pdfrwt>
<totfact> 0.41039684E+09</totfact>
</mgrwt>
</event>
<event>
 4    1  0.3992289E+006  0.1209084E+02  0.7546771E-02  0.1972471E+00
         21   -1    0    0  501  502  0.00000000000E+00  0.00000000000E+00  0.29656731415E+02  0.29656731415E+02  0.00000000000E+00 0. -1.
         21   -1    0    0  502  503 -0.00000000000E+00 -0.00000000000E+00 -0.52654889639E+01  0.52654889639E+01  0.00000000000E+00 0.  1.
          5    1    1    2  501    0  0.13919517789E+01  0.11052646548E+02  0.16607355955E+02  0.20542463272E+02  0.47000000000E+01 0. -1.
         -5    1    1    2    0  503 -0.13919517789E+01 -0.11052646548E+02  0.77838864962E+01  0.14379757107E+02  0.47000000000E+01 0.  1.
<mgrwt>
<rscale>  2 0.12090845E+02</rscale>
<asrwt>0</asrwt>
<pdfrwt beam="1">  1       21 0.45625740E-02 0.12090845E+02</pdfrwt>
<pdfrwt beam="2">  1       21 0.81007524E-03 0.12090845E+02</pdfrwt>
<totfact> 0.73726729E+08</totfact>
</mgrwt>
</event>
<event>
 4    1  0.3992289E+006  0.5844514E+01  0.7546771E-02  0.2436110E+00
         21   -1    0    0  501  502  0.00000000000E+00  0.00000000000E+00  0.60247213740E+02  0.60247213740E+02  0.00000000000E+00 0.  1.
         21   -1    0    0  502  503 -0.00000000000E+00 -0.00000000000E+00 -0.56740524051E+00  0.56740524051E+00  0.00000000000E+00 0.  1.
          5    1    1    2  501    0  0.29603861984E+01 -0.18178169686E+01  0.28997455825E+02  0.29580581287E+02  0.47000000000E+01 0.  1.
         -5    1    1    2    0  503 -0.29603861984E+01  0.18178169686E+01  0.30682352675E+02  0.31234037694E+02  0.47000000000E+01 0.  1.
<mgrwt>
<rscale>  2 0.58445141E+01</rscale>
<asrwt>0</asrwt>
<pdfrwt beam="1">  1       21 0.92687971E-02 0.58445141E+01</pdfrwt>
<pdfrwt beam="2">  1       21 0.87293162E-04 0.58445141E+01</pdfrwt>
<totfact> 0.34074577E+09</totfact>
</mgrwt>
</event>
<event>
 4    1  0.3992289E+006  0.6598040E+01  0.7546771E-02  0.2343531E+00
         21   -1    0    0  501  502  0.00000000000E+00  0.00000000000E+00  0.15098058330E+03  0.15098058330E+03  0.00000000000E+00 0. -1.
         21   -1    0    0  502  503 -0.00000000000E+00 -0.00000000000E+00 -0.63720467644E+00  0.63720467644E+00  0.00000000000E+00 0.  1.
          5    1    1    2  501    0  0.10465335340E+01 -0.45109759573E+01  0.13126454537E+03  0.13143026671E+03  0.47000000000E+01 0. -1.
         -5    1    1    2    0  503 -0.10465335340E+01  0.45109759573E+01  0.19078833253E+02  0.20187521265E+02  0.47000000000E+01 0.  1.
<mgrwt>
<rscale>  2 0.65980404E+01</rscale>
<asrwt>0</asrwt>
<pdfrwt beam="1">  1       21 0.23227754E-01 0.65980404E+01</pdfrwt>
<pdfrwt beam="2">  1       21 0.98031609E-04 0.65980404E+01</pdfrwt>
<totfact> 0.75047838E+08</totfact>
</mgrwt>
</event>
<event>
 4    1  0.3992289E+006  0.7714510E+01  0.7546771E-02  0.2234470E+00
         21   -1    0    0  501  502  0.00000000000E+00  0.00000000000E+00  0.71633702635E+01  0.71633702635E+01  0.00000000000E+00 0. -1.
         21   -1    0    0  502  503 -0.00000000000E+00 -0.00000000000E+00 -0.89180776222E+01  0.89180776222E+01  0.00000000000E+00 0. -1.
          5    1    1    2  501    0  0.51154558789E+01 -0.33549619300E+01  0.12256173035E+01  0.78112608569E+01  0.47000000000E+01 0. -1.
         -5    1    1    2    0  503 -0.51154558789E+01  0.33549619300E+01 -0.29803246622E+01  0.82701870289E+01  0.47000000000E+01 0. -1.
<mgrwt>
<rscale>  2 0.77145096E+01</rscale>
<asrwt>0</asrwt>
<pdfrwt beam="1">  1       21 0.11020570E-02 0.77145096E+01</pdfrwt>
<pdfrwt beam="2">  1       21 0.13720119E-02 0.77145096E+01</pdfrwt>
<totfact> 0.21458624E+09</totfact>
</mgrwt>
</event>
<event>
 4    1  0.3992289E+006  0.7034830E+01  0.7546771E-02  0.2297497E+00
         21   -1    0    0  503  502  0.00000000000E+00  0.00000000000E+00  0.38148868700E+01  0.38148868700E+01  0.00000000000E+00 0. -1.
         21   -1    0    0  501  503 -0.00000000000E+00 -0.00000000000E+00 -0.14731534286E+02  0.14731534286E+02  0.00000000000E+00 0. -1.
          5    1    1    2  501    0  0.32973993552E+01  0.40652174591E+01 -0.86626468611E+01  0.11159313874E+02  0.47000000000E+01 0. -1.
         -5    1    1    2    0  502 -0.32973993552E+01 -0.40652174591E+01 -0.22540005551E+01  0.73871072822E+01  0.47000000000E+01 0. -1.
<mgrwt>
<rscale>  2 0.70348302E+01</rscale>
<asrwt>0</asrwt>
<pdfrwt beam="1">  1       21 0.58690566E-03 0.70348302E+01</pdfrwt>
<pdfrwt beam="2">  1       21 0.22663899E-02 0.70348302E+01</pdfrwt>
<totfact> 0.23655494E+09</totfact>
</mgrwt>
</event>
<event>
 4    1  0.3992289E+006  0.4850016E+01  0.7546771E-02  0.2594469E+00
         21   -1    0    0  501  502  0.00000000000E+00  0.00000000000E+00  0.34658502583E+02  0.34658502583E+02  0.00000000000E+00 0.  1.
         21   -1    0    0  502  503 -0.00000000000E+00 -0.00000000000E+00 -0.70827725407E+00  0.70827725407E+00  0.00000000000E+00 0.  1.
          5    1    1    2  501    0 -0.11173845350E+01  0.42907871958E+00  0.20588856870E+02  0.21152391921E+02  0.47000000000E+01 0.  1.
         -5    1    1    2    0  503  0.11173845350E+01 -0.42907871958E+00  0.13361368459E+02  0.14214387917E+02  0.47000000000E+01 0.  1.
<mgrwt>
<rscale>  2 0.48500162E+01</rscale>
<asrwt>0</asrwt>
<pdfrwt beam="1">  1       21 0.53320760E-02 0.48500162E+01</pdfrwt>
<pdfrwt beam="2">  1       21 0.10896576E-03 0.48500162E+01</pdfrwt>
<totfact> 0.48254898E+09</totfact>
</mgrwt>
</event>
<event>
 4    1  0.3992289E+006  0.5064390E+01  0.7546771E-02  0.2555856E+00
         21   -1    0    0  501  502  0.00000000000E+00  0.00000000000E+00  0.11295566004E+02  0.11295566004E+02  0.00000000000E+00 0.  1.
         21   -1    0    0  502  503 -0.00000000000E+00 -0.00000000000E+00 -0.22835441455E+01  0.22835441455E+01  0.00000000000E+00 0.  1.
          5    1    1    2  501    0  0.48405351545E+00  0.18231133767E+01  0.50165990485E+01  0.71284161076E+01  0.47000000000E+01 0. -1.
         -5    1    1    2    0  503 -0.48405351545E+00 -0.18231133767E+01  0.39954228100E+01  0.64506940418E+01  0.47000000000E+01 0. -1.
<mgrwt>
<rscale>  2 0.50643904E+01</rscale>
<asrwt>0</asrwt>
<pdfrwt beam="1">  1       21 0.17377794E-02 0.50643904E+01</pdfrwt>
<pdfrwt beam="2">  1       21 0.35131449E-03 0.50643904E+01</pdfrwt>
<totfact> 0.52359403E+09</totfact>
</mgrwt>
</event>
<event>
 4    1  0.3992289E+006  0.5103466E+01  0.7546771E-02  0.2549120E+00
         21   -1    0    0  501  502  0.00000000000E+00  0.00000000000E+00  0.77327117994E+01  0.77327117994E+01  0.00000000000E+00 0. -1.
         21   -1    0    0  502  503 -0.00000000000E+00 -0.00000000000E+00 -0.56409664478E+01  0.56409664478E+01  0.00000000000E+00 0.  1.
          5    1    1    2  501    0 -0.42325495265E-01 -0.19883584959E+01  0.52903186863E+01  0.73507028751E+01  0.47000000000E+01 0. -1.
         -5    1    1    2    0  503  0.42325495265E-01  0.19883584959E+01 -0.31985733347E+01  0.60229753721E+01  0.47000000000E+01 0. -1.
<mgrwt>
<rscale>  2 0.51034656E+01</rscale>
<asrwt>0</asrwt>
<pdfrwt beam="1">  1       21 0.11896480E-02 0.51034656E+01</pdfrwt>
<pdfrwt beam="2">  1       21 0.86784099E-03 0.51034656E+01</pdfrwt>
<totfact> 0.25882276E+09</totfact>
</mgrwt>
</event>
<event>
 4    1  0.3992289E+006  0.7596510E+01  0.7546771E-02  0.2244752E+00
         21   -1    0    0  501  502  0.00000000000E+00  0.00000000000E+00  0.14388450012E+02  0.14388450012E+02  0.00000000000E+00 0.  1.
         21   -1    0    0  502  503 -0.00000000000E+00 -0.00000000000E+00 -0.49795339017E+01  0.49795339017E+01  0.00000000000E+00 0. -1.
          5    1    1    2  501    0  0.10583991191E+01  0.58733941683E+01  0.89761214439E+01  0.11759154899E+02  0.47000000000E+01 0.  1.
         -5    1    1    2    0  503 -0.10583991191E+01 -0.58733941683E+01  0.43279466594E+00  0.76088290147E+01  0.47000000000E+01 0. -1.
<mgrwt>
<rscale>  2 0.75965102E+01</rscale>
<asrwt>0</asrwt>
<pdfrwt beam="1">  1       21 0.22136077E-02 0.75965102E+01</pdfrwt>
<pdfrwt beam="2">  1       21 0.76608214E-03 0.75965102E+01</pdfrwt>
<totfact> 0.17802900E+09</totfact>
</mgrwt>
</event>
<event>
 4    1  0.3992289E+006  0.9025195E+01  0.7546771E-02  0.2135116E+00
         21   -1    0    0  503  502  0.00000000000E+00  0.00000000000E+00  0.35797662473E+02  0.35797662473E+02  0.00000000000E+00 0. -1.
         21   -1    0    0  501  503 -0.00000000000E+00 -0.00000000000E+00 -0.29989370067E+01  0.29989370067E+01  0.00000000000E+00 0. -1.
          5    1    1    2  501    0 -0.52560881142E+01  0.56336210137E+01  0.68712006194E+01  0.11343171776E+02  0.47000000000E+01 0. -1.
         -5    1    1    2    0  502  0.52560881142E+01 -0.56336210137E+01  0.25927524847E+02  0.27453427704E+02  0.47000000000E+01 0. -1.
<mgrwt>
<rscale>  2 0.90251952E+01</rscale>
<asrwt>0</asrwt>
<pdfrwt beam="1">  1       21 0.55073324E-02 0.90251952E+01</pdfrwt>
<pdfrwt beam="2">  1       21 0.46137495E-03 0.90251952E+01</pdfrwt>
<totfact> 0.10526240E+09</totfact>
</mgrwt>
</event>
<event>
 4    1  0.3992289E+006  0.4880012E+01  0.7546771E-02  0.2588890E+00
         21   -1    0    0  501  502  0.00000000000E+00  0.00000000000E+00  0.77643900098E+00  0.77643900098E+00  0.00000000000E+00 0. -1.
         21   -1    0    0  502  503 -0.00000000000E+00 -0.00000000000E+00 -0.33150723466E+02  0.33150723466E+02  0.00000000000E+00 0.  1.
          5    1    1    2  501    0 -0.13130620850E+01  0.19566993536E-01 -0.11548053281E+02  0.12536827729E+02  0.47000000000E+01 0. -1.
         -5    1    1    2    0  503  0.13130620850E+01 -0.19566993536E-01 -0.20826231183E+02  0.21390334738E+02  0.47000000000E+01 0.  1.
<mgrwt>
<rscale>  2 0.48800118E+01</rscale>
<asrwt>0</asrwt>
<pdfrwt beam="1">  1       21 0.11945215E-03 0.48800118E+01</pdfrwt>
<pdfrwt beam="2">  1       21 0.51001115E-02 0.48800118E+01</pdfrwt>
<totfact> 0.45873948E+09</totfact>
</mgrwt>
</event>
<event>
 4    1  0.3992289E+006  0.6728834E+01  0.7546771E-02  0.2329231E+00
         21   -1    0    0  503  502  0.00000000000E+00  0.00000000000E+00  0.96633152151E+03  0.96633152151E+03  0.00000000000E+00 0. -1.
         21   -1    0    0  501  503 -0.00000000000E+00 -0.00000000000E+00 -0.48352696460E-01  0.48352696460E-01  0.00000000000E+00 0. -1.
          5    1    1    2  501    0  0.33149048725E-01 -0.48151951096E+01  0.39809467502E+03  0.39815153834E+03  0.47000000000E+01 0. -1.
         -5    1    1    2    0  502 -0.33149048725E-01  0.48151951096E+01  0.56818849379E+03  0.56822833586E+03  0.47000000000E+01 0. -1.
<mgrwt>
<rscale>  2 0.67288337E+01</rscale>
<asrwt>0</asrwt>
<pdfrwt beam="1">  1       21 0.14865092E+00 0.67288337E+01</pdfrwt>
<pdfrwt beam="2">  1       21 0.74396503E-05 0.67288337E+01</pdfrwt>
<totfact> 0.73632569E+08</totfact>
</mgrwt>
</event>
<event>
 4    1  0.3992289E+006  0.5418247E+01  0.7546771E-02  0.2497908E+00
         21   -1    0    0  503  502  0.00000000000E+00  0.00000000000E+00  0.49156629857E+00  0.49156629857E+00  0.00000000000E+00 0. -1.
         21   -1    0    0  501  503 -0.00000000000E+00 -0.00000000000E+00 -0.63737761479E+02  0.63737761479E+02  0.00000000000E+00 0. -1.
          5    1    1    2  501    0 -0.26860054155E+01 -0.22972175004E+00 -0.39683945295E+02  0.40052127426E+02  0.47000000000E+01 0. -1.
         -5    1    1    2    0  502  0.26860054155E+01  0.22972175004E+00 -0.23562249885E+02  0.24177200352E+02  0.47000000000E+01 0. -1.
<mgrwt>
<rscale>  2 0.54182467E+01</rscale>
<asrwt>0</asrwt>
<pdfrwt beam="1">  1       21 0.75625580E-04 0.54182467E+01</pdfrwt>
<pdfrwt beam="2">  1       21 0.98058101E-02 0.54182467E+01</pdfrwt>
<totfact> 0.35376385E+09</totfact>
</mgrwt>
</event>
<event>
 4    1  0.3992289E+006  0.5753809E+01  0.7546771E-02  0.2448611E+00
         21   -1    0    0  501  502  0.00000000000E+00  0.00000000000E+00  0.48650560564E+00  0.48650560564E+00  0.00000000000E+00 0.  1.
         21   -1    0    0  502  503 -0.00000000000E+00 -0.00000000000E+00 -0.75248569914E+02  0.75248569914E+02  0.00000000000E+00 0.  1.
          5    1    1    2  501    0  0.25158098494E+01  0.21649518711E+01 -0.49093954839E+02  0.49429977924E+02  0.47000000000E+01 0.  1.
         -5    1    1    2    0  503 -0.25158098494E+01 -0.21649518711E+01 -0.25668109470E+02  0.26305097596E+02  0.47000000000E+01 0.  1.
<mgrwt>
<rscale>  2 0.57538088E+01</rscale>
<asrwt>0</asrwt>
<pdfrwt beam="1">  1       21 0.74847021E-04 0.57538088E+01</pdfrwt>
<pdfrwt beam="2">  1       21 0.11576702E-01 0.57538088E+01</pdfrwt>
<totfact> 0.29356790E+09</totfact>
</mgrwt>
</event>
<event>
 4    1  0.3992289E+006  0.9001943E+01  0.7546771E-02  0.2136675E+00
         21   -1    0    0  501  502  0.00000000000E+00  0.00000000000E+00  0.54793164637E+02  0.54793164637E+02  0.00000000000E+00 0.  1.
         21   -1    0    0  502  503 -0.00000000000E+00 -0.00000000000E+00 -0.18921483536E+01  0.18921483536E+01  0.00000000000E+00 0. -1.
          5    1    1    2  501    0  0.71348122045E+01  0.28353887150E+01  0.39695614621E+02  0.40703523121E+02  0.47000000000E+01 0.  1.
         -5    1    1    2    0  503 -0.71348122045E+01 -0.28353887150E+01  0.13205401662E+02  0.15981789869E+02  0.47000000000E+01 0. -1.
<mgrwt>
<rscale>  2 0.90019428E+01</rscale>
<asrwt>0</asrwt>
<pdfrwt beam="1">  1       21 0.84297164E-02 0.90019428E+01</pdfrwt>
<pdfrwt beam="2">  1       21 0.29109979E-03 0.90019428E+01</pdfrwt>
<totfact> 0.10423118E+09</totfact>
</mgrwt>
</event>
<event>
 4    1  0.3992289E+006  0.6218775E+01  0.7546771E-02  0.2387791E+00
         21   -1    0    0  503  502  0.00000000000E+00  0.00000000000E+00  0.33311396316E+00  0.33311396316E+00  0.00000000000E+00 0. -1.
         21   -1    0    0  501  503 -0.00000000000E+00 -0.00000000000E+00 -0.25745248024E+03  0.25745248024E+03  0.00000000000E+00 0.  1.
          5    1    1    2  501    0  0.28048505456E+00  0.40625720005E+01 -0.22406732752E+03  0.22415360899E+03  0.47000000000E+01 0.  1.
         -5    1    1    2    0  502 -0.28048505456E+00 -0.40625720005E+01 -0.33052038762E+02  0.33631985215E+02  0.47000000000E+01 0. -1.
<mgrwt>
<rscale>  2 0.62187751E+01</rscale>
<asrwt>0</asrwt>
<pdfrwt beam="1">  1       21 0.51248518E-04 0.62187751E+01</pdfrwt>
<pdfrwt beam="2">  1       21 0.39607907E-01 0.62187751E+01</pdfrwt>
<totfact> 0.69631073E+08</totfact>
</mgrwt>
</event>
<event>
 4    1  0.3992289E+006  0.8353452E+01  0.7546771E-02  0.2182914E+00
         21   -1    0    0  501  502  0.00000000000E+00  0.00000000000E+00  0.36692993962E+01  0.36692993962E+01  0.00000000000E+00 0.  1.
         21   -1    0    0  502  503 -0.00000000000E+00 -0.00000000000E+00 -0.19680249907E+02  0.19680249907E+02  0.00000000000E+00 0. -1.
          5    1    1    2  501    0  0.13262510537E+01  0.67772571265E+01 -0.10148240412E+02  0.13144083820E+02  0.47000000000E+01 0. -1.
         -5    1    1    2    0  503 -0.13262510537E+01 -0.67772571265E+01 -0.58627100984E+01  0.10205465482E+02  0.47000000000E+01 0.  1.
<mgrwt>
<rscale>  2 0.83534517E+01</rscale>
<asrwt>0</asrwt>
<pdfrwt beam="1">  1       21 0.56450761E-03 0.83534517E+01</pdfrwt>
<pdfrwt beam="2">  1       21 0.30277307E-02 0.83534517E+01</pdfrwt>
<totfact> 0.18513262E+09</totfact>
</mgrwt>
</event>
<event>
 4    1  0.3992289E+006  0.7987153E+01  0.7546771E-02  0.2211658E+00
         21   -1    0    0  503  502  0.00000000000E+00  0.00000000000E+00  0.28686162170E+00  0.28686162170E+00  0.00000000000E+00 0.  1.
         21   -1    0    0  501  503 -0.00000000000E+00 -0.00000000000E+00 -0.36586269158E+03  0.36586269158E+03  0.00000000000E+00 0. -1.
          5    1    1    2  501    0  0.10214742497E+01 -0.63766141929E+01 -0.29743338811E+03  0.29754061064E+03  0.47000000000E+01 0. -1.
         -5    1    1    2    0  502 -0.10214742497E+01  0.63766141929E+01 -0.68142441851E+02  0.68608942564E+02  0.47000000000E+01 0.  1.
<mgrwt>
<rscale>  2 0.79871533E+01</rscale>
<asrwt>0</asrwt>
<pdfrwt beam="1">  1       21 0.44132507E-04 0.79871533E+01</pdfrwt>
<pdfrwt beam="2">  1       21 0.56286632E-01 0.79871533E+01</pdfrwt>
<totfact> 0.52913778E+08</totfact>
</mgrwt>
</event>
<event>
 4    1  0.3992289E+006  0.5334458E+01  0.7546771E-02  0.2511035E+00
         21   -1    0    0  503  502  0.00000000000E+00  0.00000000000E+00  0.12792723048E+04  0.12792723048E+04  0.00000000000E+00 0. -1.
         21   -1    0    0  501  503 -0.00000000000E+00 -0.00000000000E+00 -0.88100097759E-01  0.88100097759E-01  0.00000000000E+00 0. -1.
          5    1    1    2  501    0  0.23755985186E+00  0.25119727406E+01  0.86532526722E+02  0.86696797072E+02  0.47000000000E+01 0. -1.
         -5    1    1    2    0  502 -0.23755985186E+00 -0.25119727406E+01  0.11926516779E+04  0.11926636078E+04  0.47000000000E+01 0. -1.
<mgrwt>
<rscale>  2 0.53344580E+01</rscale>
<asrwt>0</asrwt>
<pdfrwt beam="1">  1       21 0.19679625E+00 0.53344580E+01</pdfrwt>
<pdfrwt beam="2">  1       21 0.13554886E-04 0.53344580E+01</pdfrwt>
<totfact> 0.15622887E+08</totfact>
</mgrwt>
</event>
<event>
 4    1  0.3992289E+006  0.1111942E+02  0.7546771E-02  0.2016370E+00
         21   -1    0    0  503  502  0.00000000000E+00  0.00000000000E+00  0.24502508335E+01  0.24502508335E+01  0.00000000000E+00 0. -1.
         21   -1    0    0  501  503 -0.00000000000E+00 -0.00000000000E+00 -0.50671305024E+02  0.50671305024E+02  0.00000000000E+00 0.  1.
          5    1    1    2  501    0  0.82267927379E+01  0.58199177293E+01 -0.25822569866E+02  0.28114883525E+02  0.47000000000E+01 0.  1.
         -5    1    1    2    0  502 -0.82267927379E+01 -0.58199177293E+01 -0.22398484325E+02  0.25006672333E+02  0.47000000000E+01 0. -1.
<mgrwt>
<rscale>  2 0.11119423E+02</rscale>
<asrwt>0</asrwt>
<pdfrwt beam="1">  1       21 0.37696168E-03 0.11119423E+02</pdfrwt>
<pdfrwt beam="2">  1       21 0.77955850E-02 0.11119423E+02</pdfrwt>
<totfact> 0.92269275E+08</totfact>
</mgrwt>
</event>
<event>
 4    1  0.3992289E+006  0.4788408E+01  0.7546771E-02  0.2606117E+00
         21   -1    0    0  503  502  0.00000000000E+00  0.00000000000E+00  0.13102611393E+02  0.13102611393E+02  0.00000000000E+00 0. -1.
         21   -1    0    0  501  503 -0.00000000000E+00 -0.00000000000E+00 -0.18917985651E+01  0.18917985651E+01  0.00000000000E+00 0. -1.
          5    1    1    2  501    0 -0.60386661490E+00  0.68862181967E+00  0.35524420458E+01  0.59622730052E+01  0.47000000000E+01 0. -1.
         -5    1    1    2    0  502  0.60386661490E+00 -0.68862181967E+00  0.76583707817E+01  0.90321369525E+01  0.47000000000E+01 0. -1.
<mgrwt>
<rscale>  2 0.47884084E+01</rscale>
<asrwt>0</asrwt>
<pdfrwt beam="1">  1       21 0.20157863E-02 0.47884084E+01</pdfrwt>
<pdfrwt beam="2">  1       21 0.29104594E-03 0.47884084E+01</pdfrwt>
<totfact> 0.51612612E+09</totfact>
</mgrwt>
</event>
<event>
 4    1  0.3992289E+006  0.6321221E+01  0.7546771E-02  0.2375402E+00
         21   -1    0    0  501  502  0.00000000000E+00  0.00000000000E+00  0.54300218840E+01  0.54300218840E+01  0.00000000000E+00 0. -1.
         21   -1    0    0  502  503 -0.00000000000E+00 -0.00000000000E+00 -0.31867198381E+02  0.31867198381E+02  0.00000000000E+00 0.  1.
          5    1    1    2  501    0  0.41089885939E+01  0.99199067614E+00  0.31357506219E+01  0.70562571331E+01  0.47000000000E+01 0. -1.
         -5    1    1    2    0  503 -0.41089885939E+01 -0.99199067614E+00 -0.29572927119E+02  0.30240963132E+02  0.47000000000E+01 0.  1.
<mgrwt>
<rscale>  2 0.63212208E+01</rscale>
<asrwt>0</asrwt>
<pdfrwt beam="1">  1       21 0.83538797E-03 0.63212208E+01</pdfrwt>
<pdfrwt beam="2">  1       21 0.49026460E-02 0.63212208E+01</pdfrwt>
<totfact> 0.42685059E+08</totfact>
</mgrwt>
</event>
<event>
 4    1  0.3992289E+006  0.6279215E+01  0.7546771E-02  0.2380441E+00
         21   -1    0    0  501  502  0.00000000000E+00  0.00000000000E+00  0.12733862260E+02  0.12733862260E+02  0.00000000000E+00 0. -1.
         21   -1    0    0  502  503 -0.00000000000E+00 -0.00000000000E+00 -0.21397712243E+02  0.21397712243E+02  0.00000000000E+00 0.  1.
          5    1    1    2  501    0 -0.38939041131E+01 -0.14751458576E+01  0.11450884623E+02  0.13059529210E+02  0.47000000000E+01 0. -1.
         -5    1    1    2    0  503  0.38939041131E+01  0.14751458576E+01 -0.20114734606E+02  0.21072045293E+02  0.47000000000E+01 0.  1.
<mgrwt>
<rscale>  2 0.62792153E+01</rscale>
<asrwt>0</asrwt>
<pdfrwt beam="1">  1       21 0.19590557E-02 0.62792153E+01</pdfrwt>
<pdfrwt beam="2">  1       21 0.32919557E-02 0.62792153E+01</pdfrwt>
<totfact> 0.22703802E+08</totfact>
</mgrwt>
</event>
<event>
 4    1  0.3992289E+006  0.8962216E+01  0.7546771E-02  0.2139354E+00
         21   -1    0    0  503  502  0.00000000000E+00  0.00000000000E+00  0.34082320752E+03  0.34082320752E+03  0.00000000000E+00 0. -1.
         21   -1    0    0  501  503 -0.00000000000E+00 -0.00000000000E+00 -0.37009348671E+00  0.37009348671E+00  0.00000000000E+00 0.  1.
          5    1    1    2  501    0  0.30842273339E+01 -0.69798892365E+01  0.67411979528E+02  0.68005119630E+02  0.47000000000E+01 0.  1.
         -5    1    1    2    0  502 -0.30842273339E+01  0.69798892365E+01  0.27304113451E+03  0.27318818138E+03  0.47000000000E+01 0. -1.
<mgrwt>
<rscale>  2 0.89622158E+01</rscale>
<asrwt>0</asrwt>
<pdfrwt beam="1">  1       21 0.52434089E-01 0.89622158E+01</pdfrwt>
<pdfrwt beam="2">  1       21 0.56937732E-04 0.89622158E+01</pdfrwt>
<totfact> 0.45519906E+08</totfact>
</mgrwt>
</event>
<event>
 4    1  0.3992289E+006  0.7541551E+01  0.7546771E-02  0.2249630E+00
         21   -1    0    0  503  502  0.00000000000E+00  0.00000000000E+00  0.16787646345E+02  0.16787646345E+02  0.00000000000E+00 0.  1.
         21   -1    0    0  501  503 -0.00000000000E+00 -0.00000000000E+00 -0.35664561357E+01  0.35664561357E+01  0.00000000000E+00 0. -1.
          5    1    1    2  501    0 -0.54618822012E+01  0.22254952919E+01  0.43334943058E+01  0.86979399499E+01  0.47000000000E+01 0. -1.
         -5    1    1    2    0  502  0.54618822012E+01 -0.22254952919E+01  0.88876959036E+01  0.11656162531E+02  0.47000000000E+01 0.  1.
<mgrwt>
<rscale>  2 0.75415507E+01</rscale>
<asrwt>0</asrwt>
<pdfrwt beam="1">  1       21 0.25827148E-02 0.75415507E+01</pdfrwt>
<pdfrwt beam="2">  1       21 0.54868557E-03 0.75415507E+01</pdfrwt>
<totfact> 0.22658499E+09</totfact>
</mgrwt>
</event>
<event>
 4    1  0.3992289E+006  0.5926952E+01  0.7546771E-02  0.2425029E+00
         21   -1    0    0  503  502  0.00000000000E+00  0.00000000000E+00  0.27743114426E+00  0.27743114426E+00  0.00000000000E+00 0.  1.
         21   -1    0    0  501  503 -0.00000000000E+00 -0.00000000000E+00 -0.37629510940E+03  0.37629510940E+03  0.00000000000E+00 0. -1.
          5    1    1    2  501    0 -0.11388187654E+00 -0.36091264275E+01 -0.34137891713E+03  0.34143036453E+03  0.47000000000E+01 0. -1.
         -5    1    1    2    0  502  0.11388187654E+00  0.36091264275E+01 -0.34638761129E+02  0.35142176017E+02  0.47000000000E+01 0.  1.
<mgrwt>
<rscale>  2 0.59269522E+01</rscale>
<asrwt>0</asrwt>
<pdfrwt beam="1">  1       21 0.42681962E-04 0.59269522E+01</pdfrwt>
<pdfrwt beam="2">  1       21 0.57891220E-01 0.59269522E+01</pdfrwt>
<totfact> 0.43555895E+08</totfact>
</mgrwt>
</event>
<event>
 4    1  0.3992289E+006  0.6822090E+01  0.7546771E-02  0.2319312E+00
         21   -1    0    0  501  502  0.00000000000E+00  0.00000000000E+00  0.69864210844E+02  0.69864210844E+02  0.00000000000E+00 0.  1.
         21   -1    0    0  502  503 -0.00000000000E+00 -0.00000000000E+00 -0.11626044480E+01  0.11626044480E+01  0.00000000000E+00 0.  1.
          5    1    1    2  501    0 -0.48935396679E+01  0.71005406986E+00  0.57557357164E+02  0.57960247334E+02  0.47000000000E+01 0.  1.
         -5    1    1    2    0  503  0.48935396679E+01 -0.71005406986E+00  0.11144249231E+02  0.13066567957E+02  0.47000000000E+01 0.  1.
<mgrwt>
<rscale>  2 0.68220897E+01</rscale>
<asrwt>0</asrwt>
<pdfrwt beam="1">  1       21 0.10748337E-01 0.68220897E+01</pdfrwt>
<pdfrwt beam="2">  1       21 0.17886228E-03 0.68220897E+01</pdfrwt>
<totfact> 0.11640971E+09</totfact>
</mgrwt>
</event>
<event>
 4    1  0.3992289E+006  0.4907781E+01  0.7546771E-02  0.2583778E+00
         21   -1    0    0  501  502  0.00000000000E+00  0.00000000000E+00  0.70169445876E-01  0.70169445876E-01  0.00000000000E+00 0. -1.
         21   -1    0    0  502  503 -0.00000000000E+00 -0.00000000000E+00 -0.38669007932E+03  0.38669007932E+03  0.00000000000E+00 0. -1.
          5    1    1    2  501    0  0.12696554304E+01  0.61991010993E+00 -0.12850186345E+03  0.12859554900E+03  0.47000000000E+01 0.  1.
         -5    1    1    2    0  503 -0.12696554304E+01 -0.61991010993E+00 -0.25811804642E+03  0.25816469976E+03  0.47000000000E+01 0.  1.
<mgrwt>
<rscale>  2 0.49077809E+01</rscale>
<asrwt>0</asrwt>
<pdfrwt beam="1">  1       21 0.10795221E-04 0.49077809E+01</pdfrwt>
<pdfrwt beam="2">  1       21 0.59491212E-01 0.49077809E+01</pdfrwt>
<totfact> 0.22191518E+09</totfact>
</mgrwt>
</event>
<event>
 4    1  0.3992289E+006  0.6435786E+01  0.7546771E-02  0.2361936E+00
         21   -1    0    0  503  502  0.00000000000E+00  0.00000000000E+00  0.22488200768E+00  0.22488200768E+00  0.00000000000E+00 0.  1.
         21   -1    0    0  501  503 -0.00000000000E+00 -0.00000000000E+00 -0.27353500009E+03  0.27353500009E+03  0.00000000000E+00 0.  1.
          5    1    1    2  501    0  0.21860613665E+01 -0.38145088097E+01 -0.21488744734E+03  0.21498380024E+03  0.47000000000E+01 0.  1.
         -5    1    1    2    0  502 -0.21860613665E+01  0.38145088097E+01 -0.58422670740E+02  0.58776081855E+02  0.47000000000E+01 0.  1.
<mgrwt>
<rscale>  2 0.64357860E+01</rscale>
<asrwt>0</asrwt>
<pdfrwt beam="1">  1       21 0.34597357E-04 0.64357860E+01</pdfrwt>
<pdfrwt beam="2">  1       21 0.42082156E-01 0.64357860E+01</pdfrwt>
<totfact> 0.10856722E+09</totfact>
</mgrwt>
</event>
<event>
 4    1  0.3992289E+006  0.4874431E+01  0.7546771E-02  0.2589923E+00
         21   -1    0    0  501  502  0.00000000000E+00  0.00000000000E+00  0.24233757466E+03  0.24233757466E+03  0.00000000000E+00 0. -1.
         21   -1    0    0  502  503 -0.00000000000E+00 -0.00000000000E+00 -0.13211948016E+00  0.13211948016E+00  0.00000000000E+00 0.  1.
          5    1    1    2  501    0 -0.96618616874E+00 -0.85823170651E+00  0.18267090495E+03  0.18273592857E+03  0.47000000000E+01 0. -1.
         -5    1    1    2    0  503  0.96618616874E+00  0.85823170651E+00  0.59534550230E+02  0.59733765564E+02  0.47000000000E+01 0.  1.
<mgrwt>
<rscale>  2 0.48744310E+01</rscale>
<asrwt>0</asrwt>
<pdfrwt beam="1">  1       21 0.37282348E-01 0.48744310E+01</pdfrwt>
<pdfrwt beam="2">  1       21 0.20326268E-04 0.48744310E+01</pdfrwt>
<totfact> 0.21720290E+09</totfact>
</mgrwt>
</event>
<event>
 4    1  0.3992289E+006  0.4852721E+01  0.7546771E-02  0.2593963E+00
         21   -1    0    0  501  502  0.00000000000E+00  0.00000000000E+00  0.13453168772E+01  0.13453168772E+01  0.00000000000E+00 0.  1.
         21   -1    0    0  502  503 -0.00000000000E+00 -0.00000000000E+00 -0.19938437444E+02  0.19938437444E+02  0.00000000000E+00 0.  1.
          5    1    1    2  501    0 -0.11052433087E+01 -0.48717290709E+00 -0.55782931461E+01  0.73936631406E+01  0.47000000000E+01 0.  1.
         -5    1    1    2    0  503  0.11052433087E+01  0.48717290709E+00 -0.13014827420E+02  0.13890091180E+02  0.47000000000E+01 0.  1.
<mgrwt>
<rscale>  2 0.48527209E+01</rscale>
<asrwt>0</asrwt>
<pdfrwt beam="1">  1       21 0.20697182E-03 0.48527209E+01</pdfrwt>
<pdfrwt beam="2">  1       21 0.30674520E-02 0.48527209E+01</pdfrwt>
<totfact> 0.45624537E+09</totfact>
</mgrwt>
</event>
<event>
 4    1  0.3992289E+006  0.5649940E+01  0.7546771E-02  0.2463340E+00
         21   -1    0    0  503  502  0.00000000000E+00  0.00000000000E+00  0.86509899145E+01  0.86509899145E+01  0.00000000000E+00 0. -1.
         21   -1    0    0  501  503 -0.00000000000E+00 -0.00000000000E+00 -0.43995656367E+01  0.43995656367E+01  0.00000000000E+00 0.  1.
          5    1    1    2  501    0  0.31355716461E+01  0.30536526377E-02 -0.49489670685E+00  0.56715731172E+01  0.47000000000E+01 0.  1.
         -5    1    1    2    0  502 -0.31355716461E+01 -0.30536526377E-02  0.47463209847E+01  0.73789824341E+01  0.47000000000E+01 0. -1.
<mgrwt>
<rscale>  2 0.56499397E+01</rscale>
<asrwt>0</asrwt>
<pdfrwt beam="1">  1       21 0.13309215E-02 0.56499397E+01</pdfrwt>
<pdfrwt beam="2">  1       21 0.67685625E-03 0.56499397E+01</pdfrwt>
<totfact> 0.34485357E+09</totfact>
</mgrwt>
</event>
<event>
 4    1  0.3992289E+006  0.5436800E+01  0.7546771E-02  0.2495048E+00
         21   -1    0    0  503  502  0.00000000000E+00  0.00000000000E+00  0.94065958019E+01  0.94065958019E+01  0.00000000000E+00 0.  1.
         21   -1    0    0  501  503 -0.00000000000E+00 -0.00000000000E+00 -0.38125464631E+01  0.38125464631E+01  0.00000000000E+00 0.  1.
          5    1    1    2  501    0 -0.77074993376E+00 -0.26219729114E+01  0.25827508553E-01  0.54368616378E+01  0.47000000000E+01 0.  1.
         -5    1    1    2    0  502  0.77074993376E+00  0.26219729114E+01  0.55682218303E+01  0.77822806272E+01  0.47000000000E+01 0.  1.
<mgrwt>
<rscale>  2 0.54368003E+01</rscale>
<asrwt>0</asrwt>
<pdfrwt beam="1">  1       21 0.14471686E-02 0.54368003E+01</pdfrwt>
<pdfrwt beam="2">  1       21 0.58654561E-03 0.54368003E+01</pdfrwt>
<totfact> 0.36052807E+09</totfact>
</mgrwt>
</event>
<event>
 4    1  0.3992289E+006  0.5575153E+01  0.7546771E-02  0.2474232E+00
         21   -1    0    0  501  502  0.00000000000E+00  0.00000000000E+00  0.29164787277E-01  0.29164787277E-01  0.00000000000E+00 0. -1.
         21   -1    0    0  502  503 -0.00000000000E+00 -0.00000000000E+00 -0.15236435527E+04  0.15236435527E+04  0.00000000000E+00 0. -1.
          5    1    1    2  501    0 -0.29624167016E+01 -0.46520192492E+00 -0.34416629033E+03  0.34421144334E+03  0.47000000000E+01 0. -1.
         -5    1    1    2    0  503  0.29624167016E+01  0.46520192492E+00 -0.11794480976E+04  0.11794612741E+04  0.47000000000E+01 0. -1.
<mgrwt>
<rscale>  2 0.55751525E+01</rscale>
<asrwt>0</asrwt>
<pdfrwt beam="1">  1       21 0.44873259E-05 0.55751525E+01</pdfrwt>
<pdfrwt beam="2">  1       21 0.23438395E+00 0.55751525E+01</pdfrwt>
<totfact> 0.47525211E+08</totfact>
</mgrwt>
</event>
<event>
 4    1  0.3992289E+006  0.4825278E+01  0.7546771E-02  0.2599115E+00
         21   -1    0    0  503  502  0.00000000000E+00  0.00000000000E+00  0.32257150197E+01  0.32257150197E+01  0.00000000000E+00 0. -1.
         21   -1    0    0  501  503 -0.00000000000E+00 -0.00000000000E+00 -0.16597715750E+02  0.16597715750E+02  0.00000000000E+00 0. -1.
          5    1    1    2  501    0  0.56647421018E+00 -0.93403177020E+00 -0.14137073074E+02  0.14937876137E+02  0.47000000000E+01 0. -1.
         -5    1    1    2    0  502 -0.56647421018E+00  0.93403177020E+00  0.76507234381E+00  0.48855546328E+01  0.47000000000E+01 0. -1.
<mgrwt>
<rscale>  2 0.48252781E+01</rscale>
<asrwt>0</asrwt>
<pdfrwt beam="1">  1       21 0.49626385E-03 0.48252781E+01</pdfrwt>
<pdfrwt beam="2">  1       21 0.25534947E-02 0.48252781E+01</pdfrwt>
<totfact> 0.17989526E+09</totfact>
</mgrwt>
</event>
<event>
 4    1  0.3992289E+006  0.6225502E+01  0.7546771E-02  0.2386967E+00
         21   -1    0    0  501  502  0.00000000000E+00  0.00000000000E+00  0.86783615161E+01  0.86783615161E+01  0.00000000000E+00 0.  1.
         21   -1    0    0  502  503 -0.00000000000E+00 -0.00000000000E+00 -0.60894836094E+01  0.60894836094E+01  0.00000000000E+00 0.  1.
          5    1    1    2  501    0 -0.34028999218E+01 -0.22554718052E+01  0.51071277597E+01  0.80523061849E+01  0.47000000000E+01 0.  1.
         -5    1    1    2    0  503  0.34028999218E+01  0.22554718052E+01 -0.25182498529E+01  0.67155389407E+01  0.47000000000E+01 0.  1.
<mgrwt>
<rscale>  2 0.62255025E+01</rscale>
<asrwt>0</asrwt>
<pdfrwt beam="1">  1       21 0.13351325E-02 0.62255025E+01</pdfrwt>
<pdfrwt beam="2">  1       21 0.93684363E-03 0.62255025E+01</pdfrwt>
<totfact> 0.23727481E+09</totfact>
</mgrwt>
</event>
<event>
 4    1  0.3992289E+006  0.6133416E+01  0.7546771E-02  0.2398376E+00
         21   -1    0    0  501  502  0.00000000000E+00  0.00000000000E+00  0.10238831107E+03  0.10238831107E+03  0.00000000000E+00 0.  1.
         21   -1    0    0  502  503 -0.00000000000E+00 -0.00000000000E+00 -0.57651185530E+01  0.57651185530E+01  0.00000000000E+00 0.  1.
          5    1    1    2  501    0 -0.24716675535E+00  0.39328997107E+01  0.10063678165E+03  0.10082351220E+03  0.47000000000E+01 0.  1.
         -5    1    1    2    0  503  0.24716675535E+00 -0.39328997107E+01 -0.40135891399E+01  0.73299174159E+01  0.47000000000E+01 0.  1.
<mgrwt>
<rscale>  2 0.61334160E+01</rscale>
<asrwt>0</asrwt>
<pdfrwt beam="1">  1       21 0.15752046E-01 0.61334160E+01</pdfrwt>
<pdfrwt beam="2">  1       21 0.88694139E-03 0.61334160E+01</pdfrwt>
<totfact> 0.64400491E+07</totfact>
</mgrwt>
</event>
<event>
 4    1  0.3992289E+006  0.5465712E+01  0.7546771E-02  0.2490624E+00
         21   -1    0    0  501  502  0.00000000000E+00  0.00000000000E+00  0.24467082198E+01  0.24467082198E+01  0.00000000000E+00 0.  1.
         21   -1    0    0  502  503 -0.00000000000E+00 -0.00000000000E+00 -0.63464904443E+02  0.63464904443E+02  0.00000000000E+00 0. -1.
          5    1    1    2  501    0  0.19180121529E+01 -0.20261379722E+01 -0.89262335959E+00  0.55381208151E+01  0.47000000000E+01 0.  1.
         -5    1    1    2    0  503 -0.19180121529E+01  0.20261379722E+01 -0.60125572863E+02  0.60373491847E+02  0.47000000000E+01 0. -1.
<mgrwt>
<rscale>  2 0.54657118E+01</rscale>
<asrwt>0</asrwt>
<pdfrwt beam="1">  1       21 0.37641671E-03 0.54657118E+01</pdfrwt>
<pdfrwt beam="2">  1       21 0.97638299E-02 0.54657118E+01</pdfrwt>
<totfact> 0.41148558E+08</totfact>
</mgrwt>
</event>
<event>
 4    1  0.3992289E+006  0.4787667E+01  0.7546771E-02  0.2606258E+00
         21   -1    0    0  501  502  0.00000000000E+00  0.00000000000E+00  0.38444421799E+03  0.38444421799E+03  0.00000000000E+00 0. -1.
         21   -1    0    0  502  503 -0.00000000000E+00 -0.00000000000E+00 -0.90234540891E-01  0.90234540891E-01  0.00000000000E+00 0. -1.
          5    1    1    2  501    0  0.89991873959E+00 -0.14799775400E+00  0.30416221545E+03  0.30419989326E+03  0.47000000000E+01 0. -1.
         -5    1    1    2    0  503 -0.89991873959E+00  0.14799775400E+00  0.80191768007E+02  0.80334559271E+02  0.47000000000E+01 0. -1.
<mgrwt>
<rscale>  2 0.47876672E+01</rscale>
<asrwt>0</asrwt>
<pdfrwt beam="1">  1       21 0.59143953E-01 0.47876672E+01</pdfrwt>
<pdfrwt beam="2">  1       21 0.13882545E-04 0.47876672E+01</pdfrwt>
<totfact> 0.15736040E+09</totfact>
</mgrwt>
</event>
<event>
 4    1  0.3992289E+006  0.5347618E+01  0.7546771E-02  0.2508950E+00
         21   -1    0    0  501  502  0.00000000000E+00  0.00000000000E+00  0.12316895442E+01  0.12316895442E+01  0.00000000000E+00 0.  1.
         21   -1    0    0  502  503 -0.00000000000E+00 -0.00000000000E+00 -0.49127134551E+02  0.49127134551E+02  0.00000000000E+00 0.  1.
          5    1    1    2  501    0  0.25129127391E+01  0.43850337513E+00 -0.56619329304E+01  0.77880999064E+01  0.47000000000E+01 0.  1.
         -5    1    1    2    0  503 -0.25129127391E+01 -0.43850337513E+00 -0.42233512077E+02  0.42570724189E+02  0.47000000000E+01 0.  1.
<mgrwt>
<rscale>  2 0.53476178E+01</rscale>
<asrwt>0</asrwt>
<pdfrwt beam="1">  1       21 0.18949070E-03 0.53476178E+01</pdfrwt>
<pdfrwt beam="2">  1       21 0.75580206E-02 0.53476178E+01</pdfrwt>
<totfact> 0.15127946E+09</totfact>
</mgrwt>
</event>
<event>
 4    1  0.3992289E+006  0.5441333E+01  0.7546771E-02  0.2494352E+00
         21   -1    0    0  503  502  0.00000000000E+00  0.00000000000E+00  0.70756170157E+01  0.70756170157E+01  0.00000000000E+00 0.  1.
         21   -1    0    0  501  503 -0.00000000000E+00 -0.00000000000E+00 -0.88809525974E+01  0.88809525974E+01  0.00000000000E+00 0.  1.
          5    1    1    2  501    0 -0.33753342897E+00  0.27210610524E+01 -0.67044782624E+01  0.86347050232E+01  0.47000000000E+01 0.  1.
         -5    1    1    2    0  502  0.33753342897E+00 -0.27210610524E+01  0.48991426807E+01  0.73218645899E+01  0.47000000000E+01 0.  1.
<mgrwt>
<rscale>  2 0.54413327E+01</rscale>
<asrwt>0</asrwt>
<pdfrwt beam="1">  1       21 0.10885565E-02 0.54413327E+01</pdfrwt>
<pdfrwt beam="2">  1       21 0.13663004E-02 0.54413327E+01</pdfrwt>
<totfact> 0.16516044E+09</totfact>
</mgrwt>
</event>
<event>
 4    1  0.3992289E+006  0.6987176E+01  0.7546771E-02  0.2302289E+00
         21   -1    0    0  501  502  0.00000000000E+00  0.00000000000E+00  0.40665900360E+01  0.40665900360E+01  0.00000000000E+00 0.  1.
         21   -1    0    0  502  503 -0.00000000000E+00 -0.00000000000E+00 -0.15975976686E+02  0.15975976686E+02  0.00000000000E+00 0. -1.
          5    1    1    2  501    0  0.38614338203E+01 -0.34380171505E+01 -0.95869941729E+00  0.70526404735E+01  0.47000000000E+01 0.  1.
         -5    1    1    2    0  503 -0.38614338203E+01  0.34380171505E+01 -0.10950687233E+02  0.12989926249E+02  0.47000000000E+01 0. -1.
<mgrwt>
<rscale>  2 0.69871763E+01</rscale>
<asrwt>0</asrwt>
<pdfrwt beam="1">  1       21 0.62562925E-03 0.69871763E+01</pdfrwt>
<pdfrwt beam="2">  1       21 0.24578425E-02 0.69871763E+01</pdfrwt>
<totfact> 0.19109501E+09</totfact>
</mgrwt>
</event>
<event>
 4    1  0.3992289E+006  0.4881144E+01  0.7546771E-02  0.2588680E+00
         21   -1    0    0  501  502  0.00000000000E+00  0.00000000000E+00  0.17957369599E+01  0.17957369599E+01  0.00000000000E+00 0.  1.
         21   -1    0    0  502  503 -0.00000000000E+00 -0.00000000000E+00 -0.13544919393E+02  0.13544919393E+02  0.00000000000E+00 0.  1.
          5    1    1    2  501    0  0.66051387730E+00 -0.11398651437E+01 -0.47775601745E+01  0.68301282820E+01  0.47000000000E+01 0.  1.
         -5    1    1    2    0  503 -0.66051387730E+00  0.11398651437E+01 -0.69716222585E+01  0.85105280707E+01  0.47000000000E+01 0.  1.
<mgrwt>
<rscale>  2 0.48811444E+01</rscale>
<asrwt>0</asrwt>
<pdfrwt beam="1">  1       21 0.27626723E-03 0.48811444E+01</pdfrwt>
<pdfrwt beam="2">  1       21 0.20838337E-02 0.48811444E+01</pdfrwt>
<totfact> 0.53953939E+09</totfact>
</mgrwt>
</event>
<event>
 4    1  0.3992289E+006  0.5577511E+01  0.7546771E-02  0.2473885E+00
         21   -1    0    0  503  502  0.00000000000E+00  0.00000000000E+00  0.90347302894E-01  0.90347302894E-01  0.00000000000E+00 0.  1.
         21   -1    0    0  501  503 -0.00000000000E+00 -0.00000000000E+00 -0.34762021337E+03  0.34762021337E+03  0.00000000000E+00 0.  1.
          5    1    1    2  501    0 -0.24151657804E+01  0.17848260406E+01 -0.15683220801E+03  0.15693135473E+03  0.47000000000E+01 0. -1.
         -5    1    1    2    0  502  0.24151657804E+01 -0.17848260406E+01 -0.19069765806E+03  0.19077920594E+03  0.47000000000E+01 0. -1.
<mgrwt>
<rscale>  2 0.55775111E+01</rscale>
<asrwt>0</asrwt>
<pdfrwt beam="1">  1       21 0.13899038E-04 0.55775111E+01</pdfrwt>
<pdfrwt beam="2">  1       21 0.53482138E-01 0.55775111E+01</pdfrwt>
<totfact> 0.21430723E+09</totfact>
</mgrwt>
</event>
<event>
 4    1  0.3992289E+006  0.5079953E+01  0.7546771E-02  0.2553163E+00
         21   -1    0    0  503  502  0.00000000000E+00  0.00000000000E+00  0.66016156904E+01  0.66016156904E+01  0.00000000000E+00 0. -1.
         21   -1    0    0  501  503 -0.00000000000E+00 -0.00000000000E+00 -0.77269154355E+01  0.77269154355E+01  0.00000000000E+00 0.  1.
          5    1    1    2  501    0 -0.16478090764E+01  0.10003246980E+01 -0.55985829721E+01  0.75597655750E+01  0.47000000000E+01 0.  1.
         -5    1    1    2    0  502  0.16478090764E+01 -0.10003246980E+01  0.44732832271E+01  0.67687655509E+01  0.47000000000E+01 0. -1.
<mgrwt>
<rscale>  2 0.50799532E+01</rscale>
<asrwt>0</asrwt>
<pdfrwt beam="1">  1       21 0.10156332E-02 0.50799532E+01</pdfrwt>
<pdfrwt beam="2">  1       21 0.11887562E-02 0.50799532E+01</pdfrwt>
<totfact> 0.20711976E+09</totfact>
</mgrwt>
</event>
<event>
 4    1  0.3992289E+006  0.1486564E+02  0.7546771E-02  0.1872197E+00
         21   -1    0    0  503  502  0.00000000000E+00  0.00000000000E+00  0.69488033987E+01  0.69488033987E+01  0.00000000000E+00 0.  1.
         21   -1    0    0  501  503 -0.00000000000E+00 -0.00000000000E+00 -0.44015972109E+02  0.44015972109E+02  0.00000000000E+00 0. -1.
          5    1    1    2  501    0 -0.19056200397E+01  0.13973753112E+02 -0.31956907974E+02  0.35245299417E+02  0.47000000000E+01 0. -1.
         -5    1    1    2    0  502  0.19056200397E+01 -0.13973753112E+02 -0.51102607362E+01  0.15719476090E+02  0.47000000000E+01 0.  1.
<mgrwt>
<rscale>  2 0.14865637E+02</rscale>
<asrwt>0</asrwt>
<pdfrwt beam="1">  1       21 0.10690467E-02 0.14865637E+02</pdfrwt>
<pdfrwt beam="2">  1       21 0.67716880E-02 0.14865637E+02</pdfrwt>
<totfact> 0.29091783E+08</totfact>
</mgrwt>
</event>
<event>
 4    1  0.3992289E+006  0.5100394E+01  0.7546771E-02  0.2549646E+00
         21   -1    0    0  503  502  0.00000000000E+00  0.00000000000E+00  0.57153298578E+01  0.57153298578E+01  0.00000000000E+00 0. -1.
         21   -1    0    0  501  503 -0.00000000000E+00 -0.00000000000E+00 -0.39267344726E+02  0.39267344726E+02  0.00000000000E+00 0. -1.
          5    1    1    2  501    0 -0.19730482401E+01  0.17635172082E+00 -0.37923681996E+02  0.38265123486E+02  0.47000000000E+01 0. -1.
         -5    1    1    2    0  502  0.19730482401E+01 -0.17635172082E+00  0.43716671271E+01  0.67175510982E+01  0.47000000000E+01 0. -1.
<mgrwt>
<rscale>  2 0.51003940E+01</rscale>
<asrwt>0</asrwt>
<pdfrwt beam="1">  1       21 0.87928153E-03 0.51003940E+01</pdfrwt>
<pdfrwt beam="2">  1       21 0.60411299E-02 0.51003940E+01</pdfrwt>
<totfact> 0.24690412E+08</totfact>
</mgrwt>
</event>
<event>
 4    1  0.3992289E+006  0.6957679E+01  0.7546771E-02  0.2305282E+00
         21   -1    0    0  501  502  0.00000000000E+00  0.00000000000E+00  0.67660756352E+01  0.67660756352E+01  0.00000000000E+00 0. -1.
         21   -1    0    0  502  503 -0.00000000000E+00 -0.00000000000E+00 -0.20778335894E+02  0.20778335894E+02  0.00000000000E+00 0.  1.
          5    1    1    2  501    0 -0.10281927677E+01 -0.50261427022E+01  0.41456582342E+01  0.80991217440E+01  0.47000000000E+01 0. -1.
         -5    1    1    2    0  503  0.10281927677E+01  0.50261427022E+01 -0.18157918493E+02  0.19445289785E+02  0.47000000000E+01 0.  1.
<mgrwt>
<rscale>  2 0.69576786E+01</rscale>
<asrwt>0</asrwt>
<pdfrwt beam="1">  1       21 0.10409347E-02 0.69576786E+01</pdfrwt>
<pdfrwt beam="2">  1       21 0.31966671E-02 0.69576786E+01</pdfrwt>
<totfact> 0.63010469E+08</totfact>
</mgrwt>
</event>
<event>
 4    1  0.3992289E+006  0.7891457E+01  0.7546771E-02  0.2219520E+00
         21   -1    0    0  501  502  0.00000000000E+00  0.00000000000E+00  0.17730903115E+03  0.17730903115E+03  0.00000000000E+00 0.  1.
         21   -1    0    0  502  503 -0.00000000000E+00 -0.00000000000E+00 -0.35629799314E+00  0.35629799314E+00  0.00000000000E+00 0. -1.
          5    1    1    2  501    0 -0.46735169917E+01  0.42829111272E+01  0.99077802156E+02  0.99391578963E+02  0.47000000000E+01 0.  1.
         -5    1    1    2    0  503  0.46735169917E+01 -0.42829111272E+01  0.77874931000E+02  0.78273750178E+02  0.47000000000E+01 0.  1.
<mgrwt>
<rscale>  2 0.78914567E+01</rscale>
<asrwt>0</asrwt>
<pdfrwt beam="1">  1       21 0.27278242E-01 0.78914567E+01</pdfrwt>
<pdfrwt beam="2">  1       21 0.54815217E-04 0.78914567E+01</pdfrwt>
<totfact> 0.14203945E+09</totfact>
</mgrwt>
</event>
<event>
 4    1  0.3992289E+006  0.9963790E+01  0.7546771E-02  0.2077054E+00
         21   -1    0    0  503  502  0.00000000000E+00  0.00000000000E+00  0.30788231677E+01  0.30788231677E+01  0.00000000000E+00 0.  1.
         21   -1    0    0  501  503 -0.00000000000E+00 -0.00000000000E+00 -0.41858770869E+02  0.41858770869E+02  0.00000000000E+00 0.  1.
          5    1    1    2  501    0  0.46554275540E+01  0.74507783402E+01 -0.30157852765E+02  0.31761189949E+02  0.47000000000E+01 0.  1.
         -5    1    1    2    0  502 -0.46554275540E+01 -0.74507783402E+01 -0.86220949359E+01  0.13176404087E+02  0.47000000000E+01 0.  1.
<mgrwt>
<rscale>  2 0.99637896E+01</rscale>
<asrwt>0</asrwt>
<pdfrwt beam="1">  1       21 0.47366512E-03 0.99637896E+01</pdfrwt>
<pdfrwt beam="2">  1       21 0.64398107E-02 0.99637896E+01</pdfrwt>
<totfact> 0.84535016E+08</totfact>
</mgrwt>
</event>
<event>
 4    1  0.3992289E+006  0.6027942E+01  0.7546771E-02  0.2411801E+00
         21   -1    0    0  501  502  0.00000000000E+00  0.00000000000E+00  0.23415195279E+02  0.23415195279E+02  0.00000000000E+00 0.  1.
         21   -1    0    0  502  503 -0.00000000000E+00 -0.00000000000E+00 -0.16932347672E+01  0.16932347672E+01  0.00000000000E+00 0. -1.
          5    1    1    2  501    0  0.24827653042E+01 -0.28428787325E+01  0.14489119522E+02  0.15693013336E+02  0.47000000000E+01 0.  1.
         -5    1    1    2    0  503 -0.24827653042E+01  0.28428787325E+01  0.72328409904E+01  0.94154167107E+01  0.47000000000E+01 0. -1.
<mgrwt>
<rscale>  2 0.60279419E+01</rscale>
<asrwt>0</asrwt>
<pdfrwt beam="1">  1       21 0.36023375E-02 0.60279419E+01</pdfrwt>
<pdfrwt beam="2">  1       21 0.26049767E-03 0.60279419E+01</pdfrwt>
<totfact> 0.32668495E+09</totfact>
</mgrwt>
</event>
<event>
 4    1  0.3992289E+006  0.8016799E+01  0.7546771E-02  0.2209254E+00
         21   -1    0    0  503  502  0.00000000000E+00  0.00000000000E+00  0.38379021793E+00  0.38379021793E+00  0.00000000000E+00 0.  1.
         21   -1    0    0  501  503 -0.00000000000E+00 -0.00000000000E+00 -0.28280189224E+03  0.28280189224E+03  0.00000000000E+00 0. -1.
          5    1    1    2  501    0 -0.56113683720E+01 -0.32698026042E+01 -0.23163558062E+03  0.23177426793E+03  0.47000000000E+01 0. -1.
         -5    1    1    2    0  502  0.56113683720E+01  0.32698026042E+01 -0.50782521395E+02  0.51411414523E+02  0.47000000000E+01 0.  1.
<mgrwt>
<rscale>  2 0.80167989E+01</rscale>
<asrwt>0</asrwt>
<pdfrwt beam="1">  1       21 0.59044453E-04 0.80167989E+01</pdfrwt>
<pdfrwt beam="2">  1       21 0.43508128E-01 0.80167989E+01</pdfrwt>
<totfact> 0.57339155E+08</totfact>
</mgrwt>
</event>
<event>
 4    1  0.3992289E+006  0.7757901E+01  0.7546771E-02  0.2230753E+00
         21   -1    0    0  501  502  0.00000000000E+00  0.00000000000E+00  0.27779542250E+02  0.27779542250E+02  0.00000000000E+00 0. -1.
         21   -1    0    0  502  503 -0.00000000000E+00 -0.00000000000E+00 -0.21666781275E+01  0.21666781275E+01  0.00000000000E+00 0.  1.
          5    1    1    2  501    0  0.10160573485E+01  0.60879104564E+01  0.12679870174E+02  0.14864862391E+02  0.47000000000E+01 0. -1.
         -5    1    1    2    0  503 -0.10160573485E+01 -0.60879104564E+01  0.12932993948E+02  0.15081357987E+02  0.47000000000E+01 0.  1.
<mgrwt>
<rscale>  2 0.77579009E+01</rscale>
<asrwt>0</asrwt>
<pdfrwt beam="1">  1       21 0.42737755E-02 0.77579009E+01</pdfrwt>
<pdfrwt beam="2">  1       21 0.33333512E-03 0.77579009E+01</pdfrwt>
<totfact> 0.22065710E+09</totfact>
</mgrwt>
</event>
<event>
 4    1  0.3992289E+006  0.5592108E+01  0.7546771E-02  0.2471741E+00
         21   -1    0    0  501  502  0.00000000000E+00  0.00000000000E+00  0.85956485298E+00  0.85956485298E+00  0.00000000000E+00 0.  1.
         21   -1    0    0  502  503 -0.00000000000E+00 -0.00000000000E+00 -0.30295979992E+03  0.30295979992E+03  0.00000000000E+00 0.  1.
          5    1    1    2  501    0 -0.30222442957E+01  0.21842568176E+00 -0.85530563810E+01  0.10218925766E+02  0.47000000000E+01 0.  1.
         -5    1    1    2    0  503  0.30222442957E+01 -0.21842568176E+00 -0.29354717868E+03  0.29360043900E+03  0.47000000000E+01 0.  1.
<mgrwt>
<rscale>  2 0.55921079E+01</rscale>
<asrwt>0</asrwt>
<pdfrwt beam="1">  1       21 0.13224062E-03 0.55921079E+01</pdfrwt>
<pdfrwt beam="2">  1       21 0.46609244E-01 0.55921079E+01</pdfrwt>
<totfact> 0.13642214E+08</totfact>
</mgrwt>
</event>
<event>
 4    1  0.3992289E+006  0.4983971E+01  0.7546771E-02  0.2570005E+00
         21   -1    0    0  503  502  0.00000000000E+00  0.00000000000E+00  0.30004082354E+01  0.30004082354E+01  0.00000000000E+00 0. -1.
         21   -1    0    0  501  503 -0.00000000000E+00 -0.00000000000E+00 -0.10490824348E+02  0.10490824348E+02  0.00000000000E+00 0. -1.
          5    1    1    2  501    0  0.16551187226E+01  0.10268536510E+00 -0.68426687514E+01  0.84653457054E+01  0.47000000000E+01 0.  1.
         -5    1    1    2    0  502 -0.16551187226E+01 -0.10268536510E+00 -0.64774736167E+00  0.50258868784E+01  0.47000000000E+01 0.  1.
<mgrwt>
<rscale>  2 0.49839705E+01</rscale>
<asrwt>0</asrwt>
<pdfrwt beam="1">  1       21 0.46160128E-03 0.49839705E+01</pdfrwt>
<pdfrwt beam="2">  1       21 0.16139729E-02 0.49839705E+01</pdfrwt>
<totfact> 0.39343631E+09</totfact>
</mgrwt>
</event>
<event>
 4    1  0.3992289E+006  0.5522603E+01  0.7546771E-02  0.2482034E+00
         21   -1    0    0  501  502  0.00000000000E+00  0.00000000000E+00  0.55174037393E+03  0.55174037393E+03  0.00000000000E+00 0.  1.
         21   -1    0    0  502  503 -0.00000000000E+00 -0.00000000000E+00 -0.57376402199E-01  0.57376402199E-01  0.00000000000E+00 0.  1.
          5    1    1    2  501    0 -0.28916378067E+01 -0.21810997701E+00  0.22307956040E+03  0.22314790926E+03  0.47000000000E+01 0.  1.
         -5    1    1    2    0  503  0.28916378067E+01  0.21810997701E+00  0.32860343713E+03  0.32864984107E+03  0.47000000000E+01 0.  1.
<mgrwt>
<rscale>  2 0.55226028E+01</rscale>
<asrwt>0</asrwt>
<pdfrwt beam="1">  1       21 0.84878886E-01 0.55226028E+01</pdfrwt>
<pdfrwt beam="2">  1       21 0.88275806E-05 0.55226028E+01</pdfrwt>
<totfact> 0.16321741E+09</totfact>
</mgrwt>
</event>
<event>
 4    1  0.3992289E+006  0.5122304E+01  0.7546771E-02  0.2545904E+00
         21   -1    0    0  501  502  0.00000000000E+00  0.00000000000E+00  0.47085342565E+01  0.47085342565E+01  0.00000000000E+00 0.  1.
         21   -1    0    0  502  503 -0.00000000000E+00 -0.00000000000E+00 -0.67982203445E+01  0.67982203445E+01  0.00000000000E+00 0.  1.
          5    1    1    2  501    0 -0.17864563345E+01  0.97804643112E+00  0.13982074917E+01  0.53097067006E+01  0.47000000000E+01 0.  1.
         -5    1    1    2    0  503  0.17864563345E+01 -0.97804643112E+00 -0.34878935798E+01  0.61970479004E+01  0.47000000000E+01 0.  1.
<mgrwt>
<rscale>  2 0.51223043E+01</rscale>
<asrwt>0</asrwt>
<pdfrwt beam="1">  1       21 0.72438988E-03 0.51223043E+01</pdfrwt>
<pdfrwt beam="2">  1       21 0.10458801E-02 0.51223043E+01</pdfrwt>
<totfact> 0.39992826E+09</totfact>
</mgrwt>
</event>
<event>
 4    1  0.3992289E+006  0.1041095E+02  0.7546771E-02  0.2052327E+00
         21   -1    0    0  501  502  0.00000000000E+00  0.00000000000E+00  0.70618669152E+01  0.70618669152E+01  0.00000000000E+00 0.  1.
         21   -1    0    0  502  503 -0.00000000000E+00 -0.00000000000E+00 -0.24604599116E+02  0.24604599116E+02  0.00000000000E+00 0. -1.
          5    1    1    2  501    0  0.88442241177E+01  0.28421195396E+01  0.93997430713E+00  0.10453300695E+02  0.47000000000E+01 0.  1.
         -5    1    1    2    0  503 -0.88442241177E+01 -0.28421195396E+01 -0.18482706508E+02  0.21213165336E+02  0.47000000000E+01 0. -1.
<mgrwt>
<rscale>  2 0.10410953E+02</rscale>
<asrwt>0</asrwt>
<pdfrwt beam="1">  1       21 0.10864411E-02 0.10410953E+02</pdfrwt>
<pdfrwt beam="2">  1       21 0.37853229E-02 0.10410953E+02</pdfrwt>
<totfact> 0.59118330E+08</totfact>
</mgrwt>
</event>
<event>
 4    1  0.3992289E+006  0.5741552E+01  0.7546771E-02  0.2450326E+00
         21   -1    0    0  501  502  0.00000000000E+00  0.00000000000E+00  0.83576270961E+02  0.83576270961E+02  0.00000000000E+00 0.  1.
         21   -1    0    0  502  503 -0.00000000000E+00 -0.00000000000E+00 -0.43437060646E+00  0.43437060646E+00  0.00000000000E+00 0. -1.
          5    1    1    2  501    0 -0.32497134774E+01 -0.56105176023E+00  0.54307551686E+02  0.54610215042E+02  0.47000000000E+01 0.  1.
         -5    1    1    2    0  503  0.32497134774E+01  0.56105176023E+00  0.28834348668E+02  0.29400426526E+02  0.47000000000E+01 0. -1.
<mgrwt>
<rscale>  2 0.57415518E+01</rscale>
<asrwt>0</asrwt>
<pdfrwt beam="1">  1       21 0.12857875E-01 0.57415518E+01</pdfrwt>
<pdfrwt beam="2">  1       21 0.66826314E-04 0.57415518E+01</pdfrwt>
<totfact> 0.28977015E+09</totfact>
</mgrwt>
</event>
<event>
 4    1  0.3992289E+006  0.5007717E+01  0.7546771E-02  0.2565787E+00
         21   -1    0    0  503  502  0.00000000000E+00  0.00000000000E+00  0.10534733241E+02  0.10534733241E+02  0.00000000000E+00 0.  1.
         21   -1    0    0  501  503 -0.00000000000E+00 -0.00000000000E+00 -0.37245765210E+01  0.37245765210E+01  0.00000000000E+00 0.  1.
          5    1    1    2  501    0  0.16690434205E+01 -0.44891318245E+00 -0.87796866771E+00  0.50840985402E+01  0.47000000000E+01 0.  1.
         -5    1    1    2    0  502 -0.16690434205E+01  0.44891318245E+00  0.76881253872E+01  0.91752112213E+01  0.47000000000E+01 0.  1.
<mgrwt>
<rscale>  2 0.50077169E+01</rscale>
<asrwt>0</asrwt>
<pdfrwt beam="1">  1       21 0.16207282E-02 0.50077169E+01</pdfrwt>
<pdfrwt beam="2">  1       21 0.57301178E-03 0.50077169E+01</pdfrwt>
<totfact> 0.29203081E+09</totfact>
</mgrwt>
</event>
<event>
 4    1  0.3992289E+006  0.5552800E+01  0.7546771E-02  0.2477535E+00
         21   -1    0    0  501  502  0.00000000000E+00  0.00000000000E+00  0.13188734623E+04  0.13188734623E+04  0.00000000000E+00 0.  1.
         21   -1    0    0  502  503 -0.00000000000E+00 -0.00000000000E+00 -0.26739593987E-01  0.26739593987E-01  0.00000000000E+00 0. -1.
          5    1    1    2  501    0  0.18973317944E+01 -0.22679767082E+01  0.89321556129E+03  0.89323282100E+03  0.47000000000E+01 0.  1.
         -5    1    1    2    0  503 -0.18973317944E+01  0.22679767082E+01  0.42563116140E+03  0.42566738088E+03  0.47000000000E+01 0.  1.
<mgrwt>
<rscale>  2 0.55527999E+01</rscale>
<asrwt>0</asrwt>
<pdfrwt beam="1">  1       21 0.20285152E+00 0.55527999E+01</pdfrwt>
<pdfrwt beam="2">  1       21 0.41148400E-05 0.55527999E+01</pdfrwt>
<totfact> 0.73787589E+08</totfact>
</mgrwt>
</event>
<event>
 4    1  0.3992289E+006  0.6266867E+01  0.7546771E-02  0.2381933E+00
         21   -1    0    0  503  502  0.00000000000E+00  0.00000000000E+00  0.11543741314E+02  0.11543741314E+02  0.00000000000E+00 0.  1.
         21   -1    0    0  501  503 -0.00000000000E+00 -0.00000000000E+00 -0.45648878767E+01  0.45648878767E+01  0.00000000000E+00 0.  1.
          5    1    1    2  501    0  0.28100165839E+01  0.30475276398E+01 -0.57550423355E+00  0.62932362930E+01  0.47000000000E+01 0.  1.
         -5    1    1    2    0  502 -0.28100165839E+01 -0.30475276398E+01  0.75543576711E+01  0.98153928979E+01  0.47000000000E+01 0.  1.
<mgrwt>
<rscale>  2 0.62668667E+01</rscale>
<asrwt>0</asrwt>
<pdfrwt beam="1">  1       21 0.17759602E-02 0.62668667E+01</pdfrwt>
<pdfrwt beam="2">  1       21 0.70229045E-03 0.62668667E+01</pdfrwt>
<totfact> 0.23808282E+09</totfact>
</mgrwt>
</event>
<event>
 4    1  0.3992289E+006  0.5494220E+01  0.7546771E-02  0.2486301E+00
         21   -1    0    0  501  502  0.00000000000E+00  0.00000000000E+00  0.20385152363E+00  0.20385152363E+00  0.00000000000E+00 0.  1.
         21   -1    0    0  502  503 -0.00000000000E+00 -0.00000000000E+00 -0.27717217481E+03  0.27717217481E+03  0.00000000000E+00 0. -1.
          5    1    1    2  501    0 -0.27084477957E+01 -0.87221770348E+00 -0.43835803679E+02  0.44178774738E+02  0.47000000000E+01 0.  1.
         -5    1    1    2    0  503  0.27084477957E+01  0.87221770348E+00 -0.23313251961E+03  0.23319725159E+03  0.47000000000E+01 0. -1.
<mgrwt>
<rscale>  2 0.54942200E+01</rscale>
<asrwt>0</asrwt>
<pdfrwt beam="1">  1       21 0.31361806E-04 0.54942200E+01</pdfrwt>
<pdfrwt beam="2">  1       21 0.42641828E-01 0.54942200E+01</pdfrwt>
<totfact> 0.10742848E+09</totfact>
</mgrwt>
</event>
<event>
 4    1  0.3992289E+006  0.5067430E+01  0.7546771E-02  0.2555329E+00
         21   -1    0    0  503  502  0.00000000000E+00  0.00000000000E+00  0.19893246735E+01  0.19893246735E+01  0.00000000000E+00 0.  1.
         21   -1    0    0  501  503 -0.00000000000E+00 -0.00000000000E+00 -0.45336599632E+02  0.45336599632E+02  0.00000000000E+00 0.  1.
          5    1    1    2  501    0 -0.17036182862E+01 -0.82857078309E+00 -0.41686378435E+02  0.41993249360E+02  0.47000000000E+01 0.  1.
         -5    1    1    2    0  502  0.17036182862E+01  0.82857078309E+00 -0.16608965233E+01  0.53326749450E+01  0.47000000000E+01 0.  1.
<mgrwt>
<rscale>  2 0.50674298E+01</rscale>
<asrwt>0</asrwt>
<pdfrwt beam="1">  1       21 0.30604999E-03 0.50674298E+01</pdfrwt>
<pdfrwt beam="2">  1       21 0.69748606E-02 0.50674298E+01</pdfrwt>
<totfact> 0.84784564E+08</totfact>
</mgrwt>
</event>
<event>
 4    1  0.3992289E+006  0.5310110E+01  0.7546771E-02  0.2514916E+00
         21   -1    0    0  503  502  0.00000000000E+00  0.00000000000E+00  0.27046851198E+01  0.27046851198E+01  0.00000000000E+00 0. -1.
         21   -1    0    0  501  503 -0.00000000000E+00 -0.00000000000E+00 -0.15004478297E+02  0.15004478297E+02  0.00000000000E+00 0. -1.
          5    1    1    2  501    0 -0.87502271910E+00  0.23111912101E+01 -0.11041478686E+02  0.12252000699E+02  0.47000000000E+01 0. -1.
         -5    1    1    2    0  502  0.87502271910E+00 -0.23111912101E+01 -0.12583144919E+01  0.54571627179E+01  0.47000000000E+01 0. -1.
<mgrwt>
<rscale>  2 0.53101101E+01</rscale>
<asrwt>0</asrwt>
<pdfrwt beam="1">  1       21 0.41610540E-03 0.53101101E+01</pdfrwt>
<pdfrwt beam="2">  1       21 0.23083813E-02 0.53101101E+01</pdfrwt>
<totfact> 0.29113387E+09</totfact>
</mgrwt>
</event>
<event>
 4    1  0.3992289E+006  0.5752852E+01  0.7546771E-02  0.2448745E+00
         21   -1    0    0  503  502  0.00000000000E+00  0.00000000000E+00  0.17618440050E+01  0.17618440050E+01  0.00000000000E+00 0.  1.
         21   -1    0    0  501  503 -0.00000000000E+00 -0.00000000000E+00 -0.60123672455E+02  0.60123672455E+02  0.00000000000E+00 0. -1.
          5    1    1    2  501    0  0.21999731508E+01  0.24830278097E+01 -0.54838589918E+02  0.55139516258E+02  0.47000000000E+01 0. -1.
         -5    1    1    2    0  502 -0.21999731508E+01 -0.24830278097E+01 -0.35232385311E+01  0.67460002012E+01  0.47000000000E+01 0.  1.
<mgrwt>
<rscale>  2 0.57528522E+01</rscale>
<asrwt>0</asrwt>
<pdfrwt beam="1">  1       21 0.27105295E-03 0.57528522E+01</pdfrwt>
<pdfrwt beam="2">  1       21 0.92497948E-02 0.57528522E+01</pdfrwt>
<totfact> 0.72932096E+08</totfact>
</mgrwt>
</event>
<event>
 4    1  0.3992289E+006  0.6647296E+01  0.7546771E-02  0.2338092E+00
         21   -1    0    0  501  502  0.00000000000E+00  0.00000000000E+00  0.33342317809E+00  0.33342317809E+00  0.00000000000E+00 0. -1.
         21   -1    0    0  502  503 -0.00000000000E+00 -0.00000000000E+00 -0.14617315127E+03  0.14617315127E+03  0.00000000000E+00 0. -1.
          5    1    1    2  501    0 -0.82059380114E+00  0.46285165148E+01 -0.95304382510E+02  0.95535919239E+02  0.47000000000E+01 0. -1.
         -5    1    1    2    0  503  0.82059380114E+00 -0.46285165148E+01 -0.50535345582E+02  0.50970655208E+02  0.47000000000E+01 0. -1.
<mgrwt>
<rscale>  2 0.66472956E+01</rscale>
<asrwt>0</asrwt>
<pdfrwt beam="1">  1       21 0.51295793E-04 0.66472956E+01</pdfrwt>
<pdfrwt beam="2">  1       21 0.22488212E-01 0.66472956E+01</pdfrwt>
<totfact> 0.19035660E+09</totfact>
</mgrwt>
</event>
<event>
 4    1  0.3992289E+006  0.9145174E+01  0.7546771E-02  0.2127172E+00
         21   -1    0    0  503  502  0.00000000000E+00  0.00000000000E+00  0.11680196378E+02  0.11680196378E+02  0.00000000000E+00 0. -1.
         21   -1    0    0  501  503 -0.00000000000E+00 -0.00000000000E+00 -0.18947419438E+02  0.18947419438E+02  0.00000000000E+00 0.  1.
          5    1    1    2  501    0  0.22743100975E+01 -0.75081099690E+01 -0.15712062126E+02  0.18179744167E+02  0.47000000000E+01 0.  1.
         -5    1    1    2    0  502 -0.22743100975E+01  0.75081099690E+01  0.84448390662E+01  0.12447871649E+02  0.47000000000E+01 0. -1.
<mgrwt>
<rscale>  2 0.91451737E+01</rscale>
<asrwt>0</asrwt>
<pdfrwt beam="1">  1       21 0.17969533E-02 0.91451737E+01</pdfrwt>
<pdfrwt beam="2">  1       21 0.29149876E-02 0.91451737E+01</pdfrwt>
<totfact> 0.39039479E+08</totfact>
</mgrwt>
</event>
<event>
 4    1  0.3992289E+006  0.5996506E+01  0.7546771E-02  0.2415878E+00
         21   -1    0    0  503  502  0.00000000000E+00  0.00000000000E+00  0.24105268792E+03  0.24105268792E+03  0.00000000000E+00 0.  1.
         21   -1    0    0  501  503 -0.00000000000E+00 -0.00000000000E+00 -0.14952326270E+00  0.14952326270E+00  0.00000000000E+00 0. -1.
          5    1    1    2  501    0  0.18835575767E+01 -0.32125223960E+01  0.11459853270E+03  0.11475531267E+03  0.47000000000E+01 0. -1.
         -5    1    1    2    0  502 -0.18835575767E+01  0.32125223960E+01  0.12630463196E+03  0.12644689851E+03  0.47000000000E+01 0. -1.
<mgrwt>
<rscale>  2 0.59965064E+01</rscale>
<asrwt>0</asrwt>
<pdfrwt beam="1">  1       21 0.37084718E-01 0.59965064E+01</pdfrwt>
<pdfrwt beam="2">  1       21 0.23003772E-04 0.59965064E+01</pdfrwt>
<totfact> 0.22165687E+09</totfact>
</mgrwt>
</event>
<event>
 4    1  0.3992289E+006  0.5748288E+01  0.7546771E-02  0.2449383E+00
         21   -1    0    0  503  502  0.00000000000E+00  0.00000000000E+00  0.65947794957E+02  0.65947794957E+02  0.00000000000E+00 0. -1.
         21   -1    0    0  501  503 -0.00000000000E+00 -0.00000000000E+00 -0.15538446572E+01  0.15538446572E+01  0.00000000000E+00 0.  1.
          5    1    1    2  501    0 -0.20384721280E+01 -0.26071906578E+01  0.44156218169E+01  0.72484845156E+01  0.47000000000E+01 0.  1.
         -5    1    1    2    0  502  0.20384721280E+01  0.26071906578E+01  0.59978328483E+02  0.60253155098E+02  0.47000000000E+01 0. -1.
<mgrwt>
<rscale>  2 0.57482877E+01</rscale>
<asrwt>0</asrwt>
<pdfrwt beam="1">  1       21 0.10145812E-01 0.57482877E+01</pdfrwt>
<pdfrwt beam="2">  1       21 0.23905308E-03 0.57482877E+01</pdfrwt>
<totfact> 0.75126510E+08</totfact>
</mgrwt>
</event>
<event>
 4    1  0.3992289E+006  0.8208193E+01  0.7546771E-02  0.2194066E+00
         21   -1    0    0  501  502  0.00000000000E+00  0.00000000000E+00  0.11104534153E+03  0.11104534153E+03  0.00000000000E+00 0.  1.
         21   -1    0    0  502  503 -0.00000000000E+00 -0.00000000000E+00 -0.72516911420E+01  0.72516911420E+01  0.00000000000E+00 0.  1.
          5    1    1    2  501    0 -0.66006957674E+01 -0.13096733746E+01  0.10851690296E+03  0.10882689308E+03  0.47000000000E+01 0.  1.
         -5    1    1    2    0  503  0.66006957674E+01  0.13096733746E+01 -0.47232525760E+01  0.94701395902E+01  0.47000000000E+01 0.  1.
<mgrwt>
<rscale>  2 0.82081928E+01</rscale>
<asrwt>0</asrwt>
<pdfrwt beam="1">  1       21 0.17083898E-01 0.82081928E+01</pdfrwt>
<pdfrwt beam="2">  1       21 0.11156449E-02 0.82081928E+01</pdfrwt>
<totfact> 0.47674902E+07</totfact>
</mgrwt>
</event>
<event>
 4    1  0.3992289E+006  0.8550899E+01  0.7546771E-02  0.2168244E+00
         21   -1    0    0  503  502  0.00000000000E+00  0.00000000000E+00  0.11657779755E+03  0.11657779755E+03  0.00000000000E+00 0. -1.
         21   -1    0    0  501  503 -0.00000000000E+00 -0.00000000000E+00 -0.21493295493E+01  0.21493295493E+01  0.00000000000E+00 0.  1.
          5    1    1    2  501    0  0.54488734355E+01 -0.46192695029E+01  0.72575127373E+01  0.11215585744E+02  0.47000000000E+01 0.  1.
         -5    1    1    2    0  502 -0.54488734355E+01  0.46192695029E+01  0.10717095526E+03  0.10751154135E+03  0.47000000000E+01 0. -1.
<mgrwt>
<rscale>  2 0.85508989E+01</rscale>
<asrwt>0</asrwt>
<pdfrwt beam="1">  1       21 0.17935041E-01 0.85508989E+01</pdfrwt>
<pdfrwt beam="2">  1       21 0.33066618E-03 0.85508989E+01</pdfrwt>
<totfact> 0.25315273E+08</totfact>
</mgrwt>
</event>
<event>
 4    1  0.3992289E+006  0.8406438E+01  0.7546771E-02  0.2178923E+00
         21   -1    0    0  501  502  0.00000000000E+00  0.00000000000E+00  0.27953454892E+01  0.27953454892E+01  0.00000000000E+00 0. -1.
         21   -1    0    0  502  503 -0.00000000000E+00 -0.00000000000E+00 -0.25286805379E+02  0.25286805379E+02  0.00000000000E+00 0. -1.
          5    1    1    2  501    0 -0.29526072189E+01  0.63135019064E+01 -0.11026946205E+02  0.13865847912E+02  0.47000000000E+01 0. -1.
         -5    1    1    2    0  503  0.29526072189E+01 -0.63135019064E+01 -0.11464513685E+02  0.14216302956E+02  0.47000000000E+01 0. -1.
<mgrwt>
<rscale>  2 0.84064378E+01</rscale>
<asrwt>0</asrwt>
<pdfrwt beam="1">  1       21 0.43005316E-03 0.84064378E+01</pdfrwt>
<pdfrwt beam="2">  1       21 0.38902776E-02 0.84064378E+01</pdfrwt>
<totfact> 0.18791581E+09</totfact>
</mgrwt>
</event>
<event>
 4    1  0.3992289E+006  0.7429488E+01  0.7546771E-02  0.2259756E+00
         21   -1    0    0  503  502  0.00000000000E+00  0.00000000000E+00  0.27156106977E+00  0.27156106977E+00  0.00000000000E+00 0.  1.
         21   -1    0    0  501  503 -0.00000000000E+00 -0.00000000000E+00 -0.20464554153E+03  0.20464554153E+03  0.00000000000E+00 0.  1.
          5    1    1    2  501    0 -0.51506506132E+01  0.25647784880E+01 -0.93754040570E+02  0.94047952735E+02  0.47000000000E+01 0.  1.
         -5    1    1    2    0  502  0.51506506132E+01 -0.25647784880E+01 -0.11061993989E+03  0.11086914986E+03  0.47000000000E+01 0.  1.
<mgrwt>
<rscale>  2 0.74294879E+01</rscale>
<asrwt>0</asrwt>
<pdfrwt beam="1">  1       21 0.41778818E-04 0.74294879E+01</pdfrwt>
<pdfrwt beam="2">  1       21 0.31483785E-01 0.74294879E+01</pdfrwt>
<totfact> 0.15420152E+09</totfact>
</mgrwt>
</event>
<event>
 4    1  0.3992289E+006  0.8069237E+01  0.7546771E-02  0.2205035E+00
         21   -1    0    0  501  502  0.00000000000E+00  0.00000000000E+00  0.77572032463E+00  0.77572032463E+00  0.00000000000E+00 0.  1.
         21   -1    0    0  502  503 -0.00000000000E+00 -0.00000000000E+00 -0.18297891695E+03  0.18297891695E+03  0.00000000000E+00 0. -1.
          5    1    1    2  501    0  0.37952412220E+01 -0.53496481769E+01 -0.23506593026E+02  0.24853018071E+02  0.47000000000E+01 0.  1.
         -5    1    1    2    0  503 -0.37952412220E+01  0.53496481769E+01 -0.15869660360E+03  0.15890161920E+03  0.47000000000E+01 0. -1.
<mgrwt>
<rscale>  2 0.80692374E+01</rscale>
<asrwt>0</asrwt>
<pdfrwt beam="1">  1       21 0.11934160E-03 0.80692374E+01</pdfrwt>
<pdfrwt beam="2">  1       21 0.28150601E-01 0.80692374E+01</pdfrwt>
<totfact> 0.47327804E+08</totfact>
</mgrwt>
</event>
<event>
 4    1  0.3992289E+006  0.4845320E+01  0.7546771E-02  0.2595348E+00
         21   -1    0    0  503  502  0.00000000000E+00  0.00000000000E+00  0.11297073565E+03  0.11297073565E+03  0.00000000000E+00 0. -1.
         21   -1    0    0  501  503 -0.00000000000E+00 -0.00000000000E+00 -0.19219941086E+01  0.19219941086E+01  0.00000000000E+00 0. -1.
          5    1    1    2  501    0  0.31816349521E+00 -0.11339723742E+01  0.12725267751E+01  0.50096352910E+01  0.47000000000E+01 0. -1.
         -5    1    1    2    0  502 -0.31816349521E+00  0.11339723742E+01  0.10977621476E+03  0.10988309447E+03  0.47000000000E+01 0. -1.
<mgrwt>
<rscale>  2 0.48453195E+01</rscale>
<asrwt>0</asrwt>
<pdfrwt beam="1">  1       21 0.17380108E-01 0.48453195E+01</pdfrwt>
<pdfrwt beam="2">  1       21 0.29569149E-03 0.48453195E+01</pdfrwt>
<totfact> 0.21282010E+08</totfact>
</mgrwt>
</event>
<event>
 4    1  0.3992289E+006  0.5298683E+01  0.7546771E-02  0.2516747E+00
         21   -1    0    0  501  502  0.00000000000E+00  0.00000000000E+00  0.34759899821E+02  0.34759899821E+02  0.00000000000E+00 0. -1.
         21   -1    0    0  502  503 -0.00000000000E+00 -0.00000000000E+00 -0.12885985104E+01  0.12885985104E+01  0.00000000000E+00 0. -1.
          5    1    1    2  501    0 -0.19404624682E+01  0.14901819855E+01  0.27746454710E+02  0.28247863386E+02  0.47000000000E+01 0. -1.
         -5    1    1    2    0  503  0.19404624682E+01 -0.14901819855E+01  0.57248466010E+01  0.78006349450E+01  0.47000000000E+01 0. -1.
<mgrwt>
<rscale>  2 0.52986826E+01</rscale>
<asrwt>0</asrwt>
<pdfrwt beam="1">  1       21 0.53476762E-02 0.52986826E+01</pdfrwt>
<pdfrwt beam="2">  1       21 0.19824595E-03 0.52986826E+01</pdfrwt>
<totfact> 0.23585797E+09</totfact>
</mgrwt>
</event>
<event>
 4    1  0.3992289E+006  0.6050652E+01  0.7546771E-02  0.2408877E+00
         21   -1    0    0  503  502  0.00000000000E+00  0.00000000000E+00  0.17383251471E+01  0.17383251471E+01  0.00000000000E+00 0. -1.
         21   -1    0    0  501  503 -0.00000000000E+00 -0.00000000000E+00 -0.10240444055E+03  0.10240444055E+03  0.00000000000E+00 0. -1.
          5    1    1    2  501    0  0.34807462657E+00  0.37946319599E+01 -0.96742005276E+02  0.96931037199E+02  0.47000000000E+01 0. -1.
         -5    1    1    2    0  502 -0.34807462657E+00 -0.37946319599E+01 -0.39241101292E+01  0.72117285004E+01  0.47000000000E+01 0. -1.
<mgrwt>
<rscale>  2 0.60506518E+01</rscale>
<asrwt>0</asrwt>
<pdfrwt beam="1">  1       21 0.26743464E-03 0.60506518E+01</pdfrwt>
<pdfrwt beam="2">  1       21 0.15754529E-01 0.60506518E+01</pdfrwt>
<totfact> 0.33763726E+08</totfact>
</mgrwt>
</event>
<event>
 4    1  0.3992289E+006  0.5837322E+01  0.7546771E-02  0.2437090E+00
         21   -1    0    0  503  502  0.00000000000E+00  0.00000000000E+00  0.41933485044E+00  0.41933485044E+00  0.00000000000E+00 0.  1.
         21   -1    0    0  501  503 -0.00000000000E+00 -0.00000000000E+00 -0.90867631955E+02  0.90867631955E+02  0.00000000000E+00 0.  1.
          5    1    1    2  501    0  0.34029601124E+01  0.63576031161E+00 -0.60067316951E+02  0.60350284957E+02  0.47000000000E+01 0.  1.
         -5    1    1    2    0  502 -0.34029601124E+01 -0.63576031161E+00 -0.30380980154E+02  0.30936681849E+02  0.47000000000E+01 0.  1.
<mgrwt>
<rscale>  2 0.58373220E+01</rscale>
<asrwt>0</asrwt>
<pdfrwt beam="1">  1       21 0.64513072E-04 0.58373220E+01</pdfrwt>
<pdfrwt beam="2">  1       21 0.13979632E-01 0.58373220E+01</pdfrwt>
<totfact> 0.27040581E+09</totfact>
</mgrwt>
</event>
<event>
 4    1  0.3992289E+006  0.4797924E+01  0.7546771E-02  0.2604301E+00
         21   -1    0    0  503  502  0.00000000000E+00  0.00000000000E+00  0.68742780677E+01  0.68742780677E+01  0.00000000000E+00 0. -1.
         21   -1    0    0  501  503 -0.00000000000E+00 -0.00000000000E+00 -0.33560423697E+01  0.33560423697E+01  0.00000000000E+00 0. -1.
          5    1    1    2  501    0  0.80658269353E+00  0.52867598460E+00  0.19979497324E+01  0.51972951688E+01  0.47000000000E+01 0. -1.
         -5    1    1    2    0  502 -0.80658269353E+00 -0.52867598460E+00  0.15202859656E+01  0.50330252687E+01  0.47000000000E+01 0. -1.
<mgrwt>
<rscale>  2 0.47979239E+01</rscale>
<asrwt>0</asrwt>
<pdfrwt beam="1">  1       21 0.10575812E-02 0.47979239E+01</pdfrwt>
<pdfrwt beam="2">  1       21 0.51631421E-03 0.47979239E+01</pdfrwt>
<totfact> 0.58561302E+09</totfact>
</mgrwt>
</event>
<event>
 4    1  0.3992289E+006  0.7221653E+01  0.7546771E-02  0.2279212E+00
         21   -1    0    0  501  502  0.00000000000E+00  0.00000000000E+00  0.41498984002E+03  0.41498984002E+03  0.00000000000E+00 0.  1.
         21   -1    0    0  502  503 -0.00000000000E+00 -0.00000000000E+00 -0.18898549354E+00  0.18898549354E+00  0.00000000000E+00 0.  1.
          5    1    1    2  501    0 -0.54304809080E+01  0.75640250380E+00  0.32755543554E+03  0.32763503418E+03  0.47000000000E+01 0.  1.
         -5    1    1    2    0  503  0.54304809080E+01 -0.75640250380E+00  0.87245418978E+02  0.87543791329E+02  0.47000000000E+01 0.  1.
<mgrwt>
<rscale>  2 0.72216527E+01</rscale>
<asrwt>0</asrwt>
<pdfrwt beam="1">  1       21 0.63843862E-01 0.72216527E+01</pdfrwt>
<pdfrwt beam="2">  1       21 0.29075023E-04 0.72216527E+01</pdfrwt>
<totfact> 0.69041823E+08</totfact>
</mgrwt>
</event>
<event>
 4    1  0.3992289E+006  0.5080689E+01  0.7546771E-02  0.2553036E+00
         21   -1    0    0  501  502  0.00000000000E+00  0.00000000000E+00  0.97326502733E+00  0.97326502733E+00  0.00000000000E+00 0. -1.
         21   -1    0    0  502  503 -0.00000000000E+00 -0.00000000000E+00 -0.49441595526E+02  0.49441595526E+02  0.00000000000E+00 0. -1.
          5    1    1    2  501    0  0.18231722437E+01 -0.63201685419E+00 -0.70716371346E+01  0.87075515558E+01  0.47000000000E+01 0. -1.
         -5    1    1    2    0  503 -0.18231722437E+01  0.63201685419E+00 -0.41396693364E+02  0.41707308998E+02  0.47000000000E+01 0. -1.
<mgrwt>
<rscale>  2 0.50806892E+01</rscale>
<asrwt>0</asrwt>
<pdfrwt beam="1">  1       21 0.14973312E-03 0.50806892E+01</pdfrwt>
<pdfrwt beam="2">  1       21 0.76063973E-02 0.50806892E+01</pdfrwt>
<totfact> 0.19595199E+09</totfact>
</mgrwt>
</event>
<event>
 4    1  0.3992289E+006  0.1157083E+02  0.7546771E-02  0.1995262E+00
         21   -1    0    0  503  502  0.00000000000E+00  0.00000000000E+00  0.19860642431E+01  0.19860642431E+01  0.00000000000E+00 0.  1.
         21   -1    0    0  501  503 -0.00000000000E+00 -0.00000000000E+00 -0.72908580859E+02  0.72908580859E+02  0.00000000000E+00 0. -1.
          5    1    1    2  501    0 -0.28656257903E+01  0.10177535699E+02 -0.25179010253E+02  0.27710406012E+02  0.47000000000E+01 0.  1.
         -5    1    1    2    0  502  0.28656257903E+01 -0.10177535699E+02 -0.45743506363E+02  0.47184239090E+02  0.47000000000E+01 0. -1.
<mgrwt>
<rscale>  2 0.11570827E+02</rscale>
<asrwt>0</asrwt>
<pdfrwt beam="1">  1       21 0.30554841E-03 0.11570827E+02</pdfrwt>
<pdfrwt beam="2">  1       21 0.11216703E-01 0.11570827E+02</pdfrwt>
<totfact> 0.71149814E+08</totfact>
</mgrwt>
</event>
<event>
 4    1  0.3992289E+006  0.5480341E+01  0.7546771E-02  0.2488401E+00
         21   -1    0    0  501  502  0.00000000000E+00  0.00000000000E+00  0.88008094930E+01  0.88008094930E+01  0.00000000000E+00 0.  1.
         21   -1    0    0  502  503 -0.00000000000E+00 -0.00000000000E+00 -0.66789142256E+01  0.66789142256E+01  0.00000000000E+00 0. -1.
          5    1    1    2  501    0 -0.27652293294E+01  0.54556480881E+00  0.64735427721E+01  0.84817975823E+01  0.47000000000E+01 0.  1.
         -5    1    1    2    0  503  0.27652293294E+01 -0.54556480881E+00 -0.43516475047E+01  0.69979261363E+01  0.47000000000E+01 0. -1.
<mgrwt>
<rscale>  2 0.54803407E+01</rscale>
<asrwt>0</asrwt>
<pdfrwt beam="1">  1       21 0.13539707E-02 0.54803407E+01</pdfrwt>
<pdfrwt beam="2">  1       21 0.10275253E-02 0.54803407E+01</pdfrwt>
<totfact> 0.18257652E+09</totfact>
</mgrwt>
</event>
<event>
 4    1  0.3992289E+006  0.6890307E+01  0.7546771E-02  0.2312197E+00
         21   -1    0    0  501  502  0.00000000000E+00  0.00000000000E+00  0.72009006884E+02  0.72009006884E+02  0.00000000000E+00 0.  1.
         21   -1    0    0  502  503 -0.00000000000E+00 -0.00000000000E+00 -0.13190271562E+02  0.13190271562E+02  0.00000000000E+00 0. -1.
          5    1    1    2  501    0  0.41563851545E+01  0.28479444564E+01  0.70930695669E+02  0.71264576847E+02  0.47000000000E+01 0.  1.
         -5    1    1    2    0  503 -0.41563851545E+01 -0.28479444564E+01 -0.12111960347E+02  0.13934701598E+02  0.47000000000E+01 0. -1.
<mgrwt>
<rscale>  2 0.68903066E+01</rscale>
<asrwt>0</asrwt>
<pdfrwt beam="1">  1       21 0.11078308E-01 0.68903066E+01</pdfrwt>
<pdfrwt beam="2">  1       21 0.20292726E-02 0.68903066E+01</pdfrwt>
<totfact> 0.36688874E+07</totfact>
</mgrwt>
</event>
<event>
 4    1  0.3992289E+006  0.5756160E+01  0.7546771E-02  0.2448283E+00
         21   -1    0    0  501  502  0.00000000000E+00  0.00000000000E+00  0.76836613207E+02  0.76836613207E+02  0.00000000000E+00 0. -1.
         21   -1    0    0  502  503 -0.00000000000E+00 -0.00000000000E+00 -0.43129408645E+00  0.43129408645E+00  0.00000000000E+00 0. -1.
          5    1    1    2  501    0  0.30014633932E+01  0.14263926568E+01  0.38713696053E+02  0.39139285132E+02  0.47000000000E+01 0. -1.
         -5    1    1    2    0  503 -0.30014633932E+01 -0.14263926568E+01  0.37691623067E+02  0.38128622162E+02  0.47000000000E+01 0. -1.
<mgrwt>
<rscale>  2 0.57561600E+01</rscale>
<asrwt>0</asrwt>
<pdfrwt beam="1">  1       21 0.11821007E-01 0.57561600E+01</pdfrwt>
<pdfrwt beam="2">  1       21 0.66352997E-04 0.57561600E+01</pdfrwt>
<totfact> 0.33400472E+09</totfact>
</mgrwt>
</event>
<event>
 4    1  0.3992289E+006  0.6247753E+01  0.7546771E-02  0.2384252E+00
         21   -1    0    0  501  502  0.00000000000E+00  0.00000000000E+00  0.10024434336E+02  0.10024434336E+02  0.00000000000E+00 0.  1.
         21   -1    0    0  502  503 -0.00000000000E+00 -0.00000000000E+00 -0.12898203505E+02  0.12898203505E+02  0.00000000000E+00 0. -1.
          5    1    1    2  501    0 -0.25213568037E+01 -0.32537952540E+01  0.81393411902E+01  0.10260765015E+02  0.47000000000E+01 0.  1.
         -5    1    1    2    0  503  0.25213568037E+01  0.32537952540E+01 -0.11013110359E+02  0.12661872826E+02  0.47000000000E+01 0. -1.
<mgrwt>
<rscale>  2 0.62477535E+01</rscale>
<asrwt>0</asrwt>
<pdfrwt beam="1">  1       21 0.15422207E-02 0.62477535E+01</pdfrwt>
<pdfrwt beam="2">  1       21 0.19843390E-02 0.62477535E+01</pdfrwt>
<totfact> 0.66456118E+08</totfact>
</mgrwt>
</event>
<event>
 4    1  0.3992289E+006  0.7810088E+01  0.7546771E-02  0.2226327E+00
         21   -1    0    0  503  502  0.00000000000E+00  0.00000000000E+00  0.29657266155E+01  0.29657266155E+01  0.00000000000E+00 0.  1.
         21   -1    0    0  501  503 -0.00000000000E+00 -0.00000000000E+00 -0.84531915622E+02  0.84531915622E+02  0.00000000000E+00 0.  1.
          5    1    1    2  501    0  0.32452777338E+01 -0.53268801569E+01 -0.78839286968E+02  0.79225189488E+02  0.47000000000E+01 0.  1.
         -5    1    1    2    0  502 -0.32452777338E+01  0.53268801569E+01 -0.27269020393E+01  0.82724527504E+01  0.47000000000E+01 0.  1.
<mgrwt>
<rscale>  2 0.78100883E+01</rscale>
<asrwt>0</asrwt>
<pdfrwt beam="1">  1       21 0.45626557E-03 0.78100883E+01</pdfrwt>
<pdfrwt beam="2">  1       21 0.13004912E-01 0.78100883E+01</pdfrwt>
<totfact> 0.25724923E+08</totfact>
</mgrwt>
</event>
<event>
 4    1  0.3992289E+006  0.6705721E+01  0.7546771E-02  0.2331725E+00
         21   -1    0    0  501  502  0.00000000000E+00  0.00000000000E+00  0.19802538603E+01  0.19802538603E+01  0.00000000000E+00 0. -1.
         21   -1    0    0  502  503 -0.00000000000E+00 -0.00000000000E+00 -0.24857640380E+02  0.24857640380E+02  0.00000000000E+00 0.  1.
          5    1    1    2  501    0  0.36938502206E+01 -0.30384482615E+01 -0.74921426352E+01  0.10054794804E+02  0.47000000000E+01 0. -1.
         -5    1    1    2    0  503 -0.36938502206E+01  0.30384482615E+01 -0.15385243884E+02  0.16783099436E+02  0.47000000000E+01 0.  1.
<mgrwt>
<rscale>  2 0.67057212E+01</rscale>
<asrwt>0</asrwt>
<pdfrwt beam="1">  1       21 0.30465444E-03 0.67057212E+01</pdfrwt>
<pdfrwt beam="2">  1       21 0.38242524E-02 0.67057212E+01</pdfrwt>
<totfact> 0.26394064E+09</totfact>
</mgrwt>
</event>
<event>
 4    1  0.3992289E+006  0.6635018E+01  0.7546771E-02  0.2339441E+00
         21   -1    0    0  501  502  0.00000000000E+00  0.00000000000E+00  0.30069228987E+00  0.30069228987E+00  0.00000000000E+00 0.  1.
         21   -1    0    0  502  503 -0.00000000000E+00 -0.00000000000E+00 -0.15795228475E+03  0.15795228475E+03  0.00000000000E+00 0.  1.
          5    1    1    2  501    0 -0.30214889362E+01 -0.35782765711E+01 -0.57433317785E+02  0.57815304638E+02  0.47000000000E+01 0.  1.
         -5    1    1    2    0  503  0.30214889362E+01  0.35782765711E+01 -0.10021827467E+03  0.10043767240E+03  0.47000000000E+01 0.  1.
<mgrwt>
<rscale>  2 0.66350176E+01</rscale>
<asrwt>0</asrwt>
<pdfrwt beam="1">  1       21 0.46260223E-04 0.66350176E+01</pdfrwt>
<pdfrwt beam="2">  1       21 0.24300419E-01 0.66350176E+01</pdfrwt>
<totfact> 0.19215289E+09</totfact>
</mgrwt>
</event>
<event>
 4    1  0.3992289E+006  0.4165766E+02  0.7546771E-02  0.1496355E+00
         21   -1    0    0  501  502  0.00000000000E+00  0.00000000000E+00  0.23465399953E+04  0.23465399953E+04  0.00000000000E+00 0.  1.
         21   -1    0    0  502  503 -0.00000000000E+00 -0.00000000000E+00 -0.79684472950E+00  0.79684472950E+00  0.00000000000E+00 0. -1.
          5    1    1    2  501    0  0.55432912716E+01  0.41018812323E+02  0.14876119231E+04  0.14881950796E+04  0.47000000000E+01 0.  1.
         -5    1    1    2    0  503 -0.55432912716E+01 -0.41018812323E+02  0.85813122740E+03  0.85914176041E+03  0.47000000000E+01 0. -1.
<mgrwt>
<rscale>  2 0.41657665E+02</rscale>
<asrwt>0</asrwt>
<pdfrwt beam="1">  1       21 0.36100062E+00 0.41657665E+02</pdfrwt>
<pdfrwt beam="2">  1       21 0.12259338E-03 0.41657665E+02</pdfrwt>
<totfact> 0.17226764E+06</totfact>
</mgrwt>
</event>
<event>
 4    1  0.3992289E+006  0.5043620E+01  0.7546771E-02  0.2559473E+00
         21   -1    0    0  503  502  0.00000000000E+00  0.00000000000E+00  0.15236075607E+02  0.15236075607E+02  0.00000000000E+00 0. -1.
         21   -1    0    0  501  503 -0.00000000000E+00 -0.00000000000E+00 -0.70003212539E+01  0.70003212539E+01  0.00000000000E+00 0. -1.
          5    1    1    2  501    0 -0.12832259387E+01 -0.13043883294E+01 -0.55842858279E+01  0.75247821185E+01  0.47000000000E+01 0. -1.
         -5    1    1    2    0  502  0.12832259387E+01  0.13043883294E+01  0.13820040181E+02  0.14711614742E+02  0.47000000000E+01 0. -1.
<mgrwt>
<rscale>  2 0.50436195E+01</rscale>
<asrwt>0</asrwt>
<pdfrwt beam="1">  1       21 0.23440116E-02 0.50436195E+01</pdfrwt>
<pdfrwt beam="2">  1       21 0.10769725E-02 0.50436195E+01</pdfrwt>
<totfact> 0.72611088E+08</totfact>
</mgrwt>
</event>
<event>
 4    1  0.3992289E+006  0.6367695E+01  0.7546771E-02  0.2369891E+00
         21   -1    0    0  503  502  0.00000000000E+00  0.00000000000E+00  0.21219262648E+02  0.21219262648E+02  0.00000000000E+00 0. -1.
         21   -1    0    0  501  503 -0.00000000000E+00 -0.00000000000E+00 -0.54731645682E+01  0.54731645682E+01  0.00000000000E+00 0. -1.
          5    1    1    2  501    0  0.19592978147E+01 -0.38234403065E+01 -0.28941538248E+01  0.69945457369E+01  0.47000000000E+01 0. -1.
         -5    1    1    2    0  502 -0.19592978147E+01  0.38234403065E+01  0.18640251905E+02  0.19697881479E+02  0.47000000000E+01 0. -1.
<mgrwt>
<rscale>  2 0.63676953E+01</rscale>
<asrwt>0</asrwt>
<pdfrwt beam="1">  1       21 0.32645019E-02 0.63676953E+01</pdfrwt>
<pdfrwt beam="2">  1       21 0.84202533E-03 0.63676953E+01</pdfrwt>
<totfact> 0.77330795E+08</totfact>
</mgrwt>
</event>
<event>
 4    1  0.3992289E+006  0.5023806E+01  0.7546771E-02  0.2562948E+00
         21   -1    0    0  501  502  0.00000000000E+00  0.00000000000E+00  0.22470002260E+02  0.22470002260E+02  0.00000000000E+00 0.  1.
         21   -1    0    0  502  503 -0.00000000000E+00 -0.00000000000E+00 -0.37791979420E+01  0.37791979420E+01  0.00000000000E+00 0.  1.
          5    1    1    2  501    0  0.21347227561E+00  0.17615484587E+01  0.20348094621E+02  0.20959092969E+02  0.47000000000E+01 0.  1.
         -5    1    1    2    0  503 -0.21347227561E+00 -0.17615484587E+01 -0.16572903032E+01  0.52901072327E+01  0.47000000000E+01 0.  1.
<mgrwt>
<rscale>  2 0.50238057E+01</rscale>
<asrwt>0</asrwt>
<pdfrwt beam="1">  1       21 0.34569234E-02 0.50238057E+01</pdfrwt>
<pdfrwt beam="2">  1       21 0.58141508E-03 0.50238057E+01</pdfrwt>
<totfact> 0.97524385E+08</totfact>
</mgrwt>
</event>
<event>
 4    1  0.3992289E+006  0.4922945E+01  0.7546771E-02  0.2581007E+00
         21   -1    0    0  503  502  0.00000000000E+00  0.00000000000E+00  0.35428841706E+02  0.35428841706E+02  0.00000000000E+00 0. -1.
         21   -1    0    0  501  503 -0.00000000000E+00 -0.00000000000E+00 -0.12942039425E+01  0.12942039425E+01  0.00000000000E+00 0. -1.
          5    1    1    2  501    0 -0.44435243559E-01 -0.14640386958E+01  0.44599578596E+01  0.66427861551E+01  0.47000000000E+01 0. -1.
         -5    1    1    2    0  502  0.44435243559E-01  0.14640386958E+01  0.29674679904E+02  0.30080259493E+02  0.47000000000E+01 0. -1.
<mgrwt>
<rscale>  2 0.49229446E+01</rscale>
<asrwt>0</asrwt>
<pdfrwt beam="1">  1       21 0.54505903E-02 0.49229446E+01</pdfrwt>
<pdfrwt beam="2">  1       21 0.19910833E-03 0.49229446E+01</pdfrwt>
<totfact> 0.21216882E+09</totfact>
</mgrwt>
</event>
<event>
 4    1  0.3992289E+006  0.7550529E+01  0.7546771E-02  0.2248829E+00
         21   -1    0    0  501  502  0.00000000000E+00  0.00000000000E+00  0.24478912774E+01  0.24478912774E+01  0.00000000000E+00 0.  1.
         21   -1    0    0  502  503 -0.00000000000E+00 -0.00000000000E+00 -0.52226439728E+02  0.52226439728E+02  0.00000000000E+00 0.  1.
          5    1    1    2  501    0 -0.46466410778E+01 -0.36509206011E+01 -0.45407200006E+01  0.88107112463E+01  0.47000000000E+01 0.  1.
         -5    1    1    2    0  503  0.46466410778E+01  0.36509206011E+01 -0.45237828450E+02  0.45863619759E+02  0.47000000000E+01 0.  1.
<mgrwt>
<rscale>  2 0.75505294E+01</rscale>
<asrwt>0</asrwt>
<pdfrwt beam="1">  1       21 0.37659868E-03 0.75505294E+01</pdfrwt>
<pdfrwt beam="2">  1       21 0.80348363E-02 0.75505294E+01</pdfrwt>
<totfact> 0.70007123E+08</totfact>
</mgrwt>
</event>
<event>
 4    1  0.3992289E+006  0.1009188E+02  0.7546771E-02  0.2069796E+00
         21   -1    0    0  501  502  0.00000000000E+00  0.00000000000E+00  0.66079857728E+03  0.66079857728E+03  0.00000000000E+00 0. -1.
         21   -1    0    0  502  503 -0.00000000000E+00 -0.00000000000E+00 -0.15465210833E+00  0.15465210833E+00  0.00000000000E+00 0. -1.
          5    1    1    2  501    0 -0.41068269531E+01 -0.79303181347E+01  0.31103926252E+03  0.31120293829E+03  0.47000000000E+01 0. -1.
         -5    1    1    2    0  503  0.41068269531E+01  0.79303181347E+01  0.34960466265E+03  0.34975029109E+03  0.47000000000E+01 0. -1.
<mgrwt>
<rscale>  2 0.10091877E+02</rscale>
<asrwt>0</asrwt>
<pdfrwt beam="1">  1       21 0.10165906E+00 0.10091877E+02</pdfrwt>
<pdfrwt beam="2">  1       21 0.23793161E-04 0.10091877E+02</pdfrwt>
<totfact> 0.42817862E+08</totfact>
</mgrwt>
</event>
<event>
 4    1  0.3992289E+006  0.5200539E+01  0.7546771E-02  0.2532762E+00
         21   -1    0    0  501  502  0.00000000000E+00  0.00000000000E+00  0.25644180088E+01  0.25644180088E+01  0.00000000000E+00 0. -1.
         21   -1    0    0  502  503 -0.00000000000E+00 -0.00000000000E+00 -0.11375752613E+02  0.11375752613E+02  0.00000000000E+00 0. -1.
          5    1    1    2  501    0  0.19956693225E+01  0.98636254114E+00 -0.25237772406E+01  0.57805759806E+01  0.47000000000E+01 0. -1.
         -5    1    1    2    0  503 -0.19956693225E+01 -0.98636254114E+00 -0.62875573633E+01  0.81595946409E+01  0.47000000000E+01 0. -1.
<mgrwt>
<rscale>  2 0.52005391E+01</rscale>
<asrwt>0</asrwt>
<pdfrwt beam="1">  1       21 0.39452585E-03 0.52005391E+01</pdfrwt>
<pdfrwt beam="2">  1       21 0.17501158E-02 0.52005391E+01</pdfrwt>
<totfact> 0.45479724E+09</totfact>
</mgrwt>
</event>
<event>
 4    1  0.3992289E+006  0.5456740E+01  0.7546771E-02  0.2491993E+00
         21   -1    0    0  501  502  0.00000000000E+00  0.00000000000E+00  0.59567568797E+00  0.59567568797E+00  0.00000000000E+00 0.  1.
         21   -1    0    0  502  503 -0.00000000000E+00 -0.00000000000E+00 -0.86469060387E+02  0.86469060387E+02  0.00000000000E+00 0.  1.
          5    1    1    2  501    0 -0.20244982510E+00 -0.27649636428E+01 -0.14660436123E+02  0.15643030308E+02  0.47000000000E+01 0.  1.
         -5    1    1    2    0  503  0.20244982510E+00  0.27649636428E+01 -0.71212948576E+02  0.71421705768E+02  0.47000000000E+01 0.  1.
<mgrwt>
<rscale>  2 0.54567399E+01</rscale>
<asrwt>0</asrwt>
<pdfrwt beam="1">  1       21 0.91642466E-04 0.54567399E+01</pdfrwt>
<pdfrwt beam="2">  1       21 0.13302925E-01 0.54567399E+01</pdfrwt>
<totfact> 0.17249870E+09</totfact>
</mgrwt>
</event>
<event>
 4    1  0.3992289E+006  0.5890945E+01  0.7546771E-02  0.2429837E+00
         21   -1    0    0  503  502  0.00000000000E+00  0.00000000000E+00  0.85768287259E+00  0.85768287259E+00  0.00000000000E+00 0. -1.
         21   -1    0    0  501  503 -0.00000000000E+00 -0.00000000000E+00 -0.63348938645E+02  0.63348938645E+02  0.00000000000E+00 0. -1.
          5    1    1    2  501    0  0.35009243734E+01  0.59729851005E+00 -0.50542087096E+02  0.50884239259E+02  0.47000000000E+01 0. -1.
         -5    1    1    2    0  502 -0.35009243734E+01 -0.59729851005E+00 -0.11949168676E+02  0.13322382258E+02  0.47000000000E+01 0. -1.
<mgrwt>
<rscale>  2 0.58909453E+01</rscale>
<asrwt>0</asrwt>
<pdfrwt beam="1">  1       21 0.13195114E-03 0.58909453E+01</pdfrwt>
<pdfrwt beam="2">  1       21 0.97459957E-02 0.58909453E+01</pdfrwt>
<totfact> 0.18237237E+09</totfact>
</mgrwt>
</event>
<event>
 4    1  0.3992289E+006  0.1413959E+02  0.7546771E-02  0.1895519E+00
         21   -1    0    0  501  502  0.00000000000E+00  0.00000000000E+00  0.22766627675E+02  0.22766627675E+02  0.00000000000E+00 0.  1.
         21   -1    0    0  502  503 -0.00000000000E+00 -0.00000000000E+00 -0.35012231625E+02  0.35012231625E+02  0.00000000000E+00 0. -1.
          5    1    1    2  501    0  0.11627434555E+02 -0.65299995195E+01  0.18882562391E+02  0.23589813278E+02  0.47000000000E+01 0.  1.
         -5    1    1    2    0  503 -0.11627434555E+02  0.65299995195E+01 -0.31128166341E+02  0.34189046021E+02  0.47000000000E+01 0. -1.
<mgrwt>
<rscale>  2 0.14139594E+02</rscale>
<asrwt>0</asrwt>
<pdfrwt beam="1">  1       21 0.35025581E-02 0.14139594E+02</pdfrwt>
<pdfrwt beam="2">  1       21 0.53864972E-02 0.14139594E+02</pdfrwt>
<totfact> 0.68585779E+07</totfact>
</mgrwt>
</event>
<event>
 4    1  0.3992289E+006  0.7207106E+01  0.7546771E-02  0.2280607E+00
         21   -1    0    0  503  502  0.00000000000E+00  0.00000000000E+00  0.24773578479E+01  0.24773578479E+01  0.00000000000E+00 0.  1.
         21   -1    0    0  501  503 -0.00000000000E+00 -0.00000000000E+00 -0.27876577441E+02  0.27876577441E+02  0.00000000000E+00 0.  1.
          5    1    1    2  501    0 -0.32297270224E+01 -0.44069536696E+01 -0.20255678653E+02  0.21499648718E+02  0.47000000000E+01 0.  1.
         -5    1    1    2    0  502  0.32297270224E+01  0.44069536696E+01 -0.51435409399E+01  0.88542865712E+01  0.47000000000E+01 0.  1.
<mgrwt>
<rscale>  2 0.72071060E+01</rscale>
<asrwt>0</asrwt>
<pdfrwt beam="1">  1       21 0.38113195E-03 0.72071060E+01</pdfrwt>
<pdfrwt beam="2">  1       21 0.42887045E-02 0.72071060E+01</pdfrwt>
<totfact> 0.17242859E+09</totfact>
</mgrwt>
</event>
<event>
 4    1  0.3992289E+006  0.5240687E+01  0.7546771E-02  0.2526149E+00
         21   -1    0    0  501  502  0.00000000000E+00  0.00000000000E+00  0.80548532938E-01  0.80548532938E-01  0.00000000000E+00 0.  1.
         21   -1    0    0  502  503 -0.00000000000E+00 -0.00000000000E+00 -0.34787091382E+03  0.34787091382E+03  0.00000000000E+00 0. -1.
          5    1    1    2  501    0  0.33542294910E-01  0.23181190212E+01 -0.14939510686E+03  0.14948699862E+03  0.47000000000E+01 0. -1.
         -5    1    1    2    0  503 -0.33542294910E-01 -0.23181190212E+01 -0.19839525842E+03  0.19846446373E+03  0.47000000000E+01 0.  1.
<mgrwt>
<rscale>  2 0.52406871E+01</rscale>
<asrwt>0</asrwt>
<pdfrwt beam="1">  1       21 0.12392215E-04 0.52406871E+01</pdfrwt>
<pdfrwt beam="2">  1       21 0.53518030E-01 0.52406871E+01</pdfrwt>
<totfact> 0.23683659E+09</totfact>
</mgrwt>
</event>
<event>
 4    1  0.3992289E+006  0.5585845E+01  0.7546771E-02  0.2472660E+00
         21   -1    0    0  503  502  0.00000000000E+00  0.00000000000E+00  0.83888001446E+00  0.83888001446E+00  0.00000000000E+00 0.  1.
         21   -1    0    0  501  503 -0.00000000000E+00 -0.00000000000E+00 -0.39523896264E+02  0.39523896264E+02  0.00000000000E+00 0.  1.
          5    1    1    2  501    0 -0.28050994506E+01  0.11149332181E+01 -0.24241987394E+02  0.24877210692E+02  0.47000000000E+01 0.  1.
         -5    1    1    2    0  502  0.28050994506E+01 -0.11149332181E+01 -0.14443028856E+02  0.15485565587E+02  0.47000000000E+01 0.  1.
<mgrwt>
<rscale>  2 0.55858445E+01</rscale>
<asrwt>0</asrwt>
<pdfrwt beam="1">  1       21 0.12905850E-03 0.55858445E+01</pdfrwt>
<pdfrwt beam="2">  1       21 0.60805977E-02 0.55858445E+01</pdfrwt>
<totfact> 0.36524746E+09</totfact>
</mgrwt>
</event>
<event>
 4    1  0.3992289E+006  0.6500682E+01  0.7546771E-02  0.2354484E+00
         21   -1    0    0  503  502  0.00000000000E+00  0.00000000000E+00  0.87758089344E-01  0.87758089344E-01  0.00000000000E+00 0. -1.
         21   -1    0    0  501  503 -0.00000000000E+00 -0.00000000000E+00 -0.50389469942E+03  0.50389469942E+03  0.00000000000E+00 0.  1.
          5    1    1    2  501    0 -0.28811368582E+01 -0.34449846796E+01 -0.30498186789E+03  0.30505114097E+03  0.47000000000E+01 0.  1.
         -5    1    1    2    0  502  0.28811368582E+01  0.34449846796E+01 -0.19882507345E+03  0.19893131654E+03  0.47000000000E+01 0. -1.
<mgrwt>
<rscale>  2 0.65006822E+01</rscale>
<asrwt>0</asrwt>
<pdfrwt beam="1">  1       21 0.13501011E-04 0.65006822E+01</pdfrwt>
<pdfrwt beam="2">  1       21 0.77523605E-01 0.65006822E+01</pdfrwt>
<totfact> 0.12416712E+09</totfact>
</mgrwt>
</event>
<event>
 4    1  0.3992289E+006  0.5453690E+01  0.7546771E-02  0.2492459E+00
         21   -1    0    0  501  502  0.00000000000E+00  0.00000000000E+00  0.18736202595E+01  0.18736202595E+01  0.00000000000E+00 0. -1.
         21   -1    0    0  502  503 -0.00000000000E+00 -0.00000000000E+00 -0.16123895714E+02  0.16123895714E+02  0.00000000000E+00 0.  1.
          5    1    1    2  501    0  0.12985049512E+01 -0.24426669742E+01 -0.60059208116E+01  0.81125718394E+01  0.47000000000E+01 0.  1.
         -5    1    1    2    0  503 -0.12985049512E+01  0.24426669742E+01 -0.82443546427E+01  0.98849441338E+01  0.47000000000E+01 0.  1.
<mgrwt>
<rscale>  2 0.54536902E+01</rscale>
<asrwt>0</asrwt>
<pdfrwt beam="1">  1       21 0.28824927E-03 0.54536902E+01</pdfrwt>
<pdfrwt beam="2">  1       21 0.24805994E-02 0.54536902E+01</pdfrwt>
<totfact> 0.44560080E+09</totfact>
</mgrwt>
</event>
<event>
 4    1  0.3992289E+006  0.9660843E+01  0.7546771E-02  0.2094819E+00
         21   -1    0    0  503  502  0.00000000000E+00  0.00000000000E+00  0.63812121521E+02  0.63812121521E+02  0.00000000000E+00 0. -1.
         21   -1    0    0  501  503 -0.00000000000E+00 -0.00000000000E+00 -0.14737291632E+01  0.14737291632E+01  0.00000000000E+00 0.  1.
          5    1    1    2  501    0  0.31966986765E+01 -0.78117227280E+01  0.28333078920E+02  0.29934850183E+02  0.47000000000E+01 0.  1.
         -5    1    1    2    0  502 -0.31966986765E+01  0.78117227280E+01  0.34005313438E+02  0.35351000501E+02  0.47000000000E+01 0.  1.
<mgrwt>
<rscale>  2 0.96608434E+01</rscale>
<asrwt>0</asrwt>
<pdfrwt beam="1">  1       21 0.98172473E-02 0.96608434E+01</pdfrwt>
<pdfrwt beam="2">  1       21 0.22672761E-03 0.96608434E+01</pdfrwt>
<totfact> 0.12149296E+09</totfact>
</mgrwt>
</event>
<event>
 4    1  0.3992289E+006  0.4944488E+01  0.7546771E-02  0.2577097E+00
         21   -1    0    0  503  502  0.00000000000E+00  0.00000000000E+00  0.46645337359E+02  0.46645337359E+02  0.00000000000E+00 0.  1.
         21   -1    0    0  501  503 -0.00000000000E+00 -0.00000000000E+00 -0.19973605288E+01  0.19973605288E+01  0.00000000000E+00 0.  1.
          5    1    1    2  501    0  0.11800476196E+01 -0.98257035539E+00  0.14360482116E+01  0.51488048471E+01  0.47000000000E+01 0.  1.
         -5    1    1    2    0  502 -0.11800476196E+01  0.98257035539E+00  0.43211928619E+02  0.43493893041E+02  0.47000000000E+01 0.  1.
<mgrwt>
<rscale>  2 0.49444875E+01</rscale>
<asrwt>0</asrwt>
<pdfrwt beam="1">  1       21 0.71762049E-02 0.49444875E+01</pdfrwt>
<pdfrwt beam="2">  1       21 0.30728627E-03 0.49444875E+01</pdfrwt>
<totfact> 0.79029465E+08</totfact>
</mgrwt>
</event>
<event>
 4    1  0.3992289E+006  0.5541364E+01  0.7546771E-02  0.2479234E+00
         21   -1    0    0  503  502  0.00000000000E+00  0.00000000000E+00  0.53474244142E+00  0.53474244142E+00  0.00000000000E+00 0. -1.
         21   -1    0    0  501  503 -0.00000000000E+00 -0.00000000000E+00 -0.69701209655E+02  0.69701209655E+02  0.00000000000E+00 0. -1.
          5    1    1    2  501    0  0.60196987881E+00 -0.28730372297E+01 -0.19844153507E+02  0.20603328350E+02  0.47000000000E+01 0. -1.
         -5    1    1    2    0  502 -0.60196987881E+00  0.28730372297E+01 -0.49322313706E+02  0.49632623747E+02  0.47000000000E+01 0. -1.
<mgrwt>
<rscale>  2 0.55413636E+01</rscale>
<asrwt>0</asrwt>
<pdfrwt beam="1">  1       21 0.82268076E-04 0.55413636E+01</pdfrwt>
<pdfrwt beam="2">  1       21 0.10723262E-01 0.55413636E+01</pdfrwt>
<totfact> 0.28155732E+09</totfact>
</mgrwt>
</event>
<event>
 4    1  0.3992289E+006  0.7101485E+01  0.7546771E-02  0.2290883E+00
         21   -1    0    0  501  502  0.00000000000E+00  0.00000000000E+00  0.22811385447E+03  0.22811385447E+03  0.00000000000E+00 0.  1.
         21   -1    0    0  502  503 -0.00000000000E+00 -0.00000000000E+00 -0.26289108472E+00  0.26289108472E+00  0.00000000000E+00 0. -1.
          5    1    1    2  501    0  0.27560013054E+01 -0.45547271973E+01  0.15946486423E+03  0.15962291191E+03  0.47000000000E+01 0.  1.
         -5    1    1    2    0  503 -0.27560013054E+01  0.45547271973E+01  0.68386099152E+02  0.68753833640E+02  0.47000000000E+01 0. -1.
<mgrwt>
<rscale>  2 0.71014846E+01</rscale>
<asrwt>0</asrwt>
<pdfrwt beam="1">  1       21 0.35094281E-01 0.71014846E+01</pdfrwt>
<pdfrwt beam="2">  1       21 0.40444965E-04 0.71014846E+01</pdfrwt>
<totfact> 0.12952661E+09</totfact>
</mgrwt>
</event>
<event>
 4    1  0.3992289E+006  0.5248914E+01  0.7546771E-02  0.2524805E+00
         21   -1    0    0  503  502  0.00000000000E+00  0.00000000000E+00  0.54516121178E+01  0.54516121178E+01  0.00000000000E+00 0. -1.
         21   -1    0    0  501  503 -0.00000000000E+00 -0.00000000000E+00 -0.67109028463E+01  0.67109028463E+01  0.00000000000E+00 0. -1.
          5    1    1    2  501    0  0.23212743217E+01  0.26978819788E+00 -0.36515713927E+01  0.63941437100E+01  0.47000000000E+01 0. -1.
         -5    1    1    2    0  502 -0.23212743217E+01 -0.26978819788E+00  0.23922806642E+01  0.57683712540E+01  0.47000000000E+01 0. -1.
<mgrwt>
<rscale>  2 0.52489142E+01</rscale>
<asrwt>0</asrwt>
<pdfrwt beam="1">  1       21 0.83870956E-03 0.52489142E+01</pdfrwt>
<pdfrwt beam="2">  1       21 0.10324466E-02 0.52489142E+01</pdfrwt>
<totfact> 0.34058304E+09</totfact>
</mgrwt>
</event>
<event>
 4    1  0.3992289E+006  0.7947284E+01  0.7546771E-02  0.2214915E+00
         21   -1    0    0  501  502  0.00000000000E+00  0.00000000000E+00  0.22163232579E+03  0.22163232579E+03  0.00000000000E+00 0.  1.
         21   -1    0    0  502  503 -0.00000000000E+00 -0.00000000000E+00 -0.33009863885E+00  0.33009863885E+00  0.00000000000E+00 0. -1.
          5    1    1    2  501    0  0.10415154694E+01  0.63233358382E+01  0.15168447244E+03  0.15189252289E+03  0.47000000000E+01 0. -1.
         -5    1    1    2    0  503 -0.10415154694E+01 -0.63233358382E+01  0.69617754714E+02  0.70069901541E+02  0.47000000000E+01 0.  1.
<mgrwt>
<rscale>  2 0.79472845E+01</rscale>
<asrwt>0</asrwt>
<pdfrwt beam="1">  1       21 0.34097162E-01 0.79472845E+01</pdfrwt>
<pdfrwt beam="2">  1       21 0.50784583E-04 0.79472845E+01</pdfrwt>
<totfact> 0.10776878E+09</totfact>
</mgrwt>
</event>
<event>
 4    1  0.3992289E+006  0.5169454E+01  0.7546771E-02  0.2537943E+00
         21   -1    0    0  501  502  0.00000000000E+00  0.00000000000E+00  0.14223772539E+01  0.14223772539E+01  0.00000000000E+00 0. -1.
         21   -1    0    0  502  503 -0.00000000000E+00 -0.00000000000E+00 -0.41927735853E+02  0.41927735853E+02  0.00000000000E+00 0. -1.
          5    1    1    2  501    0  0.10864918323E+01 -0.18581673634E+01 -0.36355100997E+02  0.36720792734E+02  0.47000000000E+01 0. -1.
         -5    1    1    2    0  503 -0.10864918323E+01  0.18581673634E+01 -0.41502576018E+01  0.66293203734E+01  0.47000000000E+01 0. -1.
<mgrwt>
<rscale>  2 0.51694536E+01</rscale>
<asrwt>0</asrwt>
<pdfrwt beam="1">  1       21 0.21882730E-03 0.51694536E+01</pdfrwt>
<pdfrwt beam="2">  1       21 0.64504201E-02 0.51694536E+01</pdfrwt>
<totfact> 0.15283289E+09</totfact>
</mgrwt>
</event>
<event>
 4    1  0.3992289E+006  0.5934585E+01  0.7546771E-02  0.2424016E+00
         21   -1    0    0  503  502  0.00000000000E+00  0.00000000000E+00  0.19084165625E+02  0.19084165625E+02  0.00000000000E+00 0.  1.
         21   -1    0    0  501  503 -0.00000000000E+00 -0.00000000000E+00 -0.15674190172E+02  0.15674190172E+02  0.00000000000E+00 0.  1.
          5    1    1    2  501    0  0.35169958965E+01  0.87180212590E+00 -0.14619051553E+02  0.15777704757E+02  0.47000000000E+01 0.  1.
         -5    1    1    2    0  502 -0.35169958965E+01 -0.87180212590E+00  0.18029027006E+02  0.18980651039E+02  0.47000000000E+01 0.  1.
<mgrwt>
<rscale>  2 0.59345850E+01</rscale>
<asrwt>0</asrwt>
<pdfrwt beam="1">  1       21 0.29360255E-02 0.59345850E+01</pdfrwt>
<pdfrwt beam="2">  1       21 0.24114139E-02 0.59345850E+01</pdfrwt>
<totfact> 0.19100342E+08</totfact>
</mgrwt>
</event>
<event>
 4    1  0.3992289E+006  0.4810264E+01  0.7546771E-02  0.2601955E+00
         21   -1    0    0  503  502  0.00000000000E+00  0.00000000000E+00  0.19202141080E+01  0.19202141080E+01  0.00000000000E+00 0.  1.
         21   -1    0    0  501  503 -0.00000000000E+00 -0.00000000000E+00 -0.12051200195E+02  0.12051200195E+02  0.00000000000E+00 0.  1.
          5    1    1    2  501    0 -0.16686993548E-01 -0.10238944162E+01 -0.51343208662E+01  0.70356157504E+01  0.47000000000E+01 0.  1.
         -5    1    1    2    0  502  0.16686993548E-01  0.10238944162E+01 -0.49966652205E+01  0.69357985522E+01  0.47000000000E+01 0.  1.
<mgrwt>
<rscale>  2 0.48102638E+01</rscale>
<asrwt>0</asrwt>
<pdfrwt beam="1">  1       21 0.29541757E-03 0.48102638E+01</pdfrwt>
<pdfrwt beam="2">  1       21 0.18540307E-02 0.48102638E+01</pdfrwt>
<totfact> 0.57209727E+09</totfact>
</mgrwt>
</event>
<event>
 4    1  0.3992289E+006  0.5718798E+01  0.7546771E-02  0.2453525E+00
         21   -1    0    0  501  502  0.00000000000E+00  0.00000000000E+00  0.23974655563E+01  0.23974655563E+01  0.00000000000E+00 0.  1.
         21   -1    0    0  502  503 -0.00000000000E+00 -0.00000000000E+00 -0.13662572482E+02  0.13662572482E+02  0.00000000000E+00 0.  1.
          5    1    1    2  501    0 -0.32494384703E+01  0.23621147647E+00 -0.59490988795E+01  0.82520557264E+01  0.47000000000E+01 0.  1.
         -5    1    1    2    0  503  0.32494384703E+01 -0.23621147647E+00 -0.53160080460E+01  0.78079823116E+01  0.47000000000E+01 0.  1.
<mgrwt>
<rscale>  2 0.57187976E+01</rscale>
<asrwt>0</asrwt>
<pdfrwt beam="1">  1       21 0.36884085E-03 0.57187976E+01</pdfrwt>
<pdfrwt beam="2">  1       21 0.21019342E-02 0.57187976E+01</pdfrwt>
<totfact> 0.42160753E+09</totfact>
</mgrwt>
</event>
<event>
 4    1  0.3992289E+006  0.7035870E+01  0.7546771E-02  0.2297393E+00
         21   -1    0    0  501  502  0.00000000000E+00  0.00000000000E+00  0.31549265131E+00  0.31549265131E+00  0.00000000000E+00 0.  1.
         21   -1    0    0  502  503 -0.00000000000E+00 -0.00000000000E+00 -0.34767607466E+03  0.34767607466E+03  0.00000000000E+00 0. -1.
          5    1    1    2  501    0  0.72854215758E+00  0.51848516672E+01 -0.44794908043E+02  0.45344098260E+02  0.47000000000E+01 0.  1.
         -5    1    1    2    0  503 -0.72854215758E+00 -0.51848516672E+01 -0.30256567397E+03  0.30264746905E+03  0.47000000000E+01 0. -1.
<mgrwt>
<rscale>  2 0.70358696E+01</rscale>
<asrwt>0</asrwt>
<pdfrwt beam="1">  1       21 0.48537423E-04 0.70358696E+01</pdfrwt>
<pdfrwt beam="2">  1       21 0.53488525E-01 0.70358696E+01</pdfrwt>
<totfact> 0.47434913E+08</totfact>
</mgrwt>
</event>
<event>
 4    1  0.3992289E+006  0.8639883E+01  0.7546771E-02  0.2161808E+00
         21   -1    0    0  503  502  0.00000000000E+00  0.00000000000E+00  0.41328879923E+01  0.41328879923E+01  0.00000000000E+00 0.  1.
         21   -1    0    0  501  503 -0.00000000000E+00 -0.00000000000E+00 -0.18290134126E+02  0.18290134126E+02  0.00000000000E+00 0. -1.
          5    1    1    2  501    0 -0.55359519750E+01  0.46808984292E+01 -0.83311877033E+01  0.12002344060E+02  0.47000000000E+01 0. -1.
         -5    1    1    2    0  502  0.55359519750E+01 -0.46808984292E+01 -0.58260584308E+01  0.10420678059E+02  0.47000000000E+01 0.  1.
<mgrwt>
<rscale>  2 0.86398828E+01</rscale>
<asrwt>0</asrwt>
<pdfrwt beam="1">  1       21 0.63582894E-03 0.86398828E+01</pdfrwt>
<pdfrwt beam="2">  1       21 0.28138667E-02 0.86398828E+01</pdfrwt>
<totfact> 0.17829208E+09</totfact>
</mgrwt>
</event>
<event>
 4    1  0.3992289E+006  0.1333735E+02  0.7546771E-02  0.1923496E+00
         21   -1    0    0  501  502  0.00000000000E+00  0.00000000000E+00  0.14852203295E+02  0.14852203295E+02  0.00000000000E+00 0. -1.
         21   -1    0    0  502  503 -0.00000000000E+00 -0.00000000000E+00 -0.12856171372E+02  0.12856171372E+02  0.00000000000E+00 0.  1.
          5    1    1    2  501    0  0.96035890534E+01  0.79728319383E+01 -0.26249127396E+01  0.13593201930E+02  0.47000000000E+01 0.  1.
         -5    1    1    2    0  503 -0.96035890534E+01 -0.79728319383E+01  0.46209446625E+01  0.14115172737E+02  0.47000000000E+01 0. -1.
<mgrwt>
<rscale>  2 0.13337353E+02</rscale>
<asrwt>0</asrwt>
<pdfrwt beam="1">  1       21 0.22849543E-02 0.13337353E+02</pdfrwt>
<pdfrwt beam="2">  1       21 0.19778725E-02 0.13337353E+02</pdfrwt>
<totfact> 0.59323393E+08</totfact>
</mgrwt>
</event>
<event>
 4    1  0.3992289E+006  0.5224985E+01  0.7546771E-02  0.2528725E+00
         21   -1    0    0  503  502  0.00000000000E+00  0.00000000000E+00  0.50158358722E+01  0.50158358722E+01  0.00000000000E+00 0. -1.
         21   -1    0    0  501  503 -0.00000000000E+00 -0.00000000000E+00 -0.12597971214E+02  0.12597971214E+02  0.00000000000E+00 0. -1.
          5    1    1    2  501    0  0.13621229514E+01  0.18316906952E+01 -0.10428212058E+02  0.11663964869E+02  0.47000000000E+01 0. -1.
         -5    1    1    2    0  502 -0.13621229514E+01 -0.18316906952E+01  0.28460767161E+01  0.59498422174E+01  0.47000000000E+01 0. -1.
<mgrwt>
<rscale>  2 0.52249851E+01</rscale>
<asrwt>0</asrwt>
<pdfrwt beam="1">  1       21 0.77166706E-03 0.52249851E+01</pdfrwt>
<pdfrwt beam="2">  1       21 0.19381494E-02 0.52249851E+01</pdfrwt>
<totfact> 0.15662253E+09</totfact>
</mgrwt>
</event>
<event>
 4    1  0.3992289E+006  0.4868004E+01  0.7546771E-02  0.2591116E+00
         21   -1    0    0  503  502  0.00000000000E+00  0.00000000000E+00  0.64622156979E+02  0.64622156979E+02  0.00000000000E+00 0.  1.
         21   -1    0    0  501  503 -0.00000000000E+00 -0.00000000000E+00 -0.13316012387E+01  0.13316012387E+01  0.00000000000E+00 0.  1.
          5    1    1    2  501    0 -0.12653322375E+01  0.80000210161E-01  0.35740069666E+01  0.60391217493E+01  0.47000000000E+01 0.  1.
         -5    1    1    2    0  502  0.12653322375E+01 -0.80000210161E-01  0.59716548773E+02  0.59914636468E+02  0.47000000000E+01 0.  1.
<mgrwt>
<rscale>  2 0.48680043E+01</rscale>
<asrwt>0</asrwt>
<pdfrwt beam="1">  1       21 0.99418679E-02 0.48680043E+01</pdfrwt>
<pdfrwt beam="2">  1       21 0.20486178E-03 0.48680043E+01</pdfrwt>
<totfact> 0.82707643E+08</totfact>
</mgrwt>
</event>
<event>
 4    1  0.3992289E+006  0.4701820E+01  0.7546771E-02  0.2622934E+00
         21   -1    0    0  503  502  0.00000000000E+00  0.00000000000E+00  0.15183951674E+02  0.15183951674E+02  0.00000000000E+00 0.  1.
         21   -1    0    0  501  503 -0.00000000000E+00 -0.00000000000E+00 -0.95225885202E+01  0.95225885202E+01  0.00000000000E+00 0.  1.
          5    1    1    2  501    0  0.11277612506E+00 -0.66298437100E-01 -0.85390616258E+01  0.97479581137E+01  0.47000000000E+01 0.  1.
         -5    1    1    2    0  502 -0.11277612506E+00  0.66298437100E-01  0.14200424780E+02  0.14958582081E+02  0.47000000000E+01 0.  1.
<mgrwt>
<rscale>  2 0.47018203E+01</rscale>
<asrwt>0</asrwt>
<pdfrwt beam="1">  1       21 0.23359926E-02 0.47018203E+01</pdfrwt>
<pdfrwt beam="2">  1       21 0.14650136E-02 0.47018203E+01</pdfrwt>
<totfact> 0.44449964E+08</totfact>
</mgrwt>
</event>
<event>
 4    1  0.3992289E+006  0.1311986E+02  0.7546771E-02  0.1931526E+00
         21   -1    0    0  503  502  0.00000000000E+00  0.00000000000E+00  0.79400023632E+01  0.79400023632E+01  0.00000000000E+00 0.  1.
         21   -1    0    0  501  503 -0.00000000000E+00 -0.00000000000E+00 -0.30627858759E+02  0.30627858759E+02  0.00000000000E+00 0. -1.
          5    1    1    2  501    0  0.39348768056E+01 -0.11599888444E+02 -0.21767655366E+02  0.25415772417E+02  0.47000000000E+01 0. -1.
         -5    1    1    2    0  502 -0.39348768056E+01  0.11599888444E+02 -0.92020102977E+00  0.13152088706E+02  0.47000000000E+01 0.  1.
<mgrwt>
<rscale>  2 0.13119858E+02</rscale>
<asrwt>0</asrwt>
<pdfrwt beam="1">  1       21 0.12215388E-02 0.13119858E+02</pdfrwt>
<pdfrwt beam="2">  1       21 0.47119782E-02 0.13119858E+02</pdfrwt>
<totfact> 0.39944308E+08</totfact>
</mgrwt>
</event>
<event>
 4    1  0.3992289E+006  0.6911746E+01  0.7546771E-02  0.2309984E+00
         21   -1    0    0  501  502  0.00000000000E+00  0.00000000000E+00  0.37509473159E-01  0.37509473159E-01  0.00000000000E+00 0. -1.
         21   -1    0    0  502  503 -0.00000000000E+00 -0.00000000000E+00 -0.12758645725E+04  0.12758645725E+04  0.00000000000E+00 0.  1.
          5    1    1    2  501    0 -0.46448197343E+01  0.20267917411E+01 -0.61106361958E+03  0.61110270774E+03  0.47000000000E+01 0. -1.
         -5    1    1    2    0  503  0.46448197343E+01 -0.20267917411E+01 -0.66476344340E+03  0.66479937419E+03  0.47000000000E+01 0.  1.
<mgrwt>
<rscale>  2 0.69117462E+01</rscale>
<asrwt>0</asrwt>
<pdfrwt beam="1">  1       21 0.57710882E-05 0.69117462E+01</pdfrwt>
<pdfrwt beam="2">  1       21 0.19627325E+00 0.69117462E+01</pdfrwt>
<totfact> 0.56848932E+08</totfact>
</mgrwt>
</event>
<event>
 4    1  0.3992289E+006  0.4723199E+01  0.7546771E-02  0.2618732E+00
         21   -1    0    0  503  502  0.00000000000E+00  0.00000000000E+00  0.14556237747E+02  0.14556237747E+02  0.00000000000E+00 0. -1.
         21   -1    0    0  501  503 -0.00000000000E+00 -0.00000000000E+00 -0.25491241509E+01  0.25491241509E+01  0.00000000000E+00 0. -1.
          5    1    1    2  501    0 -0.46307806871E+00 -0.64536520602E-01  0.60261133873E+00  0.47614857645E+01  0.47000000000E+01 0. -1.
         -5    1    1    2    0  502  0.46307806871E+00  0.64536520602E-01  0.11404502258E+02  0.12343876134E+02  0.47000000000E+01 0. -1.
<mgrwt>
<rscale>  2 0.47231987E+01</rscale>
<asrwt>0</asrwt>
<pdfrwt beam="1">  1       21 0.22394211E-02 0.47231987E+01</pdfrwt>
<pdfrwt beam="2">  1       21 0.39217296E-03 0.47231987E+01</pdfrwt>
<totfact> 0.29237519E+09</totfact>
</mgrwt>
</event>
<event>
 4    1  0.3992289E+006  0.7594227E+01  0.7546771E-02  0.2244953E+00
         21   -1    0    0  501  502  0.00000000000E+00  0.00000000000E+00  0.69982975611E-01  0.69982975611E-01  0.00000000000E+00 0. -1.
         21   -1    0    0  502  503 -0.00000000000E+00 -0.00000000000E+00 -0.12101235301E+04  0.12101235301E+04  0.00000000000E+00 0. -1.
          5    1    1    2  501    0 -0.42317581515E+01 -0.42041062213E+01 -0.26326588565E+03  0.26337539527E+03  0.47000000000E+01 0. -1.
         -5    1    1    2    0  503  0.42317581515E+01  0.42041062213E+01 -0.94678766150E+03  0.94681811783E+03  0.47000000000E+01 0. -1.
<mgrwt>
<rscale>  2 0.75942272E+01</rscale>
<asrwt>0</asrwt>
<pdfrwt beam="1">  1       21 0.10766546E-04 0.75942272E+01</pdfrwt>
<pdfrwt beam="2">  1       21 0.18617398E+00 0.75942272E+01</pdfrwt>
<totfact> 0.29080262E+08</totfact>
</mgrwt>
</event>
<event>
 4    1  0.3992289E+006  0.5235005E+01  0.7546771E-02  0.2527080E+00
         21   -1    0    0  503  502  0.00000000000E+00  0.00000000000E+00  0.71666551059E+00  0.71666551059E+00  0.00000000000E+00 0. -1.
         21   -1    0    0  501  503 -0.00000000000E+00 -0.00000000000E+00 -0.38515529760E+02  0.38515529760E+02  0.00000000000E+00 0. -1.
          5    1    1    2  501    0 -0.10210410939E+01  0.20670626598E+01 -0.20558624391E+02  0.21214672040E+02  0.47000000000E+01 0. -1.
         -5    1    1    2    0  502  0.10210410939E+01 -0.20670626598E+01 -0.17240239858E+02  0.18017523230E+02  0.47000000000E+01 0. -1.
<mgrwt>
<rscale>  2 0.52350046E+01</rscale>
<asrwt>0</asrwt>
<pdfrwt beam="1">  1       21 0.11025624E-03 0.52350046E+01</pdfrwt>
<pdfrwt beam="2">  1       21 0.59254658E-02 0.52350046E+01</pdfrwt>
<totfact> 0.44020331E+09</totfact>
</mgrwt>
</event>
<event>
 4    1  0.3992289E+006  0.6731668E+01  0.7546771E-02  0.2328927E+00
         21   -1    0    0  503  502  0.00000000000E+00  0.00000000000E+00  0.10176377569E+02  0.10176377569E+02  0.00000000000E+00 0. -1.
         21   -1    0    0  501  503 -0.00000000000E+00 -0.00000000000E+00 -0.52747585457E+01  0.52747585457E+01  0.00000000000E+00 0. -1.
          5    1    1    2  501    0  0.23296156656E+01 -0.42187961779E+01 -0.59850890307E+00  0.67582218998E+01  0.47000000000E+01 0. -1.
         -5    1    1    2    0  502 -0.23296156656E+01  0.42187961779E+01  0.55001279263E+01  0.86929142148E+01  0.47000000000E+01 0. -1.
<mgrwt>
<rscale>  2 0.67316677E+01</rscale>
<asrwt>0</asrwt>
<pdfrwt beam="1">  1       21 0.15655965E-02 0.67316677E+01</pdfrwt>
<pdfrwt beam="2">  1       21 0.81150132E-03 0.67316677E+01</pdfrwt>
<totfact> 0.24703213E+09</totfact>
</mgrwt>
</event>
<event>
 4    1  0.3992289E+006  0.1403452E+02  0.7546771E-02  0.1899044E+00
         21   -1    0    0  501  502  0.00000000000E+00  0.00000000000E+00  0.17074514250E+02  0.17074514250E+02  0.00000000000E+00 0. -1.
         21   -1    0    0  502  503 -0.00000000000E+00 -0.00000000000E+00 -0.29470934455E+02  0.29470934455E+02  0.00000000000E+00 0.  1.
          5    1    1    2  501    0 -0.80319165390E+01  0.10505526916E+02  0.11957066759E+02  0.18437440835E+02  0.47000000000E+01 0. -1.
         -5    1    1    2    0  503  0.80319165390E+01 -0.10505526916E+02 -0.24353486965E+02  0.28108007870E+02  0.47000000000E+01 0.  1.
<mgrwt>
<rscale>  2 0.14034521E+02</rscale>
<asrwt>0</asrwt>
<pdfrwt beam="1">  1       21 0.26268483E-02 0.14034521E+02</pdfrwt>
<pdfrwt beam="2">  1       21 0.45339899E-02 0.14034521E+02</pdfrwt>
<totfact> 0.13876648E+08</totfact>
</mgrwt>
</event>
<event>
 4    1  0.3992289E+006  0.7519067E+01  0.7546771E-02  0.2251642E+00
         21   -1    0    0  501  502  0.00000000000E+00  0.00000000000E+00  0.29896120434E+01  0.29896120434E+01  0.00000000000E+00 0.  1.
         21   -1    0    0  502  503 -0.00000000000E+00 -0.00000000000E+00 -0.19217024083E+02  0.19217024083E+02  0.00000000000E+00 0.  1.
          5    1    1    2  501    0  0.23153477399E+01  0.53931007325E+01 -0.95150052110E+01  0.12127311938E+02  0.47000000000E+01 0.  1.
         -5    1    1    2    0  503 -0.23153477399E+01 -0.53931007325E+01 -0.67124068285E+01  0.10079324189E+02  0.47000000000E+01 0.  1.
<mgrwt>
<rscale>  2 0.75190671E+01</rscale>
<asrwt>0</asrwt>
<pdfrwt beam="1">  1       21 0.45994032E-03 0.75190671E+01</pdfrwt>
<pdfrwt beam="2">  1       21 0.29564652E-02 0.75190671E+01</pdfrwt>
<totfact> 0.23751815E+09</totfact>
</mgrwt>
</event>
<event>
 4    1  0.3992289E+006  0.4726238E+01  0.7546771E-02  0.2618137E+00
         21   -1    0    0  501  502  0.00000000000E+00  0.00000000000E+00  0.15116203940E+03  0.15116203940E+03  0.00000000000E+00 0.  1.
         21   -1    0    0  502  503 -0.00000000000E+00 -0.00000000000E+00 -0.14830604442E+00  0.14830604442E+00  0.00000000000E+00 0.  1.
          5    1    1    2  501    0 -0.42736312810E+00 -0.25434331645E+00  0.80052042007E+02  0.80191438191E+02  0.47000000000E+01 0. -1.
         -5    1    1    2    0  503  0.42736312810E+00  0.25434331645E+00  0.70961691346E+02  0.71118907250E+02  0.47000000000E+01 0. -1.
<mgrwt>
<rscale>  2 0.47262384E+01</rscale>
<asrwt>0</asrwt>
<pdfrwt beam="1">  1       21 0.23255575E-01 0.47262384E+01</pdfrwt>
<pdfrwt beam="2">  1       21 0.22816435E-04 0.47262384E+01</pdfrwt>
<totfact> 0.39437948E+09</totfact>
</mgrwt>
</event>
<event>
 4    1  0.3992289E+006  0.5093853E+01  0.7546771E-02  0.2550769E+00
         21   -1    0    0  501  502  0.00000000000E+00  0.00000000000E+00  0.16300968002E+00  0.16300968002E+00  0.00000000000E+00 0. -1.
         21   -1    0    0  502  503 -0.00000000000E+00 -0.00000000000E+00 -0.15929802762E+03  0.15929802762E+03  0.00000000000E+00 0.  1.
          5    1    1    2  501    0 -0.23897060799E+00  0.19494180772E+01 -0.81768182766E+02  0.81926693151E+02  0.47000000000E+01 0.  1.
         -5    1    1    2    0  503  0.23897060799E+00 -0.19494180772E+01 -0.77366835174E+02  0.77534344149E+02  0.47000000000E+01 0. -1.
<mgrwt>
<rscale>  2 0.50938529E+01</rscale>
<asrwt>0</asrwt>
<pdfrwt beam="1">  1       21 0.25078475E-04 0.50938529E+01</pdfrwt>
<pdfrwt beam="2">  1       21 0.24507327E-01 0.50938529E+01</pdfrwt>
<totfact> 0.34384596E+09</totfact>
</mgrwt>
</event>
<event>
 4    1  0.3992289E+006  0.5326492E+01  0.7546771E-02  0.2512301E+00
         21   -1    0    0  501  502  0.00000000000E+00  0.00000000000E+00  0.22134258172E+01  0.22134258172E+01  0.00000000000E+00 0.  1.
         21   -1    0    0  502  503 -0.00000000000E+00 -0.00000000000E+00 -0.14439402047E+02  0.14439402047E+02  0.00000000000E+00 0.  1.
          5    1    1    2  501    0 -0.14004948387E+01 -0.20784922261E+01 -0.33227618398E+01  0.62779186018E+01  0.47000000000E+01 0.  1.
         -5    1    1    2    0  503  0.14004948387E+01  0.20784922261E+01 -0.89032143896E+01  0.10374909262E+02  0.47000000000E+01 0.  1.
<mgrwt>
<rscale>  2 0.53264919E+01</rscale>
<asrwt>0</asrwt>
<pdfrwt beam="1">  1       21 0.34052706E-03 0.53264919E+01</pdfrwt>
<pdfrwt beam="2">  1       21 0.22214464E-02 0.53264919E+01</pdfrwt>
<totfact> 0.40600480E+09</totfact>
</mgrwt>
</event>
<event>
 4    1  0.3992289E+006  0.6381303E+01  0.7546771E-02  0.2368290E+00
         21   -1    0    0  501  502  0.00000000000E+00  0.00000000000E+00  0.15310680897E+00  0.15310680897E+00  0.00000000000E+00 0. -1.
         21   -1    0    0  502  503 -0.00000000000E+00 -0.00000000000E+00 -0.54801288504E+03  0.54801288504E+03  0.00000000000E+00 0.  1.
          5    1    1    2  501    0 -0.33213760285E+01  0.27567160118E+01 -0.77300565517E+02  0.77563512370E+02  0.47000000000E+01 0. -1.
         -5    1    1    2    0  503  0.33213760285E+01 -0.27567160118E+01 -0.47055921271E+03  0.47060247947E+03  0.47000000000E+01 0.  1.
<mgrwt>
<rscale>  2 0.63813025E+01</rscale>
<asrwt>0</asrwt>
<pdfrwt beam="1">  1       21 0.23554619E-04 0.63813025E+01</pdfrwt>
<pdfrwt beam="2">  1       21 0.84310659E-01 0.63813025E+01</pdfrwt>
<totfact> 0.49490901E+08</totfact>
</mgrwt>
</event>
<event>
 4    1  0.3992289E+006  0.1419008E+02  0.7546771E-02  0.1893839E+00
         21   -1    0    0  501  502  0.00000000000E+00  0.00000000000E+00  0.11876742112E+03  0.11876742112E+03  0.00000000000E+00 0.  1.
         21   -1    0    0  502  503 -0.00000000000E+00 -0.00000000000E+00 -0.19063215941E+01  0.19063215941E+01  0.00000000000E+00 0. -1.
          5    1    1    2  501    0 -0.46857108949E+01 -0.12542428486E+02  0.38360694293E+02  0.40901115700E+02  0.47000000000E+01 0.  1.
         -5    1    1    2    0  503  0.46857108949E+01  0.12542428486E+02  0.78500405235E+02  0.79772627016E+02  0.47000000000E+01 0.  1.
<mgrwt>
<rscale>  2 0.14190081E+02</rscale>
<asrwt>0</asrwt>
<pdfrwt beam="1">  1       21 0.18271905E-01 0.14190081E+02</pdfrwt>
<pdfrwt beam="2">  1       21 0.29328034E-03 0.14190081E+02</pdfrwt>
<totfact> 0.37005947E+08</totfact>
</mgrwt>
</event>
<event>
 4    1  0.3992289E+006  0.6080902E+01  0.7546771E-02  0.2405012E+00
         21   -1    0    0  501  502  0.00000000000E+00  0.00000000000E+00  0.23554841821E+02  0.23554841821E+02  0.00000000000E+00 0. -1.
         21   -1    0    0  502  503 -0.00000000000E+00 -0.00000000000E+00 -0.16097058239E+01  0.16097058239E+01  0.00000000000E+00 0. -1.
          5    1    1    2  501    0  0.36755174796E+01 -0.11738553506E+01  0.12952630005E+02  0.14309017757E+02  0.47000000000E+01 0. -1.
         -5    1    1    2    0  503 -0.36755174796E+01  0.11738553506E+01  0.89925059925E+01  0.10855529888E+02  0.47000000000E+01 0. -1.
<mgrwt>
<rscale>  2 0.60809017E+01</rscale>
<asrwt>0</asrwt>
<pdfrwt beam="1">  1       21 0.36238216E-02 0.60809017E+01</pdfrwt>
<pdfrwt beam="2">  1       21 0.24764707E-03 0.60809017E+01</pdfrwt>
<totfact> 0.34976661E+09</totfact>
</mgrwt>
</event>
<event>
 4    1  0.3992289E+006  0.6197931E+01  0.7546771E-02  0.2390353E+00
         21   -1    0    0  503  502  0.00000000000E+00  0.00000000000E+00  0.97633041820E+02  0.97633041820E+02  0.00000000000E+00 0.  1.
         21   -1    0    0  501  503 -0.00000000000E+00 -0.00000000000E+00 -0.98804710531E+00  0.98804710531E+00  0.00000000000E+00 0. -1.
          5    1    1    2  501    0 -0.11240109538E+01 -0.38808441215E+01  0.10069981294E+02  0.11824503160E+02  0.47000000000E+01 0. -1.
         -5    1    1    2    0  502  0.11240109538E+01  0.38808441215E+01  0.86575013421E+02  0.86796585766E+02  0.47000000000E+01 0.  1.
<mgrwt>
<rscale>  2 0.61979312E+01</rscale>
<asrwt>0</asrwt>
<pdfrwt beam="1">  1       21 0.15020460E-01 0.61979312E+01</pdfrwt>
<pdfrwt beam="2">  1       21 0.15200732E-03 0.61979312E+01</pdfrwt>
<totfact> 0.80046062E+08</totfact>
</mgrwt>
</event>
<event>
 4    1  0.3992289E+006  0.5968982E+01  0.7546771E-02  0.2419478E+00
         21   -1    0    0  501  502  0.00000000000E+00  0.00000000000E+00  0.73020436728E+00  0.73020436728E+00  0.00000000000E+00 0. -1.
         21   -1    0    0  502  503 -0.00000000000E+00 -0.00000000000E+00 -0.13485376684E+03  0.13485376684E+03  0.00000000000E+00 0. -1.
          5    1    1    2  501    0 -0.97801248545E+00  0.35471442611E+01 -0.12905375060E+02  0.14218911571E+02  0.47000000000E+01 0. -1.
         -5    1    1    2    0  503  0.97801248545E+00 -0.35471442611E+01 -0.12121818742E+03  0.12136505964E+03  0.47000000000E+01 0. -1.
<mgrwt>
<rscale>  2 0.59689816E+01</rscale>
<asrwt>0</asrwt>
<pdfrwt beam="1">  1       21 0.11233915E-03 0.59689816E+01</pdfrwt>
<pdfrwt beam="2">  1       21 0.20746731E-01 0.59689816E+01</pdfrwt>
<totfact> 0.69819675E+08</totfact>
</mgrwt>
</event>
<event>
 4    1  0.3992289E+006  0.5088258E+01  0.7546771E-02  0.2551731E+00
         21   -1    0    0  501  502  0.00000000000E+00  0.00000000000E+00  0.31396543592E+02  0.31396543592E+02  0.00000000000E+00 0. -1.
         21   -1    0    0  502  503 -0.00000000000E+00 -0.00000000000E+00 -0.16554831231E+01  0.16554831231E+01  0.00000000000E+00 0. -1.
          5    1    1    2  501    0  0.45285749313E+00  0.18961259642E+01  0.26578164998E+02  0.27060843081E+02  0.47000000000E+01 0. -1.
         -5    1    1    2    0  503 -0.45285749313E+00 -0.18961259642E+01  0.31628954708E+01  0.59911836343E+01  0.47000000000E+01 0. -1.
<mgrwt>
<rscale>  2 0.50882584E+01</rscale>
<asrwt>0</asrwt>
<pdfrwt beam="1">  1       21 0.48302370E-02 0.50882584E+01</pdfrwt>
<pdfrwt beam="2">  1       21 0.25468973E-03 0.50882584E+01</pdfrwt>
<totfact> 0.18765194E+09</totfact>
</mgrwt>
</event>
<event>
 4    1  0.3992289E+006  0.5758009E+01  0.7546771E-02  0.2448025E+00
         21   -1    0    0  503  502  0.00000000000E+00  0.00000000000E+00  0.13609391183E+02  0.13609391183E+02  0.00000000000E+00 0.  1.
         21   -1    0    0  501  503 -0.00000000000E+00 -0.00000000000E+00 -0.54925048328E+01  0.54925048328E+01  0.00000000000E+00 0.  1.
          5    1    1    2  501    0 -0.32904196954E+01  0.48765019210E+00 -0.30661878965E+01  0.65235092319E+01  0.47000000000E+01 0.  1.
         -5    1    1    2    0  502  0.32904196954E+01 -0.48765019210E+00  0.11183074247E+02  0.12578386784E+02  0.47000000000E+01 0.  1.
<mgrwt>
<rscale>  2 0.57580087E+01</rscale>
<asrwt>0</asrwt>
<pdfrwt beam="1">  1       21 0.20937525E-02 0.57580087E+01</pdfrwt>
<pdfrwt beam="2">  1       21 0.84500075E-03 0.57580087E+01</pdfrwt>
<totfact> 0.13488940E+09</totfact>
</mgrwt>
</event>
<event>
 4    1  0.3992289E+006  0.7482468E+01  0.7546771E-02  0.2254938E+00
         21   -1    0    0  503  502  0.00000000000E+00  0.00000000000E+00  0.48839014708E+00  0.48839014708E+00  0.00000000000E+00 0. -1.
         21   -1    0    0  501  503 -0.00000000000E+00 -0.00000000000E+00 -0.11832870817E+03  0.11832870817E+03  0.00000000000E+00 0. -1.
          5    1    1    2  501    0  0.54810370665E+01  0.19635582551E+01 -0.69414327386E+02  0.69816446306E+02  0.47000000000E+01 0. -1.
         -5    1    1    2    0  502 -0.54810370665E+01 -0.19635582551E+01 -0.48425990637E+02  0.49000652011E+02  0.47000000000E+01 0. -1.
<mgrwt>
<rscale>  2 0.74824681E+01</rscale>
<asrwt>0</asrwt>
<pdfrwt beam="1">  1       21 0.75136927E-04 0.74824681E+01</pdfrwt>
<pdfrwt beam="2">  1       21 0.18204421E-01 0.74824681E+01</pdfrwt>
<totfact> 0.17504466E+09</totfact>
</mgrwt>
</event>
<event>
 4    1  0.3992289E+006  0.6254359E+01  0.7546771E-02  0.2383449E+00
         21   -1    0    0  503  502  0.00000000000E+00  0.00000000000E+00  0.12285894376E+03  0.12285894376E+03  0.00000000000E+00 0. -1.
         21   -1    0    0  501  503 -0.00000000000E+00 -0.00000000000E+00 -0.50311374989E+00  0.50311374989E+00  0.00000000000E+00 0. -1.
          5    1    1    2  501    0 -0.35535070525E+01  0.20975215682E+01  0.23802987257E+02  0.24610957143E+02  0.47000000000E+01 0. -1.
         -5    1    1    2    0  502  0.35535070525E+01 -0.20975215682E+01  0.98552842751E+02  0.98751100365E+02  0.47000000000E+01 0. -1.
<mgrwt>
<rscale>  2 0.62543592E+01</rscale>
<asrwt>0</asrwt>
<pdfrwt beam="1">  1       21 0.18901352E-01 0.62543592E+01</pdfrwt>
<pdfrwt beam="2">  1       21 0.77402213E-04 0.62543592E+01</pdfrwt>
<totfact> 0.13878616E+09</totfact>
</mgrwt>
</event>
<event>
 4    1  0.3992289E+006  0.5832238E+01  0.7546771E-02  0.2437783E+00
         21   -1    0    0  503  502  0.00000000000E+00  0.00000000000E+00  0.39534301055E+01  0.39534301055E+01  0.00000000000E+00 0.  1.
         21   -1    0    0  501  503 -0.00000000000E+00 -0.00000000000E+00 -0.24674525584E+02  0.24674525584E+02  0.00000000000E+00 0.  1.
          5    1    1    2  501    0  0.15381374578E+01 -0.30917851435E+01 -0.21912410913E+02  0.22675289508E+02  0.47000000000E+01 0.  1.
         -5    1    1    2    0  502 -0.15381374578E+01  0.30917851435E+01  0.11913154347E+01  0.59526661823E+01  0.47000000000E+01 0.  1.
<mgrwt>
<rscale>  2 0.58322382E+01</rscale>
<asrwt>0</asrwt>
<pdfrwt beam="1">  1       21 0.60822003E-03 0.58322382E+01</pdfrwt>
<pdfrwt beam="2">  1       21 0.37960808E-02 0.58322382E+01</pdfrwt>
<totfact> 0.91201832E+08</totfact>
</mgrwt>
</event>
<event>
 4    1  0.3992289E+006  0.7552686E+01  0.7546771E-02  0.2248637E+00
         21   -1    0    0  501  502  0.00000000000E+00  0.00000000000E+00  0.53392172351E+02  0.53392172351E+02  0.00000000000E+00 0. -1.
         21   -1    0    0  502  503 -0.00000000000E+00 -0.00000000000E+00 -0.25207996384E+01  0.25207996384E+01  0.00000000000E+00 0.  1.
          5    1    1    2  501    0  0.46430403937E+01 -0.36599505463E+01  0.46656384197E+02  0.47263741371E+02  0.47000000000E+01 0. -1.
         -5    1    1    2    0  503 -0.46430403937E+01  0.36599505463E+01  0.42149885160E+01  0.86492306184E+01  0.47000000000E+01 0.  1.
<mgrwt>
<rscale>  2 0.75526858E+01</rscale>
<asrwt>0</asrwt>
<pdfrwt beam="1">  1       21 0.82141795E-02 0.75526858E+01</pdfrwt>
<pdfrwt beam="2">  1       21 0.38781537E-03 0.75526858E+01</pdfrwt>
<totfact> 0.64955742E+08</totfact>
</mgrwt>
</event>
<event>
 4    1  0.3992289E+006  0.5968502E+01  0.7546771E-02  0.2419541E+00
         21   -1    0    0  501  502  0.00000000000E+00  0.00000000000E+00  0.12895308912E+02  0.12895308912E+02  0.00000000000E+00 0.  1.
         21   -1    0    0  502  503 -0.00000000000E+00 -0.00000000000E+00 -0.86823016427E+01  0.86823016427E+01  0.00000000000E+00 0.  1.
          5    1    1    2  501    0  0.77904357260E+00 -0.35952888855E+01  0.11015120737E+02  0.12528204017E+02  0.47000000000E+01 0.  1.
         -5    1    1    2    0  503 -0.77904357260E+00  0.35952888855E+01 -0.68021134672E+01  0.90494065374E+01  0.47000000000E+01 0.  1.
<mgrwt>
<rscale>  2 0.59685016E+01</rscale>
<asrwt>0</asrwt>
<pdfrwt beam="1">  1       21 0.19838937E-02 0.59685016E+01</pdfrwt>
<pdfrwt beam="2">  1       21 0.13357387E-02 0.59685016E+01</pdfrwt>
<totfact> 0.78684210E+08</totfact>
</mgrwt>
</event>
<event>
 4    1  0.3992289E+006  0.6658659E+01  0.7546771E-02  0.2336846E+00
         21   -1    0    0  503  502  0.00000000000E+00  0.00000000000E+00  0.49471087356E+01  0.49471087356E+01  0.00000000000E+00 0. -1.
         21   -1    0    0  501  503 -0.00000000000E+00 -0.00000000000E+00 -0.10156901935E+02  0.10156901935E+02  0.00000000000E+00 0.  1.
          5    1    1    2  501    0  0.30845727309E+01  0.35683535884E+01 -0.51948000728E+01  0.84453350472E+01  0.47000000000E+01 0.  1.
         -5    1    1    2    0  502 -0.30845727309E+01 -0.35683535884E+01 -0.14993126536E-01  0.66586756234E+01  0.47000000000E+01 0. -1.
<mgrwt>
<rscale>  2 0.66586587E+01</rscale>
<asrwt>0</asrwt>
<pdfrwt beam="1">  1       21 0.76109366E-03 0.66586587E+01</pdfrwt>
<pdfrwt beam="2">  1       21 0.15626003E-02 0.66586587E+01</pdfrwt>
<totfact> 0.26883203E+09</totfact>
</mgrwt>
</event>
<event>
 4    1  0.3992289E+006  0.6983668E+01  0.7546771E-02  0.2302643E+00
         21   -1    0    0  501  502  0.00000000000E+00  0.00000000000E+00  0.34805089582E+02  0.34805089582E+02  0.00000000000E+00 0. -1.
         21   -1    0    0  502  503 -0.00000000000E+00 -0.00000000000E+00 -0.24081495087E+01  0.24081495087E+01  0.00000000000E+00 0. -1.
          5    1    1    2  501    0 -0.50888509946E+01 -0.88612331164E+00  0.28229774079E+02  0.29080779967E+02  0.47000000000E+01 0. -1.
         -5    1    1    2    0  503  0.50888509946E+01  0.88612331164E+00  0.41671659948E+01  0.81324591236E+01  0.47000000000E+01 0. -1.
<mgrwt>
<rscale>  2 0.69836680E+01</rscale>
<asrwt>0</asrwt>
<pdfrwt beam="1">  1       21 0.53546288E-02 0.69836680E+01</pdfrwt>
<pdfrwt beam="2">  1       21 0.37048457E-03 0.69836680E+01</pdfrwt>
<totfact> 0.12570238E+09</totfact>
</mgrwt>
</event>
<event>
 4    1  0.3992289E+006  0.7458028E+01  0.7546771E-02  0.2257154E+00
         21   -1    0    0  501  502  0.00000000000E+00  0.00000000000E+00  0.14787876363E+01  0.14787876363E+01  0.00000000000E+00 0. -1.
         21   -1    0    0  502  503 -0.00000000000E+00 -0.00000000000E+00 -0.45774946872E+02  0.45774946872E+02  0.00000000000E+00 0.  1.
          5    1    1    2  501    0  0.48967255925E+01 -0.30909957149E+01 -0.12171551221E+02  0.14274762175E+02  0.47000000000E+01 0. -1.
         -5    1    1    2    0  503 -0.48967255925E+01  0.30909957149E+01 -0.32124608015E+02  0.32978972334E+02  0.47000000000E+01 0.  1.
<mgrwt>
<rscale>  2 0.74580276E+01</rscale>
<asrwt>0</asrwt>
<pdfrwt beam="1">  1       21 0.22750586E-03 0.74580276E+01</pdfrwt>
<pdfrwt beam="2">  1       21 0.70422974E-02 0.74580276E+01</pdfrwt>
<totfact> 0.17121296E+09</totfact>
</mgrwt>
</event>
<event>
 4    1  0.3992289E+006  0.1226441E+02  0.7546771E-02  0.1965196E+00
         21   -1    0    0  501  502  0.00000000000E+00  0.00000000000E+00  0.27360914619E+02  0.27360914619E+02  0.00000000000E+00 0. -1.
         21   -1    0    0  502  503 -0.00000000000E+00 -0.00000000000E+00 -0.89601969131E+01  0.89601969131E+01  0.00000000000E+00 0. -1.
          5    1    1    2  501    0 -0.24076206042E+01 -0.11069290727E+02  0.20489981284E+02  0.23880016064E+02  0.47000000000E+01 0. -1.
         -5    1    1    2    0  503  0.24076206042E+01  0.11069290727E+02 -0.20892635780E+01  0.12441095469E+02  0.47000000000E+01 0. -1.
<mgrwt>
<rscale>  2 0.12264413E+02</rscale>
<asrwt>0</asrwt>
<pdfrwt beam="1">  1       21 0.42093714E-02 0.12264413E+02</pdfrwt>
<pdfrwt beam="2">  1       21 0.13784918E-02 0.12264413E+02</pdfrwt>
<totfact> 0.38531495E+08</totfact>
</mgrwt>
</event>
<event>
 4    1  0.3992289E+006  0.6345339E+01  0.7546771E-02  0.2372533E+00
         21   -1    0    0  503  502  0.00000000000E+00  0.00000000000E+00  0.20367858828E+01  0.20367858828E+01  0.00000000000E+00 0. -1.
         21   -1    0    0  501  503 -0.00000000000E+00 -0.00000000000E+00 -0.22629929740E+02  0.22629929740E+02  0.00000000000E+00 0.  1.
          5    1    1    2  501    0  0.40284025612E+00 -0.42439420273E+01 -0.14682524839E+02  0.15994994837E+02  0.47000000000E+01 0.  1.
         -5    1    1    2    0  502 -0.40284025612E+00  0.42439420273E+01 -0.59106190189E+01  0.86717207860E+01  0.47000000000E+01 0.  1.
<mgrwt>
<rscale>  2 0.63453388E+01</rscale>
<asrwt>0</asrwt>
<pdfrwt beam="1">  1       21 0.31335168E-03 0.63453388E+01</pdfrwt>
<pdfrwt beam="2">  1       21 0.34815275E-02 0.63453388E+01</pdfrwt>
<totfact> 0.27853147E+09</totfact>
</mgrwt>
</event>
<event>
 4    1  0.3992289E+006  0.6010574E+01  0.7546771E-02  0.2414049E+00
         21   -1    0    0  503  502  0.00000000000E+00  0.00000000000E+00  0.23888892542E+02  0.23888892542E+02  0.00000000000E+00 0.  1.
         21   -1    0    0  501  503 -0.00000000000E+00 -0.00000000000E+00 -0.15894558079E+01  0.15894558079E+01  0.00000000000E+00 0. -1.
          5    1    1    2  501    0  0.19305949397E+01  0.32108875715E+01  0.83428494171E+01  0.10282515850E+02  0.47000000000E+01 0.  1.
         -5    1    1    2    0  502 -0.19305949397E+01 -0.32108875715E+01  0.13956587317E+02  0.15195832500E+02  0.47000000000E+01 0. -1.
<mgrwt>
<rscale>  2 0.60105737E+01</rscale>
<asrwt>0</asrwt>
<pdfrwt beam="1">  1       21 0.36752140E-02 0.60105737E+01</pdfrwt>
<pdfrwt beam="2">  1       21 0.24453168E-03 0.60105737E+01</pdfrwt>
<totfact> 0.34504451E+09</totfact>
</mgrwt>
</event>
<event>
 4    1  0.3992289E+006  0.5489561E+01  0.7546771E-02  0.2487005E+00
         21   -1    0    0  503  502  0.00000000000E+00  0.00000000000E+00  0.28280684853E+02  0.28280684853E+02  0.00000000000E+00 0.  1.
         21   -1    0    0  501  503 -0.00000000000E+00 -0.00000000000E+00 -0.14096750044E+01  0.14096750044E+01  0.00000000000E+00 0.  1.
          5    1    1    2  501    0 -0.18351918986E+01 -0.21627171992E+01  0.61010739479E+01  0.82072150152E+01  0.47000000000E+01 0.  1.
         -5    1    1    2    0  502  0.18351918986E+01  0.21627171992E+01  0.20769935900E+02  0.21483144842E+02  0.47000000000E+01 0.  1.
<mgrwt>
<rscale>  2 0.54895605E+01</rscale>
<asrwt>0</asrwt>
<pdfrwt beam="1">  1       21 0.43508742E-02 0.54895605E+01</pdfrwt>
<pdfrwt beam="2">  1       21 0.21687310E-03 0.54895605E+01</pdfrwt>
<totfact> 0.29241905E+09</totfact>
</mgrwt>
</event>
<event>
 4    1  0.3992289E+006  0.5055348E+01  0.7546771E-02  0.2557428E+00
         21   -1    0    0  501  502  0.00000000000E+00  0.00000000000E+00  0.31533246585E+01  0.31533246585E+01  0.00000000000E+00 0.  1.
         21   -1    0    0  502  503 -0.00000000000E+00 -0.00000000000E+00 -0.11230201474E+02  0.11230201474E+02  0.00000000000E+00 0.  1.
          5    1    1    2  501    0 -0.32255862225E-01 -0.18615863612E+01 -0.24436269726E+00  0.50612505716E+01  0.47000000000E+01 0.  1.
         -5    1    1    2    0  503  0.32255862225E-01  0.18615863612E+01 -0.78325141187E+01  0.93222755613E+01  0.47000000000E+01 0.  1.
<mgrwt>
<rscale>  2 0.50553481E+01</rscale>
<asrwt>0</asrwt>
<pdfrwt beam="1">  1       21 0.48512687E-03 0.50553481E+01</pdfrwt>
<pdfrwt beam="2">  1       21 0.17277233E-02 0.50553481E+01</pdfrwt>
<totfact> 0.33877652E+09</totfact>
</mgrwt>
</event>
<event>
 4    1  0.3992289E+006  0.7818399E+01  0.7546771E-02  0.2225626E+00
         21   -1    0    0  503  502  0.00000000000E+00  0.00000000000E+00  0.35694192824E+01  0.35694192824E+01  0.00000000000E+00 0.  1.
         21   -1    0    0  501  503 -0.00000000000E+00 -0.00000000000E+00 -0.44273866221E+02  0.44273866221E+02  0.00000000000E+00 0.  1.
          5    1    1    2  501    0  0.36551335509E+01  0.50672840829E+01 -0.39084507771E+02  0.39858827341E+02  0.47000000000E+01 0.  1.
         -5    1    1    2    0  502 -0.36551335509E+01 -0.50672840829E+01 -0.16199391678E+01  0.79844581631E+01  0.47000000000E+01 0.  1.
<mgrwt>
<rscale>  2 0.78183994E+01</rscale>
<asrwt>0</asrwt>
<pdfrwt beam="1">  1       21 0.54914146E-03 0.78183994E+01</pdfrwt>
<pdfrwt beam="2">  1       21 0.68113636E-02 0.78183994E+01</pdfrwt>
<totfact> 0.54338988E+08</totfact>
</mgrwt>
</event>
<event>
 4    1  0.3992289E+006  0.5647419E+01  0.7546771E-02  0.2463703E+00
         21   -1    0    0  503  502  0.00000000000E+00  0.00000000000E+00  0.20435976025E+03  0.20435976025E+03  0.00000000000E+00 0. -1.
         21   -1    0    0  501  503 -0.00000000000E+00 -0.00000000000E+00 -0.16470240281E+00  0.16470240281E+00  0.00000000000E+00 0.  1.
          5    1    1    2  501    0 -0.24100226473E+01  0.19987815829E+01  0.78678689271E+02  0.78881109794E+02  0.47000000000E+01 0.  1.
         -5    1    1    2    0  502  0.24100226473E+01 -0.19987815829E+01  0.12551636858E+03  0.12564335286E+03  0.47000000000E+01 0.  1.
<mgrwt>
<rscale>  2 0.56474186E+01</rscale>
<asrwt>0</asrwt>
<pdfrwt beam="1">  1       21 0.31439760E-01 0.56474186E+01</pdfrwt>
<pdfrwt beam="2">  1       21 0.25338995E-04 0.56474186E+01</pdfrwt>
<totfact> 0.24607104E+09</totfact>
</mgrwt>
</event>
<event>
 4    1  0.3992289E+006  0.5731087E+01  0.7546771E-02  0.2451794E+00
         21   -1    0    0  503  502  0.00000000000E+00  0.00000000000E+00  0.66835202175E+00  0.66835202175E+00  0.00000000000E+00 0. -1.
         21   -1    0    0  501  503 -0.00000000000E+00 -0.00000000000E+00 -0.49337356547E+02  0.49337356547E+02  0.00000000000E+00 0.  1.
          5    1    1    2  501    0 -0.19135532978E+00 -0.32739495571E+01 -0.25900525017E+02  0.26527015639E+02  0.47000000000E+01 0.  1.
         -5    1    1    2    0  502  0.19135532978E+00  0.32739495571E+01 -0.22768479509E+02  0.23478692930E+02  0.47000000000E+01 0.  1.
<mgrwt>
<rscale>  2 0.57310874E+01</rscale>
<asrwt>0</asrwt>
<pdfrwt beam="1">  1       21 0.10282337E-03 0.57310874E+01</pdfrwt>
<pdfrwt beam="2">  1       21 0.75903639E-02 0.57310874E+01</pdfrwt>
<totfact> 0.36394615E+09</totfact>
</mgrwt>
</event>
<event>
 4    1  0.3992289E+006  0.7807586E+01  0.7546771E-02  0.2226538E+00
         21   -1    0    0  501  502  0.00000000000E+00  0.00000000000E+00  0.16987075636E+02  0.16987075636E+02  0.00000000000E+00 0.  1.
         21   -1    0    0  502  503 -0.00000000000E+00 -0.00000000000E+00 -0.42962220395E+02  0.42962220395E+02  0.00000000000E+00 0. -1.
          5    1    1    2  501    0  0.61582839575E+01  0.97156781621E+00  0.15707932267E+02  0.17541309570E+02  0.47000000000E+01 0.  1.
         -5    1    1    2    0  503 -0.61582839575E+01 -0.97156781621E+00 -0.41683077026E+02  0.42407986461E+02  0.47000000000E+01 0. -1.
<mgrwt>
<rscale>  2 0.78075864E+01</rscale>
<asrwt>0</asrwt>
<pdfrwt beam="1">  1       21 0.26133963E-02 0.78075864E+01</pdfrwt>
<pdfrwt beam="2">  1       21 0.66095722E-02 0.78075864E+01</pdfrwt>
<totfact> 0.60103021E+07</totfact>
</mgrwt>
</event>
<event>
 4    1  0.3992289E+006  0.7102838E+01  0.7546771E-02  0.2290749E+00
         21   -1    0    0  503  502  0.00000000000E+00  0.00000000000E+00  0.36910503638E+03  0.36910503638E+03  0.00000000000E+00 0. -1.
         21   -1    0    0  501  503 -0.00000000000E+00 -0.00000000000E+00 -0.41996850213E+00  0.41996850213E+00  0.00000000000E+00 0.  1.
          5    1    1    2  501    0  0.17561095842E+01 -0.50275622854E+01  0.32596336410E+02  0.33361226757E+02  0.47000000000E+01 0.  1.
         -5    1    1    2    0  502 -0.17561095842E+01  0.50275622854E+01  0.33608873147E+03  0.33616377813E+03  0.47000000000E+01 0. -1.
<mgrwt>
<rscale>  2 0.71028377E+01</rscale>
<asrwt>0</asrwt>
<pdfrwt beam="1">  1       21 0.56785131E-01 0.71028377E+01</pdfrwt>
<pdfrwt beam="2">  1       21 0.64610834E-04 0.71028377E+01</pdfrwt>
<totfact> 0.29042659E+08</totfact>
</mgrwt>
</event>
<event>
 4    1  0.3992289E+006  0.4824971E+01  0.7546771E-02  0.2599173E+00
         21   -1    0    0  503  502  0.00000000000E+00  0.00000000000E+00  0.15026233499E+00  0.15026233499E+00  0.00000000000E+00 0. -1.
         21   -1    0    0  501  503 -0.00000000000E+00 -0.00000000000E+00 -0.18948139436E+03  0.18948139436E+03  0.00000000000E+00 0. -1.
          5    1    1    2  501    0  0.10435586436E+01  0.31831707349E+00 -0.13515317347E+03  0.13523927181E+03  0.47000000000E+01 0.  1.
         -5    1    1    2    0  502 -0.10435586436E+01 -0.31831707349E+00 -0.54177958552E+02  0.54392384883E+02  0.47000000000E+01 0.  1.
<mgrwt>
<rscale>  2 0.48249705E+01</rscale>
<asrwt>0</asrwt>
<pdfrwt beam="1">  1       21 0.23117276E-04 0.48249705E+01</pdfrwt>
<pdfrwt beam="2">  1       21 0.29150992E-01 0.48249705E+01</pdfrwt>
<totfact> 0.27390331E+09</totfact>
</mgrwt>
</event>
<event>
 4    1  0.3992289E+006  0.5523918E+01  0.7546771E-02  0.2481837E+00
         21   -1    0    0  503  502  0.00000000000E+00  0.00000000000E+00  0.84635069767E+02  0.84635069767E+02  0.00000000000E+00 0.  1.
         21   -1    0    0  501  503 -0.00000000000E+00 -0.00000000000E+00 -0.37006424293E+00  0.37006424293E+00  0.00000000000E+00 0.  1.
          5    1    1    2  501    0 -0.21967069743E+01 -0.18968772185E+01  0.35311150908E+02  0.35740607762E+02  0.47000000000E+01 0. -1.
         -5    1    1    2    0  502  0.21967069743E+01  0.18968772185E+01  0.48953854616E+02  0.49264526248E+02  0.47000000000E+01 0. -1.
<mgrwt>
<rscale>  2 0.55239175E+01</rscale>
<asrwt>0</asrwt>
<pdfrwt beam="1">  1       21 0.13020765E-01 0.55239175E+01</pdfrwt>
<pdfrwt beam="2">  1       21 0.56933028E-04 0.55239175E+01</pdfrwt>
<totfact> 0.33999899E+09</totfact>
</mgrwt>
</event>
<event>
 4    1  0.3992289E+006  0.4826240E+01  0.7546771E-02  0.2598934E+00
         21   -1    0    0  503  502  0.00000000000E+00  0.00000000000E+00  0.35165373947E+03  0.35165373947E+03  0.00000000000E+00 0.  1.
         21   -1    0    0  501  503 -0.00000000000E+00 -0.00000000000E+00 -0.66265196722E-01  0.66265196722E-01  0.00000000000E+00 0.  1.
          5    1    1    2  501    0 -0.70721913991E+00  0.83811110264E+00  0.17218451266E+03  0.17225213783E+03  0.47000000000E+01 0. -1.
         -5    1    1    2    0  502  0.70721913991E+00 -0.83811110264E+00  0.17940296162E+03  0.17946786684E+03  0.47000000000E+01 0. -1.
<mgrwt>
<rscale>  2 0.48262396E+01</rscale>
<asrwt>0</asrwt>
<pdfrwt beam="1">  1       21 0.54099081E-01 0.48262396E+01</pdfrwt>
<pdfrwt beam="2">  1       21 0.10194927E-04 0.48262396E+01</pdfrwt>
<totfact> 0.27998816E+09</totfact>
</mgrwt>
</event>
<event>
 4    1  0.3992289E+006  0.4811554E+01  0.7546771E-02  0.2601710E+00
         21   -1    0    0  501  502  0.00000000000E+00  0.00000000000E+00  0.13066620134E+03  0.13066620134E+03  0.00000000000E+00 0.  1.
         21   -1    0    0  502  503 -0.00000000000E+00 -0.00000000000E+00 -0.28501758508E+00  0.28501758508E+00  0.00000000000E+00 0. -1.
          5    1    1    2  501    0 -0.62169358271E+00 -0.82130691294E+00  0.10546552263E+03  0.10557522205E+03  0.47000000000E+01 0.  1.
         -5    1    1    2    0  503  0.62169358271E+00  0.82130691294E+00  0.24915661130E+02  0.25375996877E+02  0.47000000000E+01 0. -1.
<mgrwt>
<rscale>  2 0.48115536E+01</rscale>
<asrwt>0</asrwt>
<pdfrwt beam="1">  1       21 0.20102445E-01 0.48115536E+01</pdfrwt>
<pdfrwt beam="2">  1       21 0.43848964E-04 0.48115536E+01</pdfrwt>
<totfact> 0.21361193E+09</totfact>
</mgrwt>
</event>
<event>
 4    1  0.3992289E+006  0.7385950E+01  0.7546771E-02  0.2263758E+00
         21   -1    0    0  503  502  0.00000000000E+00  0.00000000000E+00  0.40335660603E+01  0.40335660603E+01  0.00000000000E+00 0. -1.
         21   -1    0    0  501  503 -0.00000000000E+00 -0.00000000000E+00 -0.16700798980E+02  0.16700798980E+02  0.00000000000E+00 0.  1.
          5    1    1    2  501    0  0.50134750264E+01 -0.27069021408E+01 -0.10854756360E+02  0.13129279747E+02  0.47000000000E+01 0.  1.
         -5    1    1    2    0  502 -0.50134750264E+01  0.27069021408E+01 -0.18124765598E+01  0.76050852934E+01  0.47000000000E+01 0. -1.
<mgrwt>
<rscale>  2 0.73859496E+01</rscale>
<asrwt>0</asrwt>
<pdfrwt beam="1">  1       21 0.62054862E-03 0.73859496E+01</pdfrwt>
<pdfrwt beam="2">  1       21 0.25693537E-02 0.73859496E+01</pdfrwt>
<totfact> 0.18893756E+09</totfact>
</mgrwt>
</event>
<event>
 4    1  0.3992289E+006  0.8110299E+01  0.7546771E-02  0.2201762E+00
         21   -1    0    0  501  502  0.00000000000E+00  0.00000000000E+00  0.86841374967E+02  0.86841374967E+02  0.00000000000E+00 0. -1.
         21   -1    0    0  502  503 -0.00000000000E+00 -0.00000000000E+00 -0.75875104798E+00  0.75875104798E+00  0.00000000000E+00 0.  1.
          5    1    1    2  501    0  0.65956434631E+01 -0.42946203085E+00  0.41219184324E+02  0.42009500196E+02  0.47000000000E+01 0. -1.
         -5    1    1    2    0  503 -0.65956434631E+01  0.42946203085E+00  0.44863439595E+02  0.45590625819E+02  0.47000000000E+01 0.  1.
<mgrwt>
<rscale>  2 0.81102990E+01</rscale>
<asrwt>0</asrwt>
<pdfrwt beam="1">  1       21 0.13360204E-01 0.81102990E+01</pdfrwt>
<pdfrwt beam="2">  1       21 0.11673100E-03 0.81102990E+01</pdfrwt>
<totfact> 0.16714461E+09</totfact>
</mgrwt>
</event>
<event>
 4    1  0.3992289E+006  0.5372680E+01  0.7546771E-02  0.2505004E+00
         21   -1    0    0  503  502  0.00000000000E+00  0.00000000000E+00  0.85424397942E+01  0.85424397942E+01  0.00000000000E+00 0. -1.
         21   -1    0    0  501  503 -0.00000000000E+00 -0.00000000000E+00 -0.50791387552E+01  0.50791387552E+01  0.00000000000E+00 0. -1.
          5    1    1    2  501    0  0.25786561733E+01 -0.35527494949E+00 -0.22086819536E+01  0.58089554932E+01  0.47000000000E+01 0. -1.
         -5    1    1    2    0  502 -0.25786561733E+01  0.35527494949E+00  0.56719829926E+01  0.78126230562E+01  0.47000000000E+01 0. -1.
<mgrwt>
<rscale>  2 0.53726798E+01</rscale>
<asrwt>0</asrwt>
<pdfrwt beam="1">  1       21 0.13142215E-02 0.53726798E+01</pdfrwt>
<pdfrwt beam="2">  1       21 0.78140596E-03 0.53726798E+01</pdfrwt>
<totfact> 0.27409169E+09</totfact>
</mgrwt>
</event>
<event>
 4    1  0.3992289E+006  0.2192923E+02  0.7546771E-02  0.1709479E+00
         21   -1    0    0  501  502  0.00000000000E+00  0.00000000000E+00  0.45598999977E+03  0.45598999977E+03  0.00000000000E+00 0.  1.
         21   -1    0    0  502  503 -0.00000000000E+00 -0.00000000000E+00 -0.10547233924E+01  0.10547233924E+01  0.00000000000E+00 0. -1.
          5    1    1    2  501    0  0.39596216810E+01  0.21050471486E+02  0.22985218428E+03  0.23089590203E+03  0.47000000000E+01 0. -1.
         -5    1    1    2    0  503 -0.39596216810E+01 -0.21050471486E+02  0.22508309209E+03  0.22614882113E+03  0.47000000000E+01 0.  1.
<mgrwt>
<rscale>  2 0.21929226E+02</rscale>
<asrwt>0</asrwt>
<pdfrwt beam="1">  1       21 0.70152150E-01 0.21929226E+02</pdfrwt>
<pdfrwt beam="2">  1       21 0.16226550E-03 0.21929226E+02</pdfrwt>
<totfact> 0.83214630E+07</totfact>
</mgrwt>
</event>
<event>
 4    1  0.3992289E+006  0.5222360E+01  0.7546771E-02  0.2529157E+00
         21   -1    0    0  501  502  0.00000000000E+00  0.00000000000E+00  0.11439268193E+01  0.11439268193E+01  0.00000000000E+00 0.  1.
         21   -1    0    0  502  503 -0.00000000000E+00 -0.00000000000E+00 -0.79108472751E+02  0.79108472751E+02  0.00000000000E+00 0.  1.
          5    1    1    2  501    0 -0.45012706203E+00 -0.22316875615E+01 -0.54433599580E+01  0.75434217286E+01  0.47000000000E+01 0.  1.
         -5    1    1    2    0  503  0.45012706203E+00  0.22316875615E+01 -0.72521185974E+02  0.72708977842E+02  0.47000000000E+01 0.  1.
<mgrwt>
<rscale>  2 0.52223600E+01</rscale>
<asrwt>0</asrwt>
<pdfrwt beam="1">  1       21 0.17598861E-03 0.52223600E+01</pdfrwt>
<pdfrwt beam="2">  1       21 0.12170543E-01 0.52223600E+01</pdfrwt>
<totfact> 0.79434304E+08</totfact>
</mgrwt>
</event>
<event>
 4    1  0.3992289E+006  0.6759255E+01  0.7546771E-02  0.2325971E+00
         21   -1    0    0  501  502  0.00000000000E+00  0.00000000000E+00  0.39347288060E+00  0.39347288060E+00  0.00000000000E+00 0.  1.
         21   -1    0    0  502  503 -0.00000000000E+00 -0.00000000000E+00 -0.12547858950E+03  0.12547858950E+03  0.00000000000E+00 0.  1.
          5    1    1    2  501    0 -0.14500430245E+01 -0.46362590844E+01 -0.45348835146E+02  0.45849802313E+02  0.47000000000E+01 0.  1.
         -5    1    1    2    0  503  0.14500430245E+01  0.46362590844E+01 -0.79736281469E+02  0.80022260063E+02  0.47000000000E+01 0.  1.
<mgrwt>
<rscale>  2 0.67592546E+01</rscale>
<asrwt>0</asrwt>
<pdfrwt beam="1">  1       21 0.60534235E-04 0.67592546E+01</pdfrwt>
<pdfrwt beam="2">  1       21 0.19304416E-01 0.67592546E+01</pdfrwt>
<totfact> 0.19799986E+09</totfact>
</mgrwt>
</event>
<event>
 4    1  0.3992289E+006  0.4822566E+01  0.7546771E-02  0.2599627E+00
         21   -1    0    0  501  502  0.00000000000E+00  0.00000000000E+00  0.19132715536E+01  0.19132715536E+01  0.00000000000E+00 0. -1.
         21   -1    0    0  502  503 -0.00000000000E+00 -0.00000000000E+00 -0.31326746822E+02  0.31326746822E+02  0.00000000000E+00 0. -1.
          5    1    1    2  501    0 -0.10178901302E+01 -0.36199291441E+00 -0.17051430832E+01  0.51151395016E+01  0.47000000000E+01 0. -1.
         -5    1    1    2    0  503  0.10178901302E+01  0.36199291441E+00 -0.27708332186E+02  0.28124878874E+02  0.47000000000E+01 0. -1.
<mgrwt>
<rscale>  2 0.48225656E+01</rscale>
<asrwt>0</asrwt>
<pdfrwt beam="1">  1       21 0.29434949E-03 0.48225656E+01</pdfrwt>
<pdfrwt beam="2">  1       21 0.48194991E-02 0.48225656E+01</pdfrwt>
<totfact> 0.14683309E+09</totfact>
</mgrwt>
</event>
<event>
 4    1  0.3992289E+006  0.5352474E+01  0.7546771E-02  0.2508183E+00
         21   -1    0    0  501  502  0.00000000000E+00  0.00000000000E+00  0.11428201986E+03  0.11428201986E+03  0.00000000000E+00 0.  1.
         21   -1    0    0  502  503 -0.00000000000E+00 -0.00000000000E+00 -0.29751167097E+00  0.29751167097E+00  0.00000000000E+00 0. -1.
          5    1    1    2  501    0  0.25599391701E+01 -0.75436033546E-01  0.79720396112E+02  0.79899878194E+02  0.47000000000E+01 0.  1.
         -5    1    1    2    0  503 -0.25599391701E+01  0.75436033546E-01  0.34264112077E+02  0.34679653337E+02  0.47000000000E+01 0. -1.
<mgrwt>
<rscale>  2 0.53524741E+01</rscale>
<asrwt>0</asrwt>
<pdfrwt beam="1">  1       21 0.17581814E-01 0.53524741E+01</pdfrwt>
<pdfrwt beam="2">  1       21 0.45771117E-04 0.53524741E+01</pdfrwt>
<totfact> 0.27591289E+09</totfact>
</mgrwt>
</event>
<event>
 4    1  0.3992289E+006  0.4851831E+01  0.7546771E-02  0.2594129E+00
         21   -1    0    0  503  502  0.00000000000E+00  0.00000000000E+00  0.12720555596E+04  0.12720555596E+04  0.00000000000E+00 0.  1.
         21   -1    0    0  501  503 -0.00000000000E+00 -0.00000000000E+00 -0.36900857899E+00  0.36900857899E+00  0.00000000000E+00 0.  1.
          5    1    1    2  501    0  0.63354286199E+00 -0.10241533675E+01  0.15789124440E+02  0.16517769743E+02  0.47000000000E+01 0.  1.
         -5    1    1    2    0  502 -0.63354286199E+00  0.10241533675E+01  0.12558974266E+04  0.12559067984E+04  0.47000000000E+01 0.  1.
<mgrwt>
<rscale>  2 0.48518313E+01</rscale>
<asrwt>0</asrwt>
<pdfrwt beam="1">  1       21 0.19569735E+00 0.48518313E+01</pdfrwt>
<pdfrwt beam="2">  1       21 0.56771569E-04 0.48518313E+01</pdfrwt>
<totfact> 0.22418199E+07</totfact>
</mgrwt>
</event>
<event>
 4    1  0.3992289E+006  0.2027557E+02  0.7546771E-02  0.1739903E+00
         21   -1    0    0  503  502  0.00000000000E+00  0.00000000000E+00  0.36036478250E+01  0.36036478250E+01  0.00000000000E+00 0.  1.
         21   -1    0    0  501  503 -0.00000000000E+00 -0.00000000000E+00 -0.13494793780E+03  0.13494793780E+03  0.00000000000E+00 0. -1.
          5    1    1    2  501    0  0.15628562928E+02  0.12031492130E+02 -0.92915063249E+02  0.95101565501E+02  0.47000000000E+01 0. -1.
         -5    1    1    2    0  502 -0.15628562928E+02 -0.12031492130E+02 -0.38429226729E+02  0.43450020128E+02  0.47000000000E+01 0.  1.
<mgrwt>
<rscale>  2 0.20275571E+02</rscale>
<asrwt>0</asrwt>
<pdfrwt beam="1">  1       21 0.55440741E-03 0.20275571E+02</pdfrwt>
<pdfrwt beam="2">  1       21 0.20761219E-01 0.20275571E+02</pdfrwt>
<totfact> 0.13395145E+08</totfact>
</mgrwt>
</event>
<event>
 4    1  0.3992289E+006  0.4905029E+01  0.7546771E-02  0.2584282E+00
         21   -1    0    0  503  502  0.00000000000E+00  0.00000000000E+00  0.48601822570E+00  0.48601822570E+00  0.00000000000E+00 0.  1.
         21   -1    0    0  501  503 -0.00000000000E+00 -0.00000000000E+00 -0.55838954807E+02  0.55838954807E+02  0.00000000000E+00 0. -1.
          5    1    1    2  501    0 -0.13769804031E+01  0.27061222304E+00 -0.18189832766E+02  0.18839567990E+02  0.47000000000E+01 0.  1.
         -5    1    1    2    0  502  0.13769804031E+01 -0.27061222304E+00 -0.37163103815E+02  0.37485405042E+02  0.47000000000E+01 0. -1.
<mgrwt>
<rscale>  2 0.49050286E+01</rscale>
<asrwt>0</asrwt>
<pdfrwt beam="1">  1       21 0.74772048E-04 0.49050286E+01</pdfrwt>
<pdfrwt beam="2">  1       21 0.85906070E-02 0.49050286E+01</pdfrwt>
<totfact> 0.39733397E+09</totfact>
</mgrwt>
</event>
<event>
 4    1  0.3992289E+006  0.1021816E+02  0.7546771E-02  0.2062780E+00
         21   -1    0    0  501  502  0.00000000000E+00  0.00000000000E+00  0.16920768252E+02  0.16920768252E+02  0.00000000000E+00 0. -1.
         21   -1    0    0  502  503 -0.00000000000E+00 -0.00000000000E+00 -0.71383452908E+01  0.71383452908E+01  0.00000000000E+00 0.  1.
          5    1    1    2  501    0  0.80436123567E+01  0.41977513337E+01  0.93205380691E+01  0.13830518642E+02  0.47000000000E+01 0.  1.
         -5    1    1    2    0  503 -0.80436123567E+01 -0.41977513337E+01  0.46188489250E+00  0.10228594901E+02  0.47000000000E+01 0.  1.
<mgrwt>
<rscale>  2 0.10218161E+02</rscale>
<asrwt>0</asrwt>
<pdfrwt beam="1">  1       21 0.26031951E-02 0.10218161E+02</pdfrwt>
<pdfrwt beam="2">  1       21 0.10982070E-02 0.10218161E+02</pdfrwt>
<totfact> 0.10117114E+09</totfact>
</mgrwt>
</event>
<event>
 4    1  0.3992289E+006  0.5181903E+01  0.7546771E-02  0.2535862E+00
         21   -1    0    0  503  502  0.00000000000E+00  0.00000000000E+00  0.17234280570E+03  0.17234280570E+03  0.00000000000E+00 0.  1.
         21   -1    0    0  501  503 -0.00000000000E+00 -0.00000000000E+00 -0.26749927063E+00  0.26749927063E+00  0.00000000000E+00 0. -1.
          5    1    1    2  501    0  0.14432258733E+01  0.16368328125E+01  0.30269272874E+02  0.30709623946E+02  0.47000000000E+01 0. -1.
         -5    1    1    2    0  502 -0.14432258733E+01 -0.16368328125E+01  0.14180603355E+03  0.14190068102E+03  0.47000000000E+01 0.  1.
<mgrwt>
<rscale>  2 0.51819034E+01</rscale>
<asrwt>0</asrwt>
<pdfrwt beam="1">  1       21 0.26514189E-01 0.51819034E+01</pdfrwt>
<pdfrwt beam="2">  1       21 0.41153872E-04 0.51819034E+01</pdfrwt>
<totfact> 0.15925032E+09</totfact>
</mgrwt>
</event>
<event>
 4    1  0.3992289E+006  0.5920701E+01  0.7546771E-02  0.2425860E+00
         21   -1    0    0  503  502  0.00000000000E+00  0.00000000000E+00  0.64115810241E-01  0.64115810241E-01  0.00000000000E+00 0.  1.
         21   -1    0    0  501  503 -0.00000000000E+00 -0.00000000000E+00 -0.61521193581E+03  0.61521193581E+03  0.00000000000E+00 0.  1.
          5    1    1    2  501    0 -0.24543539087E+01  0.26345486025E+01 -0.41020593221E+03  0.41024865815E+03  0.47000000000E+01 0.  1.
         -5    1    1    2    0  502  0.24543539087E+01 -0.26345486025E+01 -0.20494188779E+03  0.20502739346E+03  0.47000000000E+01 0.  1.
<mgrwt>
<rscale>  2 0.59207009E+01</rscale>
<asrwt>0</asrwt>
<pdfrwt beam="1">  1       21 0.98643592E-05 0.59207009E+01</pdfrwt>
<pdfrwt beam="2">  1       21 0.94644264E-01 0.59207009E+01</pdfrwt>
<totfact> 0.11946019E+09</totfact>
</mgrwt>
</event>
<event>
 4    1  0.3992289E+006  0.5139833E+01  0.7546771E-02  0.2542930E+00
         21   -1    0    0  503  502  0.00000000000E+00  0.00000000000E+00  0.19898700637E+01  0.19898700637E+01  0.00000000000E+00 0. -1.
         21   -1    0    0  501  503 -0.00000000000E+00 -0.00000000000E+00 -0.28502623082E+02  0.28502623082E+02  0.00000000000E+00 0. -1.
          5    1    1    2  501    0 -0.58722313734E+00  0.19957593703E+01 -0.24399826297E+02  0.24935304486E+02  0.47000000000E+01 0. -1.
         -5    1    1    2    0  502  0.58722313734E+00 -0.19957593703E+01 -0.21129267220E+01  0.55571886606E+01  0.47000000000E+01 0. -1.
<mgrwt>
<rscale>  2 0.51398333E+01</rscale>
<asrwt>0</asrwt>
<pdfrwt beam="1">  1       21 0.30613387E-03 0.51398333E+01</pdfrwt>
<pdfrwt beam="2">  1       21 0.43850188E-02 0.51398333E+01</pdfrwt>
<totfact> 0.16998315E+09</totfact>
</mgrwt>
</event>
<event>
 4    1  0.3992289E+006  0.7756757E+01  0.7546771E-02  0.2230851E+00
         21   -1    0    0  501  502  0.00000000000E+00  0.00000000000E+00  0.17790406838E+00  0.17790406838E+00  0.00000000000E+00 0. -1.
         21   -1    0    0  502  503 -0.00000000000E+00 -0.00000000000E+00 -0.46841386251E+03  0.46841386251E+03  0.00000000000E+00 0.  1.
          5    1    1    2  501    0 -0.51202034135E+01 -0.34439515223E+01 -0.11058662903E+03  0.11085833214E+03  0.47000000000E+01 0. -1.
         -5    1    1    2    0  503  0.51202034135E+01  0.34439515223E+01 -0.35764932942E+03  0.35773343444E+03  0.47000000000E+01 0.  1.
<mgrwt>
<rscale>  2 0.77567574E+01</rscale>
<asrwt>0</asrwt>
<pdfrwt beam="1">  1       21 0.27369477E-04 0.77567574E+01</pdfrwt>
<pdfrwt beam="2">  1       21 0.72064670E-01 0.77567574E+01</pdfrwt>
<totfact> 0.61935579E+08</totfact>
</mgrwt>
</event>
<event>
 4    1  0.3992289E+006  0.1856699E+02  0.7546771E-02  0.1775425E+00
         21   -1    0    0  501  502  0.00000000000E+00  0.00000000000E+00  0.27065405965E+03  0.27065405965E+03  0.00000000000E+00 0.  1.
         21   -1    0    0  502  503 -0.00000000000E+00 -0.00000000000E+00 -0.15151103433E+01  0.15151103433E+01  0.00000000000E+00 0. -1.
          5    1    1    2  501    0 -0.37398727481E+01 -0.17568618574E+02  0.18888971019E+03  0.18980004115E+03  0.47000000000E+01 0.  1.
         -5    1    1    2    0  503  0.37398727481E+01  0.17568618574E+02  0.80249239122E+02  0.82369128844E+02  0.47000000000E+01 0. -1.
<mgrwt>
<rscale>  2 0.18566987E+02</rscale>
<asrwt>0</asrwt>
<pdfrwt beam="1">  1       21 0.41639048E-01 0.18566987E+02</pdfrwt>
<pdfrwt beam="2">  1       21 0.23309411E-03 0.18566987E+02</pdfrwt>
<totfact> 0.13108315E+08</totfact>
</mgrwt>
</event>
<event>
 4    1  0.3992289E+006  0.4873494E+01  0.7546771E-02  0.2590097E+00
         21   -1    0    0  503  502  0.00000000000E+00  0.00000000000E+00  0.17748120842E+01  0.17748120842E+01  0.00000000000E+00 0. -1.
         21   -1    0    0  501  503 -0.00000000000E+00 -0.00000000000E+00 -0.18355502679E+03  0.18355502679E+03  0.00000000000E+00 0. -1.
          5    1    1    2  501    0  0.12857982456E+01 -0.87542212490E-01 -0.18011320181E+03  0.18017912312E+03  0.47000000000E+01 0. -1.
         -5    1    1    2    0  502 -0.12857982456E+01  0.87542212490E-01 -0.16670128879E+01  0.51507157499E+01  0.47000000000E+01 0. -1.
<mgrwt>
<rscale>  2 0.48734937E+01</rscale>
<asrwt>0</asrwt>
<pdfrwt beam="1">  1       21 0.27304788E-03 0.48734937E+01</pdfrwt>
<pdfrwt beam="2">  1       21 0.28239249E-01 0.48734937E+01</pdfrwt>
<totfact> 0.10935042E+08</totfact>
</mgrwt>
</event>
<event>
 4    1  0.3992289E+006  0.5670455E+01  0.7546771E-02  0.2460395E+00
         21   -1    0    0  503  502  0.00000000000E+00  0.00000000000E+00  0.11559522482E+01  0.11559522482E+01  0.00000000000E+00 0.  1.
         21   -1    0    0  501  503 -0.00000000000E+00 -0.00000000000E+00 -0.23159654949E+03  0.23159654949E+03  0.00000000000E+00 0.  1.
          5    1    1    2  501    0 -0.11431093015E+01 -0.29592845629E+01 -0.22438433750E+03  0.22445597560E+03  0.47000000000E+01 0.  1.
         -5    1    1    2    0  502  0.11431093015E+01  0.29592845629E+01 -0.60562597370E+01  0.82965261406E+01  0.47000000000E+01 0.  1.
<mgrwt>
<rscale>  2 0.56704554E+01</rscale>
<asrwt>0</asrwt>
<pdfrwt beam="1">  1       21 0.17783886E-03 0.56704554E+01</pdfrwt>
<pdfrwt beam="2">  1       21 0.35630227E-01 0.56704554E+01</pdfrwt>
<totfact> 0.14741525E+08</totfact>
</mgrwt>
</event>
<event>
 4    1  0.3992289E+006  0.1354204E+02  0.7546771E-02  0.1916119E+00
         21   -1    0    0  503  502  0.00000000000E+00  0.00000000000E+00  0.43361607337E+02  0.43361607337E+02  0.00000000000E+00 0.  1.
         21   -1    0    0  501  503 -0.00000000000E+00 -0.00000000000E+00 -0.53089588960E+01  0.53089588960E+01  0.00000000000E+00 0. -1.
          5    1    1    2  501    0 -0.51668267691E+01 -0.11601750957E+02  0.30000873729E+02  0.32915636841E+02  0.47000000000E+01 0.  1.
         -5    1    1    2    0  502  0.51668267691E+01  0.11601750957E+02  0.80517747118E+01  0.15754929392E+02  0.47000000000E+01 0. -1.
<mgrwt>
<rscale>  2 0.13542035E+02</rscale>
<asrwt>0</asrwt>
<pdfrwt beam="1">  1       21 0.66710163E-02 0.13542035E+02</pdfrwt>
<pdfrwt beam="2">  1       21 0.81676293E-03 0.13542035E+02</pdfrwt>
<totfact> 0.42545467E+08</totfact>
</mgrwt>
</event>
<event>
 4    1  0.3992289E+006  0.4875342E+01  0.7546771E-02  0.2589755E+00
         21   -1    0    0  501  502  0.00000000000E+00  0.00000000000E+00  0.26220453904E+00  0.26220453904E+00  0.00000000000E+00 0.  1.
         21   -1    0    0  502  503 -0.00000000000E+00 -0.00000000000E+00 -0.90744396400E+02  0.90744396400E+02  0.00000000000E+00 0.  1.
          5    1    1    2  501    0  0.78025077580E-01  0.12933957442E+01 -0.43777018065E+02  0.44047659088E+02  0.47000000000E+01 0.  1.
         -5    1    1    2    0  503 -0.78025077580E-01 -0.12933957442E+01 -0.46705173796E+02  0.46958941851E+02  0.47000000000E+01 0.  1.
<mgrwt>
<rscale>  2 0.48753421E+01</rscale>
<asrwt>0</asrwt>
<pdfrwt beam="1">  1       21 0.40339140E-04 0.48753421E+01</pdfrwt>
<pdfrwt beam="2">  1       21 0.13960683E-01 0.48753421E+01</pdfrwt>
<totfact> 0.42738722E+09</totfact>
</mgrwt>
</event>
<event>
 4    1  0.3992289E+006  0.6151983E+01  0.7546771E-02  0.2396053E+00
         21   -1    0    0  501  502  0.00000000000E+00  0.00000000000E+00  0.48341604935E+02  0.48341604935E+02  0.00000000000E+00 0.  1.
         21   -1    0    0  502  503 -0.00000000000E+00 -0.00000000000E+00 -0.84187001137E+00  0.84187001137E+00  0.00000000000E+00 0. -1.
          5    1    1    2  501    0 -0.38000793480E+01  0.11473000869E+01  0.30258093731E+02  0.30877162058E+02  0.47000000000E+01 0.  1.
         -5    1    1    2    0  503  0.38000793480E+01 -0.11473000869E+01  0.17241641193E+02  0.18306312888E+02  0.47000000000E+01 0. -1.
<mgrwt>
<rscale>  2 0.61519835E+01</rscale>
<asrwt>0</asrwt>
<pdfrwt beam="1">  1       21 0.74371678E-02 0.61519835E+01</pdfrwt>
<pdfrwt beam="2">  1       21 0.12951850E-03 0.61519835E+01</pdfrwt>
<totfact> 0.29269588E+09</totfact>
</mgrwt>
</event>
<event>
 4    1  0.3992289E+006  0.5898381E+01  0.7546771E-02  0.2428840E+00
         21   -1    0    0  503  502  0.00000000000E+00  0.00000000000E+00  0.15720418696E+02  0.15720418696E+02  0.00000000000E+00 0. -1.
         21   -1    0    0  501  503 -0.00000000000E+00 -0.00000000000E+00 -0.32704938020E+01  0.32704938020E+01  0.00000000000E+00 0. -1.
          5    1    1    2  501    0 -0.24217297814E+01  0.26145986251E+01  0.82579250901E+00  0.59559075188E+01  0.47000000000E+01 0. -1.
         -5    1    1    2    0  502  0.24217297814E+01 -0.26145986251E+01  0.11624132385E+02  0.13035004979E+02  0.47000000000E+01 0. -1.
<mgrwt>
<rscale>  2 0.58983812E+01</rscale>
<asrwt>0</asrwt>
<pdfrwt beam="1">  1       21 0.24185259E-02 0.58983812E+01</pdfrwt>
<pdfrwt beam="2">  1       21 0.50315290E-03 0.58983812E+01</pdfrwt>
<totfact> 0.23070295E+09</totfact>
</mgrwt>
</event>
<event>
 4    1  0.3992289E+006  0.7485362E+01  0.7546771E-02  0.2254676E+00
         21   -1    0    0  503  502  0.00000000000E+00  0.00000000000E+00  0.10119165207E+02  0.10119165207E+02  0.00000000000E+00 0. -1.
         21   -1    0    0  501  503 -0.00000000000E+00 -0.00000000000E+00 -0.10620366268E+02  0.10620366268E+02  0.00000000000E+00 0.  1.
          5    1    1    2  501    0 -0.28917529722E+01 -0.50575098995E+01 -0.74247665312E+01  0.10543139935E+02  0.47000000000E+01 0.  1.
         -5    1    1    2    0  502  0.28917529722E+01  0.50575098995E+01  0.69235654696E+01  0.10196391541E+02  0.47000000000E+01 0. -1.
<mgrwt>
<rscale>  2 0.74853618E+01</rscale>
<asrwt>0</asrwt>
<pdfrwt beam="1">  1       21 0.15567947E-02 0.74853618E+01</pdfrwt>
<pdfrwt beam="2">  1       21 0.16339025E-02 0.74853618E+01</pdfrwt>
<totfact> 0.99146641E+08</totfact>
</mgrwt>
</event>
<event>
 4    1  0.3992289E+006  0.8544960E+01  0.7546771E-02  0.2168677E+00
         21   -1    0    0  503  502  0.00000000000E+00  0.00000000000E+00  0.10239048321E+01  0.10239048321E+01  0.00000000000E+00 0.  1.
         21   -1    0    0  501  503 -0.00000000000E+00 -0.00000000000E+00 -0.17429725406E+03  0.17429725406E+03  0.00000000000E+00 0.  1.
          5    1    1    2  501    0  0.58385113072E+01 -0.41034282621E+01 -0.15401920807E+03  0.15425606241E+03  0.47000000000E+01 0.  1.
         -5    1    1    2    0  502 -0.58385113072E+01  0.41034282621E+01 -0.19254141158E+02  0.21065096475E+02  0.47000000000E+01 0.  1.
<mgrwt>
<rscale>  2 0.85449598E+01</rscale>
<asrwt>0</asrwt>
<pdfrwt beam="1">  1       21 0.15752384E-03 0.85449598E+01</pdfrwt>
<pdfrwt beam="2">  1       21 0.26814958E-01 0.85449598E+01</pdfrwt>
<totfact> 0.36261413E+08</totfact>
</mgrwt>
</event>
<event>
 4    1  0.3992289E+006  0.5985358E+01  0.7546771E-02  0.2417333E+00
         21   -1    0    0  501  502  0.00000000000E+00  0.00000000000E+00  0.19770663193E+00  0.19770663193E+00  0.00000000000E+00 0.  1.
         21   -1    0    0  502  503 -0.00000000000E+00 -0.00000000000E+00 -0.18505214706E+03  0.18505214706E+03  0.00000000000E+00 0. -1.
          5    1    1    2  501    0  0.88001545719E+00  0.36000118209E+01 -0.10579047073E+03  0.10595965368E+03  0.47000000000E+01 0. -1.
         -5    1    1    2    0  503 -0.88001545719E+00 -0.36000118209E+01 -0.79063969703E+02  0.79290200009E+02  0.47000000000E+01 0.  1.
<mgrwt>
<rscale>  2 0.59853582E+01</rscale>
<asrwt>0</asrwt>
<pdfrwt beam="1">  1       21 0.30416336E-04 0.59853582E+01</pdfrwt>
<pdfrwt beam="2">  1       21 0.28469626E-01 0.59853582E+01</pdfrwt>
<totfact> 0.23893958E+09</totfact>
</mgrwt>
</event>
<event>
 4    1  0.3992289E+006  0.5782792E+01  0.7546771E-02  0.2444581E+00
         21   -1    0    0  503  502  0.00000000000E+00  0.00000000000E+00  0.12861928850E+04  0.12861928850E+04  0.00000000000E+00 0. -1.
         21   -1    0    0  501  503 -0.00000000000E+00 -0.00000000000E+00 -0.27334787456E-01  0.27334787456E-01  0.00000000000E+00 0.  1.
          5    1    1    2  501    0 -0.32809592678E+01 -0.76550181410E+00  0.78520927499E+03  0.78523056883E+03  0.47000000000E+01 0.  1.
         -5    1    1    2    0  502  0.32809592678E+01  0.76550181410E+00  0.50095627522E+03  0.50098965096E+03  0.47000000000E+01 0.  1.
<mgrwt>
<rscale>  2 0.57827923E+01</rscale>
<asrwt>0</asrwt>
<pdfrwt beam="1">  1       21 0.19782737E+00 0.57827923E+01</pdfrwt>
<pdfrwt beam="2">  1       21 0.42063821E-05 0.57827923E+01</pdfrwt>
<totfact> 0.77619983E+08</totfact>
</mgrwt>
</event>
<event>
 4    1  0.3992289E+006  0.5775444E+01  0.7546771E-02  0.2445599E+00
         21   -1    0    0  503  502  0.00000000000E+00  0.00000000000E+00  0.71527468366E+00  0.71527468366E+00  0.00000000000E+00 0.  1.
         21   -1    0    0  501  503 -0.00000000000E+00 -0.00000000000E+00 -0.50486530655E+02  0.50486530655E+02  0.00000000000E+00 0.  1.
          5    1    1    2  501    0 -0.24995280970E+01 -0.22401137920E+01 -0.31958074130E+02  0.32475748684E+02  0.47000000000E+01 0.  1.
         -5    1    1    2    0  502  0.24995280970E+01  0.22401137920E+01 -0.17813181841E+02  0.18726056654E+02  0.47000000000E+01 0.  1.
<mgrwt>
<rscale>  2 0.57754437E+01</rscale>
<asrwt>0</asrwt>
<pdfrwt beam="1">  1       21 0.11004226E-03 0.57754437E+01</pdfrwt>
<pdfrwt beam="2">  1       21 0.77671585E-02 0.57754437E+01</pdfrwt>
<totfact> 0.32315417E+09</totfact>
</mgrwt>
</event>
<event>
 4    1  0.3992289E+006  0.5875729E+01  0.7546771E-02  0.2431884E+00
         21   -1    0    0  501  502  0.00000000000E+00  0.00000000000E+00  0.62509401866E-01  0.62509401866E-01  0.00000000000E+00 0.  1.
         21   -1    0    0  502  503 -0.00000000000E+00 -0.00000000000E+00 -0.11944125858E+04  0.11944125858E+04  0.00000000000E+00 0.  1.
          5    1    1    2  501    0 -0.29208127885E+01 -0.19756131003E+01 -0.15927584316E+03  0.15938418494E+03  0.47000000000E+01 0.  1.
         -5    1    1    2    0  503  0.29208127885E+01  0.19756131003E+01 -0.10350742332E+04  0.10350909103E+04  0.47000000000E+01 0.  1.
<mgrwt>
<rscale>  2 0.58757293E+01</rscale>
<asrwt>0</asrwt>
<pdfrwt beam="1">  1       21 0.96171605E-05 0.58757293E+01</pdfrwt>
<pdfrwt beam="2">  1       21 0.18374949E+00 0.58757293E+01</pdfrwt>
<totfact> 0.30392768E+08</totfact>
</mgrwt>
</event>
<event>
 4    1  0.3992289E+006  0.8884906E+01  0.7546771E-02  0.2144621E+00
         21   -1    0    0  503  502  0.00000000000E+00  0.00000000000E+00  0.39005142793E+01  0.39005142793E+01  0.00000000000E+00 0.  1.
         21   -1    0    0  501  503 -0.00000000000E+00 -0.00000000000E+00 -0.20282027900E+02  0.20282027900E+02  0.00000000000E+00 0. -1.
          5    1    1    2  501    0 -0.74785691136E+01 -0.96049894756E+00 -0.76322576214E+01  0.11712937745E+02  0.47000000000E+01 0. -1.
         -5    1    1    2    0  502  0.74785691136E+01  0.96049894756E+00 -0.87492559995E+01  0.12469604435E+02  0.47000000000E+01 0. -1.
<mgrwt>
<rscale>  2 0.88849060E+01</rscale>
<asrwt>0</asrwt>
<pdfrwt beam="1">  1       21 0.60007911E-03 0.88849060E+01</pdfrwt>
<pdfrwt beam="2">  1       21 0.31203121E-02 0.88849060E+01</pdfrwt>
<totfact> 0.16911464E+09</totfact>
</mgrwt>
</event>
<event>
 4    1  0.3992289E+006  0.1348774E+02  0.7546771E-02  0.1918059E+00
         21   -1    0    0  501  502  0.00000000000E+00  0.00000000000E+00  0.46565590730E+01  0.46565590730E+01  0.00000000000E+00 0.  1.
         21   -1    0    0  502  503 -0.00000000000E+00 -0.00000000000E+00 -0.27355695900E+03  0.27355695900E+03  0.00000000000E+00 0. -1.
          5    1    1    2  501    0 -0.12006043739E+02 -0.39602945896E+01 -0.56589879443E+01  0.14626796097E+02  0.47000000000E+01 0.  1.
         -5    1    1    2    0  503  0.12006043739E+02  0.39602945896E+01 -0.26324141198E+03  0.26358672197E+03  0.47000000000E+01 0. -1.
<mgrwt>
<rscale>  2 0.13487736E+02</rscale>
<asrwt>0</asrwt>
<pdfrwt beam="1">  1       21 0.71639382E-03 0.13487736E+02</pdfrwt>
<pdfrwt beam="2">  1       21 0.42085679E-01 0.13487736E+02</pdfrwt>
<totfact> 0.22973459E+07</totfact>
</mgrwt>
</event>
<event>
 4    1  0.3992289E+006  0.6204393E+01  0.7546771E-02  0.2389557E+00
         21   -1    0    0  503  502  0.00000000000E+00  0.00000000000E+00  0.12261584851E+03  0.12261584851E+03  0.00000000000E+00 0. -1.
         21   -1    0    0  501  503 -0.00000000000E+00 -0.00000000000E+00 -0.48992244890E+00  0.48992244890E+00  0.00000000000E+00 0.  1.
          5    1    1    2  501    0  0.40396575200E+01  0.29268331184E+00  0.24172455879E+02  0.24956003679E+02  0.47000000000E+01 0.  1.
         -5    1    1    2    0  502 -0.40396575200E+01 -0.29268331184E+00  0.97953470182E+02  0.98149767279E+02  0.47000000000E+01 0. -1.
<mgrwt>
<rscale>  2 0.62043933E+01</rscale>
<asrwt>0</asrwt>
<pdfrwt beam="1">  1       21 0.18863952E-01 0.62043933E+01</pdfrwt>
<pdfrwt beam="2">  1       21 0.75372782E-04 0.62043933E+01</pdfrwt>
<totfact> 0.14339141E+09</totfact>
</mgrwt>
</event>
<event>
 4    1  0.3992289E+006  0.5500676E+01  0.7546771E-02  0.2485327E+00
         21   -1    0    0  503  502  0.00000000000E+00  0.00000000000E+00  0.24322639928E+02  0.24322639928E+02  0.00000000000E+00 0. -1.
         21   -1    0    0  501  503 -0.00000000000E+00 -0.00000000000E+00 -0.17665910296E+01  0.17665910296E+01  0.00000000000E+00 0.  1.
          5    1    1    2  501    0 -0.12766748577E+01 -0.25568606621E+01  0.41831774782E+01  0.69106012005E+01  0.47000000000E+01 0.  1.
         -5    1    1    2    0  502  0.12766748577E+01  0.25568606621E+01  0.18372871421E+02  0.19178629758E+02  0.47000000000E+01 0. -1.
<mgrwt>
<rscale>  2 0.55006759E+01</rscale>
<asrwt>0</asrwt>
<pdfrwt beam="1">  1       21 0.37419444E-02 0.55006759E+01</pdfrwt>
<pdfrwt beam="2">  1       21 0.27178325E-03 0.55006759E+01</pdfrwt>
<totfact> 0.26863528E+09</totfact>
</mgrwt>
</event>
<event>
 4    1  0.3992289E+006  0.5868014E+01  0.7546771E-02  0.2432925E+00
         21   -1    0    0  501  502  0.00000000000E+00  0.00000000000E+00  0.36229667188E+02  0.36229667188E+02  0.00000000000E+00 0.  1.
         21   -1    0    0  502  503 -0.00000000000E+00 -0.00000000000E+00 -0.10546535666E+01  0.10546535666E+01  0.00000000000E+00 0.  1.
          5    1    1    2  501    0  0.29589562667E+01 -0.18942460031E+01  0.23448000612E+02  0.24171105122E+02  0.47000000000E+01 0.  1.
         -5    1    1    2    0  503 -0.29589562667E+01  0.18942460031E+01  0.11727013009E+02  0.13113215633E+02  0.47000000000E+01 0.  1.
<mgrwt>
<rscale>  2 0.58680142E+01</rscale>
<asrwt>0</asrwt>
<pdfrwt beam="1">  1       21 0.55737940E-02 0.58680142E+01</pdfrwt>
<pdfrwt beam="2">  1       21 0.16225442E-03 0.58680142E+01</pdfrwt>
<totfact> 0.31920995E+09</totfact>
</mgrwt>
</event>
<event>
 4    1  0.3992289E+006  0.6445586E+01  0.7546771E-02  0.2360803E+00
         21   -1    0    0  503  502  0.00000000000E+00  0.00000000000E+00  0.12270961100E+01  0.12270961100E+01  0.00000000000E+00 0.  1.
         21   -1    0    0  501  503 -0.00000000000E+00 -0.00000000000E+00 -0.37252862870E+02  0.37252862870E+02  0.00000000000E+00 0.  1.
          5    1    1    2  501    0  0.24892550839E+01 -0.36413168451E+01 -0.23822011954E+02  0.24678610836E+02  0.47000000000E+01 0.  1.
         -5    1    1    2    0  502 -0.24892550839E+01  0.36413168451E+01 -0.12203754806E+02  0.13801348145E+02  0.47000000000E+01 0.  1.
<mgrwt>
<rscale>  2 0.64455860E+01</rscale>
<asrwt>0</asrwt>
<pdfrwt beam="1">  1       21 0.18878402E-03 0.64455860E+01</pdfrwt>
<pdfrwt beam="2">  1       21 0.57312096E-02 0.64455860E+01</pdfrwt>
<totfact> 0.27017238E+09</totfact>
</mgrwt>
</event>
<event>
 4    1  0.3992289E+006  0.6028345E+01  0.7546771E-02  0.2411749E+00
         21   -1    0    0  501  502  0.00000000000E+00  0.00000000000E+00  0.69150117568E+03  0.69150117568E+03  0.00000000000E+00 0.  1.
         21   -1    0    0  502  503 -0.00000000000E+00 -0.00000000000E+00 -0.51652100284E+00  0.51652100284E+00  0.00000000000E+00 0.  1.
          5    1    1    2  501    0 -0.12666490706E+01 -0.35561979269E+01  0.67342667076E+03  0.67345365233E+03  0.47000000000E+01 0.  1.
         -5    1    1    2    0  503  0.12666490706E+01  0.35561979269E+01  0.17557983920E+02  0.18564044357E+02  0.47000000000E+01 0.  1.
<mgrwt>
<rscale>  2 0.60283450E+01</rscale>
<asrwt>0</asrwt>
<pdfrwt beam="1">  1       21 0.10638406E+00 0.60283450E+01</pdfrwt>
<pdfrwt beam="2">  1       21 0.79465323E-04 0.60283450E+01</pdfrwt>
<totfact> 0.58883823E+07</totfact>
</mgrwt>
</event>
<event>
 4    1  0.3992289E+006  0.6844332E+01  0.7546771E-02  0.2316979E+00
         21   -1    0    0  503  502  0.00000000000E+00  0.00000000000E+00  0.29541524428E+00  0.29541524428E+00  0.00000000000E+00 0.  1.
         21   -1    0    0  501  503 -0.00000000000E+00 -0.00000000000E+00 -0.26890384422E+03  0.26890384422E+03  0.00000000000E+00 0. -1.
          5    1    1    2  501    0  0.47921844275E+01  0.13378524777E+01 -0.22052139870E+03  0.22062758704E+03  0.47000000000E+01 0. -1.
         -5    1    1    2    0  502 -0.47921844275E+01 -0.13378524777E+01 -0.48087030280E+02  0.48571672423E+02  0.47000000000E+01 0.  1.
<mgrwt>
<rscale>  2 0.68443320E+01</rscale>
<asrwt>0</asrwt>
<pdfrwt beam="1">  1       21 0.45448526E-04 0.68443320E+01</pdfrwt>
<pdfrwt beam="2">  1       21 0.41369798E-01 0.68443320E+01</pdfrwt>
<totfact> 0.80941102E+08</totfact>
</mgrwt>
</event>
<event>
 4    1  0.3992289E+006  0.4770495E+01  0.7546771E-02  0.2609552E+00
         21   -1    0    0  503  502  0.00000000000E+00  0.00000000000E+00  0.13576498520E+04  0.13576498520E+04  0.00000000000E+00 0.  1.
         21   -1    0    0  501  503 -0.00000000000E+00 -0.00000000000E+00 -0.19931231915E-01  0.19931231915E-01  0.00000000000E+00 0.  1.
          5    1    1    2  501    0  0.80508928395E+00 -0.13948135043E+00  0.40814571144E+03  0.40817358978E+03  0.47000000000E+01 0. -1.
         -5    1    1    2    0  502 -0.80508928395E+00  0.13948135043E+00  0.94948420931E+03  0.94949619344E+03  0.47000000000E+01 0. -1.
<mgrwt>
<rscale>  2 0.47704951E+01</rscale>
<asrwt>0</asrwt>
<pdfrwt beam="1">  1       21 0.20879516E+00 0.47704951E+01</pdfrwt>
<pdfrwt beam="2">  1       21 0.30674308E-05 0.47704951E+01</pdfrwt>
<totfact> 0.94105891E+08</totfact>
</mgrwt>
</event>
<event>
 4    1  0.3992289E+006  0.4756509E+01  0.7546771E-02  0.2612250E+00
         21   -1    0    0  503  502  0.00000000000E+00  0.00000000000E+00  0.57059636577E+00  0.57059636577E+00  0.00000000000E+00 0.  1.
         21   -1    0    0  501  503 -0.00000000000E+00 -0.00000000000E+00 -0.12865543051E+03  0.12865543051E+03  0.00000000000E+00 0.  1.
          5    1    1    2  501    0 -0.72688839179E+00  0.77544962031E-01 -0.11778433816E+03  0.11788034058E+03  0.47000000000E+01 0.  1.
         -5    1    1    2    0  502  0.72688839179E+00 -0.77544962031E-01 -0.10300495985E+02  0.11345686294E+02  0.47000000000E+01 0.  1.
<mgrwt>
<rscale>  2 0.47565092E+01</rscale>
<asrwt>0</asrwt>
<pdfrwt beam="1">  1       21 0.87783960E-04 0.47565092E+01</pdfrwt>
<pdfrwt beam="2">  1       21 0.19793165E-01 0.47565092E+01</pdfrwt>
<totfact> 0.86512822E+08</totfact>
</mgrwt>
</event>
<event>
 4    1  0.3992289E+006  0.9186469E+01  0.7546771E-02  0.2124476E+00
         21   -1    0    0  501  502  0.00000000000E+00  0.00000000000E+00  0.28396801561E+01  0.28396801561E+01  0.00000000000E+00 0. -1.
         21   -1    0    0  502  503 -0.00000000000E+00 -0.00000000000E+00 -0.31651499315E+02  0.31651499315E+02  0.00000000000E+00 0.  1.
          5    1    1    2  501    0  0.44993219981E+01  0.64851606621E+01 -0.10144140333E+02  0.13685568690E+02  0.47000000000E+01 0. -1.
         -5    1    1    2    0  503 -0.44993219981E+01 -0.64851606621E+01 -0.18667678826E+02  0.20805610781E+02  0.47000000000E+01 0.  1.
<mgrwt>
<rscale>  2 0.91864687E+01</rscale>
<asrwt>0</asrwt>
<pdfrwt beam="1">  1       21 0.43687387E-03 0.91864687E+01</pdfrwt>
<pdfrwt beam="2">  1       21 0.48694614E-02 0.91864687E+01</pdfrwt>
<totfact> 0.13874804E+09</totfact>
</mgrwt>
</event>
<event>
 4    1  0.3992289E+006  0.5818563E+01  0.7546771E-02  0.2439653E+00
         21   -1    0    0  501  502  0.00000000000E+00  0.00000000000E+00  0.19628179357E+02  0.19628179357E+02  0.00000000000E+00 0. -1.
         21   -1    0    0  502  503 -0.00000000000E+00 -0.00000000000E+00 -0.55651632445E+01  0.55651632445E+01  0.00000000000E+00 0.  1.
          5    1    1    2  501    0  0.26939840516E+01  0.21232359246E+01  0.17495565684E+02  0.18437746594E+02  0.47000000000E+01 0. -1.
         -5    1    1    2    0  503 -0.26939840516E+01 -0.21232359246E+01 -0.34325495712E+01  0.67555960078E+01  0.47000000000E+01 0.  1.
<mgrwt>
<rscale>  2 0.58185635E+01</rscale>
<asrwt>0</asrwt>
<pdfrwt beam="1">  1       21 0.30197199E-02 0.58185635E+01</pdfrwt>
<pdfrwt beam="2">  1       21 0.85617897E-03 0.58185635E+01</pdfrwt>
<totfact> 0.78767543E+08</totfact>
</mgrwt>
</event>
<event>
 4    1  0.3992289E+006  0.4752332E+01  0.7546771E-02  0.2613059E+00
         21   -1    0    0  501  502  0.00000000000E+00  0.00000000000E+00  0.91851373476E+01  0.91851373476E+01  0.00000000000E+00 0. -1.
         21   -1    0    0  502  503 -0.00000000000E+00 -0.00000000000E+00 -0.33147366806E+02  0.33147366806E+02  0.00000000000E+00 0.  1.
          5    1    1    2  501    0  0.55652644531E-01  0.70111701480E+00  0.83849706624E+01  0.96380701022E+01  0.47000000000E+01 0. -1.
         -5    1    1    2    0  503 -0.55652644531E-01 -0.70111701480E+00 -0.32347200121E+02  0.32694434052E+02  0.47000000000E+01 0.  1.
<mgrwt>
<rscale>  2 0.47523323E+01</rscale>
<asrwt>0</asrwt>
<pdfrwt beam="1">  1       21 0.14130981E-02 0.47523323E+01</pdfrwt>
<pdfrwt beam="2">  1       21 0.50995948E-02 0.47523323E+01</pdfrwt>
<totfact> 0.15383057E+08</totfact>
</mgrwt>
</event>
<event>
 4    1  0.3992289E+006  0.4802636E+01  0.7546771E-02  0.2603404E+00
         21   -1    0    0  503  502  0.00000000000E+00  0.00000000000E+00  0.31891590358E+02  0.31891590358E+02  0.00000000000E+00 0.  1.
         21   -1    0    0  501  503 -0.00000000000E+00 -0.00000000000E+00 -0.17237938540E+01  0.17237938540E+01  0.00000000000E+00 0.  1.
          5    1    1    2  501    0  0.27282908289E+00  0.94914627337E+00  0.22787273682E+01  0.53158172255E+01  0.47000000000E+01 0.  1.
         -5    1    1    2    0  502 -0.27282908289E+00 -0.94914627337E+00  0.27889069136E+02  0.28299566987E+02  0.47000000000E+01 0.  1.
<mgrwt>
<rscale>  2 0.48026362E+01</rscale>
<asrwt>0</asrwt>
<pdfrwt beam="1">  1       21 0.49063981E-02 0.48026362E+01</pdfrwt>
<pdfrwt beam="2">  1       21 0.26519908E-03 0.48026362E+01</pdfrwt>
<totfact> 0.16405538E+09</totfact>
</mgrwt>
</event>
<event>
 4    1  0.3992289E+006  0.1424218E+02  0.7546771E-02  0.1892115E+00
         21   -1    0    0  503  502  0.00000000000E+00  0.00000000000E+00  0.23423003486E+03  0.23423003486E+03  0.00000000000E+00 0. -1.
         21   -1    0    0  501  503 -0.00000000000E+00 -0.00000000000E+00 -0.18134757068E+01  0.18134757068E+01  0.00000000000E+00 0.  1.
          5    1    1    2  501    0  0.12819858600E+02  0.40497952289E+01  0.30899494518E+02  0.34023791343E+02  0.47000000000E+01 0.  1.
         -5    1    1    2    0  502 -0.12819858600E+02 -0.40497952289E+01  0.20151706463E+03  0.20201971922E+03  0.47000000000E+01 0. -1.
<mgrwt>
<rscale>  2 0.14242177E+02</rscale>
<asrwt>0</asrwt>
<pdfrwt beam="1">  1       21 0.36035366E-01 0.14242177E+02</pdfrwt>
<pdfrwt beam="2">  1       21 0.27899645E-03 0.14242177E+02</pdfrwt>
<totfact> 0.12126347E+08</totfact>
</mgrwt>
</event>
<event>
 4    1  0.3992289E+006  0.1881319E+02  0.7546771E-02  0.1770014E+00
         21   -1    0    0  501  502  0.00000000000E+00  0.00000000000E+00  0.14394504169E+01  0.14394504169E+01  0.00000000000E+00 0. -1.
         21   -1    0    0  502  503 -0.00000000000E+00 -0.00000000000E+00 -0.39331827457E+03  0.39331827457E+03  0.00000000000E+00 0.  1.
          5    1    1    2  501    0  0.18139412368E+02  0.16756287752E+01 -0.75094140163E+02  0.77414894560E+02  0.47000000000E+01 0. -1.
         -5    1    1    2    0  503 -0.18139412368E+02 -0.16756287752E+01 -0.31678468399E+03  0.31734283043E+03  0.47000000000E+01 0.  1.
<mgrwt>
<rscale>  2 0.18813187E+02</rscale>
<asrwt>0</asrwt>
<pdfrwt beam="1">  1       21 0.22145362E-03 0.18813187E+02</pdfrwt>
<pdfrwt beam="2">  1       21 0.60510582E-01 0.18813187E+02</pdfrwt>
<totfact> 0.68905589E+07</totfact>
</mgrwt>
</event>
<event>
 4    1  0.3992289E+006  0.7766485E+01  0.7546771E-02  0.2230022E+00
         21   -1    0    0  503  502  0.00000000000E+00  0.00000000000E+00  0.62819233886E+00  0.62819233886E+00  0.00000000000E+00 0.  1.
         21   -1    0    0  501  503 -0.00000000000E+00 -0.00000000000E+00 -0.19777945919E+03  0.19777945919E+03  0.00000000000E+00 0.  1.
          5    1    1    2  501    0 -0.18684908514E+01 -0.58938129605E+01 -0.16973428900E+03  0.16991188054E+03  0.47000000000E+01 0.  1.
         -5    1    1    2    0  502  0.18684908514E+01  0.58938129605E+01 -0.27416977857E+02  0.28495770986E+02  0.47000000000E+01 0.  1.
<mgrwt>
<rscale>  2 0.77664850E+01</rscale>
<asrwt>0</asrwt>
<pdfrwt beam="1">  1       21 0.96644917E-04 0.77664850E+01</pdfrwt>
<pdfrwt beam="2">  1       21 0.30427627E-01 0.77664850E+01</pdfrwt>
<totfact> 0.54012576E+08</totfact>
</mgrwt>
</event>
<event>
 4    1  0.3992289E+006  0.5640489E+01  0.7546771E-02  0.2464703E+00
         21   -1    0    0  503  502  0.00000000000E+00  0.00000000000E+00  0.17174704977E+03  0.17174704977E+03  0.00000000000E+00 0. -1.
         21   -1    0    0  501  503 -0.00000000000E+00 -0.00000000000E+00 -0.18682203886E+00  0.18682203886E+00  0.00000000000E+00 0. -1.
          5    1    1    2  501    0 -0.28813482816E+01 -0.11928734357E+01  0.93680942869E+02  0.93850594947E+02  0.47000000000E+01 0. -1.
         -5    1    1    2    0  502  0.28813482816E+01  0.11928734357E+01  0.77879284861E+02  0.78083276862E+02  0.47000000000E+01 0. -1.
<mgrwt>
<rscale>  2 0.56404889E+01</rscale>
<asrwt>0</asrwt>
<pdfrwt beam="1">  1       21 0.26422497E-01 0.56404889E+01</pdfrwt>
<pdfrwt beam="2">  1       21 0.28741990E-04 0.56404889E+01</pdfrwt>
<totfact> 0.27778788E+09</totfact>
</mgrwt>
</event>
<event>
 4    1  0.3992289E+006  0.7952766E+01  0.7546771E-02  0.2214466E+00
         21   -1    0    0  503  502  0.00000000000E+00  0.00000000000E+00  0.35458392993E+01  0.35458392993E+01  0.00000000000E+00 0. -1.
         21   -1    0    0  501  503 -0.00000000000E+00 -0.00000000000E+00 -0.60881435773E+02  0.60881435773E+02  0.00000000000E+00 0. -1.
          5    1    1    2  501    0 -0.60917242009E+01  0.20118107060E+01 -0.55754539456E+02  0.56318870337E+02  0.47000000000E+01 0. -1.
         -5    1    1    2    0  502  0.60917242009E+01 -0.20118107060E+01 -0.15810570174E+01  0.81084047352E+01  0.47000000000E+01 0. -1.
<mgrwt>
<rscale>  2 0.79527659E+01</rscale>
<asrwt>0</asrwt>
<pdfrwt beam="1">  1       21 0.54551378E-03 0.79527659E+01</pdfrwt>
<pdfrwt beam="2">  1       21 0.93663739E-02 0.79527659E+01</pdfrwt>
<totfact> 0.33891510E+08</totfact>
</mgrwt>
</event>
<event>
 4    1  0.3992289E+006  0.6989301E+01  0.7546771E-02  0.2302074E+00
         21   -1    0    0  503  502  0.00000000000E+00  0.00000000000E+00  0.30596531772E+01  0.30596531772E+01  0.00000000000E+00 0.  1.
         21   -1    0    0  501  503 -0.00000000000E+00 -0.00000000000E+00 -0.21345504367E+02  0.21345504367E+02  0.00000000000E+00 0. -1.
          5    1    1    2  501    0  0.45362176289E+01  0.24865766251E+01 -0.15268837046E+02  0.16792489941E+02  0.47000000000E+01 0. -1.
         -5    1    1    2    0  502 -0.45362176289E+01 -0.24865766251E+01 -0.30170141437E+01  0.76126676029E+01  0.47000000000E+01 0.  1.
<mgrwt>
<rscale>  2 0.69893014E+01</rscale>
<asrwt>0</asrwt>
<pdfrwt beam="1">  1       21 0.47071587E-03 0.69893014E+01</pdfrwt>
<pdfrwt beam="2">  1       21 0.32839238E-02 0.69893014E+01</pdfrwt>
<totfact> 0.18633923E+09</totfact>
</mgrwt>
</event>
<event>
 4    1  0.3992289E+006  0.1322099E+02  0.7546771E-02  0.1927767E+00
         21   -1    0    0  501  502  0.00000000000E+00  0.00000000000E+00  0.17496604306E+02  0.17496604306E+02  0.00000000000E+00 0. -1.
         21   -1    0    0  502  503 -0.00000000000E+00 -0.00000000000E+00 -0.12799449334E+02  0.12799449334E+02  0.00000000000E+00 0.  1.
          5    1    1    2  501    0 -0.33961408231E+01 -0.11881535113E+02  0.94452578397E+01  0.16248308982E+02  0.47000000000E+01 0. -1.
         -5    1    1    2    0  503  0.33961408231E+01  0.11881535113E+02 -0.47481028676E+01  0.14047744658E+02  0.47000000000E+01 0.  1.
<mgrwt>
<rscale>  2 0.13220993E+02</rscale>
<asrwt>0</asrwt>
<pdfrwt beam="1">  1       21 0.26917853E-02 0.13220993E+02</pdfrwt>
<pdfrwt beam="2">  1       21 0.19691461E-02 0.13220993E+02</pdfrwt>
<totfact> 0.46428032E+08</totfact>
</mgrwt>
</event>
<event>
 4    1  0.3992289E+006  0.5073601E+01  0.7546771E-02  0.2554260E+00
         21   -1    0    0  501  502  0.00000000000E+00  0.00000000000E+00  0.64169250903E+00  0.64169250903E+00  0.00000000000E+00 0. -1.
         21   -1    0    0  502  503 -0.00000000000E+00 -0.00000000000E+00 -0.75856562737E+02  0.75856562737E+02  0.00000000000E+00 0. -1.
          5    1    1    2  501    0  0.17040497403E+01  0.86466129328E+00 -0.11352412966E+02  0.12434576986E+02  0.47000000000E+01 0. -1.
         -5    1    1    2    0  503 -0.17040497403E+01 -0.86466129328E+00 -0.63862457262E+02  0.64063678260E+02  0.47000000000E+01 0. -1.
<mgrwt>
<rscale>  2 0.50736008E+01</rscale>
<asrwt>0</asrwt>
<pdfrwt beam="1">  1       21 0.98721965E-04 0.50736008E+01</pdfrwt>
<pdfrwt beam="2">  1       21 0.11670236E-01 0.50736008E+01</pdfrwt>
<totfact> 0.17874938E+09</totfact>
</mgrwt>
</event>
<event>
 4    1  0.3992289E+006  0.8526001E+01  0.7546771E-02  0.2170064E+00
         21   -1    0    0  503  502  0.00000000000E+00  0.00000000000E+00  0.74550586726E+02  0.74550586726E+02  0.00000000000E+00 0.  1.
         21   -1    0    0  501  503 -0.00000000000E+00 -0.00000000000E+00 -0.36236181030E+01  0.36236181030E+01  0.00000000000E+00 0. -1.
          5    1    1    2  501    0  0.13086486121E+01 -0.69921483497E+01  0.20466370210E+01  0.87682052229E+01  0.47000000000E+01 0. -1.
         -5    1    1    2    0  502 -0.13086486121E+01  0.69921483497E+01  0.68880331602E+02  0.69405999606E+02  0.47000000000E+01 0.  1.
<mgrwt>
<rscale>  2 0.85260014E+01</rscale>
<asrwt>0</asrwt>
<pdfrwt beam="1">  1       21 0.11469320E-01 0.85260014E+01</pdfrwt>
<pdfrwt beam="2">  1       21 0.55747976E-03 0.85260014E+01</pdfrwt>
<totfact> 0.24865466E+08</totfact>
</mgrwt>
</event>
<event>
 4    1  0.3992289E+006  0.6933656E+01  0.7546771E-02  0.2307735E+00
         21   -1    0    0  503  502  0.00000000000E+00  0.00000000000E+00  0.23922255616E+02  0.23922255616E+02  0.00000000000E+00 0. -1.
         21   -1    0    0  501  503 -0.00000000000E+00 -0.00000000000E+00 -0.29476076436E+01  0.29476076436E+01  0.00000000000E+00 0.  1.
          5    1    1    2  501    0  0.24185705224E+01 -0.44873265361E+01  0.29087047052E+01  0.75190521926E+01  0.47000000000E+01 0.  1.
         -5    1    1    2    0  502 -0.24185705224E+01  0.44873265361E+01  0.18065943267E+02  0.19350811067E+02  0.47000000000E+01 0. -1.
<mgrwt>
<rscale>  2 0.69336558E+01</rscale>
<asrwt>0</asrwt>
<pdfrwt beam="1">  1       21 0.36803469E-02 0.69336558E+01</pdfrwt>
<pdfrwt beam="2">  1       21 0.45347812E-03 0.69336558E+01</pdfrwt>
<totfact> 0.16491489E+09</totfact>
</mgrwt>
</event>
<event>
 4    1  0.3992289E+006  0.1205188E+02  0.7546771E-02  0.1974126E+00
         21   -1    0    0  503  502  0.00000000000E+00  0.00000000000E+00  0.85285754508E+02  0.85285754508E+02  0.00000000000E+00 0.  1.
         21   -1    0    0  501  503 -0.00000000000E+00 -0.00000000000E+00 -0.50673708267E+01  0.50673708267E+01  0.00000000000E+00 0. -1.
          5    1    1    2  501    0  0.80051453927E+01  0.76860596957E+01  0.32989172209E+01  0.12495227939E+02  0.47000000000E+01 0. -1.
         -5    1    1    2    0  502 -0.80051453927E+01 -0.76860596957E+01  0.76919466460E+02  0.77857897396E+02  0.47000000000E+01 0.  1.
<mgrwt>
<rscale>  2 0.12051882E+02</rscale>
<asrwt>0</asrwt>
<pdfrwt beam="1">  1       21 0.13120884E-01 0.12051882E+02</pdfrwt>
<pdfrwt beam="2">  1       21 0.77959557E-03 0.12051882E+02</pdfrwt>
<totfact> 0.14626840E+08</totfact>
</mgrwt>
</event>
<event>
 4    1  0.3992289E+006  0.6547782E+01  0.7546771E-02  0.2349152E+00
         21   -1    0    0  503  502  0.00000000000E+00  0.00000000000E+00  0.52980194200E+01  0.52980194200E+01  0.00000000000E+00 0. -1.
         21   -1    0    0  501  503 -0.00000000000E+00 -0.00000000000E+00 -0.99907641316E+01  0.99907641316E+01  0.00000000000E+00 0. -1.
          5    1    1    2  501    0  0.24937477183E+01  0.38163690857E+01 -0.56786299098E+01  0.86671961056E+01  0.47000000000E+01 0. -1.
         -5    1    1    2    0  502 -0.24937477183E+01 -0.38163690857E+01  0.98588519830E+00  0.66215874460E+01  0.47000000000E+01 0. -1.
<mgrwt>
<rscale>  2 0.65477821E+01</rscale>
<asrwt>0</asrwt>
<pdfrwt beam="1">  1       21 0.81507992E-03 0.65477821E+01</pdfrwt>
<pdfrwt beam="2">  1       21 0.15370406E-02 0.65477821E+01</pdfrwt>
<totfact> 0.24652143E+09</totfact>
</mgrwt>
</event>
<event>
 4    1  0.3992289E+006  0.7621212E+01  0.7546771E-02  0.2242578E+00
         21   -1    0    0  503  502  0.00000000000E+00  0.00000000000E+00  0.90921188403E-01  0.90921188403E-01  0.00000000000E+00 0. -1.
         21   -1    0    0  501  503 -0.00000000000E+00 -0.00000000000E+00 -0.64009813620E+03  0.64009813620E+03  0.00000000000E+00 0. -1.
          5    1    1    2  501    0  0.59437834550E+01 -0.81505640384E+00 -0.30573735669E+03  0.30583233014E+03  0.47000000000E+01 0. -1.
         -5    1    1    2    0  502 -0.59437834550E+01  0.81505640384E+00 -0.33426985831E+03  0.33435672725E+03  0.47000000000E+01 0. -1.
<mgrwt>
<rscale>  2 0.76212124E+01</rscale>
<asrwt>0</asrwt>
<pdfrwt beam="1">  1       21 0.13987871E-04 0.76212124E+01</pdfrwt>
<pdfrwt beam="2">  1       21 0.98476663E-01 0.76212124E+01</pdfrwt>
<totfact> 0.81122750E+08</totfact>
</mgrwt>
</event>
<event>
 4    1  0.3992289E+006  0.5040533E+01  0.7546771E-02  0.2560013E+00
         21   -1    0    0  501  502  0.00000000000E+00  0.00000000000E+00  0.18508132483E+00  0.18508132483E+00  0.00000000000E+00 0. -1.
         21   -1    0    0  502  503 -0.00000000000E+00 -0.00000000000E+00 -0.14268272349E+03  0.14268272349E+03  0.00000000000E+00 0. -1.
          5    1    1    2  501    0  0.18207676532E+01 -0.42223631672E-01 -0.57341637321E+02  0.57562751397E+02  0.47000000000E+01 0.  1.
         -5    1    1    2    0  503 -0.18207676532E+01  0.42223631672E-01 -0.85156004842E+02  0.85305053416E+02  0.47000000000E+01 0.  1.
<mgrwt>
<rscale>  2 0.50405335E+01</rscale>
<asrwt>0</asrwt>
<pdfrwt beam="1">  1       21 0.28474067E-04 0.50405335E+01</pdfrwt>
<pdfrwt beam="2">  1       21 0.21951175E-01 0.50405335E+01</pdfrwt>
<totfact> 0.34375426E+09</totfact>
</mgrwt>
</event>
<event>
 4    1  0.3992289E+006  0.9516106E+01  0.7546771E-02  0.2103620E+00
         21   -1    0    0  503  502  0.00000000000E+00  0.00000000000E+00  0.44016243927E+01  0.44016243927E+01  0.00000000000E+00 0. -1.
         21   -1    0    0  501  503 -0.00000000000E+00 -0.00000000000E+00 -0.28509266760E+02  0.28509266760E+02  0.00000000000E+00 0.  1.
          5    1    1    2  501    0  0.76751731453E+01  0.30916004982E+01 -0.20735714516E+02  0.22815041813E+02  0.47000000000E+01 0.  1.
         -5    1    1    2    0  502 -0.76751731453E+01 -0.30916004982E+01 -0.33719278512E+01  0.10095849339E+02  0.47000000000E+01 0. -1.
<mgrwt>
<rscale>  2 0.95161062E+01</rscale>
<asrwt>0</asrwt>
<pdfrwt beam="1">  1       21 0.67717296E-03 0.95161062E+01</pdfrwt>
<pdfrwt beam="2">  1       21 0.43860412E-02 0.95161062E+01</pdfrwt>
<totfact> 0.89016755E+08</totfact>
</mgrwt>
</event>
<event>
 4    1  0.3992289E+006  0.9433890E+01  0.7546771E-02  0.2108714E+00
         21   -1    0    0  503  502  0.00000000000E+00  0.00000000000E+00  0.49896462765E+03  0.49896462765E+03  0.00000000000E+00 0. -1.
         21   -1    0    0  501  503 -0.00000000000E+00 -0.00000000000E+00 -0.35787632675E+00  0.35787632675E+00  0.00000000000E+00 0.  1.
          5    1    1    2  501    0 -0.20003498882E+00 -0.81773014793E+01  0.72484142979E+02  0.73095480413E+02  0.47000000000E+01 0.  1.
         -5    1    1    2    0  502  0.20003498882E+00  0.81773014793E+01  0.42612260835E+03  0.42622702356E+03  0.47000000000E+01 0. -1.
<mgrwt>
<rscale>  2 0.94338896E+01</rscale>
<asrwt>0</asrwt>
<pdfrwt beam="1">  1       21 0.76763232E-01 0.94338896E+01</pdfrwt>
<pdfrwt beam="2">  1       21 0.55058296E-04 0.94338896E+01</pdfrwt>
<totfact> 0.23470873E+08</totfact>
</mgrwt>
</event>
<event>
 4    1  0.3992289E+006  0.7680960E+01  0.7546771E-02  0.2237367E+00
         21   -1    0    0  503  502  0.00000000000E+00  0.00000000000E+00  0.43262263792E+00  0.43262263792E+00  0.00000000000E+00 0.  1.
         21   -1    0    0  501  503 -0.00000000000E+00 -0.00000000000E+00 -0.22266435972E+03  0.22266435972E+03  0.00000000000E+00 0.  1.
          5    1    1    2  501    0 -0.51973677542E+01 -0.31455540677E+01 -0.18055867542E+03  0.18072197545E+03  0.47000000000E+01 0.  1.
         -5    1    1    2    0  502  0.51973677542E+01  0.31455540677E+01 -0.41673061668E+02  0.42375006912E+02  0.47000000000E+01 0.  1.
<mgrwt>
<rscale>  2 0.76809597E+01</rscale>
<asrwt>0</asrwt>
<pdfrwt beam="1">  1       21 0.66557441E-04 0.76809597E+01</pdfrwt>
<pdfrwt beam="2">  1       21 0.34255998E-01 0.76809597E+01</pdfrwt>
<totfact> 0.72540293E+08</totfact>
</mgrwt>
</event>
<event>
 4    1  0.3992289E+006  0.5466535E+01  0.7546771E-02  0.2490499E+00
         21   -1    0    0  501  502  0.00000000000E+00  0.00000000000E+00  0.47982772781E+00  0.47982772781E+00  0.00000000000E+00 0.  1.
         21   -1    0    0  502  503 -0.00000000000E+00 -0.00000000000E+00 -0.90857571397E+02  0.90857571397E+02  0.00000000000E+00 0.  1.
          5    1    1    2  501    0 -0.24412117952E+01  0.13540652551E+01 -0.19575825008E+02  0.20324761560E+02  0.47000000000E+01 0.  1.
         -5    1    1    2    0  503  0.24412117952E+01 -0.13540652551E+01 -0.70801918661E+02  0.71012637564E+02  0.47000000000E+01 0.  1.
<mgrwt>
<rscale>  2 0.54665353E+01</rscale>
<asrwt>0</asrwt>
<pdfrwt beam="1">  1       21 0.73819597E-04 0.54665353E+01</pdfrwt>
<pdfrwt beam="2">  1       21 0.13978098E-01 0.54665353E+01</pdfrwt>
<totfact> 0.21344407E+09</totfact>
</mgrwt>
</event>
<event>
 4    1  0.3992289E+006  0.5021672E+01  0.7546771E-02  0.2563324E+00
         21   -1    0    0  501  502  0.00000000000E+00  0.00000000000E+00  0.19786508284E+01  0.19786508284E+01  0.00000000000E+00 0. -1.
         21   -1    0    0  502  503 -0.00000000000E+00 -0.00000000000E+00 -0.15742261295E+02  0.15742261295E+02  0.00000000000E+00 0. -1.
          5    1    1    2  501    0  0.10900226793E+01 -0.13924926005E+01 -0.30153661524E+01  0.58574412602E+01  0.47000000000E+01 0. -1.
         -5    1    1    2    0  503 -0.10900226793E+01  0.13924926005E+01 -0.10748244314E+02  0.11863470863E+02  0.47000000000E+01 0. -1.
<mgrwt>
<rscale>  2 0.50216715E+01</rscale>
<asrwt>0</asrwt>
<pdfrwt beam="1">  1       21 0.30440781E-03 0.50216715E+01</pdfrwt>
<pdfrwt beam="2">  1       21 0.24218864E-02 0.50216715E+01</pdfrwt>
<totfact> 0.39368760E+09</totfact>
</mgrwt>
</event>
<event>
 4    1  0.3992289E+006  0.5069942E+01  0.7546771E-02  0.2554894E+00
         21   -1    0    0  501  502  0.00000000000E+00  0.00000000000E+00  0.79708713763E+00  0.79708713763E+00  0.00000000000E+00 0.  1.
         21   -1    0    0  502  503 -0.00000000000E+00 -0.00000000000E+00 -0.50619697860E+02  0.50619697860E+02  0.00000000000E+00 0.  1.
          5    1    1    2  501    0  0.85980812047E-01 -0.18991898053E+01 -0.94234230556E+01  0.10700711037E+02  0.47000000000E+01 0.  1.
         -5    1    1    2    0  503 -0.85980812047E-01  0.18991898053E+01 -0.40399187666E+02  0.40716073960E+02  0.47000000000E+01 0.  1.
<mgrwt>
<rscale>  2 0.50699423E+01</rscale>
<asrwt>0</asrwt>
<pdfrwt beam="1">  1       21 0.12262876E-03 0.50699423E+01</pdfrwt>
<pdfrwt beam="2">  1       21 0.77876481E-02 0.50699423E+01</pdfrwt>
<totfact> 0.24653524E+09</totfact>
</mgrwt>
</event>
<event>
 4    1  0.3992289E+006  0.6633761E+01  0.7546771E-02  0.2339580E+00
         21   -1    0    0  501  502  0.00000000000E+00  0.00000000000E+00  0.43641178989E+01  0.43641178989E+01  0.00000000000E+00 0. -1.
         21   -1    0    0  502  503 -0.00000000000E+00 -0.00000000000E+00 -0.16962099790E+02  0.16962099790E+02  0.00000000000E+00 0.  1.
          5    1    1    2  501    0  0.14802625340E+01 -0.44413519759E+01  0.49125278935E+00  0.66519255743E+01  0.47000000000E+01 0. -1.
         -5    1    1    2    0  503 -0.14802625340E+01  0.44413519759E+01 -0.13089234680E+02  0.14674292114E+02  0.47000000000E+01 0.  1.
<mgrwt>
<rscale>  2 0.66337610E+01</rscale>
<asrwt>0</asrwt>
<pdfrwt beam="1">  1       21 0.67140275E-03 0.66337610E+01</pdfrwt>
<pdfrwt beam="2">  1       21 0.26095538E-02 0.66337610E+01</pdfrwt>
<totfact> 0.15233659E+09</totfact>
</mgrwt>
</event>
<event>
 4    1  0.3992289E+006  0.5116374E+01  0.7546771E-02  0.2546914E+00
         21   -1    0    0  501  502  0.00000000000E+00  0.00000000000E+00  0.12324203311E+03  0.12324203311E+03  0.00000000000E+00 0. -1.
         21   -1    0    0  502  503 -0.00000000000E+00 -0.00000000000E+00 -0.91861909466E+00  0.91861909466E+00  0.00000000000E+00 0.  1.
          5    1    1    2  501    0 -0.15160355868E+01  0.13375041889E+01  0.11559370837E+03  0.11570688266E+03  0.47000000000E+01 0. -1.
         -5    1    1    2    0  503  0.15160355868E+01 -0.13375041889E+01  0.67297056458E+01  0.84537695400E+01  0.47000000000E+01 0.  1.
<mgrwt>
<rscale>  2 0.51163738E+01</rscale>
<asrwt>0</asrwt>
<pdfrwt beam="1">  1       21 0.18960300E-01 0.51163738E+01</pdfrwt>
<pdfrwt beam="2">  1       21 0.14132611E-03 0.51163738E+01</pdfrwt>
<totfact> 0.52437258E+08</totfact>
</mgrwt>
</event>
<event>
 4    1  0.3992289E+006  0.5466712E+01  0.7546771E-02  0.2490472E+00
         21   -1    0    0  503  502  0.00000000000E+00  0.00000000000E+00  0.94363469024E+00  0.94363469024E+00  0.00000000000E+00 0.  1.
         21   -1    0    0  501  503 -0.00000000000E+00 -0.00000000000E+00 -0.33491008479E+02  0.33491008479E+02  0.00000000000E+00 0.  1.
          5    1    1    2  501    0  0.19297519072E+01  0.20176705943E+01 -0.20288396391E+02  0.21011995744E+02  0.47000000000E+01 0.  1.
         -5    1    1    2    0  502 -0.19297519072E+01 -0.20176705943E+01 -0.12258977399E+02  0.13422647426E+02  0.47000000000E+01 0.  1.
<mgrwt>
<rscale>  2 0.54667117E+01</rscale>
<asrwt>0</asrwt>
<pdfrwt beam="1">  1       21 0.14517459E-03 0.54667117E+01</pdfrwt>
<pdfrwt beam="2">  1       21 0.51524622E-02 0.54667117E+01</pdfrwt>
<totfact> 0.39058853E+09</totfact>
</mgrwt>
</event>
<event>
 4    1  0.3992289E+006  0.5467019E+01  0.7546771E-02  0.2490425E+00
         21   -1    0    0  501  502  0.00000000000E+00  0.00000000000E+00  0.26584487146E+01  0.26584487146E+01  0.00000000000E+00 0.  1.
         21   -1    0    0  502  503 -0.00000000000E+00 -0.00000000000E+00 -0.57313978216E+02  0.57313978216E+02  0.00000000000E+00 0. -1.
          5    1    1    2  501    0  0.34865168093E+00 -0.27706937438E+01 -0.44300266931E+00  0.54849387582E+01  0.47000000000E+01 0.  1.
         -5    1    1    2    0  503 -0.34865168093E+00  0.27706937438E+01 -0.54212526832E+02  0.54487488173E+02  0.47000000000E+01 0. -1.
<mgrwt>
<rscale>  2 0.54670195E+01</rscale>
<asrwt>0</asrwt>
<pdfrwt beam="1">  1       21 0.40899217E-03 0.54670195E+01</pdfrwt>
<pdfrwt beam="2">  1       21 0.88175338E-02 0.54670195E+01</pdfrwt>
<totfact> 0.42864301E+08</totfact>
</mgrwt>
</event>
<event>
 4    1  0.3992289E+006  0.8646058E+01  0.7546771E-02  0.2161366E+00
         21   -1    0    0  503  502  0.00000000000E+00  0.00000000000E+00  0.53675197035E+01  0.53675197035E+01  0.00000000000E+00 0. -1.
         21   -1    0    0  501  503 -0.00000000000E+00 -0.00000000000E+00 -0.23602827604E+02  0.23602827604E+02  0.00000000000E+00 0.  1.
          5    1    1    2  501    0 -0.70771260547E+01  0.16058043441E+01 -0.18391974364E+02  0.20322869920E+02  0.47000000000E+01 0.  1.
         -5    1    1    2    0  502  0.70771260547E+01 -0.16058043441E+01  0.15666646338E+00  0.86474773874E+01  0.47000000000E+01 0. -1.
<mgrwt>
<rscale>  2 0.86460581E+01</rscale>
<asrwt>0</asrwt>
<pdfrwt beam="1">  1       21 0.82577229E-03 0.86460581E+01</pdfrwt>
<pdfrwt beam="2">  1       21 0.36312041E-02 0.86460581E+01</pdfrwt>
<totfact> 0.83932095E+08</totfact>
</mgrwt>
</event>
<event>
 4    1  0.3992289E+006  0.4718569E+01  0.7546771E-02  0.2619639E+00
         21   -1    0    0  503  502  0.00000000000E+00  0.00000000000E+00  0.40413400743E+03  0.40413400743E+03  0.00000000000E+00 0.  1.
         21   -1    0    0  501  503 -0.00000000000E+00 -0.00000000000E+00 -0.55132020237E-01  0.55132020237E-01  0.00000000000E+00 0.  1.
          5    1    1    2  501    0  0.40650215872E+00  0.98244655121E-01  0.19665293897E+03  0.19670954045E+03  0.47000000000E+01 0. -1.
         -5    1    1    2    0  502 -0.40650215872E+00 -0.98244655121E-01  0.20742593644E+03  0.20747959900E+03  0.47000000000E+01 0. -1.
<mgrwt>
<rscale>  2 0.47185693E+01</rscale>
<asrwt>0</asrwt>
<pdfrwt beam="1">  1       21 0.62172090E-01 0.47185693E+01</pdfrwt>
<pdfrwt beam="2">  1       21 0.84821729E-05 0.47185693E+01</pdfrwt>
<totfact> 0.27214785E+09</totfact>
</mgrwt>
</event>
<event>
 4    1  0.3992289E+006  0.4787631E+01  0.7546771E-02  0.2606265E+00
         21   -1    0    0  503  502  0.00000000000E+00  0.00000000000E+00  0.53971352966E+00  0.53971352966E+00  0.00000000000E+00 0.  1.
         21   -1    0    0  501  503 -0.00000000000E+00 -0.00000000000E+00 -0.43835885398E+02  0.43835885398E+02  0.00000000000E+00 0.  1.
          5    1    1    2  501    0  0.80624089871E+00 -0.42589072569E+00 -0.17730909590E+02  0.18365907606E+02  0.47000000000E+01 0.  1.
         -5    1    1    2    0  502 -0.80624089871E+00  0.42589072569E+00 -0.25565262278E+02  0.26009691321E+02  0.47000000000E+01 0.  1.
<mgrwt>
<rscale>  2 0.47876307E+01</rscale>
<asrwt>0</asrwt>
<pdfrwt beam="1">  1       21 0.83032835E-04 0.47876307E+01</pdfrwt>
<pdfrwt beam="2">  1       21 0.67439836E-02 0.47876307E+01</pdfrwt>
<totfact> 0.48319203E+09</totfact>
</mgrwt>
</event>
<event>
 4    1  0.3992289E+006  0.6552353E+01  0.7546771E-02  0.2348638E+00
         21   -1    0    0  503  502  0.00000000000E+00  0.00000000000E+00  0.32329794958E+03  0.32329794958E+03  0.00000000000E+00 0. -1.
         21   -1    0    0  501  503 -0.00000000000E+00 -0.00000000000E+00 -0.13458404534E+00  0.13458404534E+00  0.00000000000E+00 0.  1.
          5    1    1    2  501    0  0.44141397185E+01  0.11656314226E+01  0.18021118679E+03  0.18033026692E+03  0.47000000000E+01 0. -1.
         -5    1    1    2    0  502 -0.44141397185E+01 -0.11656314226E+01  0.14295217874E+03  0.14310226670E+03  0.47000000000E+01 0.  1.
<mgrwt>
<rscale>  2 0.65523527E+01</rscale>
<asrwt>0</asrwt>
<pdfrwt beam="1">  1       21 0.49737524E-01 0.65523527E+01</pdfrwt>
<pdfrwt beam="2">  1       21 0.20705497E-04 0.65523527E+01</pdfrwt>
<totfact> 0.16211070E+09</totfact>
</mgrwt>
</event>
<event>
 4    1  0.3992289E+006  0.6176500E+01  0.7546771E-02  0.2393003E+00
         21   -1    0    0  503  502  0.00000000000E+00  0.00000000000E+00  0.90919107496E+01  0.90919107496E+01  0.00000000000E+00 0. -1.
         21   -1    0    0  501  503 -0.00000000000E+00 -0.00000000000E+00 -0.46289266484E+01  0.46289266484E+01  0.00000000000E+00 0.  1.
          5    1    1    2  501    0 -0.39589320467E+01  0.62129754429E+00  0.13329906744E+00  0.61779383479E+01  0.47000000000E+01 0.  1.
         -5    1    1    2    0  502  0.39589320467E+01 -0.62129754429E+00  0.43296850338E+01  0.75428990502E+01  0.47000000000E+01 0. -1.
<mgrwt>
<rscale>  2 0.61765001E+01</rscale>
<asrwt>0</asrwt>
<pdfrwt beam="1">  1       21 0.13987555E-02 0.61765001E+01</pdfrwt>
<pdfrwt beam="2">  1       21 0.71214256E-03 0.61765001E+01</pdfrwt>
<totfact> 0.32439713E+09</totfact>
</mgrwt>
</event>
<event>
 4    1  0.3992289E+006  0.1512794E+02  0.7546771E-02  0.1864189E+00
         21   -1    0    0  501  502  0.00000000000E+00  0.00000000000E+00  0.16765690359E+03  0.16765690359E+03  0.00000000000E+00 0. -1.
         21   -1    0    0  502  503 -0.00000000000E+00 -0.00000000000E+00 -0.23477060388E+02  0.23477060388E+02  0.00000000000E+00 0.  1.
          5    1    1    2  501    0 -0.60066278415E+01 -0.13064644865E+02  0.16483704564E+03  0.16552977417E+03  0.47000000000E+01 0. -1.
         -5    1    1    2    0  503  0.60066278415E+01  0.13064644865E+02 -0.20657202431E+02  0.25604189808E+02  0.47000000000E+01 0.  1.
<mgrwt>
<rscale>  2 0.15127939E+02</rscale>
<asrwt>0</asrwt>
<pdfrwt beam="1">  1       21 0.25793369E-01 0.15127939E+02</pdfrwt>
<pdfrwt beam="2">  1       21 0.36118555E-02 0.15127939E+02</pdfrwt>
<totfact> 0.50708591E+06</totfact>
</mgrwt>
</event>
<event>
 4    1  0.3992289E+006  0.6753875E+01  0.7546771E-02  0.2326546E+00
         21   -1    0    0  501  502  0.00000000000E+00  0.00000000000E+00  0.10637997111E+01  0.10637997111E+01  0.00000000000E+00 0.  1.
         21   -1    0    0  502  503 -0.00000000000E+00 -0.00000000000E+00 -0.50168898980E+02  0.50168898980E+02  0.00000000000E+00 0.  1.
          5    1    1    2  501    0 -0.47385572438E+01  0.10348470078E+01 -0.14787913160E+02  0.16257220202E+02  0.47000000000E+01 0.  1.
         -5    1    1    2    0  503  0.47385572438E+01 -0.10348470078E+01 -0.34317186109E+02  0.34975478488E+02  0.47000000000E+01 0.  1.
<mgrwt>
<rscale>  2 0.67538754E+01</rscale>
<asrwt>0</asrwt>
<pdfrwt beam="1">  1       21 0.16366148E-03 0.67538754E+01</pdfrwt>
<pdfrwt beam="2">  1       21 0.77182927E-02 0.67538754E+01</pdfrwt>
<totfact> 0.21726649E+09</totfact>
</mgrwt>
</event>
<event>
 4    1  0.3992289E+006  0.4945949E+01  0.7546771E-02  0.2576833E+00
         21   -1    0    0  503  502  0.00000000000E+00  0.00000000000E+00  0.13223923670E-01  0.13223923670E-01  0.00000000000E+00 0. -1.
         21   -1    0    0  501  503 -0.00000000000E+00 -0.00000000000E+00 -0.18847641995E+04  0.18847641995E+04  0.00000000000E+00 0. -1.
          5    1    1    2  501    0  0.35422641112E+00  0.14989779386E+01 -0.10706199529E+04  0.10706313773E+04  0.47000000000E+01 0. -1.
         -5    1    1    2    0  502 -0.35422641112E+00 -0.14989779386E+01 -0.81413102259E+03  0.81414604608E+03  0.47000000000E+01 0. -1.
<mgrwt>
<rscale>  2 0.49459490E+01</rscale>
<asrwt>0</asrwt>
<pdfrwt beam="1">  1       21 0.20342439E-05 0.49459490E+01</pdfrwt>
<pdfrwt beam="2">  1       21 0.28999307E+00 0.49459490E+01</pdfrwt>
<totfact> 0.80671724E+08</totfact>
</mgrwt>
</event>
<event>
 4    1  0.3992289E+006  0.6793340E+01  0.7546771E-02  0.2322346E+00
         21   -1    0    0  501  502  0.00000000000E+00  0.00000000000E+00  0.16558622047E+02  0.16558622047E+02  0.00000000000E+00 0.  1.
         21   -1    0    0  502  503 -0.00000000000E+00 -0.00000000000E+00 -0.73735631312E+01  0.73735631312E+01  0.00000000000E+00 0.  1.
          5    1    1    2  501    0  0.44513169195E+01 -0.20604006715E+01  0.14030000848E+02  0.15588149250E+02  0.47000000000E+01 0.  1.
         -5    1    1    2    0  503 -0.44513169195E+01  0.20604006715E+01 -0.48449419322E+01  0.83440359282E+01  0.47000000000E+01 0.  1.
<mgrwt>
<rscale>  2 0.67933404E+01</rscale>
<asrwt>0</asrwt>
<pdfrwt beam="1">  1       21 0.25474803E-02 0.67933404E+01</pdfrwt>
<pdfrwt beam="2">  1       21 0.11343943E-02 0.67933404E+01</pdfrwt>
<totfact> 0.76418608E+08</totfact>
</mgrwt>
</event>
<event>
 4    1  0.3992289E+006  0.5266836E+01  0.7546771E-02  0.2521888E+00
         21   -1    0    0  503  502  0.00000000000E+00  0.00000000000E+00  0.13640186942E+00  0.13640186942E+00  0.00000000000E+00 0. -1.
         21   -1    0    0  501  503 -0.00000000000E+00 -0.00000000000E+00 -0.24464579273E+03  0.24464579273E+03  0.00000000000E+00 0. -1.
          5    1    1    2  501    0  0.17423153252E+01 -0.16167541035E+01 -0.17252917994E+03  0.17260955213E+03  0.47000000000E+01 0. -1.
         -5    1    1    2    0  502 -0.17423153252E+01  0.16167541035E+01 -0.71980210920E+02  0.72172642467E+02  0.47000000000E+01 0. -1.
<mgrwt>
<rscale>  2 0.52668355E+01</rscale>
<asrwt>0</asrwt>
<pdfrwt beam="1">  1       21 0.20984868E-04 0.52668355E+01</pdfrwt>
<pdfrwt beam="2">  1       21 0.37637876E-01 0.52668355E+01</pdfrwt>
<totfact> 0.21950458E+09</totfact>
</mgrwt>
</event>
<event>
 4    1  0.3992289E+006  0.5767083E+01  0.7546771E-02  0.2446761E+00
         21   -1    0    0  503  502  0.00000000000E+00  0.00000000000E+00  0.26178793991E+02  0.26178793991E+02  0.00000000000E+00 0.  1.
         21   -1    0    0  501  503 -0.00000000000E+00 -0.00000000000E+00 -0.12741956752E+01  0.12741956752E+01  0.00000000000E+00 0.  1.
          5    1    1    2  501    0 -0.83201298051E+00  0.32368189763E+01  0.13195032111E+02  0.14400281771E+02  0.47000000000E+01 0.  1.
         -5    1    1    2    0  502  0.83201298051E+00 -0.32368189763E+01  0.11709566205E+02  0.13052707895E+02  0.47000000000E+01 0.  1.
<mgrwt>
<rscale>  2 0.57670827E+01</rscale>
<asrwt>0</asrwt>
<pdfrwt beam="1">  1       21 0.40275064E-02 0.57670827E+01</pdfrwt>
<pdfrwt beam="2">  1       21 0.19603012E-03 0.57670827E+01</pdfrwt>
<totfact> 0.39288890E+09</totfact>
</mgrwt>
</event>
<event>
 4    1  0.3992289E+006  0.1086605E+02  0.7546771E-02  0.2028810E+00
         21   -1    0    0  501  502  0.00000000000E+00  0.00000000000E+00  0.11108546816E+03  0.11108546816E+03  0.00000000000E+00 0. -1.
         21   -1    0    0  502  503 -0.00000000000E+00 -0.00000000000E+00 -0.13975725433E+01  0.13975725433E+01  0.00000000000E+00 0. -1.
          5    1    1    2  501    0  0.10914488297E+01 -0.97359994386E+01  0.27321286940E+02  0.29402783298E+02  0.47000000000E+01 0. -1.
         -5    1    1    2    0  503 -0.10914488297E+01  0.97359994386E+01  0.82366608674E+02  0.83080257402E+02  0.47000000000E+01 0. -1.
<mgrwt>
<rscale>  2 0.10866046E+02</rscale>
<asrwt>0</asrwt>
<pdfrwt beam="1">  1       21 0.17090065E-01 0.10866046E+02</pdfrwt>
<pdfrwt beam="2">  1       21 0.21501125E-03 0.10866046E+02</pdfrwt>
<totfact> 0.56881755E+08</totfact>
</mgrwt>
</event>
<event>
 4    1  0.3992289E+006  0.7950598E+01  0.7546771E-02  0.2214644E+00
         21   -1    0    0  503  502  0.00000000000E+00  0.00000000000E+00  0.58871927140E+00  0.58871927140E+00  0.00000000000E+00 0. -1.
         21   -1    0    0  501  503 -0.00000000000E+00 -0.00000000000E+00 -0.12504105891E+03  0.12504105891E+03  0.00000000000E+00 0.  1.
          5    1    1    2  501    0 -0.18542560832E+01 -0.61387082820E+01 -0.85838680269E+02  0.86206096277E+02  0.47000000000E+01 0.  1.
         -5    1    1    2    0  502  0.18542560832E+01  0.61387082820E+01 -0.38613659373E+02  0.39423681908E+02  0.47000000000E+01 0. -1.
<mgrwt>
<rscale>  2 0.79505978E+01</rscale>
<asrwt>0</asrwt>
<pdfrwt beam="1">  1       21 0.90572128E-04 0.79505978E+01</pdfrwt>
<pdfrwt beam="2">  1       21 0.19237100E-01 0.79505978E+01</pdfrwt>
<totfact> 0.12928413E+09</totfact>
</mgrwt>
</event>
<event>
 4    1  0.3992289E+006  0.7307373E+01  0.7546771E-02  0.2271078E+00
         21   -1    0    0  501  502  0.00000000000E+00  0.00000000000E+00  0.44691926761E+01  0.44691926761E+01  0.00000000000E+00 0. -1.
         21   -1    0    0  502  503 -0.00000000000E+00 -0.00000000000E+00 -0.16043785918E+02  0.16043785918E+02  0.00000000000E+00 0. -1.
          5    1    1    2  501    0 -0.55603370630E+01 -0.62477932158E+00 -0.60506886350E+00  0.73323806355E+01  0.47000000000E+01 0. -1.
         -5    1    1    2    0  503  0.55603370630E+01  0.62477932158E+00 -0.10969524378E+02  0.13180597958E+02  0.47000000000E+01 0. -1.
<mgrwt>
<rscale>  2 0.73073728E+01</rscale>
<asrwt>0</asrwt>
<pdfrwt beam="1">  1       21 0.68756810E-03 0.73073728E+01</pdfrwt>
<pdfrwt beam="2">  1       21 0.24682748E-02 0.73073728E+01</pdfrwt>
<totfact> 0.17195456E+09</totfact>
</mgrwt>
</event>
<event>
 4    1  0.3992289E+006  0.6044476E+01  0.7546771E-02  0.2409671E+00
         21   -1    0    0  503  502  0.00000000000E+00  0.00000000000E+00  0.64789165526E+02  0.64789165526E+02  0.00000000000E+00 0. -1.
         21   -1    0    0  501  503 -0.00000000000E+00 -0.00000000000E+00 -0.59301597171E+00  0.59301597171E+00  0.00000000000E+00 0. -1.
          5    1    1    2  501    0 -0.36867692578E+01 -0.92380696847E+00  0.24856418382E+02  0.25580797909E+02  0.47000000000E+01 0. -1.
         -5    1    1    2    0  502  0.36867692578E+01  0.92380696847E+00  0.39339731172E+02  0.39801383589E+02  0.47000000000E+01 0. -1.
<mgrwt>
<rscale>  2 0.60444757E+01</rscale>
<asrwt>0</asrwt>
<pdfrwt beam="1">  1       21 0.99675583E-02 0.60444757E+01</pdfrwt>
<pdfrwt beam="2">  1       21 0.91233278E-04 0.60444757E+01</pdfrwt>
<totfact> 0.29585053E+09</totfact>
</mgrwt>
</event>
<event>
 4    1  0.3992289E+006  0.5652704E+01  0.7546771E-02  0.2462942E+00
         21   -1    0    0  501  502  0.00000000000E+00  0.00000000000E+00  0.96425856949E+01  0.96425856949E+01  0.00000000000E+00 0. -1.
         21   -1    0    0  502  503 -0.00000000000E+00 -0.00000000000E+00 -0.55543365097E+01  0.55543365097E+01  0.00000000000E+00 0. -1.
          5    1    1    2  501    0  0.19169533488E+01 -0.24876396142E+01  0.68701653516E+01  0.88967540682E+01  0.47000000000E+01 0. -1.
         -5    1    1    2    0  503 -0.19169533488E+01  0.24876396142E+01 -0.27819161664E+01  0.63001681365E+01  0.47000000000E+01 0. -1.
<mgrwt>
<rscale>  2 0.56527039E+01</rscale>
<asrwt>0</asrwt>
<pdfrwt beam="1">  1       21 0.14834747E-02 0.56527039E+01</pdfrwt>
<pdfrwt beam="2">  1       21 0.85451331E-03 0.56527039E+01</pdfrwt>
<totfact> 0.21360920E+09</totfact>
</mgrwt>
</event>
<event>
 4    1  0.3992289E+006  0.5458480E+01  0.7546771E-02  0.2491727E+00
         21   -1    0    0  503  502  0.00000000000E+00  0.00000000000E+00  0.37358788791E+02  0.37358788791E+02  0.00000000000E+00 0.  1.
         21   -1    0    0  501  503 -0.00000000000E+00 -0.00000000000E+00 -0.61827344547E+01  0.61827344547E+01  0.00000000000E+00 0.  1.
          5    1    1    2  501    0  0.15451619510E+01 -0.23059652387E+01 -0.47301226258E+01  0.72228153231E+01  0.47000000000E+01 0.  1.
         -5    1    1    2    0  502 -0.15451619510E+01  0.23059652387E+01  0.35906176963E+02  0.36318707923E+02  0.47000000000E+01 0.  1.
<mgrwt>
<rscale>  2 0.54584797E+01</rscale>
<asrwt>0</asrwt>
<pdfrwt beam="1">  1       21 0.57475059E-02 0.54584797E+01</pdfrwt>
<pdfrwt beam="2">  1       21 0.95118993E-03 0.54584797E+01</pdfrwt>
<totfact> 0.25173502E+08</totfact>
</mgrwt>
</event>
<event>
 4    1  0.3992289E+006  0.5874408E+01  0.7546771E-02  0.2432062E+00
         21   -1    0    0  501  502  0.00000000000E+00  0.00000000000E+00  0.50069056155E+03  0.50069056155E+03  0.00000000000E+00 0.  1.
         21   -1    0    0  502  503 -0.00000000000E+00 -0.00000000000E+00 -0.32057494808E+00  0.32057494808E+00  0.00000000000E+00 0.  1.
          5    1    1    2  501    0 -0.79140782536E-01  0.35231249866E+01  0.47213413517E+03  0.47217067917E+03  0.47000000000E+01 0.  1.
         -5    1    1    2    0  503  0.79140782536E-01 -0.35231249866E+01  0.28235851426E+02  0.28840457324E+02  0.47000000000E+01 0.  1.
<mgrwt>
<rscale>  2 0.58744083E+01</rscale>
<asrwt>0</asrwt>
<pdfrwt beam="1">  1       21 0.77028692E-01 0.58744083E+01</pdfrwt>
<pdfrwt beam="2">  1       21 0.49319623E-04 0.58744083E+01</pdfrwt>
<totfact> 0.20841590E+08</totfact>
</mgrwt>
</event>
<event>
 4    1  0.3992289E+006  0.9172984E+01  0.7546771E-02  0.2125354E+00
         21   -1    0    0  501  502  0.00000000000E+00  0.00000000000E+00  0.68044781900E+02  0.68044781900E+02  0.00000000000E+00 0.  1.
         21   -1    0    0  502  503 -0.00000000000E+00 -0.00000000000E+00 -0.16214010438E+01  0.16214010438E+01  0.00000000000E+00 0. -1.
          5    1    1    2  501    0 -0.23751888826E+01 -0.75107999329E+01  0.16242176977E+02  0.18653470208E+02  0.47000000000E+01 0. -1.
         -5    1    1    2    0  503  0.23751888826E+01  0.75107999329E+01  0.50181203879E+02  0.51012712735E+02  0.47000000000E+01 0.  1.
<mgrwt>
<rscale>  2 0.91729841E+01</rscale>
<asrwt>0</asrwt>
<pdfrwt beam="1">  1       21 0.10468426E-01 0.91729841E+01</pdfrwt>
<pdfrwt beam="2">  1       21 0.24944637E-03 0.91729841E+01</pdfrwt>
<totfact> 0.93099140E+08</totfact>
</mgrwt>
</event>
<event>
 4    1  0.3992289E+006  0.1324575E+02  0.7546771E-02  0.1926853E+00
         21   -1    0    0  503  502  0.00000000000E+00  0.00000000000E+00  0.13455452496E+00  0.13455452496E+00  0.00000000000E+00 0. -1.
         21   -1    0    0  501  503 -0.00000000000E+00 -0.00000000000E+00 -0.13308163663E+04  0.13308163663E+04  0.00000000000E+00 0.  1.
          5    1    1    2  501    0  0.26534282286E+01 -0.12096249891E+02 -0.75992614445E+03  0.76004157450E+03  0.47000000000E+01 0.  1.
         -5    1    1    2    0  502 -0.26534282286E+01  0.12096249891E+02 -0.57075566729E+03  0.57090934629E+03  0.47000000000E+01 0.  1.
<mgrwt>
<rscale>  2 0.13245752E+02</rscale>
<asrwt>0</asrwt>
<pdfrwt beam="1">  1       21 0.20700130E-04 0.13245752E+02</pdfrwt>
<pdfrwt beam="2">  1       21 0.20474658E+00 0.13245752E+02</pdfrwt>
<totfact> 0.11791933E+08</totfact>
</mgrwt>
</event>
<event>
 4    1  0.3992289E+006  0.8311546E+01  0.7546771E-02  0.2186099E+00
         21   -1    0    0  501  502  0.00000000000E+00  0.00000000000E+00  0.29684540837E+03  0.29684540837E+03  0.00000000000E+00 0. -1.
         21   -1    0    0  502  503 -0.00000000000E+00 -0.00000000000E+00 -0.58339222581E+00  0.58339222581E+00  0.00000000000E+00 0.  1.
          5    1    1    2  501    0  0.38653052561E+01  0.56613796473E+01  0.26342946999E+03  0.26356055749E+03  0.47000000000E+01 0. -1.
         -5    1    1    2    0  503 -0.38653052561E+01 -0.56613796473E+01  0.32832546154E+02  0.33868243107E+02  0.47000000000E+01 0.  1.
<mgrwt>
<rscale>  2 0.83115464E+01</rscale>
<asrwt>0</asrwt>
<pdfrwt beam="1">  1       21 0.45668404E-01 0.83115464E+01</pdfrwt>
<pdfrwt beam="2">  1       21 0.89752887E-04 0.83115464E+01</pdfrwt>
<totfact> 0.30313515E+08</totfact>
</mgrwt>
</event>
<event>
 4    1  0.3992289E+006  0.6897789E+01  0.7546771E-02  0.2311423E+00
         21   -1    0    0  501  502  0.00000000000E+00  0.00000000000E+00  0.49637173795E+01  0.49637173795E+01  0.00000000000E+00 0.  1.
         21   -1    0    0  502  503 -0.00000000000E+00 -0.00000000000E+00 -0.18740162095E+02  0.18740162095E+02  0.00000000000E+00 0.  1.
          5    1    1    2  501    0  0.14331153166E+01 -0.48410402784E+01  0.13954895304E+01  0.70375337667E+01  0.47000000000E+01 0.  1.
         -5    1    1    2    0  503 -0.14331153166E+01  0.48410402784E+01 -0.15171934246E+02  0.16666345708E+02  0.47000000000E+01 0.  1.
<mgrwt>
<rscale>  2 0.68977888E+01</rscale>
<asrwt>0</asrwt>
<pdfrwt beam="1">  1       21 0.76364883E-03 0.68977888E+01</pdfrwt>
<pdfrwt beam="2">  1       21 0.28831018E-02 0.68977888E+01</pdfrwt>
<totfact> 0.11311185E+09</totfact>
</mgrwt>
</event>
<event>
 4    1  0.3992289E+006  0.6916636E+01  0.7546771E-02  0.2309481E+00
         21   -1    0    0  503  502  0.00000000000E+00  0.00000000000E+00  0.41751229186E+00  0.41751229186E+00  0.00000000000E+00 0.  1.
         21   -1    0    0  501  503 -0.00000000000E+00 -0.00000000000E+00 -0.18544075312E+03  0.18544075312E+03  0.00000000000E+00 0. -1.
          5    1    1    2  501    0  0.17632347158E+01 -0.47582411708E+01 -0.14995535311E+03  0.15011478202E+03  0.47000000000E+01 0. -1.
         -5    1    1    2    0  502 -0.17632347158E+01  0.47582411708E+01 -0.35067887718E+02  0.35743483388E+02  0.47000000000E+01 0.  1.
<mgrwt>
<rscale>  2 0.69166362E+01</rscale>
<asrwt>0</asrwt>
<pdfrwt beam="1">  1       21 0.64232525E-04 0.69166362E+01</pdfrwt>
<pdfrwt beam="2">  1       21 0.28529407E-01 0.69166362E+01</pdfrwt>
<totfact> 0.97288600E+08</totfact>
</mgrwt>
</event>
<event>
 4    1  0.3992289E+006  0.5200693E+01  0.7546771E-02  0.2532737E+00
         21   -1    0    0  503  502  0.00000000000E+00  0.00000000000E+00  0.55317017022E+02  0.55317017022E+02  0.00000000000E+00 0. -1.
         21   -1    0    0  501  503 -0.00000000000E+00 -0.00000000000E+00 -0.32182099431E+01  0.32182099431E+01  0.00000000000E+00 0. -1.
          5    1    1    2  501    0 -0.53553702755E+00  0.21611118555E+01 -0.90331951926E+00  0.52785595112E+01  0.47000000000E+01 0. -1.
         -5    1    1    2    0  502  0.53553702755E+00 -0.21611118555E+01  0.53002126598E+02  0.53256667453E+02  0.47000000000E+01 0. -1.
<mgrwt>
<rscale>  2 0.52006927E+01</rscale>
<asrwt>0</asrwt>
<pdfrwt beam="1">  1       21 0.85103097E-02 0.52006927E+01</pdfrwt>
<pdfrwt beam="2">  1       21 0.49510926E-03 0.52006927E+01</pdfrwt>
<totfact> 0.33359933E+08</totfact>
</mgrwt>
</event>
<event>
 4    1  0.3992289E+006  0.5370213E+01  0.7546771E-02  0.2505391E+00
         21   -1    0    0  503  502  0.00000000000E+00  0.00000000000E+00  0.10273753899E+01  0.10273753899E+01  0.00000000000E+00 0.  1.
         21   -1    0    0  501  503 -0.00000000000E+00 -0.00000000000E+00 -0.28186781812E+03  0.28186781812E+03  0.00000000000E+00 0.  1.
          5    1    1    2  501    0  0.23778214701E+01  0.10464948411E+01 -0.27463988188E+03  0.27469238050E+03  0.47000000000E+01 0.  1.
         -5    1    1    2    0  502 -0.23778214701E+01 -0.10464948411E+01 -0.62005608495E+01  0.82028130080E+01  0.47000000000E+01 0.  1.
<mgrwt>
<rscale>  2 0.53702129E+01</rscale>
<asrwt>0</asrwt>
<pdfrwt beam="1">  1       21 0.15805776E-03 0.53702129E+01</pdfrwt>
<pdfrwt beam="2">  1       21 0.43364277E-01 0.53702129E+01</pdfrwt>
<totfact> 0.11861288E+08</totfact>
</mgrwt>
</event>
<event>
 4    1  0.3992289E+006  0.1164614E+02  0.7546771E-02  0.1991865E+00
         21   -1    0    0  501  502  0.00000000000E+00  0.00000000000E+00  0.56105200363E+01  0.56105200363E+01  0.00000000000E+00 0. -1.
         21   -1    0    0  502  503 -0.00000000000E+00 -0.00000000000E+00 -0.24767979196E+02  0.24767979196E+02  0.00000000000E+00 0.  1.
          5    1    1    2  501    0 -0.77949750786E+01 -0.72650439074E+01 -0.11929605337E+02  0.16671772040E+02  0.47000000000E+01 0.  1.
         -5    1    1    2    0  503  0.77949750786E+01  0.72650439074E+01 -0.72278538228E+01  0.13706727193E+02  0.47000000000E+01 0. -1.
<mgrwt>
<rscale>  2 0.11646137E+02</rscale>
<asrwt>0</asrwt>
<pdfrwt beam="1">  1       21 0.86315694E-03 0.11646137E+02</pdfrwt>
<pdfrwt beam="2">  1       21 0.38104583E-02 0.11646137E+02</pdfrwt>
<totfact> 0.86924561E+08</totfact>
</mgrwt>
</event>
<event>
 4    1  0.3992289E+006  0.1302941E+02  0.7546771E-02  0.1934925E+00
         21   -1    0    0  501  502  0.00000000000E+00  0.00000000000E+00  0.23264324515E+02  0.23264324515E+02  0.00000000000E+00 0. -1.
         21   -1    0    0  502  503 -0.00000000000E+00 -0.00000000000E+00 -0.50403860424E+02  0.50403860424E+02  0.00000000000E+00 0.  1.
          5    1    1    2  501    0 -0.51286642152E+00 -0.12141351669E+02  0.20493792604E+02  0.24284995112E+02  0.47000000000E+01 0. -1.
         -5    1    1    2    0  503  0.51286642152E+00  0.12141351669E+02 -0.47633328512E+02  0.49383189827E+02  0.47000000000E+01 0.  1.
<mgrwt>
<rscale>  2 0.13029407E+02</rscale>
<asrwt>0</asrwt>
<pdfrwt beam="1">  1       21 0.35791269E-02 0.13029407E+02</pdfrwt>
<pdfrwt beam="2">  1       21 0.77544400E-02 0.13029407E+02</pdfrwt>
<totfact> 0.36304765E+07</totfact>
</mgrwt>
</event>
<event>
 4    1  0.3992289E+006  0.6053929E+01  0.7546771E-02  0.2408457E+00
         21   -1    0    0  503  502  0.00000000000E+00  0.00000000000E+00  0.37090800141E+01  0.37090800141E+01  0.00000000000E+00 0.  1.
         21   -1    0    0  501  503 -0.00000000000E+00 -0.00000000000E+00 -0.22446251662E+02  0.22446251662E+02  0.00000000000E+00 0.  1.
          5    1    1    2  501    0 -0.20450415929E+01  0.32214691809E+01 -0.19153137689E+02  0.20087128767E+02  0.47000000000E+01 0.  1.
         -5    1    1    2    0  502  0.20450415929E+01 -0.32214691809E+01  0.41596604035E+00  0.60682029091E+01  0.47000000000E+01 0.  1.
<mgrwt>
<rscale>  2 0.60539292E+01</rscale>
<asrwt>0</asrwt>
<pdfrwt beam="1">  1       21 0.57062771E-03 0.60539292E+01</pdfrwt>
<pdfrwt beam="2">  1       21 0.34532694E-02 0.60539292E+01</pdfrwt>
<totfact> 0.11803809E+09</totfact>
</mgrwt>
</event>
<event>
 4    1  0.3992289E+006  0.7108371E+01  0.7546771E-02  0.2290205E+00
         21   -1    0    0  501  502  0.00000000000E+00  0.00000000000E+00  0.31687549266E+02  0.31687549266E+02  0.00000000000E+00 0. -1.
         21   -1    0    0  502  503 -0.00000000000E+00 -0.00000000000E+00 -0.12273928491E+02  0.12273928491E+02  0.00000000000E+00 0.  1.
          5    1    1    2  501    0  0.19787160488E+01  0.49521323098E+01  0.30210050018E+02  0.31035077794E+02  0.47000000000E+01 0. -1.
         -5    1    1    2    0  503 -0.19787160488E+01 -0.49521323098E+01 -0.10796429242E+02  0.12926399963E+02  0.47000000000E+01 0.  1.
<mgrwt>
<rscale>  2 0.71083705E+01</rscale>
<asrwt>0</asrwt>
<pdfrwt beam="1">  1       21 0.48750075E-02 0.71083705E+01</pdfrwt>
<pdfrwt beam="2">  1       21 0.18882967E-02 0.71083705E+01</pdfrwt>
<totfact> 0.14514988E+08</totfact>
</mgrwt>
</event>
<event>
 4    1  0.3992289E+006  0.6724372E+01  0.7546771E-02  0.2329712E+00
         21   -1    0    0  501  502  0.00000000000E+00  0.00000000000E+00  0.24327418893E+02  0.24327418893E+02  0.00000000000E+00 0.  1.
         21   -1    0    0  502  503 -0.00000000000E+00 -0.00000000000E+00 -0.59591260819E+01  0.59591260819E+01  0.00000000000E+00 0.  1.
          5    1    1    2  501    0  0.16711636111E+01 -0.45093665094E+01  0.21745700636E+02  0.22761649112E+02  0.47000000000E+01 0.  1.
         -5    1    1    2    0  503 -0.16711636111E+01  0.45093665094E+01 -0.33774078252E+01  0.75248958630E+01  0.47000000000E+01 0.  1.
<mgrwt>
<rscale>  2 0.67243717E+01</rscale>
<asrwt>0</asrwt>
<pdfrwt beam="1">  1       21 0.37426798E-02 0.67243717E+01</pdfrwt>
<pdfrwt beam="2">  1       21 0.91678864E-03 0.67243717E+01</pdfrwt>
<totfact> 0.58398662E+08</totfact>
</mgrwt>
</event>
<event>
 4    1  0.3992289E+006  0.6310439E+01  0.7546771E-02  0.2376690E+00
         21   -1    0    0  501  502  0.00000000000E+00  0.00000000000E+00  0.80592484805E+02  0.80592484805E+02  0.00000000000E+00 0.  1.
         21   -1    0    0  502  503 -0.00000000000E+00 -0.00000000000E+00 -0.53843049590E+00  0.53843049590E+00  0.00000000000E+00 0.  1.
          5    1    1    2  501    0 -0.41419088392E+01  0.75910005032E+00  0.28388756659E+02  0.29081663404E+02  0.47000000000E+01 0.  1.
         -5    1    1    2    0  503  0.41419088392E+01 -0.75910005032E+00  0.51665297650E+02  0.52049251897E+02  0.47000000000E+01 0.  1.
<mgrwt>
<rscale>  2 0.63104391E+01</rscale>
<asrwt>0</asrwt>
<pdfrwt beam="1">  1       21 0.12398834E-01 0.63104391E+01</pdfrwt>
<pdfrwt beam="2">  1       21 0.82835525E-04 0.63104391E+01</pdfrwt>
<totfact> 0.24902834E+09</totfact>
</mgrwt>
</event>
<event>
 4    1  0.3992289E+006  0.4998056E+01  0.7546771E-02  0.2567499E+00
         21   -1    0    0  503  502  0.00000000000E+00  0.00000000000E+00  0.28300014125E+03  0.28300014125E+03  0.00000000000E+00 0. -1.
         21   -1    0    0  501  503 -0.00000000000E+00 -0.00000000000E+00 -0.56024375344E+00  0.56024375344E+00  0.00000000000E+00 0. -1.
          5    1    1    2  501    0 -0.14729222016E+01  0.84915276735E+00  0.11087455613E+02  0.12161917291E+02  0.47000000000E+01 0. -1.
         -5    1    1    2    0  502  0.14729222016E+01 -0.84915276735E+00  0.27135244189E+03  0.27139846771E+03  0.47000000000E+01 0. -1.
<mgrwt>
<rscale>  2 0.49980556E+01</rscale>
<asrwt>0</asrwt>
<pdfrwt beam="1">  1       21 0.43538369E-01 0.49980556E+01</pdfrwt>
<pdfrwt beam="2">  1       21 0.86191573E-04 0.49980556E+01</pdfrwt>
<totfact> 0.25097189E+08</totfact>
</mgrwt>
</event>
<event>
 4    1  0.3992289E+006  0.5127116E+01  0.7546771E-02  0.2545086E+00
         21   -1    0    0  503  502  0.00000000000E+00  0.00000000000E+00  0.34381036491E+01  0.34381036491E+01  0.00000000000E+00 0. -1.
         21   -1    0    0  501  503 -0.00000000000E+00 -0.00000000000E+00 -0.80684599264E+01  0.80684599264E+01  0.00000000000E+00 0. -1.
          5    1    1    2  501    0  0.15803614865E+01 -0.13037543703E+01 -0.36318460608E+01  0.62831221296E+01  0.47000000000E+01 0. -1.
         -5    1    1    2    0  502 -0.15803614865E+01  0.13037543703E+01 -0.99851021657E+00  0.52234414459E+01  0.47000000000E+01 0. -1.
<mgrwt>
<rscale>  2 0.51271159E+01</rscale>
<asrwt>0</asrwt>
<pdfrwt beam="1">  1       21 0.52893902E-03 0.51271159E+01</pdfrwt>
<pdfrwt beam="2">  1       21 0.12413015E-02 0.51271159E+01</pdfrwt>
<totfact> 0.48631949E+09</totfact>
</mgrwt>
</event>
<event>
 4    1  0.3992289E+006  0.8662645E+01  0.7546771E-02  0.2160179E+00
         21   -1    0    0  501  502  0.00000000000E+00  0.00000000000E+00  0.19415181050E+02  0.19415181050E+02  0.00000000000E+00 0. -1.
         21   -1    0    0  502  503 -0.00000000000E+00 -0.00000000000E+00 -0.38664604170E+01  0.38664604170E+01  0.00000000000E+00 0.  1.
          5    1    1    2  501    0  0.34502679931E+01  0.64067986572E+01  0.75551884871E+01  0.11494446108E+02  0.47000000000E+01 0.  1.
         -5    1    1    2    0  503 -0.34502679931E+01 -0.64067986572E+01  0.79935321457E+01  0.11787195359E+02  0.47000000000E+01 0.  1.
<mgrwt>
<rscale>  2 0.86626450E+01</rscale>
<asrwt>0</asrwt>
<pdfrwt beam="1">  1       21 0.29869509E-02 0.86626450E+01</pdfrwt>
<pdfrwt beam="2">  1       21 0.59484007E-03 0.86626450E+01</pdfrwt>
<totfact> 0.17971167E+09</totfact>
</mgrwt>
</event>
<event>
 4    1  0.3992289E+006  0.4700265E+01  0.7546771E-02  0.2623241E+00
         21   -1    0    0  503  502  0.00000000000E+00  0.00000000000E+00  0.36773068528E+02  0.36773068528E+02  0.00000000000E+00 0. -1.
         21   -1    0    0  501  503 -0.00000000000E+00 -0.00000000000E+00 -0.15120322060E+01  0.15120322060E+01  0.00000000000E+00 0. -1.
          5    1    1    2  501    0 -0.25184758739E-01 -0.43086444034E-01  0.27698344681E+01  0.54556826974E+01  0.47000000000E+01 0. -1.
         -5    1    1    2    0  502  0.25184758739E-01  0.43086444034E-01  0.32491201854E+02  0.32829418036E+02  0.47000000000E+01 0. -1.
<mgrwt>
<rscale>  2 0.47002650E+01</rscale>
<asrwt>0</asrwt>
<pdfrwt beam="1">  1       21 0.56573945E-02 0.47002650E+01</pdfrwt>
<pdfrwt beam="2">  1       21 0.23262037E-03 0.47002650E+01</pdfrwt>
<totfact> 0.15563056E+09</totfact>
</mgrwt>
</event>
<event>
 4    1  0.3992289E+006  0.4821932E+01  0.7546771E-02  0.2599746E+00
         21   -1    0    0  501  502  0.00000000000E+00  0.00000000000E+00  0.71641457819E+00  0.71641457819E+00  0.00000000000E+00 0. -1.
         21   -1    0    0  502  503 -0.00000000000E+00 -0.00000000000E+00 -0.53345178002E+02  0.53345178002E+02  0.00000000000E+00 0. -1.
          5    1    1    2  501    0  0.87455226175E+00  0.62943668124E+00 -0.93988649401E+01  0.10563602338E+02  0.47000000000E+01 0. -1.
         -5    1    1    2    0  503 -0.87455226175E+00 -0.62943668124E+00 -0.43229898484E+02  0.43497990242E+02  0.47000000000E+01 0. -1.
<mgrwt>
<rscale>  2 0.48219324E+01</rscale>
<asrwt>0</asrwt>
<pdfrwt beam="1">  1       21 0.11021764E-03 0.48219324E+01</pdfrwt>
<pdfrwt beam="2">  1       21 0.82069494E-02 0.48219324E+01</pdfrwt>
<totfact> 0.24995099E+09</totfact>
</mgrwt>
</event>
<event>
 4    1  0.3992289E+006  0.6657918E+01  0.7546771E-02  0.2336927E+00
         21   -1    0    0  501  502  0.00000000000E+00  0.00000000000E+00  0.30657105779E+01  0.30657105779E+01  0.00000000000E+00 0. -1.
         21   -1    0    0  502  503 -0.00000000000E+00 -0.00000000000E+00 -0.21215563707E+02  0.21215563707E+02  0.00000000000E+00 0.  1.
          5    1    1    2  501    0 -0.80854314187E+00 -0.46458726456E+01 -0.22236877623E+01  0.70194488327E+01  0.47000000000E+01 0. -1.
         -5    1    1    2    0  503  0.80854314187E+00  0.46458726456E+01 -0.15926165366E+02  0.17261825452E+02  0.47000000000E+01 0. -1.
<mgrwt>
<rscale>  2 0.66579182E+01</rscale>
<asrwt>0</asrwt>
<pdfrwt beam="1">  1       21 0.47164777E-03 0.66579182E+01</pdfrwt>
<pdfrwt beam="2">  1       21 0.32639330E-02 0.66579182E+01</pdfrwt>
<totfact> 0.18061359E+09</totfact>
</mgrwt>
</event>
<event>
 4    1  0.3992289E+006  0.5353123E+01  0.7546771E-02  0.2508081E+00
         21   -1    0    0  501  502  0.00000000000E+00  0.00000000000E+00  0.52747573470E+02  0.52747573470E+02  0.00000000000E+00 0. -1.
         21   -1    0    0  502  503 -0.00000000000E+00 -0.00000000000E+00 -0.12890686972E+01  0.12890686972E+01  0.00000000000E+00 0. -1.
          5    1    1    2  501    0  0.23457481302E+01  0.10312101776E+01  0.46280230309E+02  0.46588793139E+02  0.47000000000E+01 0. -1.
         -5    1    1    2    0  503 -0.23457481302E+01 -0.10312101776E+01  0.51782744640E+01  0.74478490281E+01  0.47000000000E+01 0. -1.
<mgrwt>
<rscale>  2 0.53531233E+01</rscale>
<asrwt>0</asrwt>
<pdfrwt beam="1">  1       21 0.81150096E-02 0.53531233E+01</pdfrwt>
<pdfrwt beam="2">  1       21 0.19831830E-03 0.53531233E+01</pdfrwt>
<totfact> 0.12798135E+09</totfact>
</mgrwt>
</event>
<event>
 4    1  0.3992289E+006  0.5250716E+01  0.7546771E-02  0.2524511E+00
         21   -1    0    0  503  502  0.00000000000E+00  0.00000000000E+00  0.10086871044E+02  0.10086871044E+02  0.00000000000E+00 0. -1.
         21   -1    0    0  501  503 -0.00000000000E+00 -0.00000000000E+00 -0.16927061542E+02  0.16927061542E+02  0.00000000000E+00 0. -1.
          5    1    1    2  501    0 -0.23360929033E+01  0.15062428423E+00 -0.15788578045E+02  0.16638786446E+02  0.47000000000E+01 0. -1.
         -5    1    1    2    0  502  0.23360929033E+01 -0.15062428423E+00  0.89483875469E+01  0.10375146140E+02  0.47000000000E+01 0. -1.
<mgrwt>
<rscale>  2 0.52507159E+01</rscale>
<asrwt>0</asrwt>
<pdfrwt beam="1">  1       21 0.15518263E-02 0.52507159E+01</pdfrwt>
<pdfrwt beam="2">  1       21 0.26041633E-02 0.52507159E+01</pdfrwt>
<totfact> 0.38755331E+08</totfact>
</mgrwt>
</event>
<event>
 4    1  0.3992289E+006  0.4859244E+01  0.7546771E-02  0.2592746E+00
         21   -1    0    0  501  502  0.00000000000E+00  0.00000000000E+00  0.18484926247E+00  0.18484926247E+00  0.00000000000E+00 0. -1.
         21   -1    0    0  502  503 -0.00000000000E+00 -0.00000000000E+00 -0.15895869110E+03  0.15895869110E+03  0.00000000000E+00 0. -1.
          5    1    1    2  501    0 -0.10709428019E+01 -0.61264335140E+00 -0.44122312381E+02  0.44389083119E+02  0.47000000000E+01 0. -1.
         -5    1    1    2    0  503  0.10709428019E+01  0.61264335140E+00 -0.11465152945E+03  0.11475445724E+03  0.47000000000E+01 0. -1.
<mgrwt>
<rscale>  2 0.48592438E+01</rscale>
<asrwt>0</asrwt>
<pdfrwt beam="1">  1       21 0.28438335E-04 0.48592438E+01</pdfrwt>
<pdfrwt beam="2">  1       21 0.24455195E-01 0.48592438E+01</pdfrwt>
<totfact> 0.27932446E+09</totfact>
</mgrwt>
</event>
<event>
 4    1  0.3992289E+006  0.7102982E+01  0.7546771E-02  0.2290735E+00
         21   -1    0    0  501  502  0.00000000000E+00  0.00000000000E+00  0.15758529566E+00  0.15758529566E+00  0.00000000000E+00 0.  1.
         21   -1    0    0  502  503 -0.00000000000E+00 -0.00000000000E+00 -0.32020533238E+03  0.32020533238E+03  0.00000000000E+00 0. -1.
          5    1    1    2  501    0 -0.17510551707E-01 -0.53256028044E+01 -0.15809721274E+03  0.15825669347E+03  0.47000000000E+01 0. -1.
         -5    1    1    2    0  503  0.17510551707E-01  0.53256028044E+01 -0.16195053434E+03  0.16210622420E+03  0.47000000000E+01 0. -1.
<mgrwt>
<rscale>  2 0.71029819E+01</rscale>
<asrwt>0</asrwt>
<pdfrwt beam="1">  1       21 0.24244203E-04 0.71029819E+01</pdfrwt>
<pdfrwt beam="2">  1       21 0.49261726E-01 0.71029819E+01</pdfrwt>
<totfact> 0.14114291E+09</totfact>
</mgrwt>
</event>
<event>
 4    1  0.3992289E+006  0.1734299E+02  0.7546771E-02  0.1803991E+00
         21   -1    0    0  501  502  0.00000000000E+00  0.00000000000E+00  0.31026480206E+02  0.31026480206E+02  0.00000000000E+00 0. -1.
         21   -1    0    0  502  503 -0.00000000000E+00 -0.00000000000E+00 -0.99098147743E+01  0.99098147743E+01  0.00000000000E+00 0.  1.
          5    1    1    2  501    0  0.12281242306E+02 -0.11307540674E+02  0.13576924424E+02  0.22025264254E+02  0.47000000000E+01 0.  1.
         -5    1    1    2    0  503 -0.12281242306E+02  0.11307540674E+02  0.75397410079E+01  0.18911030726E+02  0.47000000000E+01 0. -1.
<mgrwt>
<rscale>  2 0.17342992E+02</rscale>
<asrwt>0</asrwt>
<pdfrwt beam="1">  1       21 0.47733046E-02 0.17342992E+02</pdfrwt>
<pdfrwt beam="2">  1       21 0.15245869E-02 0.17342992E+02</pdfrwt>
<totfact> 0.31615087E+08</totfact>
</mgrwt>
</event>
<event>
 4    1  0.3992289E+006  0.9603358E+01  0.7546771E-02  0.2098290E+00
         21   -1    0    0  503  502  0.00000000000E+00  0.00000000000E+00  0.32985400301E+02  0.32985400301E+02  0.00000000000E+00 0.  1.
         21   -1    0    0  501  503 -0.00000000000E+00 -0.00000000000E+00 -0.83441129522E+01  0.83441129522E+01  0.00000000000E+00 0. -1.
          5    1    1    2  501    0 -0.57929099975E+01 -0.60478663247E+01 -0.45299824103E+01  0.10618155864E+02  0.47000000000E+01 0. -1.
         -5    1    1    2    0  502  0.57929099975E+01  0.60478663247E+01  0.29171269759E+02  0.30711357389E+02  0.47000000000E+01 0.  1.
<mgrwt>
<rscale>  2 0.96033584E+01</rscale>
<asrwt>0</asrwt>
<pdfrwt beam="1">  1       21 0.50746769E-02 0.96033584E+01</pdfrwt>
<pdfrwt beam="2">  1       21 0.12837097E-02 0.96033584E+01</pdfrwt>
<totfact> 0.28426114E+08</totfact>
</mgrwt>
</event>
<event>
 4    1  0.3992289E+006  0.5500986E+01  0.7546771E-02  0.2485280E+00
         21   -1    0    0  501  502  0.00000000000E+00  0.00000000000E+00  0.97515407433E-01  0.97515407433E-01  0.00000000000E+00 0. -1.
         21   -1    0    0  502  503 -0.00000000000E+00 -0.00000000000E+00 -0.49249629962E+03  0.49249629962E+03  0.00000000000E+00 0.  1.
          5    1    1    2  501    0 -0.15629641764E+00  0.28541926455E+01 -0.96401712576E+02  0.96558536815E+02  0.47000000000E+01 0. -1.
         -5    1    1    2    0  503  0.15629641764E+00 -0.28541926455E+01 -0.39599707164E+03  0.39603527821E+03  0.47000000000E+01 0.  1.
<mgrwt>
<rscale>  2 0.55009858E+01</rscale>
<asrwt>0</asrwt>
<pdfrwt beam="1">  1       21 0.15002340E-04 0.55009858E+01</pdfrwt>
<pdfrwt beam="2">  1       21 0.75768814E-01 0.55009858E+01</pdfrwt>
<totfact> 0.10019912E+09</totfact>
</mgrwt>
</event>
<event>
 4    1  0.3992289E+006  0.7633896E+01  0.7546771E-02  0.2241466E+00
         21   -1    0    0  501  502  0.00000000000E+00  0.00000000000E+00  0.11277668374E+04  0.11277668374E+04  0.00000000000E+00 0. -1.
         21   -1    0    0  502  503 -0.00000000000E+00 -0.00000000000E+00 -0.13998555527E+00  0.13998555527E+00  0.00000000000E+00 0. -1.
          5    1    1    2  501    0  0.52649725631E+01 -0.29097140163E+01  0.10117433324E+04  0.10117721320E+04  0.47000000000E+01 0. -1.
         -5    1    1    2    0  503 -0.52649725631E+01  0.29097140163E+01  0.11588351943E+03  0.11613469098E+03  0.47000000000E+01 0. -1.
<mgrwt>
<rscale>  2 0.76338962E+01</rscale>
<asrwt>0</asrwt>
<pdfrwt beam="1">  1       21 0.17349532E+00 0.76338962E+01</pdfrwt>
<pdfrwt beam="2">  1       21 0.21537142E-04 0.76338962E+01</pdfrwt>
<totfact> 0.13470333E+08</totfact>
</mgrwt>
</event>
<event>
 4    1  0.3992289E+006  0.5983411E+01  0.7546771E-02  0.2417588E+00
         21   -1    0    0  501  502  0.00000000000E+00  0.00000000000E+00  0.85586820361E+02  0.85586820361E+02  0.00000000000E+00 0. -1.
         21   -1    0    0  502  503 -0.00000000000E+00 -0.00000000000E+00 -0.53041315502E+00  0.53041315502E+00  0.00000000000E+00 0. -1.
          5    1    1    2  501    0  0.36839542384E+01  0.37375391720E+00  0.62324124022E+02  0.62610683161E+02  0.47000000000E+01 0. -1.
         -5    1    1    2    0  503 -0.36839542384E+01 -0.37375391720E+00  0.22732283184E+02  0.23506550355E+02  0.47000000000E+01 0. -1.
<mgrwt>
<rscale>  2 0.59834113E+01</rscale>
<asrwt>0</asrwt>
<pdfrwt beam="1">  1       21 0.13167192E-01 0.59834113E+01</pdfrwt>
<pdfrwt beam="2">  1       21 0.81602092E-04 0.59834113E+01</pdfrwt>
<totfact> 0.22138682E+09</totfact>
</mgrwt>
</event>
<event>
 4    1  0.3992289E+006  0.5333041E+01  0.7546771E-02  0.2511260E+00
         21   -1    0    0  503  502  0.00000000000E+00  0.00000000000E+00  0.77758954325E+02  0.77758954325E+02  0.00000000000E+00 0. -1.
         21   -1    0    0  501  503 -0.00000000000E+00 -0.00000000000E+00 -0.37104663550E+00  0.37104663550E+00  0.00000000000E+00 0.  1.
          5    1    1    2  501    0  0.11312760838E+01  0.22520075884E+01  0.34032160256E+02  0.34447485474E+02  0.47000000000E+01 0.  1.
         -5    1    1    2    0  502 -0.11312760838E+01 -0.22520075884E+01  0.43355747434E+02  0.43682515487E+02  0.47000000000E+01 0. -1.
<mgrwt>
<rscale>  2 0.53330408E+01</rscale>
<asrwt>0</asrwt>
<pdfrwt beam="1">  1       21 0.11962903E-01 0.53330408E+01</pdfrwt>
<pdfrwt beam="2">  1       21 0.57084160E-04 0.53330408E+01</pdfrwt>
<totfact> 0.37375763E+09</totfact>
</mgrwt>
</event>
<event>
 4    1  0.3992289E+006  0.6154194E+01  0.7546771E-02  0.2395777E+00
         21   -1    0    0  503  502  0.00000000000E+00  0.00000000000E+00  0.92232154161E+00  0.92232154161E+00  0.00000000000E+00 0.  1.
         21   -1    0    0  501  503 -0.00000000000E+00 -0.00000000000E+00 -0.59767290755E+02  0.59767290755E+02  0.00000000000E+00 0. -1.
          5    1    1    2  501    0  0.37317241919E+01  0.13632069130E+01 -0.46397611163E+02  0.46803978679E+02  0.47000000000E+01 0. -1.
         -5    1    1    2    0  502 -0.37317241919E+01 -0.13632069130E+01 -0.12447358050E+02  0.13885633617E+02  0.47000000000E+01 0.  1.
<mgrwt>
<rscale>  2 0.61541936E+01</rscale>
<asrwt>0</asrwt>
<pdfrwt beam="1">  1       21 0.14189564E-03 0.61541936E+01</pdfrwt>
<pdfrwt beam="2">  1       21 0.91949667E-02 0.61541936E+01</pdfrwt>
<totfact> 0.18739661E+09</totfact>
</mgrwt>
</event>
<event>
 4    1  0.3992289E+006  0.5821431E+01  0.7546771E-02  0.2439261E+00
         21   -1    0    0  503  502  0.00000000000E+00  0.00000000000E+00  0.31510113720E+01  0.31510113720E+01  0.00000000000E+00 0.  1.
         21   -1    0    0  501  503 -0.00000000000E+00 -0.00000000000E+00 -0.10766207219E+02  0.10766207219E+02  0.00000000000E+00 0.  1.
          5    1    1    2  501    0 -0.27440949238E+01 -0.20661552386E+01 -0.35828541170E+01  0.68356344288E+01  0.47000000000E+01 0.  1.
         -5    1    1    2    0  502  0.27440949238E+01  0.20661552386E+01 -0.40323417304E+01  0.70815841626E+01  0.47000000000E+01 0.  1.
<mgrwt>
<rscale>  2 0.58214306E+01</rscale>
<asrwt>0</asrwt>
<pdfrwt beam="1">  1       21 0.48477097E-03 0.58214306E+01</pdfrwt>
<pdfrwt beam="2">  1       21 0.16563396E-02 0.58214306E+01</pdfrwt>
<totfact> 0.41315011E+09</totfact>
</mgrwt>
</event>
<event>
 4    1  0.3992289E+006  0.5612175E+01  0.7546771E-02  0.2468809E+00
         21   -1    0    0  501  502  0.00000000000E+00  0.00000000000E+00  0.23252854882E+01  0.23252854882E+01  0.00000000000E+00 0.  1.
         21   -1    0    0  502  503 -0.00000000000E+00 -0.00000000000E+00 -0.15553212963E+02  0.15553212963E+02  0.00000000000E+00 0. -1.
          5    1    1    2  501    0  0.26579297502E+01  0.15303307298E+01 -0.34019890303E+01  0.65627762465E+01  0.47000000000E+01 0.  1.
         -5    1    1    2    0  503 -0.26579297502E+01 -0.15303307298E+01 -0.98259384446E+01  0.11315722205E+02  0.47000000000E+01 0.  1.
<mgrwt>
<rscale>  2 0.56121745E+01</rscale>
<asrwt>0</asrwt>
<pdfrwt beam="1">  1       21 0.35773624E-03 0.56121745E+01</pdfrwt>
<pdfrwt beam="2">  1       21 0.23928019E-02 0.56121745E+01</pdfrwt>
<totfact> 0.35873320E+09</totfact>
</mgrwt>
</event>
<event>
 4    1  0.3992289E+006  0.6110605E+01  0.7546771E-02  0.2401247E+00
         21   -1    0    0  501  502  0.00000000000E+00  0.00000000000E+00  0.11408703776E+01  0.11408703776E+01  0.00000000000E+00 0.  1.
         21   -1    0    0  502  503 -0.00000000000E+00 -0.00000000000E+00 -0.46690369323E+02  0.46690369323E+02  0.00000000000E+00 0. -1.
          5    1    1    2  501    0  0.23896776845E+01 -0.30885165666E+01 -0.96970090942E+01  0.11461739806E+02  0.47000000000E+01 0.  1.
         -5    1    1    2    0  503 -0.23896776845E+01  0.30885165666E+01 -0.35852489851E+02  0.36369499894E+02  0.47000000000E+01 0. -1.
<mgrwt>
<rscale>  2 0.61106050E+01</rscale>
<asrwt>0</asrwt>
<pdfrwt beam="1">  1       21 0.17551853E-03 0.61106050E+01</pdfrwt>
<pdfrwt beam="2">  1       21 0.71831332E-02 0.61106050E+01</pdfrwt>
<totfact> 0.20319947E+09</totfact>
</mgrwt>
</event>
<event>
 4    1  0.3992289E+006  0.5495390E+01  0.7546771E-02  0.2486124E+00
         21   -1    0    0  503  502  0.00000000000E+00  0.00000000000E+00  0.45776418293E+03  0.45776418293E+03  0.00000000000E+00 0.  1.
         21   -1    0    0  501  503 -0.00000000000E+00 -0.00000000000E+00 -0.61806582945E+01  0.61806582945E+01  0.00000000000E+00 0.  1.
          5    1    1    2  501    0 -0.19918700707E+01 -0.20351321990E+01 -0.49393193192E+01  0.73889231139E+01  0.47000000000E+01 0.  1.
         -5    1    1    2    0  502  0.19918700707E+01  0.20351321990E+01  0.45652284395E+03  0.45655591811E+03  0.47000000000E+01 0.  1.
<mgrwt>
<rscale>  2 0.54953898E+01</rscale>
<asrwt>0</asrwt>
<pdfrwt beam="1">  1       21 0.70425232E-01 0.54953898E+01</pdfrwt>
<pdfrwt beam="2">  1       21 0.95087087E-03 0.54953898E+01</pdfrwt>
<totfact> 0.42395410E+06</totfact>
</mgrwt>
</event>
<event>
 4    1  0.3992289E+006  0.9139726E+01  0.7546771E-02  0.2127529E+00
         21   -1    0    0  503  502  0.00000000000E+00  0.00000000000E+00  0.10233135129E+01  0.10233135129E+01  0.00000000000E+00 0. -1.
         21   -1    0    0  501  503 -0.00000000000E+00 -0.00000000000E+00 -0.26135794938E+03  0.26135794938E+03  0.00000000000E+00 0. -1.
          5    1    1    2  501    0  0.56144637817E+01  0.54701365505E+01 -0.23895782121E+03  0.23913254675E+03  0.47000000000E+01 0. -1.
         -5    1    1    2    0  502 -0.56144637817E+01 -0.54701365505E+01 -0.21376814658E+02  0.23248716144E+02  0.47000000000E+01 0. -1.
<mgrwt>
<rscale>  2 0.91397263E+01</rscale>
<asrwt>0</asrwt>
<pdfrwt beam="1">  1       21 0.15743282E-03 0.91397263E+01</pdfrwt>
<pdfrwt beam="2">  1       21 0.40208922E-01 0.91397263E+01</pdfrwt>
<totfact> 0.18502200E+08</totfact>
</mgrwt>
</event>
<event>
 4    1  0.3992289E+006  0.4955590E+01  0.7546771E-02  0.2575093E+00
         21   -1    0    0  501  502  0.00000000000E+00  0.00000000000E+00  0.17503214759E+03  0.17503214759E+03  0.00000000000E+00 0. -1.
         21   -1    0    0  502  503 -0.00000000000E+00 -0.00000000000E+00 -0.24943805134E+00  0.24943805134E+00  0.00000000000E+00 0. -1.
          5    1    1    2  501    0 -0.15696199000E+01 -0.64515310226E-01  0.14536135246E+03  0.14544579972E+03  0.47000000000E+01 0. -1.
         -5    1    1    2    0  503  0.15696199000E+01  0.64515310226E-01  0.29421357083E+02  0.29835785920E+02  0.47000000000E+01 0. -1.
<mgrwt>
<rscale>  2 0.49555897E+01</rscale>
<asrwt>0</asrwt>
<pdfrwt beam="1">  1       21 0.26927925E-01 0.49555897E+01</pdfrwt>
<pdfrwt beam="2">  1       21 0.38375225E-04 0.49555897E+01</pdfrwt>
<totfact> 0.16360791E+09</totfact>
</mgrwt>
</event>
<event>
 4    1  0.3992289E+006  0.6211011E+01  0.7546771E-02  0.2388743E+00
         21   -1    0    0  503  502  0.00000000000E+00  0.00000000000E+00  0.13514460956E+02  0.13514460956E+02  0.00000000000E+00 0. -1.
         21   -1    0    0  501  503 -0.00000000000E+00 -0.00000000000E+00 -0.31935958538E+01  0.31935958538E+01  0.00000000000E+00 0.  1.
          5    1    1    2  501    0 -0.10541388478E+01  0.39211539571E+01  0.24381398231E+01  0.66724195658E+01  0.47000000000E+01 0.  1.
         -5    1    1    2    0  502  0.10541388478E+01 -0.39211539571E+01  0.78827252787E+01  0.10035637244E+02  0.47000000000E+01 0. -1.
<mgrwt>
<rscale>  2 0.62110110E+01</rscale>
<asrwt>0</asrwt>
<pdfrwt beam="1">  1       21 0.20791478E-02 0.62110110E+01</pdfrwt>
<pdfrwt beam="2">  1       21 0.49132245E-03 0.62110110E+01</pdfrwt>
<totfact> 0.31025304E+09</totfact>
</mgrwt>
</event>
<event>
 4    1  0.3992289E+006  0.6370349E+01  0.7546771E-02  0.2369578E+00
         21   -1    0    0  501  502  0.00000000000E+00  0.00000000000E+00  0.12253996287E+03  0.12253996287E+03  0.00000000000E+00 0. -1.
         21   -1    0    0  502  503 -0.00000000000E+00 -0.00000000000E+00 -0.48477075614E+00  0.48477075614E+00  0.00000000000E+00 0. -1.
          5    1    1    2  501    0 -0.92138797020E+00 -0.42002844489E+01  0.95652882899E+02  0.95864776389E+02  0.47000000000E+01 0. -1.
         -5    1    1    2    0  503  0.92138797020E+00  0.42002844489E+01  0.26402309217E+02  0.27159957239E+02  0.47000000000E+01 0. -1.
<mgrwt>
<rscale>  2 0.63703489E+01</rscale>
<asrwt>0</asrwt>
<pdfrwt beam="1">  1       21 0.18852277E-01 0.63703489E+01</pdfrwt>
<pdfrwt beam="2">  1       21 0.74580214E-04 0.63703489E+01</pdfrwt>
<totfact> 0.14859230E+09</totfact>
</mgrwt>
</event>
<event>
 4    1  0.3992289E+006  0.5833575E+01  0.7546771E-02  0.2437601E+00
         21   -1    0    0  503  502  0.00000000000E+00  0.00000000000E+00  0.14288103222E+01  0.14288103222E+01  0.00000000000E+00 0. -1.
         21   -1    0    0  501  503 -0.00000000000E+00 -0.00000000000E+00 -0.13167680701E+03  0.13167680701E+03  0.00000000000E+00 0. -1.
          5    1    1    2  501    0 -0.23641903571E+01  0.25201599532E+01 -0.12535785639E+03  0.12549351681E+03  0.47000000000E+01 0. -1.
         -5    1    1    2    0  502  0.23641903571E+01 -0.25201599532E+01 -0.48901402942E+01  0.76121005203E+01  0.47000000000E+01 0. -1.
<mgrwt>
<rscale>  2 0.58335754E+01</rscale>
<asrwt>0</asrwt>
<pdfrwt beam="1">  1       21 0.21981691E-03 0.58335754E+01</pdfrwt>
<pdfrwt beam="2">  1       21 0.20257976E-01 0.58335754E+01</pdfrwt>
<totfact> 0.28771186E+08</totfact>
</mgrwt>
</event>
<event>
 4    1  0.3992289E+006  0.1126624E+02  0.7546771E-02  0.2009361E+00
         21   -1    0    0  503  502  0.00000000000E+00  0.00000000000E+00  0.54760960115E+00  0.54760960115E+00  0.00000000000E+00 0. -1.
         21   -1    0    0  501  503 -0.00000000000E+00 -0.00000000000E+00 -0.66622291941E+03  0.66622291941E+03  0.00000000000E+00 0.  1.
          5    1    1    2  501    0 -0.73011697816E+01  0.71785187223E+01 -0.60205311964E+03  0.60215852321E+03  0.47000000000E+01 0.  1.
         -5    1    1    2    0  502  0.73011697816E+01 -0.71785187223E+01 -0.63622190169E+02  0.64612005797E+02  0.47000000000E+01 0. -1.
<mgrwt>
<rscale>  2 0.11266242E+02</rscale>
<asrwt>0</asrwt>
<pdfrwt beam="1">  1       21 0.84247933E-04 0.11266242E+02</pdfrwt>
<pdfrwt beam="2">  1       21 0.10249547E+00 0.11266242E+02</pdfrwt>
<totfact> 0.77841385E+07</totfact>
</mgrwt>
</event>
<event>
 4    1  0.3992289E+006  0.5933155E+01  0.7546771E-02  0.2424206E+00
         21   -1    0    0  501  502  0.00000000000E+00  0.00000000000E+00  0.40325658545E+01  0.40325658545E+01  0.00000000000E+00 0.  1.
         21   -1    0    0  502  503 -0.00000000000E+00 -0.00000000000E+00 -0.89298092444E+01  0.89298092444E+01  0.00000000000E+00 0. -1.
          5    1    1    2  501    0 -0.74218933765E+00 -0.35442177483E+01 -0.14779485442E+01  0.61144628840E+01  0.47000000000E+01 0.  1.
         -5    1    1    2    0  503  0.74218933765E+00  0.35442177483E+01 -0.34192948457E+01  0.68479122149E+01  0.47000000000E+01 0. -1.
<mgrwt>
<rscale>  2 0.59331547E+01</rscale>
<asrwt>0</asrwt>
<pdfrwt beam="1">  1       21 0.62039475E-03 0.59331547E+01</pdfrwt>
<pdfrwt beam="2">  1       21 0.13738168E-02 0.59331547E+01</pdfrwt>
<totfact> 0.38935537E+09</totfact>
</mgrwt>
</event>
<event>
 4    1  0.3992289E+006  0.1136897E+02  0.7546771E-02  0.2004541E+00
         21   -1    0    0  501  502  0.00000000000E+00  0.00000000000E+00  0.25980170966E+01  0.25980170966E+01  0.00000000000E+00 0. -1.
         21   -1    0    0  502  503 -0.00000000000E+00 -0.00000000000E+00 -0.13456558566E+03  0.13456558566E+03  0.00000000000E+00 0.  1.
          5    1    1    2  501    0 -0.76663147605E+01 -0.69563767450E+01 -0.11536334739E+02  0.16196931149E+02  0.47000000000E+01 0. -1.
         -5    1    1    2    0  503  0.76663147605E+01  0.69563767450E+01 -0.12043123382E+03  0.12096667161E+03  0.47000000000E+01 0.  1.
<mgrwt>
<rscale>  2 0.11368974E+02</rscale>
<asrwt>0</asrwt>
<pdfrwt beam="1">  1       21 0.39969488E-03 0.11368974E+02</pdfrwt>
<pdfrwt beam="2">  1       21 0.20702401E-01 0.11368974E+02</pdfrwt>
<totfact> 0.17519183E+08</totfact>
</mgrwt>
</event>
<event>
 4    1  0.3992289E+006  0.5427245E+01  0.7546771E-02  0.2496519E+00
         21   -1    0    0  501  502  0.00000000000E+00  0.00000000000E+00  0.35641003532E+01  0.35641003532E+01  0.00000000000E+00 0.  1.
         21   -1    0    0  502  503 -0.00000000000E+00 -0.00000000000E+00 -0.14121089502E+03  0.14121089502E+03  0.00000000000E+00 0.  1.
          5    1    1    2  501    0 -0.40174459445E+00  0.26839496558E+01  0.14139309918E+01  0.56084030992E+01  0.47000000000E+01 0.  1.
         -5    1    1    2    0  503  0.40174459445E+00 -0.26839496558E+01 -0.13906072566E+03  0.13916659227E+03  0.47000000000E+01 0.  1.
<mgrwt>
<rscale>  2 0.54272446E+01</rscale>
<asrwt>0</asrwt>
<pdfrwt beam="1">  1       21 0.54832322E-03 0.54272446E+01</pdfrwt>
<pdfrwt beam="2">  1       21 0.21724750E-01 0.54272446E+01</pdfrwt>
<totfact> 0.69793466E+07</totfact>
</mgrwt>
</event>
<event>
 4    1  0.3992289E+006  0.5164182E+01  0.7546771E-02  0.2538827E+00
         21   -1    0    0  501  502  0.00000000000E+00  0.00000000000E+00  0.73092920521E-01  0.73092920521E-01  0.00000000000E+00 0. -1.
         21   -1    0    0  502  503 -0.00000000000E+00 -0.00000000000E+00 -0.41022537170E+03  0.41022537170E+03  0.00000000000E+00 0. -1.
          5    1    1    2  501    0  0.18647910134E+01  0.10494445340E+01 -0.13685569201E+03  0.13695309129E+03  0.47000000000E+01 0. -1.
         -5    1    1    2    0  503 -0.18647910134E+01 -0.10494445340E+01 -0.27329658677E+03  0.27334537332E+03  0.47000000000E+01 0. -1.
<mgrwt>
<rscale>  2 0.51641824E+01</rscale>
<asrwt>0</asrwt>
<pdfrwt beam="1">  1       21 0.11245002E-04 0.51641824E+01</pdfrwt>
<pdfrwt beam="2">  1       21 0.63111948E-01 0.51641824E+01</pdfrwt>
<totfact> 0.19699787E+09</totfact>
</mgrwt>
</event>
<event>
 4    1  0.3992289E+006  0.5094926E+01  0.7546771E-02  0.2550585E+00
         21   -1    0    0  501  502  0.00000000000E+00  0.00000000000E+00  0.22262613218E+01  0.22262613218E+01  0.00000000000E+00 0. -1.
         21   -1    0    0  502  503 -0.00000000000E+00 -0.00000000000E+00 -0.13078397073E+02  0.13078397073E+02  0.00000000000E+00 0. -1.
          5    1    1    2  501    0  0.15652016158E+01  0.11909737651E+01 -0.29060092147E+01  0.58654210559E+01  0.47000000000E+01 0. -1.
         -5    1    1    2    0  503 -0.15652016158E+01 -0.11909737651E+01 -0.79461265369E+01  0.94392373393E+01  0.47000000000E+01 0. -1.
<mgrwt>
<rscale>  2 0.50949264E+01</rscale>
<asrwt>0</asrwt>
<pdfrwt beam="1">  1       21 0.34250174E-03 0.50949264E+01</pdfrwt>
<pdfrwt beam="2">  1       21 0.20120611E-02 0.50949264E+01</pdfrwt>
<totfact> 0.44317830E+09</totfact>
</mgrwt>
</event>
<event>
 4    1  0.3992289E+006  0.7176788E+01  0.7546771E-02  0.2283532E+00
         21   -1    0    0  501  502  0.00000000000E+00  0.00000000000E+00  0.40164411892E+00  0.40164411892E+00  0.00000000000E+00 0.  1.
         21   -1    0    0  502  503 -0.00000000000E+00 -0.00000000000E+00 -0.12848501323E+03  0.12848501323E+03  0.00000000000E+00 0.  1.
          5    1    1    2  501    0  0.23196876138E+01 -0.49025840765E+01 -0.61219535738E+02  0.61638768946E+02  0.47000000000E+01 0.  1.
         -5    1    1    2    0  503 -0.23196876138E+01  0.49025840765E+01 -0.66863833373E+02  0.67247888402E+02  0.47000000000E+01 0.  1.
<mgrwt>
<rscale>  2 0.71767877E+01</rscale>
<asrwt>0</asrwt>
<pdfrwt beam="1">  1       21 0.61791372E-04 0.71767877E+01</pdfrwt>
<pdfrwt beam="2">  1       21 0.19766935E-01 0.71767877E+01</pdfrwt>
<totfact> 0.19358661E+09</totfact>
</mgrwt>
</event>
<event>
 4    1  0.3992289E+006  0.4919902E+01  0.7546771E-02  0.2581562E+00
         21   -1    0    0  503  502  0.00000000000E+00  0.00000000000E+00  0.18424905543E-01  0.18424905543E-01  0.00000000000E+00 0. -1.
         21   -1    0    0  501  503 -0.00000000000E+00 -0.00000000000E+00 -0.21952564988E+04  0.21952564988E+04  0.00000000000E+00 0. -1.
          5    1    1    2  501    0 -0.81300312750E+00  0.12060103815E+01 -0.17931762336E+04  0.17931829829E+04  0.47000000000E+01 0. -1.
         -5    1    1    2    0  502  0.81300312750E+00 -0.12060103815E+01 -0.40206184033E+03  0.40209194084E+03  0.47000000000E+01 0. -1.
<mgrwt>
<rscale>  2 0.49199019E+01</rscale>
<asrwt>0</asrwt>
<pdfrwt beam="1">  1       21 0.28354439E-05 0.49199019E+01</pdfrwt>
<pdfrwt beam="2">  1       21 0.33763136E+00 0.49199019E+01</pdfrwt>
<totfact> 0.33845888E+08</totfact>
</mgrwt>
</event>
<event>
 4    1  0.3992289E+006  0.5879766E+01  0.7546771E-02  0.2431340E+00
         21   -1    0    0  501  502  0.00000000000E+00  0.00000000000E+00  0.15847976301E+01  0.15847976301E+01  0.00000000000E+00 0.  1.
         21   -1    0    0  502  503 -0.00000000000E+00 -0.00000000000E+00 -0.28351327921E+02  0.28351327921E+02  0.00000000000E+00 0. -1.
          5    1    1    2  501    0 -0.17673838020E+01 -0.30590843609E+01 -0.20570483729E+02  0.21394308670E+02  0.47000000000E+01 0. -1.
         -5    1    1    2    0  503  0.17673838020E+01  0.30590843609E+01 -0.61960465623E+01  0.85418168813E+01  0.47000000000E+01 0. -1.
<mgrwt>
<rscale>  2 0.58797655E+01</rscale>
<asrwt>0</asrwt>
<pdfrwt beam="1">  1       21 0.24381504E-03 0.58797655E+01</pdfrwt>
<pdfrwt beam="2">  1       21 0.43617423E-02 0.58797655E+01</pdfrwt>
<totfact> 0.26423335E+09</totfact>
</mgrwt>
</event>
<event>
 4    1  0.3992289E+006  0.6570123E+01  0.7546771E-02  0.2346645E+00
         21   -1    0    0  503  502  0.00000000000E+00  0.00000000000E+00  0.30511091818E+02  0.30511091818E+02  0.00000000000E+00 0. -1.
         21   -1    0    0  501  503 -0.00000000000E+00 -0.00000000000E+00 -0.16875356628E+01  0.16875356628E+01  0.00000000000E+00 0.  1.
          5    1    1    2  501    0 -0.16882787660E+00 -0.45878114367E+01  0.79393552484E+01  0.10305332522E+02  0.47000000000E+01 0.  1.
         -5    1    1    2    0  502  0.16882787660E+00  0.45878114367E+01  0.20884200907E+02  0.21893294958E+02  0.47000000000E+01 0. -1.
<mgrwt>
<rscale>  2 0.65701230E+01</rscale>
<asrwt>0</asrwt>
<pdfrwt beam="1">  1       21 0.46940137E-02 0.65701230E+01</pdfrwt>
<pdfrwt beam="2">  1       21 0.25962089E-03 0.65701230E+01</pdfrwt>
<totfact> 0.23895433E+09</totfact>
</mgrwt>
</event>
<event>
 4    1  0.3992289E+006  0.5768301E+01  0.7546771E-02  0.2446592E+00
         21   -1    0    0  503  502  0.00000000000E+00  0.00000000000E+00  0.20491267484E+02  0.20491267484E+02  0.00000000000E+00 0. -1.
         21   -1    0    0  501  503 -0.00000000000E+00 -0.00000000000E+00 -0.18766391051E+01  0.18766391051E+01  0.00000000000E+00 0. -1.
          5    1    1    2  501    0  0.31361083360E+01  0.11610856056E+01  0.52020142552E+01  0.77675123167E+01  0.47000000000E+01 0. -1.
         -5    1    1    2    0  502 -0.31361083360E+01 -0.11610856056E+01  0.13412614124E+02  0.14600394273E+02  0.47000000000E+01 0. -1.
<mgrwt>
<rscale>  2 0.57683009E+01</rscale>
<asrwt>0</asrwt>
<pdfrwt beam="1">  1       21 0.31525025E-02 0.57683009E+01</pdfrwt>
<pdfrwt beam="2">  1       21 0.28871372E-03 0.57683009E+01</pdfrwt>
<totfact> 0.33139742E+09</totfact>
</mgrwt>
</event>
<event>
 4    1  0.3992289E+006  0.7846720E+01  0.7546771E-02  0.2223248E+00
         21   -1    0    0  501  502  0.00000000000E+00  0.00000000000E+00  0.84024394189E+02  0.84024394189E+02  0.00000000000E+00 0. -1.
         21   -1    0    0  502  503 -0.00000000000E+00 -0.00000000000E+00 -0.31467397473E+01  0.31467397473E+01  0.00000000000E+00 0. -1.
          5    1    1    2  501    0  0.60579638087E+01  0.16679579525E+01  0.78613710020E+02  0.79004344262E+02  0.47000000000E+01 0. -1.
         -5    1    1    2    0  503 -0.60579638087E+01 -0.16679579525E+01  0.22639444224E+01  0.81667896744E+01  0.47000000000E+01 0. -1.
<mgrwt>
<rscale>  2 0.78467196E+01</rscale>
<asrwt>0</asrwt>
<pdfrwt beam="1">  1       21 0.12926828E-01 0.78467196E+01</pdfrwt>
<pdfrwt beam="2">  1       21 0.48411387E-03 0.78467196E+01</pdfrwt>
<totfact> 0.23961001E+08</totfact>
</mgrwt>
</event>
<event>
 4    1  0.3992289E+006  0.9735369E+01  0.7546771E-02  0.2090368E+00
         21   -1    0    0  501  502  0.00000000000E+00  0.00000000000E+00  0.78412657637E+02  0.78412657637E+02  0.00000000000E+00 0. -1.
         21   -1    0    0  502  503 -0.00000000000E+00 -0.00000000000E+00 -0.18078138518E+01  0.18078138518E+01  0.00000000000E+00 0.  1.
          5    1    1    2  501    0  0.26155109739E+00  0.85216785427E+01  0.61392897524E+02  0.62159997430E+02  0.47000000000E+01 0. -1.
         -5    1    1    2    0  503 -0.26155109739E+00 -0.85216785427E+01  0.15211946261E+02  0.18060474058E+02  0.47000000000E+01 0.  1.
<mgrwt>
<rscale>  2 0.97353692E+01</rscale>
<asrwt>0</asrwt>
<pdfrwt beam="1">  1       21 0.12063483E-01 0.97353692E+01</pdfrwt>
<pdfrwt beam="2">  1       21 0.27812527E-03 0.97353692E+01</pdfrwt>
<totfact> 0.65969974E+08</totfact>
</mgrwt>
</event>
<event>
 4    1  0.3992289E+006  0.6489350E+01  0.7546771E-02  0.2355776E+00
         21   -1    0    0  503  502  0.00000000000E+00  0.00000000000E+00  0.28681975970E+00  0.28681975970E+00  0.00000000000E+00 0.  1.
         21   -1    0    0  501  503 -0.00000000000E+00 -0.00000000000E+00 -0.31463513440E+03  0.31463513440E+03  0.00000000000E+00 0.  1.
          5    1    1    2  501    0  0.37978318469E+01  0.23660384262E+01 -0.27216978903E+03  0.27224714089E+03  0.47000000000E+01 0.  1.
         -5    1    1    2    0  502 -0.37978318469E+01 -0.23660384262E+01 -0.42178525617E+02  0.42674813272E+02  0.47000000000E+01 0.  1.
<mgrwt>
<rscale>  2 0.64893501E+01</rscale>
<asrwt>0</asrwt>
<pdfrwt beam="1">  1       21 0.44125666E-04 0.64893501E+01</pdfrwt>
<pdfrwt beam="2">  1       21 0.48405900E-01 0.64893501E+01</pdfrwt>
<totfact> 0.61384330E+08</totfact>
</mgrwt>
</event>
<event>
 4    1  0.3992289E+006  0.4766737E+01  0.7546771E-02  0.2610276E+00
         21   -1    0    0  503  502  0.00000000000E+00  0.00000000000E+00  0.10589018300E+02  0.10589018300E+02  0.00000000000E+00 0.  1.
         21   -1    0    0  501  503 -0.00000000000E+00 -0.00000000000E+00 -0.31453136716E+01  0.31453136716E+01  0.00000000000E+00 0.  1.
          5    1    1    2  501    0  0.77773985939E-01 -0.79103558388E+00 -0.14932075098E+00  0.47690756730E+01  0.47000000000E+01 0. -1.
         -5    1    1    2    0  502 -0.77773985939E-01  0.79103558388E+00  0.75930253790E+01  0.89652562983E+01  0.47000000000E+01 0. -1.
<mgrwt>
<rscale>  2 0.47667375E+01</rscale>
<asrwt>0</asrwt>
<pdfrwt beam="1">  1       21 0.16290797E-02 0.47667375E+01</pdfrwt>
<pdfrwt beam="2">  1       21 0.48389442E-03 0.47667375E+01</pdfrwt>
<totfact> 0.34723859E+09</totfact>
</mgrwt>
</event>
<event>
 4    1  0.3992289E+006  0.4908249E+01  0.7546771E-02  0.2583692E+00
         21   -1    0    0  501  502  0.00000000000E+00  0.00000000000E+00  0.50751925114E+01  0.50751925114E+01  0.00000000000E+00 0. -1.
         21   -1    0    0  502  503 -0.00000000000E+00 -0.00000000000E+00 -0.13064760179E+02  0.13064760179E+02  0.00000000000E+00 0.  1.
          5    1    1    2  501    0 -0.12484261814E+01  0.66508554689E+00  0.32423056037E+01  0.58824699186E+01  0.47000000000E+01 0. -1.
         -5    1    1    2    0  503  0.12484261814E+01 -0.66508554689E+00 -0.11231873271E+02  0.12257482771E+02  0.47000000000E+01 0.  1.
<mgrwt>
<rscale>  2 0.49082488E+01</rscale>
<asrwt>0</asrwt>
<pdfrwt beam="1">  1       21 0.78079885E-03 0.49082488E+01</pdfrwt>
<pdfrwt beam="2">  1       21 0.20099631E-02 0.49082488E+01</pdfrwt>
<totfact> 0.13768964E+09</totfact>
</mgrwt>
</event>
<event>
 4    1  0.3992289E+006  0.5545320E+01  0.7546771E-02  0.2478646E+00
         21   -1    0    0  501  502  0.00000000000E+00  0.00000000000E+00  0.95628403858E+03  0.95628403858E+03  0.00000000000E+00 0. -1.
         21   -1    0    0  502  503 -0.00000000000E+00 -0.00000000000E+00 -0.34580962930E-01  0.34580962930E-01  0.00000000000E+00 0.  1.
          5    1    1    2  501    0  0.21296429032E+01  0.20310573066E+01  0.60473771138E+03  0.60476313557E+03  0.47000000000E+01 0. -1.
         -5    1    1    2    0  503 -0.21296429032E+01 -0.20310573066E+01  0.35151174623E+03  0.35155548398E+03  0.47000000000E+01 0.  1.
<mgrwt>
<rscale>  2 0.55453199E+01</rscale>
<asrwt>0</asrwt>
<pdfrwt beam="1">  1       21 0.14709944E+00 0.55453199E+01</pdfrwt>
<pdfrwt beam="2">  1       21 0.53209140E-05 0.55453199E+01</pdfrwt>
<totfact> 0.10457800E+09</totfact>
</mgrwt>
</event>
<event>
 4    1  0.3992289E+006  0.5624645E+01  0.7546771E-02  0.2466997E+00
         21   -1    0    0  501  502  0.00000000000E+00  0.00000000000E+00  0.82188628170E+02  0.82188628170E+02  0.00000000000E+00 0.  1.
         21   -1    0    0  502  503 -0.00000000000E+00 -0.00000000000E+00 -0.94076689740E+00  0.94076689740E+00  0.00000000000E+00 0.  1.
          5    1    1    2  501    0 -0.30144313492E+00 -0.30750228468E+01  0.72573014905E+02  0.72790652737E+02  0.47000000000E+01 0.  1.
         -5    1    1    2    0  503  0.30144313492E+00  0.30750228468E+01  0.86748463671E+01  0.10338742330E+02  0.47000000000E+01 0.  1.
<mgrwt>
<rscale>  2 0.56246452E+01</rscale>
<asrwt>0</asrwt>
<pdfrwt beam="1">  1       21 0.12644399E-01 0.56246452E+01</pdfrwt>
<pdfrwt beam="2">  1       21 0.14473343E-03 0.56246452E+01</pdfrwt>
<totfact> 0.10376743E+09</totfact>
</mgrwt>
</event>
<event>
 4    1  0.3992289E+006  0.5714796E+01  0.7546771E-02  0.2454090E+00
         21   -1    0    0  503  502  0.00000000000E+00  0.00000000000E+00  0.76921916924E+02  0.76921916924E+02  0.00000000000E+00 0. -1.
         21   -1    0    0  501  503 -0.00000000000E+00 -0.00000000000E+00 -0.51621482925E+00  0.51621482925E+00  0.00000000000E+00 0. -1.
          5    1    1    2  501    0  0.20669907302E+01 -0.25092702353E+01  0.21888905429E+02  0.22622622940E+02  0.47000000000E+01 0. -1.
         -5    1    1    2    0  502 -0.20669907302E+01  0.25092702353E+01  0.54516796666E+02  0.54815508814E+02  0.47000000000E+01 0. -1.
<mgrwt>
<rscale>  2 0.57147955E+01</rscale>
<asrwt>0</asrwt>
<pdfrwt beam="1">  1       21 0.11834132E-01 0.57147955E+01</pdfrwt>
<pdfrwt beam="2">  1       21 0.79417727E-04 0.57147955E+01</pdfrwt>
<totfact> 0.26059379E+09</totfact>
</mgrwt>
</event>
<event>
 4    1  0.3992289E+006  0.5056630E+01  0.7546771E-02  0.2557205E+00
         21   -1    0    0  501  502  0.00000000000E+00  0.00000000000E+00  0.15514224012E+01  0.15514224012E+01  0.00000000000E+00 0. -1.
         21   -1    0    0  502  503 -0.00000000000E+00 -0.00000000000E+00 -0.20443221382E+02  0.20443221382E+02  0.00000000000E+00 0.  1.
          5    1    1    2  501    0 -0.87559215357E+00 -0.16470714186E+01 -0.46045826366E+01  0.68389829020E+01  0.47000000000E+01 0. -1.
         -5    1    1    2    0  503  0.87559215357E+00  0.16470714186E+01 -0.14287216344E+02  0.15155660881E+02  0.47000000000E+01 0.  1.
<mgrwt>
<rscale>  2 0.50566299E+01</rscale>
<asrwt>0</asrwt>
<pdfrwt beam="1">  1       21 0.23868038E-03 0.50566299E+01</pdfrwt>
<pdfrwt beam="2">  1       21 0.31451108E-02 0.50566299E+01</pdfrwt>
<totfact> 0.37924970E+09</totfact>
</mgrwt>
</event>
<event>
 4    1  0.3992289E+006  0.4810933E+01  0.7546771E-02  0.2601828E+00
         21   -1    0    0  503  502  0.00000000000E+00  0.00000000000E+00  0.97673550531E+03  0.97673550531E+03  0.00000000000E+00 0. -1.
         21   -1    0    0  501  503 -0.00000000000E+00 -0.00000000000E+00 -0.24183868963E-01  0.24183868963E-01  0.00000000000E+00 0. -1.
          5    1    1    2  501    0 -0.10072458017E+01  0.20132845344E+00  0.41901537193E+03  0.41904298943E+03  0.47000000000E+01 0. -1.
         -5    1    1    2    0  502  0.10072458017E+01 -0.20132845344E+00  0.55769594952E+03  0.55771669975E+03  0.47000000000E+01 0. -1.
<mgrwt>
<rscale>  2 0.48109331E+01</rscale>
<asrwt>0</asrwt>
<pdfrwt beam="1">  1       21 0.15023541E+00 0.48109331E+01</pdfrwt>
<pdfrwt beam="2">  1       21 0.37213775E-05 0.48109331E+01</pdfrwt>
<totfact> 0.14693390E+09</totfact>
</mgrwt>
</event>
<event>
 4    1  0.3992289E+006  0.8550287E+01  0.7546771E-02  0.2168289E+00
         21   -1    0    0  503  502  0.00000000000E+00  0.00000000000E+00  0.45288030904E+01  0.45288030904E+01  0.00000000000E+00 0.  1.
         21   -1    0    0  501  503 -0.00000000000E+00 -0.00000000000E+00 -0.20391777058E+02  0.20391777058E+02  0.00000000000E+00 0.  1.
          5    1    1    2  501    0  0.56262619474E+01  0.44002945206E+01 -0.13619288979E+02  0.16080809920E+02  0.47000000000E+01 0.  1.
         -5    1    1    2    0  502 -0.56262619474E+01 -0.44002945206E+01 -0.22436849881E+01  0.88397702286E+01  0.47000000000E+01 0.  1.
<mgrwt>
<rscale>  2 0.85502874E+01</rscale>
<asrwt>0</asrwt>
<pdfrwt beam="1">  1       21 0.69673894E-03 0.85502874E+01</pdfrwt>
<pdfrwt beam="2">  1       21 0.31371965E-02 0.85502874E+01</pdfrwt>
<totfact> 0.13220419E+09</totfact>
</mgrwt>
</event>
<event>
 4    1  0.3992289E+006  0.4748019E+01  0.7546771E-02  0.2613895E+00
         21   -1    0    0  501  502  0.00000000000E+00  0.00000000000E+00  0.24698584012E+00  0.24698584012E+00  0.00000000000E+00 0.  1.
         21   -1    0    0  502  503 -0.00000000000E+00 -0.00000000000E+00 -0.26628513654E+03  0.26628513654E+03  0.00000000000E+00 0.  1.
          5    1    1    2  501    0 -0.65024857591E+00 -0.17566534033E+00 -0.24980846747E+02  0.25428062956E+02  0.47000000000E+01 0.  1.
         -5    1    1    2    0  503  0.65024857591E+00  0.17566534033E+00 -0.24105730396E+03  0.24110405943E+03  0.47000000000E+01 0.  1.
<mgrwt>
<rscale>  2 0.47480187E+01</rscale>
<asrwt>0</asrwt>
<pdfrwt beam="1">  1       21 0.37997863E-04 0.47480187E+01</pdfrwt>
<pdfrwt beam="2">  1       21 0.40966899E-01 0.47480187E+01</pdfrwt>
<totfact> 0.78964702E+08</totfact>
</mgrwt>
</event>
<event>
 4    1  0.3992289E+006  0.5797061E+01  0.7546771E-02  0.2442609E+00
         21   -1    0    0  503  502  0.00000000000E+00  0.00000000000E+00  0.48962739150E+02  0.48962739150E+02  0.00000000000E+00 0.  1.
         21   -1    0    0  501  503 -0.00000000000E+00 -0.00000000000E+00 -0.81581689281E+00  0.81581689281E+00  0.00000000000E+00 0. -1.
          5    1    1    2  501    0  0.31354027541E+01 -0.12981375601E+01  0.14158664277E+02  0.15299466842E+02  0.47000000000E+01 0. -1.
         -5    1    1    2    0  502 -0.31354027541E+01  0.12981375601E+01  0.33988257980E+02  0.34479089200E+02  0.47000000000E+01 0.  1.
<mgrwt>
<rscale>  2 0.57970606E+01</rscale>
<asrwt>0</asrwt>
<pdfrwt beam="1">  1       21 0.75327268E-02 0.57970606E+01</pdfrwt>
<pdfrwt beam="2">  1       21 0.12551033E-03 0.57970606E+01</pdfrwt>
<totfact> 0.28452792E+09</totfact>
</mgrwt>
</event>
<event>
 4    1  0.3992289E+006  0.5768131E+01  0.7546771E-02  0.2446615E+00
         21   -1    0    0  503  502  0.00000000000E+00  0.00000000000E+00  0.31880546354E+01  0.31880546354E+01  0.00000000000E+00 0.  1.
         21   -1    0    0  501  503 -0.00000000000E+00 -0.00000000000E+00 -0.19846448599E+02  0.19846448599E+02  0.00000000000E+00 0. -1.
          5    1    1    2  501    0  0.16004942058E+01 -0.29359416341E+01 -0.16259811655E+02  0.17252617484E+02  0.47000000000E+01 0. -1.
         -5    1    1    2    0  502 -0.16004942058E+01  0.29359416341E+01 -0.39858230891E+00  0.57818857511E+01  0.47000000000E+01 0.  1.
<mgrwt>
<rscale>  2 0.57681310E+01</rscale>
<asrwt>0</asrwt>
<pdfrwt beam="1">  1       21 0.49046995E-03 0.57681310E+01</pdfrwt>
<pdfrwt beam="2">  1       21 0.30532998E-02 0.57681310E+01</pdfrwt>
<totfact> 0.16732212E+09</totfact>
</mgrwt>
</event>
<event>
 4    1  0.3992289E+006  0.4704477E+01  0.7546771E-02  0.2622410E+00
         21   -1    0    0  501  502  0.00000000000E+00  0.00000000000E+00  0.96695266922E+01  0.96695266922E+01  0.00000000000E+00 0.  1.
         21   -1    0    0  502  503 -0.00000000000E+00 -0.00000000000E+00 -0.28870979519E+01  0.28870979519E+01  0.00000000000E+00 0.  1.
          5    1    1    2  501    0  0.47140765083E-01 -0.19970567636E+00  0.62491500507E+01  0.78220189827E+01  0.47000000000E+01 0.  1.
         -5    1    1    2    0  503 -0.47140765083E-01  0.19970567636E+00  0.53327868959E+00  0.47346056615E+01  0.47000000000E+01 0.  1.
<mgrwt>
<rscale>  2 0.47044771E+01</rscale>
<asrwt>0</asrwt>
<pdfrwt beam="1">  1       21 0.14876195E-02 0.47044771E+01</pdfrwt>
<pdfrwt beam="2">  1       21 0.44416892E-03 0.47044771E+01</pdfrwt>
<totfact> 0.43715802E+09</totfact>
</mgrwt>
</event>
<event>
 4    1  0.3992289E+006  0.6826989E+01  0.7546771E-02  0.2318797E+00
         21   -1    0    0  503  502  0.00000000000E+00  0.00000000000E+00  0.31815245156E+02  0.31815245156E+02  0.00000000000E+00 0.  1.
         21   -1    0    0  501  503 -0.00000000000E+00 -0.00000000000E+00 -0.16633333569E+01  0.16633333569E+01  0.00000000000E+00 0. -1.
          5    1    1    2  501    0  0.29463191355E+01 -0.39795705569E+01  0.92950116231E+01  0.11532780209E+02  0.47000000000E+01 0. -1.
         -5    1    1    2    0  502 -0.29463191355E+01  0.39795705569E+01  0.20856900176E+02  0.21945798305E+02  0.47000000000E+01 0.  1.
<mgrwt>
<rscale>  2 0.68269890E+01</rscale>
<asrwt>0</asrwt>
<pdfrwt beam="1">  1       21 0.48946527E-02 0.68269890E+01</pdfrwt>
<pdfrwt beam="2">  1       21 0.25589746E-03 0.68269890E+01</pdfrwt>
<totfact> 0.23602601E+09</totfact>
</mgrwt>
</event>
<event>
 4    1  0.3992289E+006  0.9561325E+01  0.7546771E-02  0.2100848E+00
         21   -1    0    0  503  502  0.00000000000E+00  0.00000000000E+00  0.43761258327E+03  0.43761258327E+03  0.00000000000E+00 0. -1.
         21   -1    0    0  501  503 -0.00000000000E+00 -0.00000000000E+00 -0.21872714082E+00  0.21872714082E+00  0.00000000000E+00 0.  1.
          5    1    1    2  501    0 -0.44584723827E+01 -0.70321380881E+01  0.17230370367E+03  0.17256878408E+03  0.47000000000E+01 0.  1.
         -5    1    1    2    0  502  0.44584723827E+01  0.70321380881E+01  0.26509015246E+03  0.26526252633E+03  0.47000000000E+01 0. -1.
<mgrwt>
<rscale>  2 0.95613253E+01</rscale>
<asrwt>0</asrwt>
<pdfrwt beam="1">  1       21 0.67324312E-01 0.95613253E+01</pdfrwt>
<pdfrwt beam="2">  1       21 0.33650680E-04 0.95613253E+01</pdfrwt>
<totfact> 0.59844478E+08</totfact>
</mgrwt>
</event>
<event>
 4    1  0.3992289E+006  0.5895130E+01  0.7546771E-02  0.2429276E+00
         21   -1    0    0  501  502  0.00000000000E+00  0.00000000000E+00  0.70068764552E+02  0.70068764552E+02  0.00000000000E+00 0. -1.
         21   -1    0    0  502  503 -0.00000000000E+00 -0.00000000000E+00 -0.49626667655E+00  0.49626667655E+00  0.00000000000E+00 0. -1.
          5    1    1    2  501    0 -0.35097912092E+01  0.58644567452E+00  0.35637476307E+02  0.36121770034E+02  0.47000000000E+01 0. -1.
         -5    1    1    2    0  503  0.35097912092E+01 -0.58644567452E+00  0.33935021568E+02  0.34443261194E+02  0.47000000000E+01 0. -1.
<mgrwt>
<rscale>  2 0.58951296E+01</rscale>
<asrwt>0</asrwt>
<pdfrwt beam="1">  1       21 0.10779802E-01 0.58951296E+01</pdfrwt>
<pdfrwt beam="2">  1       21 0.76348775E-04 0.58951296E+01</pdfrwt>
<totfact> 0.32592191E+09</totfact>
</mgrwt>
</event>
<event>
 4    1  0.3992289E+006  0.1731210E+02  0.7546771E-02  0.1804750E+00
         21   -1    0    0  503  502  0.00000000000E+00  0.00000000000E+00  0.11677192762E+03  0.11677192762E+03  0.00000000000E+00 0.  1.
         21   -1    0    0  501  503 -0.00000000000E+00 -0.00000000000E+00 -0.60134689876E+01  0.60134689876E+01  0.00000000000E+00 0. -1.
          5    1    1    2  501    0  0.12583570020E+02 -0.10921196906E+02  0.88992932653E+01  0.19465513015E+02  0.47000000000E+01 0. -1.
         -5    1    1    2    0  502 -0.12583570020E+02  0.10921196906E+02  0.10185916536E+03  0.10331988359E+03  0.47000000000E+01 0.  1.
<mgrwt>
<rscale>  2 0.17312099E+02</rscale>
<asrwt>0</asrwt>
<pdfrwt beam="1">  1       21 0.17964910E-01 0.17312099E+02</pdfrwt>
<pdfrwt beam="2">  1       21 0.92514916E-03 0.17312099E+02</pdfrwt>
<totfact> 0.76820800E+07</totfact>
</mgrwt>
</event>
<event>
 4    1  0.3992289E+006  0.6143496E+01  0.7546771E-02  0.2397113E+00
         21   -1    0    0  503  502  0.00000000000E+00  0.00000000000E+00  0.42711519107E+02  0.42711519107E+02  0.00000000000E+00 0.  1.
         21   -1    0    0  501  503 -0.00000000000E+00 -0.00000000000E+00 -0.88504145404E+00  0.88504145404E+00  0.00000000000E+00 0. -1.
          5    1    1    2  501    0  0.34097981926E+00 -0.39416081361E+01  0.20052620706E+02  0.20972604491E+02  0.47000000000E+01 0. -1.
         -5    1    1    2    0  502 -0.34097981926E+00  0.39416081361E+01  0.21773856947E+02  0.22623956071E+02  0.47000000000E+01 0. -1.
<mgrwt>
<rscale>  2 0.61434959E+01</rscale>
<asrwt>0</asrwt>
<pdfrwt beam="1">  1       21 0.65710013E-02 0.61434959E+01</pdfrwt>
<pdfrwt beam="2">  1       21 0.13616026E-03 0.61434959E+01</pdfrwt>
<totfact> 0.32933556E+09</totfact>
</mgrwt>
</event>
<event>
 4    1  0.3992289E+006  0.6252909E+01  0.7546771E-02  0.2383625E+00
         21   -1    0    0  503  502  0.00000000000E+00  0.00000000000E+00  0.22893116686E+03  0.22893116686E+03  0.00000000000E+00 0.  1.
         21   -1    0    0  501  503 -0.00000000000E+00 -0.00000000000E+00 -0.19775122195E+00  0.19775122195E+00  0.00000000000E+00 0.  1.
          5    1    1    2  501    0 -0.36221234722E+01 -0.19720787997E+01  0.72063823126E+02  0.72334593915E+02  0.47000000000E+01 0.  1.
         -5    1    1    2    0  502  0.36221234722E+01  0.19720787997E+01  0.15666959252E+03  0.15679432417E+03  0.47000000000E+01 0.  1.
<mgrwt>
<rscale>  2 0.62529092E+01</rscale>
<asrwt>0</asrwt>
<pdfrwt beam="1">  1       21 0.35219967E-01 0.62529092E+01</pdfrwt>
<pdfrwt beam="2">  1       21 0.30423448E-04 0.62529092E+01</pdfrwt>
<totfact> 0.17222211E+09</totfact>
</mgrwt>
</event>
<event>
 4    1  0.3992289E+006  0.1352300E+02  0.7546771E-02  0.1916798E+00
         21   -1    0    0  501  502  0.00000000000E+00  0.00000000000E+00  0.22204552171E+02  0.22204552171E+02  0.00000000000E+00 0. -1.
         21   -1    0    0  502  503 -0.00000000000E+00 -0.00000000000E+00 -0.82563024112E+01  0.82563024112E+01  0.00000000000E+00 0.  1.
          5    1    1    2  501    0  0.21433587608E+00 -0.12678148957E+02  0.62144517090E+01  0.14882567349E+02  0.47000000000E+01 0.  1.
         -5    1    1    2    0  503 -0.21433587608E+00  0.12678148957E+02  0.77337980508E+01  0.15578287234E+02  0.47000000000E+01 0. -1.
<mgrwt>
<rscale>  2 0.13522995E+02</rscale>
<asrwt>0</asrwt>
<pdfrwt beam="1">  1       21 0.34160849E-02 0.13522995E+02</pdfrwt>
<pdfrwt beam="2">  1       21 0.12702004E-02 0.13522995E+02</pdfrwt>
<totfact> 0.62737450E+08</totfact>
</mgrwt>
</event>
<event>
 4    1  0.3992289E+006  0.5744346E+01  0.7546771E-02  0.2449934E+00
         21   -1    0    0  501  502  0.00000000000E+00  0.00000000000E+00  0.55109093213E+00  0.55109093213E+00  0.00000000000E+00 0.  1.
         21   -1    0    0  502  503 -0.00000000000E+00 -0.00000000000E+00 -0.31096856657E+03  0.31096856657E+03  0.00000000000E+00 0. -1.
          5    1    1    2  501    0 -0.18782988528E+01  0.27165242618E+01 -0.15245644867E+02  0.16291936596E+02  0.47000000000E+01 0.  1.
         -5    1    1    2    0  503  0.18782988528E+01 -0.27165242618E+01 -0.29517183077E+03  0.29522772090E+03  0.47000000000E+01 0. -1.
<mgrwt>
<rscale>  2 0.57443460E+01</rscale>
<asrwt>0</asrwt>
<pdfrwt beam="1">  1       21 0.84783089E-04 0.57443460E+01</pdfrwt>
<pdfrwt beam="2">  1       21 0.47841392E-01 0.57443460E+01</pdfrwt>
<totfact> 0.24065202E+08</totfact>
</mgrwt>
</event>
<event>
 4    1  0.3992289E+006  0.5307226E+01  0.7546771E-02  0.2515377E+00
         21   -1    0    0  501  502  0.00000000000E+00  0.00000000000E+00  0.22599377615E+03  0.22599377615E+03  0.00000000000E+00 0.  1.
         21   -1    0    0  502  503 -0.00000000000E+00 -0.00000000000E+00 -0.32161797164E+00  0.32161797164E+00  0.00000000000E+00 0.  1.
          5    1    1    2  501    0 -0.22951822338E+01  0.89932611025E+00  0.20139426361E+03  0.20146418059E+03  0.47000000000E+01 0.  1.
         -5    1    1    2    0  503  0.22951822338E+01 -0.89932611025E+00  0.24277894572E+02  0.24851213528E+02  0.47000000000E+01 0.  1.
<mgrwt>
<rscale>  2 0.53072261E+01</rscale>
<asrwt>0</asrwt>
<pdfrwt beam="1">  1       21 0.34768146E-01 0.53072261E+01</pdfrwt>
<pdfrwt beam="2">  1       21 0.49479869E-04 0.53072261E+01</pdfrwt>
<totfact> 0.80978124E+08</totfact>
</mgrwt>
</event>
<event>
 4    1  0.3992289E+006  0.1357990E+02  0.7546771E-02  0.1914773E+00
         21   -1    0    0  503  502  0.00000000000E+00  0.00000000000E+00  0.30385253692E+01  0.30385253692E+01  0.00000000000E+00 0.  1.
         21   -1    0    0  501  503 -0.00000000000E+00 -0.00000000000E+00 -0.60898161881E+02  0.60898161881E+02  0.00000000000E+00 0. -1.
          5    1    1    2  501    0 -0.18655213887E+01  0.12603309917E+02 -0.27068901610E+02  0.30284303283E+02  0.47000000000E+01 0.  1.
         -5    1    1    2    0  502  0.18655213887E+01 -0.12603309917E+02 -0.30790734901E+02  0.33652383968E+02  0.47000000000E+01 0. -1.
<mgrwt>
<rscale>  2 0.13579897E+02</rscale>
<asrwt>0</asrwt>
<pdfrwt beam="1">  1       21 0.46746546E-03 0.13579897E+02</pdfrwt>
<pdfrwt beam="2">  1       21 0.93689477E-02 0.13579897E+02</pdfrwt>
<totfact> 0.55823212E+08</totfact>
</mgrwt>
</event>
<event>
 4    1  0.3992289E+006  0.1052577E+02  0.7546771E-02  0.2046245E+00
         21   -1    0    0  501  502  0.00000000000E+00  0.00000000000E+00  0.86637245377E+03  0.86637245377E+03  0.00000000000E+00 0. -1.
         21   -1    0    0  502  503 -0.00000000000E+00 -0.00000000000E+00 -0.16946555967E+00  0.16946555967E+00  0.00000000000E+00 0.  1.
          5    1    1    2  501    0  0.55908230218E+01 -0.75792154973E+01  0.64773105014E+03  0.64781656750E+03  0.47000000000E+01 0. -1.
         -5    1    1    2    0  503 -0.55908230218E+01  0.75792154973E+01  0.21847193807E+03  0.21872535184E+03  0.47000000000E+01 0.  1.
<mgrwt>
<rscale>  2 0.10525769E+02</rscale>
<asrwt>0</asrwt>
<pdfrwt beam="1">  1       21 0.13328452E+00 0.10525769E+02</pdfrwt>
<pdfrwt beam="2">  1       21 0.26072318E-04 0.10525769E+02</pdfrwt>
<totfact> 0.21487529E+08</totfact>
</mgrwt>
</event>
<event>
 4    1  0.3992289E+006  0.5103482E+01  0.7546771E-02  0.2549117E+00
         21   -1    0    0  503  502  0.00000000000E+00  0.00000000000E+00  0.10070917172E+02  0.10070917172E+02  0.00000000000E+00 0. -1.
         21   -1    0    0  501  503 -0.00000000000E+00 -0.00000000000E+00 -0.26031743542E+01  0.26031743542E+01  0.00000000000E+00 0.  1.
          5    1    1    2  501    0  0.64349427429E+00  0.18818716580E+01  0.42454113857E+01  0.66384519017E+01  0.47000000000E+01 0. -1.
         -5    1    1    2    0  502 -0.64349427429E+00 -0.18818716580E+01  0.32223314320E+01  0.60356396244E+01  0.47000000000E+01 0.  1.
<mgrwt>
<rscale>  2 0.51034817E+01</rscale>
<asrwt>0</asrwt>
<pdfrwt beam="1">  1       21 0.15493719E-02 0.51034817E+01</pdfrwt>
<pdfrwt beam="2">  1       21 0.40048837E-03 0.51034817E+01</pdfrwt>
<totfact> 0.51902549E+09</totfact>
</mgrwt>
</event>
<event>
 4    1  0.3992289E+006  0.5338478E+01  0.7546771E-02  0.2510397E+00
         21   -1    0    0  501  502  0.00000000000E+00  0.00000000000E+00  0.18933440008E+01  0.18933440008E+01  0.00000000000E+00 0.  1.
         21   -1    0    0  502  503 -0.00000000000E+00 -0.00000000000E+00 -0.21422131645E+02  0.21422131645E+02  0.00000000000E+00 0.  1.
          5    1    1    2  501    0  0.24974127431E+01 -0.41506108927E+00 -0.34075145663E+01  0.63332852167E+01  0.47000000000E+01 0.  1.
         -5    1    1    2    0  503 -0.24974127431E+01  0.41506108927E+00 -0.16121273078E+02  0.16982190429E+02  0.47000000000E+01 0.  1.
<mgrwt>
<rscale>  2 0.53384779E+01</rscale>
<asrwt>0</asrwt>
<pdfrwt beam="1">  1       21 0.29128368E-03 0.53384779E+01</pdfrwt>
<pdfrwt beam="2">  1       21 0.32957127E-02 0.53384779E+01</pdfrwt>
<totfact> 0.28566473E+09</totfact>
</mgrwt>
</event>
<event>
 4    1  0.3992289E+006  0.6749844E+01  0.7546771E-02  0.2326977E+00
         21   -1    0    0  503  502  0.00000000000E+00  0.00000000000E+00  0.13993451561E+01  0.13993451561E+01  0.00000000000E+00 0. -1.
         21   -1    0    0  501  503 -0.00000000000E+00 -0.00000000000E+00 -0.53463354994E+02  0.53463354994E+02  0.00000000000E+00 0. -1.
          5    1    1    2  501    0  0.38689761356E+01 -0.29157192274E+01 -0.43185160477E+02  0.43709478153E+02  0.47000000000E+01 0. -1.
         -5    1    1    2    0  502 -0.38689761356E+01  0.29157192274E+01 -0.88788493603E+01  0.11153221997E+02  0.47000000000E+01 0. -1.
<mgrwt>
<rscale>  2 0.67498441E+01</rscale>
<asrwt>0</asrwt>
<pdfrwt beam="1">  1       21 0.21528388E-03 0.67498441E+01</pdfrwt>
<pdfrwt beam="2">  1       21 0.82251311E-02 0.67498441E+01</pdfrwt>
<totfact> 0.13541358E+09</totfact>
</mgrwt>
</event>
<event>
 4    1  0.3992289E+006  0.4932593E+01  0.7546771E-02  0.2579252E+00
         21   -1    0    0  503  502  0.00000000000E+00  0.00000000000E+00  0.74788063216E+03  0.74788063216E+03  0.00000000000E+00 0.  1.
         21   -1    0    0  501  503 -0.00000000000E+00 -0.00000000000E+00 -0.94049623945E-01  0.94049623945E-01  0.00000000000E+00 0.  1.
          5    1    1    2  501    0 -0.10921323394E+01 -0.10235803934E+01  0.71427559424E+02  0.71597672554E+02  0.47000000000E+01 0.  1.
         -5    1    1    2    0  502  0.10921323394E+01  0.10235803934E+01  0.67635902311E+03  0.67637700923E+03  0.47000000000E+01 0.  1.
<mgrwt>
<rscale>  2 0.49325926E+01</rscale>
<asrwt>0</asrwt>
<pdfrwt beam="1">  1       21 0.11505380E+00 0.49325926E+01</pdfrwt>
<pdfrwt beam="2">  1       21 0.14469772E-04 0.49325926E+01</pdfrwt>
<totfact> 0.42383868E+08</totfact>
</mgrwt>
</event>
<event>
 4    1  0.3992289E+006  0.4942537E+01  0.7546771E-02  0.2577450E+00
         21   -1    0    0  503  502  0.00000000000E+00  0.00000000000E+00  0.72341949220E-01  0.72341949220E-01  0.00000000000E+00 0.  1.
         21   -1    0    0  501  503 -0.00000000000E+00 -0.00000000000E+00 -0.46187480623E+03  0.46187480623E+03  0.00000000000E+00 0.  1.
          5    1    1    2  501    0 -0.14611122707E+01 -0.45146751755E+00 -0.35067067026E+03  0.35070549989E+03  0.47000000000E+01 0.  1.
         -5    1    1    2    0  502  0.14611122707E+01  0.45146751755E+00 -0.11113179402E+03  0.11124164829E+03  0.47000000000E+01 0.  1.
<mgrwt>
<rscale>  2 0.49425370E+01</rscale>
<asrwt>0</asrwt>
<pdfrwt beam="1">  1       21 0.11129710E-04 0.49425370E+01</pdfrwt>
<pdfrwt beam="2">  1       21 0.71056516E-01 0.49425370E+01</pdfrwt>
<totfact> 0.15438374E+09</totfact>
</mgrwt>
</event>
<event>
 4    1  0.3992289E+006  0.4742670E+01  0.7546771E-02  0.2614934E+00
         21   -1    0    0  503  502  0.00000000000E+00  0.00000000000E+00  0.52289156496E+01  0.52289156496E+01  0.00000000000E+00 0.  1.
         21   -1    0    0  501  503 -0.00000000000E+00 -0.00000000000E+00 -0.97627123349E+01  0.97627123349E+01  0.00000000000E+00 0.  1.
          5    1    1    2  501    0 -0.63051848648E+00  0.73268447710E-01 -0.78731482075E+01  0.91912667529E+01  0.47000000000E+01 0.  1.
         -5    1    1    2    0  502  0.63051848648E+00 -0.73268447710E-01  0.33393515223E+01  0.58003612315E+01  0.47000000000E+01 0.  1.
<mgrwt>
<rscale>  2 0.47426703E+01</rscale>
<asrwt>0</asrwt>
<pdfrwt beam="1">  1       21 0.80444857E-03 0.47426703E+01</pdfrwt>
<pdfrwt beam="2">  1       21 0.15019557E-02 0.47426703E+01</pdfrwt>
<totfact> 0.19241916E+09</totfact>
</mgrwt>
</event>
<event>
 4    1  0.3992289E+006  0.5404610E+01  0.7546771E-02  0.2500021E+00
         21   -1    0    0  503  502  0.00000000000E+00  0.00000000000E+00  0.10710908524E+00  0.10710908524E+00  0.00000000000E+00 0. -1.
         21   -1    0    0  501  503 -0.00000000000E+00 -0.00000000000E+00 -0.28386003032E+03  0.28386003032E+03  0.00000000000E+00 0. -1.
          5    1    1    2  501    0  0.10335542634E+01  0.24599940021E+01 -0.17001543772E+03  0.17010131942E+03  0.47000000000E+01 0. -1.
         -5    1    1    2    0  502 -0.10335542634E+01 -0.24599940021E+01 -0.11373748352E+03  0.11386581999E+03  0.47000000000E+01 0. -1.
<mgrwt>
<rscale>  2 0.54046096E+01</rscale>
<asrwt>0</asrwt>
<pdfrwt beam="1">  1       21 0.16478487E-04 0.54046096E+01</pdfrwt>
<pdfrwt beam="2">  1       21 0.43670333E-01 0.54046096E+01</pdfrwt>
<totfact> 0.23901785E+09</totfact>
</mgrwt>
</event>
<event>
 4    1  0.3992289E+006  0.1369151E+02  0.7546771E-02  0.1910838E+00
         21   -1    0    0  503  502  0.00000000000E+00  0.00000000000E+00  0.43270493037E+00  0.43270493037E+00  0.00000000000E+00 0. -1.
         21   -1    0    0  501  503 -0.00000000000E+00 -0.00000000000E+00 -0.43772384214E+03  0.43772384214E+03  0.00000000000E+00 0.  1.
          5    1    1    2  501    0 -0.12637681356E+02 -0.23783560017E+01 -0.19642966321E+03  0.19690624712E+03  0.47000000000E+01 0.  1.
         -5    1    1    2    0  502  0.12637681356E+02  0.23783560017E+01 -0.24086147400E+03  0.24125029995E+03  0.47000000000E+01 0. -1.
<mgrwt>
<rscale>  2 0.13691514E+02</rscale>
<asrwt>0</asrwt>
<pdfrwt beam="1">  1       21 0.66569775E-04 0.13691514E+02</pdfrwt>
<pdfrwt beam="2">  1       21 0.67342347E-01 0.13691514E+02</pdfrwt>
<totfact> 0.27434138E+08</totfact>
</mgrwt>
</event>
<event>
 4    1  0.3992289E+006  0.7056130E+01  0.7546771E-02  0.2295372E+00
         21   -1    0    0  503  502  0.00000000000E+00  0.00000000000E+00  0.47365009102E+03  0.47365009102E+03  0.00000000000E+00 0. -1.
         21   -1    0    0  501  503 -0.00000000000E+00 -0.00000000000E+00 -0.26146086626E+00  0.26146086626E+00  0.00000000000E+00 0. -1.
          5    1    1    2  501    0  0.19005318516E+01  0.49078451471E+01  0.53461384048E+02  0.53925027118E+02  0.47000000000E+01 0. -1.
         -5    1    1    2    0  502 -0.19005318516E+01 -0.49078451471E+01  0.41992724610E+03  0.41998652476E+03  0.47000000000E+01 0. -1.
<mgrwt>
<rscale>  2 0.70561296E+01</rscale>
<asrwt>0</asrwt>
<pdfrwt beam="1">  1       21 0.72868558E-01 0.70561296E+01</pdfrwt>
<pdfrwt beam="2">  1       21 0.40225128E-04 0.70561296E+01</pdfrwt>
<totfact> 0.34145568E+08</totfact>
</mgrwt>
</event>
<event>
 4    1  0.3992289E+006  0.4786963E+01  0.7546771E-02  0.2606393E+00
         21   -1    0    0  503  502  0.00000000000E+00  0.00000000000E+00  0.58516080774E+02  0.58516080774E+02  0.00000000000E+00 0.  1.
         21   -1    0    0  501  503 -0.00000000000E+00 -0.00000000000E+00 -0.63953013939E+00  0.63953013939E+00  0.00000000000E+00 0.  1.
          5    1    1    2  501    0  0.61854805951E+00  0.66514155320E+00  0.47354403945E+02  0.47595741279E+02  0.47000000000E+01 0.  1.
         -5    1    1    2    0  502 -0.61854805951E+00 -0.66514155320E+00  0.10522146690E+02  0.11559869634E+02  0.47000000000E+01 0.  1.
<mgrwt>
<rscale>  2 0.47869630E+01</rscale>
<asrwt>0</asrwt>
<pdfrwt beam="1">  1       21 0.90024697E-02 0.47869630E+01</pdfrwt>
<pdfrwt beam="2">  1       21 0.98389299E-04 0.47869630E+01</pdfrwt>
<totfact> 0.25117935E+09</totfact>
</mgrwt>
</event>
<event>
 4    1  0.3992289E+006  0.1106514E+02  0.7546771E-02  0.2018998E+00
         21   -1    0    0  503  502  0.00000000000E+00  0.00000000000E+00  0.62604349369E+02  0.62604349369E+02  0.00000000000E+00 0. -1.
         21   -1    0    0  501  503 -0.00000000000E+00 -0.00000000000E+00 -0.19568342078E+01  0.19568342078E+01  0.00000000000E+00 0.  1.
          5    1    1    2  501    0  0.76529917401E+01  0.64636677914E+01  0.29557386019E+02  0.31560677309E+02  0.47000000000E+01 0.  1.
         -5    1    1    2    0  502 -0.76529917401E+01 -0.64636677914E+01  0.31090129142E+02  0.33000506268E+02  0.47000000000E+01 0. -1.
<mgrwt>
<rscale>  2 0.11065138E+02</rscale>
<asrwt>0</asrwt>
<pdfrwt beam="1">  1       21 0.96314368E-02 0.11065138E+02</pdfrwt>
<pdfrwt beam="2">  1       21 0.30105146E-03 0.11065138E+02</pdfrwt>
<totfact> 0.90618042E+08</totfact>
</mgrwt>
</event>
<event>
 4    1  0.3992289E+006  0.5736533E+01  0.7546771E-02  0.2451030E+00
         21   -1    0    0  501  502  0.00000000000E+00  0.00000000000E+00  0.21700626952E+01  0.21700626952E+01  0.00000000000E+00 0. -1.
         21   -1    0    0  502  503 -0.00000000000E+00 -0.00000000000E+00 -0.16414620728E+02  0.16414620728E+02  0.00000000000E+00 0. -1.
          5    1    1    2  501    0 -0.10819302522E+01 -0.31059999684E+01 -0.96867292627E+01  0.11257909783E+02  0.47000000000E+01 0. -1.
         -5    1    1    2    0  503  0.10819302522E+01  0.31059999684E+01 -0.45578287699E+01  0.73267736399E+01  0.47000000000E+01 0. -1.
<mgrwt>
<rscale>  2 0.57365328E+01</rscale>
<asrwt>0</asrwt>
<pdfrwt beam="1">  1       21 0.33385581E-03 0.57365328E+01</pdfrwt>
<pdfrwt beam="2">  1       21 0.25253262E-02 0.57365328E+01</pdfrwt>
<totfact> 0.37244508E+09</totfact>
</mgrwt>
</event>
<event>
 4    1  0.3992289E+006  0.6294700E+01  0.7546771E-02  0.2378577E+00
         21   -1    0    0  503  502  0.00000000000E+00  0.00000000000E+00  0.71883267665E+01  0.71883267665E+01  0.00000000000E+00 0.  1.
         21   -1    0    0  501  503 -0.00000000000E+00 -0.00000000000E+00 -0.55836974844E+01  0.55836974844E+01  0.00000000000E+00 0. -1.
          5    1    1    2  501    0  0.25811904943E+01  0.32970741694E+01  0.79510261077E-01  0.62952016908E+01  0.47000000000E+01 0.  1.
         -5    1    1    2    0  502 -0.25811904943E+01 -0.32970741694E+01  0.15251190209E+01  0.64768225601E+01  0.47000000000E+01 0. -1.
<mgrwt>
<rscale>  2 0.62946996E+01</rscale>
<asrwt>0</asrwt>
<pdfrwt beam="1">  1       21 0.11058964E-02 0.62946996E+01</pdfrwt>
<pdfrwt beam="2">  1       21 0.85903038E-03 0.62946996E+01</pdfrwt>
<totfact> 0.35388130E+09</totfact>
</mgrwt>
</event>
<event>
 4    1  0.3992289E+006  0.6269390E+01  0.7546771E-02  0.2381628E+00
         21   -1    0    0  503  502  0.00000000000E+00  0.00000000000E+00  0.26492693207E+00  0.26492693207E+00  0.00000000000E+00 0. -1.
         21   -1    0    0  501  503 -0.00000000000E+00 -0.00000000000E+00 -0.16929329291E+03  0.16929329291E+03  0.00000000000E+00 0. -1.
          5    1    1    2  501    0 -0.33825846095E+01  0.24027832354E+01 -0.11432410766E+03  0.11449588132E+03  0.47000000000E+01 0. -1.
         -5    1    1    2    0  502  0.33825846095E+01 -0.24027832354E+01 -0.54704258314E+02  0.55062338523E+02  0.47000000000E+01 0. -1.
<mgrwt>
<rscale>  2 0.62693896E+01</rscale>
<asrwt>0</asrwt>
<pdfrwt beam="1">  1       21 0.40758039E-04 0.62693896E+01</pdfrwt>
<pdfrwt beam="2">  1       21 0.26045090E-01 0.62693896E+01</pdfrwt>
<totfact> 0.19439423E+09</totfact>
</mgrwt>
</event>
<event>
 4    1  0.3992289E+006  0.6390326E+01  0.7546771E-02  0.2367231E+00
         21   -1    0    0  501  502  0.00000000000E+00  0.00000000000E+00  0.56308896561E+01  0.56308896561E+01  0.00000000000E+00 0. -1.
         21   -1    0    0  502  503 -0.00000000000E+00 -0.00000000000E+00 -0.10958944276E+02  0.10958944276E+02  0.00000000000E+00 0.  1.
          5    1    1    2  501    0  0.22646925005E+01  0.36901802278E+01  0.21601669137E+01  0.67455602681E+01  0.47000000000E+01 0. -1.
         -5    1    1    2    0  503 -0.22646925005E+01 -0.36901802278E+01 -0.74882215338E+01  0.98442736641E+01  0.47000000000E+01 0.  1.
<mgrwt>
<rscale>  2 0.63903257E+01</rscale>
<asrwt>0</asrwt>
<pdfrwt beam="1">  1       21 0.86629072E-03 0.63903257E+01</pdfrwt>
<pdfrwt beam="2">  1       21 0.16859914E-02 0.63903257E+01</pdfrwt>
<totfact> 0.19409266E+09</totfact>
</mgrwt>
</event>
<event>
 4    1  0.3992289E+006  0.6283867E+01  0.7546771E-02  0.2379880E+00
         21   -1    0    0  501  502  0.00000000000E+00  0.00000000000E+00  0.41046876115E+01  0.41046876115E+01  0.00000000000E+00 0. -1.
         21   -1    0    0  502  503 -0.00000000000E+00 -0.00000000000E+00 -0.12637068492E+03  0.12637068492E+03  0.00000000000E+00 0. -1.
          5    1    1    2  501    0 -0.18602938151E+01  0.37331346073E+01  0.15724309385E+01  0.64776173189E+01  0.47000000000E+01 0. -1.
         -5    1    1    2    0  503  0.18602938151E+01 -0.37331346073E+01 -0.12383842825E+03  0.12399775521E+03  0.47000000000E+01 0. -1.
<mgrwt>
<rscale>  2 0.62838672E+01</rscale>
<asrwt>0</asrwt>
<pdfrwt beam="1">  1       21 0.63149030E-03 0.62838672E+01</pdfrwt>
<pdfrwt beam="2">  1       21 0.19441647E-01 0.62838672E+01</pdfrwt>
<totfact> 0.75196380E+07</totfact>
</mgrwt>
</event>
<event>
 4    1  0.3992289E+006  0.5894354E+01  0.7546771E-02  0.2429380E+00
         21   -1    0    0  501  502  0.00000000000E+00  0.00000000000E+00  0.10256356356E+04  0.10256356356E+04  0.00000000000E+00 0. -1.
         21   -1    0    0  502  503 -0.00000000000E+00 -0.00000000000E+00 -0.10033613341E+00  0.10033613341E+00  0.00000000000E+00 0.  1.
          5    1    1    2  501    0  0.17730405648E+01  0.30837863212E+01  0.93017565099E+03  0.93019432653E+03  0.47000000000E+01 0. -1.
         -5    1    1    2    0  503 -0.17730405648E+01 -0.30837863212E+01  0.95359648519E+02  0.95541645247E+02  0.47000000000E+01 0.  1.
<mgrwt>
<rscale>  2 0.58943542E+01</rscale>
<asrwt>0</asrwt>
<pdfrwt beam="1">  1       21 0.15778170E+00 0.58943542E+01</pdfrwt>
<pdfrwt beam="2">  1       21 0.15437150E-04 0.58943542E+01</pdfrwt>
<totfact> 0.22600292E+08</totfact>
</mgrwt>
</event>
<event>
 4    1  0.3992289E+006  0.6626541E+01  0.7546771E-02  0.2340376E+00
         21   -1    0    0  503  502  0.00000000000E+00  0.00000000000E+00  0.12284511522E+02  0.12284511522E+02  0.00000000000E+00 0. -1.
         21   -1    0    0  501  503 -0.00000000000E+00 -0.00000000000E+00 -0.37469192640E+01  0.37469192640E+01  0.00000000000E+00 0. -1.
          5    1    1    2  501    0  0.40714353761E+01 -0.22900788321E+01  0.25493372385E+01  0.71000117911E+01  0.47000000000E+01 0. -1.
         -5    1    1    2    0  502 -0.40714353761E+01  0.22900788321E+01  0.59882550192E+01  0.89314189944E+01  0.47000000000E+01 0. -1.
<mgrwt>
<rscale>  2 0.66265411E+01</rscale>
<asrwt>0</asrwt>
<pdfrwt beam="1">  1       21 0.18899248E-02 0.66265411E+01</pdfrwt>
<pdfrwt beam="2">  1       21 0.57644912E-03 0.66265411E+01</pdfrwt>
<totfact> 0.30100638E+09</totfact>
</mgrwt>
</event>
<event>
 4    1  0.3992289E+006  0.5978156E+01  0.7546771E-02  0.2418275E+00
         21   -1    0    0  501  502  0.00000000000E+00  0.00000000000E+00  0.11090653984E+03  0.11090653984E+03  0.00000000000E+00 0. -1.
         21   -1    0    0  502  503 -0.00000000000E+00 -0.00000000000E+00 -0.32240583301E+00  0.32240583301E+00  0.00000000000E+00 0. -1.
          5    1    1    2  501    0 -0.18495589438E+01 -0.31980441109E+01  0.56559157992E+02  0.56874218299E+02  0.47000000000E+01 0. -1.
         -5    1    1    2    0  503  0.18495589438E+01  0.31980441109E+01  0.54024976017E+02  0.54354727375E+02  0.47000000000E+01 0. -1.
<mgrwt>
<rscale>  2 0.59781564E+01</rscale>
<asrwt>0</asrwt>
<pdfrwt beam="1">  1       21 0.17062514E-01 0.59781564E+01</pdfrwt>
<pdfrwt beam="2">  1       21 0.49600986E-04 0.59781564E+01</pdfrwt>
<totfact> 0.28621080E+09</totfact>
</mgrwt>
</event>
<event>
 4    1  0.3992289E+006  0.1083352E+02  0.7546771E-02  0.2030439E+00
         21   -1    0    0  501  502  0.00000000000E+00  0.00000000000E+00  0.13593952965E+03  0.13593952965E+03  0.00000000000E+00 0.  1.
         21   -1    0    0  502  503 -0.00000000000E+00 -0.00000000000E+00 -0.88966444835E+00  0.88966444835E+00  0.00000000000E+00 0. -1.
          5    1    1    2  501    0 -0.12260229216E+01  0.96835977879E+01  0.79288069969E+02  0.80024766402E+02  0.47000000000E+01 0.  1.
         -5    1    1    2    0  503  0.12260229216E+01 -0.96835977879E+01  0.55761795236E+02  0.56804427699E+02  0.47000000000E+01 0. -1.
<mgrwt>
<rscale>  2 0.10833522E+02</rscale>
<asrwt>0</asrwt>
<pdfrwt beam="1">  1       21 0.20913757E-01 0.10833522E+02</pdfrwt>
<pdfrwt beam="2">  1       21 0.13687156E-03 0.10833522E+02</pdfrwt>
<totfact> 0.76202042E+08</totfact>
</mgrwt>
</event>
<event>
 4    1  0.3992289E+006  0.4732996E+01  0.7546771E-02  0.2616818E+00
         21   -1    0    0  503  502  0.00000000000E+00  0.00000000000E+00  0.17645935425E+02  0.17645935425E+02  0.00000000000E+00 0.  1.
         21   -1    0    0  501  503 -0.00000000000E+00 -0.00000000000E+00 -0.15105638237E+01  0.15105638237E+01  0.00000000000E+00 0.  1.
          5    1    1    2  501    0 -0.24852212656E+00 -0.49948644833E+00  0.42412347472E+01  0.63552594078E+01  0.47000000000E+01 0.  1.
         -5    1    1    2    0  502  0.24852212656E+00  0.49948644833E+00  0.11894136854E+02  0.12801239841E+02  0.47000000000E+01 0.  1.
<mgrwt>
<rscale>  2 0.47329959E+01</rscale>
<asrwt>0</asrwt>
<pdfrwt beam="1">  1       21 0.27147592E-02 0.47329959E+01</pdfrwt>
<pdfrwt beam="2">  1       21 0.23239445E-03 0.47329959E+01</pdfrwt>
<totfact> 0.45252447E+09</totfact>
</mgrwt>
</event>
<event>
 4    1  0.3992289E+006  0.1328637E+02  0.7546771E-02  0.1925360E+00
         21   -1    0    0  503  502  0.00000000000E+00  0.00000000000E+00  0.73712539548E+01  0.73712539548E+01  0.00000000000E+00 0. -1.
         21   -1    0    0  501  503 -0.00000000000E+00 -0.00000000000E+00 -0.59023952426E+02  0.59023952426E+02  0.00000000000E+00 0.  1.
          5    1    1    2  501    0 -0.64116507223E+01  0.10645575536E+02 -0.51417905022E+02  0.53106765109E+02  0.47000000000E+01 0.  1.
         -5    1    1    2    0  502  0.64116507223E+01 -0.10645575536E+02 -0.23479344993E+00  0.13288441272E+02  0.47000000000E+01 0. -1.
<mgrwt>
<rscale>  2 0.13286367E+02</rscale>
<asrwt>0</asrwt>
<pdfrwt beam="1">  1       21 0.11340391E-02 0.13286367E+02</pdfrwt>
<pdfrwt beam="2">  1       21 0.90806082E-02 0.13286367E+02</pdfrwt>
<totfact> 0.15956136E+08</totfact>
</mgrwt>
</event>
<event>
 4    1  0.3992289E+006  0.5511848E+01  0.7546771E-02  0.2483647E+00
         21   -1    0    0  503  502  0.00000000000E+00  0.00000000000E+00  0.73499345810E+01  0.73499345810E+01  0.00000000000E+00 0. -1.
         21   -1    0    0  501  503 -0.00000000000E+00 -0.00000000000E+00 -0.49030907257E+01  0.49030907257E+01  0.00000000000E+00 0.  1.
          5    1    1    2  501    0 -0.28785569271E+01  0.66153074091E-01 -0.12038980515E+01  0.56417937511E+01  0.47000000000E+01 0.  1.
         -5    1    1    2    0  502  0.28785569271E+01 -0.66153074091E-01  0.36507419068E+01  0.66112315556E+01  0.47000000000E+01 0. -1.
<mgrwt>
<rscale>  2 0.55118478E+01</rscale>
<asrwt>0</asrwt>
<pdfrwt beam="1">  1       21 0.11307592E-02 0.55118478E+01</pdfrwt>
<pdfrwt beam="2">  1       21 0.75432165E-03 0.55118478E+01</pdfrwt>
<totfact> 0.36466332E+09</totfact>
</mgrwt>
</event>
<event>
 4    1  0.3992289E+006  0.5562037E+01  0.7546771E-02  0.2476167E+00
         21   -1    0    0  501  502  0.00000000000E+00  0.00000000000E+00  0.22415522504E+02  0.22415522504E+02  0.00000000000E+00 0.  1.
         21   -1    0    0  502  503 -0.00000000000E+00 -0.00000000000E+00 -0.21256735046E+01  0.21256735046E+01  0.00000000000E+00 0.  1.
          5    1    1    2  501    0 -0.26541399041E+01 -0.13423118536E+01  0.17411920531E+02  0.18278709920E+02  0.47000000000E+01 0.  1.
         -5    1    1    2    0  503  0.26541399041E+01  0.13423118536E+01  0.28779284676E+01  0.62624860884E+01  0.47000000000E+01 0.  1.
<mgrwt>
<rscale>  2 0.55620374E+01</rscale>
<asrwt>0</asrwt>
<pdfrwt beam="1">  1       21 0.34485418E-02 0.55620374E+01</pdfrwt>
<pdfrwt beam="2">  1       21 0.32702671E-03 0.55620374E+01</pdfrwt>
<totfact> 0.23731054E+09</totfact>
</mgrwt>
</event>
<event>
 4    1  0.3992289E+006  0.6556597E+01  0.7546771E-02  0.2348161E+00
         21   -1    0    0  503  502  0.00000000000E+00  0.00000000000E+00  0.27968354377E+00  0.27968354377E+00  0.00000000000E+00 0.  1.
         21   -1    0    0  501  503 -0.00000000000E+00 -0.00000000000E+00 -0.26968894439E+03  0.26968894439E+03  0.00000000000E+00 0. -1.
          5    1    1    2  501    0 -0.35749869678E+01 -0.28492852337E+01 -0.22322624702E+03  0.22332251637E+03  0.47000000000E+01 0. -1.
         -5    1    1    2    0  502  0.35749869678E+01  0.28492852337E+01 -0.46183013827E+02  0.46646111567E+02  0.47000000000E+01 0.  1.
<mgrwt>
<rscale>  2 0.65565965E+01</rscale>
<asrwt>0</asrwt>
<pdfrwt beam="1">  1       21 0.43028354E-04 0.65565965E+01</pdfrwt>
<pdfrwt beam="2">  1       21 0.41490495E-01 0.65565965E+01</pdfrwt>
<totfact> 0.84182506E+08</totfact>
</mgrwt>
</event>
<event>
 4    1  0.3992289E+006  0.5090143E+01  0.7546771E-02  0.2551407E+00
         21   -1    0    0  501  502  0.00000000000E+00  0.00000000000E+00  0.15461268767E+00  0.15461268767E+00  0.00000000000E+00 0. -1.
         21   -1    0    0  502  503 -0.00000000000E+00 -0.00000000000E+00 -0.17549311590E+03  0.17549311590E+03  0.00000000000E+00 0. -1.
          5    1    1    2  501    0  0.81978316656E+00 -0.17741222548E+01 -0.69016867945E+02  0.69204317894E+02  0.47000000000E+01 0. -1.
         -5    1    1    2    0  503 -0.81978316656E+00  0.17741222548E+01 -0.10632163527E+03  0.10644341069E+03  0.47000000000E+01 0. -1.
<mgrwt>
<rscale>  2 0.50901428E+01</rscale>
<asrwt>0</asrwt>
<pdfrwt beam="1">  1       21 0.23786635E-04 0.50901428E+01</pdfrwt>
<pdfrwt beam="2">  1       21 0.26998864E-01 0.50901428E+01</pdfrwt>
<totfact> 0.31465677E+09</totfact>
</mgrwt>
</event>
<event>
 4    1  0.3992289E+006  0.5243381E+01  0.7546771E-02  0.2525708E+00
         21   -1    0    0  501  502  0.00000000000E+00  0.00000000000E+00  0.88717029361E+03  0.88717029361E+03  0.00000000000E+00 0.  1.
         21   -1    0    0  502  503 -0.00000000000E+00 -0.00000000000E+00 -0.35092811012E+00  0.35092811012E+00  0.00000000000E+00 0. -1.
          5    1    1    2  501    0  0.15666984245E+01  0.17171199680E+01  0.86712380269E+03  0.86713965555E+03  0.47000000000E+01 0.  1.
         -5    1    1    2    0  503 -0.15666984245E+01 -0.17171199680E+01  0.19695562813E+02  0.20381566167E+02  0.47000000000E+01 0. -1.
<mgrwt>
<rscale>  2 0.52433811E+01</rscale>
<asrwt>0</asrwt>
<pdfrwt beam="1">  1       21 0.13648594E+00 0.52433811E+01</pdfrwt>
<pdfrwt beam="2">  1       21 0.53989650E-04 0.52433811E+01</pdfrwt>
<totfact> 0.54170529E+07</totfact>
</mgrwt>
</event>
<event>
 4    1  0.3992289E+006  0.1095908E+02  0.7546771E-02  0.2024190E+00
         21   -1    0    0  501  502  0.00000000000E+00  0.00000000000E+00  0.10814538001E+02  0.10814538001E+02  0.00000000000E+00 0. -1.
         21   -1    0    0  502  503 -0.00000000000E+00 -0.00000000000E+00 -0.62244205212E+02  0.62244205212E+02  0.00000000000E+00 0.  1.
          5    1    1    2  501    0  0.73854053997E+01 -0.65929616123E+01  0.73957933657E+01  0.13221161645E+02  0.47000000000E+01 0. -1.
         -5    1    1    2    0  503 -0.73854053997E+01  0.65929616123E+01 -0.58825460577E+02  0.59837581567E+02  0.47000000000E+01 0.  1.
<mgrwt>
<rscale>  2 0.10959076E+02</rscale>
<asrwt>0</asrwt>
<pdfrwt beam="1">  1       21 0.16637751E-02 0.10959076E+02</pdfrwt>
<pdfrwt beam="2">  1       21 0.95760316E-02 0.10959076E+02</pdfrwt>
<totfact> 0.76852376E+07</totfact>
</mgrwt>
</event>
<event>
 4    1  0.3992289E+006  0.5488035E+01  0.7546771E-02  0.2487236E+00
         21   -1    0    0  501  502  0.00000000000E+00  0.00000000000E+00  0.47011185453E+00  0.47011185453E+00  0.00000000000E+00 0. -1.
         21   -1    0    0  502  503 -0.00000000000E+00 -0.00000000000E+00 -0.78898084303E+02  0.78898084303E+02  0.00000000000E+00 0. -1.
          5    1    1    2  501    0  0.25323263283E+01 -0.12711621642E+01 -0.22008233760E+02  0.22682171041E+02  0.47000000000E+01 0. -1.
         -5    1    1    2    0  503 -0.25323263283E+01  0.12711621642E+01 -0.56419738689E+02  0.56686025118E+02  0.47000000000E+01 0. -1.
<mgrwt>
<rscale>  2 0.54880352E+01</rscale>
<asrwt>0</asrwt>
<pdfrwt beam="1">  1       21 0.72324895E-04 0.54880352E+01</pdfrwt>
<pdfrwt beam="2">  1       21 0.12138168E-01 0.54880352E+01</pdfrwt>
<totfact> 0.27394386E+09</totfact>
</mgrwt>
</event>
<event>
 4    1  0.3992289E+006  0.5686380E+01  0.7546771E-02  0.2458121E+00
         21   -1    0    0  503  502  0.00000000000E+00  0.00000000000E+00  0.62376073956E+01  0.62376073956E+01  0.00000000000E+00 0. -1.
         21   -1    0    0  501  503 -0.00000000000E+00 -0.00000000000E+00 -0.94910126217E+01  0.94910126217E+01  0.00000000000E+00 0.  1.
          5    1    1    2  501    0  0.30449538656E+01 -0.98649288236E+00 -0.69245476064E+01  0.89601490950E+01  0.47000000000E+01 0.  1.
         -5    1    1    2    0  502 -0.30449538656E+01  0.98649288236E+00  0.36711423803E+01  0.67684709224E+01  0.47000000000E+01 0. -1.
<mgrwt>
<rscale>  2 0.56863795E+01</rscale>
<asrwt>0</asrwt>
<pdfrwt beam="1">  1       21 0.95963191E-03 0.56863795E+01</pdfrwt>
<pdfrwt beam="2">  1       21 0.14601558E-02 0.56863795E+01</pdfrwt>
<totfact> 0.18663481E+09</totfact>
</mgrwt>
</event>
<event>
 4    1  0.3992289E+006  0.8350623E+01  0.7546771E-02  0.2183128E+00
         21   -1    0    0  503  502  0.00000000000E+00  0.00000000000E+00  0.20507167137E+03  0.20507167137E+03  0.00000000000E+00 0. -1.
         21   -1    0    0  501  503 -0.00000000000E+00 -0.00000000000E+00 -0.35239767632E+00  0.35239767632E+00  0.00000000000E+00 0. -1.
          5    1    1    2  501    0  0.68548682054E+01  0.80850626791E+00  0.83126726930E+02  0.83545111351E+02  0.47000000000E+01 0. -1.
         -5    1    1    2    0  502 -0.68548682054E+01 -0.80850626791E+00  0.12159254676E+03  0.12187895769E+03  0.47000000000E+01 0. -1.
<mgrwt>
<rscale>  2 0.83506228E+01</rscale>
<asrwt>0</asrwt>
<pdfrwt beam="1">  1       21 0.31549393E-01 0.83506228E+01</pdfrwt>
<pdfrwt beam="2">  1       21 0.54215191E-04 0.83506228E+01</pdfrwt>
<totfact> 0.11637661E+09</totfact>
</mgrwt>
</event>
<event>
 4    1  0.3992289E+006  0.6026697E+01  0.7546771E-02  0.2411962E+00
         21   -1    0    0  503  502  0.00000000000E+00  0.00000000000E+00  0.18089413984E+02  0.18089413984E+02  0.00000000000E+00 0. -1.
         21   -1    0    0  501  503 -0.00000000000E+00 -0.00000000000E+00 -0.20927592659E+01  0.20927592659E+01  0.00000000000E+00 0. -1.
          5    1    1    2  501    0 -0.35028891803E+01  0.14003008256E+01  0.10030783490E+02  0.11702037960E+02  0.47000000000E+01 0. -1.
         -5    1    1    2    0  502  0.35028891803E+01 -0.14003008256E+01  0.59658712280E+01  0.84801352891E+01  0.47000000000E+01 0. -1.
<mgrwt>
<rscale>  2 0.60266969E+01</rscale>
<asrwt>0</asrwt>
<pdfrwt beam="1">  1       21 0.27829867E-02 0.60266969E+01</pdfrwt>
<pdfrwt beam="2">  1       21 0.32196298E-03 0.60266969E+01</pdfrwt>
<totfact> 0.35569545E+09</totfact>
</mgrwt>
</event>
<event>
 4    1  0.3992289E+006  0.5655428E+01  0.7546771E-02  0.2462550E+00
         21   -1    0    0  503  502  0.00000000000E+00  0.00000000000E+00  0.32536001417E+00  0.32536001417E+00  0.00000000000E+00 0. -1.
         21   -1    0    0  501  503 -0.00000000000E+00 -0.00000000000E+00 -0.10012520681E+03  0.10012520681E+03  0.00000000000E+00 0. -1.
          5    1    1    2  501    0 -0.51612997915E+00  0.31028173626E+01 -0.56675549275E+02  0.56957016700E+02  0.47000000000E+01 0. -1.
         -5    1    1    2    0  502  0.51612997915E+00 -0.31028173626E+01 -0.43124297525E+02  0.43493550129E+02  0.47000000000E+01 0. -1.
<mgrwt>
<rscale>  2 0.56554280E+01</rscale>
<asrwt>0</asrwt>
<pdfrwt beam="1">  1       21 0.50055435E-04 0.56554280E+01</pdfrwt>
<pdfrwt beam="2">  1       21 0.15403863E-01 0.56554280E+01</pdfrwt>
<totfact> 0.31698534E+09</totfact>
</mgrwt>
</event>
<event>
 4    1  0.3992289E+006  0.7605065E+01  0.7546771E-02  0.2243998E+00
         21   -1    0    0  501  502  0.00000000000E+00  0.00000000000E+00  0.86816919616E+01  0.86816919616E+01  0.00000000000E+00 0.  1.
         21   -1    0    0  502  503 -0.00000000000E+00 -0.00000000000E+00 -0.66884186680E+01  0.66884186680E+01  0.00000000000E+00 0.  1.
          5    1    1    2  501    0  0.18148756797E+01 -0.56967744526E+01  0.14800704506E+01  0.77477494433E+01  0.47000000000E+01 0.  1.
         -5    1    1    2    0  503 -0.18148756797E+01  0.56967744526E+01  0.51320284292E+00  0.76223611863E+01  0.47000000000E+01 0.  1.
<mgrwt>
<rscale>  2 0.76050650E+01</rscale>
<asrwt>0</asrwt>
<pdfrwt beam="1">  1       21 0.13356449E-02 0.76050650E+01</pdfrwt>
<pdfrwt beam="2">  1       21 0.10289875E-02 0.76050650E+01</pdfrwt>
<totfact> 0.24349158E+09</totfact>
</mgrwt>
</event>
<event>
 4    1  0.3992289E+006  0.5010969E+01  0.7546771E-02  0.2565212E+00
         21   -1    0    0  501  502  0.00000000000E+00  0.00000000000E+00  0.18073966657E+03  0.18073966657E+03  0.00000000000E+00 0.  1.
         21   -1    0    0  502  503 -0.00000000000E+00 -0.00000000000E+00 -0.53985274661E+00  0.53985274661E+00  0.00000000000E+00 0.  1.
          5    1    1    2  501    0 -0.14549969147E+01 -0.95015287956E+00  0.16821096144E+03  0.16828558273E+03  0.47000000000E+01 0.  1.
         -5    1    1    2    0  503  0.14549969147E+01  0.95015287956E+00  0.11988852380E+02  0.12993936583E+02  0.47000000000E+01 0.  1.
<mgrwt>
<rscale>  2 0.50109686E+01</rscale>
<asrwt>0</asrwt>
<pdfrwt beam="1">  1       21 0.27806054E-01 0.50109686E+01</pdfrwt>
<pdfrwt beam="2">  1       21 0.83054413E-04 0.50109686E+01</pdfrwt>
<totfact> 0.56359258E+08</totfact>
</mgrwt>
</event>
<event>
 4    1  0.3992289E+006  0.4778069E+01  0.7546771E-02  0.2608097E+00
         21   -1    0    0  503  502  0.00000000000E+00  0.00000000000E+00  0.72844391427E+02  0.72844391427E+02  0.00000000000E+00 0. -1.
         21   -1    0    0  501  503 -0.00000000000E+00 -0.00000000000E+00 -0.34114630932E+00  0.34114630932E+00  0.00000000000E+00 0. -1.
          5    1    1    2  501    0 -0.78427502887E+00  0.35335153554E+00  0.25817102148E+02  0.26255527189E+02  0.47000000000E+01 0. -1.
         -5    1    1    2    0  502  0.78427502887E+00 -0.35335153554E+00  0.46686142970E+02  0.46930010548E+02  0.47000000000E+01 0. -1.
<mgrwt>
<rscale>  2 0.47780691E+01</rscale>
<asrwt>0</asrwt>
<pdfrwt beam="1">  1       21 0.11206817E-01 0.47780691E+01</pdfrwt>
<pdfrwt beam="2">  1       21 0.52484106E-04 0.47780691E+01</pdfrwt>
<totfact> 0.41366418E+09</totfact>
</mgrwt>
</event>
<event>
 4    1  0.3992289E+006  0.7790211E+01  0.7546771E-02  0.2228007E+00
         21   -1    0    0  503  502  0.00000000000E+00  0.00000000000E+00  0.24051201785E+00  0.24051201785E+00  0.00000000000E+00 0. -1.
         21   -1    0    0  501  503 -0.00000000000E+00 -0.00000000000E+00 -0.53427873760E+03  0.53427873760E+03  0.00000000000E+00 0. -1.
          5    1    1    2  501    0 -0.61358069849E+01  0.97429912412E+00 -0.46116926013E+03  0.46123505274E+03  0.47000000000E+01 0. -1.
         -5    1    1    2    0  502  0.61358069849E+01 -0.97429912412E+00 -0.72868965456E+02  0.73284196883E+02  0.47000000000E+01 0. -1.
<mgrwt>
<rscale>  2 0.77902109E+01</rscale>
<asrwt>0</asrwt>
<pdfrwt beam="1">  1       21 0.37001795E-04 0.77902109E+01</pdfrwt>
<pdfrwt beam="2">  1       21 0.82196849E-01 0.77902109E+01</pdfrwt>
<totfact> 0.31908668E+08</totfact>
</mgrwt>
</event>
<event>
 4    1  0.3992289E+006  0.1166284E+02  0.7546771E-02  0.1991116E+00
         21   -1    0    0  501  502  0.00000000000E+00  0.00000000000E+00  0.12815494505E+02  0.12815494505E+02  0.00000000000E+00 0.  1.
         21   -1    0    0  502  503 -0.00000000000E+00 -0.00000000000E+00 -0.11885100309E+02  0.11885100309E+02  0.00000000000E+00 0. -1.
          5    1    1    2  501    0 -0.88761354587E+01  0.59284156210E+01  0.45043421091E+01  0.12502439374E+02  0.47000000000E+01 0.  1.
         -5    1    1    2    0  503  0.88761354587E+01 -0.59284156210E+01 -0.35739479125E+01  0.12198155440E+02  0.47000000000E+01 0. -1.
<mgrwt>
<rscale>  2 0.11662842E+02</rscale>
<asrwt>0</asrwt>
<pdfrwt beam="1">  1       21 0.19716145E-02 0.11662842E+02</pdfrwt>
<pdfrwt beam="2">  1       21 0.18284770E-02 0.11662842E+02</pdfrwt>
<totfact> 0.77849314E+08</totfact>
</mgrwt>
</event>
<event>
 4    1  0.3992289E+006  0.4912840E+01  0.7546771E-02  0.2582852E+00
         21   -1    0    0  503  502  0.00000000000E+00  0.00000000000E+00  0.14992178655E+03  0.14992178655E+03  0.00000000000E+00 0.  1.
         21   -1    0    0  501  503 -0.00000000000E+00 -0.00000000000E+00 -0.16775639762E+00  0.16775639762E+00  0.00000000000E+00 0.  1.
          5    1    1    2  501    0  0.15066156447E-01 -0.14303047370E+01  0.59806075124E+02  0.60007521365E+02  0.47000000000E+01 0.  1.
         -5    1    1    2    0  502 -0.15066156447E-01  0.14303047370E+01  0.89947955033E+02  0.90082021587E+02  0.47000000000E+01 0.  1.
<mgrwt>
<rscale>  2 0.49128402E+01</rscale>
<asrwt>0</asrwt>
<pdfrwt beam="1">  1       21 0.23064783E-01 0.49128402E+01</pdfrwt>
<pdfrwt beam="2">  1       21 0.25808796E-04 0.49128402E+01</pdfrwt>
<totfact> 0.35276958E+09</totfact>
</mgrwt>
</event>
<event>
 4    1  0.3992289E+006  0.7849311E+01  0.7546771E-02  0.2223032E+00
         21   -1    0    0  501  502  0.00000000000E+00  0.00000000000E+00  0.73058796079E+01  0.73058796079E+01  0.00000000000E+00 0. -1.
         21   -1    0    0  502  503 -0.00000000000E+00 -0.00000000000E+00 -0.17118825431E+02  0.17118825431E+02  0.00000000000E+00 0. -1.
          5    1    1    2  501    0  0.10484500268E+01 -0.61985836705E+01  0.37924158621E+01  0.87174597820E+01  0.47000000000E+01 0. -1.
         -5    1    1    2    0  503 -0.10484500268E+01  0.61985836705E+01 -0.13605361685E+02  0.15707245257E+02  0.47000000000E+01 0. -1.
<mgrwt>
<rscale>  2 0.78493112E+01</rscale>
<asrwt>0</asrwt>
<pdfrwt beam="1">  1       21 0.11239815E-02 0.78493112E+01</pdfrwt>
<pdfrwt beam="2">  1       21 0.26336654E-02 0.78493112E+01</pdfrwt>
<totfact> 0.81641980E+08</totfact>
</mgrwt>
</event>
<event>
 4    1  0.3992289E+006  0.5262124E+01  0.7546771E-02  0.2522653E+00
         21   -1    0    0  503  502  0.00000000000E+00  0.00000000000E+00  0.11312747111E+00  0.11312747111E+00  0.00000000000E+00 0. -1.
         21   -1    0    0  501  503 -0.00000000000E+00 -0.00000000000E+00 -0.33801242342E+03  0.33801242342E+03  0.00000000000E+00 0. -1.
          5    1    1    2  501    0  0.93438549169E+00  0.21741380494E+01 -0.25774572162E+03  0.25779943166E+03  0.47000000000E+01 0. -1.
         -5    1    1    2    0  502 -0.93438549169E+00 -0.21741380494E+01 -0.80153574336E+02  0.80326119235E+02  0.47000000000E+01 0. -1.
<mgrwt>
<rscale>  2 0.52621243E+01</rscale>
<asrwt>0</asrwt>
<pdfrwt beam="1">  1       21 0.17404319E-04 0.52621243E+01</pdfrwt>
<pdfrwt beam="2">  1       21 0.52001634E-01 0.52621243E+01</pdfrwt>
<totfact> 0.15954602E+09</totfact>
</mgrwt>
</event>
<event>
 4    1  0.3992289E+006  0.6337025E+01  0.7546771E-02  0.2373520E+00
         21   -1    0    0  503  502  0.00000000000E+00  0.00000000000E+00  0.15368898491E+02  0.15368898491E+02  0.00000000000E+00 0. -1.
         21   -1    0    0  501  503 -0.00000000000E+00 -0.00000000000E+00 -0.18977302761E+02  0.18977302761E+02  0.00000000000E+00 0.  1.
          5    1    1    2  501    0  0.39224069020E+01  0.16378680942E+01 -0.17751280407E+02  0.18848497125E+02  0.47000000000E+01 0.  1.
         -5    1    1    2    0  502 -0.39224069020E+01 -0.16378680942E+01  0.14142876136E+02  0.15497704127E+02  0.47000000000E+01 0. -1.
<mgrwt>
<rscale>  2 0.63370252E+01</rscale>
<asrwt>0</asrwt>
<pdfrwt beam="1">  1       21 0.23644459E-02 0.63370252E+01</pdfrwt>
<pdfrwt beam="2">  1       21 0.29195850E-02 0.63370252E+01</pdfrwt>
<totfact> 0.20754291E+08</totfact>
</mgrwt>
</event>
<event>
 4    1  0.3992289E+006  0.5291898E+01  0.7546771E-02  0.2517838E+00
         21   -1    0    0  501  502  0.00000000000E+00  0.00000000000E+00  0.10304287259E+01  0.10304287259E+01  0.00000000000E+00 0.  1.
         21   -1    0    0  502  503 -0.00000000000E+00 -0.00000000000E+00 -0.44325867859E+02  0.44325867859E+02  0.00000000000E+00 0.  1.
          5    1    1    2  501    0  0.21280589607E+01 -0.11770942617E+01 -0.75420424974E+01  0.92133919310E+01  0.47000000000E+01 0.  1.
         -5    1    1    2    0  503 -0.21280589607E+01  0.11770942617E+01 -0.35753396636E+02  0.36142904654E+02  0.47000000000E+01 0.  1.
<mgrwt>
<rscale>  2 0.52918981E+01</rscale>
<asrwt>0</asrwt>
<pdfrwt beam="1">  1       21 0.15852746E-03 0.52918981E+01</pdfrwt>
<pdfrwt beam="2">  1       21 0.68193659E-02 0.52918981E+01</pdfrwt>
<totfact> 0.22210745E+09</totfact>
</mgrwt>
</event>
<event>
 4    1  0.3992289E+006  0.6559623E+01  0.7546771E-02  0.2347821E+00
         21   -1    0    0  501  502  0.00000000000E+00  0.00000000000E+00  0.68905336025E+00  0.68905336025E+00  0.00000000000E+00 0.  1.
         21   -1    0    0  502  503 -0.00000000000E+00 -0.00000000000E+00 -0.62858127144E+02  0.62858127144E+02  0.00000000000E+00 0.  1.
          5    1    1    2  501    0 -0.44061230922E+01  0.12348031209E+01 -0.28511916522E+02  0.29256760642E+02  0.47000000000E+01 0.  1.
         -5    1    1    2    0  503  0.44061230922E+01 -0.12348031209E+01 -0.33657157261E+02  0.34290419862E+02  0.47000000000E+01 0.  1.
<mgrwt>
<rscale>  2 0.65596234E+01</rscale>
<asrwt>0</asrwt>
<pdfrwt beam="1">  1       21 0.10600822E-03 0.65596234E+01</pdfrwt>
<pdfrwt beam="2">  1       21 0.96704805E-02 0.65596234E+01</pdfrwt>
<totfact> 0.27101589E+09</totfact>
</mgrwt>
</event>
<event>
 4    1  0.3992289E+006  0.5754744E+01  0.7546771E-02  0.2448480E+00
         21   -1    0    0  501  502  0.00000000000E+00  0.00000000000E+00  0.22642729898E+00  0.22642729898E+00  0.00000000000E+00 0.  1.
         21   -1    0    0  502  503 -0.00000000000E+00 -0.00000000000E+00 -0.18602285201E+03  0.18602285201E+03  0.00000000000E+00 0.  1.
          5    1    1    2  501    0 -0.20457469437E+01  0.26157215321E+01 -0.49843123513E+02  0.50174236828E+02  0.47000000000E+01 0.  1.
         -5    1    1    2    0  503  0.20457469437E+01 -0.26157215321E+01 -0.13595330119E+03  0.13607504248E+03  0.47000000000E+01 0.  1.
<mgrwt>
<rscale>  2 0.57547441E+01</rscale>
<asrwt>0</asrwt>
<pdfrwt beam="1">  1       21 0.34834937E-04 0.57547441E+01</pdfrwt>
<pdfrwt beam="2">  1       21 0.28618927E-01 0.57547441E+01</pdfrwt>
<totfact> 0.19148069E+09</totfact>
</mgrwt>
</event>
<event>
 4    1  0.3992289E+006  0.4899751E+01  0.7546771E-02  0.2585251E+00
         21   -1    0    0  501  502  0.00000000000E+00  0.00000000000E+00  0.20372914362E+03  0.20372914362E+03  0.00000000000E+00 0. -1.
         21   -1    0    0  502  503 -0.00000000000E+00 -0.00000000000E+00 -0.17950370014E+00  0.17950370014E+00  0.00000000000E+00 0. -1.
          5    1    1    2  501    0 -0.13831887822E+01 -0.65922059559E-01  0.16153085239E+03  0.16160514791E+03  0.47000000000E+01 0. -1.
         -5    1    1    2    0  503  0.13831887822E+01  0.65922059559E-01  0.42018787524E+02  0.42303499405E+02  0.47000000000E+01 0. -1.
<mgrwt>
<rscale>  2 0.48997507E+01</rscale>
<asrwt>0</asrwt>
<pdfrwt beam="1">  1       21 0.31342760E-01 0.48997507E+01</pdfrwt>
<pdfrwt beam="2">  1       21 0.27616117E-04 0.48997507E+01</pdfrwt>
<totfact> 0.19479713E+09</totfact>
</mgrwt>
</event>
<event>
 4    1  0.3992289E+006  0.6637530E+01  0.7546771E-02  0.2339165E+00
         21   -1    0    0  503  502  0.00000000000E+00  0.00000000000E+00  0.72611263684E+02  0.72611263684E+02  0.00000000000E+00 0. -1.
         21   -1    0    0  501  503 -0.00000000000E+00 -0.00000000000E+00 -0.10867976143E+01  0.10867976143E+01  0.00000000000E+00 0.  1.
          5    1    1    2  501    0 -0.23146693565E+01 -0.40754271052E+01  0.11271915830E+02  0.13081012453E+02  0.47000000000E+01 0.  1.
         -5    1    1    2    0  502  0.23146693565E+01  0.40754271052E+01  0.60252550240E+02  0.60617048846E+02  0.47000000000E+01 0. -1.
<mgrwt>
<rscale>  2 0.66375297E+01</rscale>
<asrwt>0</asrwt>
<pdfrwt beam="1">  1       21 0.11170960E-01 0.66375297E+01</pdfrwt>
<pdfrwt beam="2">  1       21 0.16719969E-03 0.66375297E+01</pdfrwt>
<totfact> 0.11781868E+09</totfact>
</mgrwt>
</event>
<event>
 4    1  0.3992289E+006  0.6699344E+01  0.7546771E-02  0.2332415E+00
         21   -1    0    0  501  502  0.00000000000E+00  0.00000000000E+00  0.29561182247E+00  0.29561182247E+00  0.00000000000E+00 0. -1.
         21   -1    0    0  502  503 -0.00000000000E+00 -0.00000000000E+00 -0.20112422134E+03  0.20112422134E+03  0.00000000000E+00 0. -1.
          5    1    1    2  501    0 -0.35044085235E+01  0.32419642459E+01 -0.50553316961E+02  0.50995284753E+02  0.47000000000E+01 0. -1.
         -5    1    1    2    0  503  0.35044085235E+01 -0.32419642459E+01 -0.15027529256E+03  0.15042454841E+03  0.47000000000E+01 0. -1.
<mgrwt>
<rscale>  2 0.66993441E+01</rscale>
<asrwt>0</asrwt>
<pdfrwt beam="1">  1       21 0.45478664E-04 0.66993441E+01</pdfrwt>
<pdfrwt beam="2">  1       21 0.30942241E-01 0.66993441E+01</pdfrwt>
<totfact> 0.13191767E+09</totfact>
</mgrwt>
</event>
<event>
 4    1  0.3992289E+006  0.8191808E+01  0.7546771E-02  0.2195344E+00
         21   -1    0    0  501  502  0.00000000000E+00  0.00000000000E+00  0.11232549688E+02  0.11232549688E+02  0.00000000000E+00 0.  1.
         21   -1    0    0  502  503 -0.00000000000E+00 -0.00000000000E+00 -0.81328859152E+01  0.81328859152E+01  0.00000000000E+00 0. -1.
          5    1    1    2  501    0  0.63462395366E+01  0.21773752630E+01  0.65383055638E+01  0.10481181180E+02  0.47000000000E+01 0.  1.
         -5    1    1    2    0  503 -0.63462395366E+01 -0.21773752630E+01 -0.34386417906E+01  0.88842544232E+01  0.47000000000E+01 0. -1.
<mgrwt>
<rscale>  2 0.81918081E+01</rscale>
<asrwt>0</asrwt>
<pdfrwt beam="1">  1       21 0.17280846E-02 0.81918081E+01</pdfrwt>
<pdfrwt beam="2">  1       21 0.12512132E-02 0.81918081E+01</pdfrwt>
<totfact> 0.13342946E+09</totfact>
</mgrwt>
</event>
<event>
 4    1  0.3992289E+006  0.4716367E+01  0.7546771E-02  0.2620071E+00
         21   -1    0    0  501  502  0.00000000000E+00  0.00000000000E+00  0.15680111679E+03  0.15680111679E+03  0.00000000000E+00 0. -1.
         21   -1    0    0  502  503 -0.00000000000E+00 -0.00000000000E+00 -0.22808137458E+00  0.22808137458E+00  0.00000000000E+00 0. -1.
          5    1    1    2  501    0 -0.11237290434E+00  0.37615620969E+00  0.12655992151E+03  0.12664777082E+03  0.47000000000E+01 0. -1.
         -5    1    1    2    0  503  0.11237290434E+00 -0.37615620969E+00  0.30013113898E+02  0.30381427337E+02  0.47000000000E+01 0. -1.
<mgrwt>
<rscale>  2 0.47163674E+01</rscale>
<asrwt>0</asrwt>
<pdfrwt beam="1">  1       21 0.24123163E-01 0.47163674E+01</pdfrwt>
<pdfrwt beam="2">  1       21 0.35089568E-04 0.47163674E+01</pdfrwt>
<totfact> 0.21013426E+09</totfact>
</mgrwt>
</event>
<event>
 4    1  0.3992289E+006  0.5470699E+01  0.7546771E-02  0.2489865E+00
         21   -1    0    0  501  502  0.00000000000E+00  0.00000000000E+00  0.28881057048E+01  0.28881057048E+01  0.00000000000E+00 0. -1.
         21   -1    0    0  502  503 -0.00000000000E+00 -0.00000000000E+00 -0.12025787937E+02  0.12025787937E+02  0.00000000000E+00 0. -1.
          5    1    1    2  501    0  0.20285875546E+01  0.19296070369E+01 -0.17957580051E+01  0.57578900299E+01  0.47000000000E+01 0. -1.
         -5    1    1    2    0  503 -0.20285875546E+01 -0.19296070369E+01 -0.73419242274E+01  0.91560036121E+01  0.47000000000E+01 0. -1.
<mgrwt>
<rscale>  2 0.54706993E+01</rscale>
<asrwt>0</asrwt>
<pdfrwt beam="1">  1       21 0.44432395E-03 0.54706993E+01</pdfrwt>
<pdfrwt beam="2">  1       21 0.18501213E-02 0.54706993E+01</pdfrwt>
<totfact> 0.37557908E+09</totfact>
</mgrwt>
</event>
<event>
 4    1  0.3992289E+006  0.6286570E+01  0.7546771E-02  0.2379554E+00
         21   -1    0    0  501  502  0.00000000000E+00  0.00000000000E+00  0.23283020847E+01  0.23283020847E+01  0.00000000000E+00 0. -1.
         21   -1    0    0  502  503 -0.00000000000E+00 -0.00000000000E+00 -0.20474188057E+02  0.20474188057E+02  0.00000000000E+00 0. -1.
          5    1    1    2  501    0  0.25528705301E+01 -0.33036054672E+01 -0.43589915731E+01  0.76499519319E+01  0.47000000000E+01 0. -1.
         -5    1    1    2    0  503 -0.25528705301E+01  0.33036054672E+01 -0.13786894400E+02  0.15152538210E+02  0.47000000000E+01 0. -1.
<mgrwt>
<rscale>  2 0.62865696E+01</rscale>
<asrwt>0</asrwt>
<pdfrwt beam="1">  1       21 0.35820032E-03 0.62865696E+01</pdfrwt>
<pdfrwt beam="2">  1       21 0.31498751E-02 0.62865696E+01</pdfrwt>
<totfact> 0.26599081E+09</totfact>
</mgrwt>
</event>
<event>
 4    1  0.3992289E+006  0.5518382E+01  0.7546771E-02  0.2482666E+00
         21   -1    0    0  503  502  0.00000000000E+00  0.00000000000E+00  0.13656455696E+03  0.13656455696E+03  0.00000000000E+00 0. -1.
         21   -1    0    0  501  503 -0.00000000000E+00 -0.00000000000E+00 -0.24697709985E+00  0.24697709985E+00  0.00000000000E+00 0. -1.
          5    1    1    2  501    0 -0.14136917912E+00  0.28883477902E+01  0.46840481642E+02  0.47164427894E+02  0.47000000000E+01 0. -1.
         -5    1    1    2    0  502  0.14136917912E+00 -0.28883477902E+01  0.89477098218E+02  0.89647106164E+02  0.47000000000E+01 0. -1.
<mgrwt>
<rscale>  2 0.55183818E+01</rscale>
<asrwt>0</asrwt>
<pdfrwt beam="1">  1       21 0.21009871E-01 0.55183818E+01</pdfrwt>
<pdfrwt beam="2">  1       21 0.37996586E-04 0.55183818E+01</pdfrwt>
<totfact> 0.27326526E+09</totfact>
</mgrwt>
</event>
<event>
 4    1  0.3992289E+006  0.4865739E+01  0.7546771E-02  0.2591537E+00
         21   -1    0    0  503  502  0.00000000000E+00  0.00000000000E+00  0.18282094096E+01  0.18282094096E+01  0.00000000000E+00 0.  1.
         21   -1    0    0  501  503 -0.00000000000E+00 -0.00000000000E+00 -0.13575010540E+02  0.13575010540E+02  0.00000000000E+00 0.  1.
          5    1    1    2  501    0 -0.91032320730E+00  0.86989834087E+00 -0.75258804184E+01  0.89618238957E+01  0.47000000000E+01 0.  1.
         -5    1    1    2    0  502  0.91032320730E+00 -0.86989834087E+00 -0.42209207115E+01  0.64413960535E+01  0.47000000000E+01 0.  1.
<mgrwt>
<rscale>  2 0.48657385E+01</rscale>
<asrwt>0</asrwt>
<pdfrwt beam="1">  1       21 0.28126299E-03 0.48657385E+01</pdfrwt>
<pdfrwt beam="2">  1       21 0.20884632E-02 0.48657385E+01</pdfrwt>
<totfact> 0.52316540E+09</totfact>
</mgrwt>
</event>
<event>
 4    1  0.3992289E+006  0.6867526E+01  0.7546771E-02  0.2314560E+00
         21   -1    0    0  501  502  0.00000000000E+00  0.00000000000E+00  0.10235297647E+00  0.10235297647E+00  0.00000000000E+00 0.  1.
         21   -1    0    0  502  503 -0.00000000000E+00 -0.00000000000E+00 -0.68738114294E+03  0.68738114294E+03  0.00000000000E+00 0. -1.
          5    1    1    2  501    0  0.18832193146E+01 -0.46396552631E+01 -0.14627997456E+03  0.14644109353E+03  0.47000000000E+01 0.  1.
         -5    1    1    2    0  503 -0.18832193146E+01  0.46396552631E+01 -0.54099881541E+03  0.54104240239E+03  0.47000000000E+01 0. -1.
<mgrwt>
<rscale>  2 0.68675262E+01</rscale>
<asrwt>0</asrwt>
<pdfrwt beam="1">  1       21 0.15746459E-04 0.68675262E+01</pdfrwt>
<pdfrwt beam="2">  1       21 0.10575197E+00 0.68675262E+01</pdfrwt>
<totfact> 0.56222328E+08</totfact>
</mgrwt>
</event>
<event>
 4    1  0.3992289E+006  0.7372043E+01  0.7546771E-02  0.2265044E+00
         21   -1    0    0  503  502  0.00000000000E+00  0.00000000000E+00  0.62591267171E+02  0.62591267171E+02  0.00000000000E+00 0. -1.
         21   -1    0    0  501  503 -0.00000000000E+00 -0.00000000000E+00 -0.89261853531E+00  0.89261853531E+00  0.00000000000E+00 0.  1.
          5    1    1    2  501    0 -0.24692867823E+01  0.51146490143E+01  0.25608376775E+02  0.26648376551E+02  0.47000000000E+01 0.  1.
         -5    1    1    2    0  502  0.24692867823E+01 -0.51146490143E+01  0.36090271862E+02  0.36835509156E+02  0.47000000000E+01 0. -1.
<mgrwt>
<rscale>  2 0.73720426E+01</rscale>
<asrwt>0</asrwt>
<pdfrwt beam="1">  1       21 0.96294223E-02 0.73720426E+01</pdfrwt>
<pdfrwt beam="2">  1       21 0.13732598E-03 0.73720426E+01</pdfrwt>
<totfact> 0.20972468E+09</totfact>
</mgrwt>
</event>
<event>
 4    1  0.3992289E+006  0.5465911E+01  0.7546771E-02  0.2490594E+00
         21   -1    0    0  503  502  0.00000000000E+00  0.00000000000E+00  0.15071514735E+01  0.15071514735E+01  0.00000000000E+00 0.  1.
         21   -1    0    0  501  503 -0.00000000000E+00 -0.00000000000E+00 -0.20367798337E+02  0.20367798337E+02  0.00000000000E+00 0. -1.
          5    1    1    2  501    0 -0.27639604028E+01  0.38302101477E+00 -0.11219216797E+02  0.12479864092E+02  0.47000000000E+01 0.  1.
         -5    1    1    2    0  502  0.27639604028E+01 -0.38302101477E+00 -0.76414300667E+01  0.93950857192E+01  0.47000000000E+01 0.  1.
<mgrwt>
<rscale>  2 0.54659109E+01</rscale>
<asrwt>0</asrwt>
<pdfrwt beam="1">  1       21 0.23186947E-03 0.54659109E+01</pdfrwt>
<pdfrwt beam="2">  1       21 0.31335072E-02 0.54659109E+01</pdfrwt>
<totfact> 0.42882820E+09</totfact>
</mgrwt>
</event>
<event>
 4    1  0.3992289E+006  0.7625640E+01  0.7546771E-02  0.2242190E+00
         21   -1    0    0  501  502  0.00000000000E+00  0.00000000000E+00  0.96599474862E+02  0.96599474862E+02  0.00000000000E+00 0.  1.
         21   -1    0    0  502  503 -0.00000000000E+00 -0.00000000000E+00 -0.83766965160E+00  0.83766965160E+00  0.00000000000E+00 0.  1.
          5    1    1    2  501    0 -0.52583510493E+01 -0.29000211763E+01  0.73723364627E+02  0.74116697650E+02  0.47000000000E+01 0.  1.
         -5    1    1    2    0  503  0.52583510493E+01  0.29000211763E+01  0.22038440583E+02  0.23320446864E+02  0.47000000000E+01 0.  1.
<mgrwt>
<rscale>  2 0.76256396E+01</rscale>
<asrwt>0</asrwt>
<pdfrwt beam="1">  1       21 0.14861449E-01 0.76256396E+01</pdfrwt>
<pdfrwt beam="2">  1       21 0.12887233E-03 0.76256396E+01</pdfrwt>
<totfact> 0.11811824E+09</totfact>
</mgrwt>
</event>
<event>
 4    1  0.3992289E+006  0.6568615E+01  0.7546771E-02  0.2346813E+00
         21   -1    0    0  501  502  0.00000000000E+00  0.00000000000E+00  0.28796548818E+01  0.28796548818E+01  0.00000000000E+00 0. -1.
         21   -1    0    0  502  503 -0.00000000000E+00 -0.00000000000E+00 -0.56577649723E+02  0.56577649723E+02  0.00000000000E+00 0. -1.
          5    1    1    2  501    0 -0.18236250731E+01 -0.42108302008E+01 -0.13589877172E+01  0.67077229373E+01  0.47000000000E+01 0. -1.
         -5    1    1    2    0  503  0.18236250731E+01  0.42108302008E+01 -0.52339007124E+02  0.52749581668E+02  0.47000000000E+01 0. -1.
<mgrwt>
<rscale>  2 0.65686147E+01</rscale>
<asrwt>0</asrwt>
<pdfrwt beam="1">  1       21 0.44302386E-03 0.65686147E+01</pdfrwt>
<pdfrwt beam="2">  1       21 0.87042532E-02 0.65686147E+01</pdfrwt>
<totfact> 0.44899755E+08</totfact>
</mgrwt>
</event>
<event>
 4    1  0.3992289E+006  0.6023371E+01  0.7546771E-02  0.2412392E+00
         21   -1    0    0  503  502  0.00000000000E+00  0.00000000000E+00  0.41716723214E+00  0.41716723214E+00  0.00000000000E+00 0.  1.
         21   -1    0    0  501  503 -0.00000000000E+00 -0.00000000000E+00 -0.19298811028E+03  0.19298811028E+03  0.00000000000E+00 0.  1.
          5    1    1    2  501    0  0.27674251448E+01  0.25558476250E+01 -0.16795973689E+03  0.16806770723E+03  0.47000000000E+01 0.  1.
         -5    1    1    2    0  502 -0.27674251448E+01 -0.25558476250E+01 -0.24611206159E+02  0.25337570278E+02  0.47000000000E+01 0.  1.
<mgrwt>
<rscale>  2 0.60233711E+01</rscale>
<asrwt>0</asrwt>
<pdfrwt beam="1">  1       21 0.64179406E-04 0.60233711E+01</pdfrwt>
<pdfrwt beam="2">  1       21 0.29690556E-01 0.60233711E+01</pdfrwt>
<totfact> 0.82479584E+08</totfact>
</mgrwt>
</event>
<event>
 4    1  0.3992289E+006  0.5747078E+01  0.7546771E-02  0.2449552E+00
         21   -1    0    0  501  502  0.00000000000E+00  0.00000000000E+00  0.91474163268E-01  0.91474163268E-01  0.00000000000E+00 0.  1.
         21   -1    0    0  502  503 -0.00000000000E+00 -0.00000000000E+00 -0.39598547492E+03  0.39598547492E+03  0.00000000000E+00 0.  1.
          5    1    1    2  501    0  0.23107331475E+01 -0.23663090285E+01 -0.13914440621E+03  0.13926304135E+03  0.47000000000E+01 0.  1.
         -5    1    1    2    0  503 -0.23107331475E+01  0.23663090285E+01 -0.25674959455E+03  0.25681390774E+03  0.47000000000E+01 0.  1.
<mgrwt>
<rscale>  2 0.57470780E+01</rscale>
<asrwt>0</asrwt>
<pdfrwt beam="1">  1       21 0.14073118E-04 0.57470780E+01</pdfrwt>
<pdfrwt beam="2">  1       21 0.60920109E-01 0.57470780E+01</pdfrwt>
<totfact> 0.17002612E+09</totfact>
</mgrwt>
</event>
<event>
 4    1  0.3992289E+006  0.5776564E+01  0.7546771E-02  0.2445444E+00
         21   -1    0    0  503  502  0.00000000000E+00  0.00000000000E+00  0.18812421660E+00  0.18812421660E+00  0.00000000000E+00 0. -1.
         21   -1    0    0  501  503 -0.00000000000E+00 -0.00000000000E+00 -0.25729490784E+03  0.25729490784E+03  0.00000000000E+00 0.  1.
          5    1    1    2  501    0 -0.14772023407E+01  0.30160504029E+01 -0.20030444633E+03  0.20038772395E+03  0.47000000000E+01 0. -1.
         -5    1    1    2    0  502  0.14772023407E+01 -0.30160504029E+01 -0.56802337285E+02  0.57095308107E+02  0.47000000000E+01 0.  1.
<mgrwt>
<rscale>  2 0.57765636E+01</rscale>
<asrwt>0</asrwt>
<pdfrwt beam="1">  1       21 0.28942369E-04 0.57765636E+01</pdfrwt>
<pdfrwt beam="2">  1       21 0.39583583E-01 0.57765636E+01</pdfrwt>
<totfact> 0.14157524E+09</totfact>
</mgrwt>
</event>
<event>
 4    1  0.3992289E+006  0.7267058E+01  0.7546771E-02  0.2274884E+00
         21   -1    0    0  501  502  0.00000000000E+00  0.00000000000E+00  0.49486288190E+02  0.49486288190E+02  0.00000000000E+00 0.  1.
         21   -1    0    0  502  503 -0.00000000000E+00 -0.00000000000E+00 -0.13433005090E+01  0.13433005090E+01  0.00000000000E+00 0. -1.
          5    1    1    2  501    0  0.30325755180E+01 -0.46393558036E+01  0.35594333561E+02  0.36328593672E+02  0.47000000000E+01 0.  1.
         -5    1    1    2    0  503 -0.30325755180E+01  0.46393558036E+01  0.12548654120E+02  0.14500995027E+02  0.47000000000E+01 0. -1.
<mgrwt>
<rscale>  2 0.72670583E+01</rscale>
<asrwt>0</asrwt>
<pdfrwt beam="1">  1       21 0.76132737E-02 0.72670583E+01</pdfrwt>
<pdfrwt beam="2">  1       21 0.20666166E-03 0.72670583E+01</pdfrwt>
<totfact> 0.17025120E+09</totfact>
</mgrwt>
</event>
<event>
 4    1  0.3992289E+006  0.7011289E+01  0.7546771E-02  0.2299857E+00
         21   -1    0    0  503  502  0.00000000000E+00  0.00000000000E+00  0.89988951396E+00  0.89988951396E+00  0.00000000000E+00 0. -1.
         21   -1    0    0  501  503 -0.00000000000E+00 -0.00000000000E+00 -0.54827214759E+02  0.54827214759E+02  0.00000000000E+00 0. -1.
          5    1    1    2  501    0 -0.19438832399E+01 -0.48259192800E+01 -0.28647846453E+02  0.29493343068E+02  0.47000000000E+01 0. -1.
         -5    1    1    2    0  502  0.19438832399E+01  0.48259192800E+01 -0.25279478792E+02  0.26233761205E+02  0.47000000000E+01 0. -1.
<mgrwt>
<rscale>  2 0.70112894E+01</rscale>
<asrwt>0</asrwt>
<pdfrwt beam="1">  1       21 0.13844447E-03 0.70112894E+01</pdfrwt>
<pdfrwt beam="2">  1       21 0.84349605E-02 0.70112894E+01</pdfrwt>
<totfact> 0.24518081E+09</totfact>
</mgrwt>
</event>
<event>
 4    1  0.3992289E+006  0.7539699E+01  0.7546771E-02  0.2249795E+00
         21   -1    0    0  501  502  0.00000000000E+00  0.00000000000E+00  0.43247071155E+01  0.43247071155E+01  0.00000000000E+00 0. -1.
         21   -1    0    0  502  503 -0.00000000000E+00 -0.00000000000E+00 -0.25044850942E+02  0.25044850942E+02  0.00000000000E+00 0.  1.
          5    1    1    2  501    0  0.48465427769E+01  0.33567969636E+01 -0.23765860481E+00  0.75434437995E+01  0.47000000000E+01 0. -1.
         -5    1    1    2    0  503 -0.48465427769E+01 -0.33567969636E+01 -0.20482485221E+02  0.21826114258E+02  0.47000000000E+01 0.  1.
<mgrwt>
<rscale>  2 0.75396991E+01</rscale>
<asrwt>0</asrwt>
<pdfrwt beam="1">  1       21 0.66533955E-03 0.75396991E+01</pdfrwt>
<pdfrwt beam="2">  1       21 0.38530540E-02 0.75396991E+01</pdfrwt>
<totfact> 0.95493034E+08</totfact>
</mgrwt>
</event>
<event>
 4    1  0.3992289E+006  0.4719221E+01  0.7546771E-02  0.2619512E+00
         21   -1    0    0  501  502  0.00000000000E+00  0.00000000000E+00  0.10617653060E+02  0.10617653060E+02  0.00000000000E+00 0.  1.
         21   -1    0    0  502  503 -0.00000000000E+00 -0.00000000000E+00 -0.15308911609E+02  0.15308911609E+02  0.00000000000E+00 0.  1.
          5    1    1    2  501    0  0.28601809055E+00  0.31502072942E+00  0.96968701258E+01  0.10784263287E+02  0.47000000000E+01 0.  1.
         -5    1    1    2    0  503 -0.28601809055E+00 -0.31502072942E+00 -0.14388128674E+02  0.15142301383E+02  0.47000000000E+01 0.  1.
<mgrwt>
<rscale>  2 0.47192207E+01</rscale>
<asrwt>0</asrwt>
<pdfrwt beam="1">  1       21 0.16334851E-02 0.47192207E+01</pdfrwt>
<pdfrwt beam="2">  1       21 0.23552172E-02 0.47192207E+01</pdfrwt>
<totfact> 0.37843458E+08</totfact>
</mgrwt>
</event>
<event>
 4    1  0.3992289E+006  0.7125184E+01  0.7546771E-02  0.2288555E+00
         21   -1    0    0  501  502  0.00000000000E+00  0.00000000000E+00  0.14513915671E+03  0.14513915671E+03  0.00000000000E+00 0.  1.
         21   -1    0    0  502  503 -0.00000000000E+00 -0.00000000000E+00 -0.35202744147E+00  0.35202744147E+00  0.00000000000E+00 0.  1.
          5    1    1    2  501    0  0.40697787545E+01 -0.34806823839E+01  0.78192905751E+02  0.78516869263E+02  0.47000000000E+01 0.  1.
         -5    1    1    2    0  503 -0.40697787545E+01  0.34806823839E+01  0.66594223515E+02  0.66974314887E+02  0.47000000000E+01 0.  1.
<mgrwt>
<rscale>  2 0.71251841E+01</rscale>
<asrwt>0</asrwt>
<pdfrwt beam="1">  1       21 0.22329053E-01 0.71251841E+01</pdfrwt>
<pdfrwt beam="2">  1       21 0.54158184E-04 0.71251841E+01</pdfrwt>
<totfact> 0.18831708E+09</totfact>
</mgrwt>
</event>
<event>
 4    1  0.3992289E+006  0.2038937E+02  0.7546771E-02  0.1737694E+00
         21   -1    0    0  501  502  0.00000000000E+00  0.00000000000E+00  0.42104222372E+02  0.42104222372E+02  0.00000000000E+00 0. -1.
         21   -1    0    0  502  503 -0.00000000000E+00 -0.00000000000E+00 -0.12067847817E+02  0.12067847817E+02  0.00000000000E+00 0.  1.
          5    1    1    2  501    0  0.73477027311E+01 -0.18429537739E+02  0.34688133049E+01  0.20682341802E+02  0.47000000000E+01 0.  1.
         -5    1    1    2    0  503 -0.73477027311E+01  0.18429537739E+02  0.26567561249E+02  0.33489728387E+02  0.47000000000E+01 0. -1.
<mgrwt>
<rscale>  2 0.20389375E+02</rscale>
<asrwt>0</asrwt>
<pdfrwt beam="1">  1       21 0.64775726E-02 0.20389375E+02</pdfrwt>
<pdfrwt beam="2">  1       21 0.18565920E-02 0.20389375E+02</pdfrwt>
<totfact> 0.15298640E+08</totfact>
</mgrwt>
</event>
<event>
 4    1  0.3992289E+006  0.7553319E+01  0.7546771E-02  0.2248580E+00
         21   -1    0    0  501  502  0.00000000000E+00  0.00000000000E+00  0.35337027600E+02  0.35337027600E+02  0.00000000000E+00 0.  1.
         21   -1    0    0  502  503 -0.00000000000E+00 -0.00000000000E+00 -0.22391678847E+01  0.22391678847E+01  0.00000000000E+00 0. -1.
          5    1    1    2  501    0 -0.51705924515E+01 -0.28683806190E+01  0.26472186161E+02  0.27528699094E+02  0.47000000000E+01 0.  1.
         -5    1    1    2    0  503  0.51705924515E+01  0.28683806190E+01  0.66256735550E+01  0.10047496391E+02  0.47000000000E+01 0. -1.
<mgrwt>
<rscale>  2 0.75533194E+01</rscale>
<asrwt>0</asrwt>
<pdfrwt beam="1">  1       21 0.54364654E-02 0.75533194E+01</pdfrwt>
<pdfrwt beam="2">  1       21 0.34448739E-03 0.75533194E+01</pdfrwt>
<totfact> 0.14392198E+09</totfact>
</mgrwt>
</event>
<event>
 4    1  0.3992289E+006  0.1526495E+02  0.7546771E-02  0.1860089E+00
         21   -1    0    0  503  502  0.00000000000E+00  0.00000000000E+00  0.20796632007E+02  0.20796632007E+02  0.00000000000E+00 0.  1.
         21   -1    0    0  501  503 -0.00000000000E+00 -0.00000000000E+00 -0.21437494778E+02  0.21437494778E+02  0.00000000000E+00 0. -1.
          5    1    1    2  501    0 -0.20810666896E+01 -0.14373512864E+02 -0.14910084924E+02  0.21338447531E+02  0.47000000000E+01 0. -1.
         -5    1    1    2    0  502  0.20810666896E+01  0.14373512864E+02  0.14269222153E+02  0.20895679254E+02  0.47000000000E+01 0.  1.
<mgrwt>
<rscale>  2 0.15264950E+02</rscale>
<asrwt>0</asrwt>
<pdfrwt beam="1">  1       21 0.31994819E-02 0.15264950E+02</pdfrwt>
<pdfrwt beam="2">  1       21 0.32980761E-02 0.15264950E+02</pdfrwt>
<totfact> 0.17334399E+08</totfact>
</mgrwt>
</event>
<event>
 4    1  0.3992289E+006  0.5787431E+01  0.7546771E-02  0.2443939E+00
         21   -1    0    0  501  502  0.00000000000E+00  0.00000000000E+00  0.16958952707E+03  0.16958952707E+03  0.00000000000E+00 0.  1.
         21   -1    0    0  502  503 -0.00000000000E+00 -0.00000000000E+00 -0.21455384346E+00  0.21455384346E+00  0.00000000000E+00 0. -1.
          5    1    1    2  501    0  0.29691506840E+01 -0.16088821451E+01  0.60752723607E+02  0.61027762397E+02  0.47000000000E+01 0. -1.
         -5    1    1    2    0  503 -0.29691506840E+01  0.16088821451E+01  0.10862224962E+03  0.10877631852E+03  0.47000000000E+01 0. -1.
<mgrwt>
<rscale>  2 0.57874310E+01</rscale>
<asrwt>0</asrwt>
<pdfrwt beam="1">  1       21 0.26090589E-01 0.57874310E+01</pdfrwt>
<pdfrwt beam="2">  1       21 0.33008419E-04 0.57874310E+01</pdfrwt>
<totfact> 0.24101583E+09</totfact>
</mgrwt>
</event>
<event>
 4    1  0.3992289E+006  0.1528540E+02  0.7546771E-02  0.1859482E+00
         21   -1    0    0  503  502  0.00000000000E+00  0.00000000000E+00  0.27393874245E+03  0.27393874245E+03  0.00000000000E+00 0.  1.
         21   -1    0    0  501  503 -0.00000000000E+00 -0.00000000000E+00 -0.18226883821E+01  0.18226883821E+01  0.00000000000E+00 0. -1.
          5    1    1    2  501    0 -0.14327988576E+02 -0.25024528917E+01  0.35484230471E+02  0.38636435385E+02  0.47000000000E+01 0.  1.
         -5    1    1    2    0  502  0.14327988576E+02  0.25024528917E+01  0.23663182359E+03  0.23712499544E+03  0.47000000000E+01 0.  1.
<mgrwt>
<rscale>  2 0.15285402E+02</rscale>
<asrwt>0</asrwt>
<pdfrwt beam="1">  1       21 0.42144389E-01 0.15285402E+02</pdfrwt>
<pdfrwt beam="2">  1       21 0.28041381E-03 0.15285402E+02</pdfrwt>
<totfact> 0.92445187E+07</totfact>
</mgrwt>
</event>
<event>
 4    1  0.3992289E+006  0.7017336E+01  0.7546771E-02  0.2299250E+00
         21   -1    0    0  501  502  0.00000000000E+00  0.00000000000E+00  0.38030105459E+01  0.38030105459E+01  0.00000000000E+00 0.  1.
         21   -1    0    0  502  503 -0.00000000000E+00 -0.00000000000E+00 -0.18854917893E+02  0.18854917893E+02  0.00000000000E+00 0. -1.
          5    1    1    2  501    0 -0.10902318423E+01  0.50955272294E+01 -0.11851739894E+01  0.71167155768E+01  0.47000000000E+01 0.  1.
         -5    1    1    2    0  503  0.10902318423E+01 -0.50955272294E+01 -0.13866733358E+02  0.15541212863E+02  0.47000000000E+01 0.  1.
<mgrwt>
<rscale>  2 0.70173359E+01</rscale>
<asrwt>0</asrwt>
<pdfrwt beam="1">  1       21 0.58507856E-03 0.70173359E+01</pdfrwt>
<pdfrwt beam="2">  1       21 0.29007565E-02 0.70173359E+01</pdfrwt>
<totfact> 0.16532568E+09</totfact>
</mgrwt>
</event>
<event>
 4    1  0.3992289E+006  0.1146971E+02  0.7546771E-02  0.1999879E+00
         21   -1    0    0  503  502  0.00000000000E+00  0.00000000000E+00  0.18964947681E+03  0.18964947681E+03  0.00000000000E+00 0. -1.
         21   -1    0    0  501  503 -0.00000000000E+00 -0.00000000000E+00 -0.90464114698E+01  0.90464114698E+01  0.00000000000E+00 0. -1.
          5    1    1    2  501    0  0.86266509233E+01  0.59198975147E+01 -0.51614976619E+01  0.12577573329E+02  0.47000000000E+01 0. -1.
         -5    1    1    2    0  502 -0.86266509233E+01 -0.59198975147E+01  0.18576456301E+03  0.18611831496E+03  0.47000000000E+01 0. -1.
<mgrwt>
<rscale>  2 0.11469712E+02</rscale>
<asrwt>0</asrwt>
<pdfrwt beam="1">  1       21 0.29176840E-01 0.11469712E+02</pdfrwt>
<pdfrwt beam="2">  1       21 0.13917557E-02 0.11469712E+02</pdfrwt>
<totfact> 0.15964651E+07</totfact>
</mgrwt>
</event>
<event>
 4    1  0.3992289E+006  0.8046022E+01  0.7546771E-02  0.2206897E+00
         21   -1    0    0  501  502  0.00000000000E+00  0.00000000000E+00  0.12944549007E+01  0.12944549007E+01  0.00000000000E+00 0.  1.
         21   -1    0    0  502  503 -0.00000000000E+00 -0.00000000000E+00 -0.53670123967E+02  0.53670123967E+02  0.00000000000E+00 0. -1.
          5    1    1    2  501    0 -0.65286701778E+01 -0.15792757724E+00 -0.19013084268E+02  0.20645480105E+02  0.47000000000E+01 0.  1.
         -5    1    1    2    0  503  0.65286701778E+01  0.15792757724E+00 -0.33362584798E+02  0.34319098762E+02  0.47000000000E+01 0. -1.
<mgrwt>
<rscale>  2 0.80460223E+01</rscale>
<asrwt>0</asrwt>
<pdfrwt beam="1">  1       21 0.19914692E-03 0.80460223E+01</pdfrwt>
<pdfrwt beam="2">  1       21 0.82569416E-02 0.80460223E+01</pdfrwt>
<totfact> 0.16993499E+09</totfact>
</mgrwt>
</event>
<event>
 4    1  0.3992289E+006  0.5434206E+01  0.7546771E-02  0.2495447E+00
         21   -1    0    0  503  502  0.00000000000E+00  0.00000000000E+00  0.13154948097E+01  0.13154948097E+01  0.00000000000E+00 0. -1.
         21   -1    0    0  501  503 -0.00000000000E+00 -0.00000000000E+00 -0.83328005175E+02  0.83328005175E+02  0.00000000000E+00 0. -1.
          5    1    1    2  501    0 -0.16106453275E+01 -0.22014588245E+01 -0.77180915096E+02  0.77371986238E+02  0.47000000000E+01 0. -1.
         -5    1    1    2    0  502  0.16106453275E+01  0.22014588245E+01 -0.48315952696E+01  0.72715137473E+01  0.47000000000E+01 0. -1.
<mgrwt>
<rscale>  2 0.54342064E+01</rscale>
<asrwt>0</asrwt>
<pdfrwt beam="1">  1       21 0.20238384E-03 0.54342064E+01</pdfrwt>
<pdfrwt beam="2">  1       21 0.12819692E-01 0.54342064E+01</pdfrwt>
<totfact> 0.62829868E+08</totfact>
</mgrwt>
</event>
<event>
 4    1  0.3992289E+006  0.5773329E+01  0.7546771E-02  0.2445893E+00
         21   -1    0    0  501  502  0.00000000000E+00  0.00000000000E+00  0.20027677623E-01  0.20027677623E-01  0.00000000000E+00 0.  1.
         21   -1    0    0  502  503 -0.00000000000E+00 -0.00000000000E+00 -0.16647549642E+04  0.16647549642E+04  0.00000000000E+00 0. -1.
          5    1    1    2  501    0 -0.33454750239E+01  0.22163666160E+00 -0.84667447540E+03  0.84669415884E+03  0.47000000000E+01 0.  1.
         -5    1    1    2    0  503  0.33454750239E+01 -0.22163666160E+00 -0.81806046115E+03  0.81808083306E+03  0.47000000000E+01 0.  1.
<mgrwt>
<rscale>  2 0.57733288E+01</rscale>
<asrwt>0</asrwt>
<pdfrwt beam="1">  1       21 0.30811510E-05 0.57733288E+01</pdfrwt>
<pdfrwt beam="2">  1       21 0.25611865E+00 0.57733288E+01</pdfrwt>
<totfact> 0.65932147E+08</totfact>
</mgrwt>
</event>
<event>
 4    1  0.3992289E+006  0.5030976E+01  0.7546771E-02  0.2561688E+00
         21   -1    0    0  503  502  0.00000000000E+00  0.00000000000E+00  0.10593310661E+03  0.10593310661E+03  0.00000000000E+00 0. -1.
         21   -1    0    0  501  503 -0.00000000000E+00 -0.00000000000E+00 -0.27432172322E+00  0.27432172322E+00  0.00000000000E+00 0. -1.
          5    1    1    2  501    0  0.72317520586E-01 -0.17931782925E+01  0.33755530250E+02  0.34128383212E+02  0.47000000000E+01 0.  1.
         -5    1    1    2    0  502 -0.72317520586E-01  0.17931782925E+01  0.71903254640E+02  0.72079045124E+02  0.47000000000E+01 0.  1.
<mgrwt>
<rscale>  2 0.50309759E+01</rscale>
<asrwt>0</asrwt>
<pdfrwt beam="1">  1       21 0.16297368E-01 0.50309759E+01</pdfrwt>
<pdfrwt beam="2">  1       21 0.42203426E-04 0.50309759E+01</pdfrwt>
<totfact> 0.32657537E+09</totfact>
</mgrwt>
</event>
<event>
 4    1  0.3992289E+006  0.1063295E+02  0.7546771E-02  0.2040660E+00
         21   -1    0    0  501  502  0.00000000000E+00  0.00000000000E+00  0.26141752606E+03  0.26141752606E+03  0.00000000000E+00 0. -1.
         21   -1    0    0  502  503 -0.00000000000E+00 -0.00000000000E+00 -0.16768865648E+01  0.16768865648E+01  0.00000000000E+00 0.  1.
          5    1    1    2  501    0  0.18164934210E+01 -0.93632244831E+01  0.24319115122E+03  0.24342349035E+03  0.47000000000E+01 0. -1.
         -5    1    1    2    0  503 -0.18164934210E+01  0.93632244831E+01  0.16549488273E+02  0.19670922276E+02  0.47000000000E+01 0.  1.
<mgrwt>
<rscale>  2 0.10632950E+02</rscale>
<asrwt>0</asrwt>
<pdfrwt beam="1">  1       21 0.40218049E-01 0.10632950E+02</pdfrwt>
<pdfrwt beam="2">  1       21 0.25798276E-03 0.10632950E+02</pdfrwt>
<totfact> 0.99263148E+07</totfact>
</mgrwt>
</event>
<event>
 4    1  0.3992289E+006  0.6014390E+01  0.7546771E-02  0.2413554E+00
         21   -1    0    0  503  502  0.00000000000E+00  0.00000000000E+00  0.23619493662E+01  0.23619493662E+01  0.00000000000E+00 0. -1.
         21   -1    0    0  501  503 -0.00000000000E+00 -0.00000000000E+00 -0.93798707149E+02  0.93798707149E+02  0.00000000000E+00 0.  1.
          5    1    1    2  501    0  0.34331802900E+00 -0.37369798470E+01 -0.89698779836E+02  0.89900189041E+02  0.47000000000E+01 0.  1.
         -5    1    1    2    0  502 -0.34331802900E+00  0.37369798470E+01 -0.17379779469E+01  0.62604674738E+01  0.47000000000E+01 0. -1.
<mgrwt>
<rscale>  2 0.60143899E+01</rscale>
<asrwt>0</asrwt>
<pdfrwt beam="1">  1       21 0.36337682E-03 0.60143899E+01</pdfrwt>
<pdfrwt beam="2">  1       21 0.14430571E-01 0.60143899E+01</pdfrwt>
<totfact> 0.25334325E+08</totfact>
</mgrwt>
</event>
<event>
 4    1  0.3992289E+006  0.6233638E+01  0.7546771E-02  0.2385972E+00
         21   -1    0    0  503  502  0.00000000000E+00  0.00000000000E+00  0.65458871994E+03  0.65458871994E+03  0.00000000000E+00 0.  1.
         21   -1    0    0  501  503 -0.00000000000E+00 -0.00000000000E+00 -0.68265382653E-01  0.68265382653E-01  0.00000000000E+00 0. -1.
          5    1    1    2  501    0  0.34390011537E+01 -0.22229517911E+01  0.44546653351E+03  0.44551014660E+03  0.47000000000E+01 0.  1.
         -5    1    1    2    0  502 -0.34390011537E+01  0.22229517911E+01  0.20905392105E+03  0.20914683873E+03  0.47000000000E+01 0.  1.
<mgrwt>
<rscale>  2 0.62336381E+01</rscale>
<asrwt>0</asrwt>
<pdfrwt beam="1">  1       21 0.10070093E+00 0.62336381E+01</pdfrwt>
<pdfrwt beam="2">  1       21 0.10502891E-04 0.62336381E+01</pdfrwt>
<totfact> 0.10041753E+09</totfact>
</mgrwt>
</event>
<event>
 4    1  0.3992289E+006  0.5021775E+01  0.7546771E-02  0.2563305E+00
         21   -1    0    0  501  502  0.00000000000E+00  0.00000000000E+00  0.23442898805E+00  0.23442898805E+00  0.00000000000E+00 0.  1.
         21   -1    0    0  502  503 -0.00000000000E+00 -0.00000000000E+00 -0.24226525422E+03  0.24226525422E+03  0.00000000000E+00 0.  1.
          5    1    1    2  501    0  0.60477743347E+00 -0.16620676631E+01 -0.30607392582E+02  0.31016619825E+02  0.47000000000E+01 0.  1.
         -5    1    1    2    0  503 -0.60477743347E+00  0.16620676631E+01 -0.21142343265E+03  0.21148306338E+03  0.47000000000E+01 0.  1.
<mgrwt>
<rscale>  2 0.50217751E+01</rscale>
<asrwt>0</asrwt>
<pdfrwt beam="1">  1       21 0.36065909E-04 0.50217751E+01</pdfrwt>
<pdfrwt beam="2">  1       21 0.37271670E-01 0.50217751E+01</pdfrwt>
<totfact> 0.10446290E+09</totfact>
</mgrwt>
</event>
<event>
 4    1  0.3992289E+006  0.5404647E+01  0.7546771E-02  0.2500015E+00
         21   -1    0    0  503  502  0.00000000000E+00  0.00000000000E+00  0.13862897009E+01  0.13862897009E+01  0.00000000000E+00 0. -1.
         21   -1    0    0  501  503 -0.00000000000E+00 -0.00000000000E+00 -0.22947060896E+02  0.22947060896E+02  0.00000000000E+00 0. -1.
          5    1    1    2  501    0  0.21192313785E+01 -0.16214402979E+01 -0.14259405371E+02  0.15249290207E+02  0.47000000000E+01 0. -1.
         -5    1    1    2    0  502 -0.21192313785E+01  0.16214402979E+01 -0.73013658240E+01  0.90840603901E+01  0.47000000000E+01 0. -1.
<mgrwt>
<rscale>  2 0.54046471E+01</rscale>
<asrwt>0</asrwt>
<pdfrwt beam="1">  1       21 0.21327536E-03 0.54046471E+01</pdfrwt>
<pdfrwt beam="2">  1       21 0.35303168E-02 0.54046471E+01</pdfrwt>
<totfact> 0.39970978E+09</totfact>
</mgrwt>
</event>
<event>
 4    1  0.3992289E+006  0.8411344E+01  0.7546771E-02  0.2178556E+00
         21   -1    0    0  501  502  0.00000000000E+00  0.00000000000E+00  0.14340128349E+01  0.14340128349E+01  0.00000000000E+00 0. -1.
         21   -1    0    0  502  503 -0.00000000000E+00 -0.00000000000E+00 -0.99742734081E+02  0.99742734081E+02  0.00000000000E+00 0. -1.
          5    1    1    2  501    0  0.32446913094E+01  0.61751665010E+01 -0.13192047763E+02  0.15645473057E+02  0.47000000000E+01 0. -1.
         -5    1    1    2    0  503 -0.32446913094E+01 -0.61751665010E+01 -0.85116673483E+02  0.85531273859E+02  0.47000000000E+01 0. -1.
<mgrwt>
<rscale>  2 0.84113437E+01</rscale>
<asrwt>0</asrwt>
<pdfrwt beam="1">  1       21 0.22061734E-03 0.84113437E+01</pdfrwt>
<pdfrwt beam="2">  1       21 0.15345037E-01 0.84113437E+01</pdfrwt>
<totfact> 0.56894635E+08</totfact>
</mgrwt>
</event>
<event>
 4    1  0.3992289E+006  0.7723762E+01  0.7546771E-02  0.2233675E+00
         21   -1    0    0  501  502  0.00000000000E+00  0.00000000000E+00  0.14676828462E+03  0.14676828462E+03  0.00000000000E+00 0. -1.
         21   -1    0    0  502  503 -0.00000000000E+00 -0.00000000000E+00 -0.50249752015E+00  0.50249752015E+00  0.00000000000E+00 0. -1.
          5    1    1    2  501    0 -0.14950394178E+01 -0.59440187552E+01  0.10532309536E+03  0.10560592274E+03  0.47000000000E+01 0. -1.
         -5    1    1    2    0  503  0.14950394178E+01  0.59440187552E+01  0.40942691739E+02  0.41664859398E+02  0.47000000000E+01 0. -1.
<mgrwt>
<rscale>  2 0.77237622E+01</rscale>
<asrwt>0</asrwt>
<pdfrwt beam="1">  1       21 0.22579702E-01 0.77237622E+01</pdfrwt>
<pdfrwt beam="2">  1       21 0.77307428E-04 0.77237622E+01</pdfrwt>
<totfact> 0.12072122E+09</totfact>
</mgrwt>
</event>
<event>
 4    1  0.3992289E+006  0.6368641E+01  0.7546771E-02  0.2369779E+00
         21   -1    0    0  503  502  0.00000000000E+00  0.00000000000E+00  0.44700355350E+01  0.44700355350E+01  0.00000000000E+00 0.  1.
         21   -1    0    0  501  503 -0.00000000000E+00 -0.00000000000E+00 -0.19022980366E+02  0.19022980366E+02  0.00000000000E+00 0. -1.
          5    1    1    2  501    0 -0.68502722814E+00  0.42426784739E+01 -0.15771527578E+02  0.17008840791E+02  0.47000000000E+01 0. -1.
         -5    1    1    2    0  502  0.68502722814E+00 -0.42426784739E+01  0.12185827469E+01  0.64841751092E+01  0.47000000000E+01 0.  1.
<mgrwt>
<rscale>  2 0.63686406E+01</rscale>
<asrwt>0</asrwt>
<pdfrwt beam="1">  1       21 0.68769778E-03 0.63686406E+01</pdfrwt>
<pdfrwt beam="2">  1       21 0.29266123E-02 0.63686406E+01</pdfrwt>
<totfact> 0.12063979E+09</totfact>
</mgrwt>
</event>
<event>
 4    1  0.3992289E+006  0.6336612E+01  0.7546771E-02  0.2373569E+00
         21   -1    0    0  501  502  0.00000000000E+00  0.00000000000E+00  0.39974556364E+01  0.39974556364E+01  0.00000000000E+00 0. -1.
         21   -1    0    0  502  503 -0.00000000000E+00 -0.00000000000E+00 -0.13064944477E+02  0.13064944477E+02  0.00000000000E+00 0.  1.
          5    1    1    2  501    0 -0.38586904634E+01 -0.17813353437E+01 -0.43181586804E+00  0.63513079474E+01  0.47000000000E+01 0. -1.
         -5    1    1    2    0  503  0.38586904634E+01  0.17813353437E+01 -0.86356729724E+01  0.10711092166E+02  0.47000000000E+01 0.  1.
<mgrwt>
<rscale>  2 0.63366117E+01</rscale>
<asrwt>0</asrwt>
<pdfrwt beam="1">  1       21 0.61499317E-03 0.63366117E+01</pdfrwt>
<pdfrwt beam="2">  1       21 0.20099915E-02 0.63366117E+01</pdfrwt>
<totfact> 0.24226846E+09</totfact>
</mgrwt>
</event>
<event>
 4    1  0.3992289E+006  0.1222954E+02  0.7546771E-02  0.1966645E+00
         21   -1    0    0  501  502  0.00000000000E+00  0.00000000000E+00  0.38644705852E+01  0.38644705852E+01  0.00000000000E+00 0.  1.
         21   -1    0    0  502  503 -0.00000000000E+00 -0.00000000000E+00 -0.50079196001E+02  0.50079196001E+02  0.00000000000E+00 0. -1.
          5    1    1    2  501    0 -0.94154592954E+01 -0.62306334021E+01 -0.35963328802E+02  0.37985822155E+02  0.47000000000E+01 0. -1.
         -5    1    1    2    0  503  0.94154592954E+01  0.62306334021E+01 -0.10251396614E+02  0.15957844431E+02  0.47000000000E+01 0.  1.
<mgrwt>
<rscale>  2 0.12229541E+02</rscale>
<asrwt>0</asrwt>
<pdfrwt beam="1">  1       21 0.59453395E-03 0.12229541E+02</pdfrwt>
<pdfrwt beam="2">  1       21 0.77044915E-02 0.12229541E+02</pdfrwt>
<totfact> 0.51291602E+08</totfact>
</mgrwt>
</event>
<event>
 4    1  0.3992289E+006  0.4923193E+01  0.7546771E-02  0.2580962E+00
         21   -1    0    0  501  502  0.00000000000E+00  0.00000000000E+00  0.27659444374E+01  0.27659444374E+01  0.00000000000E+00 0. -1.
         21   -1    0    0  502  503 -0.00000000000E+00 -0.00000000000E+00 -0.25588347781E+02  0.25588347781E+02  0.00000000000E+00 0.  1.
          5    1    1    2  501    0 -0.36781479620E+00 -0.14186412901E+01  0.84894076507E-01  0.49239250440E+01  0.47000000000E+01 0. -1.
         -5    1    1    2    0  503  0.36781479620E+00  0.14186412901E+01 -0.22907297420E+02  0.23430367174E+02  0.47000000000E+01 0.  1.
<mgrwt>
<rscale>  2 0.49231932E+01</rscale>
<asrwt>0</asrwt>
<pdfrwt beam="1">  1       21 0.42552990E-03 0.49231932E+01</pdfrwt>
<pdfrwt beam="2">  1       21 0.39366690E-02 0.49231932E+01</pdfrwt>
<totfact> 0.12169959E+09</totfact>
</mgrwt>
</event>
<event>
 4    1  0.3992289E+006  0.4861928E+01  0.7546771E-02  0.2592246E+00
         21   -1    0    0  503  502  0.00000000000E+00  0.00000000000E+00  0.75171308904E+01  0.75171308904E+01  0.00000000000E+00 0. -1.
         21   -1    0    0  501  503 -0.00000000000E+00 -0.00000000000E+00 -0.13614183505E+02  0.13614183505E+02  0.00000000000E+00 0. -1.
          5    1    1    2  501    0  0.12370049910E+01 -0.13478304729E+00 -0.12313954168E+02  0.13239026213E+02  0.47000000000E+01 0. -1.
         -5    1    1    2    0  502 -0.12370049910E+01  0.13478304729E+00  0.62169015538E+01  0.78922881820E+01  0.47000000000E+01 0. -1.
<mgrwt>
<rscale>  2 0.48619284E+01</rscale>
<asrwt>0</asrwt>
<pdfrwt beam="1">  1       21 0.11564817E-02 0.48619284E+01</pdfrwt>
<pdfrwt beam="2">  1       21 0.20944898E-02 0.48619284E+01</pdfrwt>
<totfact> 0.74526545E+08</totfact>
</mgrwt>
</event>
<event>
 4    1  0.3992289E+006  0.6593255E+01  0.7546771E-02  0.2344064E+00
         21   -1    0    0  501  502  0.00000000000E+00  0.00000000000E+00  0.17081190519E+02  0.17081190519E+02  0.00000000000E+00 0. -1.
         21   -1    0    0  502  503 -0.00000000000E+00 -0.00000000000E+00 -0.42965553546E+01  0.42965553546E+01  0.00000000000E+00 0.  1.
          5    1    1    2  501    0  0.38523601562E+01 -0.25574071820E+01  0.13217089457E+02  0.14770323760E+02  0.47000000000E+01 0. -1.
         -5    1    1    2    0  503 -0.38523601562E+01  0.25574071820E+01 -0.43245429266E+00  0.66074221133E+01  0.47000000000E+01 0.  1.
<mgrwt>
<rscale>  2 0.65932549E+01</rscale>
<asrwt>0</asrwt>
<pdfrwt beam="1">  1       21 0.26278754E-02 0.65932549E+01</pdfrwt>
<pdfrwt beam="2">  1       21 0.66100852E-03 0.65932549E+01</pdfrwt>
<totfact> 0.15340775E+09</totfact>
</mgrwt>
</event>
<event>
 4    1  0.3992289E+006  0.1000623E+02  0.7546771E-02  0.2074634E+00
         21   -1    0    0  501  502  0.00000000000E+00  0.00000000000E+00  0.13195719590E+01  0.13195719590E+01  0.00000000000E+00 0.  1.
         21   -1    0    0  502  503 -0.00000000000E+00 -0.00000000000E+00 -0.21947282676E+03  0.21947282676E+03  0.00000000000E+00 0. -1.
          5    1    1    2  501    0 -0.76774507084E+01  0.43693593130E+01 -0.19779938995E+02  0.22166879276E+02  0.47000000000E+01 0.  1.
         -5    1    1    2    0  503  0.76774507084E+01 -0.43693593130E+01 -0.19837331581E+03  0.19862551944E+03  0.47000000000E+01 0. -1.
<mgrwt>
<rscale>  2 0.10006226E+02</rscale>
<asrwt>0</asrwt>
<pdfrwt beam="1">  1       21 0.20301120E-03 0.10006226E+02</pdfrwt>
<pdfrwt beam="2">  1       21 0.33765029E-01 0.10006226E+02</pdfrwt>
<totfact> 0.18508438E+08</totfact>
</mgrwt>
</event>
<event>
 4    1  0.3992289E+006  0.6558202E+01  0.7546771E-02  0.2347981E+00
         21   -1    0    0  503  502  0.00000000000E+00  0.00000000000E+00  0.40687003372E+02  0.40687003372E+02  0.00000000000E+00 0. -1.
         21   -1    0    0  501  503 -0.00000000000E+00 -0.00000000000E+00 -0.27342101952E+01  0.27342101952E+01  0.00000000000E+00 0. -1.
          5    1    1    2  501    0 -0.16954239143E+01  0.42480054360E+01  0.19729285922E+01  0.68485370455E+01  0.47000000000E+01 0. -1.
         -5    1    1    2    0  502  0.16954239143E+01 -0.42480054360E+01  0.35979864585E+02  0.36572676522E+02  0.47000000000E+01 0. -1.
<mgrwt>
<rscale>  2 0.65582019E+01</rscale>
<asrwt>0</asrwt>
<pdfrwt beam="1">  1       21 0.62595385E-02 0.65582019E+01</pdfrwt>
<pdfrwt beam="2">  1       21 0.42064775E-03 0.65582019E+01</pdfrwt>
<totfact> 0.79551715E+08</totfact>
</mgrwt>
</event>
<event>
 4    1  0.3992289E+006  0.9709475E+01  0.7546771E-02  0.2091909E+00
         21   -1    0    0  501  502  0.00000000000E+00  0.00000000000E+00  0.17950356054E+02  0.17950356054E+02  0.00000000000E+00 0. -1.
         21   -1    0    0  502  503 -0.00000000000E+00 -0.00000000000E+00 -0.86763609001E+01  0.86763609001E+01  0.00000000000E+00 0.  1.
          5    1    1    2  501    0 -0.32642807946E+01 -0.78440023662E+01  0.13000985909E+02  0.16226507229E+02  0.47000000000E+01 0. -1.
         -5    1    1    2    0  503  0.32642807946E+01  0.78440023662E+01 -0.37269907560E+01  0.10400209725E+02  0.47000000000E+01 0.  1.
<mgrwt>
<rscale>  2 0.97094749E+01</rscale>
<asrwt>0</asrwt>
<pdfrwt beam="1">  1       21 0.27615932E-02 0.97094749E+01</pdfrwt>
<pdfrwt beam="2">  1       21 0.13348248E-02 0.97094749E+01</pdfrwt>
<totfact> 0.67694151E+08</totfact>
</mgrwt>
</event>
<event>
 4    1  0.3992289E+006  0.8756914E+01  0.7546771E-02  0.2153504E+00
         21   -1    0    0  503  502  0.00000000000E+00  0.00000000000E+00  0.10839767210E+02  0.10839767210E+02  0.00000000000E+00 0.  1.
         21   -1    0    0  501  503 -0.00000000000E+00 -0.00000000000E+00 -0.15342432850E+02  0.15342432850E+02  0.00000000000E+00 0.  1.
          5    1    1    2  501    0 -0.40658909475E+01 -0.61694467083E+01 -0.11861551936E+02  0.14743810777E+02  0.47000000000E+01 0.  1.
         -5    1    1    2    0  502  0.40658909475E+01  0.61694467083E+01  0.73588862960E+01  0.11438389284E+02  0.47000000000E+01 0.  1.
<mgrwt>
<rscale>  2 0.87569139E+01</rscale>
<asrwt>0</asrwt>
<pdfrwt beam="1">  1       21 0.16676565E-02 0.87569139E+01</pdfrwt>
<pdfrwt beam="2">  1       21 0.23603743E-02 0.87569139E+01</pdfrwt>
<totfact> 0.58052890E+08</totfact>
</mgrwt>
</event>
<event>
 4    1  0.3992289E+006  0.7247813E+01  0.7546771E-02  0.2276713E+00
         21   -1    0    0  501  502  0.00000000000E+00  0.00000000000E+00  0.59357833287E+01  0.59357833287E+01  0.00000000000E+00 0. -1.
         21   -1    0    0  502  503 -0.00000000000E+00 -0.00000000000E+00 -0.17755687936E+02  0.17755687936E+02  0.00000000000E+00 0. -1.
          5    1    1    2  501    0 -0.54066914109E+01  0.10993097350E+01  0.24794432342E+01  0.76601848971E+01  0.47000000000E+01 0. -1.
         -5    1    1    2    0  503  0.54066914109E+01 -0.10993097350E+01 -0.14299347842E+02  0.16031286368E+02  0.47000000000E+01 0. -1.
<mgrwt>
<rscale>  2 0.72478130E+01</rscale>
<asrwt>0</asrwt>
<pdfrwt beam="1">  1       21 0.91319745E-03 0.72478130E+01</pdfrwt>
<pdfrwt beam="2">  1       21 0.27316442E-02 0.72478130E+01</pdfrwt>
<totfact> 0.98479586E+08</totfact>
</mgrwt>
</event>
<event>
 4    1  0.3992289E+006  0.6542573E+01  0.7546771E-02  0.2349738E+00
         21   -1    0    0  503  502  0.00000000000E+00  0.00000000000E+00  0.31189617774E+01  0.31189617774E+01  0.00000000000E+00 0. -1.
         21   -1    0    0  501  503 -0.00000000000E+00 -0.00000000000E+00 -0.14419509887E+02  0.14419509887E+02  0.00000000000E+00 0. -1.
          5    1    1    2  501    0 -0.38731759027E-01 -0.45512379320E+01 -0.75759115658E+01  0.10009980166E+02  0.47000000000E+01 0.  1.
         -5    1    1    2    0  502  0.38731759027E-01  0.45512379320E+01 -0.37246365437E+01  0.75284914987E+01  0.47000000000E+01 0.  1.
<mgrwt>
<rscale>  2 0.65425734E+01</rscale>
<asrwt>0</asrwt>
<pdfrwt beam="1">  1       21 0.47984028E-03 0.65425734E+01</pdfrwt>
<pdfrwt beam="2">  1       21 0.22183861E-02 0.65425734E+01</pdfrwt>
<totfact> 0.30534761E+09</totfact>
</mgrwt>
</event>
<event>
 4    1  0.3992289E+006  0.6489189E+01  0.7546771E-02  0.2355794E+00
         21   -1    0    0  501  502  0.00000000000E+00  0.00000000000E+00  0.23113496574E+02  0.23113496574E+02  0.00000000000E+00 0.  1.
         21   -1    0    0  502  503 -0.00000000000E+00 -0.00000000000E+00 -0.23255538407E+01  0.23255538407E+01  0.00000000000E+00 0. -1.
          5    1    1    2  501    0  0.43511370267E+01  0.10426819419E+01  0.16313546947E+02  0.17556804751E+02  0.47000000000E+01 0.  1.
         -5    1    1    2    0  503 -0.43511370267E+01 -0.10426819419E+01  0.44743957862E+01  0.78822456641E+01  0.47000000000E+01 0. -1.
<mgrwt>
<rscale>  2 0.64891894E+01</rscale>
<asrwt>0</asrwt>
<pdfrwt beam="1">  1       21 0.35559224E-02 0.64891894E+01</pdfrwt>
<pdfrwt beam="2">  1       21 0.35777753E-03 0.64891894E+01</pdfrwt>
<totfact> 0.22907768E+09</totfact>
</mgrwt>
</event>
<event>
 4    1  0.3992289E+006  0.8252816E+01  0.7546771E-02  0.2190607E+00
         21   -1    0    0  503  502  0.00000000000E+00  0.00000000000E+00  0.66970680278E+00  0.66970680278E+00  0.00000000000E+00 0. -1.
         21   -1    0    0  501  503 -0.00000000000E+00 -0.00000000000E+00 -0.17459923527E+03  0.17459923527E+03  0.00000000000E+00 0.  1.
          5    1    1    2  501    0 -0.67741685978E+01 -0.36002472559E+00 -0.14359080456E+03  0.14382777246E+03  0.47000000000E+01 0.  1.
         -5    1    1    2    0  502  0.67741685978E+01  0.36002472559E+00 -0.30338723905E+02  0.31441169605E+02  0.47000000000E+01 0. -1.
<mgrwt>
<rscale>  2 0.82528164E+01</rscale>
<asrwt>0</asrwt>
<pdfrwt beam="1">  1       21 0.10303178E-03 0.82528164E+01</pdfrwt>
<pdfrwt beam="2">  1       21 0.26861430E-01 0.82528164E+01</pdfrwt>
<totfact> 0.63513525E+08</totfact>
</mgrwt>
</event>
<event>
 4    1  0.3992289E+006  0.1420409E+02  0.7546771E-02  0.1893374E+00
         21   -1    0    0  503  502  0.00000000000E+00  0.00000000000E+00  0.19658130684E+02  0.19658130684E+02  0.00000000000E+00 0.  1.
         21   -1    0    0  501  503 -0.00000000000E+00 -0.00000000000E+00 -0.22082210576E+02  0.22082210576E+02  0.00000000000E+00 0. -1.
          5    1    1    2  501    0  0.37059283250E+01 -0.12881472973E+02 -0.16480471392E+02  0.21756888288E+02  0.47000000000E+01 0. -1.
         -5    1    1    2    0  502 -0.37059283250E+01  0.12881472973E+02  0.14056391499E+02  0.19983452972E+02  0.47000000000E+01 0.  1.
<mgrwt>
<rscale>  2 0.14204093E+02</rscale>
<asrwt>0</asrwt>
<pdfrwt beam="1">  1       21 0.30243278E-02 0.14204093E+02</pdfrwt>
<pdfrwt beam="2">  1       21 0.33972632E-02 0.14204093E+02</pdfrwt>
<totfact> 0.17557016E+08</totfact>
</mgrwt>
</event>
<event>
 4    1  0.3992289E+006  0.5330113E+01  0.7546771E-02  0.2511725E+00
         21   -1    0    0  501  502  0.00000000000E+00  0.00000000000E+00  0.33596276309E+00  0.33596276309E+00  0.00000000000E+00 0. -1.
         21   -1    0    0  502  503 -0.00000000000E+00 -0.00000000000E+00 -0.84850019752E+02  0.84850019752E+02  0.00000000000E+00 0. -1.
          5    1    1    2  501    0  0.89012282735E+00 -0.23511255028E+01 -0.44733103773E+02  0.45049535879E+02  0.47000000000E+01 0. -1.
         -5    1    1    2    0  503 -0.89012282735E+00  0.23511255028E+01 -0.39780953216E+02  0.40136446636E+02  0.47000000000E+01 0. -1.
<mgrwt>
<rscale>  2 0.53301135E+01</rscale>
<asrwt>0</asrwt>
<pdfrwt beam="1">  1       21 0.51686530E-04 0.53301135E+01</pdfrwt>
<pdfrwt beam="2">  1       21 0.13053861E-01 0.53301135E+01</pdfrwt>
<totfact> 0.37259017E+09</totfact>
</mgrwt>
</event>
<event>
 4    1  0.3992289E+006  0.4825101E+01  0.7546771E-02  0.2599148E+00
         21   -1    0    0  503  502  0.00000000000E+00  0.00000000000E+00  0.84315671433E+03  0.84315671433E+03  0.00000000000E+00 0.  1.
         21   -1    0    0  501  503 -0.00000000000E+00 -0.00000000000E+00 -0.35968575343E-01  0.35968575343E-01  0.00000000000E+00 0.  1.
          5    1    1    2  501    0  0.20034261178E+00 -0.10730615756E+01  0.21835347904E+03  0.21840678425E+03  0.47000000000E+01 0.  1.
         -5    1    1    2    0  502 -0.20034261178E+00  0.10730615756E+01  0.62476726671E+03  0.62478589865E+03  0.47000000000E+01 0.  1.
<mgrwt>
<rscale>  2 0.48251009E+01</rscale>
<asrwt>0</asrwt>
<pdfrwt beam="1">  1       21 0.12970059E+00 0.48251009E+01</pdfrwt>
<pdfrwt beam="2">  1       21 0.55343023E-05 0.48251009E+01</pdfrwt>
<totfact> 0.11682701E+09</totfact>
</mgrwt>
</event>
<event>
 4    1  0.3992289E+006  0.5143961E+01  0.7546771E-02  0.2542232E+00
         21   -1    0    0  501  502  0.00000000000E+00  0.00000000000E+00  0.51452183635E+03  0.51452183635E+03  0.00000000000E+00 0.  1.
         21   -1    0    0  502  503 -0.00000000000E+00 -0.00000000000E+00 -0.21827129659E+00  0.21827129659E+00  0.00000000000E+00 0.  1.
          5    1    1    2  501    0  0.83698439130E+00  0.19156691192E+01  0.48216878757E+03  0.48219622566E+03  0.47000000000E+01 0.  1.
         -5    1    1    2    0  503 -0.83698439130E+00 -0.19156691192E+01  0.32134777477E+02  0.32543881984E+02  0.47000000000E+01 0.  1.
<mgrwt>
<rscale>  2 0.51439606E+01</rscale>
<asrwt>0</asrwt>
<pdfrwt beam="1">  1       21 0.79156235E-01 0.51439606E+01</pdfrwt>
<pdfrwt beam="2">  1       21 0.33580611E-04 0.51439606E+01</pdfrwt>
<totfact> 0.30081030E+08</totfact>
</mgrwt>
</event>
<event>
 4    1  0.3992289E+006  0.6463595E+01  0.7546771E-02  0.2358728E+00
         21   -1    0    0  501  502  0.00000000000E+00  0.00000000000E+00  0.90000493796E+01  0.90000493796E+01  0.00000000000E+00 0. -1.
         21   -1    0    0  502  503 -0.00000000000E+00 -0.00000000000E+00 -0.50190808561E+01  0.50190808561E+01  0.00000000000E+00 0. -1.
          5    1    1    2  501    0 -0.42495549226E+01 -0.12764571713E+01  0.39118367676E+01  0.75551655738E+01  0.47000000000E+01 0. -1.
         -5    1    1    2    0  503  0.42495549226E+01  0.12764571713E+01  0.69131755943E-01  0.64639646619E+01  0.47000000000E+01 0. -1.
<mgrwt>
<rscale>  2 0.64635950E+01</rscale>
<asrwt>0</asrwt>
<pdfrwt beam="1">  1       21 0.13846230E-02 0.64635950E+01</pdfrwt>
<pdfrwt beam="2">  1       21 0.77216629E-03 0.64635950E+01</pdfrwt>
<totfact> 0.30558002E+09</totfact>
</mgrwt>
</event>
<event>
 4    1  0.3992289E+006  0.6522171E+01  0.7546771E-02  0.2352043E+00
         21   -1    0    0  501  502  0.00000000000E+00  0.00000000000E+00  0.44855796091E+01  0.44855796091E+01  0.00000000000E+00 0. -1.
         21   -1    0    0  502  503 -0.00000000000E+00 -0.00000000000E+00 -0.19706145398E+02  0.19706145398E+02  0.00000000000E+00 0.  1.
          5    1    1    2  501    0  0.54447429656E+00  0.44891267196E+01  0.11017396297E+01  0.66145703697E+01  0.47000000000E+01 0. -1.
         -5    1    1    2    0  503 -0.54447429656E+00 -0.44891267196E+01 -0.16322305419E+02  0.17577154637E+02  0.47000000000E+01 0.  1.
<mgrwt>
<rscale>  2 0.65221707E+01</rscale>
<asrwt>0</asrwt>
<pdfrwt beam="1">  1       21 0.69008919E-03 0.65221707E+01</pdfrwt>
<pdfrwt beam="2">  1       21 0.30317146E-02 0.65221707E+01</pdfrwt>
<totfact> 0.11621343E+09</totfact>
</mgrwt>
</event>
<event>
 4    1  0.3992289E+006  0.9225307E+01  0.7546771E-02  0.2121957E+00
         21   -1    0    0  503  502  0.00000000000E+00  0.00000000000E+00  0.95405525726E+01  0.95405525726E+01  0.00000000000E+00 0.  1.
         21   -1    0    0  501  503 -0.00000000000E+00 -0.00000000000E+00 -0.91459352603E+01  0.91459352603E+01  0.00000000000E+00 0.  1.
          5    1    1    2  501    0  0.79376613883E+01  0.99109422490E-01 -0.12696422180E+01  0.93122651570E+01  0.47000000000E+01 0.  1.
         -5    1    1    2    0  502 -0.79376613883E+01 -0.99109422490E-01  0.16642595303E+01  0.93742226759E+01  0.47000000000E+01 0.  1.
<mgrwt>
<rscale>  2 0.92253071E+01</rscale>
<asrwt>0</asrwt>
<pdfrwt beam="1">  1       21 0.14677773E-02 0.92253071E+01</pdfrwt>
<pdfrwt beam="2">  1       21 0.14070670E-02 0.92253071E+01</pdfrwt>
<totfact> 0.15442123E+09</totfact>
</mgrwt>
</event>
<event>
 4    1  0.3992289E+006  0.5363378E+01  0.7546771E-02  0.2506465E+00
         21   -1    0    0  501  502  0.00000000000E+00  0.00000000000E+00  0.33363256048E+02  0.33363256048E+02  0.00000000000E+00 0.  1.
         21   -1    0    0  502  503 -0.00000000000E+00 -0.00000000000E+00 -0.16989034366E+02  0.16989034366E+02  0.00000000000E+00 0.  1.
          5    1    1    2  501    0  0.21119830559E+01 -0.14884069530E+01  0.32716087991E+02  0.33152801406E+02  0.47000000000E+01 0.  1.
         -5    1    1    2    0  503 -0.21119830559E+01  0.14884069530E+01 -0.16341866308E+02  0.17199489007E+02  0.47000000000E+01 0.  1.
<mgrwt>
<rscale>  2 0.53633784E+01</rscale>
<asrwt>0</asrwt>
<pdfrwt beam="1">  1       21 0.51328086E-02 0.53633784E+01</pdfrwt>
<pdfrwt beam="2">  1       21 0.26136976E-02 0.53633784E+01</pdfrwt>
<totfact> 0.70043743E+07</totfact>
</mgrwt>
</event>
<event>
 4    1  0.3992289E+006  0.8307268E+01  0.7546771E-02  0.2186426E+00
         21   -1    0    0  503  502  0.00000000000E+00  0.00000000000E+00  0.27314115500E+02  0.27314115500E+02  0.00000000000E+00 0. -1.
         21   -1    0    0  501  503 -0.00000000000E+00 -0.00000000000E+00 -0.13469558016E+02  0.13469558016E+02  0.00000000000E+00 0.  1.
          5    1    1    2  501    0  0.30886217423E+01 -0.61140104580E+01 -0.11457821054E+02  0.14152468740E+02  0.47000000000E+01 0.  1.
         -5    1    1    2    0  502 -0.30886217423E+01  0.61140104580E+01  0.25302378537E+02  0.26631204775E+02  0.47000000000E+01 0. -1.
<mgrwt>
<rscale>  2 0.83072684E+01</rscale>
<asrwt>0</asrwt>
<pdfrwt beam="1">  1       21 0.42021716E-02 0.83072684E+01</pdfrwt>
<pdfrwt beam="2">  1       21 0.20722397E-02 0.83072684E+01</pdfrwt>
<totfact> 0.17351707E+08</totfact>
</mgrwt>
</event>
<event>
 4    1  0.3992289E+006  0.6403806E+01  0.7546771E-02  0.2365655E+00
         21   -1    0    0  501  502  0.00000000000E+00  0.00000000000E+00  0.13455701332E+02  0.13455701332E+02  0.00000000000E+00 0. -1.
         21   -1    0    0  502  503 -0.00000000000E+00 -0.00000000000E+00 -0.39063063054E+01  0.39063063054E+01  0.00000000000E+00 0. -1.
          5    1    1    2  501    0  0.29736408375E+01  0.31743012289E+01  0.88446359208E+01  0.10919538117E+02  0.47000000000E+01 0. -1.
         -5    1    1    2    0  503 -0.29736408375E+01 -0.31743012289E+01  0.70475910584E+00  0.64424695202E+01  0.47000000000E+01 0. -1.
<mgrwt>
<rscale>  2 0.64038058E+01</rscale>
<asrwt>0</asrwt>
<pdfrwt beam="1">  1       21 0.20701079E-02 0.64038058E+01</pdfrwt>
<pdfrwt beam="2">  1       21 0.60097021E-03 0.64038058E+01</pdfrwt>
<totfact> 0.24196054E+09</totfact>
</mgrwt>
</event>
<event>
 4    1  0.3992289E+006  0.4950336E+01  0.7546771E-02  0.2576040E+00
         21   -1    0    0  503  502  0.00000000000E+00  0.00000000000E+00  0.30154038353E+03  0.30154038353E+03  0.00000000000E+00 0. -1.
         21   -1    0    0  501  503 -0.00000000000E+00 -0.00000000000E+00 -0.16153002517E+00  0.16153002517E+00  0.00000000000E+00 0. -1.
          5    1    1    2  501    0 -0.10957197749E+01  0.11023739957E+01  0.44354904283E+02  0.44630296483E+02  0.47000000000E+01 0. -1.
         -5    1    1    2    0  502  0.10957197749E+01 -0.11023739957E+01  0.25702394922E+03  0.25707161707E+03  0.47000000000E+01 0. -1.
<mgrwt>
<rscale>  2 0.49503364E+01</rscale>
<asrwt>0</asrwt>
<pdfrwt beam="1">  1       21 0.46390378E-01 0.49503364E+01</pdfrwt>
<pdfrwt beam="2">  1       21 0.24851014E-04 0.49503364E+01</pdfrwt>
<totfact> 0.11573927E+09</totfact>
</mgrwt>
</event>
<event>
 4    1  0.3992289E+006  0.6533817E+01  0.7546771E-02  0.2350726E+00
         21   -1    0    0  503  502  0.00000000000E+00  0.00000000000E+00  0.12894538096E+03  0.12894538096E+03  0.00000000000E+00 0.  1.
         21   -1    0    0  501  503 -0.00000000000E+00 -0.00000000000E+00 -0.37135105151E+00  0.37135105151E+00  0.00000000000E+00 0.  1.
          5    1    1    2  501    0 -0.23488524283E+01  0.38837682879E+01  0.85580593539E+02  0.85829649623E+02  0.47000000000E+01 0.  1.
         -5    1    1    2    0  502  0.23488524283E+01 -0.38837682879E+01  0.42993436368E+02  0.43487082387E+02  0.47000000000E+01 0.  1.
<mgrwt>
<rscale>  2 0.65338169E+01</rscale>
<asrwt>0</asrwt>
<pdfrwt beam="1">  1       21 0.19837715E-01 0.65338169E+01</pdfrwt>
<pdfrwt beam="2">  1       21 0.57131034E-04 0.65338169E+01</pdfrwt>
<totfact> 0.19958843E+09</totfact>
</mgrwt>
</event>
<event>
 4    1  0.3992289E+006  0.7311980E+01  0.7546771E-02  0.2270645E+00
         21   -1    0    0  501  502  0.00000000000E+00  0.00000000000E+00  0.23404990635E+01  0.23404990635E+01  0.00000000000E+00 0. -1.
         21   -1    0    0  502  503 -0.00000000000E+00 -0.00000000000E+00 -0.28751552181E+02  0.28751552181E+02  0.00000000000E+00 0.  1.
          5    1    1    2  501    0 -0.54539721461E+01  0.12764177486E+01 -0.61583844873E+01  0.95598511459E+01  0.47000000000E+01 0. -1.
         -5    1    1    2    0  503  0.54539721461E+01 -0.12764177486E+01 -0.20252668630E+02  0.21532200099E+02  0.47000000000E+01 0.  1.
<mgrwt>
<rscale>  2 0.73119802E+01</rscale>
<asrwt>0</asrwt>
<pdfrwt beam="1">  1       21 0.36007681E-03 0.73119802E+01</pdfrwt>
<pdfrwt beam="2">  1       21 0.44233154E-02 0.73119802E+01</pdfrwt>
<totfact> 0.18015760E+09</totfact>
</mgrwt>
</event>
<event>
 4    1  0.3992289E+006  0.7408121E+01  0.7546771E-02  0.2261715E+00
         21   -1    0    0  501  502  0.00000000000E+00  0.00000000000E+00  0.69987174516E+02  0.69987174516E+02  0.00000000000E+00 0.  1.
         21   -1    0    0  502  503 -0.00000000000E+00 -0.00000000000E+00 -0.35821833972E+01  0.35821833972E+01  0.00000000000E+00 0. -1.
          5    1    1    2  501    0  0.34005011866E+01 -0.46072598889E+01  0.65712701479E+02  0.66128960279E+02  0.47000000000E+01 0.  1.
         -5    1    1    2    0  503 -0.34005011866E+01  0.46072598889E+01  0.69228964018E+00  0.74403976339E+01  0.47000000000E+01 0. -1.
<mgrwt>
<rscale>  2 0.74081207E+01</rscale>
<asrwt>0</asrwt>
<pdfrwt beam="1">  1       21 0.10767257E-01 0.74081207E+01</pdfrwt>
<pdfrwt beam="2">  1       21 0.55110519E-03 0.74081207E+01</pdfrwt>
<totfact> 0.25724537E+08</totfact>
</mgrwt>
</event>
<event>
 4    1  0.3992289E+006  0.5167533E+01  0.7546771E-02  0.2538265E+00
         21   -1    0    0  503  502  0.00000000000E+00  0.00000000000E+00  0.14112454534E+00  0.14112454534E+00  0.00000000000E+00 0.  1.
         21   -1    0    0  501  503 -0.00000000000E+00 -0.00000000000E+00 -0.32870854457E+03  0.32870854457E+03  0.00000000000E+00 0. -1.
          5    1    1    2  501    0 -0.20955093452E+01 -0.47142595125E+00 -0.27139450059E+03  0.27144369279E+03  0.47000000000E+01 0. -1.
         -5    1    1    2    0  502  0.20955093452E+01  0.47142595125E+00 -0.57172919428E+02  0.57405976324E+02  0.47000000000E+01 0.  1.
<mgrwt>
<rscale>  2 0.51675334E+01</rscale>
<asrwt>0</asrwt>
<pdfrwt beam="1">  1       21 0.21711686E-04 0.51675334E+01</pdfrwt>
<pdfrwt beam="2">  1       21 0.50570038E-01 0.51675334E+01</pdfrwt>
<totfact> 0.12323067E+09</totfact>
</mgrwt>
</event>
<event>
 4    1  0.3992289E+006  0.7344144E+01  0.7546771E-02  0.2267637E+00
         21   -1    0    0  503  502  0.00000000000E+00  0.00000000000E+00  0.31324271410E+03  0.31324271410E+03  0.00000000000E+00 0. -1.
         21   -1    0    0  501  503 -0.00000000000E+00 -0.00000000000E+00 -0.19272777893E+00  0.19272777893E+00  0.00000000000E+00 0.  1.
          5    1    1    2  501    0  0.36415542555E+01  0.43110949468E+01  0.20768727278E+03  0.20781708239E+03  0.47000000000E+01 0.  1.
         -5    1    1    2    0  502 -0.36415542555E+01 -0.43110949468E+01  0.10536271354E+03  0.10561835949E+03  0.47000000000E+01 0.  1.
<mgrwt>
<rscale>  2 0.73441444E+01</rscale>
<asrwt>0</asrwt>
<pdfrwt beam="1">  1       21 0.48190779E-01 0.73441444E+01</pdfrwt>
<pdfrwt beam="2">  1       21 0.29650678E-04 0.73441444E+01</pdfrwt>
<totfact> 0.11453808E+09</totfact>
</mgrwt>
</event>
<event>
 4    1  0.3992289E+006  0.6778927E+01  0.7546771E-02  0.2323875E+00
         21   -1    0    0  501  502  0.00000000000E+00  0.00000000000E+00  0.10994278672E+02  0.10994278672E+02  0.00000000000E+00 0. -1.
         21   -1    0    0  502  503 -0.00000000000E+00 -0.00000000000E+00 -0.49498277523E+01  0.49498277523E+01  0.00000000000E+00 0.  1.
          5    1    1    2  501    0  0.48780554821E+01 -0.26158177263E+00  0.61665636444E+01  0.91640797406E+01  0.47000000000E+01 0. -1.
         -5    1    1    2    0  503 -0.48780554821E+01  0.26158177263E+00 -0.12211272498E+00  0.67800266834E+01  0.47000000000E+01 0.  1.
<mgrwt>
<rscale>  2 0.67789269E+01</rscale>
<asrwt>0</asrwt>
<pdfrwt beam="1">  1       21 0.16914275E-02 0.67789269E+01</pdfrwt>
<pdfrwt beam="2">  1       21 0.76151196E-03 0.67789269E+01</pdfrwt>
<totfact> 0.24315728E+09</totfact>
</mgrwt>
</event>
<event>
 4    1  0.3992289E+006  0.6919773E+01  0.7546771E-02  0.2309159E+00
         21   -1    0    0  503  502  0.00000000000E+00  0.00000000000E+00  0.79106089491E+03  0.79106089491E+03  0.00000000000E+00 0. -1.
         21   -1    0    0  501  503 -0.00000000000E+00 -0.00000000000E+00 -0.62795089143E-01  0.62795089143E-01  0.00000000000E+00 0.  1.
          5    1    1    2  501    0 -0.16424550069E+01  0.48057881846E+01  0.32037955054E+03  0.32045427078E+03  0.47000000000E+01 0.  1.
         -5    1    1    2    0  502  0.16424550069E+01 -0.48057881846E+01  0.47061854928E+03  0.47066941922E+03  0.47000000000E+01 0. -1.
<mgrwt>
<rscale>  2 0.69197730E+01</rscale>
<asrwt>0</asrwt>
<pdfrwt beam="1">  1       21 0.12169370E+00 0.69197730E+01</pdfrwt>
<pdfrwt beam="2">  1       21 0.96614165E-05 0.69197730E+01</pdfrwt>
<totfact> 0.80989970E+08</totfact>
</mgrwt>
</event>
<event>
 4    1  0.3992289E+006  0.4878910E+01  0.7546771E-02  0.2589094E+00
         21   -1    0    0  503  502  0.00000000000E+00  0.00000000000E+00  0.82631251415E+02  0.82631251415E+02  0.00000000000E+00 0. -1.
         21   -1    0    0  501  503 -0.00000000000E+00 -0.00000000000E+00 -0.32019396914E+00  0.32019396914E+00  0.00000000000E+00 0. -1.
          5    1    1    2  501    0  0.10783261828E+01  0.74228011920E+00  0.28018805335E+02  0.28440415249E+02  0.47000000000E+01 0. -1.
         -5    1    1    2    0  502 -0.10783261828E+01 -0.74228011920E+00  0.54292252111E+02  0.54511030135E+02  0.47000000000E+01 0. -1.
<mgrwt>
<rscale>  2 0.48789104E+01</rscale>
<asrwt>0</asrwt>
<pdfrwt beam="1">  1       21 0.12712483E-01 0.48789104E+01</pdfrwt>
<pdfrwt beam="2">  1       21 0.49260676E-04 0.48789104E+01</pdfrwt>
<totfact> 0.37920983E+09</totfact>
</mgrwt>
</event>
<event>
 4    1  0.3992289E+006  0.5228618E+01  0.7546771E-02  0.2528128E+00
         21   -1    0    0  501  502  0.00000000000E+00  0.00000000000E+00  0.44162868279E+01  0.44162868279E+01  0.00000000000E+00 0.  1.
         21   -1    0    0  502  503 -0.00000000000E+00 -0.00000000000E+00 -0.42691230169E+02  0.42691230169E+02  0.00000000000E+00 0.  1.
          5    1    1    2  501    0  0.19644426352E+01  0.11787327239E+01  0.26417541397E+01  0.58580978684E+01  0.47000000000E+01 0.  1.
         -5    1    1    2    0  503 -0.19644426352E+01 -0.11787327239E+01 -0.40916697481E+02  0.41249419128E+02  0.47000000000E+01 0.  1.
<mgrwt>
<rscale>  2 0.52286180E+01</rscale>
<asrwt>0</asrwt>
<pdfrwt beam="1">  1       21 0.67942872E-03 0.52286180E+01</pdfrwt>
<pdfrwt beam="2">  1       21 0.65678818E-02 0.52286180E+01</pdfrwt>
<totfact> 0.31871877E+08</totfact>
</mgrwt>
</event>
<event>
 4    1  0.3992289E+006  0.6259474E+01  0.7546771E-02  0.2382828E+00
         21   -1    0    0  503  502  0.00000000000E+00  0.00000000000E+00  0.31160255786E+02  0.31160255786E+02  0.00000000000E+00 0. -1.
         21   -1    0    0  501  503 -0.00000000000E+00 -0.00000000000E+00 -0.12602222534E+01  0.12602222534E+01  0.00000000000E+00 0.  1.
          5    1    1    2  501    0 -0.32794012679E+01  0.25172487213E+01  0.15716665766E+02  0.16917286916E+02  0.47000000000E+01 0.  1.
         -5    1    1    2    0  502  0.32794012679E+01 -0.25172487213E+01  0.14183367766E+02  0.15503191123E+02  0.47000000000E+01 0. -1.
<mgrwt>
<rscale>  2 0.62594739E+01</rscale>
<asrwt>0</asrwt>
<pdfrwt beam="1">  1       21 0.47938849E-02 0.62594739E+01</pdfrwt>
<pdfrwt beam="2">  1       21 0.19388037E-03 0.62594739E+01</pdfrwt>
<totfact> 0.33171205E+09</totfact>
</mgrwt>
</event>
<event>
 4    1  0.3992289E+006  0.1950299E+02  0.7546771E-02  0.1755396E+00
         21   -1    0    0  501  502  0.00000000000E+00  0.00000000000E+00  0.60020235801E+03  0.60020235801E+03  0.00000000000E+00 0. -1.
         21   -1    0    0  502  503 -0.00000000000E+00 -0.00000000000E+00 -0.63804547491E+00  0.63804547491E+00  0.00000000000E+00 0.  1.
          5    1    1    2  501    0  0.65947131436E+01 -0.17742222944E+02  0.32448674895E+03  0.32507232574E+03  0.47000000000E+01 0. -1.
         -5    1    1    2    0  503 -0.65947131436E+01  0.17742222944E+02  0.27507756358E+03  0.27576807774E+03  0.47000000000E+01 0.  1.
<mgrwt>
<rscale>  2 0.19502992E+02</rscale>
<asrwt>0</asrwt>
<pdfrwt beam="1">  1       21 0.92338373E-01 0.19502992E+02</pdfrwt>
<pdfrwt beam="2">  1       21 0.98161322E-04 0.19502992E+02</pdfrwt>
<totfact> 0.93052430E+07</totfact>
</mgrwt>
</event>
<event>
 4    1  0.3992289E+006  0.5044782E+01  0.7546771E-02  0.2559270E+00
         21   -1    0    0  503  502  0.00000000000E+00  0.00000000000E+00  0.85858865324E+02  0.85858865324E+02  0.00000000000E+00 0.  1.
         21   -1    0    0  501  503 -0.00000000000E+00 -0.00000000000E+00 -0.29829510204E+00  0.29829510204E+00  0.00000000000E+00 0.  1.
          5    1    1    2  501    0  0.16943935018E+01  0.69918544329E+00  0.39359987281E+02  0.39681966035E+02  0.47000000000E+01 0.  1.
         -5    1    1    2    0  502 -0.16943935018E+01 -0.69918544329E+00  0.46200582941E+02  0.46475194391E+02  0.47000000000E+01 0.  1.
<mgrwt>
<rscale>  2 0.50447824E+01</rscale>
<asrwt>0</asrwt>
<pdfrwt beam="1">  1       21 0.13209037E-01 0.50447824E+01</pdfrwt>
<pdfrwt beam="2">  1       21 0.45891623E-04 0.50447824E+01</pdfrwt>
<totfact> 0.40608437E+09</totfact>
</mgrwt>
</event>
<event>
 4    1  0.3992289E+006  0.5976349E+01  0.7546771E-02  0.2418512E+00
         21   -1    0    0  501  502  0.00000000000E+00  0.00000000000E+00  0.51393425696E+02  0.51393425696E+02  0.00000000000E+00 0. -1.
         21   -1    0    0  502  503 -0.00000000000E+00 -0.00000000000E+00 -0.11118076036E+01  0.11118076036E+01  0.00000000000E+00 0. -1.
          5    1    1    2  501    0 -0.19650253434E+00 -0.36862090662E+01  0.41215499790E+02  0.41646538553E+02  0.47000000000E+01 0. -1.
         -5    1    1    2    0  503  0.19650253434E+00  0.36862090662E+01  0.90661183030E+01  0.10858694747E+02  0.47000000000E+01 0. -1.
<mgrwt>
<rscale>  2 0.59763493E+01</rscale>
<asrwt>0</asrwt>
<pdfrwt beam="1">  1       21 0.79066790E-02 0.59763493E+01</pdfrwt>
<pdfrwt beam="2">  1       21 0.17104736E-03 0.59763493E+01</pdfrwt>
<totfact> 0.17867656E+09</totfact>
</mgrwt>
</event>
<event>
 4    1  0.3992289E+006  0.6015454E+01  0.7546771E-02  0.2413417E+00
         21   -1    0    0  503  502  0.00000000000E+00  0.00000000000E+00  0.25479122282E+02  0.25479122282E+02  0.00000000000E+00 0. -1.
         21   -1    0    0  501  503 -0.00000000000E+00 -0.00000000000E+00 -0.29275020573E+01  0.29275020573E+01  0.00000000000E+00 0.  1.
          5    1    1    2  501    0  0.24370780902E+01 -0.28559293245E+01  0.10842690299E+01  0.61123907969E+01  0.47000000000E+01 0.  1.
         -5    1    1    2    0  502 -0.24370780902E+01  0.28559293245E+01  0.21467351195E+02  0.22294233543E+02  0.47000000000E+01 0. -1.
<mgrwt>
<rscale>  2 0.60154536E+01</rscale>
<asrwt>0</asrwt>
<pdfrwt beam="1">  1       21 0.39198648E-02 0.60154536E+01</pdfrwt>
<pdfrwt beam="2">  1       21 0.45038495E-03 0.60154536E+01</pdfrwt>
<totfact> 0.13550358E+09</totfact>
</mgrwt>
</event>
<event>
 4    1  0.3992289E+006  0.6201905E+01  0.7546771E-02  0.2389864E+00
         21   -1    0    0  503  502  0.00000000000E+00  0.00000000000E+00  0.28267260238E+02  0.28267260238E+02  0.00000000000E+00 0.  1.
         21   -1    0    0  501  503 -0.00000000000E+00 -0.00000000000E+00 -0.15909142925E+01  0.15909142925E+01  0.00000000000E+00 0. -1.
          5    1    1    2  501    0  0.52549489640E+00 -0.40121658917E+01  0.76592755288E+01  0.98553600469E+01  0.47000000000E+01 0. -1.
         -5    1    1    2    0  502 -0.52549489640E+00  0.40121658917E+01  0.19017070416E+02  0.20002814483E+02  0.47000000000E+01 0.  1.
<mgrwt>
<rscale>  2 0.62019045E+01</rscale>
<asrwt>0</asrwt>
<pdfrwt beam="1">  1       21 0.43488089E-02 0.62019045E+01</pdfrwt>
<pdfrwt beam="2">  1       21 0.24475607E-03 0.62019045E+01</pdfrwt>
<totfact> 0.27649133E+09</totfact>
</mgrwt>
</event>
<event>
 4    1  0.3992289E+006  0.4762465E+01  0.7546771E-02  0.2611100E+00
         21   -1    0    0  501  502  0.00000000000E+00  0.00000000000E+00  0.46132103317E+00  0.46132103317E+00  0.00000000000E+00 0.  1.
         21   -1    0    0  502  503 -0.00000000000E+00 -0.00000000000E+00 -0.12650060431E+03  0.12650060431E+03  0.00000000000E+00 0.  1.
          5    1    1    2  501    0 -0.32516735664E+00 -0.69666578882E+00 -0.13384924029E+02  0.14206944369E+02  0.47000000000E+01 0.  1.
         -5    1    1    2    0  503  0.32516735664E+00  0.69666578882E+00 -0.11265435924E+03  0.11275498097E+03  0.47000000000E+01 0.  1.
<mgrwt>
<rscale>  2 0.47624654E+01</rscale>
<asrwt>0</asrwt>
<pdfrwt beam="1">  1       21 0.70972386E-04 0.47624654E+01</pdfrwt>
<pdfrwt beam="2">  1       21 0.19461654E-01 0.47624654E+01</pdfrwt>
<totfact> 0.11783158E+09</totfact>
</mgrwt>
</event>
<event>
 4    1  0.3992289E+006  0.7938613E+01  0.7546771E-02  0.2215627E+00
         21   -1    0    0  503  502  0.00000000000E+00  0.00000000000E+00  0.15607145231E+01  0.15607145231E+01  0.00000000000E+00 0.  1.
         21   -1    0    0  501  503 -0.00000000000E+00 -0.00000000000E+00 -0.11409017466E+03  0.11409017466E+03  0.00000000000E+00 0. -1.
          5    1    1    2  501    0 -0.38082835007E+01 -0.51408711748E+01 -0.10274393769E+03  0.10305017376E+03  0.47000000000E+01 0. -1.
         -5    1    1    2    0  502  0.38082835007E+01  0.51408711748E+01 -0.97855224483E+01  0.12600715426E+02  0.47000000000E+01 0.  1.
<mgrwt>
<rscale>  2 0.79386132E+01</rscale>
<asrwt>0</asrwt>
<pdfrwt beam="1">  1       21 0.24011000E-03 0.79386132E+01</pdfrwt>
<pdfrwt beam="2">  1       21 0.17552329E-01 0.79386132E+01</pdfrwt>
<totfact> 0.39308262E+08</totfact>
</mgrwt>
</event>
<event>
 4    1  0.3992289E+006  0.6934643E+01  0.7546771E-02  0.2307634E+00
         21   -1    0    0  501  502  0.00000000000E+00  0.00000000000E+00  0.48767334618E+00  0.48767334618E+00  0.00000000000E+00 0. -1.
         21   -1    0    0  502  503 -0.00000000000E+00 -0.00000000000E+00 -0.17325611879E+03  0.17325611879E+03  0.00000000000E+00 0.  1.
          5    1    1    2  501    0 -0.47530377804E+00  0.50767463904E+01 -0.29362566808E+02  0.30170343007E+02  0.47000000000E+01 0. -1.
         -5    1    1    2    0  503  0.47530377804E+00 -0.50767463904E+01 -0.14340587863E+03  0.14357344913E+03  0.47000000000E+01 0.  1.
<mgrwt>
<rscale>  2 0.69346426E+01</rscale>
<asrwt>0</asrwt>
<pdfrwt beam="1">  1       21 0.75026623E-04 0.69346426E+01</pdfrwt>
<pdfrwt beam="2">  1       21 0.26654804E-01 0.69346426E+01</pdfrwt>
<totfact> 0.88628994E+08</totfact>
</mgrwt>
</event>
<event>
 4    1  0.3992289E+006  0.4742695E+01  0.7546771E-02  0.2614929E+00
         21   -1    0    0  501  502  0.00000000000E+00  0.00000000000E+00  0.84167961925E-01  0.84167961925E-01  0.00000000000E+00 0. -1.
         21   -1    0    0  502  503 -0.00000000000E+00 -0.00000000000E+00 -0.50762322012E+03  0.50762322012E+03  0.00000000000E+00 0. -1.
          5    1    1    2  501    0 -0.62741905732E+00 -0.97481853167E-01 -0.79081302646E+02  0.79223390394E+02  0.47000000000E+01 0. -1.
         -5    1    1    2    0  503  0.62741905732E+00  0.97481853167E-01 -0.42845774951E+03  0.42848399769E+03  0.47000000000E+01 0. -1.
<mgrwt>
<rscale>  2 0.47426952E+01</rscale>
<asrwt>0</asrwt>
<pdfrwt beam="1">  1       21 0.12948673E-04 0.47426952E+01</pdfrwt>
<pdfrwt beam="2">  1       21 0.78097351E-01 0.47426952E+01</pdfrwt>
<totfact> 0.10207932E+09</totfact>
</mgrwt>
</event>
<event>
 4    1  0.3992289E+006  0.5032509E+01  0.7546771E-02  0.2561419E+00
         21   -1    0    0  503  502  0.00000000000E+00  0.00000000000E+00  0.12051648479E+02  0.12051648479E+02  0.00000000000E+00 0.  1.
         21   -1    0    0  501  503 -0.00000000000E+00 -0.00000000000E+00 -0.13714203254E+02  0.13714203254E+02  0.00000000000E+00 0.  1.
          5    1    1    2  501    0  0.13840956064E+01  0.11491001050E+01 -0.12686138830E+02  0.13647866871E+02  0.47000000000E+01 0.  1.
         -5    1    1    2    0  502 -0.13840956064E+01 -0.11491001050E+01  0.11023584055E+02  0.12117984862E+02  0.47000000000E+01 0.  1.
<mgrwt>
<rscale>  2 0.50325095E+01</rscale>
<asrwt>0</asrwt>
<pdfrwt beam="1">  1       21 0.18540998E-02 0.50325095E+01</pdfrwt>
<pdfrwt beam="2">  1       21 0.21098774E-02 0.50325095E+01</pdfrwt>
<totfact> 0.39202591E+08</totfact>
</mgrwt>
</event>
<event>
 4    1  0.3992289E+006  0.5222603E+01  0.7546771E-02  0.2529117E+00
         21   -1    0    0  503  502  0.00000000000E+00  0.00000000000E+00  0.15622291205E+01  0.15622291205E+01  0.00000000000E+00 0.  1.
         21   -1    0    0  501  503 -0.00000000000E+00 -0.00000000000E+00 -0.17784422379E+02  0.17784422379E+02  0.00000000000E+00 0.  1.
          5    1    1    2  501    0  0.21287166067E+01 -0.80879400629E+00 -0.94188112457E+01  0.10769846211E+02  0.47000000000E+01 0.  1.
         -5    1    1    2    0  502 -0.21287166067E+01  0.80879400629E+00 -0.68033820123E+01  0.85768052876E+01  0.47000000000E+01 0.  1.
<mgrwt>
<rscale>  2 0.52226030E+01</rscale>
<asrwt>0</asrwt>
<pdfrwt beam="1">  1       21 0.24034294E-03 0.52226030E+01</pdfrwt>
<pdfrwt beam="2">  1       21 0.27360650E-02 0.52226030E+01</pdfrwt>
<totfact> 0.47447070E+09</totfact>
</mgrwt>
</event>
<event>
 4    1  0.3992289E+006  0.5807268E+01  0.7546771E-02  0.2441204E+00
         21   -1    0    0  503  502  0.00000000000E+00  0.00000000000E+00  0.46308799297E+03  0.46308799297E+03  0.00000000000E+00 0.  1.
         21   -1    0    0  501  503 -0.00000000000E+00 -0.00000000000E+00 -0.34784000207E+00  0.34784000207E+00  0.00000000000E+00 0.  1.
          5    1    1    2  501    0 -0.27023620884E+01 -0.20812497091E+01  0.25331717480E+02  0.25988848988E+02  0.47000000000E+01 0.  1.
         -5    1    1    2    0  502  0.27023620884E+01  0.20812497091E+01  0.43740843549E+03  0.43744698399E+03  0.47000000000E+01 0.  1.
<mgrwt>
<rscale>  2 0.58072680E+01</rscale>
<asrwt>0</asrwt>
<pdfrwt beam="1">  1       21 0.71243814E-01 0.58072680E+01</pdfrwt>
<pdfrwt beam="2">  1       21 0.53514217E-04 0.58072680E+01</pdfrwt>
<totfact> 0.21541323E+08</totfact>
</mgrwt>
</event>
<event>
 4    1  0.3992289E+006  0.5359122E+01  0.7546771E-02  0.2507135E+00
         21   -1    0    0  501  502  0.00000000000E+00  0.00000000000E+00  0.23485252437E+00  0.23485252437E+00  0.00000000000E+00 0. -1.
         21   -1    0    0  502  503 -0.00000000000E+00 -0.00000000000E+00 -0.13711156938E+03  0.13711156938E+03  0.00000000000E+00 0. -1.
          5    1    1    2  501    0 -0.16214700122E+01 -0.20002557923E+01 -0.45859975046E+02  0.46172042401E+02  0.47000000000E+01 0. -1.
         -5    1    1    2    0  503  0.16214700122E+01  0.20002557923E+01 -0.91016741810E+02  0.91174379504E+02  0.47000000000E+01 0. -1.
<mgrwt>
<rscale>  2 0.53591220E+01</rscale>
<asrwt>0</asrwt>
<pdfrwt beam="1">  1       21 0.36131071E-04 0.53591220E+01</pdfrwt>
<pdfrwt beam="2">  1       21 0.21094138E-01 0.53591220E+01</pdfrwt>
<totfact> 0.28285260E+09</totfact>
</mgrwt>
</event>
<event>
 4    1  0.3992289E+006  0.4916633E+01  0.7546771E-02  0.2582159E+00
         21   -1    0    0  501  502  0.00000000000E+00  0.00000000000E+00  0.27367011694E-01  0.27367011694E-01  0.00000000000E+00 0.  1.
         21   -1    0    0  502  503 -0.00000000000E+00 -0.00000000000E+00 -0.95640990831E+03  0.95640990831E+03  0.00000000000E+00 0. -1.
          5    1    1    2  501    0  0.14224203577E+01 -0.24494745849E+00 -0.34597257904E+03  0.34600751253E+03  0.47000000000E+01 0.  1.
         -5    1    1    2    0  503 -0.14224203577E+01  0.24494745849E+00 -0.61040996226E+03  0.61042976279E+03  0.47000000000E+01 0.  1.
<mgrwt>
<rscale>  2 0.49166329E+01</rscale>
<asrwt>0</asrwt>
<pdfrwt beam="1">  1       21 0.42104073E-05 0.49166329E+01</pdfrwt>
<pdfrwt beam="2">  1       21 0.14713657E+00 0.49166329E+01</pdfrwt>
<totfact> 0.13182728E+09</totfact>
</mgrwt>
</event>
<event>
 4    1  0.3992289E+006  0.5797835E+01  0.7546771E-02  0.2442502E+00
         21   -1    0    0  501  502  0.00000000000E+00  0.00000000000E+00  0.17981396599E+02  0.17981396599E+02  0.00000000000E+00 0. -1.
         21   -1    0    0  502  503 -0.00000000000E+00 -0.00000000000E+00 -0.63937626589E+01  0.63937626589E+01  0.00000000000E+00 0.  1.
          5    1    1    2  501    0  0.74928812581E+00  0.33111107783E+01  0.16046007666E+02  0.17061337852E+02  0.47000000000E+01 0. -1.
         -5    1    1    2    0  503 -0.74928812581E+00 -0.33111107783E+01 -0.44583737257E+01  0.73138214060E+01  0.47000000000E+01 0.  1.
<mgrwt>
<rscale>  2 0.57978347E+01</rscale>
<asrwt>0</asrwt>
<pdfrwt beam="1">  1       21 0.27663687E-02 0.57978347E+01</pdfrwt>
<pdfrwt beam="2">  1       21 0.98365580E-03 0.57978347E+01</pdfrwt>
<totfact> 0.73368994E+08</totfact>
</mgrwt>
</event>
<event>
 4    1  0.3992289E+006  0.4903708E+01  0.7546771E-02  0.2584525E+00
         21   -1    0    0  503  502  0.00000000000E+00  0.00000000000E+00  0.68808656496E+00  0.68808656496E+00  0.00000000000E+00 0.  1.
         21   -1    0    0  501  503 -0.00000000000E+00 -0.00000000000E+00 -0.12821226364E+03  0.12821226364E+03  0.00000000000E+00 0. -1.
          5    1    1    2  501    0 -0.12892472145E+01  0.54239242330E+00 -0.11873136244E+03  0.11883258297E+03  0.47000000000E+01 0. -1.
         -5    1    1    2    0  502  0.12892472145E+01 -0.54239242330E+00 -0.87928146287E+01  0.10067767231E+02  0.47000000000E+01 0.  1.
<mgrwt>
<rscale>  2 0.49037076E+01</rscale>
<asrwt>0</asrwt>
<pdfrwt beam="1">  1       21 0.10585947E-03 0.49037076E+01</pdfrwt>
<pdfrwt beam="2">  1       21 0.19724964E-01 0.49037076E+01</pdfrwt>
<totfact> 0.69770108E+08</totfact>
</mgrwt>
</event>
<event>
 4    1  0.3992289E+006  0.4870151E+01  0.7546771E-02  0.2590717E+00
         21   -1    0    0  503  502  0.00000000000E+00  0.00000000000E+00  0.60012773609E+02  0.60012773609E+02  0.00000000000E+00 0.  1.
         21   -1    0    0  501  503 -0.00000000000E+00 -0.00000000000E+00 -0.21092053429E+01  0.21092053429E+01  0.00000000000E+00 0.  1.
          5    1    1    2  501    0 -0.95960978366E+00 -0.84114191351E+00  0.95171208688E+00  0.49622703022E+01  0.47000000000E+01 0.  1.
         -5    1    1    2    0  502  0.95960978366E+00  0.84114191351E+00  0.56951856179E+02  0.57159708650E+02  0.47000000000E+01 0.  1.
<mgrwt>
<rscale>  2 0.48701510E+01</rscale>
<asrwt>0</asrwt>
<pdfrwt beam="1">  1       21 0.92327331E-02 0.48701510E+01</pdfrwt>
<pdfrwt beam="2">  1       21 0.32449318E-03 0.48701510E+01</pdfrwt>
<totfact> 0.49690922E+08</totfact>
</mgrwt>
</event>
<event>
 4    1  0.3992289E+006  0.6003417E+01  0.7546771E-02  0.2414979E+00
         21   -1    0    0  503  502  0.00000000000E+00  0.00000000000E+00  0.53678559336E+01  0.53678559336E+01  0.00000000000E+00 0. -1.
         21   -1    0    0  501  503 -0.00000000000E+00 -0.00000000000E+00 -0.12372167614E+02  0.12372167614E+02  0.00000000000E+00 0. -1.
          5    1    1    2  501    0  0.37081394801E+01  0.44801475368E+00 -0.95004864995E+01  0.11238338816E+02  0.47000000000E+01 0. -1.
         -5    1    1    2    0  502 -0.37081394801E+01 -0.44801475368E+00  0.24961748188E+01  0.65016847316E+01  0.47000000000E+01 0. -1.
<mgrwt>
<rscale>  2 0.60034170E+01</rscale>
<asrwt>0</asrwt>
<pdfrwt beam="1">  1       21 0.82582399E-03 0.60034170E+01</pdfrwt>
<pdfrwt beam="2">  1       21 0.19034104E-02 0.60034170E+01</pdfrwt>
<totfact> 0.16550310E+09</totfact>
</mgrwt>
</event>
<event>
 4    1  0.3992289E+006  0.6530914E+01  0.7546771E-02  0.2351054E+00
         21   -1    0    0  503  502  0.00000000000E+00  0.00000000000E+00  0.29482783999E+01  0.29482783999E+01  0.00000000000E+00 0.  1.
         21   -1    0    0  501  503 -0.00000000000E+00 -0.00000000000E+00 -0.16471798624E+02  0.16471798624E+02  0.00000000000E+00 0. -1.
          5    1    1    2  501    0  0.44662165069E+01  0.78469828843E+00 -0.33742372916E+01  0.73510760159E+01  0.47000000000E+01 0.  1.
         -5    1    1    2    0  502 -0.44662165069E+01 -0.78469828843E+00 -0.10149282933E+02  0.12069001008E+02  0.47000000000E+01 0.  1.
<mgrwt>
<rscale>  2 0.65309143E+01</rscale>
<asrwt>0</asrwt>
<pdfrwt beam="1">  1       21 0.45358127E-03 0.65309143E+01</pdfrwt>
<pdfrwt beam="2">  1       21 0.25341230E-02 0.65309143E+01</pdfrwt>
<totfact> 0.27184751E+09</totfact>
</mgrwt>
</event>
<event>
 4    1  0.3992289E+006  0.8467995E+01  0.7546771E-02  0.2174337E+00
         21   -1    0    0  501  502  0.00000000000E+00  0.00000000000E+00  0.37189450865E+00  0.37189450865E+00  0.00000000000E+00 0.  1.
         21   -1    0    0  502  503 -0.00000000000E+00 -0.00000000000E+00 -0.29129371610E+03  0.29129371610E+03  0.00000000000E+00 0.  1.
          5    1    1    2  501    0 -0.25460626676E+01  0.65676866480E+01 -0.60667862474E+02  0.61255991382E+02  0.47000000000E+01 0.  1.
         -5    1    1    2    0  503  0.25460626676E+01 -0.65676866480E+01 -0.23025395911E+03  0.23040961922E+03  0.47000000000E+01 0.  1.
<mgrwt>
<rscale>  2 0.84679952E+01</rscale>
<asrwt>0</asrwt>
<pdfrwt beam="1">  1       21 0.57214558E-04 0.84679952E+01</pdfrwt>
<pdfrwt beam="2">  1       21 0.44814404E-01 0.84679952E+01</pdfrwt>
<totfact> 0.58529392E+08</totfact>
</mgrwt>
</event>
<event>
 4    1  0.3992289E+006  0.6655818E+01  0.7546771E-02  0.2337157E+00
         21   -1    0    0  503  502  0.00000000000E+00  0.00000000000E+00  0.23679881451E+01  0.23679881451E+01  0.00000000000E+00 0.  1.
         21   -1    0    0  501  503 -0.00000000000E+00 -0.00000000000E+00 -0.25050725842E+02  0.25050725842E+02  0.00000000000E+00 0. -1.
          5    1    1    2  501    0 -0.40036362078E+01  0.24861237220E+01 -0.18239807393E+02  0.19416242886E+02  0.47000000000E+01 0. -1.
         -5    1    1    2    0  502  0.40036362078E+01 -0.24861237220E+01 -0.44429303031E+01  0.80024711011E+01  0.47000000000E+01 0.  1.
<mgrwt>
<rscale>  2 0.66558181E+01</rscale>
<asrwt>0</asrwt>
<pdfrwt beam="1">  1       21 0.36430588E-03 0.66558181E+01</pdfrwt>
<pdfrwt beam="2">  1       21 0.38539577E-02 0.66558181E+01</pdfrwt>
<totfact> 0.20249536E+09</totfact>
</mgrwt>
</event>
<event>
 4    1  0.3992289E+006  0.1126604E+02  0.7546771E-02  0.2009371E+00
         21   -1    0    0  501  502  0.00000000000E+00  0.00000000000E+00  0.16377150914E+01  0.16377150914E+01  0.00000000000E+00 0. -1.
         21   -1    0    0  502  503 -0.00000000000E+00 -0.00000000000E+00 -0.77503018816E+02  0.77503018816E+02  0.00000000000E+00 0.  1.
          5    1    1    2  501    0  0.10216024919E+02 -0.68305310861E+00 -0.37706746420E+02  0.39353811153E+02  0.47000000000E+01 0. -1.
         -5    1    1    2    0  503 -0.10216024919E+02  0.68305310861E+00 -0.38158557305E+02  0.39786922755E+02  0.47000000000E+01 0.  1.
<mgrwt>
<rscale>  2 0.11266043E+02</rscale>
<asrwt>0</asrwt>
<pdfrwt beam="1">  1       21 0.25195608E-03 0.11266043E+02</pdfrwt>
<pdfrwt beam="2">  1       21 0.11923546E-01 0.11266043E+02</pdfrwt>
<totfact> 0.83550504E+08</totfact>
</mgrwt>
</event>
<event>
 4    1  0.3992289E+006  0.2112959E+02  0.7546771E-02  0.1723755E+00
         21   -1    0    0  503  502  0.00000000000E+00  0.00000000000E+00  0.30963695037E+02  0.30963695037E+02  0.00000000000E+00 0.  1.
         21   -1    0    0  501  503 -0.00000000000E+00 -0.00000000000E+00 -0.56766927901E+02  0.56766927901E+02  0.00000000000E+00 0. -1.
          5    1    1    2  501    0 -0.18568216324E+02  0.89213633025E+01 -0.50788651550E+02  0.55008603935E+02  0.47000000000E+01 0. -1.
         -5    1    1    2    0  502  0.18568216324E+02 -0.89213633025E+01  0.24985418686E+02  0.32722019002E+02  0.47000000000E+01 0.  1.
<mgrwt>
<rscale>  2 0.21129585E+02</rscale>
<asrwt>0</asrwt>
<pdfrwt beam="1">  1       21 0.47636455E-02 0.21129585E+02</pdfrwt>
<pdfrwt beam="2">  1       21 0.87333733E-02 0.21129585E+02</pdfrwt>
<totfact> 0.22073944E+07</totfact>
</mgrwt>
</event>
<event>
 4    1  0.3992289E+006  0.7781644E+01  0.7546771E-02  0.2228733E+00
         21   -1    0    0  501  502  0.00000000000E+00  0.00000000000E+00  0.14161699771E+02  0.14161699771E+02  0.00000000000E+00 0.  1.
         21   -1    0    0  502  503 -0.00000000000E+00 -0.00000000000E+00 -0.13951140518E+02  0.13951140518E+02  0.00000000000E+00 0. -1.
          5    1    1    2  501    0  0.61373100193E+00 -0.61714925052E+01  0.11811071556E+02  0.14144094061E+02  0.47000000000E+01 0.  1.
         -5    1    1    2    0  503 -0.61373100193E+00  0.61714925052E+01 -0.11600512304E+02  0.13968746228E+02  0.47000000000E+01 0. -1.
<mgrwt>
<rscale>  2 0.77816441E+01</rscale>
<asrwt>0</asrwt>
<pdfrwt beam="1">  1       21 0.21787230E-02 0.77816441E+01</pdfrwt>
<pdfrwt beam="2">  1       21 0.21463293E-02 0.77816441E+01</pdfrwt>
<totfact> 0.41983683E+08</totfact>
</mgrwt>
</event>
<event>
 4    1  0.3992289E+006  0.5464287E+01  0.7546771E-02  0.2490841E+00
         21   -1    0    0  503  502  0.00000000000E+00  0.00000000000E+00  0.85830989470E+00  0.85830989470E+00  0.00000000000E+00 0.  1.
         21   -1    0    0  501  503 -0.00000000000E+00 -0.00000000000E+00 -0.69256277747E+02  0.69256277747E+02  0.00000000000E+00 0. -1.
          5    1    1    2  501    0  0.17407075462E+01  0.21767792452E+01 -0.58931137778E+02  0.59183928819E+02  0.47000000000E+01 0. -1.
         -5    1    1    2    0  502 -0.17407075462E+01 -0.21767792452E+01 -0.94668300747E+01  0.10930658823E+02  0.47000000000E+01 0.  1.
<mgrwt>
<rscale>  2 0.54642868E+01</rscale>
<asrwt>0</asrwt>
<pdfrwt beam="1">  1       21 0.13204764E-03 0.54642868E+01</pdfrwt>
<pdfrwt beam="2">  1       21 0.10654815E-01 0.54642868E+01</pdfrwt>
<totfact> 0.14912419E+09</totfact>
</mgrwt>
</event>
<event>
 4    1  0.3992289E+006  0.8452508E+01  0.7546771E-02  0.2175486E+00
         21   -1    0    0  501  502  0.00000000000E+00  0.00000000000E+00  0.11761780964E+03  0.11761780964E+03  0.00000000000E+00 0. -1.
         21   -1    0    0  502  503 -0.00000000000E+00 -0.00000000000E+00 -0.94459751606E+00  0.94459751606E+00  0.00000000000E+00 0. -1.
          5    1    1    2  501    0  0.37154560870E+01  0.59624055481E+01  0.93753852307E+02  0.94134104958E+02  0.47000000000E+01 0. -1.
         -5    1    1    2    0  503 -0.37154560870E+01 -0.59624055481E+01  0.22919359816E+02  0.24428302197E+02  0.47000000000E+01 0. -1.
<mgrwt>
<rscale>  2 0.84525081E+01</rscale>
<asrwt>0</asrwt>
<pdfrwt beam="1">  1       21 0.18095036E-01 0.84525081E+01</pdfrwt>
<pdfrwt beam="2">  1       21 0.14532279E-03 0.84525081E+01</pdfrwt>
<totfact> 0.77712812E+08</totfact>
</mgrwt>
</event>
<event>
 4    1  0.3992289E+006  0.7552919E+01  0.7546771E-02  0.2248616E+00
         21   -1    0    0  501  502  0.00000000000E+00  0.00000000000E+00  0.38118121286E+02  0.38118121286E+02  0.00000000000E+00 0. -1.
         21   -1    0    0  502  503 -0.00000000000E+00 -0.00000000000E+00 -0.17373342309E+01  0.17373342309E+01  0.00000000000E+00 0.  1.
          5    1    1    2  501    0 -0.41096955116E+01 -0.42505287079E+01  0.25608762246E+02  0.26699350091E+02  0.47000000000E+01 0. -1.
         -5    1    1    2    0  503  0.41096955116E+01  0.42505287079E+01  0.10772024809E+02  0.13156105426E+02  0.47000000000E+01 0.  1.
<mgrwt>
<rscale>  2 0.75529194E+01</rscale>
<asrwt>0</asrwt>
<pdfrwt beam="1">  1       21 0.58643257E-02 0.75529194E+01</pdfrwt>
<pdfrwt beam="2">  1       21 0.26728222E-03 0.75529194E+01</pdfrwt>
<totfact> 0.18266532E+09</totfact>
</mgrwt>
</event>
<event>
 4    1  0.3992289E+006  0.1886209E+02  0.7546771E-02  0.1768952E+00
         21   -1    0    0  501  502  0.00000000000E+00  0.00000000000E+00  0.46088999256E+01  0.46088999256E+01  0.00000000000E+00 0.  1.
         21   -1    0    0  502  503 -0.00000000000E+00 -0.00000000000E+00 -0.15620237257E+03  0.15620237257E+03  0.00000000000E+00 0. -1.
          5    1    1    2  501    0 -0.38177165313E+01  0.17863751934E+02 -0.18612051507E+02  0.26498812313E+02  0.47000000000E+01 0.  1.
         -5    1    1    2    0  503  0.38177165313E+01 -0.17863751934E+02 -0.13298142114E+03  0.13431246018E+03  0.47000000000E+01 0. -1.
<mgrwt>
<rscale>  2 0.18862094E+02</rscale>
<asrwt>0</asrwt>
<pdfrwt beam="1">  1       21 0.70906153E-03 0.18862094E+02</pdfrwt>
<pdfrwt beam="2">  1       21 0.24031134E-01 0.18862094E+02</pdfrwt>
<totfact> 0.70586686E+07</totfact>
</mgrwt>
</event>
<event>
 4    1  0.3992289E+006  0.6327830E+01  0.7546771E-02  0.2374614E+00
         21   -1    0    0  503  502  0.00000000000E+00  0.00000000000E+00  0.68294696681E+01  0.68294696681E+01  0.00000000000E+00 0. -1.
         21   -1    0    0  501  503 -0.00000000000E+00 -0.00000000000E+00 -0.73496091625E+01  0.73496091625E+01  0.00000000000E+00 0.  1.
          5    1    1    2  501    0  0.42079126884E+01  0.49488246902E+00 -0.34485137992E+01  0.72065029852E+01  0.47000000000E+01 0.  1.
         -5    1    1    2    0  502 -0.42079126884E+01 -0.49488246902E+00  0.29283743049E+01  0.69725758455E+01  0.47000000000E+01 0. -1.
<mgrwt>
<rscale>  2 0.63278304E+01</rscale>
<asrwt>0</asrwt>
<pdfrwt beam="1">  1       21 0.10506876E-02 0.63278304E+01</pdfrwt>
<pdfrwt beam="2">  1       21 0.11307091E-02 0.63278304E+01</pdfrwt>
<totfact> 0.25912207E+09</totfact>
</mgrwt>
</event>
<event>
 4    1  0.3992289E+006  0.4728029E+01  0.7546771E-02  0.2617787E+00
         21   -1    0    0  501  502  0.00000000000E+00  0.00000000000E+00  0.35293560574E+01  0.35293560574E+01  0.00000000000E+00 0. -1.
         21   -1    0    0  502  503 -0.00000000000E+00 -0.00000000000E+00 -0.63381534264E+01  0.63381534264E+01  0.00000000000E+00 0. -1.
          5    1    1    2  501    0 -0.61905702528E-02 -0.51401929148E+00 -0.12751736949E+01  0.48969707072E+01  0.47000000000E+01 0. -1.
         -5    1    1    2    0  503  0.61905702528E-02  0.51401929148E+00 -0.15336236740E+01  0.49705387765E+01  0.47000000000E+01 0. -1.
<mgrwt>
<rscale>  2 0.47280286E+01</rscale>
<asrwt>0</asrwt>
<pdfrwt beam="1">  1       21 0.54297786E-03 0.47280286E+01</pdfrwt>
<pdfrwt beam="2">  1       21 0.97510053E-03 0.47280286E+01</pdfrwt>
<totfact> 0.60199403E+09</totfact>
</mgrwt>
</event>
<event>
 4    1  0.3992289E+006  0.6021649E+01  0.7546771E-02  0.2412614E+00
         21   -1    0    0  503  502  0.00000000000E+00  0.00000000000E+00  0.34698700817E+02  0.34698700817E+02  0.00000000000E+00 0. -1.
         21   -1    0    0  501  503 -0.00000000000E+00 -0.00000000000E+00 -0.39240510179E+01  0.39240510179E+01  0.00000000000E+00 0. -1.
          5    1    1    2  501    0  0.22260048360E+01  0.30356481795E+01 -0.11540012839E+01  0.61312295963E+01  0.47000000000E+01 0. -1.
         -5    1    1    2    0  502 -0.22260048360E+01 -0.30356481795E+01  0.31928651083E+02  0.32491522239E+02  0.47000000000E+01 0. -1.
<mgrwt>
<rscale>  2 0.60216491E+01</rscale>
<asrwt>0</asrwt>
<pdfrwt beam="1">  1       21 0.53382615E-02 0.60216491E+01</pdfrwt>
<pdfrwt beam="2">  1       21 0.60370018E-03 0.60216491E+01</pdfrwt>
<totfact> 0.57175097E+08</totfact>
</mgrwt>
</event>
<event>
 4    1  0.3992289E+006  0.6006678E+01  0.7546771E-02  0.2414555E+00
         21   -1    0    0  503  502  0.00000000000E+00  0.00000000000E+00  0.35983447847E+00  0.35983447847E+00  0.00000000000E+00 0.  1.
         21   -1    0    0  501  503 -0.00000000000E+00 -0.00000000000E+00 -0.12650197422E+03  0.12650197422E+03  0.00000000000E+00 0. -1.
          5    1    1    2  501    0 -0.37265822225E+01  0.32057573509E+00 -0.91956403344E+02  0.92152375443E+02  0.47000000000E+01 0.  1.
         -5    1    1    2    0  502  0.37265822225E+01 -0.32057573509E+00 -0.34185736401E+02  0.34709433259E+02  0.47000000000E+01 0. -1.
<mgrwt>
<rscale>  2 0.60066783E+01</rscale>
<asrwt>0</asrwt>
<pdfrwt beam="1">  1       21 0.55359176E-04 0.60066783E+01</pdfrwt>
<pdfrwt beam="2">  1       21 0.19461833E-01 0.60066783E+01</pdfrwt>
<totfact> 0.20094057E+09</totfact>
</mgrwt>
</event>
<event>
 4    1  0.3992289E+006  0.1069141E+02  0.7546771E-02  0.2037650E+00
         21   -1    0    0  503  502  0.00000000000E+00  0.00000000000E+00  0.10567582584E+01  0.10567582584E+01  0.00000000000E+00 0.  1.
         21   -1    0    0  501  503 -0.00000000000E+00 -0.00000000000E+00 -0.11481203353E+03  0.11481203353E+03  0.00000000000E+00 0. -1.
          5    1    1    2  501    0  0.91334510123E+01 -0.29658601968E+01 -0.42939813929E+02  0.44250806483E+02  0.47000000000E+01 0. -1.
         -5    1    1    2    0  502 -0.91334510123E+01  0.29658601968E+01 -0.70815461342E+02  0.71617985305E+02  0.47000000000E+01 0.  1.
<mgrwt>
<rscale>  2 0.10691410E+02</rscale>
<asrwt>0</asrwt>
<pdfrwt beam="1">  1       21 0.16257808E-03 0.10691410E+02</pdfrwt>
<pdfrwt beam="2">  1       21 0.17663402E-01 0.10691410E+02</pdfrwt>
<totfact> 0.78992340E+08</totfact>
</mgrwt>
</event>
<event>
 4    1  0.3992289E+006  0.5975955E+01  0.7546771E-02  0.2418564E+00
         21   -1    0    0  501  502  0.00000000000E+00  0.00000000000E+00  0.18931794752E+02  0.18931794752E+02  0.00000000000E+00 0. -1.
         21   -1    0    0  502  503 -0.00000000000E+00 -0.00000000000E+00 -0.34052409549E+01  0.34052409549E+01  0.00000000000E+00 0. -1.
          5    1    1    2  501    0  0.32736445064E+01  0.17044906034E+01  0.30420878834E+00  0.59836928028E+01  0.47000000000E+01 0. -1.
         -5    1    1    2    0  503 -0.32736445064E+01 -0.17044906034E+01  0.15222345008E+02  0.16353342904E+02  0.47000000000E+01 0. -1.
<mgrwt>
<rscale>  2 0.59759549E+01</rscale>
<asrwt>0</asrwt>
<pdfrwt beam="1">  1       21 0.29125838E-02 0.59759549E+01</pdfrwt>
<pdfrwt beam="2">  1       21 0.52388323E-03 0.59759549E+01</pdfrwt>
<totfact> 0.16855985E+09</totfact>
</mgrwt>
</event>
<event>
 4    1  0.3992289E+006  0.5048222E+01  0.7546771E-02  0.2558670E+00
         21   -1    0    0  501  502  0.00000000000E+00  0.00000000000E+00  0.17337438383E+01  0.17337438383E+01  0.00000000000E+00 0.  1.
         21   -1    0    0  502  503 -0.00000000000E+00 -0.00000000000E+00 -0.20097319836E+02  0.20097319836E+02  0.00000000000E+00 0.  1.
          5    1    1    2  501    0 -0.10663023541E+01 -0.15025136455E+01 -0.35246158175E+01  0.61569038182E+01  0.47000000000E+01 0.  1.
         -5    1    1    2    0  503  0.10663023541E+01  0.15025136455E+01 -0.14838960180E+02  0.15674159856E+02  0.47000000000E+01 0.  1.
<mgrwt>
<rscale>  2 0.50482223E+01</rscale>
<asrwt>0</asrwt>
<pdfrwt beam="1">  1       21 0.26672980E-03 0.50482223E+01</pdfrwt>
<pdfrwt beam="2">  1       21 0.30918956E-02 0.50482223E+01</pdfrwt>
<totfact> 0.33382854E+09</totfact>
</mgrwt>
</event>
<event>
 4    1  0.3992289E+006  0.5214944E+01  0.7546771E-02  0.2530380E+00
         21   -1    0    0  501  502  0.00000000000E+00  0.00000000000E+00  0.36491957028E+01  0.36491957028E+01  0.00000000000E+00 0. -1.
         21   -1    0    0  502  503 -0.00000000000E+00 -0.00000000000E+00 -0.14513471079E+02  0.14513471079E+02  0.00000000000E+00 0.  1.
          5    1    1    2  501    0  0.22304381283E+01  0.36164723956E+00  0.90212527625E+00  0.52923976593E+01  0.47000000000E+01 0. -1.
         -5    1    1    2    0  503 -0.22304381283E+01 -0.36164723956E+00 -0.11766400652E+02  0.12870269122E+02  0.47000000000E+01 0.  1.
<mgrwt>
<rscale>  2 0.52149442E+01</rscale>
<asrwt>0</asrwt>
<pdfrwt beam="1">  1       21 0.56141473E-03 0.52149442E+01</pdfrwt>
<pdfrwt beam="2">  1       21 0.22328417E-02 0.52149442E+01</pdfrwt>
<totfact> 0.19857148E+09</totfact>
</mgrwt>
</event>
<event>
 4    1  0.3992289E+006  0.5480600E+01  0.7546771E-02  0.2488362E+00
         21   -1    0    0  503  502  0.00000000000E+00  0.00000000000E+00  0.15920773437E+02  0.15920773437E+02  0.00000000000E+00 0.  1.
         21   -1    0    0  501  503 -0.00000000000E+00 -0.00000000000E+00 -0.37696364594E+02  0.37696364594E+02  0.00000000000E+00 0.  1.
          5    1    1    2  501    0 -0.26902905050E+01 -0.84220957082E+00 -0.37016886976E+02  0.37420407552E+02  0.47000000000E+01 0.  1.
         -5    1    1    2    0  502  0.26902905050E+01  0.84220957082E+00  0.15241295819E+02  0.16196730479E+02  0.47000000000E+01 0.  1.
<mgrwt>
<rscale>  2 0.54806003E+01</rscale>
<asrwt>0</asrwt>
<pdfrwt beam="1">  1       21 0.24493498E-02 0.54806003E+01</pdfrwt>
<pdfrwt beam="2">  1       21 0.57994407E-02 0.54806003E+01</pdfrwt>
<totfact> 0.65182815E+07</totfact>
</mgrwt>
</event>
<event>
 4    1  0.3992289E+006  0.6360089E+01  0.7546771E-02  0.2370788E+00
         21   -1    0    0  501  502  0.00000000000E+00  0.00000000000E+00  0.89924834973E+00  0.89924834973E+00  0.00000000000E+00 0.  1.
         21   -1    0    0  502  503 -0.00000000000E+00 -0.00000000000E+00 -0.62725269724E+02  0.62725269724E+02  0.00000000000E+00 0.  1.
          5    1    1    2  501    0  0.39321741307E+01  0.17025677275E+01 -0.13993804467E+02  0.15371313988E+02  0.47000000000E+01 0.  1.
         -5    1    1    2    0  503 -0.39321741307E+01 -0.17025677275E+01 -0.47832216908E+02  0.48253204086E+02  0.47000000000E+01 0.  1.
<mgrwt>
<rscale>  2 0.63600889E+01</rscale>
<asrwt>0</asrwt>
<pdfrwt beam="1">  1       21 0.13834588E-03 0.63600889E+01</pdfrwt>
<pdfrwt beam="2">  1       21 0.96500427E-02 0.63600889E+01</pdfrwt>
<totfact> 0.18496201E+09</totfact>
</mgrwt>
</event>
<event>
 4    1  0.3992289E+006  0.6459053E+01  0.7546771E-02  0.2359250E+00
         21   -1    0    0  501  502  0.00000000000E+00  0.00000000000E+00  0.98481758698E+00  0.98481758698E+00  0.00000000000E+00 0. -1.
         21   -1    0    0  502  503 -0.00000000000E+00 -0.00000000000E+00 -0.43627527807E+02  0.43627527807E+02  0.00000000000E+00 0. -1.
          5    1    1    2  501    0 -0.22745845295E+01 -0.38020563769E+01 -0.25119654018E+02  0.25936776698E+02  0.47000000000E+01 0. -1.
         -5    1    1    2    0  503  0.22745845295E+01  0.38020563769E+01 -0.17523056202E+02  0.18675568696E+02  0.47000000000E+01 0. -1.
<mgrwt>
<rscale>  2 0.64590531E+01</rscale>
<asrwt>0</asrwt>
<pdfrwt beam="1">  1       21 0.15151040E-03 0.64590531E+01</pdfrwt>
<pdfrwt beam="2">  1       21 0.67119272E-02 0.64590531E+01</pdfrwt>
<totfact> 0.28792246E+09</totfact>
</mgrwt>
</event>
<event>
 4    1  0.3992289E+006  0.7472051E+01  0.7546771E-02  0.2255881E+00
         21   -1    0    0  503  502  0.00000000000E+00  0.00000000000E+00  0.11298177011E+00  0.11298177011E+00  0.00000000000E+00 0.  1.
         21   -1    0    0  501  503 -0.00000000000E+00 -0.00000000000E+00 -0.95758944179E+03  0.95758944179E+03  0.00000000000E+00 0. -1.
          5    1    1    2  501    0 -0.57003892836E+01 -0.11167423283E+01 -0.81185825209E+03  0.81189263640E+03  0.47000000000E+01 0. -1.
         -5    1    1    2    0  502  0.57003892836E+01  0.11167423283E+01 -0.14561820793E+03  0.14580978716E+03  0.47000000000E+01 0.  1.
<mgrwt>
<rscale>  2 0.74720514E+01</rscale>
<asrwt>0</asrwt>
<pdfrwt beam="1">  1       21 0.17381306E-04 0.74720514E+01</pdfrwt>
<pdfrwt beam="2">  1       21 0.14732573E+00 0.74720514E+01</pdfrwt>
<totfact> 0.25519097E+08</totfact>
</mgrwt>
</event>
<event>
 4    1  0.3992289E+006  0.6321918E+01  0.7546771E-02  0.2375318E+00
         21   -1    0    0  503  502  0.00000000000E+00  0.00000000000E+00  0.23650742245E+00  0.23650742245E+00  0.00000000000E+00 0.  1.
         21   -1    0    0  501  503 -0.00000000000E+00 -0.00000000000E+00 -0.49369783200E+03  0.49369783200E+03  0.00000000000E+00 0. -1.
          5    1    1    2  501    0 -0.28615069539E+01  0.31126244744E+01 -0.44701965304E+03  0.44706435427E+03  0.47000000000E+01 0. -1.
         -5    1    1    2    0  502  0.28615069539E+01 -0.31126244744E+01 -0.46441671538E+02  0.46869985155E+02  0.47000000000E+01 0.  1.
<mgrwt>
<rscale>  2 0.63219185E+01</rscale>
<asrwt>0</asrwt>
<pdfrwt beam="1">  1       21 0.36385917E-04 0.63219185E+01</pdfrwt>
<pdfrwt beam="2">  1       21 0.75953180E-01 0.63219185E+01</pdfrwt>
<totfact> 0.33710561E+08</totfact>
</mgrwt>
</event>
<event>
 4    1  0.3992289E+006  0.5932046E+01  0.7546771E-02  0.2424353E+00
         21   -1    0    0  503  502  0.00000000000E+00  0.00000000000E+00  0.25738631675E+02  0.25738631675E+02  0.00000000000E+00 0.  1.
         21   -1    0    0  501  503 -0.00000000000E+00 -0.00000000000E+00 -0.38113714972E+01  0.38113714972E+01  0.00000000000E+00 0. -1.
          5    1    1    2  501    0 -0.34590314740E+01  0.10650237295E+01 -0.86828625041E+00  0.59952560659E+01  0.47000000000E+01 0. -1.
         -5    1    1    2    0  502  0.34590314740E+01 -0.10650237295E+01  0.22795546429E+02  0.23554747107E+02  0.47000000000E+01 0.  1.
<mgrwt>
<rscale>  2 0.59320464E+01</rscale>
<asrwt>0</asrwt>
<pdfrwt beam="1">  1       21 0.39597894E-02 0.59320464E+01</pdfrwt>
<pdfrwt beam="2">  1       21 0.58636486E-03 0.59320464E+01</pdfrwt>
<totfact> 0.91470935E+08</totfact>
</mgrwt>
</event>
<event>
 4    1  0.3992289E+006  0.5396608E+01  0.7546771E-02  0.2501265E+00
         21   -1    0    0  503  502  0.00000000000E+00  0.00000000000E+00  0.47556740978E+01  0.47556740978E+01  0.00000000000E+00 0. -1.
         21   -1    0    0  501  503 -0.00000000000E+00 -0.00000000000E+00 -0.86884546498E+01  0.86884546498E+01  0.00000000000E+00 0. -1.
          5    1    1    2  501    0 -0.16650197013E+01  0.20642392119E+01 -0.56184306440E+01  0.77903874763E+01  0.47000000000E+01 0. -1.
         -5    1    1    2    0  502  0.16650197013E+01 -0.20642392119E+01  0.16856500920E+01  0.56537412713E+01  0.47000000000E+01 0. -1.
<mgrwt>
<rscale>  2 0.53966077E+01</rscale>
<asrwt>0</asrwt>
<pdfrwt beam="1">  1       21 0.73164217E-03 0.53966077E+01</pdfrwt>
<pdfrwt beam="2">  1       21 0.13366853E-02 0.53966077E+01</pdfrwt>
<totfact> 0.29458350E+09</totfact>
</mgrwt>
</event>
<event>
 4    1  0.3992289E+006  0.5453638E+01  0.7546771E-02  0.2492467E+00
         21   -1    0    0  503  502  0.00000000000E+00  0.00000000000E+00  0.35580284376E+00  0.35580284376E+00  0.00000000000E+00 0. -1.
         21   -1    0    0  501  503 -0.00000000000E+00 -0.00000000000E+00 -0.85076751905E+02  0.85076751905E+02  0.00000000000E+00 0.  1.
          5    1    1    2  501    0 -0.21220241454E+00  0.27581030911E+01 -0.48004118473E+02  0.48312912900E+02  0.47000000000E+01 0. -1.
         -5    1    1    2    0  502  0.21220241454E+00 -0.27581030911E+01 -0.36716830589E+02  0.37119641849E+02  0.47000000000E+01 0.  1.
<mgrwt>
<rscale>  2 0.54536375E+01</rscale>
<asrwt>0</asrwt>
<pdfrwt beam="1">  1       21 0.54738869E-04 0.54536375E+01</pdfrwt>
<pdfrwt beam="2">  1       21 0.13088738E-01 0.54536375E+01</pdfrwt>
<totfact> 0.35127493E+09</totfact>
</mgrwt>
</event>
<event>
 4    1  0.3992289E+006  0.6875306E+01  0.7546771E-02  0.2313751E+00
         21   -1    0    0  501  502  0.00000000000E+00  0.00000000000E+00  0.89536158238E+02  0.89536158238E+02  0.00000000000E+00 0. -1.
         21   -1    0    0  502  503 -0.00000000000E+00 -0.00000000000E+00 -0.16703922009E+01  0.16703922009E+01  0.00000000000E+00 0.  1.
          5    1    1    2  501    0 -0.39613632587E+01  0.30801669647E+01  0.81647143645E+02  0.81936108602E+02  0.47000000000E+01 0. -1.
         -5    1    1    2    0  503  0.39613632587E+01 -0.30801669647E+01  0.62186223917E+01  0.92704418367E+01  0.47000000000E+01 0.  1.
<mgrwt>
<rscale>  2 0.68753056E+01</rscale>
<asrwt>0</asrwt>
<pdfrwt beam="1">  1       21 0.13774790E-01 0.68753056E+01</pdfrwt>
<pdfrwt beam="2">  1       21 0.25698349E-03 0.68753056E+01</pdfrwt>
<totfact> 0.48201437E+08</totfact>
</mgrwt>
</event>
<event>
 4    1  0.3992289E+006  0.5532493E+01  0.7546771E-02  0.2480556E+00
         21   -1    0    0  503  502  0.00000000000E+00  0.00000000000E+00  0.75111166309E+00  0.75111166309E+00  0.00000000000E+00 0. -1.
         21   -1    0    0  501  503 -0.00000000000E+00 -0.00000000000E+00 -0.42208155748E+02  0.42208155748E+02  0.00000000000E+00 0.  1.
          5    1    1    2  501    0  0.18708397103E+00  0.29126403388E+01 -0.24719662309E+02  0.25331209581E+02  0.47000000000E+01 0.  1.
         -5    1    1    2    0  502 -0.18708397103E+00 -0.29126403388E+01 -0.16737381776E+02  0.17628057830E+02  0.47000000000E+01 0. -1.
<mgrwt>
<rscale>  2 0.55324926E+01</rscale>
<asrwt>0</asrwt>
<pdfrwt beam="1">  1       21 0.11555563E-03 0.55324926E+01</pdfrwt>
<pdfrwt beam="2">  1       21 0.64935629E-02 0.55324926E+01</pdfrwt>
<totfact> 0.38075829E+09</totfact>
</mgrwt>
</event>
<event>
 4    1  0.3992289E+006  0.7986371E+01  0.7546771E-02  0.2211722E+00
         21   -1    0    0  501  502  0.00000000000E+00  0.00000000000E+00  0.28212356697E+03  0.28212356697E+03  0.00000000000E+00 0. -1.
         21   -1    0    0  502  503 -0.00000000000E+00 -0.00000000000E+00 -0.55491116667E+00  0.55491116667E+00  0.00000000000E+00 0.  1.
          5    1    1    2  501    0 -0.28736749561E+01 -0.57822237025E+01  0.24958670567E+03  0.24971444845E+03  0.47000000000E+01 0. -1.
         -5    1    1    2    0  503  0.28736749561E+01  0.57822237025E+01  0.31981950136E+02  0.32964029687E+02  0.47000000000E+01 0.  1.
<mgrwt>
<rscale>  2 0.79863708E+01</rscale>
<asrwt>0</asrwt>
<pdfrwt beam="1">  1       21 0.43403511E-01 0.79863708E+01</pdfrwt>
<pdfrwt beam="2">  1       21 0.85371174E-04 0.79863708E+01</pdfrwt>
<totfact> 0.34815644E+08</totfact>
</mgrwt>
</event>
<event>
 4    1  0.3992289E+006  0.1110590E+02  0.7546771E-02  0.2017023E+00
         21   -1    0    0  503  502  0.00000000000E+00  0.00000000000E+00  0.39922238496E+02  0.39922238496E+02  0.00000000000E+00 0. -1.
         21   -1    0    0  501  503 -0.00000000000E+00 -0.00000000000E+00 -0.78819236998E+01  0.78819236998E+01  0.00000000000E+00 0.  1.
          5    1    1    2  501    0 -0.29730464917E+01 -0.96131115178E+01 -0.26176957884E+01  0.11410225665E+02  0.47000000000E+01 0.  1.
         -5    1    1    2    0  502  0.29730464917E+01  0.96131115178E+01  0.34658010584E+02  0.36393936530E+02  0.47000000000E+01 0. -1.
<mgrwt>
<rscale>  2 0.11105896E+02</rscale>
<asrwt>0</asrwt>
<pdfrwt beam="1">  1       21 0.61418828E-02 0.11105896E+02</pdfrwt>
<pdfrwt beam="2">  1       21 0.12126037E-02 0.11105896E+02</pdfrwt>
<totfact> 0.24763976E+08</totfact>
</mgrwt>
</event>
<event>
 4    1  0.3992289E+006  0.6361246E+01  0.7546771E-02  0.2370651E+00
         21   -1    0    0  501  502  0.00000000000E+00  0.00000000000E+00  0.77445575209E+00  0.77445575209E+00  0.00000000000E+00 0. -1.
         21   -1    0    0  502  503 -0.00000000000E+00 -0.00000000000E+00 -0.11108630695E+03  0.11108630695E+03  0.00000000000E+00 0. -1.
          5    1    1    2  501    0  0.58691551463E+00 -0.42462906990E+01 -0.14451695533E+02  0.15789773852E+02  0.47000000000E+01 0. -1.
         -5    1    1    2    0  503 -0.58691551463E+00  0.42462906990E+01 -0.95860155669E+02  0.96070988854E+02  0.47000000000E+01 0. -1.
<mgrwt>
<rscale>  2 0.63612463E+01</rscale>
<asrwt>0</asrwt>
<pdfrwt beam="1">  1       21 0.11914713E-03 0.63612463E+01</pdfrwt>
<pdfrwt beam="2">  1       21 0.17090187E-01 0.63612463E+01</pdfrwt>
<totfact> 0.92435284E+08</totfact>
</mgrwt>
</event>
<event>
 4    1  0.3992289E+006  0.7748870E+01  0.7546771E-02  0.2231524E+00
         21   -1    0    0  501  502  0.00000000000E+00  0.00000000000E+00  0.39298951011E+01  0.39298951011E+01  0.00000000000E+00 0.  1.
         21   -1    0    0  502  503 -0.00000000000E+00 -0.00000000000E+00 -0.24092663640E+02  0.24092663640E+02  0.00000000000E+00 0. -1.
          5    1    1    2  501    0  0.38170636132E+01 -0.48358047920E+01 -0.16069074374E+01  0.79137307337E+01  0.47000000000E+01 0.  1.
         -5    1    1    2    0  503 -0.38170636132E+01  0.48358047920E+01 -0.18555861101E+02  0.20108828007E+02  0.47000000000E+01 0. -1.
<mgrwt>
<rscale>  2 0.77488698E+01</rscale>
<asrwt>0</asrwt>
<pdfrwt beam="1">  1       21 0.60459926E-03 0.77488698E+01</pdfrwt>
<pdfrwt beam="2">  1       21 0.37065635E-02 0.77488698E+01</pdfrwt>
<totfact> 0.11809995E+09</totfact>
</mgrwt>
</event>
<event>
 4    1  0.3992289E+006  0.4860573E+01  0.7546771E-02  0.2592499E+00
         21   -1    0    0  503  502  0.00000000000E+00  0.00000000000E+00  0.47593544290E+00  0.47593544290E+00  0.00000000000E+00 0.  1.
         21   -1    0    0  501  503 -0.00000000000E+00 -0.00000000000E+00 -0.51467981040E+02  0.51467981040E+02  0.00000000000E+00 0.  1.
          5    1    1    2  501    0 -0.10773886052E+01 -0.61188722638E+00 -0.30391416860E+02  0.30777644337E+02  0.47000000000E+01 0.  1.
         -5    1    1    2    0  502  0.10773886052E+01  0.61188722638E+00 -0.20600628737E+02  0.21166272145E+02  0.47000000000E+01 0.  1.
<mgrwt>
<rscale>  2 0.48605732E+01</rscale>
<asrwt>0</asrwt>
<pdfrwt beam="1">  1       21 0.73220876E-04 0.48605732E+01</pdfrwt>
<pdfrwt beam="2">  1       21 0.79181468E-02 0.48605732E+01</pdfrwt>
<totfact> 0.45705719E+09</totfact>
</mgrwt>
</event>
<event>
 4    1  0.3992289E+006  0.5105886E+01  0.7546771E-02  0.2548706E+00
         21   -1    0    0  501  502  0.00000000000E+00  0.00000000000E+00  0.82237875383E+01  0.82237875383E+01  0.00000000000E+00 0.  1.
         21   -1    0    0  502  503 -0.00000000000E+00 -0.00000000000E+00 -0.31861420299E+01  0.31861420299E+01  0.00000000000E+00 0.  1.
          5    1    1    2  501    0 -0.19139358321E+01 -0.56295971191E+00  0.29238691983E+01  0.58837985261E+01  0.47000000000E+01 0. -1.
         -5    1    1    2    0  503  0.19139358321E+01  0.56295971191E+00  0.21137763101E+01  0.55261310422E+01  0.47000000000E+01 0. -1.
<mgrwt>
<rscale>  2 0.51058862E+01</rscale>
<asrwt>0</asrwt>
<pdfrwt beam="1">  1       21 0.12651981E-02 0.51058862E+01</pdfrwt>
<pdfrwt beam="2">  1       21 0.49017570E-03 0.51058862E+01</pdfrwt>
<totfact> 0.52345969E+09</totfact>
</mgrwt>
</event>
<event>
 4    1  0.3992289E+006  0.5104164E+01  0.7546771E-02  0.2549001E+00
         21   -1    0    0  501  502  0.00000000000E+00  0.00000000000E+00  0.41925361079E+01  0.41925361079E+01  0.00000000000E+00 0. -1.
         21   -1    0    0  502  503 -0.00000000000E+00 -0.00000000000E+00 -0.67974880753E+01  0.67974880753E+01  0.00000000000E+00 0. -1.
          5    1    1    2  501    0  0.16745504718E+01 -0.10762745667E+01  0.30744471271E+00  0.51134145614E+01  0.47000000000E+01 0.  1.
         -5    1    1    2    0  503 -0.16745504718E+01  0.10762745667E+01 -0.29123966801E+01  0.58766096219E+01  0.47000000000E+01 0.  1.
<mgrwt>
<rscale>  2 0.51041636E+01</rscale>
<asrwt>0</asrwt>
<pdfrwt beam="1">  1       21 0.64500556E-03 0.51041636E+01</pdfrwt>
<pdfrwt beam="2">  1       21 0.10457674E-02 0.51041636E+01</pdfrwt>
<totfact> 0.46800638E+09</totfact>
</mgrwt>
</event>
<event>
 4    1  0.3992289E+006  0.4750081E+01  0.7546771E-02  0.2613495E+00
         21   -1    0    0  503  502  0.00000000000E+00  0.00000000000E+00  0.28979877140E+00  0.28979877140E+00  0.00000000000E+00 0. -1.
         21   -1    0    0  501  503 -0.00000000000E+00 -0.00000000000E+00 -0.13472812162E+03  0.13472812162E+03  0.00000000000E+00 0. -1.
          5    1    1    2  501    0 -0.15385941591E+00  0.67051886748E+00 -0.11107958765E+03  0.11118110478E+03  0.47000000000E+01 0. -1.
         -5    1    1    2    0  502  0.15385941591E+00 -0.67051886748E+00 -0.23358735199E+02  0.23836815609E+02  0.47000000000E+01 0. -1.
<mgrwt>
<rscale>  2 0.47500809E+01</rscale>
<asrwt>0</asrwt>
<pdfrwt beam="1">  1       21 0.44584318E-04 0.47500809E+01</pdfrwt>
<pdfrwt beam="2">  1       21 0.20727454E-01 0.47500809E+01</pdfrwt>
<totfact> 0.19658002E+09</totfact>
</mgrwt>
</event>
<event>
 4    1  0.3992289E+006  0.5524241E+01  0.7546771E-02  0.2481789E+00
         21   -1    0    0  503  502  0.00000000000E+00  0.00000000000E+00  0.30726294132E+03  0.30726294132E+03  0.00000000000E+00 0.  1.
         21   -1    0    0  501  503 -0.00000000000E+00 -0.00000000000E+00 -0.18413446048E+00  0.18413446048E+00  0.00000000000E+00 0.  1.
          5    1    1    2  501    0  0.22046030355E+01  0.18886409564E+01  0.49209512413E+02  0.49518616207E+02  0.47000000000E+01 0.  1.
         -5    1    1    2    0  502 -0.22046030355E+01 -0.18886409564E+01  0.25786929445E+03  0.25792845957E+03  0.47000000000E+01 0.  1.
<mgrwt>
<rscale>  2 0.55242411E+01</rscale>
<asrwt>0</asrwt>
<pdfrwt beam="1">  1       21 0.47270811E-01 0.55242411E+01</pdfrwt>
<pdfrwt beam="2">  1       21 0.28328624E-04 0.55242411E+01</pdfrwt>
<totfact> 0.10300995E+09</totfact>
</mgrwt>
</event>
<event>
 4    1  0.3992289E+006  0.5880357E+01  0.7546771E-02  0.2431260E+00
         21   -1    0    0  503  502  0.00000000000E+00  0.00000000000E+00  0.59168330897E+01  0.59168330897E+01  0.00000000000E+00 0.  1.
         21   -1    0    0  501  503 -0.00000000000E+00 -0.00000000000E+00 -0.58661167713E+01  0.58661167713E+01  0.00000000000E+00 0. -1.
          5    1    1    2  501    0  0.24230200787E+01 -0.25724634335E+01  0.38624846745E+00  0.58930282790E+01  0.47000000000E+01 0.  1.
         -5    1    1    2    0  502 -0.24230200787E+01  0.25724634335E+01 -0.33553214903E+00  0.58899215819E+01  0.47000000000E+01 0. -1.
<mgrwt>
<rscale>  2 0.58803567E+01</rscale>
<asrwt>0</asrwt>
<pdfrwt beam="1">  1       21 0.91028201E-03 0.58803567E+01</pdfrwt>
<pdfrwt beam="2">  1       21 0.90247950E-03 0.58803567E+01</pdfrwt>
<totfact> 0.40881122E+09</totfact>
</mgrwt>
</event>
<event>
 4    1  0.3992289E+006  0.8169549E+01  0.7546771E-02  0.2197086E+00
         21   -1    0    0  501  502  0.00000000000E+00  0.00000000000E+00  0.14844664376E+00  0.14844664376E+00  0.00000000000E+00 0. -1.
         21   -1    0    0  502  503 -0.00000000000E+00 -0.00000000000E+00 -0.51338957413E+03  0.51338957413E+03  0.00000000000E+00 0.  1.
          5    1    1    2  501    0  0.88259395955E+00  0.66236358301E+01 -0.16611069422E+03  0.16631146761E+03  0.47000000000E+01 0.  1.
         -5    1    1    2    0  503 -0.88259395955E+00 -0.66236358301E+01 -0.34713043327E+03  0.34722655317E+03  0.47000000000E+01 0. -1.
<mgrwt>
<rscale>  2 0.81695486E+01</rscale>
<asrwt>0</asrwt>
<pdfrwt beam="1">  1       21 0.22837929E-04 0.81695486E+01</pdfrwt>
<pdfrwt beam="2">  1       21 0.78983069E-01 0.81695486E+01</pdfrwt>
<totfact> 0.68021850E+08</totfact>
</mgrwt>
</event>
<event>
 4    1  0.3992289E+006  0.4859270E+01  0.7546771E-02  0.2592741E+00
         21   -1    0    0  503  502  0.00000000000E+00  0.00000000000E+00  0.12524758523E+01  0.12524758523E+01  0.00000000000E+00 0.  1.
         21   -1    0    0  501  503 -0.00000000000E+00 -0.00000000000E+00 -0.33710695968E+02  0.33710695968E+02  0.00000000000E+00 0.  1.
          5    1    1    2  501    0 -0.70318189228E+00 -0.10139254159E+01 -0.27834976737E+02  0.28255945205E+02  0.47000000000E+01 0.  1.
         -5    1    1    2    0  502  0.70318189228E+00  0.10139254159E+01 -0.46232433791E+01  0.67072266150E+01  0.47000000000E+01 0.  1.
<mgrwt>
<rscale>  2 0.48592705E+01</rscale>
<asrwt>0</asrwt>
<pdfrwt beam="1">  1       21 0.19268856E-03 0.48592705E+01</pdfrwt>
<pdfrwt beam="2">  1       21 0.51862617E-02 0.48592705E+01</pdfrwt>
<totfact> 0.23533706E+09</totfact>
</mgrwt>
</event>
<event>
 4    1  0.3992289E+006  0.4858047E+01  0.7546771E-02  0.2592969E+00
         21   -1    0    0  501  502  0.00000000000E+00  0.00000000000E+00  0.59173451583E-01  0.59173451583E-01  0.00000000000E+00 0. -1.
         21   -1    0    0  502  503 -0.00000000000E+00 -0.00000000000E+00 -0.64093230080E+03  0.64093230080E+03  0.00000000000E+00 0.  1.
          5    1    1    2  501    0  0.12286451200E+01  0.32456776947E-01 -0.12346277306E+03  0.12355831398E+03  0.47000000000E+01 0. -1.
         -5    1    1    2    0  503 -0.12286451200E+01 -0.32456776947E-01 -0.51741035429E+03  0.51743316027E+03  0.47000000000E+01 0.  1.
<mgrwt>
<rscale>  2 0.48580472E+01</rscale>
<asrwt>0</asrwt>
<pdfrwt beam="1">  1       21 0.91043043E-05 0.48580472E+01</pdfrwt>
<pdfrwt beam="2">  1       21 0.98597427E-01 0.48580472E+01</pdfrwt>
<totfact> 0.10553600E+09</totfact>
</mgrwt>
</event>
<event>
 4    1  0.3992289E+006  0.5704880E+01  0.7546771E-02  0.2455493E+00
         21   -1    0    0  503  502  0.00000000000E+00  0.00000000000E+00  0.32173554757E+02  0.32173554757E+02  0.00000000000E+00 0. -1.
         21   -1    0    0  501  503 -0.00000000000E+00 -0.00000000000E+00 -0.11240022339E+01  0.11240022339E+01  0.00000000000E+00 0. -1.
          5    1    1    2  501    0 -0.30715341836E+01  0.10106129630E+01  0.10259117264E+02  0.11738617799E+02  0.47000000000E+01 0. -1.
         -5    1    1    2    0  502  0.30715341836E+01 -0.10106129630E+01  0.20790435259E+02  0.21558939192E+02  0.47000000000E+01 0. -1.
<mgrwt>
<rscale>  2 0.57048804E+01</rscale>
<asrwt>0</asrwt>
<pdfrwt beam="1">  1       21 0.49497770E-02 0.57048804E+01</pdfrwt>
<pdfrwt beam="2">  1       21 0.17292344E-03 0.57048804E+01</pdfrwt>
<totfact> 0.34046864E+09</totfact>
</mgrwt>
</event>
<event>
 4    1  0.3992289E+006  0.5736772E+01  0.7546771E-02  0.2450996E+00
         21   -1    0    0  503  502  0.00000000000E+00  0.00000000000E+00  0.11471407035E+03  0.11471407035E+03  0.00000000000E+00 0.  1.
         21   -1    0    0  501  503 -0.00000000000E+00 -0.00000000000E+00 -0.13704195409E+01  0.13704195409E+01  0.00000000000E+00 0. -1.
          5    1    1    2  501    0  0.24812686535E+01  0.21595974479E+01  0.50614049914E+01  0.76503840266E+01  0.47000000000E+01 0. -1.
         -5    1    1    2    0  502 -0.24812686535E+01 -0.21595974479E+01  0.10828224581E+03  0.10843410586E+03  0.47000000000E+01 0.  1.
<mgrwt>
<rscale>  2 0.57367722E+01</rscale>
<asrwt>0</asrwt>
<pdfrwt beam="1">  1       21 0.17648311E-01 0.57367722E+01</pdfrwt>
<pdfrwt beam="2">  1       21 0.21083387E-03 0.57367722E+01</pdfrwt>
<totfact> 0.37526804E+08</totfact>
</mgrwt>
</event>
<event>
 4    1  0.3992289E+006  0.4908668E+01  0.7546771E-02  0.2583616E+00
         21   -1    0    0  501  502  0.00000000000E+00  0.00000000000E+00  0.22483697781E+01  0.22483697781E+01  0.00000000000E+00 0.  1.
         21   -1    0    0  502  503 -0.00000000000E+00 -0.00000000000E+00 -0.79960766452E+02  0.79960766452E+02  0.00000000000E+00 0.  1.
          5    1    1    2  501    0  0.14091933051E+01 -0.13853901411E+00 -0.60517865845E+00  0.49458325930E+01  0.47000000000E+01 0.  1.
         -5    1    1    2    0  503 -0.14091933051E+01  0.13853901411E+00 -0.77107218015E+02  0.77263303637E+02  0.47000000000E+01 0.  1.
<mgrwt>
<rscale>  2 0.49086677E+01</rscale>
<asrwt>0</asrwt>
<pdfrwt beam="1">  1       21 0.34590302E-03 0.49086677E+01</pdfrwt>
<pdfrwt beam="2">  1       21 0.12301657E-01 0.49086677E+01</pdfrwt>
<totfact> 0.29689623E+08</totfact>
</mgrwt>
</event>
<event>
 4    1  0.3992289E+006  0.6167029E+01  0.7546771E-02  0.2394179E+00
         21   -1    0    0  503  502  0.00000000000E+00  0.00000000000E+00  0.61872160929E+02  0.61872160929E+02  0.00000000000E+00 0. -1.
         21   -1    0    0  501  503 -0.00000000000E+00 -0.00000000000E+00 -0.11025683880E+01  0.11025683880E+01  0.00000000000E+00 0. -1.
          5    1    1    2  501    0 -0.35928170003E+01 -0.17418141645E+01  0.51330210887E+02  0.51699350096E+02  0.47000000000E+01 0. -1.
         -5    1    1    2    0  502  0.35928170003E+01  0.17418141645E+01  0.94393816536E+01  0.11275379221E+02  0.47000000000E+01 0. -1.
<mgrwt>
<rscale>  2 0.61670293E+01</rscale>
<asrwt>0</asrwt>
<pdfrwt beam="1">  1       21 0.95187913E-02 0.61670293E+01</pdfrwt>
<pdfrwt beam="2">  1       21 0.16962595E-03 0.61670293E+01</pdfrwt>
<totfact> 0.13974831E+09</totfact>
</mgrwt>
</event>
<event>
 4    1  0.3992289E+006  0.8954226E+01  0.7546771E-02  0.2139895E+00
         21   -1    0    0  503  502  0.00000000000E+00  0.00000000000E+00  0.69015272426E+00  0.69015272426E+00  0.00000000000E+00 0.  1.
         21   -1    0    0  501  503 -0.00000000000E+00 -0.00000000000E+00 -0.15671110224E+03  0.15671110224E+03  0.00000000000E+00 0. -1.
          5    1    1    2  501    0  0.61616429244E+00  0.75966110506E+01 -0.11803737002E+03  0.11837651321E+03  0.47000000000E+01 0. -1.
         -5    1    1    2    0  502 -0.61616429244E+00 -0.75966110506E+01 -0.37983579498E+02  0.39024741759E+02  0.47000000000E+01 0.  1.
<mgrwt>
<rscale>  2 0.89542257E+01</rscale>
<asrwt>0</asrwt>
<pdfrwt beam="1">  1       21 0.10617723E-03 0.89542257E+01</pdfrwt>
<pdfrwt beam="2">  1       21 0.24109427E-01 0.89542257E+01</pdfrwt>
<totfact> 0.76771899E+08</totfact>
</mgrwt>
</event>
<event>
 4    1  0.3992289E+006  0.6045453E+01  0.7546771E-02  0.2409545E+00
         21   -1    0    0  503  502  0.00000000000E+00  0.00000000000E+00  0.16391905605E+00  0.16391905605E+00  0.00000000000E+00 0.  1.
         21   -1    0    0  501  503 -0.00000000000E+00 -0.00000000000E+00 -0.23544847237E+03  0.23544847237E+03  0.00000000000E+00 0. -1.
          5    1    1    2  501    0  0.30507741435E+01  0.22694217022E+01 -0.14477314623E+03  0.14489931459E+03  0.47000000000E+01 0.  1.
         -5    1    1    2    0  502 -0.30507741435E+01 -0.22694217022E+01 -0.90511407087E+02  0.90713076845E+02  0.47000000000E+01 0.  1.
<mgrwt>
<rscale>  2 0.60454526E+01</rscale>
<asrwt>0</asrwt>
<pdfrwt beam="1">  1       21 0.25218216E-04 0.60454526E+01</pdfrwt>
<pdfrwt beam="2">  1       21 0.36222986E-01 0.60454526E+01</pdfrwt>
<totfact> 0.20548641E+09</totfact>
</mgrwt>
</event>
<event>
 4    1  0.3992289E+006  0.4723852E+01  0.7546771E-02  0.2618604E+00
         21   -1    0    0  501  502  0.00000000000E+00  0.00000000000E+00  0.41547173823E+02  0.41547173823E+02  0.00000000000E+00 0.  1.
         21   -1    0    0  502  503 -0.00000000000E+00 -0.00000000000E+00 -0.60525468723E+00  0.60525468723E+00  0.00000000000E+00 0.  1.
          5    1    1    2  501    0 -0.45241947300E+00  0.14175989639E+00  0.27543693560E+02  0.27945837511E+02  0.47000000000E+01 0.  1.
         -5    1    1    2    0  503  0.45241947300E+00 -0.14175989639E+00  0.13398225575E+02  0.14206590999E+02  0.47000000000E+01 0.  1.
<mgrwt>
<rscale>  2 0.47238522E+01</rscale>
<asrwt>0</asrwt>
<pdfrwt beam="1">  1       21 0.63918707E-02 0.47238522E+01</pdfrwt>
<pdfrwt beam="2">  1       21 0.93116138E-04 0.47238522E+01</pdfrwt>
<totfact> 0.44294252E+09</totfact>
</mgrwt>
</event>
<event>
 4    1  0.3992289E+006  0.6486270E+01  0.7546771E-02  0.2356128E+00
         21   -1    0    0  501  502  0.00000000000E+00  0.00000000000E+00  0.74650322993E+01  0.74650322993E+01  0.00000000000E+00 0.  1.
         21   -1    0    0  502  503 -0.00000000000E+00 -0.00000000000E+00 -0.34685178472E+02  0.34685178472E+02  0.00000000000E+00 0. -1.
          5    1    1    2  501    0 -0.42556688978E+01  0.13678388838E+01  0.56769827754E+01  0.86197351707E+01  0.47000000000E+01 0.  1.
         -5    1    1    2    0  503  0.42556688978E+01 -0.13678388838E+01 -0.32897128948E+02  0.33530475601E+02  0.47000000000E+01 0. -1.
<mgrwt>
<rscale>  2 0.64862702E+01</rscale>
<asrwt>0</asrwt>
<pdfrwt beam="1">  1       21 0.11484665E-02 0.64862702E+01</pdfrwt>
<pdfrwt beam="2">  1       21 0.53361813E-02 0.64862702E+01</pdfrwt>
<totfact> 0.24419554E+08</totfact>
</mgrwt>
</event>
<event>
 4    1  0.3992289E+006  0.4725794E+01  0.7546771E-02  0.2618224E+00
         21   -1    0    0  501  502  0.00000000000E+00  0.00000000000E+00  0.25396666630E+03  0.25396666630E+03  0.00000000000E+00 0. -1.
         21   -1    0    0  502  503 -0.00000000000E+00 -0.00000000000E+00 -0.29462419330E+00  0.29462419330E+00  0.00000000000E+00 0. -1.
          5    1    1    2  501    0 -0.27786223562E+00  0.40733116109E+00  0.23331713514E+03  0.23336499025E+03  0.47000000000E+01 0. -1.
         -5    1    1    2    0  503  0.27786223562E+00 -0.40733116109E+00  0.20354906975E+02  0.20896300248E+02  0.47000000000E+01 0. -1.
<mgrwt>
<rscale>  2 0.47257937E+01</rscale>
<asrwt>0</asrwt>
<pdfrwt beam="1">  1       21 0.39071620E-01 0.47257937E+01</pdfrwt>
<pdfrwt beam="2">  1       21 0.45327002E-04 0.47257937E+01</pdfrwt>
<totfact> 0.67553895E+08</totfact>
</mgrwt>
</event>
<event>
 4    1  0.3992289E+006  0.6847285E+01  0.7546771E-02  0.2316671E+00
         21   -1    0    0  501  502  0.00000000000E+00  0.00000000000E+00  0.56047288700E+01  0.56047288700E+01  0.00000000000E+00 0.  1.
         21   -1    0    0  502  503 -0.00000000000E+00 -0.00000000000E+00 -0.11571994506E+02  0.11571994506E+02  0.00000000000E+00 0.  1.
          5    1    1    2  501    0  0.49007366005E+01  0.88209581046E+00  0.15373631359E+01  0.70177487600E+01  0.47000000000E+01 0.  1.
         -5    1    1    2    0  503 -0.49007366005E+01 -0.88209581046E+00 -0.75046287722E+01  0.10158974616E+02  0.47000000000E+01 0.  1.
<mgrwt>
<rscale>  2 0.68472850E+01</rscale>
<asrwt>0</asrwt>
<pdfrwt beam="1">  1       21 0.86226599E-03 0.68472850E+01</pdfrwt>
<pdfrwt beam="2">  1       21 0.17803068E-02 0.68472850E+01</pdfrwt>
<totfact> 0.19093533E+09</totfact>
</mgrwt>
</event>
<event>
 4    1  0.3992289E+006  0.5105202E+01  0.7546771E-02  0.2548823E+00
         21   -1    0    0  501  502  0.00000000000E+00  0.00000000000E+00  0.22066525106E+02  0.22066525106E+02  0.00000000000E+00 0.  1.
         21   -1    0    0  502  503 -0.00000000000E+00 -0.00000000000E+00 -0.24691892272E+01  0.24691892272E+01  0.00000000000E+00 0. -1.
          5    1    1    2  501    0 -0.62194684269E+00  0.18937451296E+01  0.18659246620E+02  0.19345040008E+02  0.47000000000E+01 0.  1.
         -5    1    1    2    0  503  0.62194684269E+00 -0.18937451296E+01  0.93808925872E+00  0.51906743250E+01  0.47000000000E+01 0. -1.
<mgrwt>
<rscale>  2 0.51052021E+01</rscale>
<asrwt>0</asrwt>
<pdfrwt beam="1">  1       21 0.33948499E-02 0.51052021E+01</pdfrwt>
<pdfrwt beam="2">  1       21 0.37987528E-03 0.51052021E+01</pdfrwt>
<totfact> 0.18234702E+09</totfact>
</mgrwt>
</event>
<event>
 4    1  0.3992289E+006  0.6722315E+01  0.7546771E-02  0.2329933E+00
         21   -1    0    0  501  502  0.00000000000E+00  0.00000000000E+00  0.22789763263E+01  0.22789763263E+01  0.00000000000E+00 0.  1.
         21   -1    0    0  502  503 -0.00000000000E+00 -0.00000000000E+00 -0.21793084719E+02  0.21793084719E+02  0.00000000000E+00 0.  1.
          5    1    1    2  501    0 -0.47874124504E+01  0.42449759881E+00 -0.61436308175E+01  0.91067950347E+01  0.47000000000E+01 0. -1.
         -5    1    1    2    0  503  0.47874124504E+01 -0.42449759881E+00 -0.13370477575E+02  0.14965266011E+02  0.47000000000E+01 0. -1.
<mgrwt>
<rscale>  2 0.67223148E+01</rscale>
<asrwt>0</asrwt>
<pdfrwt beam="1">  1       21 0.35061172E-03 0.67223148E+01</pdfrwt>
<pdfrwt beam="2">  1       21 0.33527824E-02 0.67223148E+01</pdfrwt>
<totfact> 0.26430011E+09</totfact>
</mgrwt>
</event>
<event>
 4    1  0.3992289E+006  0.5384053E+01  0.7546771E-02  0.2503223E+00
         21   -1    0    0  503  502  0.00000000000E+00  0.00000000000E+00  0.21217475469E+01  0.21217475469E+01  0.00000000000E+00 0.  1.
         21   -1    0    0  501  503 -0.00000000000E+00 -0.00000000000E+00 -0.27468939920E+02  0.27468939920E+02  0.00000000000E+00 0. -1.
          5    1    1    2  501    0 -0.26263995703E+01 -0.75273681409E-02 -0.23162920588E+02  0.23780431484E+02  0.47000000000E+01 0. -1.
         -5    1    1    2    0  502  0.26263995703E+01  0.75273681409E-02 -0.21842717850E+01  0.58102559836E+01  0.47000000000E+01 0.  1.
<mgrwt>
<rscale>  2 0.53840534E+01</rscale>
<asrwt>0</asrwt>
<pdfrwt beam="1">  1       21 0.32642272E-03 0.53840534E+01</pdfrwt>
<pdfrwt beam="2">  1       21 0.42259905E-02 0.53840534E+01</pdfrwt>
<totfact> 0.17177474E+09</totfact>
</mgrwt>
</event>
<event>
 4    1  0.3992289E+006  0.6629384E+01  0.7546771E-02  0.2340062E+00
         21   -1    0    0  503  502  0.00000000000E+00  0.00000000000E+00  0.12445313653E+02  0.12445313653E+02  0.00000000000E+00 0.  1.
         21   -1    0    0  501  503 -0.00000000000E+00 -0.00000000000E+00 -0.35424640809E+01  0.35424640809E+01  0.00000000000E+00 0. -1.
          5    1    1    2  501    0 -0.30045272866E+01  0.35821151089E+01  0.40036267484E+01  0.77445309742E+01  0.47000000000E+01 0. -1.
         -5    1    1    2    0  502  0.30045272866E+01 -0.35821151089E+01  0.48992228241E+01  0.82432467602E+01  0.47000000000E+01 0.  1.
<mgrwt>
<rscale>  2 0.66293840E+01</rscale>
<asrwt>0</asrwt>
<pdfrwt beam="1">  1       21 0.19146636E-02 0.66293840E+01</pdfrwt>
<pdfrwt beam="2">  1       21 0.54499448E-03 0.66293840E+01</pdfrwt>
<totfact> 0.31967497E+09</totfact>
</mgrwt>
</event>
<event>
 4    1  0.3992289E+006  0.5469322E+01  0.7546771E-02  0.2490075E+00
         21   -1    0    0  501  502  0.00000000000E+00  0.00000000000E+00  0.46729885948E+00  0.46729885948E+00  0.00000000000E+00 0. -1.
         21   -1    0    0  502  503 -0.00000000000E+00 -0.00000000000E+00 -0.18736312755E+03  0.18736312755E+03  0.00000000000E+00 0. -1.
          5    1    1    2  501    0 -0.27668005676E+01  0.41024560588E+00 -0.17246573524E+02  0.18093031397E+02  0.47000000000E+01 0. -1.
         -5    1    1    2    0  503  0.27668005676E+01 -0.41024560588E+00 -0.16964925516E+03  0.16973739501E+03  0.47000000000E+01 0. -1.
<mgrwt>
<rscale>  2 0.54693223E+01</rscale>
<asrwt>0</asrwt>
<pdfrwt beam="1">  1       21 0.71892175E-04 0.54693223E+01</pdfrwt>
<pdfrwt beam="2">  1       21 0.28825079E-01 0.54693223E+01</pdfrwt>
<totfact> 0.69169751E+08</totfact>
</mgrwt>
</event>
<event>
 4    1  0.3992289E+006  0.7572990E+01  0.7546771E-02  0.2246832E+00
         21   -1    0    0  501  502  0.00000000000E+00  0.00000000000E+00  0.11423721237E+03  0.11423721237E+03  0.00000000000E+00 0.  1.
         21   -1    0    0  502  503 -0.00000000000E+00 -0.00000000000E+00 -0.81073131827E+00  0.81073131827E+00  0.00000000000E+00 0. -1.
          5    1    1    2  501    0 -0.57052910398E+01 -0.16461564277E+01  0.92209424740E+02  0.92519879959E+02  0.47000000000E+01 0.  1.
         -5    1    1    2    0  503  0.57052910398E+01  0.16461564277E+01  0.21217056312E+02  0.22528063729E+02  0.47000000000E+01 0. -1.
<mgrwt>
<rscale>  2 0.75729900E+01</rscale>
<asrwt>0</asrwt>
<pdfrwt beam="1">  1       21 0.17574943E-01 0.75729900E+01</pdfrwt>
<pdfrwt beam="2">  1       21 0.12472799E-03 0.75729900E+01</pdfrwt>
<totfact> 0.93786737E+08</totfact>
</mgrwt>
</event>
<event>
 4    1  0.3992289E+006  0.5573487E+01  0.7546771E-02  0.2474477E+00
         21   -1    0    0  501  502  0.00000000000E+00  0.00000000000E+00  0.10490962966E+01  0.10490962966E+01  0.00000000000E+00 0.  1.
         21   -1    0    0  502  503 -0.00000000000E+00 -0.00000000000E+00 -0.69420604604E+02  0.69420604604E+02  0.00000000000E+00 0. -1.
          5    1    1    2  501    0 -0.26525931330E+01  0.13919447166E+01 -0.75031923469E+01  0.93467457341E+01  0.47000000000E+01 0.  1.
         -5    1    1    2    0  503  0.26525931330E+01 -0.13919447166E+01 -0.60868315961E+02  0.61122955167E+02  0.47000000000E+01 0. -1.
<mgrwt>
<rscale>  2 0.55734873E+01</rscale>
<asrwt>0</asrwt>
<pdfrwt beam="1">  1       21 0.16139935E-03 0.55734873E+01</pdfrwt>
<pdfrwt beam="2">  1       21 0.10680099E-01 0.55734873E+01</pdfrwt>
<totfact> 0.11534389E+09</totfact>
</mgrwt>
</event>
<event>
 4    1  0.3992289E+006  0.5082571E+01  0.7546771E-02  0.2552711E+00
         21   -1    0    0  503  502  0.00000000000E+00  0.00000000000E+00  0.56712684476E+02  0.56712684476E+02  0.00000000000E+00 0.  1.
         21   -1    0    0  501  503 -0.00000000000E+00 -0.00000000000E+00 -0.15752074064E+01  0.15752074064E+01  0.00000000000E+00 0.  1.
          5    1    1    2  501    0 -0.12783536961E+01  0.14520120293E+01  0.29972141815E+01  0.59004931960E+01  0.47000000000E+01 0.  1.
         -5    1    1    2    0  502  0.12783536961E+01 -0.14520120293E+01  0.52140262888E+02  0.52387398686E+02  0.47000000000E+01 0.  1.
<mgrwt>
<rscale>  2 0.50825709E+01</rscale>
<asrwt>0</asrwt>
<pdfrwt beam="1">  1       21 0.87250268E-02 0.50825709E+01</pdfrwt>
<pdfrwt beam="2">  1       21 0.24233964E-03 0.50825709E+01</pdfrwt>
<totfact> 0.83504932E+08</totfact>
</mgrwt>
</event>
<event>
 4    1  0.3992289E+006  0.4948787E+01  0.7546771E-02  0.2576320E+00
         21   -1    0    0  503  502  0.00000000000E+00  0.00000000000E+00  0.55127685598E-01  0.55127685598E-01  0.00000000000E+00 0.  1.
         21   -1    0    0  501  503 -0.00000000000E+00 -0.00000000000E+00 -0.44677551766E+03  0.44677551766E+03  0.00000000000E+00 0.  1.
          5    1    1    2  501    0 -0.82558111557E+00  0.13110712418E+01 -0.24015658470E+03  0.24020756788E+03  0.47000000000E+01 0. -1.
         -5    1    1    2    0  502  0.82558111557E+00 -0.13110712418E+01 -0.20656380527E+03  0.20662307746E+03  0.47000000000E+01 0. -1.
<mgrwt>
<rscale>  2 0.49487869E+01</rscale>
<asrwt>0</asrwt>
<pdfrwt beam="1">  1       21 0.84813127E-05 0.49487869E+01</pdfrwt>
<pdfrwt beam="2">  1       21 0.68733639E-01 0.49487869E+01</pdfrwt>
<totfact> 0.23582054E+09</totfact>
</mgrwt>
</event>
<event>
 4    1  0.3992289E+006  0.8641359E+01  0.7546771E-02  0.2161703E+00
         21   -1    0    0  501  502  0.00000000000E+00  0.00000000000E+00  0.32118733127E+01  0.32118733127E+01  0.00000000000E+00 0.  1.
         21   -1    0    0  502  503 -0.00000000000E+00 -0.00000000000E+00 -0.60338561665E+02  0.60338561665E+02  0.00000000000E+00 0.  1.
          5    1    1    2  501    0 -0.41515948375E+01  0.59453633804E+01 -0.36508928625E+01  0.93809436685E+01  0.47000000000E+01 0.  1.
         -5    1    1    2    0  503  0.41515948375E+01 -0.59453633804E+01 -0.53475795490E+02  0.54169491309E+02  0.47000000000E+01 0.  1.
<mgrwt>
<rscale>  2 0.86413590E+01</rscale>
<asrwt>0</asrwt>
<pdfrwt beam="1">  1       21 0.49413438E-03 0.86413590E+01</pdfrwt>
<pdfrwt beam="2">  1       21 0.92828551E-02 0.86413590E+01</pdfrwt>
<totfact> 0.41493666E+08</totfact>
</mgrwt>
</event>
<event>
 4    1  0.3992289E+006  0.7393898E+01  0.7546771E-02  0.2263025E+00
         21   -1    0    0  503  502  0.00000000000E+00  0.00000000000E+00  0.21688769320E+01  0.21688769320E+01  0.00000000000E+00 0. -1.
         21   -1    0    0  501  503 -0.00000000000E+00 -0.00000000000E+00 -0.25218474883E+02  0.25218474883E+02  0.00000000000E+00 0.  1.
          5    1    1    2  501    0 -0.11433738776E+01  0.55921749307E+01 -0.11225986774E+02  0.13442191165E+02  0.47000000000E+01 0.  1.
         -5    1    1    2    0  502  0.11433738776E+01 -0.55921749307E+01 -0.11823611178E+02  0.13945160650E+02  0.47000000000E+01 0. -1.
<mgrwt>
<rscale>  2 0.73938978E+01</rscale>
<asrwt>0</asrwt>
<pdfrwt beam="1">  1       21 0.33367337E-03 0.73938978E+01</pdfrwt>
<pdfrwt beam="2">  1       21 0.38797654E-02 0.73938978E+01</pdfrwt>
<totfact> 0.24563321E+09</totfact>
</mgrwt>
</event>
<event>
 4    1  0.3992289E+006  0.4800048E+01  0.7546771E-02  0.2603896E+00
         21   -1    0    0  503  502  0.00000000000E+00  0.00000000000E+00  0.33257422350E+00  0.33257422350E+00  0.00000000000E+00 0.  1.
         21   -1    0    0  501  503 -0.00000000000E+00 -0.00000000000E+00 -0.15116419498E+03  0.15116419498E+03  0.00000000000E+00 0.  1.
          5    1    1    2  501    0  0.32501749277E-01  0.97437507279E+00 -0.13116661950E+03  0.13125441910E+03  0.47000000000E+01 0.  1.
         -5    1    1    2    0  502 -0.32501749277E-01 -0.97437507279E+00 -0.19665001252E+02  0.20242350095E+02  0.47000000000E+01 0.  1.
<mgrwt>
<rscale>  2 0.48000482E+01</rscale>
<asrwt>0</asrwt>
<pdfrwt beam="1">  1       21 0.51165222E-04 0.48000482E+01</pdfrwt>
<pdfrwt beam="2">  1       21 0.23256050E-01 0.48000482E+01</pdfrwt>
<totfact> 0.13770636E+09</totfact>
</mgrwt>
</event>
<event>
 4    1  0.3992289E+006  0.6631577E+01  0.7546771E-02  0.2339821E+00
         21   -1    0    0  503  502  0.00000000000E+00  0.00000000000E+00  0.60081851358E+01  0.60081851358E+01  0.00000000000E+00 0.  1.
         21   -1    0    0  501  503 -0.00000000000E+00 -0.00000000000E+00 -0.10520481043E+02  0.10520481043E+02  0.00000000000E+00 0.  1.
          5    1    1    2  501    0 -0.40080407146E+01  0.24131760265E+01 -0.68146423744E+01  0.95087938034E+01  0.47000000000E+01 0.  1.
         -5    1    1    2    0  502  0.40080407146E+01 -0.24131760265E+01  0.23023464676E+01  0.70198723750E+01  0.47000000000E+01 0.  1.
<mgrwt>
<rscale>  2 0.66315767E+01</rscale>
<asrwt>0</asrwt>
<pdfrwt beam="1">  1       21 0.92433617E-03 0.66315767E+01</pdfrwt>
<pdfrwt beam="2">  1       21 0.16185355E-02 0.66315767E+01</pdfrwt>
<totfact> 0.19355580E+09</totfact>
</mgrwt>
</event>
<event>
 4    1  0.3992289E+006  0.1466084E+02  0.7546771E-02  0.1878598E+00
         21   -1    0    0  501  502  0.00000000000E+00  0.00000000000E+00  0.34017502211E+01  0.34017502211E+01  0.00000000000E+00 0.  1.
         21   -1    0    0  502  503 -0.00000000000E+00 -0.00000000000E+00 -0.22974936792E+03  0.22974936792E+03  0.00000000000E+00 0. -1.
          5    1    1    2  501    0 -0.26233366646E+01 -0.13637022475E+02 -0.13914526572E+02  0.20212726856E+02  0.47000000000E+01 0.  1.
         -5    1    1    2    0  503  0.26233366646E+01  0.13637022475E+02 -0.21243309113E+03  0.21293839129E+03  0.47000000000E+01 0. -1.
<mgrwt>
<rscale>  2 0.14660842E+02</rscale>
<asrwt>0</asrwt>
<pdfrwt beam="1">  1       21 0.52334620E-03 0.14660842E+02</pdfrwt>
<pdfrwt beam="2">  1       21 0.35346056E-01 0.14660842E+02</pdfrwt>
<totfact> 0.51230835E+07</totfact>
</mgrwt>
</event>
<event>
 4    1  0.3992289E+006  0.6782766E+01  0.7546771E-02  0.2323468E+00
         21   -1    0    0  503  502  0.00000000000E+00  0.00000000000E+00  0.24794353065E+02  0.24794353065E+02  0.00000000000E+00 0. -1.
         21   -1    0    0  501  503 -0.00000000000E+00 -0.00000000000E+00 -0.30575258450E+01  0.30575258450E+01  0.00000000000E+00 0. -1.
          5    1    1    2  501    0  0.48903149561E+01 -0.27147667534E-01  0.21367625526E+01  0.71113762081E+01  0.47000000000E+01 0. -1.
         -5    1    1    2    0  502 -0.48903149561E+01  0.27147667534E-01  0.19600064667E+02  0.20740502702E+02  0.47000000000E+01 0. -1.
<mgrwt>
<rscale>  2 0.67827662E+01</rscale>
<asrwt>0</asrwt>
<pdfrwt beam="1">  1       21 0.38145157E-02 0.67827662E+01</pdfrwt>
<pdfrwt beam="2">  1       21 0.47038861E-03 0.67827662E+01</pdfrwt>
<totfact> 0.14615314E+09</totfact>
</mgrwt>
</event>
<event>
 4    1  0.3992289E+006  0.5245833E+01  0.7546771E-02  0.2525308E+00
         21   -1    0    0  501  502  0.00000000000E+00  0.00000000000E+00  0.75549069355E+00  0.75549069355E+00  0.00000000000E+00 0. -1.
         21   -1    0    0  502  503 -0.00000000000E+00 -0.00000000000E+00 -0.38485930996E+02  0.38485930996E+02  0.00000000000E+00 0. -1.
          5    1    1    2  501    0  0.22932222994E+01 -0.41218340236E+00 -0.14324828145E+02  0.15255145527E+02  0.47000000000E+01 0. -1.
         -5    1    1    2    0  503 -0.22932222994E+01  0.41218340236E+00 -0.23405612157E+02  0.23986276162E+02  0.47000000000E+01 0. -1.
<mgrwt>
<rscale>  2 0.52458330E+01</rscale>
<asrwt>0</asrwt>
<pdfrwt beam="1">  1       21 0.11622933E-03 0.52458330E+01</pdfrwt>
<pdfrwt beam="2">  1       21 0.59209129E-02 0.52458330E+01</pdfrwt>
<totfact> 0.41157460E+09</totfact>
</mgrwt>
</event>
<event>
 4    1  0.3992289E+006  0.5024556E+01  0.7546771E-02  0.2562816E+00
         21   -1    0    0  501  502  0.00000000000E+00  0.00000000000E+00  0.13386546608E+02  0.13386546608E+02  0.00000000000E+00 0.  1.
         21   -1    0    0  502  503 -0.00000000000E+00 -0.00000000000E+00 -0.52244332371E+01  0.52244332371E+01  0.00000000000E+00 0.  1.
          5    1    1    2  501    0  0.28734277414E+00  0.17531682526E+01  0.11519724892E+02  0.12567825046E+02  0.47000000000E+01 0.  1.
         -5    1    1    2    0  503 -0.28734277414E+00 -0.17531682526E+01 -0.33576115217E+01  0.60431547988E+01  0.47000000000E+01 0.  1.
<mgrwt>
<rscale>  2 0.50245562E+01</rscale>
<asrwt>0</asrwt>
<pdfrwt beam="1">  1       21 0.20594687E-02 0.50245562E+01</pdfrwt>
<pdfrwt beam="2">  1       21 0.80375896E-03 0.50245562E+01</pdfrwt>
<totfact> 0.13074016E+09</totfact>
</mgrwt>
</event>
<event>
 4    1  0.3992289E+006  0.1109909E+02  0.7546771E-02  0.2017352E+00
         21   -1    0    0  503  502  0.00000000000E+00  0.00000000000E+00  0.30785290543E+02  0.30785290543E+02  0.00000000000E+00 0. -1.
         21   -1    0    0  501  503 -0.00000000000E+00 -0.00000000000E+00 -0.50917165305E+01  0.50917165305E+01  0.00000000000E+00 0.  1.
          5    1    1    2  501    0  0.96334750649E+01 -0.28802871543E+01  0.45464839997E+01  0.11994182451E+02  0.47000000000E+01 0.  1.
         -5    1    1    2    0  502 -0.96334750649E+01  0.28802871543E+01  0.21147090013E+02  0.23882824622E+02  0.47000000000E+01 0. -1.
<mgrwt>
<rscale>  2 0.11099094E+02</rscale>
<asrwt>0</asrwt>
<pdfrwt beam="1">  1       21 0.47361984E-02 0.11099094E+02</pdfrwt>
<pdfrwt beam="2">  1       21 0.78334102E-03 0.11099094E+02</pdfrwt>
<totfact> 0.69926943E+08</totfact>
</mgrwt>
</event>
<event>
 4    1  0.3992289E+006  0.5976452E+01  0.7546771E-02  0.2418498E+00
         21   -1    0    0  503  502  0.00000000000E+00  0.00000000000E+00  0.38919134216E+00  0.38919134216E+00  0.00000000000E+00 0.  1.
         21   -1    0    0  501  503 -0.00000000000E+00 -0.00000000000E+00 -0.11571837400E+03  0.11571837400E+03  0.00000000000E+00 0.  1.
          5    1    1    2  501    0 -0.26174890980E+01 -0.26032147851E+01 -0.84071855606E+02  0.84284013202E+02  0.47000000000E+01 0.  1.
         -5    1    1    2    0  502  0.26174890980E+01  0.26032147851E+01 -0.31257327054E+02  0.31823552143E+02  0.47000000000E+01 0.  1.
<mgrwt>
<rscale>  2 0.59764518E+01</rscale>
<asrwt>0</asrwt>
<pdfrwt beam="1">  1       21 0.59875559E-04 0.59764518E+01</pdfrwt>
<pdfrwt beam="2">  1       21 0.17802836E-01 0.59764518E+01</pdfrwt>
<totfact> 0.20788593E+09</totfact>
</mgrwt>
</event>
<event>
 4    1  0.3992289E+006  0.6113509E+01  0.7546771E-02  0.2400880E+00
         21   -1    0    0  503  502  0.00000000000E+00  0.00000000000E+00  0.96804814216E+01  0.96804814216E+01  0.00000000000E+00 0. -1.
         21   -1    0    0  501  503 -0.00000000000E+00 -0.00000000000E+00 -0.39016971855E+01  0.39016971855E+01  0.00000000000E+00 0. -1.
          5    1    1    2  501    0 -0.35115192069E+01  0.17187865977E+01  0.35841516535E+01  0.70866873492E+01  0.47000000000E+01 0. -1.
         -5    1    1    2    0  502  0.35115192069E+01 -0.17187865977E+01  0.21946325826E+01  0.64954912579E+01  0.47000000000E+01 0. -1.
<mgrwt>
<rscale>  2 0.61135092E+01</rscale>
<asrwt>0</asrwt>
<pdfrwt beam="1">  1       21 0.14893048E-02 0.61135092E+01</pdfrwt>
<pdfrwt beam="2">  1       21 0.60026111E-03 0.61135092E+01</pdfrwt>
<totfact> 0.37338859E+09</totfact>
</mgrwt>
</event>
<event>
 4    1  0.3992289E+006  0.7127053E+01  0.7546771E-02  0.2288372E+00
         21   -1    0    0  501  502  0.00000000000E+00  0.00000000000E+00  0.28277843003E+02  0.28277843003E+02  0.00000000000E+00 0.  1.
         21   -1    0    0  502  503 -0.00000000000E+00 -0.00000000000E+00 -0.27174010404E+01  0.27174010404E+01  0.00000000000E+00 0.  1.
          5    1    1    2  501    0 -0.51340807141E+01 -0.15316977231E+01  0.21803136478E+02  0.22938431572E+02  0.47000000000E+01 0.  1.
         -5    1    1    2    0  503  0.51340807141E+01  0.15316977231E+01  0.37573054841E+01  0.80568124711E+01  0.47000000000E+01 0.  1.
<mgrwt>
<rscale>  2 0.71270529E+01</rscale>
<asrwt>0</asrwt>
<pdfrwt beam="1">  1       21 0.43504372E-02 0.71270529E+01</pdfrwt>
<pdfrwt beam="2">  1       21 0.41806172E-03 0.71270529E+01</pdfrwt>
<totfact> 0.14712162E+09</totfact>
</mgrwt>
</event>
<event>
 4    1  0.3992289E+006  0.9883995E+01  0.7546771E-02  0.2081650E+00
         21   -1    0    0  501  502  0.00000000000E+00  0.00000000000E+00  0.34516238200E+02  0.34516238200E+02  0.00000000000E+00 0. -1.
         21   -1    0    0  502  503 -0.00000000000E+00 -0.00000000000E+00 -0.45422512884E+01  0.45422512884E+01  0.00000000000E+00 0.  1.
          5    1    1    2  501    0 -0.95384530014E+00 -0.86425422079E+01  0.26976133859E+02  0.28729865204E+02  0.47000000000E+01 0. -1.
         -5    1    1    2    0  503  0.95384530014E+00  0.86425422079E+01  0.29978530520E+01  0.10328624284E+02  0.47000000000E+01 0.  1.
<mgrwt>
<rscale>  2 0.98839950E+01</rscale>
<asrwt>0</asrwt>
<pdfrwt beam="1">  1       21 0.53101903E-02 0.98839950E+01</pdfrwt>
<pdfrwt beam="2">  1       21 0.69880791E-03 0.98839950E+01</pdfrwt>
<totfact> 0.64939611E+08</totfact>
</mgrwt>
</event>
<event>
 4    1  0.3992289E+006  0.7332596E+01  0.7546771E-02  0.2268714E+00
         21   -1    0    0  501  502  0.00000000000E+00  0.00000000000E+00  0.70881110348E+01  0.70881110348E+01  0.00000000000E+00 0.  1.
         21   -1    0    0  502  503 -0.00000000000E+00 -0.00000000000E+00 -0.76275652451E+01  0.76275652451E+01  0.00000000000E+00 0.  1.
          5    1    1    2  501    0 -0.55478078300E+01 -0.94804701008E+00  0.27659296735E+00  0.73378108808E+01  0.47000000000E+01 0.  1.
         -5    1    1    2    0  503  0.55478078300E+01  0.94804701008E+00 -0.81604717768E+00  0.73778653992E+01  0.47000000000E+01 0.  1.
<mgrwt>
<rscale>  2 0.73325961E+01</rscale>
<asrwt>0</asrwt>
<pdfrwt beam="1">  1       21 0.10904786E-02 0.73325961E+01</pdfrwt>
<pdfrwt beam="2">  1       21 0.11734716E-02 0.73325961E+01</pdfrwt>
<totfact> 0.26248377E+09</totfact>
</mgrwt>
</event>
<event>
 4    1  0.3992289E+006  0.6506944E+01  0.7546771E-02  0.2353771E+00
         21   -1    0    0  501  502  0.00000000000E+00  0.00000000000E+00  0.17762332921E+02  0.17762332921E+02  0.00000000000E+00 0.  1.
         21   -1    0    0  502  503 -0.00000000000E+00 -0.00000000000E+00 -0.34838254687E+01  0.34838254687E+01  0.00000000000E+00 0.  1.
          5    1    1    2  501    0  0.59492722784E+00  0.44605359932E+01  0.13108789945E+02  0.14634913514E+02  0.47000000000E+01 0.  1.
         -5    1    1    2    0  503 -0.59492722784E+00 -0.44605359932E+01  0.11697175074E+01  0.66112448753E+01  0.47000000000E+01 0.  1.
<mgrwt>
<rscale>  2 0.65069440E+01</rscale>
<asrwt>0</asrwt>
<pdfrwt beam="1">  1       21 0.27326666E-02 0.65069440E+01</pdfrwt>
<pdfrwt beam="2">  1       21 0.53597316E-03 0.65069440E+01</pdfrwt>
<totfact> 0.19238021E+09</totfact>
</mgrwt>
</event>
<event>
 4    1  0.3992289E+006  0.5484896E+01  0.7546771E-02  0.2487711E+00
         21   -1    0    0  501  502  0.00000000000E+00  0.00000000000E+00  0.75888405664E+03  0.75888405664E+03  0.00000000000E+00 0.  1.
         21   -1    0    0  502  503 -0.00000000000E+00 -0.00000000000E+00 -0.10617510762E+00  0.10617510762E+00  0.00000000000E+00 0.  1.
          5    1    1    2  501    0  0.69980923819E-01  0.28265152233E+01  0.67979729322E+03  0.67981942011E+03  0.47000000000E+01 0.  1.
         -5    1    1    2    0  503 -0.69980923819E-01 -0.28265152233E+01  0.78980588319E+02  0.79170811647E+02  0.47000000000E+01 0.  1.
<mgrwt>
<rscale>  2 0.54848961E+01</rscale>
<asrwt>0</asrwt>
<pdfrwt beam="1">  1       21 0.11674705E+00 0.54848961E+01</pdfrwt>
<pdfrwt beam="2">  1       21 0.16335240E-04 0.54848961E+01</pdfrwt>
<totfact> 0.37808327E+08</totfact>
</mgrwt>
</event>
<event>
 4    1  0.3992289E+006  0.6008928E+01  0.7546771E-02  0.2414263E+00
         21   -1    0    0  503  502  0.00000000000E+00  0.00000000000E+00  0.31634420019E+03  0.31634420019E+03  0.00000000000E+00 0. -1.
         21   -1    0    0  501  503 -0.00000000000E+00 -0.00000000000E+00 -0.15859766010E+00  0.15859766010E+00  0.00000000000E+00 0. -1.
          5    1    1    2  501    0  0.15028186947E+01 -0.34291041319E+01  0.74305688837E+02  0.74548256939E+02  0.47000000000E+01 0. -1.
         -5    1    1    2    0  502 -0.15028186947E+01  0.34291041319E+01  0.24187991369E+03  0.24195454091E+03  0.47000000000E+01 0. -1.
<mgrwt>
<rscale>  2 0.60089283E+01</rscale>
<asrwt>0</asrwt>
<pdfrwt beam="1">  1       21 0.48667833E-01 0.60089283E+01</pdfrwt>
<pdfrwt beam="2">  1       21 0.24399893E-04 0.60089283E+01</pdfrwt>
<totfact> 0.12719638E+09</totfact>
</mgrwt>
</event>
<event>
 4    1  0.3992289E+006  0.7630788E+01  0.7546771E-02  0.2241739E+00
         21   -1    0    0  503  502  0.00000000000E+00  0.00000000000E+00  0.12985663456E+01  0.12985663456E+01  0.00000000000E+00 0. -1.
         21   -1    0    0  501  503 -0.00000000000E+00 -0.00000000000E+00 -0.13158337600E+03  0.13158337600E+03  0.00000000000E+00 0. -1.
          5    1    1    2  501    0  0.60102612835E+01  0.12524327788E+00 -0.11908741559E+03  0.11933164492E+03  0.47000000000E+01 0. -1.
         -5    1    1    2    0  502 -0.60102612835E+01 -0.12524327788E+00 -0.11197394062E+02  0.13550297427E+02  0.47000000000E+01 0. -1.
<mgrwt>
<rscale>  2 0.76307881E+01</rscale>
<asrwt>0</asrwt>
<pdfrwt beam="1">  1       21 0.19977941E-03 0.76307881E+01</pdfrwt>
<pdfrwt beam="2">  1       21 0.20243599E-01 0.76307881E+01</pdfrwt>
<totfact> 0.39182482E+08</totfact>
</mgrwt>
</event>
<event>
 4    1  0.3992289E+006  0.4902306E+01  0.7546771E-02  0.2584782E+00
         21   -1    0    0  501  502  0.00000000000E+00  0.00000000000E+00  0.51708307618E+03  0.51708307618E+03  0.00000000000E+00 0.  1.
         21   -1    0    0  502  503 -0.00000000000E+00 -0.00000000000E+00 -0.80451162021E-01  0.80451162021E-01  0.00000000000E+00 0.  1.
          5    1    1    2  501    0 -0.71807337010E+00  0.11945597850E+01  0.42653814014E+03  0.42656631090E+03  0.47000000000E+01 0.  1.
         -5    1    1    2    0  503  0.71807337010E+00 -0.11945597850E+01  0.90464484884E+02  0.90597216446E+02  0.47000000000E+01 0.  1.
<mgrwt>
<rscale>  2 0.49023058E+01</rscale>
<asrwt>0</asrwt>
<pdfrwt beam="1">  1       21 0.79548581E-01 0.49023058E+01</pdfrwt>
<pdfrwt beam="2">  1       21 0.12377516E-04 0.49023058E+01</pdfrwt>
<totfact> 0.10756068E+09</totfact>
</mgrwt>
</event>
<event>
 4    1  0.3992289E+006  0.6366933E+01  0.7546771E-02  0.2369981E+00
         21   -1    0    0  503  502  0.00000000000E+00  0.00000000000E+00  0.62050537803E+03  0.62050537803E+03  0.00000000000E+00 0. -1.
         21   -1    0    0  501  503 -0.00000000000E+00 -0.00000000000E+00 -0.10282373236E+00  0.10282373236E+00  0.00000000000E+00 0.  1.
          5    1    1    2  501    0  0.35626324112E+01  0.23990589415E+01  0.12282347366E+03  0.12298838772E+03  0.47000000000E+01 0.  1.
         -5    1    1    2    0  502 -0.35626324112E+01 -0.23990589415E+01  0.49757908064E+03  0.49761981404E+03  0.47000000000E+01 0. -1.
<mgrwt>
<rscale>  2 0.63669328E+01</rscale>
<asrwt>0</asrwt>
<pdfrwt beam="1">  1       21 0.95459367E-01 0.63669328E+01</pdfrwt>
<pdfrwt beam="2">  1       21 0.15819533E-04 0.63669328E+01</pdfrwt>
<totfact> 0.65683541E+08</totfact>
</mgrwt>
</event>
<event>
 4    1  0.3992289E+006  0.6140142E+01  0.7546771E-02  0.2397533E+00
         21   -1    0    0  503  502  0.00000000000E+00  0.00000000000E+00  0.19796155843E+02  0.19796155843E+02  0.00000000000E+00 0. -1.
         21   -1    0    0  501  503 -0.00000000000E+00 -0.00000000000E+00 -0.24522030421E+01  0.24522030421E+01  0.00000000000E+00 0.  1.
          5    1    1    2  501    0  0.35644714193E+01 -0.17046660066E+01  0.34145756477E+01  0.70257148780E+01  0.47000000000E+01 0. -1.
         -5    1    1    2    0  502 -0.35644714193E+01  0.17046660066E+01  0.13929377153E+02  0.15222644007E+02  0.47000000000E+01 0. -1.
<mgrwt>
<rscale>  2 0.61401419E+01</rscale>
<asrwt>0</asrwt>
<pdfrwt beam="1">  1       21 0.30455623E-02 0.61401419E+01</pdfrwt>
<pdfrwt beam="2">  1       21 0.37726202E-03 0.61401419E+01</pdfrwt>
<totfact> 0.25485927E+09</totfact>
</mgrwt>
</event>
<event>
 4    1  0.3992289E+006  0.1533504E+02  0.7546771E-02  0.1858013E+00
         21   -1    0    0  501  502  0.00000000000E+00  0.00000000000E+00  0.15337830282E+03  0.15337830282E+03  0.00000000000E+00 0. -1.
         21   -1    0    0  502  503 -0.00000000000E+00 -0.00000000000E+00 -0.15436128682E+01  0.15436128682E+01  0.00000000000E+00 0.  1.
          5    1    1    2  501    0 -0.13393256313E+02  0.58046768726E+01  0.69563189829E+02  0.71233425914E+02  0.47000000000E+01 0.  1.
         -5    1    1    2    0  503  0.13393256313E+02 -0.58046768726E+01  0.82271500121E+02  0.83688489773E+02  0.47000000000E+01 0. -1.
<mgrwt>
<rscale>  2 0.15335044E+02</rscale>
<asrwt>0</asrwt>
<pdfrwt beam="1">  1       21 0.23596650E-01 0.15335044E+02</pdfrwt>
<pdfrwt beam="2">  1       21 0.23747902E-03 0.15335044E+02</pdfrwt>
<totfact> 0.33283566E+08</totfact>
</mgrwt>
</event>
<event>
 4    1  0.3992289E+006  0.8074737E+01  0.7546771E-02  0.2204595E+00
         21   -1    0    0  503  502  0.00000000000E+00  0.00000000000E+00  0.50720742711E+00  0.50720742711E+00  0.00000000000E+00 0.  1.
         21   -1    0    0  501  503 -0.00000000000E+00 -0.00000000000E+00 -0.15055701867E+03  0.15055701867E+03  0.00000000000E+00 0.  1.
          5    1    1    2  501    0 -0.35220766406E+00  0.65564723140E+01 -0.10390272327E+03  0.10421601260E+03  0.47000000000E+01 0.  1.
         -5    1    1    2    0  502  0.35220766406E+00 -0.65564723140E+01 -0.46147087976E+02  0.46848213500E+02  0.47000000000E+01 0.  1.
<mgrwt>
<rscale>  2 0.80747371E+01</rscale>
<asrwt>0</asrwt>
<pdfrwt beam="1">  1       21 0.78031835E-04 0.80747371E+01</pdfrwt>
<pdfrwt beam="2">  1       21 0.23162641E-01 0.80747371E+01</pdfrwt>
<totfact> 0.11756323E+09</totfact>
</mgrwt>
</event>
<event>
 4    1  0.3992289E+006  0.6242693E+01  0.7546771E-02  0.2384868E+00
         21   -1    0    0  503  502  0.00000000000E+00  0.00000000000E+00  0.63376156897E+01  0.63376156897E+01  0.00000000000E+00 0. -1.
         21   -1    0    0  501  503 -0.00000000000E+00 -0.00000000000E+00 -0.62699112428E+01  0.62699112428E+01  0.00000000000E+00 0. -1.
          5    1    1    2  501    0  0.29898788151E+01 -0.28181274825E+01 -0.84084320511E+00  0.62990662111E+01  0.47000000000E+01 0. -1.
         -5    1    1    2    0  502 -0.29898788151E+01  0.28181274825E+01  0.90854765202E+00  0.63084607213E+01  0.47000000000E+01 0. -1.
<mgrwt>
<rscale>  2 0.62426932E+01</rscale>
<asrwt>0</asrwt>
<pdfrwt beam="1">  1       21 0.97501779E-03 0.62426932E+01</pdfrwt>
<pdfrwt beam="2">  1       21 0.96460174E-03 0.62426932E+01</pdfrwt>
<totfact> 0.35651884E+09</totfact>
</mgrwt>
</event>
<event>
 4    1  0.3992289E+006  0.6039661E+01  0.7546771E-02  0.2410290E+00
         21   -1    0    0  503  502  0.00000000000E+00  0.00000000000E+00  0.14410013509E+02  0.14410013509E+02  0.00000000000E+00 0.  1.
         21   -1    0    0  501  503 -0.00000000000E+00 -0.00000000000E+00 -0.65832835155E+01  0.65832835155E+01  0.00000000000E+00 0.  1.
          5    1    1    2  501    0  0.37929115750E+01  0.36473064658E-01 -0.43215259088E+01  0.74265129557E+01  0.47000000000E+01 0.  1.
         -5    1    1    2    0  502 -0.37929115750E+01 -0.36473064658E-01  0.12148255902E+02  0.13566784068E+02  0.47000000000E+01 0.  1.
<mgrwt>
<rscale>  2 0.60396613E+01</rscale>
<asrwt>0</asrwt>
<pdfrwt beam="1">  1       21 0.22169251E-02 0.60396613E+01</pdfrwt>
<pdfrwt beam="2">  1       21 0.10128129E-02 0.60396613E+01</pdfrwt>
<totfact> 0.10021389E+09</totfact>
</mgrwt>
</event>
<event>
 4    1  0.3992289E+006  0.4992336E+01  0.7546771E-02  0.2568515E+00
         21   -1    0    0  501  502  0.00000000000E+00  0.00000000000E+00  0.14414155004E-01  0.14414155004E-01  0.00000000000E+00 0. -1.
         21   -1    0    0  502  503 -0.00000000000E+00 -0.00000000000E+00 -0.17402559425E+04  0.17402559425E+04  0.00000000000E+00 0. -1.
          5    1    1    2  501    0  0.11551296175E+01  0.12243769244E+01 -0.93980871192E+03  0.93982197166E+03  0.47000000000E+01 0. -1.
         -5    1    1    2    0  503 -0.11551296175E+01 -0.12243769244E+01 -0.80043281645E+03  0.80044838501E+03  0.47000000000E+01 0. -1.
<mgrwt>
<rscale>  2 0.49923365E+01</rscale>
<asrwt>0</asrwt>
<pdfrwt beam="1">  1       21 0.22185465E-05 0.49923365E+01</pdfrwt>
<pdfrwt beam="2">  1       21 0.26761291E+00 0.49923365E+01</pdfrwt>
<totfact> 0.87063648E+08</totfact>
</mgrwt>
</event>
<event>
 4    1  0.3992289E+006  0.7973147E+01  0.7546771E-02  0.2212800E+00
         21   -1    0    0  503  502  0.00000000000E+00  0.00000000000E+00  0.45214919878E+02  0.45214919878E+02  0.00000000000E+00 0.  1.
         21   -1    0    0  501  503 -0.00000000000E+00 -0.00000000000E+00 -0.46344055343E+01  0.46344055343E+01  0.00000000000E+00 0.  1.
          5    1    1    2  501    0  0.57926755116E+01  0.28153116237E+01 -0.51283833929E+00  0.79896227873E+01  0.47000000000E+01 0.  1.
         -5    1    1    2    0  502 -0.57926755116E+01 -0.28153116237E+01  0.41093352683E+02  0.41859702625E+02  0.47000000000E+01 0.  1.
<mgrwt>
<rscale>  2 0.79731468E+01</rscale>
<asrwt>0</asrwt>
<pdfrwt beam="1">  1       21 0.69561412E-02 0.79731468E+01</pdfrwt>
<pdfrwt beam="2">  1       21 0.71298550E-03 0.79731468E+01</pdfrwt>
<totfact> 0.36785626E+08</totfact>
</mgrwt>
</event>
<event>
 4    1  0.3992289E+006  0.6112215E+01  0.7546771E-02  0.2401044E+00
         21   -1    0    0  501  502  0.00000000000E+00  0.00000000000E+00  0.14067966036E+01  0.14067966036E+01  0.00000000000E+00 0.  1.
         21   -1    0    0  502  503 -0.00000000000E+00 -0.00000000000E+00 -0.49097280345E+02  0.49097280345E+02  0.00000000000E+00 0. -1.
          5    1    1    2  501    0 -0.19971807652E+01  0.33586375613E+01 -0.67350432279E+01  0.90950527519E+01  0.47000000000E+01 0.  1.
         -5    1    1    2    0  503  0.19971807652E+01 -0.33586375613E+01 -0.40955440513E+02  0.41409024197E+02  0.47000000000E+01 0. -1.
<mgrwt>
<rscale>  2 0.61122154E+01</rscale>
<asrwt>0</asrwt>
<pdfrwt beam="1">  1       21 0.21643023E-03 0.61122154E+01</pdfrwt>
<pdfrwt beam="2">  1       21 0.75534284E-02 0.61122154E+01</pdfrwt>
<totfact> 0.14162034E+09</totfact>
</mgrwt>
</event>
<event>
 4    1  0.3992289E+006  0.8206250E+01  0.7546771E-02  0.2194217E+00
         21   -1    0    0  501  502  0.00000000000E+00  0.00000000000E+00  0.46724306051E+02  0.46724306051E+02  0.00000000000E+00 0.  1.
         21   -1    0    0  502  503 -0.00000000000E+00 -0.00000000000E+00 -0.16539263699E+01  0.16539263699E+01  0.00000000000E+00 0.  1.
          5    1    1    2  501    0  0.59928365924E+01  0.30558882244E+01  0.31208735794E+02  0.32269610055E+02  0.47000000000E+01 0.  1.
         -5    1    1    2    0  503 -0.59928365924E+01 -0.30558882244E+01  0.13861643888E+02  0.16108622366E+02  0.47000000000E+01 0.  1.
<mgrwt>
<rscale>  2 0.82062503E+01</rscale>
<asrwt>0</asrwt>
<pdfrwt beam="1">  1       21 0.71883538E-02 0.82062503E+01</pdfrwt>
<pdfrwt beam="2">  1       21 0.25445025E-03 0.82062503E+01</pdfrwt>
<totfact> 0.15180709E+09</totfact>
</mgrwt>
</event>
<event>
 4    1  0.3992289E+006  0.7127175E+01  0.7546771E-02  0.2288360E+00
         21   -1    0    0  501  502  0.00000000000E+00  0.00000000000E+00  0.51219496928E+02  0.51219496928E+02  0.00000000000E+00 0.  1.
         21   -1    0    0  502  503 -0.00000000000E+00 -0.00000000000E+00 -0.23586506534E+01  0.23586506534E+01  0.00000000000E+00 0. -1.
          5    1    1    2  501    0 -0.26395245001E+01  0.46625678180E+01  0.44824089889E+02  0.45387175090E+02  0.47000000000E+01 0.  1.
         -5    1    1    2    0  503  0.26395245001E+01 -0.46625678180E+01  0.40367563856E+01  0.81909724917E+01  0.47000000000E+01 0. -1.
<mgrwt>
<rscale>  2 0.71271753E+01</rscale>
<asrwt>0</asrwt>
<pdfrwt beam="1">  1       21 0.78799218E-02 0.71271753E+01</pdfrwt>
<pdfrwt beam="2">  1       21 0.36286937E-03 0.71271753E+01</pdfrwt>
<totfact> 0.73046672E+08</totfact>
</mgrwt>
</event>
<event>
 4    1  0.3992289E+006  0.7114597E+01  0.7546771E-02  0.2289594E+00
         21   -1    0    0  501  502  0.00000000000E+00  0.00000000000E+00  0.12212794833E+04  0.12212794833E+04  0.00000000000E+00 0. -1.
         21   -1    0    0  502  503 -0.00000000000E+00 -0.00000000000E+00 -0.41655582100E-01  0.41655582100E-01  0.00000000000E+00 0. -1.
          5    1    1    2  501    0  0.24564539303E+00  0.53354610787E+01  0.65390558411E+03  0.65394428694E+03  0.47000000000E+01 0. -1.
         -5    1    1    2    0  503 -0.24564539303E+00 -0.53354610787E+01  0.56733224359E+03  0.56737685193E+03  0.47000000000E+01 0. -1.
<mgrwt>
<rscale>  2 0.71145967E+01</rscale>
<asrwt>0</asrwt>
<pdfrwt beam="1">  1       21 0.18786048E+00 0.71145967E+01</pdfrwt>
<pdfrwt beam="2">  1       21 0.64095292E-05 0.71145967E+01</pdfrwt>
<totfact> 0.55348514E+08</totfact>
</mgrwt>
</event>
<event>
 4    1  0.3992289E+006  0.5346354E+01  0.7546771E-02  0.2509150E+00
         21   -1    0    0  503  502  0.00000000000E+00  0.00000000000E+00  0.11288997054E+00  0.11288997054E+00  0.00000000000E+00 0.  1.
         21   -1    0    0  501  503 -0.00000000000E+00 -0.00000000000E+00 -0.25377183557E+03  0.25377183557E+03  0.00000000000E+00 0. -1.
          5    1    1    2  501    0 -0.15468250136E+01 -0.20250524343E+01 -0.13286633647E+03  0.13297385785E+03  0.47000000000E+01 0. -1.
         -5    1    1    2    0  502  0.15468250136E+01  0.20250524343E+01 -0.12079260913E+03  0.12091086769E+03  0.47000000000E+01 0. -1.
<mgrwt>
<rscale>  2 0.53463544E+01</rscale>
<asrwt>0</asrwt>
<pdfrwt beam="1">  1       21 0.17367776E-04 0.53463544E+01</pdfrwt>
<pdfrwt beam="2">  1       21 0.39041623E-01 0.53463544E+01</pdfrwt>
<totfact> 0.26835979E+09</totfact>
</mgrwt>
</event>
<event>
 4    1  0.3992289E+006  0.6462176E+01  0.7546771E-02  0.2358891E+00
         21   -1    0    0  501  502  0.00000000000E+00  0.00000000000E+00  0.14945883703E+00  0.14945883703E+00  0.00000000000E+00 0. -1.
         21   -1    0    0  502  503 -0.00000000000E+00 -0.00000000000E+00 -0.48533392425E+03  0.48533392425E+03  0.00000000000E+00 0. -1.
          5    1    1    2  501    0  0.43771164754E+01  0.71454423877E+00 -0.84474169901E+02  0.84720983838E+02  0.47000000000E+01 0. -1.
         -5    1    1    2    0  503 -0.43771164754E+01 -0.71454423877E+00 -0.40071029551E+03  0.40076239925E+03  0.47000000000E+01 0. -1.
<mgrwt>
<rscale>  2 0.64621763E+01</rscale>
<asrwt>0</asrwt>
<pdfrwt beam="1">  1       21 0.22993626E-04 0.64621763E+01</pdfrwt>
<pdfrwt beam="2">  1       21 0.74666892E-01 0.64621763E+01</pdfrwt>
<totfact> 0.65306505E+08</totfact>
</mgrwt>
</event>
<event>
 4    1  0.3992289E+006  0.8216460E+01  0.7546771E-02  0.2193423E+00
         21   -1    0    0  501  502  0.00000000000E+00  0.00000000000E+00  0.26490566453E+01  0.26490566453E+01  0.00000000000E+00 0. -1.
         21   -1    0    0  502  503 -0.00000000000E+00 -0.00000000000E+00 -0.46079299028E+02  0.46079299028E+02  0.00000000000E+00 0.  1.
          5    1    1    2  501    0  0.65152669799E+01  0.17238053625E+01 -0.54268003331E+01  0.98468457184E+01  0.47000000000E+01 0. -1.
         -5    1    1    2    0  503 -0.65152669799E+01 -0.17238053625E+01 -0.38003442049E+02  0.38881509955E+02  0.47000000000E+01 0.  1.
<mgrwt>
<rscale>  2 0.82164596E+01</rscale>
<asrwt>0</asrwt>
<pdfrwt beam="1">  1       21 0.40754721E-03 0.82164596E+01</pdfrwt>
<pdfrwt beam="2">  1       21 0.70891224E-02 0.82164596E+01</pdfrwt>
<totfact> 0.80289957E+08</totfact>
</mgrwt>
</event>
<event>
 4    1  0.3992289E+006  0.8917975E+01  0.7546771E-02  0.2142359E+00
         21   -1    0    0  501  502  0.00000000000E+00  0.00000000000E+00  0.25232357989E+02  0.25232357989E+02  0.00000000000E+00 0.  1.
         21   -1    0    0  502  503 -0.00000000000E+00 -0.00000000000E+00 -0.32169847077E+01  0.32169847077E+01  0.00000000000E+00 0.  1.
          5    1    1    2  501    0  0.75716887723E+01 -0.33135920369E+00  0.13030725573E+02  0.15790189320E+02  0.47000000000E+01 0.  1.
         -5    1    1    2    0  503 -0.75716887723E+01  0.33135920369E+00  0.89846477081E+01  0.12659153377E+02  0.47000000000E+01 0.  1.
<mgrwt>
<rscale>  2 0.89179745E+01</rscale>
<asrwt>0</asrwt>
<pdfrwt beam="1">  1       21 0.38819011E-02 0.89179745E+01</pdfrwt>
<pdfrwt beam="2">  1       21 0.49492074E-03 0.89179745E+01</pdfrwt>
<totfact> 0.16072569E+09</totfact>
</mgrwt>
</event>
<event>
 4    1  0.3992289E+006  0.4744774E+01  0.7546771E-02  0.2614525E+00
         21   -1    0    0  501  502  0.00000000000E+00  0.00000000000E+00  0.39868910857E+02  0.39868910857E+02  0.00000000000E+00 0. -1.
         21   -1    0    0  502  503 -0.00000000000E+00 -0.00000000000E+00 -0.10480348433E+01  0.10480348433E+01  0.00000000000E+00 0. -1.
          5    1    1    2  501    0  0.28029175458E-01  0.64969132515E+00  0.33304258399E+02  0.33640548628E+02  0.47000000000E+01 0. -1.
         -5    1    1    2    0  503 -0.28029175458E-01 -0.64969132515E+00  0.55166176141E+01  0.72763970722E+01  0.47000000000E+01 0. -1.
<mgrwt>
<rscale>  2 0.47447744E+01</rscale>
<asrwt>0</asrwt>
<pdfrwt beam="1">  1       21 0.61336774E-02 0.47447744E+01</pdfrwt>
<pdfrwt beam="2">  1       21 0.16123616E-03 0.47447744E+01</pdfrwt>
<totfact> 0.22802460E+09</totfact>
</mgrwt>
</event>
<event>
 4    1  0.3992289E+006  0.5121939E+01  0.7546771E-02  0.2545966E+00
         21   -1    0    0  503  502  0.00000000000E+00  0.00000000000E+00  0.66489670041E+01  0.66489670041E+01  0.00000000000E+00 0.  1.
         21   -1    0    0  501  503 -0.00000000000E+00 -0.00000000000E+00 -0.57039589160E+01  0.57039589160E+01  0.00000000000E+00 0.  1.
          5    1    1    2  501    0 -0.20354982022E+01 -0.31660497360E-01 -0.29567820528E+01  0.59141200043E+01  0.47000000000E+01 0.  1.
         -5    1    1    2    0  502  0.20354982022E+01  0.31660497360E-01  0.39017901408E+01  0.64388059158E+01  0.47000000000E+01 0.  1.
<mgrwt>
<rscale>  2 0.51219386E+01</rscale>
<asrwt>0</asrwt>
<pdfrwt beam="1">  1       21 0.10229180E-02 0.51219386E+01</pdfrwt>
<pdfrwt beam="2">  1       21 0.87753214E-03 0.51219386E+01</pdfrwt>
<totfact> 0.31598970E+09</totfact>
</mgrwt>
</event>
<event>
 4    1  0.3992289E+006  0.4745293E+01  0.7546771E-02  0.2614424E+00
         21   -1    0    0  501  502  0.00000000000E+00  0.00000000000E+00  0.97225346295E+00  0.97225346295E+00  0.00000000000E+00 0.  1.
         21   -1    0    0  502  503 -0.00000000000E+00 -0.00000000000E+00 -0.25505419289E+02  0.25505419289E+02  0.00000000000E+00 0.  1.
          5    1    1    2  501    0 -0.59404658966E+00  0.27370468321E+00 -0.82523342949E+01  0.95193921507E+01  0.47000000000E+01 0.  1.
         -5    1    1    2    0  503  0.59404658966E+00 -0.27370468321E+00 -0.16280831531E+02  0.16958280601E+02  0.47000000000E+01 0.  1.
<mgrwt>
<rscale>  2 0.47452930E+01</rscale>
<asrwt>0</asrwt>
<pdfrwt beam="1">  1       21 0.14957745E-03 0.47452930E+01</pdfrwt>
<pdfrwt beam="2">  1       21 0.39239107E-02 0.47452930E+01</pdfrwt>
<totfact> 0.48275181E+09</totfact>
</mgrwt>
</event>
<event>
 4    1  0.3992289E+006  0.5315422E+01  0.7546771E-02  0.2514066E+00
         21   -1    0    0  501  502  0.00000000000E+00  0.00000000000E+00  0.11466427150E+02  0.11466427150E+02  0.00000000000E+00 0.  1.
         21   -1    0    0  502  503 -0.00000000000E+00 -0.00000000000E+00 -0.47071238668E+01  0.47071238668E+01  0.00000000000E+00 0. -1.
          5    1    1    2  501    0 -0.21043842255E+01  0.13172984896E+01  0.89620465567E+01  0.10419788230E+02  0.47000000000E+01 0.  1.
         -5    1    1    2    0  503  0.21043842255E+01 -0.13172984896E+01 -0.22027432733E+01  0.57537627868E+01  0.47000000000E+01 0. -1.
<mgrwt>
<rscale>  2 0.53154217E+01</rscale>
<asrwt>0</asrwt>
<pdfrwt beam="1">  1       21 0.17640657E-02 0.53154217E+01</pdfrwt>
<pdfrwt beam="2">  1       21 0.72417291E-03 0.53154217E+01</pdfrwt>
<totfact> 0.19881798E+09</totfact>
</mgrwt>
</event>
<event>
 4    1  0.3992289E+006  0.5043071E+01  0.7546771E-02  0.2559569E+00
         21   -1    0    0  503  502  0.00000000000E+00  0.00000000000E+00  0.46935177264E+02  0.46935177264E+02  0.00000000000E+00 0. -1.
         21   -1    0    0  501  503 -0.00000000000E+00 -0.00000000000E+00 -0.54987830021E+00  0.54987830021E+00  0.00000000000E+00 0. -1.
          5    1    1    2  501    0  0.14781996934E+01  0.10758662067E+01  0.20326620696E+02  0.20942876387E+02  0.47000000000E+01 0.  1.
         -5    1    1    2    0  502 -0.14781996934E+01 -0.10758662067E+01  0.26058678268E+02  0.26542179178E+02  0.47000000000E+01 0.  1.
<mgrwt>
<rscale>  2 0.50430707E+01</rscale>
<asrwt>0</asrwt>
<pdfrwt beam="1">  1       21 0.72207933E-02 0.50430707E+01</pdfrwt>
<pdfrwt beam="2">  1       21 0.84596699E-04 0.50430707E+01</pdfrwt>
<totfact> 0.44980452E+09</totfact>
</mgrwt>
</event>
<event>
 4    1  0.3992289E+006  0.8269193E+01  0.7546771E-02  0.2189345E+00
         21   -1    0    0  503  502  0.00000000000E+00  0.00000000000E+00  0.41742087123E+01  0.41742087123E+01  0.00000000000E+00 0.  1.
         21   -1    0    0  501  503 -0.00000000000E+00 -0.00000000000E+00 -0.30401913704E+02  0.30401913704E+02  0.00000000000E+00 0. -1.
          5    1    1    2  501    0  0.64467082559E+01  0.21747419794E+01 -0.24854097832E+02  0.26193620007E+02  0.47000000000E+01 0. -1.
         -5    1    1    2    0  502 -0.64467082559E+01 -0.21747419794E+01 -0.13736071594E+01  0.83825024093E+01  0.47000000000E+01 0.  1.
<mgrwt>
<rscale>  2 0.82691928E+01</rscale>
<asrwt>0</asrwt>
<pdfrwt beam="1">  1       21 0.64218595E-03 0.82691928E+01</pdfrwt>
<pdfrwt beam="2">  1       21 0.46772175E-02 0.82691928E+01</pdfrwt>
<totfact> 0.79857308E+08</totfact>
</mgrwt>
</event>
<event>
 4    1  0.3992289E+006  0.7821904E+01  0.7546771E-02  0.2225331E+00
         21   -1    0    0  503  502  0.00000000000E+00  0.00000000000E+00  0.91468964127E+02  0.91468964127E+02  0.00000000000E+00 0. -1.
         21   -1    0    0  501  503 -0.00000000000E+00 -0.00000000000E+00 -0.90283272337E+00  0.90283272337E+00  0.00000000000E+00 0. -1.
          5    1    1    2  501    0  0.60396451011E+01  0.16170576631E+01  0.21772370968E+02  0.23134786059E+02  0.47000000000E+01 0. -1.
         -5    1    1    2    0  502 -0.60396451011E+01 -0.16170576631E+01  0.68793760435E+02  0.69237010791E+02  0.47000000000E+01 0. -1.
<mgrwt>
<rscale>  2 0.78219044E+01</rscale>
<asrwt>0</asrwt>
<pdfrwt beam="1">  1       21 0.14072141E-01 0.78219044E+01</pdfrwt>
<pdfrwt beam="2">  1       21 0.13889741E-03 0.78219044E+01</pdfrwt>
<totfact> 0.11835675E+09</totfact>
</mgrwt>
</event>
<event>
 4    1  0.3992289E+006  0.6169956E+01  0.7546771E-02  0.2393815E+00
         21   -1    0    0  503  502  0.00000000000E+00  0.00000000000E+00  0.75657253380E+01  0.75657253380E+01  0.00000000000E+00 0. -1.
         21   -1    0    0  501  503 -0.00000000000E+00 -0.00000000000E+00 -0.85203484090E+01  0.85203484090E+01  0.00000000000E+00 0. -1.
          5    1    1    2  501    0 -0.38874850326E+01 -0.93049155191E+00 -0.56239167342E+01  0.83484605671E+01  0.47000000000E+01 0. -1.
         -5    1    1    2    0  502  0.38874850326E+01  0.93049155191E+00  0.46692936633E+01  0.77376131798E+01  0.47000000000E+01 0. -1.
<mgrwt>
<rscale>  2 0.61699558E+01</rscale>
<asrwt>0</asrwt>
<pdfrwt beam="1">  1       21 0.11639577E-02 0.61699558E+01</pdfrwt>
<pdfrwt beam="2">  1       21 0.13108228E-02 0.61699558E+01</pdfrwt>
<totfact> 0.17777151E+09</totfact>
</mgrwt>
</event>
<event>
 4    1  0.3992289E+006  0.5161667E+01  0.7546771E-02  0.2539249E+00
         21   -1    0    0  501  502  0.00000000000E+00  0.00000000000E+00  0.18998840237E+02  0.18998840237E+02  0.00000000000E+00 0.  1.
         21   -1    0    0  502  503 -0.00000000000E+00 -0.00000000000E+00 -0.11247429373E+02  0.11247429373E+02  0.00000000000E+00 0.  1.
          5    1    1    2  501    0 -0.82111032895E+00  0.19694116029E+01  0.18024682791E+02  0.18749186488E+02  0.47000000000E+01 0.  1.
         -5    1    1    2    0  503  0.82111032895E+00 -0.19694116029E+01 -0.10273271927E+02  0.11497083123E+02  0.47000000000E+01 0.  1.
<mgrwt>
<rscale>  2 0.51616668E+01</rscale>
<asrwt>0</asrwt>
<pdfrwt beam="1">  1       21 0.29228985E-02 0.51616668E+01</pdfrwt>
<pdfrwt beam="2">  1       21 0.17303738E-02 0.51616668E+01</pdfrwt>
<totfact> 0.27737177E+08</totfact>
</mgrwt>
</event>
<event>
 4    1  0.3992289E+006  0.5142695E+01  0.7546771E-02  0.2542446E+00
         21   -1    0    0  501  502  0.00000000000E+00  0.00000000000E+00  0.80812881117E+01  0.80812881117E+01  0.00000000000E+00 0. -1.
         21   -1    0    0  502  503 -0.00000000000E+00 -0.00000000000E+00 -0.57043671113E+02  0.57043671113E+02  0.00000000000E+00 0. -1.
          5    1    1    2  501    0 -0.97483858011E+00 -0.18458065530E+01  0.71334189398E+01  0.87939170942E+01  0.47000000000E+01 0. -1.
         -5    1    1    2    0  503  0.97483858011E+00  0.18458065530E+01 -0.56095801941E+02  0.56331042131E+02  0.47000000000E+01 0. -1.
<mgrwt>
<rscale>  2 0.51426950E+01</rscale>
<asrwt>0</asrwt>
<pdfrwt beam="1">  1       21 0.12432751E-02 0.51426950E+01</pdfrwt>
<pdfrwt beam="2">  1       21 0.87759495E-02 0.51426950E+01</pdfrwt>
<totfact> 0.87773698E+07</totfact>
</mgrwt>
</event>
<event>
 4    1  0.3992289E+006  0.4750974E+01  0.7546771E-02  0.2613322E+00
         21   -1    0    0  501  502  0.00000000000E+00  0.00000000000E+00  0.16268134533E+00  0.16268134533E+00  0.00000000000E+00 0. -1.
         21   -1    0    0  502  503 -0.00000000000E+00 -0.00000000000E+00 -0.13997723409E+03  0.13997723409E+03  0.00000000000E+00 0. -1.
          5    1    1    2  501    0 -0.69195174845E+00  0.54337622429E-01 -0.63341612547E+02  0.63519537387E+02  0.47000000000E+01 0. -1.
         -5    1    1    2    0  503  0.69195174845E+00 -0.54337622429E-01 -0.76472940198E+02  0.76620378048E+02  0.47000000000E+01 0. -1.
<mgrwt>
<rscale>  2 0.47509736E+01</rscale>
<asrwt>0</asrwt>
<pdfrwt beam="1">  1       21 0.25027954E-04 0.47509736E+01</pdfrwt>
<pdfrwt beam="2">  1       21 0.21534912E-01 0.47509736E+01</pdfrwt>
<totfact> 0.39677062E+09</totfact>
</mgrwt>
</event>
<event>
 4    1  0.3992289E+006  0.5864189E+01  0.7546771E-02  0.2433442E+00
         21   -1    0    0  503  502  0.00000000000E+00  0.00000000000E+00  0.19236246642E+00  0.19236246642E+00  0.00000000000E+00 0. -1.
         21   -1    0    0  501  503 -0.00000000000E+00 -0.00000000000E+00 -0.21462936345E+03  0.21462936345E+03  0.00000000000E+00 0.  1.
          5    1    1    2  501    0  0.11679706986E+01 -0.33067442690E+01 -0.15112234596E+03  0.15123608089E+03  0.47000000000E+01 0.  1.
         -5    1    1    2    0  502 -0.11679706986E+01  0.33067442690E+01 -0.63314655016E+02  0.63585645023E+02  0.47000000000E+01 0. -1.
<mgrwt>
<rscale>  2 0.58641890E+01</rscale>
<asrwt>0</asrwt>
<pdfrwt beam="1">  1       21 0.29594324E-04 0.58641890E+01</pdfrwt>
<pdfrwt beam="2">  1       21 0.33019792E-01 0.58641890E+01</pdfrwt>
<totfact> 0.18988741E+09</totfact>
</mgrwt>
</event>
<event>
 4    1  0.3992289E+006  0.9658478E+01  0.7546771E-02  0.2094961E+00
         21   -1    0    0  501  502  0.00000000000E+00  0.00000000000E+00  0.35667435555E-01  0.35667435555E-01  0.00000000000E+00 0.  1.
         21   -1    0    0  502  503 -0.00000000000E+00 -0.00000000000E+00 -0.26159449554E+04  0.26159449554E+04  0.00000000000E+00 0. -1.
          5    1    1    2  501    0  0.44631405817E+01 -0.71607660533E+01 -0.13260480158E+04  0.13260831898E+04  0.47000000000E+01 0. -1.
         -5    1    1    2    0  503 -0.44631405817E+01  0.71607660533E+01 -0.12898612722E+04  0.12898974330E+04  0.47000000000E+01 0. -1.
<mgrwt>
<rscale>  2 0.96584778E+01</rscale>
<asrwt>0</asrwt>
<pdfrwt beam="1">  1       21 0.54883414E-05 0.96584778E+01</pdfrwt>
<pdfrwt beam="2">  1       21 0.40237654E+00 0.96584778E+01</pdfrwt>
<totfact> 0.83339758E+07</totfact>
</mgrwt>
</event>
<event>
 4    1  0.3992289E+006  0.5124699E+01  0.7546771E-02  0.2545497E+00
         21   -1    0    0  501  502  0.00000000000E+00  0.00000000000E+00  0.77940918220E+00  0.77940918220E+00  0.00000000000E+00 0. -1.
         21   -1    0    0  502  503 -0.00000000000E+00 -0.00000000000E+00 -0.33849473140E+02  0.33849473140E+02  0.00000000000E+00 0. -1.
          5    1    1    2  501    0  0.20169962990E+01  0.32289500260E+00 -0.15367040286E+02  0.16199026588E+02  0.47000000000E+01 0.  1.
         -5    1    1    2    0  503 -0.20169962990E+01 -0.32289500260E+00 -0.17703023672E+02  0.18429855735E+02  0.47000000000E+01 0.  1.
<mgrwt>
<rscale>  2 0.51246986E+01</rscale>
<asrwt>0</asrwt>
<pdfrwt beam="1">  1       21 0.11990912E-03 0.51246986E+01</pdfrwt>
<pdfrwt beam="2">  1       21 0.52076105E-02 0.51246986E+01</pdfrwt>
<totfact> 0.46580954E+09</totfact>
</mgrwt>
</event>
<event>
 4    1  0.3992289E+006  0.5066865E+01  0.7546771E-02  0.2555427E+00
         21   -1    0    0  501  502  0.00000000000E+00  0.00000000000E+00  0.31244021144E+01  0.31244021144E+01  0.00000000000E+00 0.  1.
         21   -1    0    0  502  503 -0.00000000000E+00 -0.00000000000E+00 -0.11972374320E+02  0.11972374320E+02  0.00000000000E+00 0. -1.
          5    1    1    2  501    0  0.17415750526E+01  0.74164602695E+00 -0.19640098439E+00  0.50706701569E+01  0.47000000000E+01 0.  1.
         -5    1    1    2    0  503 -0.17415750526E+01 -0.74164602695E+00 -0.86515712210E+01  0.10026106277E+02  0.47000000000E+01 0. -1.
<mgrwt>
<rscale>  2 0.50668652E+01</rscale>
<asrwt>0</asrwt>
<pdfrwt beam="1">  1       21 0.48067723E-03 0.50668652E+01</pdfrwt>
<pdfrwt beam="2">  1       21 0.18419038E-02 0.50668652E+01</pdfrwt>
<totfact> 0.31411909E+09</totfact>
</mgrwt>
</event>
<event>
 4    1  0.3992289E+006  0.1019489E+02  0.7546771E-02  0.2064063E+00
         21   -1    0    0  503  502  0.00000000000E+00  0.00000000000E+00  0.83055992131E+00  0.83055992131E+00  0.00000000000E+00 0. -1.
         21   -1    0    0  501  503 -0.00000000000E+00 -0.00000000000E+00 -0.13678571946E+03  0.13678571946E+03  0.00000000000E+00 0.  1.
          5    1    1    2  501    0 -0.76381806738E+01 -0.48480813923E+01 -0.88055347485E+02  0.88643555423E+02  0.47000000000E+01 0.  1.
         -5    1    1    2    0  502  0.76381806738E+01  0.48480813923E+01 -0.47899812053E+02  0.48972723959E+02  0.47000000000E+01 0. -1.
<mgrwt>
<rscale>  2 0.10194886E+02</rscale>
<asrwt>0</asrwt>
<pdfrwt beam="1">  1       21 0.12777843E-03 0.10194886E+02</pdfrwt>
<pdfrwt beam="2">  1       21 0.21043959E-01 0.10194886E+02</pdfrwt>
<totfact> 0.80362920E+08</totfact>
</mgrwt>
</event>
<event>
 4    1  0.3992289E+006  0.9673788E+01  0.7546771E-02  0.2094042E+00
         21   -1    0    0  501  502  0.00000000000E+00  0.00000000000E+00  0.29480596476E+00  0.29480596476E+00  0.00000000000E+00 0.  1.
         21   -1    0    0  502  503 -0.00000000000E+00 -0.00000000000E+00 -0.40150297632E+03  0.40150297632E+03  0.00000000000E+00 0. -1.
          5    1    1    2  501    0 -0.49806453744E+01 -0.68326680946E+01 -0.10867678465E+03  0.10910648791E+03  0.47000000000E+01 0. -1.
         -5    1    1    2    0  503  0.49806453744E+01  0.68326680946E+01 -0.29253138571E+03  0.29269129438E+03  0.47000000000E+01 0.  1.
<mgrwt>
<rscale>  2 0.96737884E+01</rscale>
<asrwt>0</asrwt>
<pdfrwt beam="1">  1       21 0.45354557E-04 0.96737884E+01</pdfrwt>
<pdfrwt beam="2">  1       21 0.61769970E-01 0.96737884E+01</pdfrwt>
<totfact> 0.47341782E+08</totfact>
</mgrwt>
</event>
<event>
 4    1  0.3992289E+006  0.8239730E+01  0.7546771E-02  0.2191618E+00
         21   -1    0    0  503  502  0.00000000000E+00  0.00000000000E+00  0.63254007327E+02  0.63254007327E+02  0.00000000000E+00 0. -1.
         21   -1    0    0  501  503 -0.00000000000E+00 -0.00000000000E+00 -0.14166189063E+01  0.14166189063E+01  0.00000000000E+00 0.  1.
          5    1    1    2  501    0 -0.67143917321E+01  0.84858505035E+00  0.15001256981E+02  0.17115223163E+02  0.47000000000E+01 0.  1.
         -5    1    1    2    0  502  0.67143917321E+01 -0.84858505035E+00  0.46836131440E+02  0.47555403070E+02  0.47000000000E+01 0. -1.
<mgrwt>
<rscale>  2 0.82397301E+01</rscale>
<asrwt>0</asrwt>
<pdfrwt beam="1">  1       21 0.97313835E-02 0.82397301E+01</pdfrwt>
<pdfrwt beam="2">  1       21 0.21794142E-03 0.82397301E+01</pdfrwt>
<totfact> 0.11793889E+09</totfact>
</mgrwt>
</event>
<event>
 4    1  0.3992289E+006  0.6738152E+01  0.7546771E-02  0.2328230E+00
         21   -1    0    0  501  502  0.00000000000E+00  0.00000000000E+00  0.29823033974E+03  0.29823033974E+03  0.00000000000E+00 0. -1.
         21   -1    0    0  502  503 -0.00000000000E+00 -0.00000000000E+00 -0.21074481685E+00  0.21074481685E+00  0.00000000000E+00 0.  1.
          5    1    1    2  501    0 -0.46047527277E+01 -0.14522212604E+01  0.22763189731E+03  0.22773160379E+03  0.47000000000E+01 0. -1.
         -5    1    1    2    0  503  0.46047527277E+01  0.14522212604E+01  0.70387697611E+02  0.70709480760E+02  0.47000000000E+01 0.  1.
<mgrwt>
<rscale>  2 0.67381521E+01</rscale>
<asrwt>0</asrwt>
<pdfrwt beam="1">  1       21 0.45881253E-01 0.67381521E+01</pdfrwt>
<pdfrwt beam="2">  1       21 0.32422518E-04 0.67381521E+01</pdfrwt>
<totfact> 0.10483959E+09</totfact>
</mgrwt>
</event>
<event>
 4    1  0.3992289E+006  0.7378458E+01  0.7546771E-02  0.2264450E+00
         21   -1    0    0  503  502  0.00000000000E+00  0.00000000000E+00  0.11422709495E+02  0.11422709495E+02  0.00000000000E+00 0. -1.
         21   -1    0    0  501  503 -0.00000000000E+00 -0.00000000000E+00 -0.48788057863E+01  0.48788057863E+01  0.00000000000E+00 0.  1.
          5    1    1    2  501    0 -0.33405171822E+00 -0.56780328589E+01  0.45108508888E+01  0.86480878487E+01  0.47000000000E+01 0.  1.
         -5    1    1    2    0  502  0.33405171822E+00  0.56780328589E+01  0.20330528198E+01  0.76534274326E+01  0.47000000000E+01 0.  1.
<mgrwt>
<rscale>  2 0.73784584E+01</rscale>
<asrwt>0</asrwt>
<pdfrwt beam="1">  1       21 0.17573399E-02 0.73784584E+01</pdfrwt>
<pdfrwt beam="2">  1       21 0.75058551E-03 0.73784584E+01</pdfrwt>
<totfact> 0.25090253E+09</totfact>
</mgrwt>
</event>
<event>
 4    1  0.3992289E+006  0.5294972E+01  0.7546771E-02  0.2517344E+00
         21   -1    0    0  501  502  0.00000000000E+00  0.00000000000E+00  0.36498232897E+00  0.36498232897E+00  0.00000000000E+00 0. -1.
         21   -1    0    0  502  503 -0.00000000000E+00 -0.00000000000E+00 -0.22533617715E+03  0.22533617715E+03  0.00000000000E+00 0.  1.
          5    1    1    2  501    0 -0.45513490237E+00 -0.23957416212E+01 -0.20867748920E+02  0.21529042494E+02  0.47000000000E+01 0. -1.
         -5    1    1    2    0  503  0.45513490237E+00  0.23957416212E+01 -0.20410344590E+03  0.20417211698E+03  0.47000000000E+01 0.  1.
<mgrwt>
<rscale>  2 0.52949717E+01</rscale>
<asrwt>0</asrwt>
<pdfrwt beam="1">  1       21 0.56151081E-04 0.52949717E+01</pdfrwt>
<pdfrwt beam="2">  1       21 0.34667133E-01 0.52949717E+01</pdfrwt>
<totfact> 0.68661021E+08</totfact>
</mgrwt>
</event>
<event>
 4    1  0.3992289E+006  0.8307852E+01  0.7546771E-02  0.2186381E+00
         21   -1    0    0  503  502  0.00000000000E+00  0.00000000000E+00  0.82315345930E+02  0.82315345930E+02  0.00000000000E+00 0.  1.
         21   -1    0    0  501  503 -0.00000000000E+00 -0.00000000000E+00 -0.84763783004E+00  0.84763783004E+00  0.00000000000E+00 0. -1.
          5    1    1    2  501    0  0.45350252841E+01 -0.51345845310E+01  0.36413629125E+02  0.37349334649E+02  0.47000000000E+01 0. -1.
         -5    1    1    2    0  502 -0.45350252841E+01  0.51345845310E+01  0.45054078975E+02  0.45813649111E+02  0.47000000000E+01 0.  1.
<mgrwt>
<rscale>  2 0.83078525E+01</rscale>
<asrwt>0</asrwt>
<pdfrwt beam="1">  1       21 0.12663893E-01 0.83078525E+01</pdfrwt>
<pdfrwt beam="2">  1       21 0.13040588E-03 0.83078525E+01</pdfrwt>
<totfact> 0.15887855E+09</totfact>
</mgrwt>
</event>
<event>
 4    1  0.3992289E+006  0.5702236E+01  0.7546771E-02  0.2455868E+00
         21   -1    0    0  501  502  0.00000000000E+00  0.00000000000E+00  0.16224785210E+01  0.16224785210E+01  0.00000000000E+00 0. -1.
         21   -1    0    0  502  503 -0.00000000000E+00 -0.00000000000E+00 -0.71373665538E+02  0.71373665538E+02  0.00000000000E+00 0. -1.
          5    1    1    2  501    0  0.19079179987E+01 -0.26048697399E+01 -0.39228334143E+01  0.69212801885E+01  0.47000000000E+01 0. -1.
         -5    1    1    2    0  503 -0.19079179987E+01  0.26048697399E+01 -0.65828353603E+02  0.66074863870E+02  0.47000000000E+01 0. -1.
<mgrwt>
<rscale>  2 0.57022362E+01</rscale>
<asrwt>0</asrwt>
<pdfrwt beam="1">  1       21 0.24961214E-03 0.57022362E+01</pdfrwt>
<pdfrwt beam="2">  1       21 0.10980561E-01 0.57022362E+01</pdfrwt>
<totfact> 0.62338481E+08</totfact>
</mgrwt>
</event>
<event>
 4    1  0.3992289E+006  0.6164224E+01  0.7546771E-02  0.2394527E+00
         21   -1    0    0  503  502  0.00000000000E+00  0.00000000000E+00  0.55629742211E+01  0.55629742211E+01  0.00000000000E+00 0. -1.
         21   -1    0    0  501  503 -0.00000000000E+00 -0.00000000000E+00 -0.68415106243E+01  0.68415106243E+01  0.00000000000E+00 0.  1.
          5    1    1    2  501    0 -0.35783647626E+01  0.17615227225E+01 -0.88856886617E+00  0.62279379658E+01  0.47000000000E+01 0. -1.
         -5    1    1    2    0  502  0.35783647626E+01 -0.17615227225E+01 -0.38996753708E+00  0.61765468796E+01  0.47000000000E+01 0. -1.
<mgrwt>
<rscale>  2 0.61642239E+01</rscale>
<asrwt>0</asrwt>
<pdfrwt beam="1">  1       21 0.85584219E-03 0.61642239E+01</pdfrwt>
<pdfrwt beam="2">  1       21 0.10525401E-02 0.61642239E+01</pdfrwt>
<totfact> 0.37455258E+09</totfact>
</mgrwt>
</event>
<event>
 4    1  0.3992289E+006  0.5120478E+01  0.7546771E-02  0.2546215E+00
         21   -1    0    0  503  502  0.00000000000E+00  0.00000000000E+00  0.13471614308E+00  0.13471614308E+00  0.00000000000E+00 0.  1.
         21   -1    0    0  501  503 -0.00000000000E+00 -0.00000000000E+00 -0.19464303017E+03  0.19464303017E+03  0.00000000000E+00 0.  1.
          5    1    1    2  501    0 -0.17968754162E+00 -0.20241072444E+01 -0.96349909268E+02  0.96485876239E+02  0.47000000000E+01 0.  1.
         -5    1    1    2    0  502  0.17968754162E+00  0.20241072444E+01 -0.98158404761E+02  0.98291870076E+02  0.47000000000E+01 0.  1.
<mgrwt>
<rscale>  2 0.51204783E+01</rscale>
<asrwt>0</asrwt>
<pdfrwt beam="1">  1       21 0.20725744E-04 0.51204783E+01</pdfrwt>
<pdfrwt beam="2">  1       21 0.29944817E-01 0.51204783E+01</pdfrwt>
<totfact> 0.32003257E+09</totfact>
</mgrwt>
</event>
<event>
 4    1  0.3992289E+006  0.5139325E+01  0.7546771E-02  0.2543016E+00
         21   -1    0    0  501  502  0.00000000000E+00  0.00000000000E+00  0.49077654177E+00  0.49077654177E+00  0.00000000000E+00 0. -1.
         21   -1    0    0  502  503 -0.00000000000E+00 -0.00000000000E+00 -0.88326942585E+02  0.88326942585E+02  0.00000000000E+00 0. -1.
          5    1    1    2  501    0  0.20097202465E+01 -0.53262259166E+00 -0.16160081082E+02  0.16957620201E+02  0.47000000000E+01 0. -1.
         -5    1    1    2    0  503 -0.20097202465E+01  0.53262259166E+00 -0.71676084961E+02  0.71860098926E+02  0.47000000000E+01 0. -1.
<mgrwt>
<rscale>  2 0.51393251E+01</rscale>
<asrwt>0</asrwt>
<pdfrwt beam="1">  1       21 0.75504134E-04 0.51393251E+01</pdfrwt>
<pdfrwt beam="2">  1       21 0.13588751E-01 0.51393251E+01</pdfrwt>
<totfact> 0.20446540E+09</totfact>
</mgrwt>
</event>
<event>
 4    1  0.3992289E+006  0.8562842E+01  0.7546771E-02  0.2167374E+00
         21   -1    0    0  503  502  0.00000000000E+00  0.00000000000E+00  0.58036992840E+02  0.58036992840E+02  0.00000000000E+00 0. -1.
         21   -1    0    0  501  503 -0.00000000000E+00 -0.00000000000E+00 -0.61709203044E+01  0.61709203044E+01  0.00000000000E+00 0.  1.
          5    1    1    2  501    0  0.70479302128E+01 -0.12485737681E+01 -0.26966061552E+01  0.89774128509E+01  0.47000000000E+01 0.  1.
         -5    1    1    2    0  502 -0.70479302128E+01  0.12485737681E+01  0.54562678691E+02  0.55230500294E+02  0.47000000000E+01 0. -1.
<mgrwt>
<rscale>  2 0.85628416E+01</rscale>
<asrwt>0</asrwt>
<pdfrwt beam="1">  1       21 0.89287677E-02 0.85628416E+01</pdfrwt>
<pdfrwt beam="2">  1       21 0.94937240E-03 0.85628416E+01</pdfrwt>
<totfact> 0.17277547E+08</totfact>
</mgrwt>
</event>
<event>
 4    1  0.3992289E+006  0.7317729E+01  0.7546771E-02  0.2270106E+00
         21   -1    0    0  503  502  0.00000000000E+00  0.00000000000E+00  0.32634135999E+03  0.32634135999E+03  0.00000000000E+00 0.  1.
         21   -1    0    0  501  503 -0.00000000000E+00 -0.00000000000E+00 -0.32646104960E+00  0.32646104960E+00  0.00000000000E+00 0. -1.
          5    1    1    2  501    0 -0.21919931602E+01  0.51627831268E+01  0.47817191227E+02  0.48373886969E+02  0.47000000000E+01 0. -1.
         -5    1    1    2    0  502  0.21919931602E+01 -0.51627831268E+01  0.27819770771E+03  0.27829393407E+03  0.47000000000E+01 0.  1.
<mgrwt>
<rscale>  2 0.73177294E+01</rscale>
<asrwt>0</asrwt>
<pdfrwt beam="1">  1       21 0.50206102E-01 0.73177294E+01</pdfrwt>
<pdfrwt beam="2">  1       21 0.50225038E-04 0.73177294E+01</pdfrwt>
<totfact> 0.52120792E+08</totfact>
</mgrwt>
</event>
<event>
 4    1  0.3992289E+006  0.4884768E+01  0.7546771E-02  0.2588011E+00
         21   -1    0    0  503  502  0.00000000000E+00  0.00000000000E+00  0.59922707043E+01  0.59922707043E+01  0.00000000000E+00 0.  1.
         21   -1    0    0  501  503 -0.00000000000E+00 -0.00000000000E+00 -0.50907372965E+01  0.50907372965E+01  0.00000000000E+00 0.  1.
          5    1    1    2  501    0 -0.74657272310E+00  0.11016301867E+01 -0.21354219434E+01  0.53311337233E+01  0.47000000000E+01 0.  1.
         -5    1    1    2    0  502  0.74657272310E+00 -0.11016301867E+01  0.30369553512E+01  0.57518742775E+01  0.47000000000E+01 0.  1.
<mgrwt>
<rscale>  2 0.48847682E+01</rscale>
<asrwt>0</asrwt>
<pdfrwt beam="1">  1       21 0.92188780E-03 0.48847682E+01</pdfrwt>
<pdfrwt beam="2">  1       21 0.78319035E-03 0.48847682E+01</pdfrwt>
<totfact> 0.40712291E+09</totfact>
</mgrwt>
</event>
<event>
 4    1  0.3992289E+006  0.8509437E+01  0.7546771E-02  0.2171279E+00
         21   -1    0    0  503  502  0.00000000000E+00  0.00000000000E+00  0.16219165156E+02  0.16219165156E+02  0.00000000000E+00 0. -1.
         21   -1    0    0  501  503 -0.00000000000E+00 -0.00000000000E+00 -0.44645271811E+01  0.44645271811E+01  0.00000000000E+00 0.  1.
          5    1    1    2  501    0 -0.64841809219E+01 -0.28767879214E+01  0.59014035086E+01  0.10355533513E+02  0.47000000000E+01 0.  1.
         -5    1    1    2    0  502  0.64841809219E+01  0.28767879214E+01  0.58532344662E+01  0.10328158824E+02  0.47000000000E+01 0. -1.
<mgrwt>
<rscale>  2 0.85094366E+01</rscale>
<asrwt>0</asrwt>
<pdfrwt beam="1">  1       21 0.24952562E-02 0.85094366E+01</pdfrwt>
<pdfrwt beam="2">  1       21 0.68685034E-03 0.85094366E+01</pdfrwt>
<totfact> 0.18887459E+09</totfact>
</mgrwt>
</event>
<event>
 4    1  0.3992289E+006  0.9900507E+01  0.7546771E-02  0.2080695E+00
         21   -1    0    0  501  502  0.00000000000E+00  0.00000000000E+00  0.18361467303E+02  0.18361467303E+02  0.00000000000E+00 0. -1.
         21   -1    0    0  502  503 -0.00000000000E+00 -0.00000000000E+00 -0.13794637622E+02  0.13794637622E+02  0.00000000000E+00 0.  1.
          5    1    1    2  501    0 -0.58497034992E+01 -0.64584057715E+01  0.14871742265E+02  0.17865854419E+02  0.47000000000E+01 0. -1.
         -5    1    1    2    0  503  0.58497034992E+01  0.64584057715E+01 -0.10304912585E+02  0.14290250506E+02  0.47000000000E+01 0.  1.
<mgrwt>
<rscale>  2 0.99005069E+01</rscale>
<asrwt>0</asrwt>
<pdfrwt beam="1">  1       21 0.28248411E-02 0.99005069E+01</pdfrwt>
<pdfrwt beam="2">  1       21 0.21222520E-02 0.99005069E+01</pdfrwt>
<totfact> 0.33445709E+08</totfact>
</mgrwt>
</event>
<event>
 4    1  0.3992289E+006  0.5007750E+01  0.7546771E-02  0.2565781E+00
         21   -1    0    0  501  502  0.00000000000E+00  0.00000000000E+00  0.14454439810E+04  0.14454439810E+04  0.00000000000E+00 0. -1.
         21   -1    0    0  502  503 -0.00000000000E+00 -0.00000000000E+00 -0.22531194242E-01  0.22531194242E-01  0.00000000000E+00 0. -1.
          5    1    1    2  501    0  0.91178348022E+00 -0.14684033746E+01  0.10693093481E+04  0.10693210741E+04  0.47000000000E+01 0. -1.
         -5    1    1    2    0  503 -0.91178348022E+00  0.14684033746E+01  0.37611210168E+03  0.37614543808E+03  0.47000000000E+01 0. -1.
<mgrwt>
<rscale>  2 0.50077498E+01</rscale>
<asrwt>0</asrwt>
<pdfrwt beam="1">  1       21 0.22230175E+00 0.50077498E+01</pdfrwt>
<pdfrwt beam="2">  1       21 0.34674953E-05 0.50077498E+01</pdfrwt>
<totfact> 0.71455705E+08</totfact>
</mgrwt>
</event>
<event>
 4    1  0.3992289E+006  0.5768790E+01  0.7546771E-02  0.2446524E+00
         21   -1    0    0  501  502  0.00000000000E+00  0.00000000000E+00  0.54940752946E+00  0.54940752946E+00  0.00000000000E+00 0. -1.
         21   -1    0    0  502  503 -0.00000000000E+00 -0.00000000000E+00 -0.61211540917E+02  0.61211540917E+02  0.00000000000E+00 0.  1.
          5    1    1    2  501    0 -0.29353917418E+01 -0.16038730784E+01 -0.27175589365E+02  0.27781137322E+02  0.47000000000E+01 0. -1.
         -5    1    1    2    0  503  0.29353917418E+01  0.16038730784E+01 -0.33486544023E+02  0.33979811125E+02  0.47000000000E+01 0.  1.
<mgrwt>
<rscale>  2 0.57687896E+01</rscale>
<asrwt>0</asrwt>
<pdfrwt beam="1">  1       21 0.84524228E-04 0.57687896E+01</pdfrwt>
<pdfrwt beam="2">  1       21 0.94171609E-02 0.57687896E+01</pdfrwt>
<totfact> 0.34328034E+09</totfact>
</mgrwt>
</event>
<event>
 4    1  0.3992289E+006  0.4763262E+01  0.7546771E-02  0.2610946E+00
         21   -1    0    0  501  502  0.00000000000E+00  0.00000000000E+00  0.58383130426E+03  0.58383130426E+03  0.00000000000E+00 0. -1.
         21   -1    0    0  502  503 -0.00000000000E+00 -0.00000000000E+00 -0.60720308177E-01  0.60720308177E-01  0.00000000000E+00 0. -1.
          5    1    1    2  501    0  0.51514477456E+00  0.57731615838E+00  0.46705014471E+03  0.46707443340E+03  0.47000000000E+01 0. -1.
         -5    1    1    2    0  503 -0.51514477456E+00 -0.57731615838E+00  0.11672043925E+03  0.11681759117E+03  0.47000000000E+01 0. -1.
<mgrwt>
<rscale>  2 0.47632623E+01</rscale>
<asrwt>0</asrwt>
<pdfrwt beam="1">  1       21 0.89815705E-01 0.47632623E+01</pdfrwt>
<pdfrwt beam="2">  1       21 0.93420534E-05 0.47632623E+01</pdfrwt>
<totfact> 0.12054850E+09</totfact>
</mgrwt>
</event>
<event>
 4    1  0.3992289E+006  0.4761202E+01  0.7546771E-02  0.2611344E+00
         21   -1    0    0  501  502  0.00000000000E+00  0.00000000000E+00  0.16338051306E+03  0.16338051306E+03  0.00000000000E+00 0.  1.
         21   -1    0    0  502  503 -0.00000000000E+00 -0.00000000000E+00 -0.28024345485E+00  0.28024345485E+00  0.00000000000E+00 0.  1.
          5    1    1    2  501    0 -0.74453688270E+00  0.15718258611E+00  0.13969549145E+03  0.13977660524E+03  0.47000000000E+01 0.  1.
         -5    1    1    2    0  503  0.74453688270E+00 -0.15718258611E+00  0.23404778160E+02  0.23884151278E+02  0.47000000000E+01 0.  1.
<mgrwt>
<rscale>  2 0.47612017E+01</rscale>
<asrwt>0</asrwt>
<pdfrwt beam="1">  1       21 0.25135387E-01 0.47612017E+01</pdfrwt>
<pdfrwt beam="2">  1       21 0.43114508E-04 0.47612017E+01</pdfrwt>
<totfact> 0.15115546E+09</totfact>
</mgrwt>
</event>
<event>
 4    1  0.3992289E+006  0.4836676E+01  0.7546771E-02  0.2596969E+00
         21   -1    0    0  501  502  0.00000000000E+00  0.00000000000E+00  0.36673047508E+02  0.36673047508E+02  0.00000000000E+00 0. -1.
         21   -1    0    0  502  503 -0.00000000000E+00 -0.00000000000E+00 -0.73104572135E+00  0.73104572135E+00  0.00000000000E+00 0. -1.
          5    1    1    2  501    0 -0.11277389806E+01 -0.17787181366E+00  0.24647020560E+02  0.25117106842E+02  0.47000000000E+01 0. -1.
         -5    1    1    2    0  503  0.11277389806E+01  0.17787181366E+00  0.11294981227E+02  0.12286986388E+02  0.47000000000E+01 0. -1.
<mgrwt>
<rscale>  2 0.48366759E+01</rscale>
<asrwt>0</asrwt>
<pdfrwt beam="1">  1       21 0.56420059E-02 0.48366759E+01</pdfrwt>
<pdfrwt beam="2">  1       21 0.11246860E-03 0.48366759E+01</pdfrwt>
<totfact> 0.42472340E+09</totfact>
</mgrwt>
</event>
<event>
 4    1  0.3992289E+006  0.4998766E+01  0.7546771E-02  0.2567373E+00
         21   -1    0    0  503  502  0.00000000000E+00  0.00000000000E+00  0.17047757833E+02  0.17047757833E+02  0.00000000000E+00 0. -1.
         21   -1    0    0  501  503 -0.00000000000E+00 -0.00000000000E+00 -0.17097159775E+01  0.17097159775E+01  0.00000000000E+00 0. -1.
          5    1    1    2  501    0 -0.16696386009E+01 -0.33161849367E+00  0.41261808296E+01  0.64817460704E+01  0.47000000000E+01 0. -1.
         -5    1    1    2    0  502  0.16696386009E+01  0.33161849367E+00  0.11211861026E+02  0.12275727740E+02  0.47000000000E+01 0. -1.
<mgrwt>
<rscale>  2 0.49987662E+01</rscale>
<asrwt>0</asrwt>
<pdfrwt beam="1">  1       21 0.26227319E-02 0.49987662E+01</pdfrwt>
<pdfrwt beam="2">  1       21 0.26303324E-03 0.49987662E+01</pdfrwt>
<totfact> 0.42632452E+09</totfact>
</mgrwt>
</event>
<event>
 4    1  0.3992289E+006  0.1074514E+02  0.7546771E-02  0.2034906E+00
         21   -1    0    0  501  502  0.00000000000E+00  0.00000000000E+00  0.40474718231E+00  0.40474718231E+00  0.00000000000E+00 0.  1.
         21   -1    0    0  502  503 -0.00000000000E+00 -0.00000000000E+00 -0.29309767679E+03  0.29309767679E+03  0.00000000000E+00 0. -1.
          5    1    1    2  501    0 -0.35000570926E+01  0.90065301168E+01 -0.12234804443E+03  0.12281898046E+03  0.47000000000E+01 0.  1.
         -5    1    1    2    0  503  0.35000570926E+01 -0.90065301168E+01 -0.17034488518E+03  0.17068344352E+03  0.47000000000E+01 0. -1.
<mgrwt>
<rscale>  2 0.10745138E+02</rscale>
<asrwt>0</asrwt>
<pdfrwt beam="1">  1       21 0.62268774E-04 0.10745138E+02</pdfrwt>
<pdfrwt beam="2">  1       21 0.45091967E-01 0.10745138E+02</pdfrwt>
<totfact> 0.58372872E+08</totfact>
</mgrwt>
</event>
<event>
 4    1  0.3992289E+006  0.1075798E+02  0.7546771E-02  0.2034253E+00
         21   -1    0    0  503  502  0.00000000000E+00  0.00000000000E+00  0.88205481373E+02  0.88205481373E+02  0.00000000000E+00 0. -1.
         21   -1    0    0  501  503 -0.00000000000E+00 -0.00000000000E+00 -0.63762186889E+01  0.63762186889E+01  0.00000000000E+00 0.  1.
          5    1    1    2  501    0 -0.73425458593E+01  0.63032716444E+01 -0.12305137206E+01  0.10828128977E+02  0.47000000000E+01 0.  1.
         -5    1    1    2    0  502  0.73425458593E+01 -0.63032716444E+01  0.83059776405E+02  0.83753571086E+02  0.47000000000E+01 0. -1.
<mgrwt>
<rscale>  2 0.10757984E+02</rscale>
<asrwt>0</asrwt>
<pdfrwt beam="1">  1       21 0.13570073E-01 0.10757984E+02</pdfrwt>
<pdfrwt beam="2">  1       21 0.98095678E-03 0.10757984E+02</pdfrwt>
<totfact> 0.94418231E+07</totfact>
</mgrwt>
</event>
<event>
 4    1  0.3992289E+006  0.4877694E+01  0.7546771E-02  0.2589319E+00
         21   -1    0    0  501  502  0.00000000000E+00  0.00000000000E+00  0.15233257237E+01  0.15233257237E+01  0.00000000000E+00 0. -1.
         21   -1    0    0  502  503 -0.00000000000E+00 -0.00000000000E+00 -0.41554568878E+03  0.41554568878E+03  0.00000000000E+00 0.  1.
          5    1    1    2  501    0  0.43882563209E+00 -0.12285472213E+01 -0.24331176033E+01  0.54508675898E+01  0.47000000000E+01 0. -1.
         -5    1    1    2    0  503 -0.43882563209E+00  0.12285472213E+01 -0.41158924545E+03  0.41161814691E+03  0.47000000000E+01 0.  1.
<mgrwt>
<rscale>  2 0.48776937E+01</rscale>
<asrwt>0</asrwt>
<pdfrwt beam="1">  1       21 0.23435802E-03 0.48776937E+01</pdfrwt>
<pdfrwt beam="2">  1       21 0.63930046E-01 0.48776937E+01</pdfrwt>
<totfact> 0.32600520E+07</totfact>
</mgrwt>
</event>
<event>
 4    1  0.3992289E+006  0.6790307E+01  0.7546771E-02  0.2322668E+00
         21   -1    0    0  501  502  0.00000000000E+00  0.00000000000E+00  0.48984727600E+01  0.48984727600E+01  0.00000000000E+00 0. -1.
         21   -1    0    0  502  503 -0.00000000000E+00 -0.00000000000E+00 -0.10117495697E+02  0.10117495697E+02  0.00000000000E+00 0. -1.
          5    1    1    2  501    0 -0.48493652771E+01 -0.70846430365E+00 -0.62801809042E+00  0.68192867650E+01  0.47000000000E+01 0. -1.
         -5    1    1    2    0  503  0.48493652771E+01  0.70846430365E+00 -0.45910048468E+01  0.81966816923E+01  0.47000000000E+01 0. -1.
<mgrwt>
<rscale>  2 0.67903067E+01</rscale>
<asrwt>0</asrwt>
<pdfrwt beam="1">  1       21 0.75361119E-03 0.67903067E+01</pdfrwt>
<pdfrwt beam="2">  1       21 0.15565378E-02 0.67903067E+01</pdfrwt>
<totfact> 0.27848899E+09</totfact>
</mgrwt>
</event>
<event>
 4    1  0.3992289E+006  0.5556720E+01  0.7546771E-02  0.2476954E+00
         21   -1    0    0  503  502  0.00000000000E+00  0.00000000000E+00  0.11263564683E+04  0.11263564683E+04  0.00000000000E+00 0. -1.
         21   -1    0    0  501  503 -0.00000000000E+00 -0.00000000000E+00 -0.31174594974E-01  0.31174594974E-01  0.00000000000E+00 0.  1.
          5    1    1    2  501    0  0.21032054193E+00  0.29568401510E+01  0.75878868009E+03  0.75880902615E+03  0.47000000000E+01 0. -1.
         -5    1    1    2    0  502 -0.21032054193E+00 -0.29568401510E+01  0.36753661366E+03  0.36757861679E+03  0.47000000000E+01 0.  1.
<mgrwt>
<rscale>  2 0.55567201E+01</rscale>
<asrwt>0</asrwt>
<pdfrwt beam="1">  1       21 0.17325302E+00 0.55567201E+01</pdfrwt>
<pdfrwt beam="2">  1       21 0.47969936E-05 0.55567201E+01</pdfrwt>
<totfact> 0.84810207E+08</totfact>
</mgrwt>
</event>
<event>
 4    1  0.3992289E+006  0.5418827E+01  0.7546771E-02  0.2497819E+00
         21   -1    0    0  503  502  0.00000000000E+00  0.00000000000E+00  0.14110660723E+03  0.14110660723E+03  0.00000000000E+00 0. -1.
         21   -1    0    0  501  503 -0.00000000000E+00 -0.00000000000E+00 -0.68201695229E+00  0.68201695229E+00  0.00000000000E+00 0. -1.
          5    1    1    2  501    0 -0.61533606597E+00 -0.26258418415E+01  0.11115098249E+02  0.12365641630E+02  0.47000000000E+01 0. -1.
         -5    1    1    2    0  502  0.61533606597E+00  0.26258418415E+01  0.12930949203E+03  0.12942298255E+03  0.47000000000E+01 0. -1.
<mgrwt>
<rscale>  2 0.54188268E+01</rscale>
<asrwt>0</asrwt>
<pdfrwt beam="1">  1       21 0.21708686E-01 0.54188268E+01</pdfrwt>
<pdfrwt beam="2">  1       21 0.10492580E-03 0.54188268E+01</pdfrwt>
<totfact> 0.65974508E+08</totfact>
</mgrwt>
</event>
<event>
 4    1  0.3992289E+006  0.4732813E+01  0.7546771E-02  0.2616853E+00
         21   -1    0    0  501  502  0.00000000000E+00  0.00000000000E+00  0.22392073565E+01  0.22392073565E+01  0.00000000000E+00 0.  1.
         21   -1    0    0  502  503 -0.00000000000E+00 -0.00000000000E+00 -0.13580663790E+03  0.13580663790E+03  0.00000000000E+00 0.  1.
          5    1    1    2  501    0  0.49203774417E+00  0.25964251020E+00 -0.35147664924E+00  0.47458456791E+01  0.47000000000E+01 0.  1.
         -5    1    1    2    0  503 -0.49203774417E+00 -0.25964251020E+00 -0.13321595389E+03  0.13329999958E+03  0.47000000000E+01 0.  1.
<mgrwt>
<rscale>  2 0.47328126E+01</rscale>
<asrwt>0</asrwt>
<pdfrwt beam="1">  1       21 0.34449336E-03 0.47328126E+01</pdfrwt>
<pdfrwt beam="2">  1       21 0.20893334E-01 0.47328126E+01</pdfrwt>
<totfact> 0.12695009E+08</totfact>
</mgrwt>
</event>
<event>
 4    1  0.3992289E+006  0.6212873E+01  0.7546771E-02  0.2388515E+00
         21   -1    0    0  501  502  0.00000000000E+00  0.00000000000E+00  0.40574316984E-01  0.40574316984E-01  0.00000000000E+00 0.  1.
         21   -1    0    0  502  503 -0.00000000000E+00 -0.00000000000E+00 -0.14511934980E+04  0.14511934980E+04  0.00000000000E+00 0.  1.
          5    1    1    2  501    0 -0.14135074311E+01  0.38094342123E+01 -0.29971524857E+03  0.29977963576E+03  0.47000000000E+01 0.  1.
         -5    1    1    2    0  503  0.14135074311E+01 -0.38094342123E+01 -0.11514376751E+04  0.11514544365E+04  0.47000000000E+01 0.  1.
<mgrwt>
<rscale>  2 0.62128731E+01</rscale>
<asrwt>0</asrwt>
<pdfrwt beam="1">  1       21 0.62425870E-05 0.62128731E+01</pdfrwt>
<pdfrwt beam="2">  1       21 0.22324679E+00 0.62128731E+01</pdfrwt>
<totfact> 0.36055545E+08</totfact>
</mgrwt>
</event>
<event>
 4    1  0.3992289E+006  0.6474530E+01  0.7546771E-02  0.2357472E+00
         21   -1    0    0  503  502  0.00000000000E+00  0.00000000000E+00  0.20658505258E+03  0.20658505258E+03  0.00000000000E+00 0. -1.
         21   -1    0    0  501  503 -0.00000000000E+00 -0.00000000000E+00 -0.25667644963E+00  0.25667644963E+00  0.00000000000E+00 0. -1.
          5    1    1    2  501    0 -0.41395199624E+01  0.16413155782E+01  0.55833364645E+02  0.56207509729E+02  0.47000000000E+01 0. -1.
         -5    1    1    2    0  502  0.41395199624E+01 -0.16413155782E+01  0.15049501148E+03  0.15063421930E+03  0.47000000000E+01 0. -1.
<mgrwt>
<rscale>  2 0.64745303E+01</rscale>
<asrwt>0</asrwt>
<pdfrwt beam="1">  1       21 0.31782183E-01 0.64745303E+01</pdfrwt>
<pdfrwt beam="2">  1       21 0.39488850E-04 0.64745303E+01</pdfrwt>
<totfact> 0.14861957E+09</totfact>
</mgrwt>
</event>
<event>
 4    1  0.3992289E+006  0.4842266E+01  0.7546771E-02  0.2595920E+00
         21   -1    0    0  503  502  0.00000000000E+00  0.00000000000E+00  0.45369781100E+00  0.45369781100E+00  0.00000000000E+00 0.  1.
         21   -1    0    0  501  503 -0.00000000000E+00 -0.00000000000E+00 -0.23139045921E+03  0.23139045921E+03  0.00000000000E+00 0.  1.
          5    1    1    2  501    0  0.10890833322E+01  0.41404647264E+00 -0.21762792720E+03  0.21768179123E+03  0.47000000000E+01 0.  1.
         -5    1    1    2    0  502 -0.10890833322E+01 -0.41404647264E+00 -0.13308834202E+02  0.14162365792E+02  0.47000000000E+01 0.  1.
<mgrwt>
<rscale>  2 0.48422657E+01</rscale>
<asrwt>0</asrwt>
<pdfrwt beam="1">  1       21 0.69799700E-04 0.48422657E+01</pdfrwt>
<pdfrwt beam="2">  1       21 0.35598513E-01 0.48422657E+01</pdfrwt>
<totfact> 0.45668976E+08</totfact>
</mgrwt>
</event>
<event>
 4    1  0.3992289E+006  0.4793172E+01  0.7546771E-02  0.2605207E+00
         21   -1    0    0  501  502  0.00000000000E+00  0.00000000000E+00  0.16191981621E+02  0.16191981621E+02  0.00000000000E+00 0.  1.
         21   -1    0    0  502  503 -0.00000000000E+00 -0.00000000000E+00 -0.62137737884E+01  0.62137737884E+01  0.00000000000E+00 0.  1.
          5    1    1    2  501    0  0.42628275097E+00 -0.83832163664E+00  0.14830151052E+02  0.15585502250E+02  0.47000000000E+01 0.  1.
         -5    1    1    2    0  503 -0.42628275097E+00  0.83832163664E+00 -0.48519432197E+01  0.68202531594E+01  0.47000000000E+01 0.  1.
<mgrwt>
<rscale>  2 0.47931722E+01</rscale>
<asrwt>0</asrwt>
<pdfrwt beam="1">  1       21 0.24910741E-02 0.47931722E+01</pdfrwt>
<pdfrwt beam="2">  1       21 0.95596521E-03 0.47931722E+01</pdfrwt>
<totfact> 0.74936159E+08</totfact>
</mgrwt>
</event>
<event>
 4    1  0.3992289E+006  0.7567103E+01  0.7546771E-02  0.2247355E+00
         21   -1    0    0  503  502  0.00000000000E+00  0.00000000000E+00  0.22235850152E+00  0.22235850152E+00  0.00000000000E+00 0. -1.
         21   -1    0    0  501  503 -0.00000000000E+00 -0.00000000000E+00 -0.29607992229E+03  0.29607992229E+03  0.00000000000E+00 0.  1.
          5    1    1    2  501    0  0.13450849552E+01 -0.57759663891E+01 -0.20139590661E+03  0.20153801686E+03  0.47000000000E+01 0.  1.
         -5    1    1    2    0  502 -0.13450849552E+01  0.57759663891E+01 -0.94461657181E+02  0.94764263932E+02  0.47000000000E+01 0. -1.
<mgrwt>
<rscale>  2 0.75671026E+01</rscale>
<asrwt>0</asrwt>
<pdfrwt beam="1">  1       21 0.34208951E-04 0.75671026E+01</pdfrwt>
<pdfrwt beam="2">  1       21 0.45550822E-01 0.75671026E+01</pdfrwt>
<totfact> 0.10662900E+09</totfact>
</mgrwt>
</event>
<event>
 4    1  0.3992289E+006  0.6071896E+01  0.7546771E-02  0.2406159E+00
         21   -1    0    0  501  502  0.00000000000E+00  0.00000000000E+00  0.77080379423E-01  0.77080379423E-01  0.00000000000E+00 0. -1.
         21   -1    0    0  502  503 -0.00000000000E+00 -0.00000000000E+00 -0.65201788101E+03  0.65201788101E+03  0.00000000000E+00 0. -1.
          5    1    1    2  501    0 -0.23553711284E+01 -0.30381161840E+01 -0.15767694255E+03  0.15779380893E+03  0.47000000000E+01 0. -1.
         -5    1    1    2    0  503  0.23553711284E+01  0.30381161840E+01 -0.49426385808E+03  0.49430115246E+03  0.47000000000E+01 0. -1.
<mgrwt>
<rscale>  2 0.60718962E+01</rscale>
<asrwt>0</asrwt>
<pdfrwt beam="1">  1       21 0.11858616E-04 0.60718962E+01</pdfrwt>
<pdfrwt beam="2">  1       21 0.10030963E+00 0.60718962E+01</pdfrwt>
<totfact> 0.84603967E+08</totfact>
</mgrwt>
</event>
<event>
 4    1  0.3992289E+006  0.5028763E+01  0.7546771E-02  0.2562077E+00
         21   -1    0    0  501  502  0.00000000000E+00  0.00000000000E+00  0.16440248538E+00  0.16440248538E+00  0.00000000000E+00 0.  1.
         21   -1    0    0  502  503 -0.00000000000E+00 -0.00000000000E+00 -0.21371225412E+03  0.21371225412E+03  0.00000000000E+00 0.  1.
          5    1    1    2  501    0  0.86505354576E-01 -0.17863283971E+01 -0.50162689444E+02  0.50414123662E+02  0.47000000000E+01 0.  1.
         -5    1    1    2    0  503 -0.86505354576E-01  0.17863283971E+01 -0.16338516219E+03  0.16346253295E+03  0.47000000000E+01 0.  1.
<mgrwt>
<rscale>  2 0.50287625E+01</rscale>
<asrwt>0</asrwt>
<pdfrwt beam="1">  1       21 0.25292704E-04 0.50287625E+01</pdfrwt>
<pdfrwt beam="2">  1       21 0.32878790E-01 0.50287625E+01</pdfrwt>
<totfact> 0.20687492E+09</totfact>
</mgrwt>
</event>
<event>
 4    1  0.3992289E+006  0.7349723E+01  0.7546771E-02  0.2267117E+00
         21   -1    0    0  503  502  0.00000000000E+00  0.00000000000E+00  0.32689615896E+01  0.32689615896E+01  0.00000000000E+00 0. -1.
         21   -1    0    0  501  503 -0.00000000000E+00 -0.00000000000E+00 -0.18310654183E+02  0.18310654183E+02  0.00000000000E+00 0. -1.
          5    1    1    2  501    0  0.25838457320E+01 -0.50251543709E+01 -0.10890640847E+02  0.13138664060E+02  0.47000000000E+01 0. -1.
         -5    1    1    2    0  502 -0.25838457320E+01  0.50251543709E+01 -0.41510517465E+01  0.84409517130E+01  0.47000000000E+01 0. -1.
<mgrwt>
<rscale>  2 0.73497235E+01</rscale>
<asrwt>0</asrwt>
<pdfrwt beam="1">  1       21 0.50291716E-03 0.73497235E+01</pdfrwt>
<pdfrwt beam="2">  1       21 0.28170238E-02 0.73497235E+01</pdfrwt>
<totfact> 0.22112172E+09</totfact>
</mgrwt>
</event>
<event>
 4    1  0.3992289E+006  0.6575114E+01  0.7546771E-02  0.2346086E+00
         21   -1    0    0  501  502  0.00000000000E+00  0.00000000000E+00  0.60128447711E+00  0.60128447711E+00  0.00000000000E+00 0.  1.
         21   -1    0    0  502  503 -0.00000000000E+00 -0.00000000000E+00 -0.10376056409E+03  0.10376056409E+03  0.00000000000E+00 0. -1.
          5    1    1    2  501    0  0.53766325194E+00  0.45665127200E+01 -0.22664520745E+02  0.23598996182E+02  0.47000000000E+01 0.  1.
         -5    1    1    2    0  503 -0.53766325194E+00 -0.45665127200E+01 -0.80494758872E+02  0.80762852389E+02  0.47000000000E+01 0. -1.
<mgrwt>
<rscale>  2 0.65751137E+01</rscale>
<asrwt>0</asrwt>
<pdfrwt beam="1">  1       21 0.92505263E-04 0.65751137E+01</pdfrwt>
<pdfrwt beam="2">  1       21 0.15963171E-01 0.65751137E+01</pdfrwt>
<totfact> 0.14875216E+09</totfact>
</mgrwt>
</event>
<event>
 4    1  0.3992289E+006  0.5063351E+01  0.7546771E-02  0.2556037E+00
         21   -1    0    0  501  502  0.00000000000E+00  0.00000000000E+00  0.38828899384E+03  0.38828899384E+03  0.00000000000E+00 0. -1.
         21   -1    0    0  502  503 -0.00000000000E+00 -0.00000000000E+00 -0.14487003913E+00  0.14487003913E+00  0.00000000000E+00 0. -1.
          5    1    1    2  501    0 -0.13336919904E+01 -0.13299601634E+01  0.33735011935E+03  0.33738811561E+03  0.47000000000E+01 0. -1.
         -5    1    1    2    0  503  0.13336919904E+01  0.13299601634E+01  0.50794004457E+02  0.51045748277E+02  0.47000000000E+01 0. -1.
<mgrwt>
<rscale>  2 0.50633515E+01</rscale>
<asrwt>0</asrwt>
<pdfrwt beam="1">  1       21 0.59735935E-01 0.50633515E+01</pdfrwt>
<pdfrwt beam="2">  1       21 0.22288009E-04 0.50633515E+01</pdfrwt>
<totfact> 0.86651145E+08</totfact>
</mgrwt>
</event>
<event>
 4    1  0.3992289E+006  0.5046452E+01  0.7546771E-02  0.2558979E+00
         21   -1    0    0  501  502  0.00000000000E+00  0.00000000000E+00  0.10287183208E+01  0.10287183208E+01  0.00000000000E+00 0.  1.
         21   -1    0    0  502  503 -0.00000000000E+00 -0.00000000000E+00 -0.48589832840E+02  0.48589832840E+02  0.00000000000E+00 0.  1.
          5    1    1    2  501    0  0.16750748241E+01  0.75551523596E+00 -0.64049203567E+01  0.81541206585E+01  0.47000000000E+01 0.  1.
         -5    1    1    2    0  503 -0.16750748241E+01 -0.75551523596E+00 -0.41156194162E+02  0.41464430502E+02  0.47000000000E+01 0.  1.
<mgrwt>
<rscale>  2 0.50464521E+01</rscale>
<asrwt>0</asrwt>
<pdfrwt beam="1">  1       21 0.15826435E-03 0.50464521E+01</pdfrwt>
<pdfrwt beam="2">  1       21 0.74753591E-02 0.50464521E+01</pdfrwt>
<totfact> 0.18549680E+09</totfact>
</mgrwt>
</event>
<event>
 4    1  0.3992289E+006  0.7189429E+01  0.7546771E-02  0.2282310E+00
         21   -1    0    0  501  502  0.00000000000E+00  0.00000000000E+00  0.85555957443E+01  0.85555957443E+01  0.00000000000E+00 0. -1.
         21   -1    0    0  502  503 -0.00000000000E+00 -0.00000000000E+00 -0.74488374361E+01  0.74488374361E+01  0.00000000000E+00 0.  1.
          5    1    1    2  501    0 -0.12470037731E+01 -0.52955522549E+01 -0.29250127516E+01  0.77616745418E+01  0.47000000000E+01 0.  1.
         -5    1    1    2    0  503  0.12470037731E+01  0.52955522549E+01  0.40317710599E+01  0.82427586386E+01  0.47000000000E+01 0. -1.
<mgrwt>
<rscale>  2 0.71894292E+01</rscale>
<asrwt>0</asrwt>
<pdfrwt beam="1">  1       21 0.13162455E-02 0.71894292E+01</pdfrwt>
<pdfrwt beam="2">  1       21 0.11459750E-02 0.71894292E+01</pdfrwt>
<totfact> 0.20423131E+09</totfact>
</mgrwt>
</event>
<event>
 4    1  0.3992289E+006  0.8096831E+01  0.7546771E-02  0.2202833E+00
         21   -1    0    0  503  502  0.00000000000E+00  0.00000000000E+00  0.16149699117E+01  0.16149699117E+01  0.00000000000E+00 0. -1.
         21   -1    0    0  501  503 -0.00000000000E+00 -0.00000000000E+00 -0.95880052480E+02  0.95880052480E+02  0.00000000000E+00 0.  1.
          5    1    1    2  501    0  0.59499973669E+01 -0.28401054927E+01 -0.84148985489E+02  0.84537627283E+02  0.47000000000E+01 0.  1.
         -5    1    1    2    0  502 -0.59499973669E+01  0.28401054927E+01 -0.10116097079E+02  0.12957395108E+02  0.47000000000E+01 0. -1.
<mgrwt>
<rscale>  2 0.80968307E+01</rscale>
<asrwt>0</asrwt>
<pdfrwt beam="1">  1       21 0.24845682E-03 0.80968307E+01</pdfrwt>
<pdfrwt beam="2">  1       21 0.14750783E-01 0.80968307E+01</pdfrwt>
<totfact> 0.50259076E+08</totfact>
</mgrwt>
</event>
<event>
 4    1  0.3992289E+006  0.6102816E+01  0.7546771E-02  0.2402231E+00
         21   -1    0    0  503  502  0.00000000000E+00  0.00000000000E+00  0.25411568488E+02  0.25411568488E+02  0.00000000000E+00 0.  1.
         21   -1    0    0  501  503 -0.00000000000E+00 -0.00000000000E+00 -0.19503779848E+01  0.19503779848E+01  0.00000000000E+00 0. -1.
          5    1    1    2  501    0 -0.38588045597E+01 -0.51380420758E+00  0.49102183653E+01  0.78329184720E+01  0.47000000000E+01 0. -1.
         -5    1    1    2    0  502  0.38588045597E+01  0.51380420758E+00  0.18550972138E+02  0.19529028001E+02  0.47000000000E+01 0.  1.
<mgrwt>
<rscale>  2 0.61028163E+01</rscale>
<asrwt>0</asrwt>
<pdfrwt beam="1">  1       21 0.39094718E-02 0.61028163E+01</pdfrwt>
<pdfrwt beam="2">  1       21 0.30005817E-03 0.61028163E+01</pdfrwt>
<totfact> 0.24122283E+09</totfact>
</mgrwt>
</event>
<event>
 4    1  0.3992289E+006  0.1232961E+02  0.7546771E-02  0.1962505E+00
         21   -1    0    0  501  502  0.00000000000E+00  0.00000000000E+00  0.17465089700E+02  0.17465089700E+02  0.00000000000E+00 0. -1.
         21   -1    0    0  502  503 -0.00000000000E+00 -0.00000000000E+00 -0.87115098458E+01  0.87115098458E+01  0.00000000000E+00 0.  1.
          5    1    1    2  501    0 -0.10205747616E+02 -0.50766239150E+01  0.47562767951E+01  0.13215201993E+02  0.47000000000E+01 0. -1.
         -5    1    1    2    0  503  0.10205747616E+02  0.50766239150E+01  0.39973030594E+01  0.12961397553E+02  0.47000000000E+01 0.  1.
<mgrwt>
<rscale>  2 0.12329615E+02</rscale>
<asrwt>0</asrwt>
<pdfrwt beam="1">  1       21 0.26869369E-02 0.12329615E+02</pdfrwt>
<pdfrwt beam="2">  1       21 0.13402323E-02 0.12329615E+02</pdfrwt>
<totfact> 0.79764190E+08</totfact>
</mgrwt>
</event>
<event>
 4    1  0.3992289E+006  0.6209960E+01  0.7546771E-02  0.2388873E+00
         21   -1    0    0  503  502  0.00000000000E+00  0.00000000000E+00  0.95226592261E+02  0.95226592261E+02  0.00000000000E+00 0.  1.
         21   -1    0    0  501  503 -0.00000000000E+00 -0.00000000000E+00 -0.85381025996E+00  0.85381025996E+00  0.00000000000E+00 0.  1.
          5    1    1    2  501    0 -0.36364806160E+01  0.18026691159E+01  0.12354938118E+02  0.13827801818E+02  0.47000000000E+01 0.  1.
         -5    1    1    2    0  502  0.36364806160E+01 -0.18026691159E+01  0.82017843883E+02  0.82252600703E+02  0.47000000000E+01 0.  1.
<mgrwt>
<rscale>  2 0.62099603E+01</rscale>
<asrwt>0</asrwt>
<pdfrwt beam="1">  1       21 0.14650237E-01 0.62099603E+01</pdfrwt>
<pdfrwt beam="2">  1       21 0.13135550E-03 0.62099603E+01</pdfrwt>
<totfact> 0.10161919E+09</totfact>
</mgrwt>
</event>
<event>
 4    1  0.3992289E+006  0.8204018E+01  0.7546771E-02  0.2194391E+00
         21   -1    0    0  503  502  0.00000000000E+00  0.00000000000E+00  0.39498564381E+03  0.39498564381E+03  0.00000000000E+00 0. -1.
         21   -1    0    0  501  503 -0.00000000000E+00 -0.00000000000E+00 -0.50861076809E+00  0.50861076809E+00  0.00000000000E+00 0. -1.
          5    1    1    2  501    0  0.23735308396E+01  0.62914437740E+01  0.35984500884E+02  0.36907861186E+02  0.47000000000E+01 0. -1.
         -5    1    1    2    0  502 -0.23735308396E+01 -0.62914437740E+01  0.35849253215E+03  0.35858639339E+03  0.47000000000E+01 0. -1.
<mgrwt>
<rscale>  2 0.82040181E+01</rscale>
<asrwt>0</asrwt>
<pdfrwt beam="1">  1       21 0.60766777E-01 0.82040181E+01</pdfrwt>
<pdfrwt beam="2">  1       21 0.78248126E-04 0.82040181E+01</pdfrwt>
<totfact> 0.21359772E+08</totfact>
</mgrwt>
</event>
<event>
 4    1  0.3992289E+006  0.1266117E+02  0.7546771E-02  0.1949147E+00
         21   -1    0    0  501  502  0.00000000000E+00  0.00000000000E+00  0.79390351806E+01  0.79390351806E+01  0.00000000000E+00 0. -1.
         21   -1    0    0  502  503 -0.00000000000E+00 -0.00000000000E+00 -0.38230521997E+02  0.38230521997E+02  0.00000000000E+00 0.  1.
          5    1    1    2  501    0 -0.96984274130E+01  0.66449792399E+01  0.71124479877E+00  0.12681132148E+02  0.47000000000E+01 0. -1.
         -5    1    1    2    0  503  0.96984274130E+01 -0.66449792399E+01 -0.31002731616E+02  0.33488425030E+02  0.47000000000E+01 0.  1.
<mgrwt>
<rscale>  2 0.12661171E+02</rscale>
<asrwt>0</asrwt>
<pdfrwt beam="1">  1       21 0.12213900E-02 0.12661171E+02</pdfrwt>
<pdfrwt beam="2">  1       21 0.58816187E-02 0.12661171E+02</pdfrwt>
<totfact> 0.27845279E+08</totfact>
</mgrwt>
</event>
<event>
 4    1  0.3992289E+006  0.4890406E+01  0.7546771E-02  0.2586971E+00
         21   -1    0    0  501  502  0.00000000000E+00  0.00000000000E+00  0.16347900365E+01  0.16347900365E+01  0.00000000000E+00 0.  1.
         21   -1    0    0  502  503 -0.00000000000E+00 -0.00000000000E+00 -0.17536981110E+02  0.17536981110E+02  0.00000000000E+00 0.  1.
          5    1    1    2  501    0 -0.10429330462E+01  0.85928074491E+00 -0.40479270454E+01  0.63483687749E+01  0.47000000000E+01 0.  1.
         -5    1    1    2    0  503  0.10429330462E+01 -0.85928074491E+00 -0.11854264028E+02  0.12823402372E+02  0.47000000000E+01 0.  1.
<mgrwt>
<rscale>  2 0.48904062E+01</rscale>
<asrwt>0</asrwt>
<pdfrwt beam="1">  1       21 0.25150617E-03 0.48904062E+01</pdfrwt>
<pdfrwt beam="2">  1       21 0.26979969E-02 0.48904062E+01</pdfrwt>
<totfact> 0.42508443E+09</totfact>
</mgrwt>
</event>
<event>
 4    1  0.3992289E+006  0.6431263E+01  0.7546771E-02  0.2362460E+00
         21   -1    0    0  501  502  0.00000000000E+00  0.00000000000E+00  0.85559731560E+02  0.85559731560E+02  0.00000000000E+00 0.  1.
         21   -1    0    0  502  503 -0.00000000000E+00 -0.00000000000E+00 -0.18989397696E+01  0.18989397696E+01  0.00000000000E+00 0. -1.
          5    1    1    2  501    0 -0.15191993475E+00  0.43872619043E+01  0.79585485295E+02  0.79844916033E+02  0.47000000000E+01 0.  1.
         -5    1    1    2    0  503  0.15191993475E+00 -0.43872619043E+01  0.40753064953E+01  0.76137552965E+01  0.47000000000E+01 0. -1.
<mgrwt>
<rscale>  2 0.64312632E+01</rscale>
<asrwt>0</asrwt>
<pdfrwt beam="1">  1       21 0.13163033E-01 0.64312632E+01</pdfrwt>
<pdfrwt beam="2">  1       21 0.29214465E-03 0.64312632E+01</pdfrwt>
<totfact> 0.41461306E+08</totfact>
</mgrwt>
</event>
<event>
 4    1  0.3992289E+006  0.7352115E+01  0.7546771E-02  0.2266894E+00
         21   -1    0    0  503  502  0.00000000000E+00  0.00000000000E+00  0.32986702643E+03  0.32986702643E+03  0.00000000000E+00 0.  1.
         21   -1    0    0  501  503 -0.00000000000E+00 -0.00000000000E+00 -0.42655364277E+00  0.42655364277E+00  0.00000000000E+00 0.  1.
          5    1    1    2  501    0  0.34897029586E+01 -0.44480972873E+01  0.35120500052E+02  0.35881793714E+02  0.47000000000E+01 0.  1.
         -5    1    1    2    0  502 -0.34897029586E+01  0.44480972873E+01  0.29431997273E+03  0.29441178636E+03  0.47000000000E+01 0.  1.
<mgrwt>
<rscale>  2 0.73521151E+01</rscale>
<asrwt>0</asrwt>
<pdfrwt beam="1">  1       21 0.50748569E-01 0.73521151E+01</pdfrwt>
<pdfrwt beam="2">  1       21 0.65623901E-04 0.73521151E+01</pdfrwt>
<totfact> 0.35709726E+08</totfact>
</mgrwt>
</event>
<event>
 4    1  0.3992289E+006  0.5141968E+01  0.7546771E-02  0.2542569E+00
         21   -1    0    0  503  502  0.00000000000E+00  0.00000000000E+00  0.16914788680E+02  0.16914788680E+02  0.00000000000E+00 0. -1.
         21   -1    0    0  501  503 -0.00000000000E+00 -0.00000000000E+00 -0.17541701824E+01  0.17541701824E+01  0.00000000000E+00 0. -1.
          5    1    1    2  501    0 -0.20851568134E+01  0.44270703820E-01  0.44997586347E+01  0.68328373757E+01  0.47000000000E+01 0. -1.
         -5    1    1    2    0  502  0.20851568134E+01 -0.44270703820E-01  0.10660859863E+02  0.11836121487E+02  0.47000000000E+01 0. -1.
<mgrwt>
<rscale>  2 0.51419684E+01</rscale>
<asrwt>0</asrwt>
<pdfrwt beam="1">  1       21 0.26022751E-02 0.51419684E+01</pdfrwt>
<pdfrwt beam="2">  1       21 0.26987235E-03 0.51419684E+01</pdfrwt>
<totfact> 0.42877617E+09</totfact>
</mgrwt>
</event>
<event>
 4    1  0.3992289E+006  0.4824860E+01  0.7546771E-02  0.2599194E+00
         21   -1    0    0  503  502  0.00000000000E+00  0.00000000000E+00  0.70964334939E+00  0.70964334939E+00  0.00000000000E+00 0. -1.
         21   -1    0    0  501  503 -0.00000000000E+00 -0.00000000000E+00 -0.73772435327E+02  0.73772435327E+02  0.00000000000E+00 0. -1.
          5    1    1    2  501    0  0.88027126557E+00  0.64373975171E+00 -0.87791337039E+01  0.10017607846E+02  0.47000000000E+01 0. -1.
         -5    1    1    2    0  502 -0.88027126557E+00 -0.64373975171E+00 -0.64283658274E+02  0.64464470831E+02  0.47000000000E+01 0. -1.
<mgrwt>
<rscale>  2 0.48248605E+01</rscale>
<asrwt>0</asrwt>
<pdfrwt beam="1">  1       21 0.10917588E-03 0.48248605E+01</pdfrwt>
<pdfrwt beam="2">  1       21 0.11349608E-01 0.48248605E+01</pdfrwt>
<totfact> 0.15547341E+09</totfact>
</mgrwt>
</event>
<event>
 4    1  0.3992289E+006  0.4711191E+01  0.7546771E-02  0.2621088E+00
         21   -1    0    0  503  502  0.00000000000E+00  0.00000000000E+00  0.45211954646E+00  0.45211954646E+00  0.00000000000E+00 0. -1.
         21   -1    0    0  501  503 -0.00000000000E+00 -0.00000000000E+00 -0.34052824038E+03  0.34052824038E+03  0.00000000000E+00 0. -1.
          5    1    1    2  501    0  0.29062023010E+00  0.14443748626E+00 -0.32776097539E+03  0.32779483265E+03  0.47000000000E+01 0. -1.
         -5    1    1    2    0  502 -0.29062023010E+00 -0.14443748626E+00 -0.12315145442E+02  0.13185527277E+02  0.47000000000E+01 0. -1.
<mgrwt>
<rscale>  2 0.47111912E+01</rscale>
<asrwt>0</asrwt>
<pdfrwt beam="1">  1       21 0.69556845E-04 0.47111912E+01</pdfrwt>
<pdfrwt beam="2">  1       21 0.52388967E-01 0.47111912E+01</pdfrwt>
<totfact> 0.22966615E+08</totfact>
</mgrwt>
</event>
<event>
 4    1  0.3992289E+006  0.4974863E+01  0.7546771E-02  0.2571633E+00
         21   -1    0    0  501  502  0.00000000000E+00  0.00000000000E+00  0.13574199090E+02  0.13574199090E+02  0.00000000000E+00 0. -1.
         21   -1    0    0  502  503 -0.00000000000E+00 -0.00000000000E+00 -0.34087230121E+01  0.34087230121E+01  0.00000000000E+00 0. -1.
          5    1    1    2  501    0 -0.87860635546E+00  0.13737933154E+01  0.10873890474E+02  0.11957874027E+02  0.47000000000E+01 0. -1.
         -5    1    1    2    0  503  0.87860635546E+00 -0.13737933154E+01 -0.70841439621E+00  0.50250480752E+01  0.47000000000E+01 0. -1.
<mgrwt>
<rscale>  2 0.49748625E+01</rscale>
<asrwt>0</asrwt>
<pdfrwt beam="1">  1       21 0.20883383E-02 0.49748625E+01</pdfrwt>
<pdfrwt beam="2">  1       21 0.52441893E-03 0.49748625E+01</pdfrwt>
<totfact> 0.22893262E+09</totfact>
</mgrwt>
</event>
<event>
 4    1  0.3992289E+006  0.5848741E+01  0.7546771E-02  0.2435536E+00
         21   -1    0    0  501  502  0.00000000000E+00  0.00000000000E+00  0.83610636282E+03  0.83610636282E+03  0.00000000000E+00 0.  1.
         21   -1    0    0  502  503 -0.00000000000E+00 -0.00000000000E+00 -0.42672642521E-01  0.42672642521E-01  0.00000000000E+00 0.  1.
          5    1    1    2  501    0  0.14085569468E+01 -0.31833539357E+01  0.33313955966E+03  0.33319089721E+03  0.47000000000E+01 0.  1.
         -5    1    1    2    0  503 -0.14085569468E+01  0.31833539357E+01  0.50292413052E+03  0.50295813826E+03  0.47000000000E+01 0.  1.
<mgrwt>
<rscale>  2 0.58487413E+01</rscale>
<asrwt>0</asrwt>
<pdfrwt beam="1">  1       21 0.12861863E+00 0.58487413E+01</pdfrwt>
<pdfrwt beam="2">  1       21 0.65656916E-05 0.58487413E+01</pdfrwt>
<totfact> 0.10864123E+09</totfact>
</mgrwt>
</event>
<event>
 4    1  0.3992289E+006  0.9012800E+01  0.7546771E-02  0.2135947E+00
         21   -1    0    0  501  502  0.00000000000E+00  0.00000000000E+00  0.26045280410E+02  0.26045280410E+02  0.00000000000E+00 0. -1.
         21   -1    0    0  502  503 -0.00000000000E+00 -0.00000000000E+00 -0.10139135748E+02  0.10139135748E+02  0.00000000000E+00 0.  1.
          5    1    1    2  501    0 -0.66837954566E+01  0.38036091157E+01  0.23007678580E+02  0.24709994692E+02  0.47000000000E+01 0. -1.
         -5    1    1    2    0  503  0.66837954566E+01 -0.38036091157E+01 -0.71015339173E+01  0.11474421466E+02  0.47000000000E+01 0.  1.
<mgrwt>
<rscale>  2 0.90128000E+01</rscale>
<asrwt>0</asrwt>
<pdfrwt beam="1">  1       21 0.40069662E-02 0.90128000E+01</pdfrwt>
<pdfrwt beam="2">  1       21 0.15598671E-02 0.90128000E+01</pdfrwt>
<totfact> 0.29560967E+08</totfact>
</mgrwt>
</event>
<event>
 4    1  0.3992289E+006  0.5228822E+01  0.7546771E-02  0.2528094E+00
         21   -1    0    0  501  502  0.00000000000E+00  0.00000000000E+00  0.77275105136E+00  0.77275105136E+00  0.00000000000E+00 0.  1.
         21   -1    0    0  502  503 -0.00000000000E+00 -0.00000000000E+00 -0.36889129379E+02  0.36889129379E+02  0.00000000000E+00 0.  1.
          5    1    1    2  501    0 -0.19336731783E+01 -0.12294274210E+01 -0.14250471976E+02  0.15179477437E+02  0.47000000000E+01 0.  1.
         -5    1    1    2    0  503  0.19336731783E+01  0.12294274210E+01 -0.21865906352E+02  0.22482402993E+02  0.47000000000E+01 0.  1.
<mgrwt>
<rscale>  2 0.52288224E+01</rscale>
<asrwt>0</asrwt>
<pdfrwt beam="1">  1       21 0.11888477E-03 0.52288224E+01</pdfrwt>
<pdfrwt beam="2">  1       21 0.56752508E-02 0.52288224E+01</pdfrwt>
<totfact> 0.42374334E+09</totfact>
</mgrwt>
</event>
<event>
 4    1  0.3992289E+006  0.1056394E+02  0.7546771E-02  0.2044245E+00
         21   -1    0    0  501  502  0.00000000000E+00  0.00000000000E+00  0.13799724543E+02  0.13799724543E+02  0.00000000000E+00 0. -1.
         21   -1    0    0  502  503 -0.00000000000E+00 -0.00000000000E+00 -0.16697160096E+02  0.16697160096E+02  0.00000000000E+00 0.  1.
          5    1    1    2  501    0  0.39362755008E+01 -0.86030590087E+01  0.95012413914E+01  0.14208113073E+02  0.47000000000E+01 0. -1.
         -5    1    1    2    0  503 -0.39362755008E+01  0.86030590087E+01 -0.12398676944E+02  0.16288771565E+02  0.47000000000E+01 0.  1.
<mgrwt>
<rscale>  2 0.10563943E+02</rscale>
<asrwt>0</asrwt>
<pdfrwt beam="1">  1       21 0.21230345E-02 0.10563943E+02</pdfrwt>
<pdfrwt beam="2">  1       21 0.25687939E-02 0.10563943E+02</pdfrwt>
<totfact> 0.39863586E+08</totfact>
</mgrwt>
</event>
<event>
 4    1  0.3992289E+006  0.5249441E+01  0.7546771E-02  0.2524719E+00
         21   -1    0    0  503  502  0.00000000000E+00  0.00000000000E+00  0.39701787830E+00  0.39701787830E+00  0.00000000000E+00 0. -1.
         21   -1    0    0  501  503 -0.00000000000E+00 -0.00000000000E+00 -0.75483928447E+02  0.75483928447E+02  0.00000000000E+00 0.  1.
          5    1    1    2  501    0  0.10125068723E+01  0.21074769329E+01 -0.48306736910E+02  0.48591125322E+02  0.47000000000E+01 0. -1.
         -5    1    1    2    0  502 -0.10125068723E+01 -0.21074769329E+01 -0.26780173659E+02  0.27289821003E+02  0.47000000000E+01 0. -1.
<mgrwt>
<rscale>  2 0.52494408E+01</rscale>
<asrwt>0</asrwt>
<pdfrwt beam="1">  1       21 0.61079739E-04 0.52494408E+01</pdfrwt>
<pdfrwt beam="2">  1       21 0.11612900E-01 0.52494408E+01</pdfrwt>
<totfact> 0.35217311E+09</totfact>
</mgrwt>
</event>
<event>
 4    1  0.3992289E+006  0.7924397E+01  0.7546771E-02  0.2216797E+00
         21   -1    0    0  501  502  0.00000000000E+00  0.00000000000E+00  0.71327545438E+00  0.71327545438E+00  0.00000000000E+00 0. -1.
         21   -1    0    0  502  503 -0.00000000000E+00 -0.00000000000E+00 -0.12244695426E+03  0.12244695426E+03  0.00000000000E+00 0.  1.
          5    1    1    2  501    0 -0.58635209119E+01  0.25149942592E+01 -0.28223409338E+02  0.29314789924E+02  0.47000000000E+01 0. -1.
         -5    1    1    2    0  503  0.58635209119E+01 -0.25149942592E+01 -0.93510269467E+02  0.93845439791E+02  0.47000000000E+01 0.  1.
<mgrwt>
<rscale>  2 0.79243974E+01</rscale>
<asrwt>0</asrwt>
<pdfrwt beam="1">  1       21 0.10973480E-03 0.79243974E+01</pdfrwt>
<pdfrwt beam="2">  1       21 0.18837973E-01 0.79243974E+01</pdfrwt>
<totfact> 0.10277018E+09</totfact>
</mgrwt>
</event>
<event>
 4    1  0.3992289E+006  0.6752002E+01  0.7546771E-02  0.2326746E+00
         21   -1    0    0  503  502  0.00000000000E+00  0.00000000000E+00  0.10950283275E+02  0.10950283275E+02  0.00000000000E+00 0.  1.
         21   -1    0    0  501  503 -0.00000000000E+00 -0.00000000000E+00 -0.13794912623E+02  0.13794912623E+02  0.00000000000E+00 0.  1.
          5    1    1    2  501    0 -0.20474372088E+01 -0.43940343472E+01 -0.11760646534E+02  0.13561059836E+02  0.47000000000E+01 0.  1.
         -5    1    1    2    0  502  0.20474372088E+01  0.43940343472E+01  0.89160171873E+01  0.11184136062E+02  0.47000000000E+01 0.  1.
<mgrwt>
<rscale>  2 0.67520024E+01</rscale>
<asrwt>0</asrwt>
<pdfrwt beam="1">  1       21 0.16846590E-02 0.67520024E+01</pdfrwt>
<pdfrwt beam="2">  1       21 0.21222942E-02 0.67520024E+01</pdfrwt>
<totfact> 0.56299130E+08</totfact>
</mgrwt>
</event>
<event>
 4    1  0.3992289E+006  0.5395481E+01  0.7546771E-02  0.2501440E+00
         21   -1    0    0  501  502  0.00000000000E+00  0.00000000000E+00  0.12529455780E+00  0.12529455780E+00  0.00000000000E+00 0. -1.
         21   -1    0    0  502  503 -0.00000000000E+00 -0.00000000000E+00 -0.21686237943E+04  0.21686237943E+04  0.00000000000E+00 0. -1.
          5    1    1    2  501    0 -0.23960299598E+01 -0.11314842232E+01 -0.59608884591E+02  0.59852571693E+02  0.47000000000E+01 0. -1.
         -5    1    1    2    0  503  0.23960299598E+01  0.11314842232E+01 -0.21088896152E+04  0.21088965172E+04  0.47000000000E+01 0. -1.
<mgrwt>
<rscale>  2 0.53954811E+01</rscale>
<asrwt>0</asrwt>
<pdfrwt beam="1">  1       21 0.19277758E-04 0.53954811E+01</pdfrwt>
<pdfrwt beam="2">  1       21 0.33360548E+00 0.53954811E+01</pdfrwt>
<totfact> 0.27622143E+07</totfact>
</mgrwt>
</event>
<event>
 4    1  0.3992289E+006  0.7402883E+01  0.7546771E-02  0.2262197E+00
         21   -1    0    0  501  502  0.00000000000E+00  0.00000000000E+00  0.52806897238E+00  0.52806897238E+00  0.00000000000E+00 0. -1.
         21   -1    0    0  502  503 -0.00000000000E+00 -0.00000000000E+00 -0.11439577125E+03  0.11439577125E+03  0.00000000000E+00 0.  1.
          5    1    1    2  501    0 -0.27709133703E+01  0.50034699302E+01 -0.39428793680E+02  0.40117732281E+02  0.47000000000E+01 0. -1.
         -5    1    1    2    0  503  0.27709133703E+01 -0.50034699302E+01 -0.74438908597E+02  0.74806107941E+02  0.47000000000E+01 0.  1.
<mgrwt>
<rscale>  2 0.74028827E+01</rscale>
<asrwt>0</asrwt>
<pdfrwt beam="1">  1       21 0.81241310E-04 0.74028827E+01</pdfrwt>
<pdfrwt beam="2">  1       21 0.17599365E-01 0.74028827E+01</pdfrwt>
<totfact> 0.16510820E+09</totfact>
</mgrwt>
</event>
<event>
 4    1  0.3992289E+006  0.5900405E+01  0.7546771E-02  0.2428569E+00
         21   -1    0    0  503  502  0.00000000000E+00  0.00000000000E+00  0.56714280767E+03  0.56714280767E+03  0.00000000000E+00 0. -1.
         21   -1    0    0  501  503 -0.00000000000E+00 -0.00000000000E+00 -0.11087731489E+00  0.11087731489E+00  0.00000000000E+00 0. -1.
          5    1    1    2  501    0 -0.27089757853E+01 -0.23208244008E+01  0.94024638405E+02  0.94209592945E+02  0.47000000000E+01 0. -1.
         -5    1    1    2    0  502  0.27089757853E+01  0.23208244008E+01  0.47300729196E+03  0.47304409204E+03  0.47000000000E+01 0. -1.
<mgrwt>
<rscale>  2 0.59004047E+01</rscale>
<asrwt>0</asrwt>
<pdfrwt beam="1">  1       21 0.87250417E-01 0.59004047E+01</pdfrwt>
<pdfrwt beam="2">  1       21 0.17058503E-04 0.59004047E+01</pdfrwt>
<totfact> 0.67559765E+08</totfact>
</mgrwt>
</event>
<event>
 4    1  0.3992289E+006  0.7080213E+01  0.7546771E-02  0.2292982E+00
         21   -1    0    0  503  502  0.00000000000E+00  0.00000000000E+00  0.14217815340E+01  0.14217815340E+01  0.00000000000E+00 0.  1.
         21   -1    0    0  501  503 -0.00000000000E+00 -0.00000000000E+00 -0.37743903308E+02  0.37743903308E+02  0.00000000000E+00 0.  1.
          5    1    1    2  501    0 -0.52913732833E+01  0.20194725474E+00 -0.23186565291E+02  0.24243477967E+02  0.47000000000E+01 0.  1.
         -5    1    1    2    0  502  0.52913732833E+01 -0.20194725474E+00 -0.13135556483E+02  0.14922206875E+02  0.47000000000E+01 0.  1.
<mgrwt>
<rscale>  2 0.70802128E+01</rscale>
<asrwt>0</asrwt>
<pdfrwt beam="1">  1       21 0.21873564E-03 0.70802128E+01</pdfrwt>
<pdfrwt beam="2">  1       21 0.58067538E-02 0.70802128E+01</pdfrwt>
<totfact> 0.23312464E+09</totfact>
</mgrwt>
</event>
<event>
 4    1  0.3992289E+006  0.1023892E+02  0.7546771E-02  0.2061640E+00
         21   -1    0    0  503  502  0.00000000000E+00  0.00000000000E+00  0.14989076532E+03  0.14989076532E+03  0.00000000000E+00 0.  1.
         21   -1    0    0  501  503 -0.00000000000E+00 -0.00000000000E+00 -0.12570407674E+01  0.12570407674E+01  0.00000000000E+00 0. -1.
          5    1    1    2  501    0 -0.42167196195E+01 -0.80600678816E+01  0.23981904629E+02  0.26076180093E+02  0.47000000000E+01 0. -1.
         -5    1    1    2    0  502  0.42167196195E+01  0.80600678816E+01  0.12465181992E+03  0.12507162599E+03  0.47000000000E+01 0.  1.
<mgrwt>
<rscale>  2 0.10238917E+02</rscale>
<asrwt>0</asrwt>
<pdfrwt beam="1">  1       21 0.23060104E-01 0.10238917E+02</pdfrwt>
<pdfrwt beam="2">  1       21 0.19339101E-03 0.10238917E+02</pdfrwt>
<totfact> 0.38752431E+08</totfact>
</mgrwt>
</event>
<event>
 4    1  0.3992289E+006  0.6449163E+01  0.7546771E-02  0.2360390E+00
         21   -1    0    0  503  502  0.00000000000E+00  0.00000000000E+00  0.87173098090E+01  0.87173098090E+01  0.00000000000E+00 0. -1.
         21   -1    0    0  501  503 -0.00000000000E+00 -0.00000000000E+00 -0.15700921630E+02  0.15700921630E+02  0.00000000000E+00 0.  1.
          5    1    1    2  501    0 -0.30995976965E+01  0.31455044015E+01 -0.13678351372E+02  0.15122466733E+02  0.47000000000E+01 0.  1.
         -5    1    1    2    0  502  0.30995976965E+01 -0.31455044015E+01  0.66947395511E+01  0.92957647064E+01  0.47000000000E+01 0. -1.
<mgrwt>
<rscale>  2 0.64491630E+01</rscale>
<asrwt>0</asrwt>
<pdfrwt beam="1">  1       21 0.13411246E-02 0.64491630E+01</pdfrwt>
<pdfrwt beam="2">  1       21 0.24155264E-02 0.64491630E+01</pdfrwt>
<totfact> 0.62580655E+08</totfact>
</mgrwt>
</event>
<event>
 4    1  0.3992289E+006  0.5129822E+01  0.7546771E-02  0.2544626E+00
         21   -1    0    0  501  502  0.00000000000E+00  0.00000000000E+00  0.12242065624E+02  0.12242065624E+02  0.00000000000E+00 0. -1.
         21   -1    0    0  502  503 -0.00000000000E+00 -0.00000000000E+00 -0.34592470204E+01  0.34592470204E+01  0.00000000000E+00 0.  1.
          5    1    1    2  501    0 -0.20183287104E+01 -0.38912914133E+00  0.92219828633E+01  0.10552726671E+02  0.47000000000E+01 0. -1.
         -5    1    1    2    0  503  0.20183287104E+01  0.38912914133E+00 -0.43916425981E+00  0.51485859728E+01  0.47000000000E+01 0.  1.
<mgrwt>
<rscale>  2 0.51298219E+01</rscale>
<asrwt>0</asrwt>
<pdfrwt beam="1">  1       21 0.18833947E-02 0.51298219E+01</pdfrwt>
<pdfrwt beam="2">  1       21 0.53219185E-03 0.51298219E+01</pdfrwt>
<totfact> 0.26792042E+09</totfact>
</mgrwt>
</event>
<event>
 4    1  0.3992289E+006  0.5418597E+01  0.7546771E-02  0.2497854E+00
         21   -1    0    0  501  502  0.00000000000E+00  0.00000000000E+00  0.26771636121E+03  0.26771636121E+03  0.00000000000E+00 0.  1.
         21   -1    0    0  502  503 -0.00000000000E+00 -0.00000000000E+00 -0.19960058178E+00  0.19960058178E+00  0.00000000000E+00 0.  1.
          5    1    1    2  501    0 -0.18677337291E+01  0.19449335384E+01  0.22367390789E+03  0.22373953219E+03  0.47000000000E+01 0.  1.
         -5    1    1    2    0  503  0.18677337291E+01 -0.19449335384E+01  0.43842852736E+02  0.44176429595E+02  0.47000000000E+01 0.  1.
<mgrwt>
<rscale>  2 0.54185972E+01</rscale>
<asrwt>0</asrwt>
<pdfrwt beam="1">  1       21 0.41186845E-01 0.54185972E+01</pdfrwt>
<pdfrwt beam="2">  1       21 0.30707996E-04 0.54185972E+01</pdfrwt>
<totfact> 0.11607782E+09</totfact>
</mgrwt>
</event>
<event>
 4    1  0.3992289E+006  0.1209110E+02  0.7546771E-02  0.1972460E+00
         21   -1    0    0  503  502  0.00000000000E+00  0.00000000000E+00  0.54603146529E+03  0.54603146529E+03  0.00000000000E+00 0.  1.
         21   -1    0    0  501  503 -0.00000000000E+00 -0.00000000000E+00 -0.29981498874E+00  0.29981498874E+00  0.00000000000E+00 0.  1.
          5    1    1    2  501    0 -0.96607957667E+01 -0.55473964938E+01  0.18351857481E+03  0.18391645354E+03  0.47000000000E+01 0.  1.
         -5    1    1    2    0  502  0.96607957667E+01  0.55473964938E+01  0.36221307549E+03  0.36241482674E+03  0.47000000000E+01 0.  1.
<mgrwt>
<rscale>  2 0.12091095E+02</rscale>
<asrwt>0</asrwt>
<pdfrwt beam="1">  1       21 0.84004045E-01 0.12091095E+02</pdfrwt>
<pdfrwt beam="2">  1       21 0.46125820E-04 0.12091095E+02</pdfrwt>
<totfact> 0.27782135E+08</totfact>
</mgrwt>
</event>
<event>
 4    1  0.3992289E+006  0.6360522E+01  0.7546771E-02  0.2370737E+00
         21   -1    0    0  501  502  0.00000000000E+00  0.00000000000E+00  0.13061844125E+01  0.13061844125E+01  0.00000000000E+00 0. -1.
         21   -1    0    0  502  503 -0.00000000000E+00 -0.00000000000E+00 -0.55345686740E+02  0.55345686740E+02  0.00000000000E+00 0. -1.
          5    1    1    2  501    0  0.22231888667E+01 -0.36638333794E+01 -0.82224507859E+01  0.10395428837E+02  0.47000000000E+01 0. -1.
         -5    1    1    2    0  503 -0.22231888667E+01  0.36638333794E+01 -0.45817051542E+02  0.46256442316E+02  0.47000000000E+01 0. -1.
<mgrwt>
<rscale>  2 0.63605223E+01</rscale>
<asrwt>0</asrwt>
<pdfrwt beam="1">  1       21 0.20095143E-03 0.63605223E+01</pdfrwt>
<pdfrwt beam="2">  1       21 0.85147220E-02 0.63605223E+01</pdfrwt>
<totfact> 0.13485838E+09</totfact>
</mgrwt>
</event>
<event>
 4    1  0.3992289E+006  0.9244726E+01  0.7546771E-02  0.2120704E+00
         21   -1    0    0  503  502  0.00000000000E+00  0.00000000000E+00  0.96383815233E+00  0.96383815233E+00  0.00000000000E+00 0.  1.
         21   -1    0    0  501  503 -0.00000000000E+00 -0.00000000000E+00 -0.23756182310E+03  0.23756182310E+03  0.00000000000E+00 0. -1.
          5    1    1    2  501    0  0.74178829258E+01 -0.28896312740E+01 -0.21271596107E+03  0.21291675615E+03  0.47000000000E+01 0. -1.
         -5    1    1    2    0  502 -0.74178829258E+01  0.28896312740E+01 -0.23882023882E+02  0.25608905105E+02  0.47000000000E+01 0.  1.
<mgrwt>
<rscale>  2 0.92447258E+01</rscale>
<asrwt>0</asrwt>
<pdfrwt beam="1">  1       21 0.14828268E-03 0.92447258E+01</pdfrwt>
<pdfrwt beam="2">  1       21 0.36548001E-01 0.92447258E+01</pdfrwt>
<totfact> 0.23975106E+08</totfact>
</mgrwt>
</event>
<event>
 4    1  0.3992289E+006  0.4707249E+01  0.7546771E-02  0.2621864E+00
         21   -1    0    0  501  502  0.00000000000E+00  0.00000000000E+00  0.14951308093E+00  0.14951308093E+00  0.00000000000E+00 0.  1.
         21   -1    0    0  502  503 -0.00000000000E+00 -0.00000000000E+00 -0.14461934245E+04  0.14461934245E+04  0.00000000000E+00 0.  1.
          5    1    1    2  501    0 -0.26093950570E+00 -0.10281095107E-01 -0.37906224561E+02  0.38197382837E+02  0.47000000000E+01 0.  1.
         -5    1    1    2    0  503  0.26093950570E+00  0.10281095107E-01 -0.14081376869E+04  0.14081455548E+04  0.47000000000E+01 0.  1.
<mgrwt>
<rscale>  2 0.47072492E+01</rscale>
<asrwt>0</asrwt>
<pdfrwt beam="1">  1       21 0.23003557E-04 0.47072492E+01</pdfrwt>
<pdfrwt beam="2">  1       21 0.22247636E+00 0.47072492E+01</pdfrwt>
<totfact> 0.54880944E+07</totfact>
</mgrwt>
</event>
<event>
 4    1  0.3992289E+006  0.5704557E+01  0.7546771E-02  0.2455539E+00
         21   -1    0    0  503  502  0.00000000000E+00  0.00000000000E+00  0.87323726439E+03  0.87323726439E+03  0.00000000000E+00 0. -1.
         21   -1    0    0  501  503 -0.00000000000E+00 -0.00000000000E+00 -0.43168569566E-01  0.43168569566E-01  0.00000000000E+00 0.  1.
          5    1    1    2  501    0  0.31791725300E+01  0.58722766811E+00  0.27513737538E+03  0.27519650671E+03  0.47000000000E+01 0.  1.
         -5    1    1    2    0  502 -0.31791725300E+01 -0.58722766811E+00  0.59805672043E+03  0.59808392624E+03  0.47000000000E+01 0.  1.
<mgrwt>
<rscale>  2 0.57045573E+01</rscale>
<asrwt>0</asrwt>
<pdfrwt beam="1">  1       21 0.13433005E+00 0.57045573E+01</pdfrwt>
<pdfrwt beam="2">  1       21 0.66420178E-05 0.57045573E+01</pdfrwt>
<totfact> 0.95967822E+08</totfact>
</mgrwt>
</event>
<event>
 4    1  0.3992289E+006  0.5503648E+01  0.7546771E-02  0.2484880E+00
         21   -1    0    0  501  502  0.00000000000E+00  0.00000000000E+00  0.28806041445E+00  0.28806041445E+00  0.00000000000E+00 0. -1.
         21   -1    0    0  502  503 -0.00000000000E+00 -0.00000000000E+00 -0.14112397477E+03  0.14112397477E+03  0.00000000000E+00 0. -1.
          5    1    1    2  501    0 -0.10004761921E+01 -0.26831297176E+01 -0.34720446789E+02  0.35153940931E+02  0.47000000000E+01 0. -1.
         -5    1    1    2    0  503  0.10004761921E+01  0.26831297176E+01 -0.10611546757E+03  0.10625809426E+03  0.47000000000E+01 0. -1.
<mgrwt>
<rscale>  2 0.55036477E+01</rscale>
<asrwt>0</asrwt>
<pdfrwt beam="1">  1       21 0.44316960E-04 0.55036477E+01</pdfrwt>
<pdfrwt beam="2">  1       21 0.21711394E-01 0.55036477E+01</pdfrwt>
<totfact> 0.21068020E+09</totfact>
</mgrwt>
</event>
<event>
 4    1  0.3992289E+006  0.7570859E+01  0.7546771E-02  0.2247021E+00
         21   -1    0    0  503  502  0.00000000000E+00  0.00000000000E+00  0.29803985809E+02  0.29803985809E+02  0.00000000000E+00 0. -1.
         21   -1    0    0  501  503 -0.00000000000E+00 -0.00000000000E+00 -0.33102227105E+01  0.33102227105E+01  0.00000000000E+00 0.  1.
          5    1    1    2  501    0 -0.38079769440E+01  0.45527159701E+01  0.25291366392E+01  0.79821327507E+01  0.47000000000E+01 0.  1.
         -5    1    1    2    0  502  0.38079769440E+01 -0.45527159701E+01  0.23964626459E+02  0.25132075769E+02  0.47000000000E+01 0. -1.
<mgrwt>
<rscale>  2 0.75708593E+01</rscale>
<asrwt>0</asrwt>
<pdfrwt beam="1">  1       21 0.45852284E-02 0.75708593E+01</pdfrwt>
<pdfrwt beam="2">  1       21 0.50926505E-03 0.75708593E+01</pdfrwt>
<totfact> 0.10770428E+09</totfact>
</mgrwt>
</event>
<event>
 4    1  0.3992289E+006  0.5518756E+01  0.7546771E-02  0.2482610E+00
         21   -1    0    0  503  502  0.00000000000E+00  0.00000000000E+00  0.36009696722E+00  0.36009696722E+00  0.00000000000E+00 0. -1.
         21   -1    0    0  501  503 -0.00000000000E+00 -0.00000000000E+00 -0.20808863853E+03  0.20808863853E+03  0.00000000000E+00 0. -1.
          5    1    1    2  501    0 -0.57257194731E+00 -0.28352830739E+01 -0.18416054175E+03  0.18424321373E+03  0.47000000000E+01 0. -1.
         -5    1    1    2    0  502  0.57257194731E+00  0.28352830739E+01 -0.23567999817E+02  0.24205521769E+02  0.47000000000E+01 0. -1.
<mgrwt>
<rscale>  2 0.55187561E+01</rscale>
<asrwt>0</asrwt>
<pdfrwt beam="1">  1       21 0.55399574E-04 0.55187561E+01</pdfrwt>
<pdfrwt beam="2">  1       21 0.32013613E-01 0.55187561E+01</pdfrwt>
<totfact> 0.82685134E+08</totfact>
</mgrwt>
</event>
<event>
 4    1  0.3992289E+006  0.1008495E+02  0.7546771E-02  0.2070185E+00
         21   -1    0    0  503  502  0.00000000000E+00  0.00000000000E+00  0.15338927266E+01  0.15338927266E+01  0.00000000000E+00 0. -1.
         21   -1    0    0  501  503 -0.00000000000E+00 -0.00000000000E+00 -0.76589884205E+02  0.76589884205E+02  0.00000000000E+00 0.  1.
          5    1    1    2  501    0  0.51726705247E+01  0.72704711435E+01 -0.23214477519E+02  0.25310437323E+02  0.47000000000E+01 0. -1.
         -5    1    1    2    0  502 -0.51726705247E+01 -0.72704711435E+01 -0.51841513959E+02  0.52813339608E+02  0.47000000000E+01 0.  1.
<mgrwt>
<rscale>  2 0.10084953E+02</rscale>
<asrwt>0</asrwt>
<pdfrwt beam="1">  1       21 0.23598348E-03 0.10084953E+02</pdfrwt>
<pdfrwt beam="2">  1       21 0.11783060E-01 0.10084953E+02</pdfrwt>
<totfact> 0.87982733E+08</totfact>
</mgrwt>
</event>
<event>
 4    1  0.3992289E+006  0.4888863E+01  0.7546771E-02  0.2587255E+00
         21   -1    0    0  503  502  0.00000000000E+00  0.00000000000E+00  0.30666399786E+01  0.30666399786E+01  0.00000000000E+00 0.  1.
         21   -1    0    0  501  503 -0.00000000000E+00 -0.00000000000E+00 -0.14586961512E+03  0.14586961512E+03  0.00000000000E+00 0.  1.
          5    1    1    2  501    0 -0.54295402128E+00  0.12313319918E+01 -0.14385287746E+03  0.14393592787E+03  0.47000000000E+01 0.  1.
         -5    1    1    2    0  502  0.54295402128E+00 -0.12313319918E+01  0.10499023183E+01  0.50003272314E+01  0.47000000000E+01 0.  1.
<mgrwt>
<rscale>  2 0.48888626E+01</rscale>
<asrwt>0</asrwt>
<pdfrwt beam="1">  1       21 0.47179088E-03 0.48888626E+01</pdfrwt>
<pdfrwt beam="2">  1       21 0.22441474E-01 0.48888626E+01</pdfrwt>
<totfact> 0.75611474E+07</totfact>
</mgrwt>
</event>
<event>
 4    1  0.3992289E+006  0.8478022E+01  0.7546771E-02  0.2173595E+00
         21   -1    0    0  503  502  0.00000000000E+00  0.00000000000E+00  0.43752862465E+02  0.43752862465E+02  0.00000000000E+00 0.  1.
         21   -1    0    0  501  503 -0.00000000000E+00 -0.00000000000E+00 -0.18658611300E+01  0.18658611300E+01  0.00000000000E+00 0. -1.
          5    1    1    2  501    0  0.66451644870E+01 -0.23724753723E+01  0.13056838169E+02  0.15567847424E+02  0.47000000000E+01 0. -1.
         -5    1    1    2    0  502 -0.66451644870E+01  0.23724753723E+01  0.28830163167E+02  0.30050876172E+02  0.47000000000E+01 0.  1.
<mgrwt>
<rscale>  2 0.84780216E+01</rscale>
<asrwt>0</asrwt>
<pdfrwt beam="1">  1       21 0.67312089E-02 0.84780216E+01</pdfrwt>
<pdfrwt beam="2">  1       21 0.28705559E-03 0.84780216E+01</pdfrwt>
<totfact> 0.14502753E+09</totfact>
</mgrwt>
</event>
<event>
 4    1  0.3992289E+006  0.5218705E+01  0.7546771E-02  0.2529759E+00
         21   -1    0    0  501  502  0.00000000000E+00  0.00000000000E+00  0.23627150640E+02  0.23627150640E+02  0.00000000000E+00 0.  1.
         21   -1    0    0  502  503 -0.00000000000E+00 -0.00000000000E+00 -0.11570058299E+01  0.11570058299E+01  0.00000000000E+00 0.  1.
          5    1    1    2  501    0 -0.40764464823E+00  0.22313019169E+01  0.10478603755E+02  0.11706238467E+02  0.47000000000E+01 0.  1.
         -5    1    1    2    0  503  0.40764464823E+00 -0.22313019169E+01  0.11991541056E+02  0.13077918003E+02  0.47000000000E+01 0.  1.
<mgrwt>
<rscale>  2 0.52187051E+01</rscale>
<asrwt>0</asrwt>
<pdfrwt beam="1">  1       21 0.36349459E-02 0.52187051E+01</pdfrwt>
<pdfrwt beam="2">  1       21 0.17800091E-03 0.52187051E+01</pdfrwt>
<totfact> 0.47209696E+09</totfact>
</mgrwt>
</event>
<event>
 4    1  0.3992289E+006  0.5132892E+01  0.7546771E-02  0.2544105E+00
         21   -1    0    0  501  502  0.00000000000E+00  0.00000000000E+00  0.52727717100E+01  0.52727717100E+01  0.00000000000E+00 0.  1.
         21   -1    0    0  502  503 -0.00000000000E+00 -0.00000000000E+00 -0.19914144696E+02  0.19914144696E+02  0.00000000000E+00 0.  1.
          5    1    1    2  501    0 -0.51976390499E-02 -0.20631415077E+01  0.35789260178E+01  0.62574189038E+01  0.47000000000E+01 0.  1.
         -5    1    1    2    0  503  0.51976390499E-02  0.20631415077E+01 -0.18220299003E+02  0.18929497502E+02  0.47000000000E+01 0.  1.
<mgrwt>
<rscale>  2 0.51328920E+01</rscale>
<asrwt>0</asrwt>
<pdfrwt beam="1">  1       21 0.81119566E-03 0.51328920E+01</pdfrwt>
<pdfrwt beam="2">  1       21 0.30637145E-02 0.51328920E+01</pdfrwt>
<totfact> 0.74661588E+08</totfact>
</mgrwt>
</event>
<event>
 4    1  0.3992289E+006  0.9985240E+01  0.7546771E-02  0.2075829E+00
         21   -1    0    0  501  502  0.00000000000E+00  0.00000000000E+00  0.25594635819E+04  0.25594635819E+04  0.00000000000E+00 0. -1.
         21   -1    0    0  502  503 -0.00000000000E+00 -0.00000000000E+00 -0.39141467255E-01  0.39141467255E-01  0.00000000000E+00 0.  1.
          5    1    1    2  501    0  0.68706847455E+01  0.55144087589E+01  0.13679395563E+04  0.13679759993E+04  0.47000000000E+01 0. -1.
         -5    1    1    2    0  503 -0.68706847455E+01 -0.55144087589E+01  0.11914848841E+04  0.11915267241E+04  0.47000000000E+01 0.  1.
<mgrwt>
<rscale>  2 0.99852397E+01</rscale>
<asrwt>0</asrwt>
<pdfrwt beam="1">  1       21 0.39362963E+00 0.99852397E+01</pdfrwt>
<pdfrwt beam="2">  1       21 0.60238142E-05 0.99852397E+01</pdfrwt>
<totfact> 0.81341206E+07</totfact>
</mgrwt>
</event>
<event>
 4    1  0.3992289E+006  0.4808889E+01  0.7546771E-02  0.2602216E+00
         21   -1    0    0  501  502  0.00000000000E+00  0.00000000000E+00  0.11014216584E+03  0.11014216584E+03  0.00000000000E+00 0.  1.
         21   -1    0    0  502  503 -0.00000000000E+00 -0.00000000000E+00 -0.30228260548E+00  0.30228260548E+00  0.00000000000E+00 0.  1.
          5    1    1    2  501    0  0.11273891951E+00 -0.10112881407E+01  0.85438365308E+02  0.85573592190E+02  0.47000000000E+01 0.  1.
         -5    1    1    2    0  503 -0.11273891951E+00  0.10112881407E+01  0.24401517922E+02  0.24870856252E+02  0.47000000000E+01 0.  1.
<mgrwt>
<rscale>  2 0.48088890E+01</rscale>
<asrwt>0</asrwt>
<pdfrwt beam="1">  1       21 0.16944917E-01 0.48088890E+01</pdfrwt>
<pdfrwt beam="2">  1       21 0.46505104E-04 0.48088890E+01</pdfrwt>
<totfact> 0.25851879E+09</totfact>
</mgrwt>
</event>
<event>
 4    1  0.3992289E+006  0.4879471E+01  0.7546771E-02  0.2588990E+00
         21   -1    0    0  501  502  0.00000000000E+00  0.00000000000E+00  0.20258222479E+00  0.20258222479E+00  0.00000000000E+00 0.  1.
         21   -1    0    0  502  503 -0.00000000000E+00 -0.00000000000E+00 -0.47011461788E+03  0.47011461788E+03  0.00000000000E+00 0.  1.
          5    1    1    2  501    0  0.12038464670E+01  0.51960541315E+00 -0.31302724494E+02  0.31680748048E+02  0.47000000000E+01 0.  1.
         -5    1    1    2    0  503 -0.12038464670E+01 -0.51960541315E+00 -0.43860931116E+03  0.43863645205E+03  0.47000000000E+01 0.  1.
<mgrwt>
<rscale>  2 0.48794709E+01</rscale>
<asrwt>0</asrwt>
<pdfrwt beam="1">  1       21 0.31166610E-04 0.48794709E+01</pdfrwt>
<pdfrwt beam="2">  1       21 0.72325061E-01 0.48794709E+01</pdfrwt>
<totfact> 0.37847386E+08</totfact>
</mgrwt>
</event>
<event>
 4    1  0.3992289E+006  0.5181644E+01  0.7546771E-02  0.2535905E+00
         21   -1    0    0  501  502  0.00000000000E+00  0.00000000000E+00  0.74625136296E+03  0.74625136296E+03  0.00000000000E+00 0. -1.
         21   -1    0    0  502  503 -0.00000000000E+00 -0.00000000000E+00 -0.40635755383E-01  0.40635755383E-01  0.00000000000E+00 0. -1.
          5    1    1    2  501    0 -0.63189808769E+00 -0.20880942413E+01  0.49942268248E+03  0.49944956223E+03  0.47000000000E+01 0. -1.
         -5    1    1    2    0  503  0.63189808769E+00  0.20880942413E+01  0.24678804473E+03  0.24684243649E+03  0.47000000000E+01 0. -1.
<mgrwt>
<rscale>  2 0.51816438E+01</rscale>
<asrwt>0</asrwt>
<pdfrwt beam="1">  1       21 0.11479693E+00 0.51816438E+01</pdfrwt>
<pdfrwt beam="2">  1       21 0.62522523E-05 0.51816438E+01</pdfrwt>
<totfact> 0.13474808E+09</totfact>
</mgrwt>
</event>
<event>
 4    1  0.3992289E+006  0.5529674E+01  0.7546771E-02  0.2480977E+00
         21   -1    0    0  503  502  0.00000000000E+00  0.00000000000E+00  0.32764182345E+01  0.32764182345E+01  0.00000000000E+00 0.  1.
         21   -1    0    0  501  503 -0.00000000000E+00 -0.00000000000E+00 -0.23019204105E+02  0.23019204105E+02  0.00000000000E+00 0. -1.
          5    1    1    2  501    0 -0.15293066727E+01  0.24796208374E+01 -0.20009506201E+02  0.20759519186E+02  0.47000000000E+01 0. -1.
         -5    1    1    2    0  502  0.15293066727E+01 -0.24796208374E+01  0.26672033085E+00  0.55361031539E+01  0.47000000000E+01 0.  1.
<mgrwt>
<rscale>  2 0.55296743E+01</rscale>
<asrwt>0</asrwt>
<pdfrwt beam="1">  1       21 0.50406435E-03 0.55296743E+01</pdfrwt>
<pdfrwt beam="2">  1       21 0.35414159E-02 0.55296743E+01</pdfrwt>
<totfact> 0.12523964E+09</totfact>
</mgrwt>
</event>
<event>
 4    1  0.3992289E+006  0.5501207E+01  0.7546771E-02  0.2485247E+00
         21   -1    0    0  503  502  0.00000000000E+00  0.00000000000E+00  0.22634815117E+02  0.22634815117E+02  0.00000000000E+00 0. -1.
         21   -1    0    0  501  503 -0.00000000000E+00 -0.00000000000E+00 -0.20884472604E+01  0.20884472604E+01  0.00000000000E+00 0.  1.
          5    1    1    2  501    0 -0.26372731738E+01 -0.11036636839E+01  0.28582644043E+01  0.61994321293E+01  0.47000000000E+01 0.  1.
         -5    1    1    2    0  502  0.26372731738E+01  0.11036636839E+01  0.17688103453E+02  0.18523830248E+02  0.47000000000E+01 0. -1.
<mgrwt>
<rscale>  2 0.55012074E+01</rscale>
<asrwt>0</asrwt>
<pdfrwt beam="1">  1       21 0.34822791E-02 0.55012074E+01</pdfrwt>
<pdfrwt beam="2">  1       21 0.32129959E-03 0.55012074E+01</pdfrwt>
<totfact> 0.23733421E+09</totfact>
</mgrwt>
</event>
<event>
 4    1  0.3992289E+006  0.7988569E+01  0.7546771E-02  0.2211543E+00
         21   -1    0    0  503  502  0.00000000000E+00  0.00000000000E+00  0.10050169035E+03  0.10050169035E+03  0.00000000000E+00 0.  1.
         21   -1    0    0  501  503 -0.00000000000E+00 -0.00000000000E+00 -0.64761636049E+00  0.64761636049E+00  0.00000000000E+00 0.  1.
          5    1    1    2  501    0  0.61717929781E+01  0.19068841618E+01  0.42864349249E+02  0.43602404433E+02  0.47000000000E+01 0.  1.
         -5    1    1    2    0  502 -0.61717929781E+01 -0.19068841618E+01  0.56989724739E+02  0.57546902277E+02  0.47000000000E+01 0.  1.
<mgrwt>
<rscale>  2 0.79885691E+01</rscale>
<asrwt>0</asrwt>
<pdfrwt beam="1">  1       21 0.15461786E-01 0.79885691E+01</pdfrwt>
<pdfrwt beam="2">  1       21 0.99633366E-04 0.79885691E+01</pdfrwt>
<totfact> 0.16251473E+09</totfact>
</mgrwt>
</event>
<event>
 4    1  0.3992289E+006  0.4923084E+01  0.7546771E-02  0.2580982E+00
         21   -1    0    0  501  502  0.00000000000E+00  0.00000000000E+00  0.45385045074E+01  0.45385045074E+01  0.00000000000E+00 0.  1.
         21   -1    0    0  502  503 -0.00000000000E+00 -0.00000000000E+00 -0.59223816869E+01  0.59223816869E+01  0.00000000000E+00 0.  1.
          5    1    1    2  501    0  0.13343677919E+01 -0.60516130790E+00  0.94789648688E+00  0.50135082889E+01  0.47000000000E+01 0.  1.
         -5    1    1    2    0  503 -0.13343677919E+01  0.60516130790E+00 -0.23317736664E+01  0.54473779054E+01  0.47000000000E+01 0.  1.
<mgrwt>
<rscale>  2 0.49230842E+01</rscale>
<asrwt>0</asrwt>
<pdfrwt beam="1">  1       21 0.69823146E-03 0.49230842E+01</pdfrwt>
<pdfrwt beam="2">  1       21 0.91113565E-03 0.49230842E+01</pdfrwt>
<totfact> 0.48913617E+09</totfact>
</mgrwt>
</event>
<event>
 4    1  0.3992289E+006  0.7889420E+01  0.7546771E-02  0.2219689E+00
         21   -1    0    0  503  502  0.00000000000E+00  0.00000000000E+00  0.14489823826E+02  0.14489823826E+02  0.00000000000E+00 0. -1.
         21   -1    0    0  501  503 -0.00000000000E+00 -0.00000000000E+00 -0.64502818393E+01  0.64502818393E+01  0.00000000000E+00 0.  1.
          5    1    1    2  501    0  0.25874423668E+01  0.57842963860E+01 -0.20315185744E+01  0.81467791428E+01  0.47000000000E+01 0. -1.
         -5    1    1    2    0  502 -0.25874423668E+01 -0.57842963860E+01  0.10071060561E+02  0.12793326522E+02  0.47000000000E+01 0. -1.
<mgrwt>
<rscale>  2 0.78894197E+01</rscale>
<asrwt>0</asrwt>
<pdfrwt beam="1">  1       21 0.22292037E-02 0.78894197E+01</pdfrwt>
<pdfrwt beam="2">  1       21 0.99235106E-03 0.78894197E+01</pdfrwt>
<totfact> 0.12516178E+09</totfact>
</mgrwt>
</event>
<event>
 4    1  0.3992289E+006  0.5378756E+01  0.7546771E-02  0.2504052E+00
         21   -1    0    0  503  502  0.00000000000E+00  0.00000000000E+00  0.84040244068E+01  0.84040244068E+01  0.00000000000E+00 0.  1.
         21   -1    0    0  501  503 -0.00000000000E+00 -0.00000000000E+00 -0.38461143640E+01  0.38461143640E+01  0.00000000000E+00 0.  1.
          5    1    1    2  501    0  0.17178727643E+01  0.19722913168E+01  0.29481368531E+00  0.53868297710E+01  0.47000000000E+01 0. -1.
         -5    1    1    2    0  502 -0.17178727643E+01 -0.19722913168E+01  0.42630963575E+01  0.68633089998E+01  0.47000000000E+01 0. -1.
<mgrwt>
<rscale>  2 0.53787563E+01</rscale>
<asrwt>0</asrwt>
<pdfrwt beam="1">  1       21 0.12929268E-02 0.53787563E+01</pdfrwt>
<pdfrwt beam="2">  1       21 0.59170990E-03 0.53787563E+01</pdfrwt>
<totfact> 0.41318538E+09</totfact>
</mgrwt>
</event>
<event>
 4    1  0.3992289E+006  0.5677649E+01  0.7546771E-02  0.2459366E+00
         21   -1    0    0  501  502  0.00000000000E+00  0.00000000000E+00  0.96474794045E+02  0.96474794045E+02  0.00000000000E+00 0.  1.
         21   -1    0    0  502  503 -0.00000000000E+00 -0.00000000000E+00 -0.57660083367E+00  0.57660083367E+00  0.00000000000E+00 0.  1.
          5    1    1    2  501    0  0.31850314595E+01 -0.35674936982E-01  0.79416330385E+02  0.79619025553E+02  0.47000000000E+01 0.  1.
         -5    1    1    2    0  503 -0.31850314595E+01  0.35674936982E-01  0.16481862826E+02  0.17432369326E+02  0.47000000000E+01 0.  1.
<mgrwt>
<rscale>  2 0.56776490E+01</rscale>
<asrwt>0</asrwt>
<pdfrwt beam="1">  1       21 0.14842263E-01 0.56776490E+01</pdfrwt>
<pdfrwt beam="2">  1       21 0.88707897E-04 0.56776490E+01</pdfrwt>
<totfact> 0.15708522E+09</totfact>
</mgrwt>
</event>
<event>
 4    1  0.3992289E+006  0.6631655E+01  0.7546771E-02  0.2339812E+00
         21   -1    0    0  501  502  0.00000000000E+00  0.00000000000E+00  0.70284056016E+00  0.70284056016E+00  0.00000000000E+00 0.  1.
         21   -1    0    0  502  503 -0.00000000000E+00 -0.00000000000E+00 -0.14239845347E+03  0.14239845347E+03  0.00000000000E+00 0. -1.
          5    1    1    2  501    0 -0.18783217196E+01 -0.42849451581E+01 -0.17276577880E+02  0.18505647536E+02  0.47000000000E+01 0.  1.
         -5    1    1    2    0  503  0.18783217196E+01  0.42849451581E+01 -0.12441903503E+03  0.12459564649E+03  0.47000000000E+01 0. -1.
<mgrwt>
<rscale>  2 0.66316550E+01</rscale>
<asrwt>0</asrwt>
<pdfrwt beam="1">  1       21 0.10812931E-03 0.66316550E+01</pdfrwt>
<pdfrwt beam="2">  1       21 0.21907456E-01 0.66316550E+01</pdfrwt>
<totfact> 0.72633941E+08</totfact>
</mgrwt>
</event>
<event>
 4    1  0.3992289E+006  0.6302388E+01  0.7546771E-02  0.2377654E+00
         21   -1    0    0  501  502  0.00000000000E+00  0.00000000000E+00  0.75940280939E+01  0.75940280939E+01  0.00000000000E+00 0. -1.
         21   -1    0    0  502  503 -0.00000000000E+00 -0.00000000000E+00 -0.79141769450E+01  0.79141769450E+01  0.00000000000E+00 0.  1.
          5    1    1    2  501    0 -0.41963796005E+01 -0.14314747181E+00  0.43553522744E+01  0.76608867884E+01  0.47000000000E+01 0. -1.
         -5    1    1    2    0  503  0.41963796005E+01  0.14314747181E+00 -0.46755011255E+01  0.78473182505E+01  0.47000000000E+01 0.  1.
<mgrwt>
<rscale>  2 0.63023879E+01</rscale>
<asrwt>0</asrwt>
<pdfrwt beam="1">  1       21 0.11683120E-02 0.63023879E+01</pdfrwt>
<pdfrwt beam="2">  1       21 0.12175657E-02 0.63023879E+01</pdfrwt>
<totfact> 0.19996193E+09</totfact>
</mgrwt>
</event>
