<event>
 4    1  0.3906087E+006  0.5251727E+01  0.7546771E-02  0.2524346E+00
         21   -1    0    0  501  502  0.00000000000E+00  0.00000000000E+00  0.48192953042E+02  0.48192953042E+02  0.00000000000E+00 0.  1.
         21   -1    0    0  502  503 -0.00000000000E+00 -0.00000000000E+00 -0.23662067953E+01  0.23662067953E+01  0.00000000000E+00 0.  1.
          5    1    1    2  501    0  0.17334184269E+01 -0.15766718009E+01  0.44924583668E+02  0.45230507970E+02  0.47000000000E+01 0.  1.
         -5    1    1    2    0  503 -0.17334184269E+01  0.15766718009E+01  0.90216257844E+00  0.53286518678E+01  0.47000000000E+01 0.  1.
<mgrwt>
<rscale>  2 0.52517267E+01</rscale>
<asrwt>0</asrwt>
<pdfrwt beam="1">  1       21 0.74142997E-02 0.52517267E+01</pdfrwt>
<pdfrwt beam="2">  1       21 0.36403185E-03 0.52517267E+01</pdfrwt>
<totfact> 0.63081854E+08</totfact>
</mgrwt>
</event>
<event>
 4    1  0.3906087E+006  0.5244057E+01  0.7546771E-02  0.2525598E+00
         21   -1    0    0  501  502  0.00000000000E+00  0.00000000000E+00  0.20391405560E+00  0.20391405560E+00  0.00000000000E+00 0. -1.
         21   -1    0    0  502  503 -0.00000000000E+00 -0.00000000000E+00 -0.14209034202E+03  0.14209034202E+03  0.00000000000E+00 0. -1.
          5    1    1    2  501    0  0.22244705031E+01 -0.67960476411E+00 -0.54895507943E+02  0.55145416165E+02  0.47000000000E+01 0. -1.
         -5    1    1    2    0  503 -0.22244705031E+01  0.67960476411E+00 -0.86990920026E+02  0.87148839916E+02  0.47000000000E+01 0. -1.
<mgrwt>
<rscale>  2 0.52440568E+01</rscale>
<asrwt>0</asrwt>
<pdfrwt beam="1">  1       21 0.31371373E-04 0.52440568E+01</pdfrwt>
<pdfrwt beam="2">  1       21 0.21860067E-01 0.52440568E+01</pdfrwt>
<totfact> 0.31584172E+09</totfact>
</mgrwt>
</event>
<event>
 4    1  0.3906087E+006  0.4965410E+01  0.7546771E-02  0.2573327E+00
         21   -1    0    0  503  502  0.00000000000E+00  0.00000000000E+00  0.49112420045E+00  0.49112420045E+00  0.00000000000E+00 0. -1.
         21   -1    0    0  501  503 -0.00000000000E+00 -0.00000000000E+00 -0.67322461346E+02  0.67322461346E+02  0.00000000000E+00 0.  1.
          5    1    1    2  501    0  0.15978165902E+01 -0.11080712896E+00 -0.50514545118E+02  0.50758000006E+02  0.47000000000E+01 0.  1.
         -5    1    1    2    0  502 -0.15978165902E+01  0.11080712896E+00 -0.16316792027E+02  0.17055585541E+02  0.47000000000E+01 0. -1.
<mgrwt>
<rscale>  2 0.49654100E+01</rscale>
<asrwt>0</asrwt>
<pdfrwt beam="1">  1       21 0.75557607E-04 0.49654100E+01</pdfrwt>
<pdfrwt beam="2">  1       21 0.10357297E-01 0.49654100E+01</pdfrwt>
<totfact> 0.29936562E+09</totfact>
</mgrwt>
</event>
<event>
 4    1  0.3906087E+006  0.6551659E+01  0.7546771E-02  0.2348716E+00
         21   -1    0    0  503  502  0.00000000000E+00  0.00000000000E+00  0.28250988609E+01  0.28250988609E+01  0.00000000000E+00 0. -1.
         21   -1    0    0  501  503 -0.00000000000E+00 -0.00000000000E+00 -0.30262499288E+02  0.30262499288E+02  0.00000000000E+00 0. -1.
          5    1    1    2  501    0  0.43176044759E+01  0.14807198367E+01 -0.25392693669E+02  0.26224285146E+02  0.47000000000E+01 0. -1.
         -5    1    1    2    0  502 -0.43176044759E+01 -0.14807198367E+01 -0.20447067574E+01  0.68633130024E+01  0.47000000000E+01 0. -1.
<mgrwt>
<rscale>  2 0.65516593E+01</rscale>
<asrwt>0</asrwt>
<pdfrwt beam="1">  1       21 0.43463058E-03 0.65516593E+01</pdfrwt>
<pdfrwt beam="2">  1       21 0.46557693E-02 0.65516593E+01</pdfrwt>
<totfact> 0.11829407E+09</totfact>
</mgrwt>
</event>
<event>
 4    1  0.3906087E+006  0.7074511E+01  0.7546771E-02  0.2293547E+00
         21   -1    0    0  503  502  0.00000000000E+00  0.00000000000E+00  0.26549247940E+03  0.26549247940E+03  0.00000000000E+00 0.  1.
         21   -1    0    0  501  503 -0.00000000000E+00 -0.00000000000E+00 -0.22105887692E+00  0.22105887692E+00  0.00000000000E+00 0. -1.
          5    1    1    2  501    0 -0.44239834011E+01  0.28960443811E+01  0.81658067890E+02  0.81963947890E+02  0.47000000000E+01 0. -1.
         -5    1    1    2    0  502  0.44239834011E+01 -0.28960443811E+01  0.18361335263E+03  0.18374959039E+03  0.47000000000E+01 0.  1.
<mgrwt>
<rscale>  2 0.70745107E+01</rscale>
<asrwt>0</asrwt>
<pdfrwt beam="1">  1       21 0.40844742E-01 0.70745107E+01</pdfrwt>
<pdfrwt beam="2">  1       21 0.34009270E-04 0.70745107E+01</pdfrwt>
<totfact> 0.12501987E+09</totfact>
</mgrwt>
</event>
<event>
 4    1  0.3906087E+006  0.5657187E+01  0.7546771E-02  0.2462298E+00
         21   -1    0    0  501  502  0.00000000000E+00  0.00000000000E+00  0.38902284654E+03  0.38902284654E+03  0.00000000000E+00 0.  1.
         21   -1    0    0  502  503 -0.00000000000E+00 -0.00000000000E+00 -0.47942337651E+00  0.47942337651E+00  0.00000000000E+00 0. -1.
          5    1    1    2  501    0  0.14254002882E+01 -0.28074904823E+01  0.37152778604E+03  0.37157085404E+03  0.47000000000E+01 0.  1.
         -5    1    1    2    0  503 -0.14254002882E+01  0.28074904823E+01  0.17015637127E+02  0.17931415884E+02  0.47000000000E+01 0. -1.
<mgrwt>
<rscale>  2 0.56571874E+01</rscale>
<asrwt>0</asrwt>
<pdfrwt beam="1">  1       21 0.59849416E-01 0.56571874E+01</pdfrwt>
<pdfrwt beam="2">  1       21 0.73757754E-04 0.56571874E+01</pdfrwt>
<totfact> 0.19117755E+08</totfact>
</mgrwt>
</event>
<event>
 4    1  0.3906087E+006  0.5841152E+01  0.7546771E-02  0.2436568E+00
         21   -1    0    0  503  502  0.00000000000E+00  0.00000000000E+00  0.94034124585E+01  0.94034124585E+01  0.00000000000E+00 0.  1.
         21   -1    0    0  501  503 -0.00000000000E+00 -0.00000000000E+00 -0.42567882382E+01  0.42567882382E+01  0.00000000000E+00 0.  1.
          5    1    1    2  501    0 -0.60042633439E+00 -0.34159252381E+01 -0.50970176873E-01  0.58413744080E+01  0.47000000000E+01 0.  1.
         -5    1    1    2    0  502  0.60042633439E+00  0.34159252381E+01  0.51975943972E+01  0.78188262887E+01  0.47000000000E+01 0.  1.
<mgrwt>
<rscale>  2 0.58411520E+01</rscale>
<asrwt>0</asrwt>
<pdfrwt beam="1">  1       21 0.14466788E-02 0.58411520E+01</pdfrwt>
<pdfrwt beam="2">  1       21 0.65489050E-03 0.58411520E+01</pdfrwt>
<totfact> 0.33074522E+09</totfact>
</mgrwt>
</event>
<event>
 4    1  0.3906087E+006  0.5235144E+01  0.7546771E-02  0.2527057E+00
         21   -1    0    0  501  502  0.00000000000E+00  0.00000000000E+00  0.95062149109E+02  0.95062149109E+02  0.00000000000E+00 0.  1.
         21   -1    0    0  502  503 -0.00000000000E+00 -0.00000000000E+00 -0.66605359814E+00  0.66605359814E+00  0.00000000000E+00 0.  1.
          5    1    1    2  501    0 -0.17328215195E+01  0.15212048264E+01  0.83244100041E+02  0.83408554274E+02  0.47000000000E+01 0.  1.
         -5    1    1    2    0  503  0.17328215195E+01 -0.15212048264E+01  0.11151995470E+02  0.12319648433E+02  0.47000000000E+01 0.  1.
<mgrwt>
<rscale>  2 0.52351442E+01</rscale>
<asrwt>0</asrwt>
<pdfrwt beam="1">  1       21 0.14624935E-01 0.52351442E+01</pdfrwt>
<pdfrwt beam="2">  1       21 0.10246986E-03 0.52351442E+01</pdfrwt>
<totfact> 0.12360211E+09</totfact>
</mgrwt>
</event>
<event>
 4    1  0.3906087E+006  0.4989449E+01  0.7546771E-02  0.2569029E+00
         21   -1    0    0  501  502  0.00000000000E+00  0.00000000000E+00  0.10082184156E+02  0.10082184156E+02  0.00000000000E+00 0. -1.
         21   -1    0    0  502  503 -0.00000000000E+00 -0.00000000000E+00 -0.42817983350E+01  0.42817983350E+01  0.00000000000E+00 0. -1.
          5    1    1    2  501    0  0.16033963779E+01 -0.48345179869E+00 -0.17727061461E+01  0.52950063897E+01  0.47000000000E+01 0. -1.
         -5    1    1    2    0  503 -0.16033963779E+01  0.48345179869E+00  0.75730919675E+01  0.90689761018E+01  0.47000000000E+01 0. -1.
<mgrwt>
<rscale>  2 0.49894494E+01</rscale>
<asrwt>0</asrwt>
<pdfrwt beam="1">  1       21 0.15511052E-02 0.49894494E+01</pdfrwt>
<pdfrwt beam="2">  1       21 0.65873821E-03 0.49894494E+01</pdfrwt>
<totfact> 0.25535810E+09</totfact>
</mgrwt>
</event>
<event>
 4    1  0.3906087E+006  0.4964000E+01  0.7546771E-02  0.2573580E+00
         21   -1    0    0  501  502  0.00000000000E+00  0.00000000000E+00  0.88346976860E+01  0.88346976860E+01  0.00000000000E+00 0.  1.
         21   -1    0    0  502  503 -0.00000000000E+00 -0.00000000000E+00 -0.61465482799E+01  0.61465482799E+01  0.00000000000E+00 0.  1.
          5    1    1    2  501    0  0.15945411314E+01  0.93460445866E-01  0.68801721704E+01  0.84839887653E+01  0.47000000000E+01 0.  1.
         -5    1    1    2    0  503 -0.15945411314E+01 -0.93460445866E-01 -0.41920227643E+01  0.64972572006E+01  0.47000000000E+01 0.  1.
<mgrwt>
<rscale>  2 0.49640000E+01</rscale>
<asrwt>0</asrwt>
<pdfrwt beam="1">  1       21 0.13591843E-02 0.49640000E+01</pdfrwt>
<pdfrwt beam="2">  1       21 0.94562282E-03 0.49640000E+01</pdfrwt>
<totfact> 0.18528061E+09</totfact>
</mgrwt>
</event>
<event>
 4    1  0.3906087E+006  0.1023665E+02  0.7546771E-02  0.2061764E+00
         21   -1    0    0  503  502  0.00000000000E+00  0.00000000000E+00  0.38830499651E+01  0.38830499651E+01  0.00000000000E+00 0.  1.
         21   -1    0    0  501  503 -0.00000000000E+00 -0.00000000000E+00 -0.31342603759E+02  0.31342603759E+02  0.00000000000E+00 0. -1.
          5    1    1    2  501    0  0.76027285258E+01  0.49897478246E+01 -0.20296092042E+02  0.22731485138E+02  0.47000000000E+01 0. -1.
         -5    1    1    2    0  502 -0.76027285258E+01 -0.49897478246E+01 -0.71634617518E+01  0.12494168586E+02  0.47000000000E+01 0.  1.
<mgrwt>
<rscale>  2 0.10236653E+02</rscale>
<asrwt>0</asrwt>
<pdfrwt beam="1">  1       21 0.59739228E-03 0.10236653E+02</pdfrwt>
<pdfrwt beam="2">  1       21 0.48219392E-02 0.10236653E+02</pdfrwt>
<totfact> 0.96162867E+08</totfact>
</mgrwt>
</event>
<event>
 4    1  0.3906087E+006  0.4893575E+01  0.7546771E-02  0.2586387E+00
         21   -1    0    0  503  502  0.00000000000E+00  0.00000000000E+00  0.38004315752E+01  0.38004315752E+01  0.00000000000E+00 0. -1.
         21   -1    0    0  501  503 -0.00000000000E+00 -0.00000000000E+00 -0.65869141197E+01  0.65869141197E+01  0.00000000000E+00 0. -1.
          5    1    1    2  501    0 -0.97887251025E+00  0.94809512935E+00 -0.24750243123E+01  0.54838691735E+01  0.47000000000E+01 0. -1.
         -5    1    1    2    0  502  0.97887251025E+00 -0.94809512935E+00 -0.31145823216E+00  0.49034765214E+01  0.47000000000E+01 0. -1.
<mgrwt>
<rscale>  2 0.48935749E+01</rscale>
<asrwt>0</asrwt>
<pdfrwt beam="1">  1       21 0.58468179E-03 0.48935749E+01</pdfrwt>
<pdfrwt beam="2">  1       21 0.10133714E-02 0.48935749E+01</pdfrwt>
<totfact> 0.53535816E+09</totfact>
</mgrwt>
</event>
<event>
 4    1  0.3906087E+006  0.1217035E+02  0.7546771E-02  0.1969119E+00
         21   -1    0    0  501  502  0.00000000000E+00  0.00000000000E+00  0.54804970225E+01  0.54804970225E+01  0.00000000000E+00 0. -1.
         21   -1    0    0  502  503 -0.00000000000E+00 -0.00000000000E+00 -0.28832807254E+02  0.28832807254E+02  0.00000000000E+00 0.  1.
          5    1    1    2  501    0 -0.10311651642E+02  0.44381731695E+01 -0.73816879431E+01  0.14234003568E+02  0.47000000000E+01 0. -1.
         -5    1    1    2    0  503  0.10311651642E+02 -0.44381731695E+01 -0.15970622288E+02  0.20079300709E+02  0.47000000000E+01 0.  1.
<mgrwt>
<rscale>  2 0.12170355E+02</rscale>
<asrwt>0</asrwt>
<pdfrwt beam="1">  1       21 0.84315340E-03 0.12170355E+02</pdfrwt>
<pdfrwt beam="2">  1       21 0.44358165E-02 0.12170355E+02</pdfrwt>
<totfact> 0.72872033E+08</totfact>
</mgrwt>
</event>
<event>
 4    1  0.3906087E+006  0.8567140E+01  0.7546771E-02  0.2167061E+00
         21   -1    0    0  501  502  0.00000000000E+00  0.00000000000E+00  0.13634001958E+04  0.13634001958E+04  0.00000000000E+00 0. -1.
         21   -1    0    0  502  503 -0.00000000000E+00 -0.00000000000E+00 -0.54051822593E-01  0.54051822593E-01  0.00000000000E+00 0.  1.
          5    1    1    2  501    0 -0.71062303320E+01 -0.89853924335E+00  0.72505220935E+03  0.72510282178E+03  0.47000000000E+01 0. -1.
         -5    1    1    2    0  503  0.71062303320E+01  0.89853924335E+00  0.63829393462E+03  0.63835142583E+03  0.47000000000E+01 0.  1.
<mgrwt>
<rscale>  2 0.85671397E+01</rscale>
<asrwt>0</asrwt>
<pdfrwt beam="1">  1       21 0.20972634E+00 0.85671397E+01</pdfrwt>
<pdfrwt beam="2">  1       21 0.83167570E-05 0.85671397E+01</pdfrwt>
<totfact> 0.32969829E+08</totfact>
</mgrwt>
</event>
<event>
 4    1  0.3906087E+006  0.4901369E+01  0.7546771E-02  0.2584954E+00
         21   -1    0    0  503  502  0.00000000000E+00  0.00000000000E+00  0.13629657767E+01  0.13629657767E+01  0.00000000000E+00 0.  1.
         21   -1    0    0  501  503 -0.00000000000E+00 -0.00000000000E+00 -0.17651624487E+02  0.17651624487E+02  0.00000000000E+00 0. -1.
          5    1    1    2  501    0 -0.10536369795E+01 -0.90734322348E+00 -0.85076644914E+01  0.98185425450E+01  0.47000000000E+01 0.  1.
         -5    1    1    2    0  502  0.10536369795E+01  0.90734322348E+00 -0.77809942191E+01  0.91960477188E+01  0.47000000000E+01 0.  1.
<mgrwt>
<rscale>  2 0.49013695E+01</rscale>
<asrwt>0</asrwt>
<pdfrwt beam="1">  1       21 0.20968705E-03 0.49013695E+01</pdfrwt>
<pdfrwt beam="2">  1       21 0.27156344E-02 0.49013695E+01</pdfrwt>
<totfact> 0.53941026E+09</totfact>
</mgrwt>
</event>
<event>
 4    1  0.3906087E+006  0.1700175E+02  0.7546771E-02  0.1812494E+00
         21   -1    0    0  503  502  0.00000000000E+00  0.00000000000E+00  0.11695849840E+02  0.11695849840E+02  0.00000000000E+00 0.  1.
         21   -1    0    0  501  503 -0.00000000000E+00 -0.00000000000E+00 -0.25720733061E+02  0.25720733061E+02  0.00000000000E+00 0.  1.
          5    1    1    2  501    0  0.76558752050E+01  0.14434583008E+02 -0.10712384701E+02  0.20095143636E+02  0.47000000000E+01 0.  1.
         -5    1    1    2    0  502 -0.76558752050E+01 -0.14434583008E+02 -0.33124985192E+01  0.17321439265E+02  0.47000000000E+01 0.  1.
<mgrwt>
<rscale>  2 0.17001753E+02</rscale>
<asrwt>0</asrwt>
<pdfrwt beam="1">  1       21 0.17993615E-02 0.17001753E+02</pdfrwt>
<pdfrwt beam="2">  1       21 0.39570358E-02 0.17001753E+02</pdfrwt>
<totfact> 0.32765194E+08</totfact>
</mgrwt>
</event>
<event>
 4    1  0.3906087E+006  0.5621501E+01  0.7546771E-02  0.2467453E+00
         21   -1    0    0  503  502  0.00000000000E+00  0.00000000000E+00  0.93725027494E+01  0.93725027494E+01  0.00000000000E+00 0.  1.
         21   -1    0    0  501  503 -0.00000000000E+00 -0.00000000000E+00 -0.37195169296E+01  0.37195169296E+01  0.00000000000E+00 0.  1.
          5    1    1    2  501    0 -0.16570533600E+01 -0.26010476609E+01  0.82475018251E+00  0.56816800012E+01  0.47000000000E+01 0.  1.
         -5    1    1    2    0  502  0.16570533600E+01  0.26010476609E+01  0.48282356373E+01  0.74103396779E+01  0.47000000000E+01 0.  1.
<mgrwt>
<rscale>  2 0.56215011E+01</rscale>
<asrwt>0</asrwt>
<pdfrwt beam="1">  1       21 0.14419235E-02 0.56215011E+01</pdfrwt>
<pdfrwt beam="2">  1       21 0.57223338E-03 0.56215011E+01</pdfrwt>
<totfact> 0.38700704E+09</totfact>
</mgrwt>
</event>
<event>
 4    1  0.3906087E+006  0.5191111E+01  0.7546771E-02  0.2534328E+00
         21   -1    0    0  503  502  0.00000000000E+00  0.00000000000E+00  0.88543922864E+02  0.88543922864E+02  0.00000000000E+00 0.  1.
         21   -1    0    0  501  503 -0.00000000000E+00 -0.00000000000E+00 -0.33125051244E+00  0.33125051244E+00  0.00000000000E+00 0. -1.
          5    1    1    2  501    0 -0.12678440887E+01 -0.18028336048E+01  0.31440999142E+02  0.31866660708E+02  0.47000000000E+01 0. -1.
         -5    1    1    2    0  502  0.12678440887E+01  0.18028336048E+01  0.56771673209E+02  0.57008512668E+02  0.47000000000E+01 0.  1.
<mgrwt>
<rscale>  2 0.51911114E+01</rscale>
<asrwt>0</asrwt>
<pdfrwt beam="1">  1       21 0.13622123E-01 0.51911114E+01</pdfrwt>
<pdfrwt beam="2">  1       21 0.50961688E-04 0.51911114E+01</pdfrwt>
<totfact> 0.34653071E+09</totfact>
</mgrwt>
</event>
<event>
 4    1  0.3906087E+006  0.6401129E+01  0.7546771E-02  0.2365967E+00
         21   -1    0    0  503  502  0.00000000000E+00  0.00000000000E+00  0.14206229560E+02  0.14206229560E+02  0.00000000000E+00 0.  1.
         21   -1    0    0  501  503 -0.00000000000E+00 -0.00000000000E+00 -0.29239213716E+01  0.29239213716E+01  0.00000000000E+00 0.  1.
          5    1    1    2  501    0  0.24287979899E+01  0.36035257745E+01  0.46436079830E+01  0.79080688403E+01  0.47000000000E+01 0.  1.
         -5    1    1    2    0  502 -0.24287979899E+01 -0.36035257745E+01  0.66387002057E+01  0.92220820916E+01  0.47000000000E+01 0.  1.
<mgrwt>
<rscale>  2 0.64011294E+01</rscale>
<asrwt>0</asrwt>
<pdfrwt beam="1">  1       21 0.21855737E-02 0.64011294E+01</pdfrwt>
<pdfrwt beam="2">  1       21 0.44983407E-03 0.64011294E+01</pdfrwt>
<totfact> 0.33503798E+09</totfact>
</mgrwt>
</event>
<event>
 4    1  0.3906087E+006  0.5716810E+01  0.7546771E-02  0.2453806E+00
         21   -1    0    0  501  502  0.00000000000E+00  0.00000000000E+00  0.11183595185E+02  0.11183595185E+02  0.00000000000E+00 0. -1.
         21   -1    0    0  502  503 -0.00000000000E+00 -0.00000000000E+00 -0.13143114964E+02  0.13143114964E+02  0.00000000000E+00 0.  1.
          5    1    1    2  501    0  0.30246685899E+01 -0.12013729211E+01  0.97464628376E+01  0.11299356390E+02  0.47000000000E+01 0. -1.
         -5    1    1    2    0  503 -0.30246685899E+01  0.12013729211E+01 -0.11705982617E+02  0.13027353760E+02  0.47000000000E+01 0.  1.
<mgrwt>
<rscale>  2 0.57168100E+01</rscale>
<asrwt>0</asrwt>
<pdfrwt beam="1">  1       21 0.17205531E-02 0.57168100E+01</pdfrwt>
<pdfrwt beam="2">  1       21 0.20220177E-02 0.57168100E+01</pdfrwt>
<totfact> 0.51590600E+08</totfact>
</mgrwt>
</event>
<event>
 4    1  0.3906087E+006  0.6462062E+01  0.7546771E-02  0.2358904E+00
         21   -1    0    0  501  502  0.00000000000E+00  0.00000000000E+00  0.35839364786E+01  0.35839364786E+01  0.00000000000E+00 0. -1.
         21   -1    0    0  502  503 -0.00000000000E+00 -0.00000000000E+00 -0.26277498935E+02  0.26277498935E+02  0.00000000000E+00 0. -1.
          5    1    1    2  501    0 -0.18071281090E+01  0.40500043028E+01 -0.20764810825E+00  0.64653974814E+01  0.47000000000E+01 0. -1.
         -5    1    1    2    0  503  0.18071281090E+01 -0.40500043028E+01 -0.22485914348E+02  0.23396037933E+02  0.47000000000E+01 0. -1.
<mgrwt>
<rscale>  2 0.64620621E+01</rscale>
<asrwt>0</asrwt>
<pdfrwt beam="1">  1       21 0.55137485E-03 0.64620621E+01</pdfrwt>
<pdfrwt beam="2">  1       21 0.40426921E-02 0.64620621E+01</pdfrwt>
<totfact> 0.10351788E+09</totfact>
</mgrwt>
</event>
<event>
 4    1  0.3906087E+006  0.9578781E+01  0.7546771E-02  0.2099783E+00
         21   -1    0    0  503  502  0.00000000000E+00  0.00000000000E+00  0.35787515913E+00  0.35787515913E+00  0.00000000000E+00 0. -1.
         21   -1    0    0  501  503 -0.00000000000E+00 -0.00000000000E+00 -0.45132534579E+03  0.45132534579E+03  0.00000000000E+00 0. -1.
          5    1    1    2  501    0  0.55865443800E+01  0.62010935650E+01 -0.37391056253E+03  0.37403323623E+03  0.47000000000E+01 0. -1.
         -5    1    1    2    0  502 -0.55865443800E+01 -0.62010935650E+01 -0.77056908107E+02  0.77649984717E+02  0.47000000000E+01 0. -1.
<mgrwt>
<rscale>  2 0.95787807E+01</rscale>
<asrwt>0</asrwt>
<pdfrwt beam="1">  1       21 0.55057704E-04 0.95787807E+01</pdfrwt>
<pdfrwt beam="2">  1       21 0.69434685E-01 0.95787807E+01</pdfrwt>
<totfact> 0.28816975E+08</totfact>
</mgrwt>
</event>
<event>
 4    1  0.3906087E+006  0.5771428E+01  0.7546771E-02  0.2446157E+00
         21   -1    0    0  503  502  0.00000000000E+00  0.00000000000E+00  0.41855882624E+02  0.41855882624E+02  0.00000000000E+00 0. -1.
         21   -1    0    0  501  503 -0.00000000000E+00 -0.00000000000E+00 -0.14564758614E+01  0.14564758614E+01  0.00000000000E+00 0. -1.
          5    1    1    2  501    0  0.26266678100E+01  0.20784592537E+01  0.56142223105E+01  0.80516376474E+01  0.47000000000E+01 0. -1.
         -5    1    1    2    0  502 -0.26266678100E+01 -0.20784592537E+01  0.34785184452E+02  0.35260720838E+02  0.47000000000E+01 0. -1.
<mgrwt>
<rscale>  2 0.57714276E+01</rscale>
<asrwt>0</asrwt>
<pdfrwt beam="1">  1       21 0.64393657E-02 0.57714276E+01</pdfrwt>
<pdfrwt beam="2">  1       21 0.22407324E-03 0.57714276E+01</pdfrwt>
<totfact> 0.16372212E+09</totfact>
</mgrwt>
</event>
<event>
 4    1  0.3906087E+006  0.5254955E+01  0.7546771E-02  0.2523820E+00
         21   -1    0    0  503  502  0.00000000000E+00  0.00000000000E+00  0.77836906810E+00  0.77836906810E+00  0.00000000000E+00 0. -1.
         21   -1    0    0  501  503 -0.00000000000E+00 -0.00000000000E+00 -0.47593777029E+02  0.47593777029E+02  0.00000000000E+00 0. -1.
          5    1    1    2  501    0  0.18780892149E+00  0.23429204214E+01 -0.35610962174E+02  0.35996599496E+02  0.47000000000E+01 0. -1.
         -5    1    1    2    0  502 -0.18780892149E+00 -0.23429204214E+01 -0.11204445786E+02  0.12375546601E+02  0.47000000000E+01 0. -1.
<mgrwt>
<rscale>  2 0.52549546E+01</rscale>
<asrwt>0</asrwt>
<pdfrwt beam="1">  1       21 0.11974907E-03 0.52549546E+01</pdfrwt>
<pdfrwt beam="2">  1       21 0.73221205E-02 0.52549546E+01</pdfrwt>
<totfact> 0.28895230E+09</totfact>
</mgrwt>
</event>
<event>
 4    1  0.3906087E+006  0.4811003E+01  0.7546771E-02  0.2601815E+00
         21   -1    0    0  501  502  0.00000000000E+00  0.00000000000E+00  0.15505573695E+03  0.15505573695E+03  0.00000000000E+00 0. -1.
         21   -1    0    0  502  503 -0.00000000000E+00 -0.00000000000E+00 -0.22192877893E+00  0.22192877893E+00  0.00000000000E+00 0. -1.
          5    1    1    2  501    0  0.60413583576E-01 -0.10257182272E+01  0.12183961891E+03  0.12193456640E+03  0.47000000000E+01 0. -1.
         -5    1    1    2    0  503 -0.60413583576E-01  0.10257182272E+01  0.32994189261E+02  0.33343099326E+02  0.47000000000E+01 0. -1.
<mgrwt>
<rscale>  2 0.48110028E+01</rscale>
<asrwt>0</asrwt>
<pdfrwt beam="1">  1       21 0.23854642E-01 0.48110028E+01</pdfrwt>
<pdfrwt beam="2">  1       21 0.34143013E-04 0.48110028E+01</pdfrwt>
<totfact> 0.22613933E+09</totfact>
</mgrwt>
</event>
<event>
 4    1  0.3906087E+006  0.6447364E+01  0.7546771E-02  0.2360598E+00
         21   -1    0    0  501  502  0.00000000000E+00  0.00000000000E+00  0.45064850670E+00  0.45064850670E+00  0.00000000000E+00 0.  1.
         21   -1    0    0  502  503 -0.00000000000E+00 -0.00000000000E+00 -0.95316651498E+02  0.95316651498E+02  0.00000000000E+00 0. -1.
          5    1    1    2  501    0 -0.35563063600E+01  0.26136536859E+01 -0.38832275095E+02  0.39363867818E+02  0.47000000000E+01 0. -1.
         -5    1    1    2    0  503  0.35563063600E+01 -0.26136536859E+01 -0.56033727896E+02  0.56403432186E+02  0.47000000000E+01 0. -1.
<mgrwt>
<rscale>  2 0.64473638E+01</rscale>
<asrwt>0</asrwt>
<pdfrwt beam="1">  1       21 0.69330419E-04 0.64473638E+01</pdfrwt>
<pdfrwt beam="2">  1       21 0.14664126E-01 0.64473638E+01</pdfrwt>
<totfact> 0.24722173E+09</totfact>
</mgrwt>
</event>
<event>
 4    1  0.3906087E+006  0.7263270E+01  0.7546771E-02  0.2275243E+00
         21   -1    0    0  501  502  0.00000000000E+00  0.00000000000E+00  0.22217252647E+01  0.22217252647E+01  0.00000000000E+00 0. -1.
         21   -1    0    0  502  503 -0.00000000000E+00 -0.00000000000E+00 -0.58895251893E+02  0.58895251893E+02  0.00000000000E+00 0.  1.
          5    1    1    2  501    0 -0.55082878047E+01  0.56908115454E+00 -0.47289733090E+01  0.86670800422E+01  0.47000000000E+01 0. -1.
         -5    1    1    2    0  503  0.55082878047E+01 -0.56908115454E+00 -0.51944553319E+02  0.52449897115E+02  0.47000000000E+01 0.  1.
<mgrwt>
<rscale>  2 0.72632698E+01</rscale>
<asrwt>0</asrwt>
<pdfrwt beam="1">  1       21 0.34180392E-03 0.72632698E+01</pdfrwt>
<pdfrwt beam="2">  1       21 0.90608072E-02 0.72632698E+01</pdfrwt>
<totfact> 0.64861018E+08</totfact>
</mgrwt>
</event>
<event>
 4    1  0.3906087E+006  0.5605082E+01  0.7546771E-02  0.2469844E+00
         21   -1    0    0  503  502  0.00000000000E+00  0.00000000000E+00  0.85787282919E+00  0.85787282919E+00  0.00000000000E+00 0.  1.
         21   -1    0    0  501  503 -0.00000000000E+00 -0.00000000000E+00 -0.38408112723E+02  0.38408112723E+02  0.00000000000E+00 0.  1.
          5    1    1    2  501    0 -0.39355689762E+00  0.30285406137E+01 -0.23009012835E+02  0.23681883728E+02  0.47000000000E+01 0.  1.
         -5    1    1    2    0  502  0.39355689762E+00 -0.30285406137E+01 -0.14541227059E+02  0.15584101824E+02  0.47000000000E+01 0.  1.
<mgrwt>
<rscale>  2 0.56050821E+01</rscale>
<asrwt>0</asrwt>
<pdfrwt beam="1">  1       21 0.13198042E-03 0.56050821E+01</pdfrwt>
<pdfrwt beam="2">  1       21 0.59089410E-02 0.56050821E+01</pdfrwt>
<totfact> 0.37100488E+09</totfact>
</mgrwt>
</event>
<event>
 4    1  0.3906087E+006  0.5767678E+01  0.7546771E-02  0.2446678E+00
         21   -1    0    0  501  502  0.00000000000E+00  0.00000000000E+00  0.40186592094E+02  0.40186592094E+02  0.00000000000E+00 0.  1.
         21   -1    0    0  502  503 -0.00000000000E+00 -0.00000000000E+00 -0.13889714579E+01  0.13889714579E+01  0.00000000000E+00 0.  1.
          5    1    1    2  501    0  0.54222529384E+00  0.32988032627E+01  0.32612151302E+02  0.33118250614E+02  0.47000000000E+01 0.  1.
         -5    1    1    2    0  503 -0.54222529384E+00 -0.32988032627E+01  0.61854693340E+01  0.84573129372E+01  0.47000000000E+01 0.  1.
<mgrwt>
<rscale>  2 0.57676781E+01</rscale>
<asrwt>0</asrwt>
<pdfrwt beam="1">  1       21 0.61825517E-02 0.57676781E+01</pdfrwt>
<pdfrwt beam="2">  1       21 0.21368795E-03 0.57676781E+01</pdfrwt>
<totfact> 0.18548367E+09</totfact>
</mgrwt>
</event>
<event>
 4    1  0.3906087E+006  0.4874559E+01  0.7546771E-02  0.2589900E+00
         21   -1    0    0  503  502  0.00000000000E+00  0.00000000000E+00  0.43903141453E+02  0.43903141453E+02  0.00000000000E+00 0. -1.
         21   -1    0    0  501  503 -0.00000000000E+00 -0.00000000000E+00 -0.45046856828E+01  0.45046856828E+01  0.00000000000E+00 0. -1.
          5    1    1    2  501    0 -0.86217252906E+00  0.96331952681E+00 -0.30041675420E+01  0.57259364825E+01  0.47000000000E+01 0. -1.
         -5    1    1    2    0  502  0.86217252906E+00 -0.96331952681E+00  0.42402623312E+02  0.42681890653E+02  0.47000000000E+01 0. -1.
<mgrwt>
<rscale>  2 0.48745591E+01</rscale>
<asrwt>0</asrwt>
<pdfrwt beam="1">  1       21 0.67543292E-02 0.48745591E+01</pdfrwt>
<pdfrwt beam="2">  1       21 0.69302860E-03 0.48745591E+01</pdfrwt>
<totfact> 0.28028149E+08</totfact>
</mgrwt>
</event>
<event>
 4    1  0.3906087E+006  0.1053179E+02  0.7546771E-02  0.2045929E+00
         21   -1    0    0  501  502  0.00000000000E+00  0.00000000000E+00  0.52066024584E+01  0.52066024584E+01  0.00000000000E+00 0.  1.
         21   -1    0    0  502  503 -0.00000000000E+00 -0.00000000000E+00 -0.65976432385E+02  0.65976432385E+02  0.00000000000E+00 0. -1.
          5    1    1    2  501    0  0.76787286087E+01  0.54649579876E+01 -0.10979395156E+01  0.10588867269E+02  0.47000000000E+01 0.  1.
         -5    1    1    2    0  503 -0.76787286087E+01 -0.54649579876E+01 -0.59671890411E+02  0.60594167575E+02  0.47000000000E+01 0. -1.
<mgrwt>
<rscale>  2 0.10531792E+02</rscale>
<asrwt>0</asrwt>
<pdfrwt beam="1">  1       21 0.80101576E-03 0.10531792E+02</pdfrwt>
<pdfrwt beam="2">  1       21 0.10150220E-01 0.10531792E+02</pdfrwt>
<totfact> 0.20027091E+08</totfact>
</mgrwt>
</event>
<event>
 4    1  0.3906087E+006  0.9175606E+01  0.7546771E-02  0.2125183E+00
         21   -1    0    0  501  502  0.00000000000E+00  0.00000000000E+00  0.20730724601E+01  0.20730724601E+01  0.00000000000E+00 0.  1.
         21   -1    0    0  502  503 -0.00000000000E+00 -0.00000000000E+00 -0.25198367580E+03  0.25198367580E+03  0.00000000000E+00 0.  1.
          5    1    1    2  501    0 -0.42364999501E+01  0.66448333359E+01 -0.86129413737E+01  0.12584693123E+02  0.47000000000E+01 0.  1.
         -5    1    1    2    0  503  0.42364999501E+01 -0.66448333359E+01 -0.24129766197E+03  0.24147205514E+03  0.47000000000E+01 0.  1.
<mgrwt>
<rscale>  2 0.91756058E+01</rscale>
<asrwt>0</asrwt>
<pdfrwt beam="1">  1       21 0.31893429E-03 0.91756058E+01</pdfrwt>
<pdfrwt beam="2">  1       21 0.38766711E-01 0.91756058E+01</pdfrwt>
<totfact> 0.73885156E+07</totfact>
</mgrwt>
</event>
<event>
 4    1  0.3906087E+006  0.9832460E+01  0.7546771E-02  0.2084650E+00
         21   -1    0    0  501  502  0.00000000000E+00  0.00000000000E+00  0.12364387118E+03  0.12364387118E+03  0.00000000000E+00 0. -1.
         21   -1    0    0  502  503 -0.00000000000E+00 -0.00000000000E+00 -0.92617290403E+00  0.92617290403E+00  0.00000000000E+00 0.  1.
          5    1    1    2  501    0 -0.72798529701E+01 -0.46466125760E+01  0.85941485355E+02  0.86502116579E+02  0.47000000000E+01 0.  1.
         -5    1    1    2    0  503  0.72798529701E+01  0.46466125760E+01  0.36776212925E+02  0.38067927509E+02  0.47000000000E+01 0.  1.
<mgrwt>
<rscale>  2 0.98324599E+01</rscale>
<asrwt>0</asrwt>
<pdfrwt beam="1">  1       21 0.19022121E-01 0.98324599E+01</pdfrwt>
<pdfrwt beam="2">  1       21 0.14248824E-03 0.98324599E+01</pdfrwt>
<totfact> 0.80235114E+08</totfact>
</mgrwt>
</event>
<event>
 4    1  0.3906087E+006  0.5131714E+01  0.7546771E-02  0.2544305E+00
         21   -1    0    0  503  502  0.00000000000E+00  0.00000000000E+00  0.38993226534E+00  0.38993226534E+00  0.00000000000E+00 0.  1.
         21   -1    0    0  501  503 -0.00000000000E+00 -0.00000000000E+00 -0.13414147725E+03  0.13414147725E+03  0.00000000000E+00 0.  1.
          5    1    1    2  501    0 -0.73884457137E+00  0.19231737582E+01 -0.11427452737E+03  0.11438969400E+03  0.47000000000E+01 0.  1.
         -5    1    1    2    0  502  0.73884457137E+00 -0.19231737582E+01 -0.19477017623E+02  0.20141715521E+02  0.47000000000E+01 0.  1.
<mgrwt>
<rscale>  2 0.51317140E+01</rscale>
<asrwt>0</asrwt>
<pdfrwt beam="1">  1       21 0.59989546E-04 0.51317140E+01</pdfrwt>
<pdfrwt beam="2">  1       21 0.20637162E-01 0.51317140E+01</pdfrwt>
<totfact> 0.14367837E+09</totfact>
</mgrwt>
</event>
<event>
 4    1  0.3906087E+006  0.5109608E+01  0.7546771E-02  0.2548069E+00
         21   -1    0    0  503  502  0.00000000000E+00  0.00000000000E+00  0.13056997964E+03  0.13056997964E+03  0.00000000000E+00 0. -1.
         21   -1    0    0  501  503 -0.00000000000E+00 -0.00000000000E+00 -0.37792716167E+00  0.37792716167E+00  0.00000000000E+00 0. -1.
          5    1    1    2  501    0  0.45694605177E+00 -0.19517409298E+01  0.20165571846E+02  0.20802845483E+02  0.47000000000E+01 0. -1.
         -5    1    1    2    0  502 -0.45694605177E+00  0.19517409298E+01  0.11002648063E+03  0.11014506132E+03  0.47000000000E+01 0. -1.
<mgrwt>
<rscale>  2 0.51096078E+01</rscale>
<asrwt>0</asrwt>
<pdfrwt beam="1">  1       21 0.20087653E-01 0.51096078E+01</pdfrwt>
<pdfrwt beam="2">  1       21 0.58142745E-04 0.51096078E+01</pdfrwt>
<totfact> 0.15574875E+09</totfact>
</mgrwt>
</event>
<event>
 4    1  0.3906087E+006  0.6098342E+01  0.7546771E-02  0.2402797E+00
         21   -1    0    0  503  502  0.00000000000E+00  0.00000000000E+00  0.15298775568E+01  0.15298775568E+01  0.00000000000E+00 0. -1.
         21   -1    0    0  501  503 -0.00000000000E+00 -0.00000000000E+00 -0.28040018958E+02  0.28040018958E+02  0.00000000000E+00 0.  1.
          5    1    1    2  501    0  0.21112588660E+01 -0.32622624080E+01 -0.18648255226E+02  0.19620071178E+02  0.47000000000E+01 0.  1.
         -5    1    1    2    0  502 -0.21112588660E+01  0.32622624080E+01 -0.78618861746E+01  0.99498253372E+01  0.47000000000E+01 0. -1.
<mgrwt>
<rscale>  2 0.60983416E+01</rscale>
<asrwt>0</asrwt>
<pdfrwt beam="1">  1       21 0.23536579E-03 0.60983416E+01</pdfrwt>
<pdfrwt beam="2">  1       21 0.43138488E-02 0.60983416E+01</pdfrwt>
<totfact> 0.29094484E+09</totfact>
</mgrwt>
</event>
<event>
 4    1  0.3906087E+006  0.4741937E+01  0.7546771E-02  0.2615076E+00
         21   -1    0    0  503  502  0.00000000000E+00  0.00000000000E+00  0.36073115705E+03  0.36073115705E+03  0.00000000000E+00 0.  1.
         21   -1    0    0  501  503 -0.00000000000E+00 -0.00000000000E+00 -0.89259322589E-01  0.89259322589E-01  0.00000000000E+00 0.  1.
          5    1    1    2  501    0 -0.59069977381E+00 -0.21689674943E+00  0.81235172094E+02  0.81373454858E+02  0.47000000000E+01 0.  1.
         -5    1    1    2    0  502  0.59069977381E+00  0.21689674943E+00  0.27940672563E+03  0.27944696151E+03  0.47000000000E+01 0.  1.
<mgrwt>
<rscale>  2 0.47419374E+01</rscale>
<asrwt>0</asrwt>
<pdfrwt beam="1">  1       21 0.55495934E-01 0.47419374E+01</pdfrwt>
<pdfrwt beam="2">  1       21 0.13732492E-04 0.47419374E+01</pdfrwt>
<totfact> 0.17756108E+09</totfact>
</mgrwt>
</event>
<event>
 4    1  0.3906087E+006  0.5385322E+01  0.7546771E-02  0.2503025E+00
         21   -1    0    0  503  502  0.00000000000E+00  0.00000000000E+00  0.25212268982E+01  0.25212268982E+01  0.00000000000E+00 0.  1.
         21   -1    0    0  501  503 -0.00000000000E+00 -0.00000000000E+00 -0.11762822160E+02  0.11762822160E+02  0.00000000000E+00 0.  1.
          5    1    1    2  501    0 -0.24844585948E+01 -0.85974552352E+00 -0.56822383778E+01  0.78287629838E+01  0.47000000000E+01 0.  1.
         -5    1    1    2    0  502  0.24844585948E+01  0.85974552352E+00 -0.35593568837E+01  0.64552860742E+01  0.47000000000E+01 0.  1.
<mgrwt>
<rscale>  2 0.53853224E+01</rscale>
<asrwt>0</asrwt>
<pdfrwt beam="1">  1       21 0.38788106E-03 0.53853224E+01</pdfrwt>
<pdfrwt beam="2">  1       21 0.18096649E-02 0.53853224E+01</pdfrwt>
<totfact> 0.46003565E+09</totfact>
</mgrwt>
</event>
<event>
 4    1  0.3906087E+006  0.7695697E+01  0.7546771E-02  0.2236092E+00
         21   -1    0    0  503  502  0.00000000000E+00  0.00000000000E+00  0.34455074611E+02  0.34455074611E+02  0.00000000000E+00 0. -1.
         21   -1    0    0  501  503 -0.00000000000E+00 -0.00000000000E+00 -0.43442057989E+01  0.43442057989E+01  0.00000000000E+00 0.  1.
          5    1    1    2  501    0 -0.16385662131E+00  0.60915440167E+01 -0.25595391404E-01  0.76957399010E+01  0.47000000000E+01 0.  1.
         -5    1    1    2    0  502  0.16385662131E+00 -0.60915440167E+01  0.30136464204E+02  0.31103540509E+02  0.47000000000E+01 0. -1.
<mgrwt>
<rscale>  2 0.76956973E+01</rscale>
<asrwt>0</asrwt>
<pdfrwt beam="1">  1       21 0.53007805E-02 0.76956973E+01</pdfrwt>
<pdfrwt beam="2">  1       21 0.66833938E-03 0.76956973E+01</pdfrwt>
<totfact> 0.59629693E+08</totfact>
</mgrwt>
</event>
<event>
 4    1  0.3906087E+006  0.8506188E+01  0.7546771E-02  0.2171518E+00
         21   -1    0    0  503  502  0.00000000000E+00  0.00000000000E+00  0.31610300965E+02  0.31610300965E+02  0.00000000000E+00 0.  1.
         21   -1    0    0  501  503 -0.00000000000E+00 -0.00000000000E+00 -0.44301481472E+01  0.44301481472E+01  0.00000000000E+00 0.  1.
          5    1    1    2  501    0  0.56164772152E+01  0.43267101895E+01  0.10622187137E+01  0.85722544274E+01  0.47000000000E+01 0.  1.
         -5    1    1    2    0  502 -0.56164772152E+01 -0.43267101895E+01  0.26117934104E+02  0.27468194685E+02  0.47000000000E+01 0.  1.
<mgrwt>
<rscale>  2 0.85061882E+01</rscale>
<asrwt>0</asrwt>
<pdfrwt beam="1">  1       21 0.48631231E-02 0.85061882E+01</pdfrwt>
<pdfrwt beam="2">  1       21 0.68156127E-03 0.85061882E+01</pdfrwt>
<totfact> 0.70403820E+08</totfact>
</mgrwt>
</event>
<event>
 4    1  0.3906087E+006  0.5255267E+01  0.7546771E-02  0.2523769E+00
         21   -1    0    0  503  502  0.00000000000E+00  0.00000000000E+00  0.13556526329E+03  0.13556526329E+03  0.00000000000E+00 0. -1.
         21   -1    0    0  501  503 -0.00000000000E+00 -0.00000000000E+00 -0.44802925783E+00  0.44802925783E+00  0.00000000000E+00 0. -1.
          5    1    1    2  501    0  0.23392845922E+01 -0.23574345408E+00  0.17339966477E+02  0.18118837292E+02  0.47000000000E+01 0. -1.
         -5    1    1    2    0  502 -0.23392845922E+01  0.23574345408E+00  0.11777726755E+03  0.11789445525E+03  0.47000000000E+01 0. -1.
<mgrwt>
<rscale>  2 0.52552666E+01</rscale>
<asrwt>0</asrwt>
<pdfrwt beam="1">  1       21 0.20856162E-01 0.52552666E+01</pdfrwt>
<pdfrwt beam="2">  1       21 0.68927686E-04 0.52552666E+01</pdfrwt>
<totfact> 0.11999432E+09</totfact>
</mgrwt>
</event>
<event>
 4    1  0.3906087E+006  0.5306277E+01  0.7546771E-02  0.2515529E+00
         21   -1    0    0  501  502  0.00000000000E+00  0.00000000000E+00  0.11423632710E+00  0.11423632710E+00  0.00000000000E+00 0.  1.
         21   -1    0    0  502  503 -0.00000000000E+00 -0.00000000000E+00 -0.74418055566E+03  0.74418055566E+03  0.00000000000E+00 0.  1.
          5    1    1    2  501    0 -0.89834279757E+00 -0.22933728139E+01 -0.67691515557E+02  0.67899174200E+02  0.47000000000E+01 0.  1.
         -5    1    1    2    0  503  0.89834279757E+00  0.22933728139E+01 -0.67637480377E+03  0.67639561778E+03  0.47000000000E+01 0.  1.
<mgrwt>
<rscale>  2 0.53062773E+01</rscale>
<asrwt>0</asrwt>
<pdfrwt beam="1">  1       21 0.17574185E-04 0.53062773E+01</pdfrwt>
<pdfrwt beam="2">  1       21 0.11449345E+00 0.53062773E+01</pdfrwt>
<totfact> 0.34903304E+08</totfact>
</mgrwt>
</event>
<event>
 4    1  0.3906087E+006  0.4996450E+01  0.7546771E-02  0.2567784E+00
         21   -1    0    0  501  502  0.00000000000E+00  0.00000000000E+00  0.19881780686E+02  0.19881780686E+02  0.00000000000E+00 0. -1.
         21   -1    0    0  502  503 -0.00000000000E+00 -0.00000000000E+00 -0.13022583178E+01  0.13022583178E+01  0.00000000000E+00 0. -1.
          5    1    1    2  501    0  0.16936223719E+01 -0.78452723808E-01  0.11293646104E+02  0.12349532537E+02  0.47000000000E+01 0. -1.
         -5    1    1    2    0  503 -0.16936223719E+01  0.78452723808E-01  0.72858762640E+01  0.88345064663E+01  0.47000000000E+01 0. -1.
<mgrwt>
<rscale>  2 0.49964499E+01</rscale>
<asrwt>0</asrwt>
<pdfrwt beam="1">  1       21 0.30587353E-02 0.49964499E+01</pdfrwt>
<pdfrwt beam="2">  1       21 0.20034745E-03 0.49964499E+01</pdfrwt>
<totfact> 0.49365539E+09</totfact>
</mgrwt>
</event>
<event>
 4    1  0.3906087E+006  0.7976359E+01  0.7546771E-02  0.2212538E+00
         21   -1    0    0  501  502  0.00000000000E+00  0.00000000000E+00  0.21786100955E+03  0.21786100955E+03  0.00000000000E+00 0. -1.
         21   -1    0    0  502  503 -0.00000000000E+00 -0.00000000000E+00 -0.33761267336E+00  0.33761267336E+00  0.00000000000E+00 0.  1.
          5    1    1    2  501    0  0.13755116705E+01  0.62960517685E+01  0.14884882150E+03  0.14906238279E+03  0.47000000000E+01 0. -1.
         -5    1    1    2    0  503 -0.13755116705E+01 -0.62960517685E+01  0.68674575378E+02  0.69136239437E+02  0.47000000000E+01 0.  1.
<mgrwt>
<rscale>  2 0.79763588E+01</rscale>
<asrwt>0</asrwt>
<pdfrwt beam="1">  1       21 0.33516966E-01 0.79763588E+01</pdfrwt>
<pdfrwt beam="2">  1       21 0.51940585E-04 0.79763588E+01</pdfrwt>
<totfact> 0.10795017E+09</totfact>
</mgrwt>
</event>
<event>
 4    1  0.3906087E+006  0.5730111E+01  0.7546771E-02  0.2451932E+00
         21   -1    0    0  501  502  0.00000000000E+00  0.00000000000E+00  0.13470930125E+02  0.13470930125E+02  0.00000000000E+00 0.  1.
         21   -1    0    0  502  503 -0.00000000000E+00 -0.00000000000E+00 -0.51132426394E+01  0.51132426394E+01  0.00000000000E+00 0.  1.
          5    1    1    2  501    0 -0.17641042388E+01 -0.27626265457E+01  0.10900782864E+02  0.12315081658E+02  0.47000000000E+01 0.  1.
         -5    1    1    2    0  503  0.17641042388E+01  0.27626265457E+01 -0.25430953783E+01  0.62690911063E+01  0.47000000000E+01 0.  1.
<mgrwt>
<rscale>  2 0.57301107E+01</rscale>
<asrwt>0</asrwt>
<pdfrwt beam="1">  1       21 0.20724508E-02 0.57301107E+01</pdfrwt>
<pdfrwt beam="2">  1       21 0.78665272E-03 0.57301107E+01</pdfrwt>
<totfact> 0.15068053E+09</totfact>
</mgrwt>
</event>
<event>
 4    1  0.3906087E+006  0.5454907E+01  0.7546771E-02  0.2492273E+00
         21   -1    0    0  501  502  0.00000000000E+00  0.00000000000E+00  0.35461596923E+02  0.35461596923E+02  0.00000000000E+00 0. -1.
         21   -1    0    0  502  503 -0.00000000000E+00 -0.00000000000E+00 -0.11283857473E+01  0.11283857473E+01  0.00000000000E+00 0.  1.
          5    1    1    2  501    0  0.16531984485E+01 -0.22210240577E+01  0.79033643900E+01  0.96030818832E+01  0.47000000000E+01 0.  1.
         -5    1    1    2    0  503 -0.16531984485E+01  0.22210240577E+01  0.26429846786E+02  0.26986900787E+02  0.47000000000E+01 0. -1.
<mgrwt>
<rscale>  2 0.54549072E+01</rscale>
<asrwt>0</asrwt>
<pdfrwt beam="1">  1       21 0.54556294E-02 0.54549072E+01</pdfrwt>
<pdfrwt beam="2">  1       21 0.17359784E-03 0.54549072E+01</pdfrwt>
<totfact> 0.28161396E+09</totfact>
</mgrwt>
</event>
<event>
 4    1  0.3906087E+006  0.1041503E+02  0.7546771E-02  0.2052109E+00
         21   -1    0    0  503  502  0.00000000000E+00  0.00000000000E+00  0.67795486011E+02  0.67795486011E+02  0.00000000000E+00 0. -1.
         21   -1    0    0  501  503 -0.00000000000E+00 -0.00000000000E+00 -0.22516197602E+01  0.22516197602E+01  0.00000000000E+00 0.  1.
          5    1    1    2  501    0 -0.68587915350E+01  0.62721535476E+01  0.13930712241E+02  0.17393610177E+02  0.47000000000E+01 0.  1.
         -5    1    1    2    0  502  0.68587915350E+01 -0.62721535476E+01  0.51613154010E+02  0.52653495595E+02  0.47000000000E+01 0. -1.
<mgrwt>
<rscale>  2 0.10415034E+02</rscale>
<asrwt>0</asrwt>
<pdfrwt beam="1">  1       21 0.10430073E-01 0.10415034E+02</pdfrwt>
<pdfrwt beam="2">  1       21 0.34640309E-03 0.10415034E+02</pdfrwt>
<totfact> 0.63330626E+08</totfact>
</mgrwt>
</event>
<event>
 4    1  0.3906087E+006  0.6075755E+01  0.7546771E-02  0.2405667E+00
         21   -1    0    0  503  502  0.00000000000E+00  0.00000000000E+00  0.23667287833E+01  0.23667287833E+01  0.00000000000E+00 0.  1.
         21   -1    0    0  501  503 -0.00000000000E+00 -0.00000000000E+00 -0.21550906711E+02  0.21550906711E+02  0.00000000000E+00 0. -1.
          5    1    1    2  501    0  0.36854992253E+01 -0.11144037046E+01 -0.33065556231E+01  0.69172328459E+01  0.47000000000E+01 0.  1.
         -5    1    1    2    0  502 -0.36854992253E+01  0.11144037046E+01 -0.15877622304E+02  0.17000402648E+02  0.47000000000E+01 0. -1.
<mgrwt>
<rscale>  2 0.60757551E+01</rscale>
<asrwt>0</asrwt>
<pdfrwt beam="1">  1       21 0.36411212E-03 0.60757551E+01</pdfrwt>
<pdfrwt beam="2">  1       21 0.33155241E-02 0.60757551E+01</pdfrwt>
<totfact> 0.23433394E+09</totfact>
</mgrwt>
</event>
<event>
 4    1  0.3906087E+006  0.5122263E+01  0.7546771E-02  0.2545911E+00
         21   -1    0    0  503  502  0.00000000000E+00  0.00000000000E+00  0.64420193092E+01  0.64420193092E+01  0.00000000000E+00 0.  1.
         21   -1    0    0  501  503 -0.00000000000E+00 -0.00000000000E+00 -0.58184336733E+01  0.58184336733E+01  0.00000000000E+00 0.  1.
          5    1    1    2  501    0  0.17510463958E+01  0.10399088458E+01 -0.30458928435E+01  0.59594493959E+01  0.47000000000E+01 0.  1.
         -5    1    1    2    0  502 -0.17510463958E+01 -0.10399088458E+01  0.36694784793E+01  0.63010035866E+01  0.47000000000E+01 0.  1.
<mgrwt>
<rscale>  2 0.51222626E+01</rscale>
<asrwt>0</asrwt>
<pdfrwt beam="1">  1       21 0.99107989E-03 0.51222626E+01</pdfrwt>
<pdfrwt beam="2">  1       21 0.89514364E-03 0.51222626E+01</pdfrwt>
<totfact> 0.32126493E+09</totfact>
</mgrwt>
</event>
<event>
 4    1  0.3906087E+006  0.5873826E+01  0.7546771E-02  0.2432140E+00
         21   -1    0    0  501  502  0.00000000000E+00  0.00000000000E+00  0.14039191359E+00  0.14039191359E+00  0.00000000000E+00 0.  1.
         21   -1    0    0  502  503 -0.00000000000E+00 -0.00000000000E+00 -0.24729254168E+03  0.24729254168E+03  0.00000000000E+00 0. -1.
          5    1    1    2  501    0  0.81764250684E-01 -0.35220942698E+01 -0.11381679575E+03  0.11396826238E+03  0.47000000000E+01 0. -1.
         -5    1    1    2    0  503 -0.81764250684E-01  0.35220942698E+01 -0.13333535401E+03  0.13346467122E+03  0.47000000000E+01 0. -1.
<mgrwt>
<rscale>  2 0.58738261E+01</rscale>
<asrwt>0</asrwt>
<pdfrwt beam="1">  1       21 0.21598951E-04 0.58738261E+01</pdfrwt>
<pdfrwt beam="2">  1       21 0.38044662E-01 0.58738261E+01</pdfrwt>
<totfact> 0.22694276E+09</totfact>
</mgrwt>
</event>
<event>
 4    1  0.3906087E+006  0.7766895E+01  0.7546771E-02  0.2229987E+00
         21   -1    0    0  503  502  0.00000000000E+00  0.00000000000E+00  0.47849658040E+02  0.47849658040E+02  0.00000000000E+00 0. -1.
         21   -1    0    0  501  503 -0.00000000000E+00 -0.00000000000E+00 -0.12644891364E+01  0.12644891364E+01  0.00000000000E+00 0. -1.
          5    1    1    2  501    0  0.13964980415E+01  0.60236578688E+01  0.21950521199E+02  0.23284115654E+02  0.47000000000E+01 0. -1.
         -5    1    1    2    0  502 -0.13964980415E+01 -0.60236578688E+01  0.24634647705E+02  0.25830031522E+02  0.47000000000E+01 0. -1.
<mgrwt>
<rscale>  2 0.77668952E+01</rscale>
<asrwt>0</asrwt>
<pdfrwt beam="1">  1       21 0.73614845E-02 0.77668952E+01</pdfrwt>
<pdfrwt beam="2">  1       21 0.19453683E-03 0.77668952E+01</pdfrwt>
<totfact> 0.20445564E+09</totfact>
</mgrwt>
</event>
<event>
 4    1  0.3906087E+006  0.9353637E+01  0.7546771E-02  0.2113754E+00
         21   -1    0    0  501  502  0.00000000000E+00  0.00000000000E+00  0.24095556950E+00  0.24095556950E+00  0.00000000000E+00 0. -1.
         21   -1    0    0  502  503 -0.00000000000E+00 -0.00000000000E+00 -0.48789202050E+03  0.48789202050E+03  0.00000000000E+00 0.  1.
          5    1    1    2  501    0  0.23316112698E+01  0.77436497182E+01 -0.12038922611E+03  0.12075204464E+03  0.47000000000E+01 0. -1.
         -5    1    1    2    0  503 -0.23316112698E+01 -0.77436497182E+01 -0.36726183882E+03  0.36738093143E+03  0.47000000000E+01 0.  1.
<mgrwt>
<rscale>  2 0.93536368E+01</rscale>
<asrwt>0</asrwt>
<pdfrwt beam="1">  1       21 0.37070096E-04 0.93536368E+01</pdfrwt>
<pdfrwt beam="2">  1       21 0.75060293E-01 0.93536368E+01</pdfrwt>
<totfact> 0.41906553E+08</totfact>
</mgrwt>
</event>
<event>
 4    1  0.3906087E+006  0.4926593E+01  0.7546771E-02  0.2580343E+00
         21   -1    0    0  501  502  0.00000000000E+00  0.00000000000E+00  0.70814165012E+00  0.70814165012E+00  0.00000000000E+00 0. -1.
         21   -1    0    0  502  503 -0.00000000000E+00 -0.00000000000E+00 -0.10405964739E+03  0.10405964739E+03  0.00000000000E+00 0. -1.
          5    1    1    2  501    0  0.11881163991E+01 -0.87732269602E+00 -0.87776976136E+01  0.10065748412E+02  0.47000000000E+01 0. -1.
         -5    1    1    2    0  503 -0.11881163991E+01  0.87732269602E+00 -0.94573808124E+02  0.94702040626E+02  0.47000000000E+01 0. -1.
<mgrwt>
<rscale>  2 0.49265927E+01</rscale>
<asrwt>0</asrwt>
<pdfrwt beam="1">  1       21 0.10894484E-03 0.49265927E+01</pdfrwt>
<pdfrwt beam="2">  1       21 0.16009181E-01 0.49265927E+01</pdfrwt>
<totfact> 0.93645558E+08</totfact>
</mgrwt>
</event>
<event>
 4    1  0.3906087E+006  0.5623676E+01  0.7546771E-02  0.2467137E+00
         21   -1    0    0  503  502  0.00000000000E+00  0.00000000000E+00  0.44451648333E+02  0.44451648333E+02  0.00000000000E+00 0.  1.
         21   -1    0    0  501  503 -0.00000000000E+00 -0.00000000000E+00 -0.25829798092E+01  0.25829798092E+01  0.00000000000E+00 0.  1.
          5    1    1    2  501    0  0.29746584926E+01 -0.82894148838E+00  0.91618189022E+00  0.56978176870E+01  0.47000000000E+01 0.  1.
         -5    1    1    2    0  502 -0.29746584926E+01  0.82894148838E+00  0.40952486634E+02  0.41336810456E+02  0.47000000000E+01 0.  1.
<mgrwt>
<rscale>  2 0.56236765E+01</rscale>
<asrwt>0</asrwt>
<pdfrwt beam="1">  1       21 0.68387146E-02 0.56236765E+01</pdfrwt>
<pdfrwt beam="2">  1       21 0.39738154E-03 0.56236765E+01</pdfrwt>
<totfact> 0.66845927E+08</totfact>
</mgrwt>
</event>
<event>
 4    1  0.3906087E+006  0.5061981E+01  0.7546771E-02  0.2556275E+00
         21   -1    0    0  503  502  0.00000000000E+00  0.00000000000E+00  0.11534112845E+02  0.11534112845E+02  0.00000000000E+00 0.  1.
         21   -1    0    0  501  503 -0.00000000000E+00 -0.00000000000E+00 -0.22260779593E+01  0.22260779593E+01  0.00000000000E+00 0.  1.
          5    1    1    2  501    0  0.14871896922E+01  0.11497467082E+01  0.49641873504E+01  0.70899087951E+01  0.47000000000E+01 0.  1.
         -5    1    1    2    0  502 -0.14871896922E+01 -0.11497467082E+01  0.43438475357E+01  0.66702820095E+01  0.47000000000E+01 0.  1.
<mgrwt>
<rscale>  2 0.50619809E+01</rscale>
<asrwt>0</asrwt>
<pdfrwt beam="1">  1       21 0.17744789E-02 0.50619809E+01</pdfrwt>
<pdfrwt beam="2">  1       21 0.34247354E-03 0.50619809E+01</pdfrwt>
<totfact> 0.52605298E+09</totfact>
</mgrwt>
</event>
<event>
 4    1  0.3906087E+006  0.6813959E+01  0.7546771E-02  0.2320168E+00
         21   -1    0    0  501  502  0.00000000000E+00  0.00000000000E+00  0.20857082831E+01  0.20857082831E+01  0.00000000000E+00 0. -1.
         21   -1    0    0  502  503 -0.00000000000E+00 -0.00000000000E+00 -0.79743505210E+02  0.79743505210E+02  0.00000000000E+00 0. -1.
          5    1    1    2  501    0  0.11041542607E+01 -0.48084171710E+01 -0.40914097374E+01  0.79479346978E+01  0.47000000000E+01 0. -1.
         -5    1    1    2    0  503 -0.11041542607E+01  0.48084171710E+01 -0.73566387189E+02  0.73881278795E+02  0.47000000000E+01 0. -1.
<mgrwt>
<rscale>  2 0.68139586E+01</rscale>
<asrwt>0</asrwt>
<pdfrwt beam="1">  1       21 0.32087825E-03 0.68139586E+01</pdfrwt>
<pdfrwt beam="2">  1       21 0.12268230E-01 0.68139586E+01</pdfrwt>
<totfact> 0.42311192E+08</totfact>
</mgrwt>
</event>
<event>
 4    1  0.3906087E+006  0.6494772E+01  0.7546771E-02  0.2355157E+00
         21   -1    0    0  501  502  0.00000000000E+00  0.00000000000E+00  0.55459336046E+03  0.55459336046E+03  0.00000000000E+00 0. -1.
         21   -1    0    0  502  503 -0.00000000000E+00 -0.00000000000E+00 -0.35011640348E+00  0.35011640348E+00  0.00000000000E+00 0. -1.
          5    1    1    2  501    0 -0.30134546751E+01 -0.33183063716E+01  0.52261113158E+03  0.52265148705E+03  0.47000000000E+01 0. -1.
         -5    1    1    2    0  503  0.30134546751E+01  0.33183063716E+01  0.31632112470E+02  0.32291989805E+02  0.47000000000E+01 0. -1.
<mgrwt>
<rscale>  2 0.64947722E+01</rscale>
<asrwt>0</asrwt>
<pdfrwt beam="1">  1       21 0.85321352E-01 0.64947722E+01</pdfrwt>
<pdfrwt beam="2">  1       21 0.53864506E-04 0.64947722E+01</pdfrwt>
<totfact> 0.16132459E+08</totfact>
</mgrwt>
</event>
<event>
 4    1  0.3906087E+006  0.5160931E+01  0.7546771E-02  0.2539373E+00
         21   -1    0    0  501  502  0.00000000000E+00  0.00000000000E+00  0.36619043272E+01  0.36619043272E+01  0.00000000000E+00 0.  1.
         21   -1    0    0  502  503 -0.00000000000E+00 -0.00000000000E+00 -0.15060677853E+02  0.15060677853E+02  0.00000000000E+00 0.  1.
          5    1    1    2  501    0  0.90803810207E+00 -0.19289040487E+01  0.10319439172E+01  0.52630896128E+01  0.47000000000E+01 0.  1.
         -5    1    1    2    0  503 -0.90803810207E+00  0.19289040487E+01 -0.12430717443E+02  0.13459492567E+02  0.47000000000E+01 0.  1.
<mgrwt>
<rscale>  2 0.51609305E+01</rscale>
<asrwt>0</asrwt>
<pdfrwt beam="1">  1       21 0.56336991E-03 0.51609305E+01</pdfrwt>
<pdfrwt beam="2">  1       21 0.23170273E-02 0.51609305E+01</pdfrwt>
<totfact> 0.18555943E+09</totfact>
</mgrwt>
</event>
<event>
 4    1  0.3906087E+006  0.5530967E+01  0.7546771E-02  0.2480784E+00
         21   -1    0    0  503  502  0.00000000000E+00  0.00000000000E+00  0.11451578136E+01  0.11451578136E+01  0.00000000000E+00 0. -1.
         21   -1    0    0  501  503 -0.00000000000E+00 -0.00000000000E+00 -0.84103685102E+02  0.84103685102E+02  0.00000000000E+00 0. -1.
          5    1    1    2  501    0  0.26663477567E+01  0.11799099417E+01 -0.76689455751E+02  0.76888648194E+02  0.47000000000E+01 0. -1.
         -5    1    1    2    0  502 -0.26663477567E+01 -0.11799099417E+01 -0.62690715377E+01  0.83601947211E+01  0.47000000000E+01 0. -1.
<mgrwt>
<rscale>  2 0.55309672E+01</rscale>
<asrwt>0</asrwt>
<pdfrwt beam="1">  1       21 0.17617805E-03 0.55309672E+01</pdfrwt>
<pdfrwt beam="2">  1       21 0.12939034E-01 0.55309672E+01</pdfrwt>
<totfact> 0.75767897E+08</totfact>
</mgrwt>
</event>
<event>
 4    1  0.3906087E+006  0.9260474E+01  0.7546771E-02  0.2119691E+00
         21   -1    0    0  501  502  0.00000000000E+00  0.00000000000E+00  0.11017608126E+01  0.11017608126E+01  0.00000000000E+00 0.  1.
         21   -1    0    0  502  503 -0.00000000000E+00 -0.00000000000E+00 -0.85054721250E+02  0.85054721250E+02  0.00000000000E+00 0. -1.
          5    1    1    2  501    0 -0.79772639352E+01 -0.17218080956E+00 -0.29426408280E+02  0.30849147320E+02  0.47000000000E+01 0.  1.
         -5    1    1    2    0  503  0.79772639352E+01  0.17218080956E+00 -0.54526552157E+02  0.55307334742E+02  0.47000000000E+01 0. -1.
<mgrwt>
<rscale>  2 0.92604744E+01</rscale>
<asrwt>0</asrwt>
<pdfrwt beam="1">  1       21 0.16950162E-03 0.92604744E+01</pdfrwt>
<pdfrwt beam="2">  1       21 0.13085345E-01 0.92604744E+01</pdfrwt>
<totfact> 0.11234291E+09</totfact>
</mgrwt>
</event>
<event>
 4    1  0.3906087E+006  0.5015435E+01  0.7546771E-02  0.2564423E+00
         21   -1    0    0  503  502  0.00000000000E+00  0.00000000000E+00  0.99396511910E+03  0.99396511910E+03  0.00000000000E+00 0. -1.
         21   -1    0    0  501  503 -0.00000000000E+00 -0.00000000000E+00 -0.76002797321E-01  0.76002797321E-01  0.00000000000E+00 0. -1.
          5    1    1    2  501    0  0.36395372502E+00 -0.17123451018E+01  0.91021055215E+02  0.91159130539E+02  0.47000000000E+01 0. -1.
         -5    1    1    2    0  502 -0.36395372502E+00  0.17123451018E+01  0.90286806109E+03  0.90288199136E+03  0.47000000000E+01 0. -1.
<mgrwt>
<rscale>  2 0.50154350E+01</rscale>
<asrwt>0</asrwt>
<pdfrwt beam="1">  1       21 0.15290730E+00 0.50154350E+01</pdfrwt>
<pdfrwt beam="2">  1       21 0.11693534E-04 0.50154350E+01</pdfrwt>
<totfact> 0.31436710E+08</totfact>
</mgrwt>
</event>
<event>
 4    1  0.3906087E+006  0.6158693E+01  0.7546771E-02  0.2395216E+00
         21   -1    0    0  503  502  0.00000000000E+00  0.00000000000E+00  0.43095513759E+00  0.43095513759E+00  0.00000000000E+00 0. -1.
         21   -1    0    0  501  503 -0.00000000000E+00 -0.00000000000E+00 -0.10360918893E+03  0.10360918893E+03  0.00000000000E+00 0. -1.
          5    1    1    2  501    0 -0.44949154107E+00  0.39544216998E+01 -0.71772141709E+02  0.72035892575E+02  0.47000000000E+01 0. -1.
         -5    1    1    2    0  502  0.44949154107E+00 -0.39544216998E+01 -0.31406092080E+02  0.32004251489E+02  0.47000000000E+01 0. -1.
<mgrwt>
<rscale>  2 0.61586925E+01</rscale>
<asrwt>0</asrwt>
<pdfrwt beam="1">  1       21 0.66300798E-04 0.61586925E+01</pdfrwt>
<pdfrwt beam="2">  1       21 0.15939873E-01 0.61586925E+01</pdfrwt>
<totfact> 0.22164779E+09</totfact>
</mgrwt>
</event>
<event>
 4    1  0.3906087E+006  0.6652200E+01  0.7546771E-02  0.2337554E+00
         21   -1    0    0  503  502  0.00000000000E+00  0.00000000000E+00  0.52547337670E+01  0.52547337670E+01  0.00000000000E+00 0.  1.
         21   -1    0    0  501  503 -0.00000000000E+00 -0.00000000000E+00 -0.87553707769E+01  0.87553707769E+01  0.00000000000E+00 0.  1.
          5    1    1    2  501    0 -0.67633859485E+00 -0.46587907401E+01 -0.31186269360E+01  0.73469448766E+01  0.47000000000E+01 0.  1.
         -5    1    1    2    0  502  0.67633859485E+00  0.46587907401E+01 -0.38201007394E+00  0.66631596673E+01  0.47000000000E+01 0.  1.
<mgrwt>
<rscale>  2 0.66522000E+01</rscale>
<asrwt>0</asrwt>
<pdfrwt beam="1">  1       21 0.80842059E-03 0.66522000E+01</pdfrwt>
<pdfrwt beam="2">  1       21 0.13469801E-02 0.66522000E+01</pdfrwt>
<totfact> 0.30518912E+09</totfact>
</mgrwt>
</event>
<event>
 4    1  0.3906087E+006  0.5474143E+01  0.7546771E-02  0.2489342E+00
         21   -1    0    0  501  502  0.00000000000E+00  0.00000000000E+00  0.16668926429E+04  0.16668926429E+04  0.00000000000E+00 0. -1.
         21   -1    0    0  502  503 -0.00000000000E+00 -0.00000000000E+00 -0.18055435120E-01  0.18055435120E-01  0.00000000000E+00 0. -1.
          5    1    1    2  501    0  0.26305539351E+00  0.27941089210E+01  0.88826229718E+03  0.88827916493E+03  0.47000000000E+01 0. -1.
         -5    1    1    2    0  503 -0.26305539351E+00 -0.27941089210E+01  0.77861229028E+03  0.77863153340E+03  0.47000000000E+01 0. -1.
<mgrwt>
<rscale>  2 0.54741431E+01</rscale>
<asrwt>0</asrwt>
<pdfrwt beam="1">  1       21 0.25632183E+00 0.54741431E+01</pdfrwt>
<pdfrwt beam="2">  1       21 0.27790943E-05 0.54741431E+01</pdfrwt>
<totfact> 0.73784883E+08</totfact>
</mgrwt>
</event>
<event>
 4    1  0.3906087E+006  0.6552901E+01  0.7546771E-02  0.2348576E+00
         21   -1    0    0  501  502  0.00000000000E+00  0.00000000000E+00  0.18752720575E+01  0.18752720575E+01  0.00000000000E+00 0.  1.
         21   -1    0    0  502  503 -0.00000000000E+00 -0.00000000000E+00 -0.30213624661E+02  0.30213624661E+02  0.00000000000E+00 0.  1.
          5    1    1    2  501    0 -0.10661428054E+01  0.44400283282E+01 -0.62743849944E+01  0.90723987509E+01  0.47000000000E+01 0.  1.
         -5    1    1    2    0  503  0.10661428054E+01 -0.44400283282E+01 -0.22063967610E+02  0.23016497968E+02  0.47000000000E+01 0.  1.
<mgrwt>
<rscale>  2 0.65529010E+01</rscale>
<asrwt>0</asrwt>
<pdfrwt beam="1">  1       21 0.28850341E-03 0.65529010E+01</pdfrwt>
<pdfrwt beam="2">  1       21 0.46482497E-02 0.65529010E+01</pdfrwt>
<totfact> 0.20923344E+09</totfact>
</mgrwt>
</event>
<event>
 4    1  0.3906087E+006  0.4768583E+01  0.7546771E-02  0.2609920E+00
         21   -1    0    0  503  502  0.00000000000E+00  0.00000000000E+00  0.23184404977E+02  0.23184404977E+02  0.00000000000E+00 0.  1.
         21   -1    0    0  501  503 -0.00000000000E+00 -0.00000000000E+00 -0.12168048563E+01  0.12168048563E+01  0.00000000000E+00 0.  1.
          5    1    1    2  501    0  0.50639323217E+00  0.62685749385E+00  0.56106792766E+01  0.73633624363E+01  0.47000000000E+01 0. -1.
         -5    1    1    2    0  502 -0.50639323217E+00 -0.62685749385E+00  0.16356920845E+02  0.17037847398E+02  0.47000000000E+01 0. -1.
<mgrwt>
<rscale>  2 0.47685831E+01</rscale>
<asrwt>0</asrwt>
<pdfrwt beam="1">  1       21 0.35668312E-02 0.47685831E+01</pdfrwt>
<pdfrwt beam="2">  1       21 0.18720076E-03 0.47685831E+01</pdfrwt>
<totfact> 0.41259956E+09</totfact>
</mgrwt>
</event>
<event>
 4    1  0.3906087E+006  0.5144672E+01  0.7546771E-02  0.2542112E+00
         21   -1    0    0  501  502  0.00000000000E+00  0.00000000000E+00  0.47240751076E+00  0.47240751076E+00  0.00000000000E+00 0. -1.
         21   -1    0    0  502  503 -0.00000000000E+00 -0.00000000000E+00 -0.64335608013E+02  0.64335608013E+02  0.00000000000E+00 0. -1.
          5    1    1    2  501    0  0.18829226577E+01  0.91227863644E+00 -0.20286773290E+02  0.20928946953E+02  0.47000000000E+01 0. -1.
         -5    1    1    2    0  503 -0.18829226577E+01 -0.91227863644E+00 -0.43576427212E+02  0.43879068571E+02  0.47000000000E+01 0. -1.
<mgrwt>
<rscale>  2 0.51446720E+01</rscale>
<asrwt>0</asrwt>
<pdfrwt beam="1">  1       21 0.72678081E-04 0.51446720E+01</pdfrwt>
<pdfrwt beam="2">  1       21 0.98977855E-02 0.51446720E+01</pdfrwt>
<totfact> 0.34971876E+09</totfact>
</mgrwt>
</event>
<event>
 4    1  0.3906087E+006  0.5079034E+01  0.7546771E-02  0.2553321E+00
         21   -1    0    0  501  502  0.00000000000E+00  0.00000000000E+00  0.63182860036E+03  0.63182860036E+03  0.00000000000E+00 0. -1.
         21   -1    0    0  502  503 -0.00000000000E+00 -0.00000000000E+00 -0.41033656903E-01  0.41033656903E-01  0.00000000000E+00 0. -1.
          5    1    1    2  501    0  0.18953241328E+01  0.33812504954E+00  0.33823587681E+03  0.33827400868E+03  0.47000000000E+01 0. -1.
         -5    1    1    2    0  503 -0.18953241328E+01 -0.33812504954E+00  0.29355168989E+03  0.29359562534E+03  0.47000000000E+01 0. -1.
<mgrwt>
<rscale>  2 0.50790336E+01</rscale>
<asrwt>0</asrwt>
<pdfrwt beam="1">  1       21 0.97196609E-01 0.50790336E+01</pdfrwt>
<pdfrwt beam="2">  1       21 0.63133763E-05 0.50790336E+01</pdfrwt>
<totfact> 0.18329586E+09</totfact>
</mgrwt>
</event>
<event>
 4    1  0.3906087E+006  0.5003902E+01  0.7546771E-02  0.2566462E+00
         21   -1    0    0  501  502  0.00000000000E+00  0.00000000000E+00  0.36783072520E+00  0.36783072520E+00  0.00000000000E+00 0.  1.
         21   -1    0    0  502  503 -0.00000000000E+00 -0.00000000000E+00 -0.12124375385E+04  0.12124375385E+04  0.00000000000E+00 0.  1.
          5    1    1    2  501    0 -0.31020624682E+00 -0.16890265714E+01 -0.16901271038E+02  0.17626457425E+02  0.47000000000E+01 0.  1.
         -5    1    1    2    0  503  0.31020624682E+00  0.16890265714E+01 -0.11951684367E+04  0.11951789118E+04  0.47000000000E+01 0.  1.
<mgrwt>
<rscale>  2 0.50039023E+01</rscale>
<asrwt>0</asrwt>
<pdfrwt beam="1">  1       21 0.56589023E-04 0.50039023E+01</pdfrwt>
<pdfrwt beam="2">  1       21 0.18652991E+00 0.50039023E+01</pdfrwt>
<totfact> 0.25437661E+07</totfact>
</mgrwt>
</event>
<event>
 4    1  0.3906087E+006  0.9741766E+01  0.7546771E-02  0.2089989E+00
         21   -1    0    0  503  502  0.00000000000E+00  0.00000000000E+00  0.67738963161E+00  0.67738963161E+00  0.00000000000E+00 0.  1.
         21   -1    0    0  501  503 -0.00000000000E+00 -0.00000000000E+00 -0.36484653624E+03  0.36484653624E+03  0.00000000000E+00 0.  1.
          5    1    1    2  501    0  0.13002749370E+01  0.84333434852E+01 -0.32552699794E+03  0.32567273202E+03  0.47000000000E+01 0.  1.
         -5    1    1    2    0  502 -0.13002749370E+01 -0.84333434852E+01 -0.38642148675E+02  0.39851193853E+02  0.47000000000E+01 0.  1.
<mgrwt>
<rscale>  2 0.97417656E+01</rscale>
<asrwt>0</asrwt>
<pdfrwt beam="1">  1       21 0.10421375E-03 0.97417656E+01</pdfrwt>
<pdfrwt beam="2">  1       21 0.56130257E-01 0.97417656E+01</pdfrwt>
<totfact> 0.18227020E+08</totfact>
</mgrwt>
</event>
<event>
 4    1  0.3906087E+006  0.8674672E+01  0.7546771E-02  0.2159321E+00
         21   -1    0    0  503  502  0.00000000000E+00  0.00000000000E+00  0.28192411951E+03  0.28192411951E+03  0.00000000000E+00 0.  1.
         21   -1    0    0  501  503 -0.00000000000E+00 -0.00000000000E+00 -0.28492346351E+00  0.28492346351E+00  0.00000000000E+00 0.  1.
          5    1    1    2  501    0  0.44160403346E+01  0.58015969425E+01  0.10534575966E+03  0.10570231321E+03  0.47000000000E+01 0.  1.
         -5    1    1    2    0  502 -0.44160403346E+01 -0.58015969425E+01  0.17629343639E+03  0.17650672977E+03  0.47000000000E+01 0.  1.
<mgrwt>
<rscale>  2 0.86746723E+01</rscale>
<asrwt>0</asrwt>
<pdfrwt beam="1">  1       21 0.43372718E-01 0.86746723E+01</pdfrwt>
<pdfrwt beam="2">  1       21 0.43834604E-04 0.86746723E+01</pdfrwt>
<totfact> 0.90429629E+08</totfact>
</mgrwt>
</event>
<event>
 4    1  0.3906087E+006  0.4864774E+01  0.7546771E-02  0.2591717E+00
         21   -1    0    0  503  502  0.00000000000E+00  0.00000000000E+00  0.45618678539E+01  0.45618678539E+01  0.00000000000E+00 0. -1.
         21   -1    0    0  501  503 -0.00000000000E+00 -0.00000000000E+00 -0.13631734272E+02  0.13631734272E+02  0.00000000000E+00 0. -1.
          5    1    1    2  501    0  0.75438033100E+00  0.10034621488E+01 -0.11694483505E+02  0.12665976884E+02  0.47000000000E+01 0. -1.
         -5    1    1    2    0  502 -0.75438033100E+00 -0.10034621488E+01  0.26246170868E+01  0.55276252424E+01  0.47000000000E+01 0. -1.
<mgrwt>
<rscale>  2 0.48647740E+01</rscale>
<asrwt>0</asrwt>
<pdfrwt beam="1">  1       21 0.70182583E-03 0.48647740E+01</pdfrwt>
<pdfrwt beam="2">  1       21 0.20971899E-02 0.48647740E+01</pdfrwt>
<totfact> 0.14893106E+09</totfact>
</mgrwt>
</event>
<event>
 4    1  0.3906087E+006  0.7114683E+01  0.7546771E-02  0.2289585E+00
         21   -1    0    0  501  502  0.00000000000E+00  0.00000000000E+00  0.32435203535E+00  0.32435203535E+00  0.00000000000E+00 0. -1.
         21   -1    0    0  502  503 -0.00000000000E+00 -0.00000000000E+00 -0.40439828987E+03  0.40439828987E+03  0.00000000000E+00 0.  1.
          5    1    1    2  501    0 -0.54729464066E+00 -0.53131141060E+01 -0.43458656293E+02  0.44037183376E+02  0.47000000000E+01 0. -1.
         -5    1    1    2    0  503  0.54729464066E+00  0.53131141060E+01 -0.36061528154E+03  0.36068545853E+03  0.47000000000E+01 0.  1.
<mgrwt>
<rscale>  2 0.71146829E+01</rscale>
<asrwt>0</asrwt>
<pdfrwt beam="1">  1       21 0.49900190E-04 0.71146829E+01</pdfrwt>
<pdfrwt beam="2">  1       21 0.62215275E-01 0.71146829E+01</pdfrwt>
<totfact> 0.34716359E+08</totfact>
</mgrwt>
</event>
<event>
 4    1  0.3906087E+006  0.5706809E+01  0.7546771E-02  0.2455220E+00
         21   -1    0    0  503  502  0.00000000000E+00  0.00000000000E+00  0.11270387115E+02  0.11270387115E+02  0.00000000000E+00 0. -1.
         21   -1    0    0  501  503 -0.00000000000E+00 -0.00000000000E+00 -0.81453999312E+01  0.81453999312E+01  0.00000000000E+00 0.  1.
          5    1    1    2  501    0  0.96883191462E+00  0.30885324409E+01 -0.62355459713E+01  0.84527925254E+01  0.47000000000E+01 0.  1.
         -5    1    1    2    0  502 -0.96883191462E+00 -0.30885324409E+01  0.93605331549E+01  0.10962994521E+02  0.47000000000E+01 0. -1.
<mgrwt>
<rscale>  2 0.57068089E+01</rscale>
<asrwt>0</asrwt>
<pdfrwt beam="1">  1       21 0.17339057E-02 0.57068089E+01</pdfrwt>
<pdfrwt beam="2">  1       21 0.12531385E-02 0.57068089E+01</pdfrwt>
<totfact> 0.10065051E+09</totfact>
</mgrwt>
</event>
<event>
 4    1  0.3906087E+006  0.4723731E+01  0.7546771E-02  0.2618628E+00
         21   -1    0    0  501  502  0.00000000000E+00  0.00000000000E+00  0.25192052202E-01  0.25192052202E-01  0.00000000000E+00 0. -1.
         21   -1    0    0  502  503 -0.00000000000E+00 -0.00000000000E+00 -0.14186365886E+04  0.14186365886E+04  0.00000000000E+00 0. -1.
          5    1    1    2  501    0  0.15108371943E+00 -0.44811703830E+00 -0.27456096396E+03  0.27460159607E+03  0.47000000000E+01 0. -1.
         -5    1    1    2    0  503 -0.15108371943E+00  0.44811703830E+00 -0.11440504326E+04  0.11440601846E+04  0.47000000000E+01 0. -1.
<mgrwt>
<rscale>  2 0.47237311E+01</rscale>
<asrwt>0</asrwt>
<pdfrwt beam="1">  1       21 0.38754820E-05 0.47237311E+01</pdfrwt>
<pdfrwt beam="2">  1       21 0.21826408E+00 0.47237311E+01</pdfrwt>
<totfact> 0.61520126E+08</totfact>
</mgrwt>
</event>
<event>
 4    1  0.3906087E+006  0.1042231E+02  0.7546771E-02  0.2051721E+00
         21   -1    0    0  503  502  0.00000000000E+00  0.00000000000E+00  0.94282739674E+02  0.94282739674E+02  0.00000000000E+00 0.  1.
         21   -1    0    0  501  503 -0.00000000000E+00 -0.00000000000E+00 -0.17129188927E+01  0.17129188927E+01  0.00000000000E+00 0. -1.
          5    1    1    2  501    0  0.90414220789E+01  0.21879614359E+01  0.18821213647E+02  0.21514241135E+02  0.47000000000E+01 0.  1.
         -5    1    1    2    0  502 -0.90414220789E+01 -0.21879614359E+01  0.73748607135E+02  0.74481417433E+02  0.47000000000E+01 0.  1.
<mgrwt>
<rscale>  2 0.10422307E+02</rscale>
<asrwt>0</asrwt>
<pdfrwt beam="1">  1       21 0.14505033E-01 0.10422307E+02</pdfrwt>
<pdfrwt beam="2">  1       21 0.26352606E-03 0.10422307E+02</pdfrwt>
<totfact> 0.54765054E+08</totfact>
</mgrwt>
</event>
<event>
 4    1  0.3906087E+006  0.8621213E+01  0.7546771E-02  0.2163150E+00
         21   -1    0    0  503  502  0.00000000000E+00  0.00000000000E+00  0.37917241297E+01  0.37917241297E+01  0.00000000000E+00 0. -1.
         21   -1    0    0  501  503 -0.00000000000E+00 -0.00000000000E+00 -0.31575638799E+02  0.31575638799E+02  0.00000000000E+00 0.  1.
          5    1    1    2  501    0 -0.50770319647E+01 -0.51438374248E+01 -0.24781508281E+02  0.26238301578E+02  0.47000000000E+01 0.  1.
         -5    1    1    2    0  502  0.50770319647E+01  0.51438374248E+01 -0.30024063885E+01  0.91290613507E+01  0.47000000000E+01 0. -1.
<mgrwt>
<rscale>  2 0.86212132E+01</rscale>
<asrwt>0</asrwt>
<pdfrwt beam="1">  1       21 0.58334215E-03 0.86212132E+01</pdfrwt>
<pdfrwt beam="2">  1       21 0.48577907E-02 0.86212132E+01</pdfrwt>
<totfact> 0.88753857E+08</totfact>
</mgrwt>
</event>
<event>
 4    1  0.3906087E+006  0.5385736E+01  0.7546771E-02  0.2502960E+00
         21   -1    0    0  503  502  0.00000000000E+00  0.00000000000E+00  0.81608494675E+02  0.81608494675E+02  0.00000000000E+00 0.  1.
         21   -1    0    0  501  503 -0.00000000000E+00 -0.00000000000E+00 -0.72151418992E+00  0.72151418992E+00  0.00000000000E+00 0. -1.
          5    1    1    2  501    0  0.14538267032E+01 -0.21914710718E+01  0.11121337655E+02  0.12356792010E+02  0.47000000000E+01 0. -1.
         -5    1    1    2    0  502 -0.14538267032E+01  0.21914710718E+01  0.69765642829E+02  0.69973216854E+02  0.47000000000E+01 0.  1.
<mgrwt>
<rscale>  2 0.53857365E+01</rscale>
<asrwt>0</asrwt>
<pdfrwt beam="1">  1       21 0.12555146E-01 0.53857365E+01</pdfrwt>
<pdfrwt beam="2">  1       21 0.11100225E-03 0.53857365E+01</pdfrwt>
<totfact> 0.14436511E+09</totfact>
</mgrwt>
</event>
<event>
 4    1  0.3906087E+006  0.8937120E+01  0.7546771E-02  0.2141056E+00
         21   -1    0    0  501  502  0.00000000000E+00  0.00000000000E+00  0.19041782469E+03  0.19041782469E+03  0.00000000000E+00 0.  1.
         21   -1    0    0  502  503 -0.00000000000E+00 -0.00000000000E+00 -0.47763997547E+00  0.47763997547E+00  0.00000000000E+00 0. -1.
          5    1    1    2  501    0 -0.84247091477E-01 -0.76009874030E+01  0.61657157150E+02  0.62301501867E+02  0.47000000000E+01 0. -1.
         -5    1    1    2    0  503  0.84247091477E-01  0.76009874030E+01  0.12828302757E+03  0.12859396280E+03  0.47000000000E+01 0.  1.
<mgrwt>
<rscale>  2 0.89371196E+01</rscale>
<asrwt>0</asrwt>
<pdfrwt beam="1">  1       21 0.29294990E-01 0.89371196E+01</pdfrwt>
<pdfrwt beam="2">  1       21 0.73483225E-04 0.89371196E+01</pdfrwt>
<totfact> 0.91025227E+08</totfact>
</mgrwt>
</event>
<event>
 4    1  0.3906087E+006  0.5802859E+01  0.7546771E-02  0.2441810E+00
         21   -1    0    0  501  502  0.00000000000E+00  0.00000000000E+00  0.39523100156E+00  0.39523100156E+00  0.00000000000E+00 0. -1.
         21   -1    0    0  502  503 -0.00000000000E+00 -0.00000000000E+00 -0.10445752809E+03  0.10445752809E+03  0.00000000000E+00 0.  1.
          5    1    1    2  501    0  0.33444663976E+01 -0.63064426524E+00 -0.29520141735E+02  0.30085078290E+02  0.47000000000E+01 0. -1.
         -5    1    1    2    0  503 -0.33444663976E+01  0.63064426524E+00 -0.74542155355E+02  0.74767680803E+02  0.47000000000E+01 0.  1.
<mgrwt>
<rscale>  2 0.58028586E+01</rscale>
<asrwt>0</asrwt>
<pdfrwt beam="1">  1       21 0.60804655E-04 0.58028586E+01</pdfrwt>
<pdfrwt beam="2">  1       21 0.16070419E-01 0.58028586E+01</pdfrwt>
<totfact> 0.23384231E+09</totfact>
</mgrwt>
</event>
<event>
 4    1  0.3906087E+006  0.5952119E+01  0.7546771E-02  0.2421697E+00
         21   -1    0    0  501  502  0.00000000000E+00  0.00000000000E+00  0.16657837556E+01  0.16657837556E+01  0.00000000000E+00 0.  1.
         21   -1    0    0  502  503 -0.00000000000E+00 -0.00000000000E+00 -0.33156932998E+02  0.33156932998E+02  0.00000000000E+00 0.  1.
          5    1    1    2  501    0 -0.35226743508E+01  0.96357812923E+00 -0.53195487261E+01  0.79828137923E+01  0.47000000000E+01 0.  1.
         -5    1    1    2    0  503  0.35226743508E+01 -0.96357812923E+00 -0.26171600517E+02  0.26839902962E+02  0.47000000000E+01 0.  1.
<mgrwt>
<rscale>  2 0.59521187E+01</rscale>
<asrwt>0</asrwt>
<pdfrwt beam="1">  1       21 0.25627444E-03 0.59521187E+01</pdfrwt>
<pdfrwt beam="2">  1       21 0.51010662E-02 0.59521187E+01</pdfrwt>
<totfact> 0.19794370E+09</totfact>
</mgrwt>
</event>
<event>
 4    1  0.3906087E+006  0.5695029E+01  0.7546771E-02  0.2456891E+00
         21   -1    0    0  501  502  0.00000000000E+00  0.00000000000E+00  0.43548528832E+02  0.43548528832E+02  0.00000000000E+00 0.  1.
         21   -1    0    0  502  503 -0.00000000000E+00 -0.00000000000E+00 -0.13701692385E+01  0.13701692385E+01  0.00000000000E+00 0. -1.
          5    1    1    2  501    0  0.20654682884E+01  0.24651960952E+01  0.36262863206E+02  0.36707337127E+02  0.47000000000E+01 0.  1.
         -5    1    1    2    0  503 -0.20654682884E+01 -0.24651960952E+01  0.59154963871E+01  0.82113609435E+01  0.47000000000E+01 0. -1.
<mgrwt>
<rscale>  2 0.56950286E+01</rscale>
<asrwt>0</asrwt>
<pdfrwt beam="1">  1       21 0.66997726E-02 0.56950286E+01</pdfrwt>
<pdfrwt beam="2">  1       21 0.21079530E-03 0.56950286E+01</pdfrwt>
<totfact> 0.16576481E+09</totfact>
</mgrwt>
</event>
<event>
 4    1  0.3906087E+006  0.6382518E+01  0.7546771E-02  0.2368147E+00
         21   -1    0    0  501  502  0.00000000000E+00  0.00000000000E+00  0.61248886989E+02  0.61248886989E+02  0.00000000000E+00 0.  1.
         21   -1    0    0  502  503 -0.00000000000E+00 -0.00000000000E+00 -0.13430219019E+01  0.13430219019E+01  0.00000000000E+00 0.  1.
          5    1    1    2  501    0  0.23649252965E+01 -0.36129849914E+01  0.52187926825E+02  0.52576765197E+02  0.47000000000E+01 0.  1.
         -5    1    1    2    0  503 -0.23649252965E+01  0.36129849914E+01  0.77179382619E+01  0.10015143694E+02  0.47000000000E+01 0.  1.
<mgrwt>
<rscale>  2 0.63825177E+01</rscale>
<asrwt>0</asrwt>
<pdfrwt beam="1">  1       21 0.94229035E-02 0.63825177E+01</pdfrwt>
<pdfrwt beam="2">  1       21 0.20661880E-03 0.63825177E+01</pdfrwt>
<totfact> 0.11146026E+09</totfact>
</mgrwt>
</event>
<event>
 4    1  0.3906087E+006  0.7944692E+01  0.7546771E-02  0.2215128E+00
         21   -1    0    0  501  502  0.00000000000E+00  0.00000000000E+00  0.86158928716E+00  0.86158928716E+00  0.00000000000E+00 0. -1.
         21   -1    0    0  502  503 -0.00000000000E+00 -0.00000000000E+00 -0.73578603199E+02  0.73578603199E+02  0.00000000000E+00 0. -1.
          5    1    1    2  501    0 -0.13093457065E+00  0.64039821686E+01 -0.33900832418E+02  0.34819313177E+02  0.47000000000E+01 0. -1.
         -5    1    1    2    0  503  0.13093457065E+00 -0.64039821686E+01 -0.38816181494E+02  0.39620879309E+02  0.47000000000E+01 0. -1.
<mgrwt>
<rscale>  2 0.79446920E+01</rscale>
<asrwt>0</asrwt>
<pdfrwt beam="1">  1       21 0.13255216E-03 0.79446920E+01</pdfrwt>
<pdfrwt beam="2">  1       21 0.11319789E-01 0.79446920E+01</pdfrwt>
<totfact> 0.18020688E+09</totfact>
</mgrwt>
</event>
<event>
 4    1  0.3906087E+006  0.4945973E+01  0.7546771E-02  0.2576828E+00
         21   -1    0    0  501  502  0.00000000000E+00  0.00000000000E+00  0.14583490502E+03  0.14583490502E+03  0.00000000000E+00 0. -1.
         21   -1    0    0  502  503 -0.00000000000E+00 -0.00000000000E+00 -0.16920071350E+00  0.16920071350E+00  0.00000000000E+00 0. -1.
          5    1    1    2  501    0 -0.15391492640E+01  0.60533021725E-01  0.66054676999E+02  0.66239587847E+02  0.47000000000E+01 0. -1.
         -5    1    1    2    0  503  0.15391492640E+01 -0.60533021725E-01  0.79611027305E+02  0.79764517884E+02  0.47000000000E+01 0. -1.
<mgrwt>
<rscale>  2 0.49459726E+01</rscale>
<asrwt>0</asrwt>
<pdfrwt beam="1">  1       21 0.22436039E-01 0.49459726E+01</pdfrwt>
<pdfrwt beam="2">  1       21 0.26030996E-04 0.49459726E+01</pdfrwt>
<totfact> 0.36702706E+09</totfact>
</mgrwt>
</event>
<event>
 4    1  0.3906087E+006  0.5543696E+01  0.7546771E-02  0.2478887E+00
         21   -1    0    0  503  502  0.00000000000E+00  0.00000000000E+00  0.20445548227E+01  0.20445548227E+01  0.00000000000E+00 0.  1.
         21   -1    0    0  501  503 -0.00000000000E+00 -0.00000000000E+00 -0.76576034166E+02  0.76576034166E+02  0.00000000000E+00 0.  1.
          5    1    1    2  501    0  0.23242107171E+01 -0.18001704232E+01 -0.72507279582E+02  0.72718898241E+02  0.47000000000E+01 0.  1.
         -5    1    1    2    0  502 -0.23242107171E+01  0.18001704232E+01 -0.20241997617E+01  0.59016907480E+01  0.47000000000E+01 0.  1.
<mgrwt>
<rscale>  2 0.55436963E+01</rscale>
<asrwt>0</asrwt>
<pdfrwt beam="1">  1       21 0.31454693E-03 0.55436963E+01</pdfrwt>
<pdfrwt beam="2">  1       21 0.11780927E-01 0.55436963E+01</pdfrwt>
<totfact> 0.39908624E+08</totfact>
</mgrwt>
</event>
<event>
 4    1  0.3906087E+006  0.4801834E+01  0.7546771E-02  0.2603556E+00
         21   -1    0    0  503  502  0.00000000000E+00  0.00000000000E+00  0.33652970630E-01  0.33652970630E-01  0.00000000000E+00 0. -1.
         21   -1    0    0  501  503 -0.00000000000E+00 -0.00000000000E+00 -0.11740944944E+04  0.11740944944E+04  0.00000000000E+00 0. -1.
          5    1    1    2  501    0 -0.21136918604E+00  0.96069376246E+00 -0.96587415407E+03  0.96588609013E+03  0.47000000000E+01 0. -1.
         -5    1    1    2    0  502  0.21136918604E+00 -0.96069376246E+00 -0.20818668735E+03  0.20824205723E+03  0.47000000000E+01 0. -1.
<mgrwt>
<rscale>  2 0.48018340E+01</rscale>
<asrwt>0</asrwt>
<pdfrwt beam="1">  1       21 0.51776990E-05 0.48018340E+01</pdfrwt>
<pdfrwt beam="2">  1       21 0.18061880E+00 0.48018340E+01</pdfrwt>
<totfact> 0.63346400E+08</totfact>
</mgrwt>
</event>
<event>
 4    1  0.3906087E+006  0.4909833E+01  0.7546771E-02  0.2583402E+00
         21   -1    0    0  503  502  0.00000000000E+00  0.00000000000E+00  0.49328208418E+00  0.49328208418E+00  0.00000000000E+00 0.  1.
         21   -1    0    0  501  503 -0.00000000000E+00 -0.00000000000E+00 -0.11030986376E+03  0.11030986376E+03  0.00000000000E+00 0.  1.
          5    1    1    2  501    0  0.25260021288E+00  0.13973735058E+01 -0.96255074622E+02  0.96380215034E+02  0.47000000000E+01 0.  1.
         -5    1    1    2    0  502 -0.25260021288E+00 -0.13973735058E+01 -0.13561507059E+02  0.14422930815E+02  0.47000000000E+01 0.  1.
<mgrwt>
<rscale>  2 0.49098329E+01</rscale>
<asrwt>0</asrwt>
<pdfrwt beam="1">  1       21 0.75889489E-04 0.49098329E+01</pdfrwt>
<pdfrwt beam="2">  1       21 0.16970762E-01 0.49098329E+01</pdfrwt>
<totfact> 0.13766174E+09</totfact>
</mgrwt>
</event>
<event>
 4    1  0.3906087E+006  0.5026855E+01  0.7546771E-02  0.2562412E+00
         21   -1    0    0  501  502  0.00000000000E+00  0.00000000000E+00  0.20784877510E+02  0.20784877510E+02  0.00000000000E+00 0.  1.
         21   -1    0    0  502  503 -0.00000000000E+00 -0.00000000000E+00 -0.14656669452E+02  0.14656669452E+02  0.00000000000E+00 0.  1.
          5    1    1    2  501    0  0.29235037528E+00  0.17589212998E+01  0.20034011393E+02  0.20655045034E+02  0.47000000000E+01 0.  1.
         -5    1    1    2    0  503 -0.29235037528E+00 -0.17589212998E+01 -0.13905803335E+02  0.14786501928E+02  0.47000000000E+01 0.  1.
<mgrwt>
<rscale>  2 0.50268552E+01</rscale>
<asrwt>0</asrwt>
<pdfrwt beam="1">  1       21 0.31976735E-02 0.50268552E+01</pdfrwt>
<pdfrwt beam="2">  1       21 0.22548722E-02 0.50268552E+01</pdfrwt>
<totfact> 0.16372903E+08</totfact>
</mgrwt>
</event>
<event>
 4    1  0.3906087E+006  0.6085596E+01  0.7546771E-02  0.2404415E+00
         21   -1    0    0  501  502  0.00000000000E+00  0.00000000000E+00  0.56805821487E+01  0.56805821487E+01  0.00000000000E+00 0. -1.
         21   -1    0    0  502  503 -0.00000000000E+00 -0.00000000000E+00 -0.91959372802E+01  0.91959372802E+01  0.00000000000E+00 0. -1.
          5    1    1    2  501    0 -0.38129300236E+01  0.63721474861E+00  0.22551729079E+01  0.64900140867E+01  0.47000000000E+01 0. -1.
         -5    1    1    2    0  503  0.38129300236E+01 -0.63721474861E+00 -0.57705280394E+01  0.83865053422E+01  0.47000000000E+01 0. -1.
<mgrwt>
<rscale>  2 0.60855959E+01</rscale>
<asrwt>0</asrwt>
<pdfrwt beam="1">  1       21 0.87393572E-03 0.60855959E+01</pdfrwt>
<pdfrwt beam="2">  1       21 0.14147596E-02 0.60855959E+01</pdfrwt>
<totfact> 0.23629532E+09</totfact>
</mgrwt>
</event>
<event>
 4    1  0.3906087E+006  0.5221212E+01  0.7546771E-02  0.2529346E+00
         21   -1    0    0  503  502  0.00000000000E+00  0.00000000000E+00  0.53016710956E+02  0.53016710956E+02  0.00000000000E+00 0. -1.
         21   -1    0    0  501  503 -0.00000000000E+00 -0.00000000000E+00 -0.56777151991E+00  0.56777151991E+00  0.00000000000E+00 0. -1.
          5    1    1    2  501    0  0.20397242210E+01  0.10052782078E+01  0.17994477183E+02  0.18736655739E+02  0.47000000000E+01 0. -1.
         -5    1    1    2    0  502 -0.20397242210E+01 -0.10052782078E+01  0.34454462253E+02  0.34847826738E+02  0.47000000000E+01 0. -1.
<mgrwt>
<rscale>  2 0.52212124E+01</rscale>
<asrwt>0</asrwt>
<pdfrwt beam="1">  1       21 0.81564132E-02 0.52212124E+01</pdfrwt>
<pdfrwt beam="2">  1       21 0.87349506E-04 0.52212124E+01</pdfrwt>
<totfact> 0.37207437E+09</totfact>
</mgrwt>
</event>
<event>
 4    1  0.3906087E+006  0.5138696E+01  0.7546771E-02  0.2543122E+00
         21   -1    0    0  503  502  0.00000000000E+00  0.00000000000E+00  0.35026798296E+01  0.35026798296E+01  0.00000000000E+00 0.  1.
         21   -1    0    0  501  503 -0.00000000000E+00 -0.00000000000E+00 -0.10855474927E+02  0.10855474927E+02  0.00000000000E+00 0.  1.
          5    1    1    2  501    0  0.25647593478E+00 -0.20616531594E+01 -0.76445843160E+01  0.92111814128E+01  0.47000000000E+01 0.  1.
         -5    1    1    2    0  502 -0.25647593478E+00  0.20616531594E+01  0.29178921858E+00  0.51469733439E+01  0.47000000000E+01 0.  1.
<mgrwt>
<rscale>  2 0.51386957E+01</rscale>
<asrwt>0</asrwt>
<pdfrwt beam="1">  1       21 0.53887382E-03 0.51386957E+01</pdfrwt>
<pdfrwt beam="2">  1       21 0.16700731E-02 0.51386957E+01</pdfrwt>
<totfact> 0.31278047E+09</totfact>
</mgrwt>
</event>
<event>
 4    1  0.3906087E+006  0.5681307E+01  0.7546771E-02  0.2458844E+00
         21   -1    0    0  501  502  0.00000000000E+00  0.00000000000E+00  0.71504540269E+00  0.71504540269E+00  0.00000000000E+00 0.  1.
         21   -1    0    0  502  503 -0.00000000000E+00 -0.00000000000E+00 -0.46113814004E+02  0.46113814004E+02  0.00000000000E+00 0. -1.
          5    1    1    2  501    0 -0.31087986947E+01 -0.72292184748E+00 -0.19297056299E+02  0.20116004254E+02  0.47000000000E+01 0. -1.
         -5    1    1    2    0  503  0.31087986947E+01  0.72292184748E+00 -0.26101712302E+02  0.26712855153E+02  0.47000000000E+01 0. -1.
<mgrwt>
<rscale>  2 0.56813067E+01</rscale>
<asrwt>0</asrwt>
<pdfrwt beam="1">  1       21 0.11000697E-03 0.56813067E+01</pdfrwt>
<pdfrwt beam="2">  1       21 0.70944340E-02 0.56813067E+01</pdfrwt>
<totfact> 0.36508066E+09</totfact>
</mgrwt>
</event>
<event>
 4    1  0.3906087E+006  0.6862623E+01  0.7546771E-02  0.2315070E+00
         21   -1    0    0  501  502  0.00000000000E+00  0.00000000000E+00  0.67701045189E+00  0.67701045189E+00  0.00000000000E+00 0.  1.
         21   -1    0    0  502  503 -0.00000000000E+00 -0.00000000000E+00 -0.11369573043E+03  0.11369573043E+03  0.00000000000E+00 0. -1.
          5    1    1    2  501    0  0.42615318742E+01  0.26162824168E+01 -0.20881011047E+02  0.21979813692E+02  0.47000000000E+01 0.  1.
         -5    1    1    2    0  503 -0.42615318742E+01 -0.26162824168E+01 -0.92137708933E+02  0.92392927191E+02  0.47000000000E+01 0. -1.
<mgrwt>
<rscale>  2 0.68626225E+01</rscale>
<asrwt>0</asrwt>
<pdfrwt beam="1">  1       21 0.10415546E-03 0.68626225E+01</pdfrwt>
<pdfrwt beam="2">  1       21 0.17491650E-01 0.68626225E+01</pdfrwt>
<totfact> 0.11288265E+09</totfact>
</mgrwt>
</event>
<event>
 4    1  0.3906087E+006  0.7812098E+01  0.7546771E-02  0.2226157E+00
         21   -1    0    0  503  502  0.00000000000E+00  0.00000000000E+00  0.43025372482E-01  0.43025372482E-01  0.00000000000E+00 0.  1.
         21   -1    0    0  501  503 -0.00000000000E+00 -0.00000000000E+00 -0.15814795928E+04  0.15814795928E+04  0.00000000000E+00 0.  1.
          5    1    1    2  501    0 -0.35791155653E+00 -0.62298296160E+01 -0.10446173684E+04  0.10446465791E+04  0.47000000000E+01 0.  1.
         -5    1    1    2    0  502  0.35791155653E+00  0.62298296160E+01 -0.53681919898E+03  0.53687603902E+03  0.47000000000E+01 0.  1.
<mgrwt>
<rscale>  2 0.78120982E+01</rscale>
<asrwt>0</asrwt>
<pdfrwt beam="1">  1       21 0.66194481E-05 0.78120982E+01</pdfrwt>
<pdfrwt beam="2">  1       21 0.24329867E+00 0.78120982E+01</pdfrwt>
<totfact> 0.30227060E+08</totfact>
</mgrwt>
</event>
<event>
 4    1  0.3906087E+006  0.4952129E+01  0.7546771E-02  0.2575717E+00
         21   -1    0    0  501  502  0.00000000000E+00  0.00000000000E+00  0.63444865706E-01  0.63444865706E-01  0.00000000000E+00 0.  1.
         21   -1    0    0  502  503 -0.00000000000E+00 -0.00000000000E+00 -0.18184830433E+04  0.18184830433E+04  0.00000000000E+00 0.  1.
          5    1    1    2  501    0 -0.14838618467E+01 -0.48139034263E+00 -0.10233973701E+03  0.10245948153E+03  0.47000000000E+01 0.  1.
         -5    1    1    2    0  503  0.14838618467E+01  0.48139034263E+00 -0.17160798614E+04  0.17160870066E+04  0.47000000000E+01 0.  1.
<mgrwt>
<rscale>  2 0.49521291E+01</rscale>
<asrwt>0</asrwt>
<pdfrwt beam="1">  1       21 0.97614767E-05 0.49521291E+01</pdfrwt>
<pdfrwt beam="2">  1       21 0.27974575E+00 0.49521291E+01</pdfrwt>
<totfact> 0.10453574E+08</totfact>
</mgrwt>
</event>
<event>
 4    1  0.3906087E+006  0.1114424E+02  0.7546771E-02  0.2015175E+00
         21   -1    0    0  501  502  0.00000000000E+00  0.00000000000E+00  0.14654161642E+02  0.14654161642E+02  0.00000000000E+00 0. -1.
         21   -1    0    0  502  503 -0.00000000000E+00 -0.00000000000E+00 -0.98340996189E+02  0.98340996189E+02  0.00000000000E+00 0.  1.
          5    1    1    2  501    0 -0.65980521823E+01 -0.76530942812E+01  0.12164845954E+02  0.16497806575E+02  0.47000000000E+01 0. -1.
         -5    1    1    2    0  503  0.65980521823E+01  0.76530942812E+01 -0.95851680501E+02  0.96497351257E+02  0.47000000000E+01 0.  1.
<mgrwt>
<rscale>  2 0.11144243E+02</rscale>
<asrwt>0</asrwt>
<pdfrwt beam="1">  1       21 0.22544865E-02 0.11144243E+02</pdfrwt>
<pdfrwt beam="2">  1       21 0.15129384E-01 0.11144243E+02</pdfrwt>
<totfact> 0.23513953E+07</totfact>
</mgrwt>
</event>
<event>
 4    1  0.3906087E+006  0.6036320E+01  0.7546771E-02  0.2410720E+00
         21   -1    0    0  503  502  0.00000000000E+00  0.00000000000E+00  0.44662751439E+03  0.44662751439E+03  0.00000000000E+00 0. -1.
         21   -1    0    0  501  503 -0.00000000000E+00 -0.00000000000E+00 -0.15757585690E+00  0.15757585690E+00  0.00000000000E+00 0. -1.
          5    1    1    2  501    0 -0.37869304749E+01  0.79504529417E-01  0.68099702265E+02  0.68366706897E+02  0.47000000000E+01 0. -1.
         -5    1    1    2    0  502  0.37869304749E+01 -0.79504529417E-01  0.37837023627E+03  0.37841838335E+03  0.47000000000E+01 0. -1.
<mgrwt>
<rscale>  2 0.60363204E+01</rscale>
<asrwt>0</asrwt>
<pdfrwt beam="1">  1       21 0.68710912E-01 0.60363204E+01</pdfrwt>
<pdfrwt beam="2">  1       21 0.24242797E-04 0.60363204E+01</pdfrwt>
<totfact> 0.68160980E+08</totfact>
</mgrwt>
</event>
<event>
 4    1  0.3906087E+006  0.4790175E+01  0.7546771E-02  0.2605779E+00
         21   -1    0    0  501  502  0.00000000000E+00  0.00000000000E+00  0.13085377603E+00  0.13085377603E+00  0.00000000000E+00 0. -1.
         21   -1    0    0  502  503 -0.00000000000E+00 -0.00000000000E+00 -0.57739861321E+03  0.57739861321E+03  0.00000000000E+00 0. -1.
          5    1    1    2  501    0  0.69973207497E+00  0.60510094044E+00 -0.47674827377E+02  0.47914871778E+02  0.47000000000E+01 0. -1.
         -5    1    1    2    0  503 -0.69973207497E+00 -0.60510094044E+00 -0.52959293206E+03  0.52961459521E+03  0.47000000000E+01 0. -1.
<mgrwt>
<rscale>  2 0.47901745E+01</rscale>
<asrwt>0</asrwt>
<pdfrwt beam="1">  1       21 0.20130881E-04 0.47901745E+01</pdfrwt>
<pdfrwt beam="2">  1       21 0.88832626E-01 0.47901745E+01</pdfrwt>
<totfact> 0.44854951E+08</totfact>
</mgrwt>
</event>
<event>
 4    1  0.3906087E+006  0.7232229E+01  0.7546771E-02  0.2278199E+00
         21   -1    0    0  501  502  0.00000000000E+00  0.00000000000E+00  0.42738187988E+00  0.42738187988E+00  0.00000000000E+00 0. -1.
         21   -1    0    0  502  503 -0.00000000000E+00 -0.00000000000E+00 -0.58869493365E+03  0.58869493365E+03  0.00000000000E+00 0. -1.
          5    1    1    2  501    0  0.30372840218E+01  0.45814895229E+01 -0.31973036833E+02  0.32780790485E+02  0.47000000000E+01 0. -1.
         -5    1    1    2    0  503 -0.30372840218E+01 -0.45814895229E+01 -0.55629451493E+03  0.55634152504E+03  0.47000000000E+01 0. -1.
<mgrwt>
<rscale>  2 0.72322293E+01</rscale>
<asrwt>0</asrwt>
<pdfrwt beam="1">  1       21 0.65751409E-04 0.72322293E+01</pdfrwt>
<pdfrwt beam="2">  1       21 0.90567969E-01 0.72322293E+01</pdfrwt>
<totfact> 0.11619183E+08</totfact>
</mgrwt>
</event>
<event>
 4    1  0.3906087E+006  0.5689545E+01  0.7546771E-02  0.2457670E+00
         21   -1    0    0  503  502  0.00000000000E+00  0.00000000000E+00  0.36866549583E+02  0.36866549583E+02  0.00000000000E+00 0.  1.
         21   -1    0    0  501  503 -0.00000000000E+00 -0.00000000000E+00 -0.14010529885E+01  0.14010529885E+01  0.00000000000E+00 0.  1.
          5    1    1    2  501    0 -0.21400488481E+01  0.23876994698E+01  0.60425112795E+01  0.82995698921E+01  0.47000000000E+01 0.  1.
         -5    1    1    2    0  502  0.21400488481E+01 -0.23876994698E+01  0.29422985315E+02  0.29968032680E+02  0.47000000000E+01 0.  1.
<mgrwt>
<rscale>  2 0.56895446E+01</rscale>
<asrwt>0</asrwt>
<pdfrwt beam="1">  1       21 0.56717761E-02 0.56895446E+01</pdfrwt>
<pdfrwt beam="2">  1       21 0.21554664E-03 0.56895446E+01</pdfrwt>
<totfact> 0.20596568E+09</totfact>
</mgrwt>
</event>
<event>
 4    1  0.3906087E+006  0.6423622E+01  0.7546771E-02  0.2363347E+00
         21   -1    0    0  503  502  0.00000000000E+00  0.00000000000E+00  0.29662768593E+01  0.29662768593E+01  0.00000000000E+00 0.  1.
         21   -1    0    0  501  503 -0.00000000000E+00 -0.00000000000E+00 -0.16781777651E+02  0.16781777651E+02  0.00000000000E+00 0.  1.
          5    1    1    2  501    0  0.70285011581E+00 -0.43219111258E+01 -0.10991881569E+02  0.12731236173E+02  0.47000000000E+01 0.  1.
         -5    1    1    2    0  502 -0.70285011581E+00  0.43219111258E+01 -0.28236192226E+01  0.70168183373E+01  0.47000000000E+01 0.  1.
<mgrwt>
<rscale>  2 0.64236216E+01</rscale>
<asrwt>0</asrwt>
<pdfrwt beam="1">  1       21 0.45635029E-03 0.64236216E+01</pdfrwt>
<pdfrwt beam="2">  1       21 0.25818119E-02 0.64236216E+01</pdfrwt>
<totfact> 0.25870292E+09</totfact>
</mgrwt>
</event>
<event>
 4    1  0.3906087E+006  0.8131028E+01  0.7546771E-02  0.2200120E+00
         21   -1    0    0  501  502  0.00000000000E+00  0.00000000000E+00  0.55151287528E+02  0.55151287528E+02  0.00000000000E+00 0. -1.
         21   -1    0    0  502  503 -0.00000000000E+00 -0.00000000000E+00 -0.16374692619E+01  0.16374692619E+01  0.00000000000E+00 0. -1.
          5    1    1    2  501    0 -0.57230850294E+01 -0.33570696329E+01  0.41453954970E+02  0.42243863477E+02  0.47000000000E+01 0. -1.
         -5    1    1    2    0  503  0.57230850294E+01  0.33570696329E+01  0.12059863296E+02  0.14544893313E+02  0.47000000000E+01 0. -1.
<mgrwt>
<rscale>  2 0.81310281E+01</rscale>
<asrwt>0</asrwt>
<pdfrwt beam="1">  1       21 0.84848121E-02 0.81310281E+01</pdfrwt>
<pdfrwt beam="2">  1       21 0.25191839E-03 0.81310281E+01</pdfrwt>
<totfact> 0.11840430E+09</totfact>
</mgrwt>
</event>
<event>
 4    1  0.3906087E+006  0.1349353E+02  0.7546771E-02  0.1917851E+00
         21   -1    0    0  501  502  0.00000000000E+00  0.00000000000E+00  0.13132486592E+02  0.13132486592E+02  0.00000000000E+00 0.  1.
         21   -1    0    0  502  503 -0.00000000000E+00 -0.00000000000E+00 -0.40433965001E+02  0.40433965001E+02  0.00000000000E+00 0. -1.
          5    1    1    2  501    0  0.87154924097E+01 -0.91665487531E+01  0.80603235401E+01  0.15717641030E+02  0.47000000000E+01 0.  1.
         -5    1    1    2    0  503 -0.87154924097E+01  0.91665487531E+01 -0.35361801949E+02  0.37848810563E+02  0.47000000000E+01 0. -1.
<mgrwt>
<rscale>  2 0.13493533E+02</rscale>
<asrwt>0</asrwt>
<pdfrwt beam="1">  1       21 0.20203826E-02 0.13493533E+02</pdfrwt>
<pdfrwt beam="2">  1       21 0.62206100E-02 0.13493533E+02</pdfrwt>
<totfact> 0.12392786E+08</totfact>
</mgrwt>
</event>
<event>
 4    1  0.3906087E+006  0.5415568E+01  0.7546771E-02  0.2498322E+00
         21   -1    0    0  501  502  0.00000000000E+00  0.00000000000E+00  0.85273696333E-01  0.85273696333E-01  0.00000000000E+00 0.  1.
         21   -1    0    0  502  503 -0.00000000000E+00 -0.00000000000E+00 -0.13255307961E+04  0.13255307961E+04  0.00000000000E+00 0.  1.
          5    1    1    2  501    0 -0.15430138083E+01 -0.22039708558E+01 -0.92348664548E+02  0.92507319834E+02  0.47000000000E+01 0.  1.
         -5    1    1    2    0  503  0.15430138083E+01  0.22039708558E+01 -0.12330968578E+04  0.12331087499E+04  0.47000000000E+01 0.  1.
<mgrwt>
<rscale>  2 0.54155682E+01</rscale>
<asrwt>0</asrwt>
<pdfrwt beam="1">  1       21 0.13118623E-04 0.54155682E+01</pdfrwt>
<pdfrwt beam="2">  1       21 0.20393415E+00 0.54155682E+01</pdfrwt>
<totfact> 0.15211548E+08</totfact>
</mgrwt>
</event>
<event>
 4    1  0.3906087E+006  0.9579446E+01  0.7546771E-02  0.2099743E+00
         21   -1    0    0  503  502  0.00000000000E+00  0.00000000000E+00  0.64848836986E+02  0.64848836986E+02  0.00000000000E+00 0.  1.
         21   -1    0    0  501  503 -0.00000000000E+00 -0.00000000000E+00 -0.33012210923E+01  0.33012210923E+01  0.00000000000E+00 0. -1.
          5    1    1    2  501    0  0.39088174546E+01 -0.73754280973E+01  0.50173046510E+01  0.10813840182E+02  0.47000000000E+01 0. -1.
         -5    1    1    2    0  502 -0.39088174546E+01  0.73754280973E+01  0.56530311243E+02  0.57336217897E+02  0.47000000000E+01 0.  1.
<mgrwt>
<rscale>  2 0.95794464E+01</rscale>
<asrwt>0</asrwt>
<pdfrwt beam="1">  1       21 0.99767432E-02 0.95794464E+01</pdfrwt>
<pdfrwt beam="2">  1       21 0.50788022E-03 0.95794464E+01</pdfrwt>
<totfact> 0.37752388E+08</totfact>
</mgrwt>
</event>
<event>
 4    1  0.3906087E+006  0.5036330E+01  0.7546771E-02  0.2560749E+00
         21   -1    0    0  501  502  0.00000000000E+00  0.00000000000E+00  0.35353822124E+02  0.35353822124E+02  0.00000000000E+00 0. -1.
         21   -1    0    0  502  503 -0.00000000000E+00 -0.00000000000E+00 -0.18004628465E+01  0.18004628465E+01  0.00000000000E+00 0. -1.
          5    1    1    2  501    0  0.17401006205E+01 -0.49665464455E+00  0.31184674393E+02  0.31588740605E+02  0.47000000000E+01 0. -1.
         -5    1    1    2    0  503 -0.17401006205E+01  0.49665464455E+00  0.23686848849E+01  0.55655443660E+01  0.47000000000E+01 0. -1.
<mgrwt>
<rscale>  2 0.50363296E+01</rscale>
<asrwt>0</asrwt>
<pdfrwt beam="1">  1       21 0.54390490E-02 0.50363296E+01</pdfrwt>
<pdfrwt beam="2">  1       21 0.27699431E-03 0.50363296E+01</pdfrwt>
<totfact> 0.13935550E+09</totfact>
</mgrwt>
</event>
<event>
 4    1  0.3906087E+006  0.8385604E+01  0.7546771E-02  0.2180487E+00
         21   -1    0    0  501  502  0.00000000000E+00  0.00000000000E+00  0.31831920026E+02  0.31831920026E+02  0.00000000000E+00 0.  1.
         21   -1    0    0  502  503 -0.00000000000E+00 -0.00000000000E+00 -0.48786300317E+01  0.48786300317E+01  0.00000000000E+00 0. -1.
          5    1    1    2  501    0 -0.41833022408E+01  0.55433142877E+01  0.27054566816E+02  0.28324334706E+02  0.47000000000E+01 0.  1.
         -5    1    1    2    0  503  0.41833022408E+01 -0.55433142877E+01 -0.10127682185E+00  0.83862153517E+01  0.47000000000E+01 0. -1.
<mgrwt>
<rscale>  2 0.83856038E+01</rscale>
<asrwt>0</asrwt>
<pdfrwt beam="1">  1       21 0.48972183E-02 0.83856038E+01</pdfrwt>
<pdfrwt beam="2">  1       21 0.75055849E-03 0.83856038E+01</pdfrwt>
<totfact> 0.60173766E+08</totfact>
</mgrwt>
</event>
<event>
 4    1  0.3906087E+006  0.1648442E+02  0.7546771E-02  0.1825884E+00
         21   -1    0    0  501  502  0.00000000000E+00  0.00000000000E+00  0.38986834520E+00  0.38986834520E+00  0.00000000000E+00 0. -1.
         21   -1    0    0  502  503 -0.00000000000E+00 -0.00000000000E+00 -0.69701847588E+03  0.69701847588E+03  0.00000000000E+00 0.  1.
          5    1    1    2  501    0 -0.20996814588E+01  0.15660053946E+02 -0.34625385258E+03  0.34664602461E+03  0.47000000000E+01 0. -1.
         -5    1    1    2    0  503  0.20996814588E+01 -0.15660053946E+02 -0.35037475495E+03  0.35076231961E+03  0.47000000000E+01 0.  1.
<mgrwt>
<rscale>  2 0.16484415E+02</rscale>
<asrwt>0</asrwt>
<pdfrwt beam="1">  1       21 0.59980107E-04 0.16484415E+02</pdfrwt>
<pdfrwt beam="2">  1       21 0.10723297E+00 0.16484415E+02</pdfrwt>
<totfact> 0.12841183E+08</totfact>
</mgrwt>
</event>
<event>
 4    1  0.3906087E+006  0.5820597E+01  0.7546771E-02  0.2439375E+00
         21   -1    0    0  501  502  0.00000000000E+00  0.00000000000E+00  0.20610885660E+03  0.20610885660E+03  0.00000000000E+00 0.  1.
         21   -1    0    0  502  503 -0.00000000000E+00 -0.00000000000E+00 -0.17307723887E+00  0.17307723887E+00  0.00000000000E+00 0.  1.
          5    1    1    2  501    0  0.31319055016E+00 -0.34192488389E+01  0.12609394604E+03  0.12622821626E+03  0.47000000000E+01 0.  1.
         -5    1    1    2    0  503 -0.31319055016E+00  0.34192488389E+01  0.79841833323E+02  0.80053717586E+02  0.47000000000E+01 0.  1.
<mgrwt>
<rscale>  2 0.58205971E+01</rscale>
<asrwt>0</asrwt>
<pdfrwt beam="1">  1       21 0.31708858E-01 0.58205971E+01</pdfrwt>
<pdfrwt beam="2">  1       21 0.26627432E-04 0.58205971E+01</pdfrwt>
<totfact> 0.23274802E+09</totfact>
</mgrwt>
</event>
<event>
 4    1  0.3906087E+006  0.4950333E+01  0.7546771E-02  0.2576041E+00
         21   -1    0    0  501  502  0.00000000000E+00  0.00000000000E+00  0.12329028467E+01  0.12329028467E+01  0.00000000000E+00 0.  1.
         21   -1    0    0  502  503 -0.00000000000E+00 -0.00000000000E+00 -0.34199826407E+02  0.34199826407E+02  0.00000000000E+00 0. -1.
          5    1    1    2  501    0 -0.29547136878E+00  0.15259392388E+01 -0.50181835555E+01  0.70489687251E+01  0.47000000000E+01 0.  1.
         -5    1    1    2    0  503  0.29547136878E+00 -0.15259392388E+01 -0.27948740005E+02  0.28383760529E+02  0.47000000000E+01 0. -1.
<mgrwt>
<rscale>  2 0.49503327E+01</rscale>
<asrwt>0</asrwt>
<pdfrwt beam="1">  1       21 0.18967738E-03 0.49503327E+01</pdfrwt>
<pdfrwt beam="2">  1       21 0.52615112E-02 0.49503327E+01</pdfrwt>
<totfact> 0.23980217E+09</totfact>
</mgrwt>
</event>
<event>
 4    1  0.3906087E+006  0.5694603E+01  0.7546771E-02  0.2456951E+00
         21   -1    0    0  501  502  0.00000000000E+00  0.00000000000E+00  0.83975453038E+01  0.83975453038E+01  0.00000000000E+00 0. -1.
         21   -1    0    0  502  503 -0.00000000000E+00 -0.00000000000E+00 -0.14648902342E+02  0.14648902342E+02  0.00000000000E+00 0.  1.
          5    1    1    2  501    0 -0.31118041522E+01 -0.80943286074E+00  0.67627339401E+01  0.88409884618E+01  0.47000000000E+01 0. -1.
         -5    1    1    2    0  503  0.31118041522E+01  0.80943286074E+00 -0.13014090979E+02  0.14205459184E+02  0.47000000000E+01 0.  1.
<mgrwt>
<rscale>  2 0.56946033E+01</rscale>
<asrwt>0</asrwt>
<pdfrwt beam="1">  1       21 0.12919301E-02 0.56946033E+01</pdfrwt>
<pdfrwt beam="2">  1       21 0.22536773E-02 0.56946033E+01</pdfrwt>
<totfact> 0.66128543E+08</totfact>
</mgrwt>
</event>
<event>
 4    1  0.3906087E+006  0.5066511E+01  0.7546771E-02  0.2555488E+00
         21   -1    0    0  503  502  0.00000000000E+00  0.00000000000E+00  0.11275259800E+01  0.11275259800E+01  0.00000000000E+00 0.  1.
         21   -1    0    0  501  503 -0.00000000000E+00 -0.00000000000E+00 -0.22885806944E+02  0.22885806944E+02  0.00000000000E+00 0.  1.
          5    1    1    2  501    0 -0.79635345048E+00 -0.17162041797E+01 -0.11746963456E+02  0.12792993631E+02  0.47000000000E+01 0.  1.
         -5    1    1    2    0  502  0.79635345048E+00  0.17162041797E+01 -0.10011317508E+02  0.11220339293E+02  0.47000000000E+01 0.  1.
<mgrwt>
<rscale>  2 0.50665112E+01</rscale>
<asrwt>0</asrwt>
<pdfrwt beam="1">  1       21 0.17346557E-03 0.50665112E+01</pdfrwt>
<pdfrwt beam="2">  1       21 0.35208928E-02 0.50665112E+01</pdfrwt>
<totfact> 0.49642375E+09</totfact>
</mgrwt>
</event>
<event>
 4    1  0.3906087E+006  0.7501706E+01  0.7546771E-02  0.2253202E+00
         21   -1    0    0  501  502  0.00000000000E+00  0.00000000000E+00  0.27264480340E+02  0.27264480340E+02  0.00000000000E+00 0.  1.
         21   -1    0    0  502  503 -0.00000000000E+00 -0.00000000000E+00 -0.34242808388E+01  0.34242808388E+01  0.00000000000E+00 0. -1.
          5    1    1    2  501    0  0.58283748457E+01  0.46436375242E+00  0.21591046963E+02  0.22857141029E+02  0.47000000000E+01 0.  1.
         -5    1    1    2    0  503 -0.58283748457E+01 -0.46436375242E+00  0.22491525378E+01  0.78316201500E+01  0.47000000000E+01 0. -1.
<mgrwt>
<rscale>  2 0.75017056E+01</rscale>
<asrwt>0</asrwt>
<pdfrwt beam="1">  1       21 0.41945353E-02 0.75017056E+01</pdfrwt>
<pdfrwt beam="2">  1       21 0.52681245E-03 0.75017056E+01</pdfrwt>
<totfact> 0.11657469E+09</totfact>
</mgrwt>
</event>
<event>
 4    1  0.3906087E+006  0.5095969E+01  0.7546771E-02  0.2550406E+00
         21   -1    0    0  501  502  0.00000000000E+00  0.00000000000E+00  0.44687287061E+00  0.44687287061E+00  0.00000000000E+00 0. -1.
         21   -1    0    0  502  503 -0.00000000000E+00 -0.00000000000E+00 -0.60941870281E+03  0.60941870281E+03  0.00000000000E+00 0. -1.
          5    1    1    2  501    0 -0.15853765925E+01  0.11685365471E+01 -0.14456078826E+02  0.15327984591E+02  0.47000000000E+01 0. -1.
         -5    1    1    2    0  503  0.15853765925E+01 -0.11685365471E+01 -0.59451575111E+03  0.59453759109E+03  0.47000000000E+01 0. -1.
<mgrwt>
<rscale>  2 0.50959687E+01</rscale>
<asrwt>0</asrwt>
<pdfrwt beam="1">  1       21 0.68750275E-04 0.50959687E+01</pdfrwt>
<pdfrwt beam="2">  1       21 0.93755902E-01 0.50959687E+01</pdfrwt>
<totfact> 0.83099507E+07</totfact>
</mgrwt>
</event>
<event>
 4    1  0.3906087E+006  0.5272095E+01  0.7546771E-02  0.2521036E+00
         21   -1    0    0  503  502  0.00000000000E+00  0.00000000000E+00  0.46791240048E+00  0.46791240048E+00  0.00000000000E+00 0. -1.
         21   -1    0    0  501  503 -0.00000000000E+00 -0.00000000000E+00 -0.95378077053E+02  0.95378077053E+02  0.00000000000E+00 0.  1.
          5    1    1    2  501    0 -0.83510406681E+00 -0.22377639615E+01 -0.76887495733E+02  0.77068034790E+02  0.47000000000E+01 0.  1.
         -5    1    1    2    0  502  0.83510406681E+00  0.22377639615E+01 -0.18022668920E+02  0.18777954663E+02  0.47000000000E+01 0. -1.
<mgrwt>
<rscale>  2 0.52720951E+01</rscale>
<asrwt>0</asrwt>
<pdfrwt beam="1">  1       21 0.71986523E-04 0.52720951E+01</pdfrwt>
<pdfrwt beam="2">  1       21 0.14673550E-01 0.52720951E+01</pdfrwt>
<totfact> 0.19800650E+09</totfact>
</mgrwt>
</event>
<event>
 4    1  0.3906087E+006  0.4888211E+01  0.7546771E-02  0.2587375E+00
         21   -1    0    0  501  502  0.00000000000E+00  0.00000000000E+00  0.37295139553E+03  0.37295139553E+03  0.00000000000E+00 0. -1.
         21   -1    0    0  502  503 -0.00000000000E+00 -0.00000000000E+00 -0.10444316431E+00  0.10444316431E+00  0.00000000000E+00 0. -1.
          5    1    1    2  501    0  0.12135459728E+01  0.57612197960E+00  0.30239618200E+03  0.30243568820E+03  0.47000000000E+01 0. -1.
         -5    1    1    2    0  503 -0.12135459728E+01 -0.57612197960E+00  0.70450770369E+02  0.70620150496E+02  0.47000000000E+01 0. -1.
<mgrwt>
<rscale>  2 0.48882114E+01</rscale>
<asrwt>0</asrwt>
<pdfrwt beam="1">  1       21 0.57376072E-01 0.48882114E+01</pdfrwt>
<pdfrwt beam="2">  1       21 0.16068478E-04 0.48882114E+01</pdfrwt>
<totfact> 0.13957507E+09</totfact>
</mgrwt>
</event>
<event>
 4    1  0.3906087E+006  0.5706054E+01  0.7546771E-02  0.2455327E+00
         21   -1    0    0  503  502  0.00000000000E+00  0.00000000000E+00  0.75872115907E+00  0.75872115907E+00  0.00000000000E+00 0. -1.
         21   -1    0    0  501  503 -0.00000000000E+00 -0.00000000000E+00 -0.63269750480E+02  0.63269750480E+02  0.00000000000E+00 0.  1.
          5    1    1    2  501    0  0.27324360939E+01  0.17328713883E+01 -0.49414794212E+02  0.49743149652E+02  0.47000000000E+01 0. -1.
         -5    1    1    2    0  502 -0.27324360939E+01 -0.17328713883E+01 -0.13096235109E+02  0.14285321988E+02  0.47000000000E+01 0. -1.
<mgrwt>
<rscale>  2 0.57060538E+01</rscale>
<asrwt>0</asrwt>
<pdfrwt beam="1">  1       21 0.11672630E-03 0.57060538E+01</pdfrwt>
<pdfrwt beam="2">  1       21 0.97338102E-02 0.57060538E+01</pdfrwt>
<totfact> 0.20973061E+09</totfact>
</mgrwt>
</event>
<event>
 4    1  0.3906087E+006  0.5259339E+01  0.7546771E-02  0.2523106E+00
         21   -1    0    0  501  502  0.00000000000E+00  0.00000000000E+00  0.29285371401E+02  0.29285371401E+02  0.00000000000E+00 0. -1.
         21   -1    0    0  502  503 -0.00000000000E+00 -0.00000000000E+00 -0.52965553856E+01  0.52965553856E+01  0.00000000000E+00 0. -1.
          5    1    1    2  501    0  0.19068133018E+01 -0.13909384971E+01  0.27668002041E+02  0.28163433452E+02  0.47000000000E+01 0. -1.
         -5    1    1    2    0  503 -0.19068133018E+01  0.13909384971E+01 -0.36791860257E+01  0.64184933343E+01  0.47000000000E+01 0. -1.
<mgrwt>
<rscale>  2 0.52593390E+01</rscale>
<asrwt>0</asrwt>
<pdfrwt beam="1">  1       21 0.45054416E-02 0.52593390E+01</pdfrwt>
<pdfrwt beam="2">  1       21 0.81485469E-03 0.52593390E+01</pdfrwt>
<totfact> 0.43347199E+08</totfact>
</mgrwt>
</event>
<event>
 4    1  0.3906087E+006  0.9925588E+01  0.7546771E-02  0.2079247E+00
         21   -1    0    0  503  502  0.00000000000E+00  0.00000000000E+00  0.12760419795E+02  0.12760419795E+02  0.00000000000E+00 0.  1.
         21   -1    0    0  501  503 -0.00000000000E+00 -0.00000000000E+00 -0.46270388985E+02  0.46270388985E+02  0.00000000000E+00 0. -1.
          5    1    1    2  501    0  0.87071562764E+01 -0.78276443668E+00 -0.43695662596E+02  0.44808796238E+02  0.47000000000E+01 0. -1.
         -5    1    1    2    0  502 -0.87071562764E+01  0.78276443668E+00  0.10185693406E+02  0.14222012542E+02  0.47000000000E+01 0.  1.
<mgrwt>
<rscale>  2 0.99255877E+01</rscale>
<asrwt>0</asrwt>
<pdfrwt beam="1">  1       21 0.19631415E-02 0.99255877E+01</pdfrwt>
<pdfrwt beam="2">  1       21 0.71185213E-02 0.99255877E+01</pdfrwt>
<totfact> 0.91882432E+07</totfact>
</mgrwt>
</event>
<event>
 4    1  0.3906087E+006  0.4910689E+01  0.7546771E-02  0.2583245E+00
         21   -1    0    0  501  502  0.00000000000E+00  0.00000000000E+00  0.27407360588E+00  0.27407360588E+00  0.00000000000E+00 0.  1.
         21   -1    0    0  502  503 -0.00000000000E+00 -0.00000000000E+00 -0.18275804532E+03  0.18275804532E+03  0.00000000000E+00 0.  1.
          5    1    1    2  501    0  0.14229291940E+01  0.11953443571E-01 -0.25340187987E+02  0.25811625241E+02  0.47000000000E+01 0.  1.
         -5    1    1    2    0  503 -0.14229291940E+01 -0.11953443571E-01 -0.15714378373E+03  0.15722049369E+03  0.47000000000E+01 0.  1.
<mgrwt>
<rscale>  2 0.49106894E+01</rscale>
<asrwt>0</asrwt>
<pdfrwt beam="1">  1       21 0.42165007E-04 0.49106894E+01</pdfrwt>
<pdfrwt beam="2">  1       21 0.28116731E-01 0.49106894E+01</pdfrwt>
<totfact> 0.13343148E+09</totfact>
</mgrwt>
</event>
<event>
 4    1  0.3906087E+006  0.1088270E+02  0.7546771E-02  0.2027978E+00
         21   -1    0    0  503  502  0.00000000000E+00  0.00000000000E+00  0.12820130494E+00  0.12820130494E+00  0.00000000000E+00 0.  1.
         21   -1    0    0  501  503 -0.00000000000E+00 -0.00000000000E+00 -0.94157957798E+03  0.94157957798E+03  0.00000000000E+00 0. -1.
          5    1    1    2  501    0 -0.89230112452E+01 -0.40893899516E+01 -0.40603600008E+03  0.40618181471E+03  0.47000000000E+01 0.  1.
         -5    1    1    2    0  502  0.89230112452E+01  0.40893899516E+01 -0.53541537660E+03  0.53552596458E+03  0.47000000000E+01 0. -1.
<mgrwt>
<rscale>  2 0.10882704E+02</rscale>
<asrwt>0</asrwt>
<pdfrwt beam="1">  1       21 0.19722783E-04 0.10882704E+02</pdfrwt>
<pdfrwt beam="2">  1       21 0.14486203E+00 0.10882704E+02</pdfrwt>
<totfact> 0.26471859E+08</totfact>
</mgrwt>
</event>
<event>
 4    1  0.3906087E+006  0.7034983E+01  0.7546771E-02  0.2297481E+00
         21   -1    0    0  503  502  0.00000000000E+00  0.00000000000E+00  0.67302132058E+01  0.67302132058E+01  0.00000000000E+00 0.  1.
         21   -1    0    0  501  503 -0.00000000000E+00 -0.00000000000E+00 -0.11360501298E+02  0.11360501298E+02  0.00000000000E+00 0. -1.
          5    1    1    2  501    0 -0.43332638296E+01 -0.29366328496E+01 -0.76871165143E+01  0.10420304612E+02  0.47000000000E+01 0. -1.
         -5    1    1    2    0  502  0.43332638296E+01  0.29366328496E+01  0.30568284216E+01  0.76704098919E+01  0.47000000000E+01 0.  1.
<mgrwt>
<rscale>  2 0.70349831E+01</rscale>
<asrwt>0</asrwt>
<pdfrwt beam="1">  1       21 0.10354174E-02 0.70349831E+01</pdfrwt>
<pdfrwt beam="2">  1       21 0.17477694E-02 0.70349831E+01</pdfrwt>
<totfact> 0.15434064E+09</totfact>
</mgrwt>
</event>
<event>
 4    1  0.3906087E+006  0.4943712E+01  0.7546771E-02  0.2577237E+00
         21   -1    0    0  501  502  0.00000000000E+00  0.00000000000E+00  0.31161560303E+02  0.31161560303E+02  0.00000000000E+00 0.  1.
         21   -1    0    0  502  503 -0.00000000000E+00 -0.00000000000E+00 -0.98188773678E+00  0.98188773678E+00  0.00000000000E+00 0. -1.
          5    1    1    2  501    0 -0.98551066842E+00  0.11743330225E+01  0.22299279935E+02  0.22840713100E+02  0.47000000000E+01 0. -1.
         -5    1    1    2    0  503  0.98551066842E+00 -0.11743330225E+01  0.78803926310E+01  0.93027349389E+01  0.47000000000E+01 0. -1.
<mgrwt>
<rscale>  2 0.49437121E+01</rscale>
<asrwt>0</asrwt>
<pdfrwt beam="1">  1       21 0.47940854E-02 0.49437121E+01</pdfrwt>
<pdfrwt beam="2">  1       21 0.15105968E-03 0.49437121E+01</pdfrwt>
<totfact> 0.37216720E+09</totfact>
</mgrwt>
</event>
<event>
 4    1  0.3906087E+006  0.1095866E+02  0.7546771E-02  0.2024211E+00
         21   -1    0    0  501  502  0.00000000000E+00  0.00000000000E+00  0.29887868083E+02  0.29887868083E+02  0.00000000000E+00 0. -1.
         21   -1    0    0  502  503 -0.00000000000E+00 -0.00000000000E+00 -0.40313409677E+01  0.40313409677E+01  0.00000000000E+00 0. -1.
          5    1    1    2  501    0  0.43962742272E+01  0.88698895324E+01  0.13900567055E+02  0.17700789018E+02  0.47000000000E+01 0. -1.
         -5    1    1    2    0  503 -0.43962742272E+01 -0.88698895324E+01  0.11955960060E+02  0.16218420032E+02  0.47000000000E+01 0. -1.
<mgrwt>
<rscale>  2 0.10958657E+02</rscale>
<asrwt>0</asrwt>
<pdfrwt beam="1">  1       21 0.45981334E-02 0.10958657E+02</pdfrwt>
<pdfrwt beam="2">  1       21 0.62020632E-03 0.10958657E+02</pdfrwt>
<totfact> 0.10182404E+09</totfact>
</mgrwt>
</event>
<event>
 4    1  0.3906087E+006  0.6536072E+01  0.7546771E-02  0.2350471E+00
         21   -1    0    0  501  502  0.00000000000E+00  0.00000000000E+00  0.28112519789E+03  0.28112519789E+03  0.00000000000E+00 0. -1.
         21   -1    0    0  502  503 -0.00000000000E+00 -0.00000000000E+00 -0.38241047489E+00  0.38241047489E+00  0.00000000000E+00 0.  1.
          5    1    1    2  501    0  0.15739303414E+01  0.42606312283E+01  0.24963676517E+03  0.24972231530E+03  0.47000000000E+01 0. -1.
         -5    1    1    2    0  503 -0.15739303414E+01 -0.42606312283E+01  0.31106022241E+02  0.31785293058E+02  0.47000000000E+01 0.  1.
<mgrwt>
<rscale>  2 0.65360718E+01</rscale>
<asrwt>0</asrwt>
<pdfrwt beam="1">  1       21 0.43249865E-01 0.65360718E+01</pdfrwt>
<pdfrwt beam="2">  1       21 0.58832605E-04 0.65360718E+01</pdfrwt>
<totfact> 0.51282251E+08</totfact>
</mgrwt>
</event>
<event>
 4    1  0.3906087E+006  0.6131602E+01  0.7546771E-02  0.2398604E+00
         21   -1    0    0  503  502  0.00000000000E+00  0.00000000000E+00  0.12627008021E+03  0.12627008021E+03  0.00000000000E+00 0. -1.
         21   -1    0    0  501  503 -0.00000000000E+00 -0.00000000000E+00 -0.60428029575E+00  0.60428029575E+00  0.00000000000E+00 0.  1.
          5    1    1    2  501    0 -0.25218115037E+01  0.30244016918E+01  0.17651105641E+02  0.18685771839E+02  0.47000000000E+01 0.  1.
         -5    1    1    2    0  502  0.25218115037E+01 -0.30244016918E+01  0.10801469427E+03  0.10818858866E+03  0.47000000000E+01 0. -1.
<mgrwt>
<rscale>  2 0.61316017E+01</rscale>
<asrwt>0</asrwt>
<pdfrwt beam="1">  1       21 0.19426145E-01 0.61316017E+01</pdfrwt>
<pdfrwt beam="2">  1       21 0.92966300E-04 0.61316017E+01</pdfrwt>
<totfact> 0.10223661E+09</totfact>
</mgrwt>
</event>
<event>
 4    1  0.3906087E+006  0.7382667E+01  0.7546771E-02  0.2264061E+00
         21   -1    0    0  501  502  0.00000000000E+00  0.00000000000E+00  0.70049597706E+03  0.70049597706E+03  0.00000000000E+00 0. -1.
         21   -1    0    0  502  503 -0.00000000000E+00 -0.00000000000E+00 -0.25193397148E+00  0.25193397148E+00  0.00000000000E+00 0.  1.
          5    1    1    2  501    0 -0.50115898162E+01 -0.27014328697E+01  0.64140893369E+03  0.64145141982E+03  0.47000000000E+01 0. -1.
         -5    1    1    2    0  503  0.50115898162E+01  0.27014328697E+01  0.58835109403E+02  0.59296491216E+02  0.47000000000E+01 0.  1.
<mgrwt>
<rscale>  2 0.73826670E+01</rscale>
<asrwt>0</asrwt>
<pdfrwt beam="1">  1       21 0.10776705E+00 0.73826670E+01</pdfrwt>
<pdfrwt beam="2">  1       21 0.38759633E-04 0.73826670E+01</pdfrwt>
<totfact> 0.16791273E+08</totfact>
</mgrwt>
</event>
<event>
 4    1  0.3906087E+006  0.7441345E+01  0.7546771E-02  0.2258673E+00
         21   -1    0    0  503  502  0.00000000000E+00  0.00000000000E+00  0.10746592178E+04  0.10746592178E+04  0.00000000000E+00 0.  1.
         21   -1    0    0  501  503 -0.00000000000E+00 -0.00000000000E+00 -0.12766243017E+00  0.12766243017E+00  0.00000000000E+00 0. -1.
          5    1    1    2  501    0 -0.29344298775E+01  0.49671656942E+01  0.12225904380E+03  0.12248529465E+03  0.47000000000E+01 0. -1.
         -5    1    1    2    0  502  0.29344298775E+01 -0.49671656942E+01  0.95227251158E+03  0.95230158559E+03  0.47000000000E+01 0.  1.
<mgrwt>
<rscale>  2 0.74413449E+01</rscale>
<asrwt>0</asrwt>
<pdfrwt beam="1">  1       21 0.16532494E+00 0.74413449E+01</pdfrwt>
<pdfrwt beam="2">  1       21 0.19641234E-04 0.74413449E+01</pdfrwt>
<totfact> 0.16773695E+08</totfact>
</mgrwt>
</event>
<event>
 4    1  0.3906087E+006  0.9606053E+01  0.7546771E-02  0.2098126E+00
         21   -1    0    0  503  502  0.00000000000E+00  0.00000000000E+00  0.51315139006E+00  0.51315139006E+00  0.00000000000E+00 0.  1.
         21   -1    0    0  501  503 -0.00000000000E+00 -0.00000000000E+00 -0.17991881455E+03  0.17991881455E+03  0.00000000000E+00 0. -1.
          5    1    1    2  501    0 -0.59633050784E+01 -0.58843225834E+01 -0.91788178331E+02  0.92289468202E+02  0.47000000000E+01 0. -1.
         -5    1    1    2    0  502  0.59633050784E+01  0.58843225834E+01 -0.87617484833E+02  0.88142497742E+02  0.47000000000E+01 0.  1.
<mgrwt>
<rscale>  2 0.96060533E+01</rscale>
<asrwt>0</asrwt>
<pdfrwt beam="1">  1       21 0.78946329E-04 0.96060533E+01</pdfrwt>
<pdfrwt beam="2">  1       21 0.27679831E-01 0.96060533E+01</pdfrwt>
<totfact> 0.94804946E+08</totfact>
</mgrwt>
</event>
<event>
 4    1  0.3906087E+006  0.1044951E+02  0.7546771E-02  0.2050273E+00
         21   -1    0    0  503  502  0.00000000000E+00  0.00000000000E+00  0.15278096033E+01  0.15278096033E+01  0.00000000000E+00 0. -1.
         21   -1    0    0  501  503 -0.00000000000E+00 -0.00000000000E+00 -0.16566648690E+03  0.16566648690E+03  0.00000000000E+00 0.  1.
          5    1    1    2  501    0  0.10628362760E+01  0.92721393366E+01 -0.14510583008E+03  0.14548159373E+03  0.47000000000E+01 0.  1.
         -5    1    1    2    0  502 -0.10628362760E+01 -0.92721393366E+01 -0.19032847208E+02  0.21712702772E+02  0.47000000000E+01 0. -1.
<mgrwt>
<rscale>  2 0.10449507E+02</rscale>
<asrwt>0</asrwt>
<pdfrwt beam="1">  1       21 0.23504757E-03 0.10449507E+02</pdfrwt>
<pdfrwt beam="2">  1       21 0.25487159E-01 0.10449507E+02</pdfrwt>
<totfact> 0.25096399E+08</totfact>
</mgrwt>
</event>
<event>
 4    1  0.3906087E+006  0.5732427E+01  0.7546771E-02  0.2451606E+00
         21   -1    0    0  503  502  0.00000000000E+00  0.00000000000E+00  0.81489029478E+02  0.81489029478E+02  0.00000000000E+00 0.  1.
         21   -1    0    0  501  503 -0.00000000000E+00 -0.00000000000E+00 -0.51077548732E+00  0.51077548732E+00  0.00000000000E+00 0.  1.
          5    1    1    2  501    0  0.61679340129E+00  0.32233967899E+01  0.21677913041E+02  0.22423038037E+02  0.47000000000E+01 0.  1.
         -5    1    1    2    0  502 -0.61679340129E+00 -0.32233967899E+01  0.59300340949E+02  0.59576766928E+02  0.47000000000E+01 0.  1.
<mgrwt>
<rscale>  2 0.57324271E+01</rscale>
<asrwt>0</asrwt>
<pdfrwt beam="1">  1       21 0.12536763E-01 0.57324271E+01</pdfrwt>
<pdfrwt beam="2">  1       21 0.78580909E-04 0.57324271E+01</pdfrwt>
<totfact> 0.24237313E+09</totfact>
</mgrwt>
</event>
<event>
 4    1  0.3906087E+006  0.5643623E+01  0.7546771E-02  0.2464251E+00
         21   -1    0    0  501  502  0.00000000000E+00  0.00000000000E+00  0.83082554052E-01  0.83082554052E-01  0.00000000000E+00 0.  1.
         21   -1    0    0  502  503 -0.00000000000E+00 -0.00000000000E+00 -0.59720618625E+03  0.59720618625E+03  0.00000000000E+00 0.  1.
          5    1    1    2  501    0  0.19891510174E+01 -0.24090991363E+01 -0.11985358957E+03  0.11998638845E+03  0.47000000000E+01 0.  1.
         -5    1    1    2    0  503 -0.19891510174E+01  0.24090991363E+01 -0.47726951413E+03  0.47730288036E+03  0.47000000000E+01 0.  1.
<mgrwt>
<rscale>  2 0.56436230E+01</rscale>
<asrwt>0</asrwt>
<pdfrwt beam="1">  1       21 0.12781627E-04 0.56436230E+01</pdfrwt>
<pdfrwt beam="2">  1       21 0.91880066E-01 0.56436230E+01</pdfrwt>
<totfact> 0.86769975E+08</totfact>
</mgrwt>
</event>
<event>
 4    1  0.3906087E+006  0.9668953E+01  0.7546771E-02  0.2094332E+00
         21   -1    0    0  501  502  0.00000000000E+00  0.00000000000E+00  0.52918692908E+02  0.52918692908E+02  0.00000000000E+00 0.  1.
         21   -1    0    0  502  503 -0.00000000000E+00 -0.00000000000E+00 -0.52101870638E+01  0.52101870638E+01  0.00000000000E+00 0. -1.
          5    1    1    2  501    0  0.11661746022E+01  0.83689117702E+01  0.47482846618E+02  0.48457294295E+02  0.47000000000E+01 0.  1.
         -5    1    1    2    0  503 -0.11661746022E+01 -0.83689117702E+01  0.22565922622E+00  0.96715856770E+01  0.47000000000E+01 0. -1.
<mgrwt>
<rscale>  2 0.96689528E+01</rscale>
<asrwt>0</asrwt>
<pdfrwt beam="1">  1       21 0.81413370E-02 0.96689528E+01</pdfrwt>
<pdfrwt beam="2">  1       21 0.80156728E-03 0.96689528E+01</pdfrwt>
<totfact> 0.27174522E+08</totfact>
</mgrwt>
</event>
<event>
 4    1  0.3906087E+006  0.5037235E+01  0.7546771E-02  0.2560590E+00
         21   -1    0    0  501  502  0.00000000000E+00  0.00000000000E+00  0.42200160860E+03  0.42200160860E+03  0.00000000000E+00 0. -1.
         21   -1    0    0  502  503 -0.00000000000E+00 -0.00000000000E+00 -0.63177218874E-01  0.63177218874E-01  0.00000000000E+00 0. -1.
          5    1    1    2  501    0 -0.12135444244E+01  0.13457527204E+01  0.25733802921E+03  0.25738732490E+03  0.47000000000E+01 0. -1.
         -5    1    1    2    0  503  0.12135444244E+01 -0.13457527204E+01  0.16460040217E+03  0.16467746092E+03  0.47000000000E+01 0. -1.
<mgrwt>
<rscale>  2 0.50372354E+01</rscale>
<asrwt>0</asrwt>
<pdfrwt beam="1">  1       21 0.64921067E-01 0.50372354E+01</pdfrwt>
<pdfrwt beam="2">  1       21 0.97199101E-05 0.50372354E+01</pdfrwt>
<totfact> 0.22213381E+09</totfact>
</mgrwt>
</event>
<event>
 4    1  0.3906087E+006  0.6881404E+01  0.7546771E-02  0.2313119E+00
         21   -1    0    0  503  502  0.00000000000E+00  0.00000000000E+00  0.58236683378E+01  0.58236683378E+01  0.00000000000E+00 0. -1.
         21   -1    0    0  501  503 -0.00000000000E+00 -0.00000000000E+00 -0.92945417597E+01  0.92945417597E+01  0.00000000000E+00 0. -1.
          5    1    1    2  501    0  0.11295377181E+01 -0.48977406212E+01 -0.44096757168E+01  0.81730629862E+01  0.47000000000E+01 0. -1.
         -5    1    1    2    0  502 -0.11295377181E+01  0.48977406212E+01  0.93880229498E+00  0.69451471113E+01  0.47000000000E+01 0. -1.
<mgrwt>
<rscale>  2 0.68814038E+01</rscale>
<asrwt>0</asrwt>
<pdfrwt beam="1">  1       21 0.89594897E-03 0.68814038E+01</pdfrwt>
<pdfrwt beam="2">  1       21 0.14299295E-02 0.68814038E+01</pdfrwt>
<totfact> 0.24887990E+09</totfact>
</mgrwt>
</event>
<event>
 4    1  0.3906087E+006  0.1108790E+02  0.7546771E-02  0.2017894E+00
         21   -1    0    0  503  502  0.00000000000E+00  0.00000000000E+00  0.18779637820E+03  0.18779637820E+03  0.00000000000E+00 0.  1.
         21   -1    0    0  501  503 -0.00000000000E+00 -0.00000000000E+00 -0.82370827243E+00  0.82370827243E+00  0.00000000000E+00 0. -1.
          5    1    1    2  501    0 -0.52393665459E+01  0.85674098971E+01  0.50760996717E+02  0.51957870067E+02  0.47000000000E+01 0. -1.
         -5    1    1    2    0  502  0.52393665459E+01 -0.85674098971E+01  0.13621167321E+03  0.13666221640E+03  0.47000000000E+01 0.  1.
<mgrwt>
<rscale>  2 0.11087898E+02</rscale>
<asrwt>0</asrwt>
<pdfrwt beam="1">  1       21 0.28891716E-01 0.11087898E+02</pdfrwt>
<pdfrwt beam="2">  1       21 0.12672450E-03 0.11087898E+02</pdfrwt>
<totfact> 0.49290798E+08</totfact>
</mgrwt>
</event>
<event>
 4    1  0.3906087E+006  0.4880417E+01  0.7546771E-02  0.2588815E+00
         21   -1    0    0  503  502  0.00000000000E+00  0.00000000000E+00  0.13927212846E+01  0.13927212846E+01  0.00000000000E+00 0. -1.
         21   -1    0    0  501  503 -0.00000000000E+00 -0.00000000000E+00 -0.17103927170E+02  0.17103927170E+02  0.00000000000E+00 0. -1.
          5    1    1    2  501    0 -0.61321159708E+00  0.11629455238E+01 -0.79509641978E+01  0.93293248646E+01  0.47000000000E+01 0. -1.
         -5    1    1    2    0  502  0.61321159708E+00 -0.11629455238E+01 -0.77602416872E+01  0.91673235896E+01  0.47000000000E+01 0. -1.
<mgrwt>
<rscale>  2 0.48804171E+01</rscale>
<asrwt>0</asrwt>
<pdfrwt beam="1">  1       21 0.21426482E-03 0.48804171E+01</pdfrwt>
<pdfrwt beam="2">  1       21 0.26313734E-02 0.48804171E+01</pdfrwt>
<totfact> 0.54555807E+09</totfact>
</mgrwt>
</event>
<event>
 4    1  0.3906087E+006  0.4934313E+01  0.7546771E-02  0.2578940E+00
         21   -1    0    0  501  502  0.00000000000E+00  0.00000000000E+00  0.48738494429E+03  0.48738494429E+03  0.00000000000E+00 0. -1.
         21   -1    0    0  502  503 -0.00000000000E+00 -0.00000000000E+00 -0.10799112364E+00  0.10799112364E+00  0.00000000000E+00 0. -1.
          5    1    1    2  501    0  0.10312953210E+01  0.10926472953E+01  0.42232527865E+03  0.42235410313E+03  0.47000000000E+01 0. -1.
         -5    1    1    2    0  503 -0.10312953210E+01 -0.10926472953E+01  0.64951674520E+02  0.65138832282E+02  0.47000000000E+01 0. -1.
<mgrwt>
<rscale>  2 0.49343133E+01</rscale>
<asrwt>0</asrwt>
<pdfrwt beam="1">  1       21 0.74980538E-01 0.49343133E+01</pdfrwt>
<pdfrwt beam="2">  1       21 0.16614409E-04 0.49343133E+01</pdfrwt>
<totfact> 0.82004288E+08</totfact>
</mgrwt>
</event>
<event>
 4    1  0.3906087E+006  0.5798893E+01  0.7546771E-02  0.2442357E+00
         21   -1    0    0  503  502  0.00000000000E+00  0.00000000000E+00  0.13731296841E+01  0.13731296841E+01  0.00000000000E+00 0.  1.
         21   -1    0    0  501  503 -0.00000000000E+00 -0.00000000000E+00 -0.32994290562E+02  0.32994290562E+02  0.00000000000E+00 0. -1.
          5    1    1    2  501    0  0.90802119437E+00 -0.32730193610E+01 -0.24534893339E+02  0.25210873634E+02  0.47000000000E+01 0. -1.
         -5    1    1    2    0  502 -0.90802119437E+00  0.32730193610E+01 -0.70862675388E+01  0.91565466121E+01  0.47000000000E+01 0.  1.
<mgrwt>
<rscale>  2 0.57988928E+01</rscale>
<asrwt>0</asrwt>
<pdfrwt beam="1">  1       21 0.21125072E-03 0.57988928E+01</pdfrwt>
<pdfrwt beam="2">  1       21 0.50760447E-02 0.57988928E+01</pdfrwt>
<totfact> 0.25371617E+09</totfact>
</mgrwt>
</event>
<event>
 4    1  0.3906087E+006  0.5801351E+01  0.7546771E-02  0.2442018E+00
         21   -1    0    0  501  502  0.00000000000E+00  0.00000000000E+00  0.36517498232E+00  0.36517498232E+00  0.00000000000E+00 0. -1.
         21   -1    0    0  502  503 -0.00000000000E+00 -0.00000000000E+00 -0.14171537922E+03  0.14171537922E+03  0.00000000000E+00 0. -1.
          5    1    1    2  501    0  0.27374488502E+00  0.33897987035E+01 -0.28667507374E+02  0.29248617926E+02  0.47000000000E+01 0. -1.
         -5    1    1    2    0  503 -0.27374488502E+00 -0.33897987035E+01 -0.11268269686E+03  0.11283193628E+03  0.47000000000E+01 0. -1.
<mgrwt>
<rscale>  2 0.58013508E+01</rscale>
<asrwt>0</asrwt>
<pdfrwt beam="1">  1       21 0.56180801E-04 0.58013508E+01</pdfrwt>
<pdfrwt beam="2">  1       21 0.21802353E-01 0.58013508E+01</pdfrwt>
<totfact> 0.15939209E+09</totfact>
</mgrwt>
</event>
<event>
 4    1  0.3906087E+006  0.6933884E+01  0.7546771E-02  0.2307711E+00
         21   -1    0    0  503  502  0.00000000000E+00  0.00000000000E+00  0.16251725830E+03  0.16251725830E+03  0.00000000000E+00 0. -1.
         21   -1    0    0  501  503 -0.00000000000E+00 -0.00000000000E+00 -0.29595876808E+00  0.29595876808E+00  0.00000000000E+00 0. -1.
          5    1    1    2  501    0 -0.50959928777E+01  0.14000943691E+00  0.79464752488E+02  0.79766695017E+02  0.47000000000E+01 0. -1.
         -5    1    1    2    0  502  0.50959928777E+01 -0.14000943691E+00  0.82756547048E+02  0.83046522055E+02  0.47000000000E+01 0. -1.
<mgrwt>
<rscale>  2 0.69338839E+01</rscale>
<asrwt>0</asrwt>
<pdfrwt beam="1">  1       21 0.25002584E-01 0.69338839E+01</pdfrwt>
<pdfrwt beam="2">  1       21 0.45532248E-04 0.69338839E+01</pdfrwt>
<totfact> 0.19335439E+09</totfact>
</mgrwt>
</event>
<event>
 4    1  0.3906087E+006  0.6911704E+01  0.7546771E-02  0.2309988E+00
         21   -1    0    0  503  502  0.00000000000E+00  0.00000000000E+00  0.17012328503E+00  0.17012328503E+00  0.00000000000E+00 0. -1.
         21   -1    0    0  501  503 -0.00000000000E+00 -0.00000000000E+00 -0.28274494294E+03  0.28274494294E+03  0.00000000000E+00 0. -1.
          5    1    1    2  501    0 -0.13277843731E+01  0.48906692755E+01 -0.12957357117E+03  0.12975778205E+03  0.47000000000E+01 0. -1.
         -5    1    1    2    0  502  0.13277843731E+01 -0.48906692755E+01 -0.15300124849E+03  0.15315728418E+03  0.47000000000E+01 0. -1.
<mgrwt>
<rscale>  2 0.69117044E+01</rscale>
<asrwt>0</asrwt>
<pdfrwt beam="1">  1       21 0.26172855E-04 0.69117044E+01</pdfrwt>
<pdfrwt beam="2">  1       21 0.43499152E-01 0.69117044E+01</pdfrwt>
<totfact> 0.15642799E+09</totfact>
</mgrwt>
</event>
<event>
 4    1  0.3906087E+006  0.5381474E+01  0.7546771E-02  0.2503626E+00
         21   -1    0    0  501  502  0.00000000000E+00  0.00000000000E+00  0.21858472256E+00  0.21858472256E+00  0.00000000000E+00 0.  1.
         21   -1    0    0  502  503 -0.00000000000E+00 -0.00000000000E+00 -0.13361384441E+03  0.13361384441E+03  0.00000000000E+00 0. -1.
          5    1    1    2  501    0 -0.12544410843E+01 -0.23014437406E+01 -0.60560291134E+02  0.60798923740E+02  0.47000000000E+01 0. -1.
         -5    1    1    2    0  503  0.12544410843E+01  0.23014437406E+01 -0.72834968555E+02  0.73033505394E+02  0.47000000000E+01 0.  1.
<mgrwt>
<rscale>  2 0.53814743E+01</rscale>
<asrwt>0</asrwt>
<pdfrwt beam="1">  1       21 0.33628458E-04 0.53814743E+01</pdfrwt>
<pdfrwt beam="2">  1       21 0.20555952E-01 0.53814743E+01</pdfrwt>
<totfact> 0.32558561E+09</totfact>
</mgrwt>
</event>
<event>
 4    1  0.3906087E+006  0.9399329E+01  0.7546771E-02  0.2110876E+00
         21   -1    0    0  503  502  0.00000000000E+00  0.00000000000E+00  0.14780714009E+03  0.14780714009E+03  0.00000000000E+00 0. -1.
         21   -1    0    0  501  503 -0.00000000000E+00 -0.00000000000E+00 -0.10514994888E+01  0.10514994888E+01  0.00000000000E+00 0. -1.
          5    1    1    2  501    0  0.78994359301E+01  0.19637452863E+01  0.24483138432E+02  0.26225397062E+02  0.47000000000E+01 0. -1.
         -5    1    1    2    0  502 -0.78994359301E+01 -0.19637452863E+01  0.12227250216E+03  0.12263324251E+03  0.47000000000E+01 0. -1.
<mgrwt>
<rscale>  2 0.93993289E+01</rscale>
<asrwt>0</asrwt>
<pdfrwt beam="1">  1       21 0.22739544E-01 0.93993289E+01</pdfrwt>
<pdfrwt beam="2">  1       21 0.16176927E-03 0.93993289E+01</pdfrwt>
<totfact> 0.48693744E+08</totfact>
</mgrwt>
</event>
<event>
 4    1  0.3906087E+006  0.5007049E+01  0.7546771E-02  0.2565905E+00
         21   -1    0    0  503  502  0.00000000000E+00  0.00000000000E+00  0.18184743579E+02  0.18184743579E+02  0.00000000000E+00 0. -1.
         21   -1    0    0  501  503 -0.00000000000E+00 -0.00000000000E+00 -0.49202145039E+01  0.49202145039E+01  0.00000000000E+00 0. -1.
          5    1    1    2  501    0 -0.17005184860E+01  0.29795823345E+00 -0.31689581890E+01  0.59256086804E+01  0.47000000000E+01 0. -1.
         -5    1    1    2    0  502  0.17005184860E+01 -0.29795823345E+00  0.16433487264E+02  0.17179349402E+02  0.47000000000E+01 0. -1.
<mgrwt>
<rscale>  2 0.50070493E+01</rscale>
<asrwt>0</asrwt>
<pdfrwt beam="1">  1       21 0.27976528E-02 0.50070493E+01</pdfrwt>
<pdfrwt beam="2">  1       21 0.75695609E-03 0.50070493E+01</pdfrwt>
<totfact> 0.91500351E+08</totfact>
</mgrwt>
</event>
<event>
 4    1  0.3906087E+006  0.7668456E+01  0.7546771E-02  0.2238452E+00
         21   -1    0    0  501  502  0.00000000000E+00  0.00000000000E+00  0.69960761705E+01  0.69960761705E+01  0.00000000000E+00 0. -1.
         21   -1    0    0  502  503 -0.00000000000E+00 -0.00000000000E+00 -0.34431928773E+02  0.34431928773E+02  0.00000000000E+00 0.  1.
          5    1    1    2  501    0  0.59274507721E+01  0.12571980840E+01  0.42911315977E+01  0.87874359210E+01  0.47000000000E+01 0. -1.
         -5    1    1    2    0  503 -0.59274507721E+01 -0.12571980840E+01 -0.31726984200E+02  0.32640569022E+02  0.47000000000E+01 0.  1.
<mgrwt>
<rscale>  2 0.76684561E+01</rscale>
<asrwt>0</asrwt>
<pdfrwt beam="1">  1       21 0.10763194E-02 0.76684561E+01</pdfrwt>
<pdfrwt beam="2">  1       21 0.52972197E-02 0.76684561E+01</pdfrwt>
<totfact> 0.30187872E+08</totfact>
</mgrwt>
</event>
<event>
 4    1  0.3906087E+006  0.1209670E+02  0.7546771E-02  0.1972222E+00
         21   -1    0    0  503  502  0.00000000000E+00  0.00000000000E+00  0.14084845306E+03  0.14084845306E+03  0.00000000000E+00 0. -1.
         21   -1    0    0  501  503 -0.00000000000E+00 -0.00000000000E+00 -0.13775690982E+01  0.13775690982E+01  0.00000000000E+00 0.  1.
          5    1    1    2  501    0  0.59588586589E+01 -0.94197802428E+01  0.34476650868E+02  0.36537237326E+02  0.47000000000E+01 0.  1.
         -5    1    1    2    0  502 -0.59588586589E+01  0.94197802428E+01  0.10499423309E+03  0.10568878483E+03  0.47000000000E+01 0. -1.
<mgrwt>
<rscale>  2 0.12096704E+02</rscale>
<asrwt>0</asrwt>
<pdfrwt beam="1">  1       21 0.21668981E-01 0.12096704E+02</pdfrwt>
<pdfrwt beam="2">  1       21 0.21193382E-03 0.12096704E+02</pdfrwt>
<totfact> 0.41011213E+08</totfact>
</mgrwt>
</event>
<event>
 4    1  0.3906087E+006  0.1962881E+02  0.7546771E-02  0.1752812E+00
         21   -1    0    0  503  502  0.00000000000E+00  0.00000000000E+00  0.72483924279E+00  0.72483924279E+00  0.00000000000E+00 0. -1.
         21   -1    0    0  501  503 -0.00000000000E+00 -0.00000000000E+00 -0.11053671433E+04  0.11053671433E+04  0.00000000000E+00 0.  1.
          5    1    1    2  501    0 -0.70199279930E+01 -0.17717810064E+02 -0.95078942689E+03  0.95099202125E+03  0.47000000000E+01 0.  1.
         -5    1    1    2    0  502  0.70199279930E+01  0.17717810064E+02 -0.15385287717E+03  0.15509996130E+03  0.47000000000E+01 0. -1.
<mgrwt>
<rscale>  2 0.19628810E+02</rscale>
<asrwt>0</asrwt>
<pdfrwt beam="1">  1       21 0.11151408E-03 0.19628810E+02</pdfrwt>
<pdfrwt beam="2">  1       21 0.17005595E+00 0.19628810E+02</pdfrwt>
<totfact> 0.19467366E+07</totfact>
</mgrwt>
</event>
<event>
 4    1  0.3906087E+006  0.5209887E+01  0.7546771E-02  0.2531215E+00
         21   -1    0    0  501  502  0.00000000000E+00  0.00000000000E+00  0.80802916857E+03  0.80802916857E+03  0.00000000000E+00 0.  1.
         21   -1    0    0  502  503 -0.00000000000E+00 -0.00000000000E+00 -0.46764738122E-01  0.46764738122E-01  0.00000000000E+00 0.  1.
          5    1    1    2  501    0 -0.95632553322E+00 -0.20342973959E+01  0.61843275183E+03  0.61845469636E+03  0.47000000000E+01 0.  1.
         -5    1    1    2    0  503  0.95632553322E+00  0.20342973959E+01  0.18954965201E+03  0.18962123695E+03  0.47000000000E+01 0.  1.
<mgrwt>
<rscale>  2 0.52098872E+01</rscale>
<asrwt>0</asrwt>
<pdfrwt beam="1">  1       21 0.12430100E+00 0.52098872E+01</pdfrwt>
<pdfrwt beam="2">  1       21 0.71952222E-05 0.52098872E+01</pdfrwt>
<totfact> 0.95140509E+08</totfact>
</mgrwt>
</event>
<event>
 4    1  0.3906087E+006  0.8557850E+01  0.7546771E-02  0.2167737E+00
         21   -1    0    0  501  502  0.00000000000E+00  0.00000000000E+00  0.28078025271E+00  0.28078025271E+00  0.00000000000E+00 0.  1.
         21   -1    0    0  502  503 -0.00000000000E+00 -0.00000000000E+00 -0.26419575678E+03  0.26419575678E+03  0.00000000000E+00 0. -1.
          5    1    1    2  501    0 -0.69908955056E+01  0.15080394804E+01 -0.14687619115E+03  0.14712529466E+03  0.47000000000E+01 0.  1.
         -5    1    1    2    0  503  0.69908955056E+01 -0.15080394804E+01 -0.11703878538E+03  0.11735124237E+03  0.47000000000E+01 0.  1.
<mgrwt>
<rscale>  2 0.85578504E+01</rscale>
<asrwt>0</asrwt>
<pdfrwt beam="1">  1       21 0.43196829E-04 0.85578504E+01</pdfrwt>
<pdfrwt beam="2">  1       21 0.40645626E-01 0.85578504E+01</pdfrwt>
<totfact> 0.10288404E+09</totfact>
</mgrwt>
</event>
<event>
 4    1  0.3906087E+006  0.7335243E+01  0.7546771E-02  0.2268467E+00
         21   -1    0    0  501  502  0.00000000000E+00  0.00000000000E+00  0.14127246978E+01  0.14127246978E+01  0.00000000000E+00 0. -1.
         21   -1    0    0  502  503 -0.00000000000E+00 -0.00000000000E+00 -0.29748847901E+03  0.29748847901E+03  0.00000000000E+00 0.  1.
          5    1    1    2  501    0 -0.18612201134E+01  0.53152275042E+01 -0.84816535733E+01  0.11213573519E+02  0.47000000000E+01 0. -1.
         -5    1    1    2    0  503  0.18612201134E+01 -0.53152275042E+01 -0.28759410074E+03  0.28768763019E+03  0.47000000000E+01 0.  1.
<mgrwt>
<rscale>  2 0.73352426E+01</rscale>
<asrwt>0</asrwt>
<pdfrwt beam="1">  1       21 0.21734232E-03 0.73352426E+01</pdfrwt>
<pdfrwt beam="2">  1       21 0.45767447E-01 0.73352426E+01</pdfrwt>
<totfact> 0.84039426E+07</totfact>
</mgrwt>
</event>
<event>
 4    1  0.3906087E+006  0.6058917E+01  0.7546771E-02  0.2407818E+00
         21   -1    0    0  503  502  0.00000000000E+00  0.00000000000E+00  0.20685419172E+02  0.20685419172E+02  0.00000000000E+00 0. -1.
         21   -1    0    0  501  503 -0.00000000000E+00 -0.00000000000E+00 -0.23705321225E+01  0.23705321225E+01  0.00000000000E+00 0.  1.
          5    1    1    2  501    0  0.12700685129E+01 -0.36065780264E+01  0.33779347510E+01  0.69369245542E+01  0.47000000000E+01 0.  1.
         -5    1    1    2    0  502 -0.12700685129E+01  0.36065780264E+01  0.14936952299E+02  0.16119026741E+02  0.47000000000E+01 0. -1.
<mgrwt>
<rscale>  2 0.60589173E+01</rscale>
<asrwt>0</asrwt>
<pdfrwt beam="1">  1       21 0.31823721E-02 0.60589173E+01</pdfrwt>
<pdfrwt beam="2">  1       21 0.36469726E-03 0.60589173E+01</pdfrwt>
<totfact> 0.24763311E+09</totfact>
</mgrwt>
</event>
<event>
 4    1  0.3906087E+006  0.9099189E+01  0.7546771E-02  0.2130197E+00
         21   -1    0    0  501  502  0.00000000000E+00  0.00000000000E+00  0.11322353713E+01  0.11322353713E+01  0.00000000000E+00 0. -1.
         21   -1    0    0  502  503 -0.00000000000E+00 -0.00000000000E+00 -0.22582349251E+03  0.22582349251E+03  0.00000000000E+00 0.  1.
          5    1    1    2  501    0  0.52474528126E+01 -0.57592944145E+01 -0.19032379375E+02  0.21095655900E+02  0.47000000000E+01 0. -1.
         -5    1    1    2    0  503 -0.52474528126E+01  0.57592944145E+01 -0.20565887776E+03  0.20586007198E+03  0.47000000000E+01 0.  1.
<mgrwt>
<rscale>  2 0.90991886E+01</rscale>
<asrwt>0</asrwt>
<pdfrwt beam="1">  1       21 0.17419006E-03 0.90991886E+01</pdfrwt>
<pdfrwt beam="2">  1       21 0.34742076E-01 0.90991886E+01</pdfrwt>
<totfact> 0.20813388E+08</totfact>
</mgrwt>
</event>
<event>
 4    1  0.3906087E+006  0.4986197E+01  0.7546771E-02  0.2569608E+00
         21   -1    0    0  501  502  0.00000000000E+00  0.00000000000E+00  0.33757007714E+01  0.33757007714E+01  0.00000000000E+00 0.  1.
         21   -1    0    0  502  503 -0.00000000000E+00 -0.00000000000E+00 -0.85742397391E+01  0.85742397391E+01  0.00000000000E+00 0.  1.
          5    1    1    2  501    0  0.29547510173E+00 -0.16385523990E+01 -0.35545172096E+00  0.49988504105E+01  0.47000000000E+01 0.  1.
         -5    1    1    2    0  503 -0.29547510173E+00  0.16385523990E+01 -0.48430872467E+01  0.69510901000E+01  0.47000000000E+01 0.  1.
<mgrwt>
<rscale>  2 0.49861969E+01</rscale>
<asrwt>0</asrwt>
<pdfrwt beam="1">  1       21 0.51933858E-03 0.49861969E+01</pdfrwt>
<pdfrwt beam="2">  1       21 0.13191138E-02 0.49861969E+01</pdfrwt>
<totfact> 0.44469515E+09</totfact>
</mgrwt>
</event>
<event>
 4    1  0.3906087E+006  0.5136780E+01  0.7546771E-02  0.2543447E+00
         21   -1    0    0  503  502  0.00000000000E+00  0.00000000000E+00  0.67203309165E-01  0.67203309165E-01  0.00000000000E+00 0.  1.
         21   -1    0    0  501  503 -0.00000000000E+00 -0.00000000000E+00 -0.79776480082E+03  0.79776480082E+03  0.00000000000E+00 0.  1.
          5    1    1    2  501    0  0.20724278676E+01 -0.39401745632E-01 -0.68312467938E+03  0.68314399221E+03  0.47000000000E+01 0.  1.
         -5    1    1    2    0  502 -0.20724278676E+01  0.39401745632E-01 -0.11457291812E+03  0.11468801191E+03  0.47000000000E+01 0.  1.
<mgrwt>
<rscale>  2 0.51367801E+01</rscale>
<asrwt>0</asrwt>
<pdfrwt beam="1">  1       21 0.10338557E-04 0.51367801E+01</pdfrwt>
<pdfrwt beam="2">  1       21 0.12273795E+00 0.51367801E+01</pdfrwt>
<totfact> 0.59687986E+08</totfact>
</mgrwt>
</event>
<event>
 4    1  0.3906087E+006  0.7382991E+01  0.7546771E-02  0.2264031E+00
         21   -1    0    0  501  502  0.00000000000E+00  0.00000000000E+00  0.63650025017E+00  0.63650025017E+00  0.00000000000E+00 0.  1.
         21   -1    0    0  502  503 -0.00000000000E+00 -0.00000000000E+00 -0.11163822688E+03  0.11163822688E+03  0.00000000000E+00 0. -1.
          5    1    1    2  501    0  0.32374220957E+00 -0.56845182576E+01 -0.28409254677E+02  0.29352926739E+02  0.47000000000E+01 0.  1.
         -5    1    1    2    0  503 -0.32374220957E+00  0.56845182576E+01 -0.82592471950E+02  0.82921800388E+02  0.47000000000E+01 0. -1.
<mgrwt>
<rscale>  2 0.73829910E+01</rscale>
<asrwt>0</asrwt>
<pdfrwt beam="1">  1       21 0.97923147E-04 0.73829910E+01</pdfrwt>
<pdfrwt beam="2">  1       21 0.17175106E-01 0.73829910E+01</pdfrwt>
<totfact> 0.13305687E+09</totfact>
</mgrwt>
</event>
<event>
 4    1  0.3906087E+006  0.5229295E+01  0.7546771E-02  0.2528017E+00
         21   -1    0    0  501  502  0.00000000000E+00  0.00000000000E+00  0.90882555936E+00  0.90882555936E+00  0.00000000000E+00 0.  1.
         21   -1    0    0  502  503 -0.00000000000E+00 -0.00000000000E+00 -0.13126482206E+03  0.13126482206E+03  0.00000000000E+00 0.  1.
          5    1    1    2  501    0 -0.21832228290E+01 -0.69932838530E+00 -0.71577769533E+01  0.88644962082E+01  0.47000000000E+01 0.  1.
         -5    1    1    2    0  503  0.21832228290E+01  0.69932838530E+00 -0.12319821955E+03  0.12330915141E+03  0.47000000000E+01 0.  1.
<mgrwt>
<rscale>  2 0.52292946E+01</rscale>
<asrwt>0</asrwt>
<pdfrwt beam="1">  1       21 0.13981930E-03 0.52292946E+01</pdfrwt>
<pdfrwt beam="2">  1       21 0.20194591E-01 0.52292946E+01</pdfrwt>
<totfact> 0.48999778E+08</totfact>
</mgrwt>
</event>
<event>
 4    1  0.3906087E+006  0.9021598E+01  0.7546771E-02  0.2135357E+00
         21   -1    0    0  501  502  0.00000000000E+00  0.00000000000E+00  0.48288313681E+03  0.48288313681E+03  0.00000000000E+00 0.  1.
         21   -1    0    0  502  503 -0.00000000000E+00 -0.00000000000E+00 -0.21402692762E+00  0.21402692762E+00  0.00000000000E+00 0. -1.
          5    1    1    2  501    0  0.49038647816E+01  0.59372840841E+01  0.35268013121E+03  0.35279549909E+03  0.47000000000E+01 0.  1.
         -5    1    1    2    0  503 -0.49038647816E+01 -0.59372840841E+01  0.12998897868E+03  0.13030166465E+03  0.47000000000E+01 0. -1.
<mgrwt>
<rscale>  2 0.90215981E+01</rscale>
<asrwt>0</asrwt>
<pdfrwt beam="1">  1       21 0.74288841E-01 0.90215981E+01</pdfrwt>
<pdfrwt beam="2">  1       21 0.32927606E-04 0.90215981E+01</pdfrwt>
<totfact> 0.49341637E+08</totfact>
</mgrwt>
</event>
<event>
 4    1  0.3906087E+006  0.6501125E+01  0.7546771E-02  0.2354433E+00
         21   -1    0    0  503  502  0.00000000000E+00  0.00000000000E+00  0.10303983223E+04  0.10303983223E+04  0.00000000000E+00 0. -1.
         21   -1    0    0  501  503 -0.00000000000E+00 -0.00000000000E+00 -0.41028430977E-01  0.41028430977E-01  0.00000000000E+00 0.  1.
          5    1    1    2  501    0 -0.41600845472E+01 -0.16936117551E+01  0.50686698825E+03  0.50690867856E+03  0.47000000000E+01 0.  1.
         -5    1    1    2    0  502  0.41600845472E+01  0.16936117551E+01  0.52349030558E+03  0.52353067213E+03  0.47000000000E+01 0.  1.
<mgrwt>
<rscale>  2 0.65011248E+01</rscale>
<asrwt>0</asrwt>
<pdfrwt beam="1">  1       21 0.15850210E+00 0.65011248E+01</pdfrwt>
<pdfrwt beam="2">  1       21 0.63128915E-05 0.65011248E+01</pdfrwt>
<totfact> 0.78238023E+08</totfact>
</mgrwt>
</event>
<event>
 4    1  0.3906087E+006  0.5044208E+01  0.7546771E-02  0.2559371E+00
         21   -1    0    0  501  502  0.00000000000E+00  0.00000000000E+00  0.51754957846E+02  0.51754957846E+02  0.00000000000E+00 0. -1.
         21   -1    0    0  502  503 -0.00000000000E+00 -0.00000000000E+00 -0.59560097434E+00  0.59560097434E+00  0.00000000000E+00 0. -1.
          5    1    1    2  501    0 -0.40635705785E+00 -0.17857512453E+01  0.14643136355E+02  0.15487591029E+02  0.47000000000E+01 0. -1.
         -5    1    1    2    0  503  0.40635705785E+00  0.17857512453E+01  0.36516220517E+02  0.36862967792E+02  0.47000000000E+01 0. -1.
<mgrwt>
<rscale>  2 0.50442079E+01</rscale>
<asrwt>0</asrwt>
<pdfrwt beam="1">  1       21 0.79622977E-02 0.50442079E+01</pdfrwt>
<pdfrwt beam="2">  1       21 0.91630960E-04 0.50442079E+01</pdfrwt>
<totfact> 0.34974692E+09</totfact>
</mgrwt>
</event>
<event>
 4    1  0.3906087E+006  0.5100029E+01  0.7546771E-02  0.2549709E+00
         21   -1    0    0  503  502  0.00000000000E+00  0.00000000000E+00  0.18040155480E+00  0.18040155480E+00  0.00000000000E+00 0. -1.
         21   -1    0    0  501  503 -0.00000000000E+00 -0.00000000000E+00 -0.27354173483E+03  0.27354173483E+03  0.00000000000E+00 0. -1.
          5    1    1    2  501    0  0.37621678149E+00  0.19439034494E+01 -0.23079830252E+03  0.23085464419E+03  0.47000000000E+01 0. -1.
         -5    1    1    2    0  502 -0.37621678149E+00 -0.19439034494E+01 -0.42563030759E+02  0.42867492195E+02  0.47000000000E+01 0. -1.
<mgrwt>
<rscale>  2 0.51000294E+01</rscale>
<asrwt>0</asrwt>
<pdfrwt beam="1">  1       21 0.27753987E-04 0.51000294E+01</pdfrwt>
<pdfrwt beam="2">  1       21 0.42083493E-01 0.51000294E+01</pdfrwt>
<totfact> 0.12158012E+09</totfact>
</mgrwt>
</event>
<event>
 4    1  0.3906087E+006  0.7163801E+01  0.7546771E-02  0.2284790E+00
         21   -1    0    0  503  502  0.00000000000E+00  0.00000000000E+00  0.53844532403E+00  0.53844532403E+00  0.00000000000E+00 0. -1.
         21   -1    0    0  501  503 -0.00000000000E+00 -0.00000000000E+00 -0.48310381556E+03  0.48310381556E+03  0.00000000000E+00 0. -1.
          5    1    1    2  501    0 -0.72844630453E+00  0.53571832448E+01 -0.45794012013E+03  0.45799615028E+03  0.47000000000E+01 0. -1.
         -5    1    1    2    0  502  0.72844630453E+00 -0.53571832448E+01 -0.24625250100E+02  0.25646110598E+02  0.47000000000E+01 0. -1.
<mgrwt>
<rscale>  2 0.71638011E+01</rscale>
<asrwt>0</asrwt>
<pdfrwt beam="1">  1       21 0.82837437E-04 0.71638011E+01</pdfrwt>
<pdfrwt beam="2">  1       21 0.74323938E-01 0.71638011E+01</pdfrwt>
<totfact> 0.12503827E+08</totfact>
</mgrwt>
</event>
<event>
 4    1  0.3906087E+006  0.8374460E+01  0.7546771E-02  0.2181327E+00
         21   -1    0    0  503  502  0.00000000000E+00  0.00000000000E+00  0.58209116586E+01  0.58209116586E+01  0.00000000000E+00 0. -1.
         21   -1    0    0  501  503 -0.00000000000E+00 -0.00000000000E+00 -0.12258032863E+02  0.12258032863E+02  0.00000000000E+00 0. -1.
          5    1    1    2  501    0 -0.69275946445E+01  0.22363915847E+00 -0.44012106401E+01  0.94605621995E+01  0.47000000000E+01 0. -1.
         -5    1    1    2    0  502  0.69275946445E+01 -0.22363915847E+00 -0.20359105648E+01  0.86183823227E+01  0.47000000000E+01 0. -1.
<mgrwt>
<rscale>  2 0.83744601E+01</rscale>
<asrwt>0</asrwt>
<pdfrwt beam="1">  1       21 0.89552487E-03 0.83744601E+01</pdfrwt>
<pdfrwt beam="2">  1       21 0.18858512E-02 0.83744601E+01</pdfrwt>
<totfact> 0.19293705E+09</totfact>
</mgrwt>
</event>
<event>
 4    1  0.3906087E+006  0.4853442E+01  0.7546771E-02  0.2593829E+00
         21   -1    0    0  501  502  0.00000000000E+00  0.00000000000E+00  0.29274332249E+00  0.29274332249E+00  0.00000000000E+00 0.  1.
         21   -1    0    0  502  503 -0.00000000000E+00 -0.00000000000E+00 -0.10162955703E+03  0.10162955703E+03  0.00000000000E+00 0.  1.
          5    1    1    2  501    0  0.97536471979E+00 -0.71732873820E+00 -0.27413045486E+02  0.27839377861E+02  0.47000000000E+01 0.  1.
         -5    1    1    2    0  503 -0.97536471979E+00  0.71732873820E+00 -0.73923768225E+02  0.74082922495E+02  0.47000000000E+01 0.  1.
<mgrwt>
<rscale>  2 0.48534418E+01</rscale>
<asrwt>0</asrwt>
<pdfrwt beam="1">  1       21 0.45037445E-04 0.48534418E+01</pdfrwt>
<pdfrwt beam="2">  1       21 0.15635313E-01 0.48534418E+01</pdfrwt>
<totfact> 0.30857106E+09</totfact>
</mgrwt>
</event>
<event>
 4    1  0.3906087E+006  0.8078226E+01  0.7546771E-02  0.2204316E+00
         21   -1    0    0  503  502  0.00000000000E+00  0.00000000000E+00  0.10454268088E+02  0.10454268088E+02  0.00000000000E+00 0.  1.
         21   -1    0    0  501  503 -0.00000000000E+00 -0.00000000000E+00 -0.65623185461E+01  0.65623185461E+01  0.00000000000E+00 0. -1.
          5    1    1    2  501    0  0.54596775883E+01  0.36550856703E+01  0.66818772130E-01  0.80785020501E+01  0.47000000000E+01 0. -1.
         -5    1    1    2    0  502 -0.54596775883E+01 -0.36550856703E+01  0.38251307697E+01  0.89380845840E+01  0.47000000000E+01 0.  1.
<mgrwt>
<rscale>  2 0.80782257E+01</rscale>
<asrwt>0</asrwt>
<pdfrwt beam="1">  1       21 0.16083489E-02 0.80782257E+01</pdfrwt>
<pdfrwt beam="2">  1       21 0.10095875E-02 0.80782257E+01</pdfrwt>
<totfact> 0.19984851E+09</totfact>
</mgrwt>
</event>
<event>
 4    1  0.3906087E+006  0.1056625E+02  0.7546771E-02  0.2044125E+00
         21   -1    0    0  503  502  0.00000000000E+00  0.00000000000E+00  0.41042570748E+02  0.41042570748E+02  0.00000000000E+00 0. -1.
         21   -1    0    0  501  503 -0.00000000000E+00 -0.00000000000E+00 -0.15756293652E+02  0.15756293652E+02  0.00000000000E+00 0.  1.
          5    1    1    2  501    0  0.39621166378E+01 -0.85940267846E+01 -0.13188721834E+02  0.16899350527E+02  0.47000000000E+01 0.  1.
         -5    1    1    2    0  502 -0.39621166378E+01  0.85940267846E+01  0.38474998929E+02  0.39899513872E+02  0.47000000000E+01 0. -1.
<mgrwt>
<rscale>  2 0.10566251E+02</rscale>
<asrwt>0</asrwt>
<pdfrwt beam="1">  1       21 0.63142416E-02 0.10566251E+02</pdfrwt>
<pdfrwt beam="2">  1       21 0.24240452E-02 0.10566251E+02</pdfrwt>
<totfact> 0.83222616E+07</totfact>
</mgrwt>
</event>
<event>
 4    1  0.3906087E+006  0.4871992E+01  0.7546771E-02  0.2590376E+00
         21   -1    0    0  503  502  0.00000000000E+00  0.00000000000E+00  0.29386204448E+01  0.29386204448E+01  0.00000000000E+00 0. -1.
         21   -1    0    0  501  503 -0.00000000000E+00 -0.00000000000E+00 -0.81150372160E+01  0.81150372160E+01  0.00000000000E+00 0.  1.
          5    1    1    2  501    0  0.10129777837E+01 -0.78751355864E+00 -0.29647887628E+01  0.57031810425E+01  0.47000000000E+01 0.  1.
         -5    1    1    2    0  502 -0.10129777837E+01  0.78751355864E+00 -0.22116280084E+01  0.53504766183E+01  0.47000000000E+01 0. -1.
<mgrwt>
<rscale>  2 0.48719915E+01</rscale>
<asrwt>0</asrwt>
<pdfrwt beam="1">  1       21 0.45209546E-03 0.48719915E+01</pdfrwt>
<pdfrwt beam="2">  1       21 0.12484672E-02 0.48719915E+01</pdfrwt>
<totfact> 0.56665391E+09</totfact>
</mgrwt>
</event>
<event>
 4    1  0.3906087E+006  0.5875685E+01  0.7546771E-02  0.2431890E+00
         21   -1    0    0  501  502  0.00000000000E+00  0.00000000000E+00  0.31812679484E+01  0.31812679484E+01  0.00000000000E+00 0. -1.
         21   -1    0    0  502  503 -0.00000000000E+00 -0.00000000000E+00 -0.24673740606E+02  0.24673740606E+02  0.00000000000E+00 0.  1.
          5    1    1    2  501    0  0.35040259329E+01 -0.39429881247E+00 -0.32223498948E+00  0.58845139714E+01  0.47000000000E+01 0. -1.
         -5    1    1    2    0  503 -0.35040259329E+01  0.39429881247E+00 -0.21170237668E+02  0.21970494583E+02  0.47000000000E+01 0.  1.
<mgrwt>
<rscale>  2 0.58756846E+01</rscale>
<asrwt>0</asrwt>
<pdfrwt beam="1">  1       21 0.48942585E-03 0.58756846E+01</pdfrwt>
<pdfrwt beam="2">  1       21 0.37959600E-02 0.58756846E+01</pdfrwt>
<totfact> 0.12412226E+09</totfact>
</mgrwt>
</event>
<event>
 4    1  0.3906087E+006  0.6898903E+01  0.7546771E-02  0.2311308E+00
         21   -1    0    0  501  502  0.00000000000E+00  0.00000000000E+00  0.19636127340E+01  0.19636127340E+01  0.00000000000E+00 0. -1.
         21   -1    0    0  502  503 -0.00000000000E+00 -0.00000000000E+00 -0.14255712793E+03  0.14255712793E+03  0.00000000000E+00 0.  1.
          5    1    1    2  501    0  0.50394500437E+01  0.32984953527E+00 -0.44654569748E+01  0.82179780635E+01  0.47000000000E+01 0. -1.
         -5    1    1    2    0  503 -0.50394500437E+01 -0.32984953527E+00 -0.13612805822E+03  0.13630276260E+03  0.47000000000E+01 0.  1.
<mgrwt>
<rscale>  2 0.68989026E+01</rscale>
<asrwt>0</asrwt>
<pdfrwt beam="1">  1       21 0.30209415E-03 0.68989026E+01</pdfrwt>
<pdfrwt beam="2">  1       21 0.21931875E-01 0.68989026E+01</pdfrwt>
<totfact> 0.18241933E+08</totfact>
</mgrwt>
</event>
<event>
 4    1  0.3906087E+006  0.5888659E+01  0.7546771E-02  0.2430144E+00
         21   -1    0    0  503  502  0.00000000000E+00  0.00000000000E+00  0.13756280457E+01  0.13756280457E+01  0.00000000000E+00 0.  1.
         21   -1    0    0  501  503 -0.00000000000E+00 -0.00000000000E+00 -0.25326864872E+02  0.25326864872E+02  0.00000000000E+00 0. -1.
          5    1    1    2  501    0  0.32434659226E+01  0.14374385209E+01 -0.12891758734E+02  0.14172993471E+02  0.47000000000E+01 0. -1.
         -5    1    1    2    0  502 -0.32434659226E+01 -0.14374385209E+01 -0.11059478093E+02  0.12529499447E+02  0.47000000000E+01 0.  1.
<mgrwt>
<rscale>  2 0.58886586E+01</rscale>
<asrwt>0</asrwt>
<pdfrwt beam="1">  1       21 0.21163510E-03 0.58886586E+01</pdfrwt>
<pdfrwt beam="2">  1       21 0.38964404E-02 0.58886586E+01</pdfrwt>
<totfact> 0.37873684E+09</totfact>
</mgrwt>
</event>
<event>
 4    1  0.3906087E+006  0.5114149E+01  0.7546771E-02  0.2547294E+00
         21   -1    0    0  501  502  0.00000000000E+00  0.00000000000E+00  0.68418447536E+01  0.68418447536E+01  0.00000000000E+00 0. -1.
         21   -1    0    0  502  503 -0.00000000000E+00 -0.00000000000E+00 -0.50657973284E+01  0.50657973284E+01  0.00000000000E+00 0. -1.
          5    1    1    2  501    0  0.33730026464E+00  0.19876478943E+01  0.38373270463E+01  0.63937152330E+01  0.47000000000E+01 0. -1.
         -5    1    1    2    0  503 -0.33730026464E+00 -0.19876478943E+01 -0.20612796210E+01  0.55139268490E+01  0.47000000000E+01 0. -1.
<mgrwt>
<rscale>  2 0.51141486E+01</rscale>
<asrwt>0</asrwt>
<pdfrwt beam="1">  1       21 0.10525915E-02 0.51141486E+01</pdfrwt>
<pdfrwt beam="2">  1       21 0.77935343E-03 0.51141486E+01</pdfrwt>
<totfact> 0.35752121E+09</totfact>
</mgrwt>
</event>
<event>
 4    1  0.3906087E+006  0.6511458E+01  0.7546771E-02  0.2353258E+00
         21   -1    0    0  503  502  0.00000000000E+00  0.00000000000E+00  0.20374240538E+02  0.20374240538E+02  0.00000000000E+00 0.  1.
         21   -1    0    0  501  503 -0.00000000000E+00 -0.00000000000E+00 -0.27896827253E+01  0.27896827253E+01  0.00000000000E+00 0.  1.
          5    1    1    2  501    0 -0.44461075134E+01 -0.73566986781E+00  0.29547867086E+01  0.71505137346E+01  0.47000000000E+01 0.  1.
         -5    1    1    2    0  502  0.44461075134E+01  0.73566986781E+00  0.14629771104E+02  0.16013409528E+02  0.47000000000E+01 0.  1.
<mgrwt>
<rscale>  2 0.65114578E+01</rscale>
<asrwt>0</asrwt>
<pdfrwt beam="1">  1       21 0.31344984E-02 0.65114578E+01</pdfrwt>
<pdfrwt beam="2">  1       21 0.42918197E-03 0.65114578E+01</pdfrwt>
<totfact> 0.21474371E+09</totfact>
</mgrwt>
</event>
<event>
 4    1  0.3906087E+006  0.5253256E+01  0.7546771E-02  0.2524097E+00
         21   -1    0    0  503  502  0.00000000000E+00  0.00000000000E+00  0.26633020265E+01  0.26633020265E+01  0.00000000000E+00 0.  1.
         21   -1    0    0  501  503 -0.00000000000E+00 -0.00000000000E+00 -0.10920356051E+02  0.10920356051E+02  0.00000000000E+00 0.  1.
          5    1    1    2  501    0 -0.21993951607E+01 -0.81814264967E+00 -0.56645159001E+01  0.77255056048E+01  0.47000000000E+01 0.  1.
         -5    1    1    2    0  502  0.21993951607E+01  0.81814264967E+00 -0.25925381245E+01  0.58581524728E+01  0.47000000000E+01 0.  1.
<mgrwt>
<rscale>  2 0.52532558E+01</rscale>
<asrwt>0</asrwt>
<pdfrwt beam="1">  1       21 0.40973878E-03 0.52532558E+01</pdfrwt>
<pdfrwt beam="2">  1       21 0.16800548E-02 0.52532558E+01</pdfrwt>
<totfact> 0.46232058E+09</totfact>
</mgrwt>
</event>
<event>
 4    1  0.3906087E+006  0.6193035E+01  0.7546771E-02  0.2390957E+00
         21   -1    0    0  501  502  0.00000000000E+00  0.00000000000E+00  0.40037118102E+01  0.40037118102E+01  0.00000000000E+00 0.  1.
         21   -1    0    0  502  503 -0.00000000000E+00 -0.00000000000E+00 -0.98412581167E+01  0.98412581167E+01  0.00000000000E+00 0. -1.
          5    1    1    2  501    0 -0.28609435278E+01 -0.28423023290E+01 -0.17898580641E+01  0.64464930224E+01  0.47000000000E+01 0. -1.
         -5    1    1    2    0  503  0.28609435278E+01  0.28423023290E+01 -0.40476882424E+01  0.73984769045E+01  0.47000000000E+01 0. -1.
<mgrwt>
<rscale>  2 0.61930348E+01</rscale>
<asrwt>0</asrwt>
<pdfrwt beam="1">  1       21 0.61595567E-03 0.61930348E+01</pdfrwt>
<pdfrwt beam="2">  1       21 0.15140397E-02 0.61930348E+01</pdfrwt>
<totfact> 0.35585830E+09</totfact>
</mgrwt>
</event>
<event>
 4    1  0.3906087E+006  0.7397936E+01  0.7546771E-02  0.2262652E+00
         21   -1    0    0  503  502  0.00000000000E+00  0.00000000000E+00  0.40631323858E+00  0.40631323858E+00  0.00000000000E+00 0. -1.
         21   -1    0    0  501  503 -0.00000000000E+00 -0.00000000000E+00 -0.13755846931E+04  0.13755846931E+04  0.00000000000E+00 0. -1.
          5    1    1    2  501    0 -0.23504159873E+01  0.52072060247E+01 -0.13410327050E+04  0.13410531106E+04  0.47000000000E+01 0. -1.
         -5    1    1    2    0  502  0.23504159873E+01 -0.52072060247E+01 -0.34145674774E+02  0.34937895696E+02  0.47000000000E+01 0. -1.
<mgrwt>
<rscale>  2 0.73979355E+01</rscale>
<asrwt>0</asrwt>
<pdfrwt beam="1">  1       21 0.62509553E-04 0.73979355E+01</pdfrwt>
<pdfrwt beam="2">  1       21 0.21162901E+00 0.73979355E+01</pdfrwt>
<totfact> 0.20059736E+07</totfact>
</mgrwt>
</event>
<event>
 4    1  0.3906087E+006  0.6091253E+01  0.7546771E-02  0.2403696E+00
         21   -1    0    0  501  502  0.00000000000E+00  0.00000000000E+00  0.98503844187E+02  0.98503844187E+02  0.00000000000E+00 0.  1.
         21   -1    0    0  502  503 -0.00000000000E+00 -0.00000000000E+00 -0.41736170993E+00  0.41736170993E+00  0.00000000000E+00 0. -1.
          5    1    1    2  501    0 -0.82441107658E+00  0.37859886925E+01  0.64487261184E+02  0.64774302150E+02  0.47000000000E+01 0.  1.
         -5    1    1    2    0  503  0.82441107658E+00 -0.37859886925E+01  0.33599221293E+02  0.34146903747E+02  0.47000000000E+01 0. -1.
<mgrwt>
<rscale>  2 0.60912531E+01</rscale>
<asrwt>0</asrwt>
<pdfrwt beam="1">  1       21 0.15154419E-01 0.60912531E+01</pdfrwt>
<pdfrwt beam="2">  1       21 0.64209572E-04 0.60912531E+01</pdfrwt>
<totfact> 0.24840841E+09</totfact>
</mgrwt>
</event>
<event>
 4    1  0.3906087E+006  0.5578036E+01  0.7546771E-02  0.2473807E+00
         21   -1    0    0  501  502  0.00000000000E+00  0.00000000000E+00  0.31403154717E+01  0.31403154717E+01  0.00000000000E+00 0.  1.
         21   -1    0    0  502  503 -0.00000000000E+00 -0.00000000000E+00 -0.38410851066E+02  0.38410851066E+02  0.00000000000E+00 0. -1.
          5    1    1    2  501    0  0.29062103417E+01  0.76054251195E+00  0.26130351576E+00  0.55841528444E+01  0.47000000000E+01 0.  1.
         -5    1    1    2    0  503 -0.29062103417E+01 -0.76054251195E+00 -0.35531839110E+02  0.35967013693E+02  0.47000000000E+01 0. -1.
<mgrwt>
<rscale>  2 0.55780358E+01</rscale>
<asrwt>0</asrwt>
<pdfrwt beam="1">  1       21 0.48312545E-03 0.55780358E+01</pdfrwt>
<pdfrwt beam="2">  1       21 0.59093617E-02 0.55780358E+01</pdfrwt>
<totfact> 0.63059682E+08</totfact>
</mgrwt>
</event>
<event>
 4    1  0.3906087E+006  0.8545980E+01  0.7546771E-02  0.2168603E+00
         21   -1    0    0  503  502  0.00000000000E+00  0.00000000000E+00  0.18900483291E+03  0.18900483291E+03  0.00000000000E+00 0. -1.
         21   -1    0    0  501  503 -0.00000000000E+00 -0.00000000000E+00 -0.57606949444E+00  0.57606949444E+00  0.00000000000E+00 0.  1.
          5    1    1    2  501    0 -0.13225815746E+01  0.70138825503E+01  0.39825272718E+02  0.40731880849E+02  0.47000000000E+01 0.  1.
         -5    1    1    2    0  502  0.13225815746E+01 -0.70138825503E+01  0.14860349069E+03  0.14884902155E+03  0.47000000000E+01 0. -1.
<mgrwt>
<rscale>  2 0.85459798E+01</rscale>
<asrwt>0</asrwt>
<pdfrwt beam="1">  1       21 0.29077617E-01 0.85459798E+01</pdfrwt>
<pdfrwt beam="2">  1       21 0.88626227E-04 0.85459798E+01</pdfrwt>
<totfact> 0.69543043E+08</totfact>
</mgrwt>
</event>
<event>
 4    1  0.3906087E+006  0.6453570E+01  0.7546771E-02  0.2359882E+00
         21   -1    0    0  503  502  0.00000000000E+00  0.00000000000E+00  0.37128679383E+00  0.37128679383E+00  0.00000000000E+00 0. -1.
         21   -1    0    0  501  503 -0.00000000000E+00 -0.00000000000E+00 -0.13716942256E+03  0.13716942256E+03  0.00000000000E+00 0.  1.
          5    1    1    2  501    0  0.42145596971E+01 -0.13401666640E+01 -0.97755731996E+02  0.97968524018E+02  0.47000000000E+01 0.  1.
         -5    1    1    2    0  502 -0.42145596971E+01  0.13401666640E+01 -0.39042403771E+02  0.39572185337E+02  0.47000000000E+01 0. -1.
<mgrwt>
<rscale>  2 0.64535696E+01</rscale>
<asrwt>0</asrwt>
<pdfrwt beam="1">  1       21 0.57120979E-04 0.64535696E+01</pdfrwt>
<pdfrwt beam="2">  1       21 0.21103012E-01 0.64535696E+01</pdfrwt>
<totfact> 0.17880680E+09</totfact>
</mgrwt>
</event>
<event>
 4    1  0.3906087E+006  0.5941302E+01  0.7546771E-02  0.2423126E+00
         21   -1    0    0  503  502  0.00000000000E+00  0.00000000000E+00  0.22320188592E+01  0.22320188592E+01  0.00000000000E+00 0. -1.
         21   -1    0    0  501  503 -0.00000000000E+00 -0.00000000000E+00 -0.15858956931E+02  0.15858956931E+02  0.00000000000E+00 0. -1.
          5    1    1    2  501    0 -0.10898258407E+01 -0.34671818892E+01 -0.72904358825E+01  0.94047608142E+01  0.47000000000E+01 0. -1.
         -5    1    1    2    0  502  0.10898258407E+01  0.34671818892E+01 -0.63365021896E+01  0.86862149763E+01  0.47000000000E+01 0. -1.
<mgrwt>
<rscale>  2 0.59413021E+01</rscale>
<asrwt>0</asrwt>
<pdfrwt beam="1">  1       21 0.34338751E-03 0.59413021E+01</pdfrwt>
<pdfrwt beam="2">  1       21 0.24398396E-02 0.59413021E+01</pdfrwt>
<totfact> 0.38879073E+09</totfact>
</mgrwt>
</event>
<event>
 4    1  0.3906087E+006  0.5536034E+01  0.7546771E-02  0.2480028E+00
         21   -1    0    0  501  502  0.00000000000E+00  0.00000000000E+00  0.63485894297E+02  0.63485894297E+02  0.00000000000E+00 0.  1.
         21   -1    0    0  502  503 -0.00000000000E+00 -0.00000000000E+00 -0.48690388489E+00  0.48690388489E+00  0.00000000000E+00 0. -1.
          5    1    1    2  501    0 -0.23978329757E+01 -0.16757301528E+01  0.34454695961E+02  0.34896615141E+02  0.47000000000E+01 0. -1.
         -5    1    1    2    0  503  0.23978329757E+01  0.16757301528E+01  0.28544294452E+02  0.29076183042E+02  0.47000000000E+01 0. -1.
<mgrwt>
<rscale>  2 0.55360342E+01</rscale>
<asrwt>0</asrwt>
<pdfrwt beam="1">  1       21 0.97670541E-02 0.55360342E+01</pdfrwt>
<pdfrwt beam="2">  1       21 0.74908340E-04 0.55360342E+01</pdfrwt>
<totfact> 0.36767072E+09</totfact>
</mgrwt>
</event>
<event>
 4    1  0.3906087E+006  0.4909137E+01  0.7546771E-02  0.2583530E+00
         21   -1    0    0  501  502  0.00000000000E+00  0.00000000000E+00  0.52106720783E+00  0.52106720783E+00  0.00000000000E+00 0. -1.
         21   -1    0    0  502  503 -0.00000000000E+00 -0.00000000000E+00 -0.94904795153E+02  0.94904795153E+02  0.00000000000E+00 0. -1.
          5    1    1    2  501    0 -0.13941937534E+01 -0.25661969531E+00 -0.13029137941E+02  0.13923292188E+02  0.47000000000E+01 0. -1.
         -5    1    1    2    0  503  0.13941937534E+01  0.25661969531E+00 -0.81354590005E+02  0.81502570173E+02  0.47000000000E+01 0. -1.
<mgrwt>
<rscale>  2 0.49091374E+01</rscale>
<asrwt>0</asrwt>
<pdfrwt beam="1">  1       21 0.80164182E-04 0.49091374E+01</pdfrwt>
<pdfrwt beam="2">  1       21 0.14600738E-01 0.49091374E+01</pdfrwt>
<totfact> 0.16179760E+09</totfact>
</mgrwt>
</event>
<event>
 4    1  0.3906087E+006  0.6390806E+01  0.7546771E-02  0.2367175E+00
         21   -1    0    0  503  502  0.00000000000E+00  0.00000000000E+00  0.21142199087E+02  0.21142199087E+02  0.00000000000E+00 0. -1.
         21   -1    0    0  501  503 -0.00000000000E+00 -0.00000000000E+00 -0.27600276425E+01  0.27600276425E+01  0.00000000000E+00 0. -1.
          5    1    1    2  501    0  0.36117650096E+01  0.23890492054E+01  0.15737865333E+02  0.16985959138E+02  0.47000000000E+01 0. -1.
         -5    1    1    2    0  502 -0.36117650096E+01 -0.23890492054E+01  0.26443061115E+01  0.69162675918E+01  0.47000000000E+01 0. -1.
<mgrwt>
<rscale>  2 0.63908061E+01</rscale>
<asrwt>0</asrwt>
<pdfrwt beam="1">  1       21 0.32526459E-02 0.63908061E+01</pdfrwt>
<pdfrwt beam="2">  1       21 0.42461965E-03 0.63908061E+01</pdfrwt>
<totfact> 0.20328511E+09</totfact>
</mgrwt>
</event>
<event>
 4    1  0.3906087E+006  0.4951068E+01  0.7546771E-02  0.2575908E+00
         21   -1    0    0  503  502  0.00000000000E+00  0.00000000000E+00  0.47560965599E+00  0.47560965599E+00  0.00000000000E+00 0. -1.
         21   -1    0    0  501  503 -0.00000000000E+00 -0.00000000000E+00 -0.53416147484E+02  0.53416147484E+02  0.00000000000E+00 0. -1.
          5    1    1    2  501    0  0.15176868953E+01 -0.34597788961E+00 -0.21420721785E+02  0.21985458739E+02  0.47000000000E+01 0. -1.
         -5    1    1    2    0  502 -0.15176868953E+01  0.34597788961E+00 -0.31519816044E+02  0.31906298401E+02  0.47000000000E+01 0. -1.
<mgrwt>
<rscale>  2 0.49510680E+01</rscale>
<asrwt>0</asrwt>
<pdfrwt beam="1">  1       21 0.73170768E-04 0.49510680E+01</pdfrwt>
<pdfrwt beam="2">  1       21 0.82178631E-02 0.49510680E+01</pdfrwt>
<totfact> 0.44117858E+09</totfact>
</mgrwt>
</event>
<event>
 4    1  0.3906087E+006  0.5433059E+01  0.7546771E-02  0.2495623E+00
         21   -1    0    0  501  502  0.00000000000E+00  0.00000000000E+00  0.65063787045E+01  0.65063787045E+01  0.00000000000E+00 0. -1.
         21   -1    0    0  502  503 -0.00000000000E+00 -0.00000000000E+00 -0.46924693206E+01  0.46924693206E+01  0.00000000000E+00 0. -1.
          5    1    1    2  501    0  0.25426275459E+01  0.98141694439E+00  0.19268255666E+01  0.57646154095E+01  0.47000000000E+01 0. -1.
         -5    1    1    2    0  503 -0.25426275459E+01 -0.98141694439E+00 -0.11291618278E+00  0.54342326156E+01  0.47000000000E+01 0. -1.
<mgrwt>
<rscale>  2 0.54330594E+01</rscale>
<asrwt>0</asrwt>
<pdfrwt beam="1">  1       21 0.10009813E-02 0.54330594E+01</pdfrwt>
<pdfrwt beam="2">  1       21 0.72191835E-03 0.54330594E+01</pdfrwt>
<totfact> 0.45380400E+09</totfact>
</mgrwt>
</event>
<event>
 4    1  0.3906087E+006  0.5674230E+01  0.7546771E-02  0.2459855E+00
         21   -1    0    0  503  502  0.00000000000E+00  0.00000000000E+00  0.36776198855E+04  0.36776198855E+04  0.00000000000E+00 0. -1.
         21   -1    0    0  501  503 -0.00000000000E+00 -0.00000000000E+00 -0.29441736067E-01  0.29441736067E-01  0.00000000000E+00 0. -1.
          5    1    1    2  501    0 -0.28977244498E+01 -0.13076980621E+01  0.29742649657E+03  0.29748061742E+03  0.47000000000E+01 0. -1.
         -5    1    1    2    0  502  0.28977244498E+01  0.13076980621E+01  0.33801639472E+04  0.33801687098E+04  0.47000000000E+01 0. -1.
<mgrwt>
<rscale>  2 0.56742296E+01</rscale>
<asrwt>0</asrwt>
<pdfrwt beam="1">  1       21 0.56541998E+00 0.56742296E+01</pdfrwt>
<pdfrwt beam="2">  1       21 0.45324434E-05 0.56742296E+01</pdfrwt>
<totfact> 0.12082200E+07</totfact>
</mgrwt>
</event>
<event>
 4    1  0.3906087E+006  0.9357790E+01  0.7546771E-02  0.2113491E+00
         21   -1    0    0  503  502  0.00000000000E+00  0.00000000000E+00  0.10498680741E+01  0.10498680741E+01  0.00000000000E+00 0. -1.
         21   -1    0    0  501  503 -0.00000000000E+00 -0.00000000000E+00 -0.15173136263E+03  0.15173136263E+03  0.00000000000E+00 0. -1.
          5    1    1    2  501    0 -0.60427212992E+01 -0.53817983911E+01 -0.12660143258E+03  0.12694680369E+03  0.47000000000E+01 0. -1.
         -5    1    1    2    0  502  0.60427212992E+01  0.53817983911E+01 -0.24080061975E+02  0.25834427018E+02  0.47000000000E+01 0. -1.
<mgrwt>
<rscale>  2 0.93577901E+01</rscale>
<asrwt>0</asrwt>
<pdfrwt beam="1">  1       21 0.16151818E-03 0.93577901E+01</pdfrwt>
<pdfrwt beam="2">  1       21 0.23343284E-01 0.93577901E+01</pdfrwt>
<totfact> 0.46574635E+08</totfact>
</mgrwt>
</event>
<event>
 4    1  0.3906087E+006  0.9080081E+01  0.7546771E-02  0.2131461E+00
         21   -1    0    0  501  502  0.00000000000E+00  0.00000000000E+00  0.29606122816E+01  0.29606122816E+01  0.00000000000E+00 0. -1.
         21   -1    0    0  502  503 -0.00000000000E+00 -0.00000000000E+00 -0.29499773819E+02  0.29499773819E+02  0.00000000000E+00 0. -1.
          5    1    1    2  501    0 -0.40660818359E+00 -0.77583846073E+01 -0.94293513980E+01  0.13090474770E+02  0.47000000000E+01 0. -1.
         -5    1    1    2    0  503  0.40660818359E+00  0.77583846073E+01 -0.17109810139E+02  0.19369911330E+02  0.47000000000E+01 0. -1.
<mgrwt>
<rscale>  2 0.90800805E+01</rscale>
<asrwt>0</asrwt>
<pdfrwt beam="1">  1       21 0.45547880E-03 0.90800805E+01</pdfrwt>
<pdfrwt beam="2">  1       21 0.45384268E-02 0.90800805E+01</pdfrwt>
<totfact> 0.14447205E+09</totfact>
</mgrwt>
</event>
<event>
 4    1  0.3906087E+006  0.5149591E+01  0.7546771E-02  0.2541282E+00
         21   -1    0    0  503  502  0.00000000000E+00  0.00000000000E+00  0.13234060124E+03  0.13234060124E+03  0.00000000000E+00 0. -1.
         21   -1    0    0  501  503 -0.00000000000E+00 -0.00000000000E+00 -0.33149682474E+00  0.33149682474E+00  0.00000000000E+00 0.  1.
          5    1    1    2  501    0 -0.88306517034E+00  0.19100994653E+01  0.24284898144E+02  0.24824877883E+02  0.47000000000E+01 0.  1.
         -5    1    1    2    0  502  0.88306517034E+00 -0.19100994653E+01  0.10772420627E+03  0.10784722018E+03  0.47000000000E+01 0. -1.
<mgrwt>
<rscale>  2 0.51495907E+01</rscale>
<asrwt>0</asrwt>
<pdfrwt beam="1">  1       21 0.20360050E-01 0.51495907E+01</pdfrwt>
<pdfrwt beam="2">  1       21 0.50999617E-04 0.51495907E+01</pdfrwt>
<totfact> 0.18267891E+09</totfact>
</mgrwt>
</event>
<event>
 4    1  0.3906087E+006  0.5375723E+01  0.7546771E-02  0.2504527E+00
         21   -1    0    0  501  502  0.00000000000E+00  0.00000000000E+00  0.10056606307E+00  0.10056606307E+00  0.00000000000E+00 0.  1.
         21   -1    0    0  502  503 -0.00000000000E+00 -0.00000000000E+00 -0.37228256321E+03  0.37228256321E+03  0.00000000000E+00 0.  1.
          5    1    1    2  501    0  0.26032262770E+01 -0.17779140813E+00 -0.97162288947E+02  0.97310887317E+02  0.47000000000E+01 0.  1.
         -5    1    1    2    0  503 -0.26032262770E+01  0.17779140813E+00 -0.27501970820E+03  0.27507224196E+03  0.47000000000E+01 0.  1.
<mgrwt>
<rscale>  2 0.53757229E+01</rscale>
<asrwt>0</asrwt>
<pdfrwt beam="1">  1       21 0.15471542E-04 0.53757229E+01</pdfrwt>
<pdfrwt beam="2">  1       21 0.57274832E-01 0.53757229E+01</pdfrwt>
<totfact> 0.15935908E+09</totfact>
</mgrwt>
</event>
<event>
 4    1  0.3906087E+006  0.8300976E+01  0.7546771E-02  0.2186907E+00
         21   -1    0    0  503  502  0.00000000000E+00  0.00000000000E+00  0.39235754264E+00  0.39235754264E+00  0.00000000000E+00 0.  1.
         21   -1    0    0  501  503 -0.00000000000E+00 -0.00000000000E+00 -0.33608157935E+03  0.33608157935E+03  0.00000000000E+00 0. -1.
          5    1    1    2  501    0  0.30406213059E+01  0.61295038025E+01 -0.28409204027E+03  0.28421328882E+03  0.47000000000E+01 0. -1.
         -5    1    1    2    0  502 -0.30406213059E+01 -0.61295038025E+01 -0.51597181531E+02  0.52260648070E+02  0.47000000000E+01 0.  1.
<mgrwt>
<rscale>  2 0.83009755E+01</rscale>
<asrwt>0</asrwt>
<pdfrwt beam="1">  1       21 0.60362719E-04 0.83009755E+01</pdfrwt>
<pdfrwt beam="2">  1       21 0.51704841E-01 0.83009755E+01</pdfrwt>
<totfact> 0.41407258E+08</totfact>
</mgrwt>
</event>
<event>
 4    1  0.3906087E+006  0.5241371E+01  0.7546771E-02  0.2526037E+00
         21   -1    0    0  503  502  0.00000000000E+00  0.00000000000E+00  0.12857687466E+02  0.12857687466E+02  0.00000000000E+00 0. -1.
         21   -1    0    0  501  503 -0.00000000000E+00 -0.00000000000E+00 -0.33274223599E+02  0.33274223599E+02  0.00000000000E+00 0. -1.
          5    1    1    2  501    0  0.17962606007E+01  0.14681334689E+01 -0.32521377271E+02  0.32941037440E+02  0.47000000000E+01 0. -1.
         -5    1    1    2    0  502 -0.17962606007E+01 -0.14681334689E+01  0.12104841138E+02  0.13190873625E+02  0.47000000000E+01 0. -1.
<mgrwt>
<rscale>  2 0.52413708E+01</rscale>
<asrwt>0</asrwt>
<pdfrwt beam="1">  1       21 0.19781058E-02 0.52413708E+01</pdfrwt>
<pdfrwt beam="2">  1       21 0.51191113E-02 0.52413708E+01</pdfrwt>
<totfact> 0.10292453E+08</totfact>
</mgrwt>
</event>
<event>
 4    1  0.3906087E+006  0.5740265E+01  0.7546771E-02  0.2450506E+00
         21   -1    0    0  501  502  0.00000000000E+00  0.00000000000E+00  0.29169237605E+01  0.29169237605E+01  0.00000000000E+00 0.  1.
         21   -1    0    0  502  503 -0.00000000000E+00 -0.00000000000E+00 -0.56991776054E+02  0.56991776054E+02  0.00000000000E+00 0.  1.
          5    1    1    2  501    0  0.31447580144E+01  0.98546645757E+00 -0.21549284300E+00  0.57443088595E+01  0.47000000000E+01 0.  1.
         -5    1    1    2    0  503 -0.31447580144E+01 -0.98546645757E+00 -0.53859359450E+02  0.54164390955E+02  0.47000000000E+01 0.  1.
<mgrwt>
<rscale>  2 0.57402654E+01</rscale>
<asrwt>0</asrwt>
<pdfrwt beam="1">  1       21 0.44875756E-03 0.57402654E+01</pdfrwt>
<pdfrwt beam="2">  1       21 0.87679644E-02 0.57402654E+01</pdfrwt>
<totfact> 0.39495855E+08</totfact>
</mgrwt>
</event>
<event>
 4    1  0.3906087E+006  0.6129806E+01  0.7546771E-02  0.2398829E+00
         21   -1    0    0  501  502  0.00000000000E+00  0.00000000000E+00  0.32367544313E+02  0.32367544313E+02  0.00000000000E+00 0. -1.
         21   -1    0    0  502  503 -0.00000000000E+00 -0.00000000000E+00 -0.12383603840E+01  0.12383603840E+01  0.00000000000E+00 0. -1.
          5    1    1    2  501    0 -0.30085094279E+01  0.25364138504E+01  0.19767838357E+02  0.20696423785E+02  0.47000000000E+01 0. -1.
         -5    1    1    2    0  503  0.30085094279E+01 -0.25364138504E+01  0.11361345572E+02  0.12909480912E+02  0.47000000000E+01 0. -1.
<mgrwt>
<rscale>  2 0.61298062E+01</rscale>
<asrwt>0</asrwt>
<pdfrwt beam="1">  1       21 0.49796216E-02 0.61298062E+01</pdfrwt>
<pdfrwt beam="2">  1       21 0.19051701E-03 0.61298062E+01</pdfrwt>
<totfact> 0.31532770E+09</totfact>
</mgrwt>
</event>
<event>
 4    1  0.3906087E+006  0.9100822E+01  0.7546771E-02  0.2130089E+00
         21   -1    0    0  503  502  0.00000000000E+00  0.00000000000E+00  0.31716711532E+02  0.31716711532E+02  0.00000000000E+00 0.  1.
         21   -1    0    0  501  503 -0.00000000000E+00 -0.00000000000E+00 -0.37165070600E+01  0.37165070600E+01  0.00000000000E+00 0. -1.
          5    1    1    2  501    0  0.19213642950E+01 -0.75527029216E+01  0.23660959481E+02  0.25350857298E+02  0.47000000000E+01 0. -1.
         -5    1    1    2    0  502 -0.19213642950E+01  0.75527029216E+01  0.43392449911E+01  0.10082361294E+02  0.47000000000E+01 0.  1.
<mgrwt>
<rscale>  2 0.91008221E+01</rscale>
<asrwt>0</asrwt>
<pdfrwt beam="1">  1       21 0.48794939E-02 0.91008221E+01</pdfrwt>
<pdfrwt beam="2">  1       21 0.57177034E-03 0.91008221E+01</pdfrwt>
<totfact> 0.93815257E+08</totfact>
</mgrwt>
</event>
<event>
 4    1  0.3906087E+006  0.4972791E+01  0.7546771E-02  0.2572003E+00
         21   -1    0    0  501  502  0.00000000000E+00  0.00000000000E+00  0.14259998834E+02  0.14259998834E+02  0.00000000000E+00 0.  1.
         21   -1    0    0  502  503 -0.00000000000E+00 -0.00000000000E+00 -0.17660520714E+01  0.17660520714E+01  0.00000000000E+00 0.  1.
          5    1    1    2  501    0 -0.15523633597E+01 -0.47835109011E+00  0.51696169995E+01  0.71731158981E+01  0.47000000000E+01 0.  1.
         -5    1    1    2    0  503  0.15523633597E+01  0.47835109011E+00  0.73243297632E+01  0.88529350074E+01  0.47000000000E+01 0.  1.
<mgrwt>
<rscale>  2 0.49727911E+01</rscale>
<asrwt>0</asrwt>
<pdfrwt beam="1">  1       21 0.21938459E-02 0.49727911E+01</pdfrwt>
<pdfrwt beam="2">  1       21 0.27170033E-03 0.49727911E+01</pdfrwt>
<totfact> 0.52334790E+09</totfact>
</mgrwt>
</event>
<event>
 4    1  0.3906087E+006  0.6948773E+01  0.7546771E-02  0.2306189E+00
         21   -1    0    0  503  502  0.00000000000E+00  0.00000000000E+00  0.11803887019E+03  0.11803887019E+03  0.00000000000E+00 0. -1.
         21   -1    0    0  501  503 -0.00000000000E+00 -0.00000000000E+00 -0.54127152241E+00  0.54127152241E+00  0.00000000000E+00 0.  1.
          5    1    1    2  501    0  0.46526898021E+01 -0.21325862095E+01  0.29446442836E+02  0.30255221732E+02  0.47000000000E+01 0.  1.
         -5    1    1    2    0  502 -0.46526898021E+01  0.21325862095E+01  0.88051155830E+02  0.88324919980E+02  0.47000000000E+01 0. -1.
<mgrwt>
<rscale>  2 0.69487730E+01</rscale>
<asrwt>0</asrwt>
<pdfrwt beam="1">  1       21 0.18159806E-01 0.69487730E+01</pdfrwt>
<pdfrwt beam="2">  1       21 0.83272636E-04 0.69487730E+01</pdfrwt>
<totfact> 0.14510883E+09</totfact>
</mgrwt>
</event>
<event>
 4    1  0.3906087E+006  0.6731541E+01  0.7546771E-02  0.2328940E+00
         21   -1    0    0  501  502  0.00000000000E+00  0.00000000000E+00  0.40743307463E+00  0.40743307463E+00  0.00000000000E+00 0. -1.
         21   -1    0    0  502  503 -0.00000000000E+00 -0.00000000000E+00 -0.12360609708E+03  0.12360609708E+03  0.00000000000E+00 0. -1.
          5    1    1    2  501    0  0.46947740741E+01 -0.10875367114E+01 -0.41968790996E+02  0.42505212120E+02  0.47000000000E+01 0. -1.
         -5    1    1    2    0  503 -0.46947740741E+01  0.10875367114E+01 -0.81229873008E+02  0.81508318033E+02  0.47000000000E+01 0. -1.
<mgrwt>
<rscale>  2 0.67315407E+01</rscale>
<asrwt>0</asrwt>
<pdfrwt beam="1">  1       21 0.62681894E-04 0.67315407E+01</pdfrwt>
<pdfrwt beam="2">  1       21 0.19016358E-01 0.67315407E+01</pdfrwt>
<totfact> 0.19299985E+09</totfact>
</mgrwt>
</event>
<event>
 4    1  0.3906087E+006  0.1195106E+02  0.7546771E-02  0.1978447E+00
         21   -1    0    0  503  502  0.00000000000E+00  0.00000000000E+00  0.16508123170E+03  0.16508123170E+03  0.00000000000E+00 0.  1.
         21   -1    0    0  501  503 -0.00000000000E+00 -0.00000000000E+00 -0.18736777173E+01  0.18736777173E+01  0.00000000000E+00 0.  1.
          5    1    1    2  501    0 -0.84944639579E+01 -0.69700803529E+01  0.20360932441E+02  0.23609225060E+02  0.47000000000E+01 0.  1.
         -5    1    1    2    0  502  0.84944639579E+01  0.69700803529E+01  0.14284662154E+03  0.14334568435E+03  0.47000000000E+01 0.  1.
<mgrwt>
<rscale>  2 0.11951064E+02</rscale>
<asrwt>0</asrwt>
<pdfrwt beam="1">  1       21 0.25397101E-01 0.11951064E+02</pdfrwt>
<pdfrwt beam="2">  1       21 0.28825824E-03 0.11951064E+02</pdfrwt>
<totfact> 0.20097815E+08</totfact>
</mgrwt>
</event>
<event>
 4    1  0.3906087E+006  0.6869355E+01  0.7546771E-02  0.2314370E+00
         21   -1    0    0  503  502  0.00000000000E+00  0.00000000000E+00  0.11385405881E+04  0.11385405881E+04  0.00000000000E+00 0. -1.
         21   -1    0    0  501  503 -0.00000000000E+00 -0.00000000000E+00 -0.98916281450E-01  0.98916281450E-01  0.00000000000E+00 0. -1.
          5    1    1    2  501    0 -0.50085057060E+01  0.11364137621E+00  0.13526680946E+03  0.13544112295E+03  0.47000000000E+01 0. -1.
         -5    1    1    2    0  502  0.50085057060E+01 -0.11364137621E+00  0.10031748624E+04  0.10031983815E+04  0.47000000000E+01 0. -1.
<mgrwt>
<rscale>  2 0.68693554E+01</rscale>
<asrwt>0</asrwt>
<pdfrwt beam="1">  1       21 0.17514960E+00 0.68693554E+01</pdfrwt>
<pdfrwt beam="2">  1       21 0.15218801E-04 0.68693554E+01</pdfrwt>
<totfact> 0.19960792E+08</totfact>
</mgrwt>
</event>
<event>
 4    1  0.3906087E+006  0.8729471E+01  0.7546771E-02  0.2155435E+00
         21   -1    0    0  501  502  0.00000000000E+00  0.00000000000E+00  0.99095661157E+01  0.99095661157E+01  0.00000000000E+00 0.  1.
         21   -1    0    0  502  503 -0.00000000000E+00 -0.00000000000E+00 -0.12011289368E+02  0.12011289368E+02  0.00000000000E+00 0.  1.
          5    1    1    2  501    0  0.36728972802E+01  0.63736559461E+01  0.55233536470E+01  0.10330106488E+02  0.47000000000E+01 0.  1.
         -5    1    1    2    0  503 -0.36728972802E+01 -0.63736559461E+01 -0.76250768992E+01  0.11590748995E+02  0.47000000000E+01 0.  1.
<mgrwt>
<rscale>  2 0.87294710E+01</rscale>
<asrwt>0</asrwt>
<pdfrwt beam="1">  1       21 0.15245486E-02 0.87294710E+01</pdfrwt>
<pdfrwt beam="2">  1       21 0.18478907E-02 0.87294710E+01</pdfrwt>
<totfact> 0.94672337E+08</totfact>
</mgrwt>
</event>
<event>
 4    1  0.3906087E+006  0.6510065E+01  0.7546771E-02  0.2353416E+00
         21   -1    0    0  501  502  0.00000000000E+00  0.00000000000E+00  0.37650489931E+02  0.37650489931E+02  0.00000000000E+00 0. -1.
         21   -1    0    0  502  503 -0.00000000000E+00 -0.00000000000E+00 -0.86953429031E+01  0.86953429031E+01  0.00000000000E+00 0.  1.
          5    1    1    2  501    0  0.39519550240E+00  0.44871787190E+01  0.36098620176E+02  0.36680939614E+02  0.47000000000E+01 0. -1.
         -5    1    1    2    0  503 -0.39519550240E+00 -0.44871787190E+01 -0.71434731481E+01  0.96648932203E+01  0.47000000000E+01 0.  1.
<mgrwt>
<rscale>  2 0.65100655E+01</rscale>
<asrwt>0</asrwt>
<pdfrwt beam="1">  1       21 0.57923830E-02 0.65100655E+01</pdfrwt>
<pdfrwt beam="2">  1       21 0.13377451E-02 0.65100655E+01</pdfrwt>
<totfact> 0.17419807E+08</totfact>
</mgrwt>
</event>
<event>
 4    1  0.3906087E+006  0.4916900E+01  0.7546771E-02  0.2582110E+00
         21   -1    0    0  501  502  0.00000000000E+00  0.00000000000E+00  0.13400488501E+00  0.13400488501E+00  0.00000000000E+00 0. -1.
         21   -1    0    0  502  503 -0.00000000000E+00 -0.00000000000E+00 -0.62624002679E+03  0.62624002679E+03  0.00000000000E+00 0. -1.
          5    1    1    2  501    0 -0.13932239634E+01 -0.38057350898E+00 -0.48801380617E+02  0.49048452160E+02  0.47000000000E+01 0. -1.
         -5    1    1    2    0  503  0.13932239634E+01  0.38057350898E+00 -0.57730464129E+03  0.57732557951E+03  0.47000000000E+01 0. -1.
<mgrwt>
<rscale>  2 0.49169004E+01</rscale>
<asrwt>0</asrwt>
<pdfrwt beam="1">  1       21 0.20615682E-04 0.49169004E+01</pdfrwt>
<pdfrwt beam="2">  1       21 0.96346744E-01 0.49169004E+01</pdfrwt>
<totfact> 0.37832290E+08</totfact>
</mgrwt>
</event>
<event>
 4    1  0.3906087E+006  0.7408549E+01  0.7546771E-02  0.2261676E+00
         21   -1    0    0  501  502  0.00000000000E+00  0.00000000000E+00  0.79003718650E-01  0.79003718650E-01  0.00000000000E+00 0.  1.
         21   -1    0    0  502  503 -0.00000000000E+00 -0.00000000000E+00 -0.99083983916E+03  0.99083983916E+03  0.00000000000E+00 0.  1.
          5    1    1    2  501    0  0.10424807431E+01 -0.56311479040E+01 -0.22452992482E+03  0.22465211713E+03  0.47000000000E+01 0.  1.
         -5    1    1    2    0  503 -0.10424807431E+01  0.56311479040E+01 -0.76623091063E+03  0.76626672575E+03  0.47000000000E+01 0.  1.
<mgrwt>
<rscale>  2 0.74085486E+01</rscale>
<asrwt>0</asrwt>
<pdfrwt beam="1">  1       21 0.12154582E-04 0.74085486E+01</pdfrwt>
<pdfrwt beam="2">  1       21 0.15243485E+00 0.74085486E+01</pdfrwt>
<totfact> 0.38111515E+08</totfact>
</mgrwt>
</event>
<event>
 4    1  0.3906087E+006  0.5354198E+01  0.7546771E-02  0.2507911E+00
         21   -1    0    0  501  502  0.00000000000E+00  0.00000000000E+00  0.26618919217E+02  0.26618919217E+02  0.00000000000E+00 0. -1.
         21   -1    0    0  502  503 -0.00000000000E+00 -0.00000000000E+00 -0.12144224505E+01  0.12144224505E+01  0.00000000000E+00 0.  1.
          5    1    1    2  501    0  0.68235782632E+00  0.24722101272E+01  0.17384416678E+02  0.18190255038E+02  0.47000000000E+01 0. -1.
         -5    1    1    2    0  503 -0.68235782632E+00 -0.24722101272E+01  0.80200800888E+01  0.96430866296E+01  0.47000000000E+01 0.  1.
<mgrwt>
<rscale>  2 0.53541979E+01</rscale>
<asrwt>0</asrwt>
<pdfrwt beam="1">  1       21 0.40952179E-02 0.53541979E+01</pdfrwt>
<pdfrwt beam="2">  1       21 0.18683424E-03 0.53541979E+01</pdfrwt>
<totfact> 0.38161360E+09</totfact>
</mgrwt>
</event>
<event>
 4    1  0.3906087E+006  0.5579488E+01  0.7546771E-02  0.2473594E+00
         21   -1    0    0  501  502  0.00000000000E+00  0.00000000000E+00  0.38792274315E+00  0.38792274315E+00  0.00000000000E+00 0. -1.
         21   -1    0    0  502  503 -0.00000000000E+00 -0.00000000000E+00 -0.29992640398E+03  0.29992640398E+03  0.00000000000E+00 0.  1.
          5    1    1    2  501    0 -0.24834272438E+01  0.16950747061E+01 -0.21261084169E+02  0.21981000640E+02  0.47000000000E+01 0. -1.
         -5    1    1    2    0  503  0.24834272438E+01 -0.16950747061E+01 -0.27827739707E+03  0.27833332608E+03  0.47000000000E+01 0.  1.
<mgrwt>
<rscale>  2 0.55794883E+01</rscale>
<asrwt>0</asrwt>
<pdfrwt beam="1">  1       21 0.59680563E-04 0.55794883E+01</pdfrwt>
<pdfrwt beam="2">  1       21 0.46142414E-01 0.55794883E+01</pdfrwt>
<totfact> 0.40173868E+08</totfact>
</mgrwt>
</event>
<event>
 4    1  0.3906087E+006  0.5404651E+01  0.7546771E-02  0.2500015E+00
         21   -1    0    0  501  502  0.00000000000E+00  0.00000000000E+00  0.63829616707E+02  0.63829616707E+02  0.00000000000E+00 0.  1.
         21   -1    0    0  502  503 -0.00000000000E+00 -0.00000000000E+00 -0.47333505705E+00  0.47333505705E+00  0.00000000000E+00 0.  1.
          5    1    1    2  501    0 -0.25422606087E+01  0.81065389442E+00  0.25821376776E+02  0.26380935301E+02  0.47000000000E+01 0.  1.
         -5    1    1    2    0  503  0.25422606087E+01 -0.81065389442E+00  0.37534904874E+02  0.37922016463E+02  0.47000000000E+01 0.  1.
<mgrwt>
<rscale>  2 0.54046507E+01</rscale>
<asrwt>0</asrwt>
<pdfrwt beam="1">  1       21 0.98199342E-02 0.54046507E+01</pdfrwt>
<pdfrwt beam="2">  1       21 0.72820829E-04 0.54046507E+01</pdfrwt>
<totfact> 0.37032120E+09</totfact>
</mgrwt>
</event>
<event>
 4    1  0.3906087E+006  0.8399767E+01  0.7546771E-02  0.2179423E+00
         21   -1    0    0  501  502  0.00000000000E+00  0.00000000000E+00  0.76577262273E+01  0.76577262273E+01  0.00000000000E+00 0. -1.
         21   -1    0    0  502  503 -0.00000000000E+00 -0.00000000000E+00 -0.95832080781E+01  0.95832080781E+01  0.00000000000E+00 0. -1.
          5    1    1    2  501    0 -0.55937365655E+01  0.41444173480E+01  0.72996014053E+00  0.84314248930E+01  0.47000000000E+01 0. -1.
         -5    1    1    2    0  503  0.55937365655E+01 -0.41444173480E+01 -0.26554419913E+01  0.88095094125E+01  0.47000000000E+01 0. -1.
<mgrwt>
<rscale>  2 0.83997669E+01</rscale>
<asrwt>0</asrwt>
<pdfrwt beam="1">  1       21 0.11781117E-02 0.83997669E+01</pdfrwt>
<pdfrwt beam="2">  1       21 0.14743397E-02 0.83997669E+01</pdfrwt>
<totfact> 0.18652986E+09</totfact>
</mgrwt>
</event>
<event>
 4    1  0.3906087E+006  0.8134417E+01  0.7546771E-02  0.2199852E+00
         21   -1    0    0  503  502  0.00000000000E+00  0.00000000000E+00  0.49135444697E+03  0.49135444697E+03  0.00000000000E+00 0.  1.
         21   -1    0    0  501  503 -0.00000000000E+00 -0.00000000000E+00 -0.79239237377E+00  0.79239237377E+00  0.00000000000E+00 0. -1.
          5    1    1    2  501    0  0.63952877476E+01  0.17829849713E+01  0.21090536581E+02  0.22604855100E+02  0.47000000000E+01 0. -1.
         -5    1    1    2    0  502 -0.63952877476E+01 -0.17829849713E+01  0.46947151802E+03  0.46954198425E+03  0.47000000000E+01 0.  1.
<mgrwt>
<rscale>  2 0.81344171E+01</rscale>
<asrwt>0</asrwt>
<pdfrwt beam="1">  1       21 0.75592748E-01 0.81344171E+01</pdfrwt>
<pdfrwt beam="2">  1       21 0.12190691E-03 0.81344171E+01</pdfrwt>
<totfact> 0.76151226E+07</totfact>
</mgrwt>
</event>
<event>
 4    1  0.3906087E+006  0.7379105E+01  0.7546771E-02  0.2264390E+00
         21   -1    0    0  503  502  0.00000000000E+00  0.00000000000E+00  0.17092978714E+00  0.17092978714E+00  0.00000000000E+00 0.  1.
         21   -1    0    0  501  503 -0.00000000000E+00 -0.00000000000E+00 -0.31986371101E+03  0.31986371101E+03  0.00000000000E+00 0. -1.
          5    1    1    2  501    0  0.35640602566E+01 -0.44338093320E+01 -0.17006689198E+03  0.17022690427E+03  0.47000000000E+01 0.  1.
         -5    1    1    2    0  502 -0.35640602566E+01  0.44338093320E+01 -0.14962588925E+03  0.14980773653E+03  0.47000000000E+01 0.  1.
<mgrwt>
<rscale>  2 0.73791050E+01</rscale>
<asrwt>0</asrwt>
<pdfrwt beam="1">  1       21 0.26297024E-04 0.73791050E+01</pdfrwt>
<pdfrwt beam="2">  1       21 0.49209551E-01 0.73791050E+01</pdfrwt>
<totfact> 0.12998618E+09</totfact>
</mgrwt>
</event>
<event>
 4    1  0.3906087E+006  0.5170685E+01  0.7546771E-02  0.2537737E+00
         21   -1    0    0  501  502  0.00000000000E+00  0.00000000000E+00  0.72159473477E+01  0.72159473477E+01  0.00000000000E+00 0.  1.
         21   -1    0    0  502  503 -0.00000000000E+00 -0.00000000000E+00 -0.37616139624E+01  0.37616139624E+01  0.00000000000E+00 0.  1.
          5    1    1    2  501    0 -0.20905301110E+01 -0.52503960821E+00  0.23997913598E+01  0.57004369399E+01  0.47000000000E+01 0.  1.
         -5    1    1    2    0  503  0.20905301110E+01  0.52503960821E+00  0.10545420255E+01  0.52771243702E+01  0.47000000000E+01 0.  1.
<mgrwt>
<rscale>  2 0.51706849E+01</rscale>
<asrwt>0</asrwt>
<pdfrwt beam="1">  1       21 0.11101457E-02 0.51706849E+01</pdfrwt>
<pdfrwt beam="2">  1       21 0.57870984E-03 0.51706849E+01</pdfrwt>
<totfact> 0.50689833E+09</totfact>
</mgrwt>
</event>
<event>
 4    1  0.3906087E+006  0.6601573E+01  0.7546771E-02  0.2343139E+00
         21   -1    0    0  501  502  0.00000000000E+00  0.00000000000E+00  0.55382254018E+01  0.55382254018E+01  0.00000000000E+00 0.  1.
         21   -1    0    0  502  503 -0.00000000000E+00 -0.00000000000E+00 -0.11272062265E+02  0.11272062265E+02  0.00000000000E+00 0. -1.
          5    1    1    2  501    0  0.40081371838E+01  0.23292933119E+01 -0.74851204977E+01  0.99803707287E+01  0.47000000000E+01 0. -1.
         -5    1    1    2    0  503 -0.40081371838E+01 -0.23292933119E+01  0.17512836343E+01  0.68299169383E+01  0.47000000000E+01 0.  1.
<mgrwt>
<rscale>  2 0.66015734E+01</rscale>
<asrwt>0</asrwt>
<pdfrwt beam="1">  1       21 0.85203468E-03 0.66015734E+01</pdfrwt>
<pdfrwt beam="2">  1       21 0.17341634E-02 0.66015734E+01</pdfrwt>
<totfact> 0.19598348E+09</totfact>
</mgrwt>
</event>
<event>
 4    1  0.3906087E+006  0.5053360E+01  0.7546771E-02  0.2557774E+00
         21   -1    0    0  501  502  0.00000000000E+00  0.00000000000E+00  0.50152604382E+01  0.50152604382E+01  0.00000000000E+00 0. -1.
         21   -1    0    0  502  503 -0.00000000000E+00 -0.00000000000E+00 -0.10552918434E+02  0.10552918434E+02  0.00000000000E+00 0.  1.
          5    1    1    2  501    0  0.56568443748E-01 -0.18555979930E+01  0.28308660818E+01  0.57922574764E+01  0.47000000000E+01 0. -1.
         -5    1    1    2    0  503 -0.56568443748E-01  0.18555979930E+01 -0.83685240778E+01  0.97759213960E+01  0.47000000000E+01 0.  1.
<mgrwt>
<rscale>  2 0.50533597E+01</rscale>
<asrwt>0</asrwt>
<pdfrwt beam="1">  1       21 0.77157853E-03 0.50533597E+01</pdfrwt>
<pdfrwt beam="2">  1       21 0.16235259E-02 0.50533597E+01</pdfrwt>
<totfact> 0.19485108E+09</totfact>
</mgrwt>
</event>
<event>
 4    1  0.3906087E+006  0.7135277E+01  0.7546771E-02  0.2287568E+00
         21   -1    0    0  501  502  0.00000000000E+00  0.00000000000E+00  0.67253178846E+02  0.67253178846E+02  0.00000000000E+00 0.  1.
         21   -1    0    0  502  503 -0.00000000000E+00 -0.00000000000E+00 -0.10522967832E+01  0.10522967832E+01  0.00000000000E+00 0.  1.
          5    1    1    2  501    0 -0.44787979684E+01 -0.29601599869E+01  0.51191713661E+02  0.51686591355E+02  0.47000000000E+01 0.  1.
         -5    1    1    2    0  503  0.44787979684E+01  0.29601599869E+01  0.15009168401E+02  0.16618884273E+02  0.47000000000E+01 0.  1.
<mgrwt>
<rscale>  2 0.71352770E+01</rscale>
<asrwt>0</asrwt>
<pdfrwt beam="1">  1       21 0.10346640E-01 0.71352770E+01</pdfrwt>
<pdfrwt beam="2">  1       21 0.16189187E-03 0.71352770E+01</pdfrwt>
<totfact> 0.14624335E+09</totfact>
</mgrwt>
</event>
<event>
 4    1  0.3906087E+006  0.6931076E+01  0.7546771E-02  0.2307999E+00
         21   -1    0    0  501  502  0.00000000000E+00  0.00000000000E+00  0.12763792675E+02  0.12763792675E+02  0.00000000000E+00 0. -1.
         21   -1    0    0  502  503 -0.00000000000E+00 -0.00000000000E+00 -0.41615621631E+01  0.41615621631E+01  0.00000000000E+00 0.  1.
          5    1    1    2  501    0 -0.46700864501E+01  0.20347253674E+01  0.69175792903E+01  0.97924827296E+01  0.47000000000E+01 0. -1.
         -5    1    1    2    0  503  0.46700864501E+01 -0.20347253674E+01  0.16846512211E+01  0.71328721080E+01  0.47000000000E+01 0.  1.
<mgrwt>
<rscale>  2 0.69310760E+01</rscale>
<asrwt>0</asrwt>
<pdfrwt beam="1">  1       21 0.19636604E-02 0.69310760E+01</pdfrwt>
<pdfrwt beam="2">  1       21 0.64024034E-03 0.69310760E+01</pdfrwt>
<totfact> 0.25476657E+09</totfact>
</mgrwt>
</event>
<event>
 4    1  0.3906087E+006  0.9561444E+01  0.7546771E-02  0.2100841E+00
         21   -1    0    0  501  502  0.00000000000E+00  0.00000000000E+00  0.12350760210E+01  0.12350760210E+01  0.00000000000E+00 0. -1.
         21   -1    0    0  502  503 -0.00000000000E+00 -0.00000000000E+00 -0.70072549962E+03  0.70072549962E+03  0.00000000000E+00 0. -1.
          5    1    1    2  501    0  0.62794779759E-01  0.83262998184E+01 -0.17819978225E+02  0.20223076813E+02  0.47000000000E+01 0. -1.
         -5    1    1    2    0  503 -0.62794779759E-01 -0.83262998184E+01 -0.68167044537E+03  0.68173749883E+03  0.47000000000E+01 0. -1.
<mgrwt>
<rscale>  2 0.95614440E+01</rscale>
<asrwt>0</asrwt>
<pdfrwt beam="1">  1       21 0.19001176E-03 0.95614440E+01</pdfrwt>
<pdfrwt beam="2">  1       21 0.10780389E+00 0.95614440E+01</pdfrwt>
<totfact> 0.21351054E+07</totfact>
</mgrwt>
</event>
<event>
 4    1  0.3906087E+006  0.5699227E+01  0.7546771E-02  0.2456295E+00
         21   -1    0    0  503  502  0.00000000000E+00  0.00000000000E+00  0.94855956179E+02  0.94855956179E+02  0.00000000000E+00 0. -1.
         21   -1    0    0  501  503 -0.00000000000E+00 -0.00000000000E+00 -0.72001875748E+00  0.72001875748E+00  0.00000000000E+00 0. -1.
          5    1    1    2  501    0  0.75251482986E+00  0.31344708765E+01  0.12461409799E+02  0.13702843516E+02  0.47000000000E+01 0. -1.
         -5    1    1    2    0  502 -0.75251482986E+00 -0.31344708765E+01  0.81674527622E+02  0.81873131420E+02  0.47000000000E+01 0. -1.
<mgrwt>
<rscale>  2 0.56992268E+01</rscale>
<asrwt>0</asrwt>
<pdfrwt beam="1">  1       21 0.14593214E-01 0.56992268E+01</pdfrwt>
<pdfrwt beam="2">  1       21 0.11077219E-03 0.56992268E+01</pdfrwt>
<totfact> 0.12016956E+09</totfact>
</mgrwt>
</event>
<event>
 4    1  0.3906087E+006  0.4827302E+01  0.7546771E-02  0.2598733E+00
         21   -1    0    0  501  502  0.00000000000E+00  0.00000000000E+00  0.15086124141E+00  0.15086124141E+00  0.00000000000E+00 0. -1.
         21   -1    0    0  502  503 -0.00000000000E+00 -0.00000000000E+00 -0.23257453910E+03  0.23257453910E+03  0.00000000000E+00 0. -1.
          5    1    1    2  501    0 -0.71009240300E+00 -0.84179312538E+00 -0.48777121594E+02  0.49015410208E+02  0.47000000000E+01 0. -1.
         -5    1    1    2    0  503  0.71009240300E+00  0.84179312538E+00 -0.18364655626E+03  0.18370999013E+03  0.47000000000E+01 0. -1.
<mgrwt>
<rscale>  2 0.48273022E+01</rscale>
<asrwt>0</asrwt>
<pdfrwt beam="1">  1       21 0.23209472E-04 0.48273022E+01</pdfrwt>
<pdfrwt beam="2">  1       21 0.35780622E-01 0.48273022E+01</pdfrwt>
<totfact> 0.19366741E+09</totfact>
</mgrwt>
</event>
<event>
 4    1  0.3906087E+006  0.4736608E+01  0.7546771E-02  0.2616113E+00
         21   -1    0    0  503  502  0.00000000000E+00  0.00000000000E+00  0.24517287107E+00  0.24517287107E+00  0.00000000000E+00 0.  1.
         21   -1    0    0  501  503 -0.00000000000E+00 -0.00000000000E+00 -0.12969549530E+03  0.12969549530E+03  0.00000000000E+00 0.  1.
          5    1    1    2  501    0  0.15051800802E+00 -0.56815591787E+00 -0.99979219552E+02  0.10009135726E+03  0.47000000000E+01 0.  1.
         -5    1    1    2    0  502 -0.15051800802E+00  0.56815591787E+00 -0.29471102880E+02  0.29849310909E+02  0.47000000000E+01 0.  1.
<mgrwt>
<rscale>  2 0.47366082E+01</rscale>
<asrwt>0</asrwt>
<pdfrwt beam="1">  1       21 0.37718871E-04 0.47366082E+01</pdfrwt>
<pdfrwt beam="2">  1       21 0.19953170E-01 0.47366082E+01</pdfrwt>
<totfact> 0.25972303E+09</totfact>
</mgrwt>
</event>
<event>
 4    1  0.3906087E+006  0.6932828E+01  0.7546771E-02  0.2307819E+00
         21   -1    0    0  503  502  0.00000000000E+00  0.00000000000E+00  0.18891750059E+01  0.18891750059E+01  0.00000000000E+00 0. -1.
         21   -1    0    0  501  503 -0.00000000000E+00 -0.00000000000E+00 -0.25727967942E+02  0.25727967942E+02  0.00000000000E+00 0.  1.
          5    1    1    2  501    0  0.47476851751E+01  0.18529948256E+01 -0.13375591923E+02  0.15065542262E+02  0.47000000000E+01 0.  1.
         -5    1    1    2    0  502 -0.47476851751E+01 -0.18529948256E+01 -0.10463201013E+02  0.12551600686E+02  0.47000000000E+01 0. -1.
<mgrwt>
<rscale>  2 0.69328280E+01</rscale>
<asrwt>0</asrwt>
<pdfrwt beam="1">  1       21 0.29064232E-03 0.69328280E+01</pdfrwt>
<pdfrwt beam="2">  1       21 0.39581487E-02 0.69328280E+01</pdfrwt>
<totfact> 0.27485198E+09</totfact>
</mgrwt>
</event>
<event>
 4    1  0.3906087E+006  0.5664404E+01  0.7546771E-02  0.2461262E+00
         21   -1    0    0  501  502  0.00000000000E+00  0.00000000000E+00  0.17973860597E+02  0.17973860597E+02  0.00000000000E+00 0.  1.
         21   -1    0    0  502  503 -0.00000000000E+00 -0.00000000000E+00 -0.20258670983E+01  0.20258670983E+01  0.00000000000E+00 0.  1.
          5    1    1    2  501    0 -0.12920207026E+01 -0.28855068279E+01  0.45267633289E+01  0.72510036123E+01  0.47000000000E+01 0.  1.
         -5    1    1    2    0  503  0.12920207026E+01  0.28855068279E+01  0.11421230170E+02  0.12748724083E+02  0.47000000000E+01 0.  1.
<mgrwt>
<rscale>  2 0.56644035E+01</rscale>
<asrwt>0</asrwt>
<pdfrwt beam="1">  1       21 0.27652092E-02 0.56644035E+01</pdfrwt>
<pdfrwt beam="2">  1       21 0.31167187E-03 0.56644035E+01</pdfrwt>
<totfact> 0.35488655E+09</totfact>
</mgrwt>
</event>
<event>
 4    1  0.3906087E+006  0.5412027E+01  0.7546771E-02  0.2498871E+00
         21   -1    0    0  501  502  0.00000000000E+00  0.00000000000E+00  0.61333570386E+01  0.61333570386E+01  0.00000000000E+00 0. -1.
         21   -1    0    0  502  503 -0.00000000000E+00 -0.00000000000E+00 -0.23551002360E+02  0.23551002360E+02  0.00000000000E+00 0. -1.
          5    1    1    2  501    0  0.26828325856E+01 -0.49449067403E-01  0.45433905144E+01  0.70662885067E+01  0.47000000000E+01 0. -1.
         -5    1    1    2    0  503 -0.26828325856E+01  0.49449067403E-01 -0.21961035836E+02  0.22618070892E+02  0.47000000000E+01 0. -1.
<mgrwt>
<rscale>  2 0.54120270E+01</rscale>
<asrwt>0</asrwt>
<pdfrwt beam="1">  1       21 0.94359339E-03 0.54120270E+01</pdfrwt>
<pdfrwt beam="2">  1       21 0.36232311E-02 0.54120270E+01</pdfrwt>
<totfact> 0.49733380E+08</totfact>
</mgrwt>
</event>
<event>
 4    1  0.3906087E+006  0.5218754E+01  0.7546771E-02  0.2529751E+00
         21   -1    0    0  501  502  0.00000000000E+00  0.00000000000E+00  0.21567803994E+02  0.21567803994E+02  0.00000000000E+00 0. -1.
         21   -1    0    0  502  503 -0.00000000000E+00 -0.00000000000E+00 -0.20558305398E+01  0.20558305398E+01  0.00000000000E+00 0. -1.
          5    1    1    2  501    0  0.21326303556E+01 -0.77284163854E+00  0.17092225084E+02  0.17871193434E+02  0.47000000000E+01 0. -1.
         -5    1    1    2    0  503 -0.21326303556E+01  0.77284163854E+00  0.24197483703E+01  0.57524410999E+01  0.47000000000E+01 0. -1.
<mgrwt>
<rscale>  2 0.52187543E+01</rscale>
<asrwt>0</asrwt>
<pdfrwt beam="1">  1       21 0.33181235E-02 0.52187543E+01</pdfrwt>
<pdfrwt beam="2">  1       21 0.31628164E-03 0.52187543E+01</pdfrwt>
<totfact> 0.24728918E+09</totfact>
</mgrwt>
</event>
<event>
 4    1  0.3906087E+006  0.6216445E+01  0.7546771E-02  0.2388076E+00
         21   -1    0    0  503  502  0.00000000000E+00  0.00000000000E+00  0.84038204446E+02  0.84038204446E+02  0.00000000000E+00 0.  1.
         21   -1    0    0  501  503 -0.00000000000E+00 -0.00000000000E+00 -0.52590975820E+00  0.52590975820E+00  0.00000000000E+00 0.  1.
          5    1    1    2  501    0  0.11863624627E+01  0.38918805159E+01  0.26769674494E+02  0.27481987962E+02  0.47000000000E+01 0.  1.
         -5    1    1    2    0  502 -0.11863624627E+01 -0.38918805159E+01  0.56742620194E+02  0.57082126242E+02  0.47000000000E+01 0.  1.
<mgrwt>
<rscale>  2 0.62164451E+01</rscale>
<asrwt>0</asrwt>
<pdfrwt beam="1">  1       21 0.12928944E-01 0.62164451E+01</pdfrwt>
<pdfrwt beam="2">  1       21 0.80909260E-04 0.62164451E+01</pdfrwt>
<totfact> 0.23781030E+09</totfact>
</mgrwt>
</event>
<event>
 4    1  0.3906087E+006  0.1035654E+02  0.7546771E-02  0.2055247E+00
         21   -1    0    0  503  502  0.00000000000E+00  0.00000000000E+00  0.46143311091E+02  0.46143311091E+02  0.00000000000E+00 0.  1.
         21   -1    0    0  501  503 -0.00000000000E+00 -0.00000000000E+00 -0.24280543570E+01  0.24280543570E+01  0.00000000000E+00 0.  1.
          5    1    1    2  501    0  0.54514656596E+01 -0.74464426329E+01  0.16841108086E+02  0.19770708315E+02  0.47000000000E+01 0.  1.
         -5    1    1    2    0  502 -0.54514656596E+01  0.74464426329E+01  0.26874148648E+02  0.28800657133E+02  0.47000000000E+01 0.  1.
<mgrwt>
<rscale>  2 0.10356543E+02</rscale>
<asrwt>0</asrwt>
<pdfrwt beam="1">  1       21 0.70989703E-02 0.10356543E+02</pdfrwt>
<pdfrwt beam="2">  1       21 0.37354686E-03 0.10356543E+02</pdfrwt>
<totfact> 0.10407781E+09</totfact>
</mgrwt>
</event>
<event>
 4    1  0.3906087E+006  0.6849748E+01  0.7546771E-02  0.2316413E+00
         21   -1    0    0  503  502  0.00000000000E+00  0.00000000000E+00  0.48455067291E+00  0.48455067291E+00  0.00000000000E+00 0.  1.
         21   -1    0    0  501  503 -0.00000000000E+00 -0.00000000000E+00 -0.21976036095E+03  0.21976036095E+03  0.00000000000E+00 0.  1.
          5    1    1    2  501    0 -0.45478623535E+01  0.20361732764E+01 -0.19200063695E+03  0.19212278273E+03  0.47000000000E+01 0.  1.
         -5    1    1    2    0  502  0.45478623535E+01 -0.20361732764E+01 -0.27275173320E+02  0.28122128889E+02  0.47000000000E+01 0.  1.
<mgrwt>
<rscale>  2 0.68497484E+01</rscale>
<asrwt>0</asrwt>
<pdfrwt beam="1">  1       21 0.74546178E-04 0.68497484E+01</pdfrwt>
<pdfrwt beam="2">  1       21 0.33809323E-01 0.68497484E+01</pdfrwt>
<totfact> 0.59164384E+08</totfact>
</mgrwt>
</event>
<event>
 4    1  0.3906087E+006  0.6196427E+01  0.7546771E-02  0.2390539E+00
         21   -1    0    0  501  502  0.00000000000E+00  0.00000000000E+00  0.20805223912E+02  0.20805223912E+02  0.00000000000E+00 0.  1.
         21   -1    0    0  502  503 -0.00000000000E+00 -0.00000000000E+00 -0.27933501791E+01  0.27933501791E+01  0.00000000000E+00 0.  1.
          5    1    1    2  501    0  0.78146611426E+00 -0.39616936625E+01  0.15879257589E+02  0.17045425414E+02  0.47000000000E+01 0.  1.
         -5    1    1    2    0  503 -0.78146611426E+00  0.39616936625E+01  0.21326161432E+01  0.65531486766E+01  0.47000000000E+01 0.  1.
<mgrwt>
<rscale>  2 0.61964269E+01</rscale>
<asrwt>0</asrwt>
<pdfrwt beam="1">  1       21 0.32008036E-02 0.61964269E+01</pdfrwt>
<pdfrwt beam="2">  1       21 0.42974620E-03 0.61964269E+01</pdfrwt>
<totfact> 0.19945546E+09</totfact>
</mgrwt>
</event>
<event>
 4    1  0.3906087E+006  0.4984988E+01  0.7546771E-02  0.2569824E+00
         21   -1    0    0  501  502  0.00000000000E+00  0.00000000000E+00  0.59519087501E+03  0.59519087501E+03  0.00000000000E+00 0. -1.
         21   -1    0    0  502  503 -0.00000000000E+00 -0.00000000000E+00 -0.51725464369E-01  0.51725464369E-01  0.00000000000E+00 0. -1.
          5    1    1    2  501    0 -0.16605158383E+01  0.52848924406E-01  0.16687849842E+03  0.16695293750E+03  0.47000000000E+01 0. -1.
         -5    1    1    2    0  503  0.16605158383E+01 -0.52848924406E-01  0.42826065113E+03  0.42828966297E+03  0.47000000000E+01 0. -1.
<mgrwt>
<rscale>  2 0.49849880E+01</rscale>
<asrwt>0</asrwt>
<pdfrwt beam="1">  1       21 0.91562342E-01 0.49849880E+01</pdfrwt>
<pdfrwt beam="2">  1       21 0.79582404E-05 0.49849880E+01</pdfrwt>
<totfact> 0.14914209E+09</totfact>
</mgrwt>
</event>
<event>
 4    1  0.3906087E+006  0.9430912E+01  0.7546771E-02  0.2108899E+00
         21   -1    0    0  501  502  0.00000000000E+00  0.00000000000E+00  0.83016916759E+00  0.83016916759E+00  0.00000000000E+00 0.  1.
         21   -1    0    0  502  503 -0.00000000000E+00 -0.00000000000E+00 -0.21194514616E+03  0.21194514616E+03  0.00000000000E+00 0. -1.
          5    1    1    2  501    0 -0.19400397641E+01 -0.79428172522E+01 -0.30744609960E+02  0.32158562496E+02  0.47000000000E+01 0.  1.
         -5    1    1    2    0  503  0.19400397641E+01  0.79428172522E+01 -0.18037036703E+03  0.18061675283E+03  0.47000000000E+01 0. -1.
<mgrwt>
<rscale>  2 0.94309119E+01</rscale>
<asrwt>0</asrwt>
<pdfrwt beam="1">  1       21 0.12771817E-03 0.94309119E+01</pdfrwt>
<pdfrwt beam="2">  1       21 0.32606988E-01 0.94309119E+01</pdfrwt>
<totfact> 0.36415271E+08</totfact>
</mgrwt>
</event>
<event>
 4    1  0.3906087E+006  0.6239727E+01  0.7546771E-02  0.2385229E+00
         21   -1    0    0  501  502  0.00000000000E+00  0.00000000000E+00  0.12944419689E+04  0.12944419689E+04  0.00000000000E+00 0. -1.
         21   -1    0    0  502  503 -0.00000000000E+00 -0.00000000000E+00 -0.33026264996E-01  0.33026264996E-01  0.00000000000E+00 0. -1.
          5    1    1    2  501    0  0.24485873582E+01  0.32937233183E+01  0.84058779903E+03  0.84061095762E+03  0.47000000000E+01 0. -1.
         -5    1    1    2    0  503 -0.24485873582E+01 -0.32937233183E+01  0.45382114361E+03  0.45386403755E+03  0.47000000000E+01 0. -1.
<mgrwt>
<rscale>  2 0.62397270E+01</rscale>
<asrwt>0</asrwt>
<pdfrwt beam="1">  1       21 0.19910429E+00 0.62397270E+01</pdfrwt>
<pdfrwt beam="2">  1       21 0.50820006E-05 0.62397270E+01</pdfrwt>
<totfact> 0.61836230E+08</totfact>
</mgrwt>
</event>
<event>
 4    1  0.3906087E+006  0.1359634E+02  0.7546771E-02  0.1914190E+00
         21   -1    0    0  501  502  0.00000000000E+00  0.00000000000E+00  0.98644520490E+01  0.98644520490E+01  0.00000000000E+00 0. -1.
         21   -1    0    0  502  503 -0.00000000000E+00 -0.00000000000E+00 -0.46949943936E+02  0.46949943936E+02  0.00000000000E+00 0.  1.
          5    1    1    2  501    0  0.52252851487E+01  0.11639019908E+02  0.34769610344E+01  0.14033874994E+02  0.47000000000E+01 0. -1.
         -5    1    1    2    0  503 -0.52252851487E+01 -0.11639019908E+02 -0.40562452921E+02  0.42780520991E+02  0.47000000000E+01 0.  1.
<mgrwt>
<rscale>  2 0.13596337E+02</rscale>
<asrwt>0</asrwt>
<pdfrwt beam="1">  1       21 0.15176080E-02 0.13596337E+02</pdfrwt>
<pdfrwt beam="2">  1       21 0.72230681E-02 0.13596337E+02</pdfrwt>
<totfact> 0.15063603E+08</totfact>
</mgrwt>
</event>
<event>
 4    1  0.3906087E+006  0.4812733E+01  0.7546771E-02  0.2601487E+00
         21   -1    0    0  503  502  0.00000000000E+00  0.00000000000E+00  0.59382656736E+00  0.59382656736E+00  0.00000000000E+00 0. -1.
         21   -1    0    0  501  503 -0.00000000000E+00 -0.00000000000E+00 -0.76086797730E+02  0.76086797730E+02  0.00000000000E+00 0.  1.
          5    1    1    2  501    0 -0.85070788791E+00 -0.59050038873E+00 -0.64512241559E+02  0.64691511851E+02  0.47000000000E+01 0.  1.
         -5    1    1    2    0  502  0.85070788791E+00  0.59050038873E+00 -0.10980729603E+02  0.11989112446E+02  0.47000000000E+01 0. -1.
<mgrwt>
<rscale>  2 0.48127326E+01</rscale>
<asrwt>0</asrwt>
<pdfrwt beam="1">  1       21 0.91357968E-04 0.48127326E+01</pdfrwt>
<pdfrwt beam="2">  1       21 0.11705657E-01 0.48127326E+01</pdfrwt>
<totfact> 0.18740440E+09</totfact>
</mgrwt>
</event>
<event>
 4    1  0.3906087E+006  0.6003194E+01  0.7546771E-02  0.2415008E+00
         21   -1    0    0  501  502  0.00000000000E+00  0.00000000000E+00  0.30704978397E+03  0.30704978397E+03  0.00000000000E+00 0. -1.
         21   -1    0    0  502  503 -0.00000000000E+00 -0.00000000000E+00 -0.32728375733E+00  0.32728375733E+00  0.00000000000E+00 0.  1.
          5    1    1    2  501    0 -0.35494220492E+01  0.11618683772E+01  0.27644480277E+03  0.27650997688E+03  0.47000000000E+01 0. -1.
         -5    1    1    2    0  503  0.35494220492E+01 -0.11618683772E+01  0.30277697436E+02  0.30867090842E+02  0.47000000000E+01 0.  1.
<mgrwt>
<rscale>  2 0.60031937E+01</rscale>
<asrwt>0</asrwt>
<pdfrwt beam="1">  1       21 0.47238198E-01 0.60031937E+01</pdfrwt>
<pdfrwt beam="2">  1       21 0.50351593E-04 0.60031937E+01</pdfrwt>
<totfact> 0.50944297E+08</totfact>
</mgrwt>
</event>
<event>
 4    1  0.3906087E+006  0.5291374E+01  0.7546771E-02  0.2517923E+00
         21   -1    0    0  501  502  0.00000000000E+00  0.00000000000E+00  0.86407809954E+01  0.86407809954E+01  0.00000000000E+00 0.  1.
         21   -1    0    0  502  503 -0.00000000000E+00 -0.00000000000E+00 -0.62617842246E+01  0.62617842246E+01  0.00000000000E+00 0.  1.
          5    1    1    2  501    0  0.24014790112E+01  0.37620866934E+00  0.63654819188E+01  0.82775596925E+01  0.47000000000E+01 0.  1.
         -5    1    1    2    0  503 -0.24014790112E+01 -0.37620866934E+00 -0.39864851480E+01  0.66250055275E+01  0.47000000000E+01 0.  1.
<mgrwt>
<rscale>  2 0.52913736E+01</rscale>
<asrwt>0</asrwt>
<pdfrwt beam="1">  1       21 0.13293509E-02 0.52913736E+01</pdfrwt>
<pdfrwt beam="2">  1       21 0.96335142E-03 0.52913736E+01</pdfrwt>
<totfact> 0.19838420E+09</totfact>
</mgrwt>
</event>
<event>
 4    1  0.3906087E+006  0.5089140E+01  0.7546771E-02  0.2551579E+00
         21   -1    0    0  501  502  0.00000000000E+00  0.00000000000E+00  0.28037986061E+00  0.28037986061E+00  0.00000000000E+00 0.  1.
         21   -1    0    0  502  503 -0.00000000000E+00 -0.00000000000E+00 -0.15192844163E+03  0.15192844163E+03  0.00000000000E+00 0.  1.
          5    1    1    2  501    0  0.16359085011E+00 -0.19448858448E+01 -0.12347299121E+03  0.12357782528E+03  0.47000000000E+01 0.  1.
         -5    1    1    2    0  503 -0.16359085011E+00  0.19448858448E+01 -0.28175070566E+02  0.28630996216E+02  0.47000000000E+01 0.  1.
<mgrwt>
<rscale>  2 0.50891397E+01</rscale>
<asrwt>0</asrwt>
<pdfrwt beam="1">  1       21 0.43135341E-04 0.50891397E+01</pdfrwt>
<pdfrwt beam="2">  1       21 0.23373619E-01 0.50891397E+01</pdfrwt>
<totfact> 0.18076146E+09</totfact>
</mgrwt>
</event>
<event>
 4    1  0.3906087E+006  0.5829004E+01  0.7546771E-02  0.2438225E+00
         21   -1    0    0  503  502  0.00000000000E+00  0.00000000000E+00  0.13098318339E+03  0.13098318339E+03  0.00000000000E+00 0.  1.
         21   -1    0    0  501  503 -0.00000000000E+00 -0.00000000000E+00 -0.25962525580E+00  0.25962525580E+00  0.00000000000E+00 0.  1.
          5    1    1    2  501    0 -0.33281336319E+01  0.90045246510E+00  0.67286464382E+02  0.67538474791E+02  0.47000000000E+01 0.  1.
         -5    1    1    2    0  502  0.33281336319E+01 -0.90045246510E+00  0.63437093757E+02  0.63704333859E+02  0.47000000000E+01 0.  1.
<mgrwt>
<rscale>  2 0.58290040E+01</rscale>
<asrwt>0</asrwt>
<pdfrwt beam="1">  1       21 0.20151206E-01 0.58290040E+01</pdfrwt>
<pdfrwt beam="2">  1       21 0.39942452E-04 0.58290040E+01</pdfrwt>
<totfact> 0.28660622E+09</totfact>
</mgrwt>
</event>
<event>
 4    1  0.3906087E+006  0.5656665E+01  0.7546771E-02  0.2462373E+00
         21   -1    0    0  503  502  0.00000000000E+00  0.00000000000E+00  0.18300751470E+02  0.18300751470E+02  0.00000000000E+00 0.  1.
         21   -1    0    0  501  503 -0.00000000000E+00 -0.00000000000E+00 -0.21275612052E+01  0.21275612052E+01  0.00000000000E+00 0.  1.
          5    1    1    2  501    0 -0.30923084196E+01 -0.58778026797E+00  0.37749038641E+01  0.68005702841E+01  0.47000000000E+01 0.  1.
         -5    1    1    2    0  502  0.30923084196E+01  0.58778026797E+00  0.12398286401E+02  0.13627742391E+02  0.47000000000E+01 0.  1.
<mgrwt>
<rscale>  2 0.56566648E+01</rscale>
<asrwt>0</asrwt>
<pdfrwt beam="1">  1       21 0.28155001E-02 0.56566648E+01</pdfrwt>
<pdfrwt beam="2">  1       21 0.32731712E-03 0.56566648E+01</pdfrwt>
<totfact> 0.32291118E+09</totfact>
</mgrwt>
</event>
<event>
 4    1  0.3906087E+006  0.6268496E+01  0.7546771E-02  0.2381736E+00
         21   -1    0    0  501  502  0.00000000000E+00  0.00000000000E+00  0.14787637077E+01  0.14787637077E+01  0.00000000000E+00 0. -1.
         21   -1    0    0  502  503 -0.00000000000E+00 -0.00000000000E+00 -0.46930619878E+02  0.46930619878E+02  0.00000000000E+00 0.  1.
          5    1    1    2  501    0  0.40311300442E+01  0.97674339590E+00 -0.67839130749E+01  0.92366397409E+01  0.47000000000E+01 0. -1.
         -5    1    1    2    0  503 -0.40311300442E+01 -0.97674339590E+00 -0.38667943095E+02  0.39172743844E+02  0.47000000000E+01 0.  1.
<mgrwt>
<rscale>  2 0.62684956E+01</rscale>
<asrwt>0</asrwt>
<pdfrwt beam="1">  1       21 0.22750208E-03 0.62684956E+01</pdfrwt>
<pdfrwt beam="2">  1       21 0.72200962E-02 0.62684956E+01</pdfrwt>
<totfact> 0.14455223E+09</totfact>
</mgrwt>
</event>
<event>
 4    1  0.3906087E+006  0.6613990E+01  0.7546771E-02  0.2341763E+00
         21   -1    0    0  503  502  0.00000000000E+00  0.00000000000E+00  0.12072932573E+00  0.12072932573E+00  0.00000000000E+00 0. -1.
         21   -1    0    0  501  503 -0.00000000000E+00 -0.00000000000E+00 -0.50958580779E+03  0.50958580779E+03  0.00000000000E+00 0. -1.
          5    1    1    2  501    0  0.45581169525E+01 -0.93724647690E+00 -0.39172778385E+03  0.39178361567E+03  0.47000000000E+01 0. -1.
         -5    1    1    2    0  502 -0.45581169525E+01  0.93724647690E+00 -0.11773729461E+03  0.11792292145E+03  0.47000000000E+01 0. -1.
<mgrwt>
<rscale>  2 0.66139898E+01</rscale>
<asrwt>0</asrwt>
<pdfrwt beam="1">  1       21 0.18573729E-04 0.66139898E+01</pdfrwt>
<pdfrwt beam="2">  1       21 0.78397874E-01 0.66139898E+01</pdfrwt>
<totfact> 0.80240406E+08</totfact>
</mgrwt>
</event>
<event>
 4    1  0.3906087E+006  0.9319744E+01  0.7546771E-02  0.2115903E+00
         21   -1    0    0  503  502  0.00000000000E+00  0.00000000000E+00  0.29619144481E+01  0.29619144481E+01  0.00000000000E+00 0. -1.
         21   -1    0    0  501  503 -0.00000000000E+00 -0.00000000000E+00 -0.59164099476E+02  0.59164099476E+02  0.00000000000E+00 0.  1.
          5    1    1    2  501    0  0.69112072451E+01  0.41234513742E+01 -0.50161242459E+02  0.51019681319E+02  0.47000000000E+01 0.  1.
         -5    1    1    2    0  502 -0.69112072451E+01 -0.41234513742E+01 -0.60409425685E+01  0.11106332605E+02  0.47000000000E+01 0. -1.
<mgrwt>
<rscale>  2 0.93197445E+01</rscale>
<asrwt>0</asrwt>
<pdfrwt beam="1">  1       21 0.45567918E-03 0.93197445E+01</pdfrwt>
<pdfrwt beam="2">  1       21 0.91021685E-02 0.93197445E+01</pdfrwt>
<totfact> 0.50134665E+08</totfact>
</mgrwt>
</event>
<event>
 4    1  0.3906087E+006  0.1099976E+02  0.7546771E-02  0.2022190E+00
         21   -1    0    0  503  502  0.00000000000E+00  0.00000000000E+00  0.84204612754E+00  0.84204612754E+00  0.00000000000E+00 0. -1.
         21   -1    0    0  501  503 -0.00000000000E+00 -0.00000000000E+00 -0.18498543571E+03  0.18498543571E+03  0.00000000000E+00 0.  1.
          5    1    1    2  501    0 -0.89999925975E+01 -0.42314045711E+01 -0.13597080206E+03  0.13641500528E+03  0.47000000000E+01 0.  1.
         -5    1    1    2    0  502  0.89999925975E+01  0.42314045711E+01 -0.48172587517E+02  0.49412476557E+02  0.47000000000E+01 0. -1.
<mgrwt>
<rscale>  2 0.10999757E+02</rscale>
<asrwt>0</asrwt>
<pdfrwt beam="1">  1       21 0.12954539E-03 0.10999757E+02</pdfrwt>
<pdfrwt beam="2">  1       21 0.28459336E-01 0.10999757E+02</pdfrwt>
<totfact> 0.48888539E+08</totfact>
</mgrwt>
</event>
<event>
 4    1  0.3906087E+006  0.7638105E+01  0.7546771E-02  0.2241098E+00
         21   -1    0    0  501  502  0.00000000000E+00  0.00000000000E+00  0.56594314528E+02  0.56594314528E+02  0.00000000000E+00 0.  1.
         21   -1    0    0  502  503 -0.00000000000E+00 -0.00000000000E+00 -0.11360089403E+01  0.11360089403E+01  0.00000000000E+00 0. -1.
          5    1    1    2  501    0 -0.60152433218E+01 -0.25978935589E+00  0.36511120980E+02  0.37301509326E+02  0.47000000000E+01 0.  1.
         -5    1    1    2    0  503  0.60152433218E+01  0.25978935589E+00  0.18947184607E+02  0.20428814143E+02  0.47000000000E+01 0. -1.
<mgrwt>
<rscale>  2 0.76381047E+01</rscale>
<asrwt>0</asrwt>
<pdfrwt beam="1">  1       21 0.87068154E-02 0.76381047E+01</pdfrwt>
<pdfrwt beam="2">  1       21 0.17477065E-03 0.76381047E+01</pdfrwt>
<totfact> 0.18074773E+09</totfact>
</mgrwt>
</event>
<event>
 4    1  0.3906087E+006  0.4918549E+01  0.7546771E-02  0.2581809E+00
         21   -1    0    0  501  502  0.00000000000E+00  0.00000000000E+00  0.88655789084E+02  0.88655789084E+02  0.00000000000E+00 0. -1.
         21   -1    0    0  502  503 -0.00000000000E+00 -0.00000000000E+00 -0.27289267766E+00  0.27289267766E+00  0.00000000000E+00 0. -1.
          5    1    1    2  501    0 -0.13588529102E+01 -0.50561497505E+00  0.43854667279E+02  0.44129626895E+02  0.47000000000E+01 0. -1.
         -5    1    1    2    0  503  0.13588529102E+01  0.50561497505E+00  0.44528229128E+02  0.44799054867E+02  0.47000000000E+01 0. -1.
<mgrwt>
<rscale>  2 0.49185494E+01</rscale>
<asrwt>0</asrwt>
<pdfrwt beam="1">  1       21 0.13639329E-01 0.49185494E+01</pdfrwt>
<pdfrwt beam="2">  1       21 0.41983560E-04 0.49185494E+01</pdfrwt>
<totfact> 0.42397079E+09</totfact>
</mgrwt>
</event>
<event>
 4    1  0.3906087E+006  0.6526754E+01  0.7546771E-02  0.2351524E+00
         21   -1    0    0  501  502  0.00000000000E+00  0.00000000000E+00  0.11771929678E+01  0.11771929678E+01  0.00000000000E+00 0.  1.
         21   -1    0    0  502  503 -0.00000000000E+00 -0.00000000000E+00 -0.87542947726E+02  0.87542947726E+02  0.00000000000E+00 0.  1.
          5    1    1    2  501    0 -0.43464674259E+01  0.12715090461E+01 -0.92063447718E+01  0.11285180477E+02  0.47000000000E+01 0.  1.
         -5    1    1    2    0  503  0.43464674259E+01 -0.12715090461E+01 -0.77159409986E+02  0.77434960217E+02  0.47000000000E+01 0.  1.
<mgrwt>
<rscale>  2 0.65267537E+01</rscale>
<asrwt>0</asrwt>
<pdfrwt beam="1">  1       21 0.18110662E-03 0.65267537E+01</pdfrwt>
<pdfrwt beam="2">  1       21 0.13468145E-01 0.65267537E+01</pdfrwt>
<totfact> 0.77870614E+08</totfact>
</mgrwt>
</event>
<event>
 4    1  0.3906087E+006  0.9815116E+01  0.7546771E-02  0.2085665E+00
         21   -1    0    0  501  502  0.00000000000E+00  0.00000000000E+00  0.13401124618E+02  0.13401124618E+02  0.00000000000E+00 0.  1.
         21   -1    0    0  502  503 -0.00000000000E+00 -0.00000000000E+00 -0.28909098154E+02  0.28909098154E+02  0.00000000000E+00 0. -1.
          5    1    1    2  501    0 -0.77931317707E+01 -0.36760841823E+01  0.10583172621E+02  0.14433989069E+02  0.47000000000E+01 0.  1.
         -5    1    1    2    0  503  0.77931317707E+01  0.36760841823E+01 -0.26091146157E+02  0.27876233704E+02  0.47000000000E+01 0. -1.
<mgrwt>
<rscale>  2 0.98151158E+01</rscale>
<asrwt>0</asrwt>
<pdfrwt beam="1">  1       21 0.20617115E-02 0.98151158E+01</pdfrwt>
<pdfrwt beam="2">  1       21 0.44475535E-02 0.98151158E+01</pdfrwt>
<totfact> 0.17528113E+08</totfact>
</mgrwt>
</event>
<event>
 4    1  0.3906087E+006  0.5257996E+01  0.7546771E-02  0.2523325E+00
         21   -1    0    0  503  502  0.00000000000E+00  0.00000000000E+00  0.77934021499E+03  0.77934021499E+03  0.00000000000E+00 0. -1.
         21   -1    0    0  501  503 -0.00000000000E+00 -0.00000000000E+00 -0.12444378747E+00  0.12444378747E+00  0.00000000000E+00 0.  1.
          5    1    1    2  501    0  0.22739406328E+01  0.62106318770E+00  0.60073726485E+02  0.60303392436E+02  0.47000000000E+01 0.  1.
         -5    1    1    2    0  502 -0.22739406328E+01 -0.62106318770E+00  0.71914204472E+03  0.71916126635E+03  0.47000000000E+01 0. -1.
<mgrwt>
<rscale>  2 0.52579963E+01</rscale>
<asrwt>0</asrwt>
<pdfrwt beam="1">  1       21 0.11989459E+00 0.52579963E+01</pdfrwt>
<pdfrwt beam="2">  1       21 0.19145822E-04 0.52579963E+01</pdfrwt>
<totfact> 0.28156561E+08</totfact>
</mgrwt>
</event>
<event>
 4    1  0.3906087E+006  0.2221004E+02  0.7546771E-02  0.1704645E+00
         21   -1    0    0  501  502  0.00000000000E+00  0.00000000000E+00  0.39694692068E+01  0.39694692068E+01  0.00000000000E+00 0. -1.
         21   -1    0    0  502  503 -0.00000000000E+00 -0.00000000000E+00 -0.12437788445E+03  0.12437788445E+03  0.00000000000E+00 0.  1.
          5    1    1    2  501    0 -0.21667920383E+02  0.13026827040E+01 -0.62094622926E+02  0.65947160305E+02  0.47000000000E+01 0.  1.
         -5    1    1    2    0  503  0.21667920383E+02 -0.13026827040E+01 -0.58313792315E+02  0.62400193350E+02  0.47000000000E+01 0. -1.
<mgrwt>
<rscale>  2 0.22210037E+02</rscale>
<asrwt>0</asrwt>
<pdfrwt beam="1">  1       21 0.61068762E-03 0.22210037E+02</pdfrwt>
<pdfrwt beam="2">  1       21 0.19135058E-01 0.22210037E+02</pdfrwt>
<totfact> 0.13744623E+08</totfact>
</mgrwt>
</event>
<event>
 4    1  0.3906087E+006  0.6030010E+01  0.7546771E-02  0.2411534E+00
         21   -1    0    0  501  502  0.00000000000E+00  0.00000000000E+00  0.32455894514E+00  0.32455894514E+00  0.00000000000E+00 0. -1.
         21   -1    0    0  502  503 -0.00000000000E+00 -0.00000000000E+00 -0.20309121881E+03  0.20309121881E+03  0.00000000000E+00 0. -1.
          5    1    1    2  501    0  0.59544440756E+00  0.37304775698E+01 -0.33279613439E+02  0.33821497418E+02  0.47000000000E+01 0. -1.
         -5    1    1    2    0  503 -0.59544440756E+00 -0.37304775698E+01 -0.16948704643E+03  0.16959428034E+03  0.47000000000E+01 0. -1.
<mgrwt>
<rscale>  2 0.60300097E+01</rscale>
<asrwt>0</asrwt>
<pdfrwt beam="1">  1       21 0.49931943E-04 0.60300097E+01</pdfrwt>
<pdfrwt beam="2">  1       21 0.31244930E-01 0.60300097E+01</pdfrwt>
<totfact> 0.10596816E+09</totfact>
</mgrwt>
</event>
<event>
 4    1  0.3906087E+006  0.1986821E+02  0.7546771E-02  0.1747962E+00
         21   -1    0    0  503  502  0.00000000000E+00  0.00000000000E+00  0.24057758026E+01  0.24057758026E+01  0.00000000000E+00 0.  1.
         21   -1    0    0  501  503 -0.00000000000E+00 -0.00000000000E+00 -0.22687378298E+03  0.22687378298E+03  0.00000000000E+00 0. -1.
          5    1    1    2  501    0  0.12817223307E+02 -0.14435185332E+02 -0.17254447841E+03  0.17368460732E+03  0.47000000000E+01 0. -1.
         -5    1    1    2    0  502 -0.12817223307E+02  0.14435185332E+02 -0.51923528771E+02  0.55594951469E+02  0.47000000000E+01 0.  1.
<mgrwt>
<rscale>  2 0.19868211E+02</rscale>
<asrwt>0</asrwt>
<pdfrwt beam="1">  1       21 0.37011910E-03 0.19868211E+02</pdfrwt>
<pdfrwt beam="2">  1       21 0.34903683E-01 0.19868211E+02</pdfrwt>
<totfact> 0.95051948E+07</totfact>
</mgrwt>
</event>
<event>
 4    1  0.3906087E+006  0.5334610E+01  0.7546771E-02  0.2511011E+00
         21   -1    0    0  503  502  0.00000000000E+00  0.00000000000E+00  0.29548568077E+00  0.29548568077E+00  0.00000000000E+00 0. -1.
         21   -1    0    0  501  503 -0.00000000000E+00 -0.00000000000E+00 -0.37686163201E+03  0.37686163201E+03  0.00000000000E+00 0. -1.
          5    1    1    2  501    0  0.25025494317E+01  0.32452093672E+00 -0.35099079520E+03  0.35103133248E+03  0.47000000000E+01 0. -1.
         -5    1    1    2    0  502 -0.25025494317E+01 -0.32452093672E+00 -0.25575351126E+02  0.26125785208E+02  0.47000000000E+01 0. -1.
<mgrwt>
<rscale>  2 0.53346103E+01</rscale>
<asrwt>0</asrwt>
<pdfrwt beam="1">  1       21 0.45459294E-04 0.53346103E+01</pdfrwt>
<pdfrwt beam="2">  1       21 0.57978765E-01 0.53346103E+01</pdfrwt>
<totfact> 0.37029742E+08</totfact>
</mgrwt>
</event>
<event>
 4    1  0.3906087E+006  0.5630016E+01  0.7546771E-02  0.2466218E+00
         21   -1    0    0  503  502  0.00000000000E+00  0.00000000000E+00  0.34305075629E+02  0.34305075629E+02  0.00000000000E+00 0. -1.
         21   -1    0    0  501  503 -0.00000000000E+00 -0.00000000000E+00 -0.42713192662E+02  0.42713192662E+02  0.00000000000E+00 0. -1.
          5    1    1    2  501    0  0.17223545766E+01 -0.25769313142E+01 -0.42294398553E+02  0.42667472731E+02  0.47000000000E+01 0. -1.
         -5    1    1    2    0  502 -0.17223545766E+01  0.25769313142E+01  0.33886281520E+02  0.34350795559E+02  0.47000000000E+01 0. -1.
<mgrwt>
<rscale>  2 0.56300160E+01</rscale>
<asrwt>0</asrwt>
<pdfrwt beam="1">  1       21 0.52777039E-02 0.56300160E+01</pdfrwt>
<pdfrwt beam="2">  1       21 0.65712604E-02 0.56300160E+01</pdfrwt>
<totfact> 0.17994303E+07</totfact>
</mgrwt>
</event>
<event>
 4    1  0.3906087E+006  0.6278519E+01  0.7546771E-02  0.2380525E+00
         21   -1    0    0  503  502  0.00000000000E+00  0.00000000000E+00  0.83639805431E+03  0.83639805431E+03  0.00000000000E+00 0.  1.
         21   -1    0    0  501  503 -0.00000000000E+00 -0.00000000000E+00 -0.96833141007E-01  0.96833141007E-01  0.00000000000E+00 0. -1.
          5    1    1    2  501    0 -0.10850659213E+01 -0.40190091154E+01  0.11850265977E+03  0.11866886776E+03  0.47000000000E+01 0. -1.
         -5    1    1    2    0  502  0.10850659213E+01  0.40190091154E+01  0.71779856140E+03  0.71782601969E+03  0.47000000000E+01 0.  1.
<mgrwt>
<rscale>  2 0.62785191E+01</rscale>
<asrwt>0</asrwt>
<pdfrwt beam="1">  1       21 0.12867084E+00 0.62785191E+01</pdfrwt>
<pdfrwt beam="2">  1       21 0.14898076E-04 0.62785191E+01</pdfrwt>
<totfact> 0.38054166E+08</totfact>
</mgrwt>
</event>
<event>
 4    1  0.3906087E+006  0.8755473E+01  0.7546771E-02  0.2153605E+00
         21   -1    0    0  501  502  0.00000000000E+00  0.00000000000E+00  0.16311324627E+01  0.16311324627E+01  0.00000000000E+00 0. -1.
         21   -1    0    0  502  503 -0.00000000000E+00 -0.00000000000E+00 -0.80351623195E+02  0.80351623195E+02  0.00000000000E+00 0.  1.
          5    1    1    2  501    0  0.50741044949E+01  0.53685918652E+01 -0.12949948823E+02  0.15632002097E+02  0.47000000000E+01 0. -1.
         -5    1    1    2    0  503 -0.50741044949E+01 -0.53685918652E+01 -0.65770541909E+02  0.66350753561E+02  0.47000000000E+01 0.  1.
<mgrwt>
<rscale>  2 0.87554734E+01</rscale>
<asrwt>0</asrwt>
<pdfrwt beam="1">  1       21 0.25094354E-03 0.87554734E+01</pdfrwt>
<pdfrwt beam="2">  1       21 0.12361784E-01 0.87554734E+01</pdfrwt>
<totfact> 0.68928196E+08</totfact>
</mgrwt>
</event>
<event>
 4    1  0.3906087E+006  0.5184619E+01  0.7546771E-02  0.2535409E+00
         21   -1    0    0  503  502  0.00000000000E+00  0.00000000000E+00  0.59337939859E+01  0.59337939859E+01  0.00000000000E+00 0.  1.
         21   -1    0    0  501  503 -0.00000000000E+00 -0.00000000000E+00 -0.14538850939E+02  0.14538850939E+02  0.00000000000E+00 0.  1.
          5    1    1    2  501    0 -0.21268463010E+01  0.51652203189E+00 -0.12795709026E+02  0.13806173970E+02  0.47000000000E+01 0.  1.
         -5    1    1    2    0  502  0.21268463010E+01 -0.51652203189E+00  0.41906520732E+01  0.66664709552E+01  0.47000000000E+01 0.  1.
<mgrwt>
<rscale>  2 0.51846186E+01</rscale>
<asrwt>0</asrwt>
<pdfrwt beam="1">  1       21 0.91289139E-03 0.51846186E+01</pdfrwt>
<pdfrwt beam="2">  1       21 0.22367463E-02 0.51846186E+01</pdfrwt>
<totfact> 0.10032252E+09</totfact>
</mgrwt>
</event>
<event>
 4    1  0.3906087E+006  0.9016813E+01  0.7546771E-02  0.2135678E+00
         21   -1    0    0  501  502  0.00000000000E+00  0.00000000000E+00  0.17456386261E+01  0.17456386261E+01  0.00000000000E+00 0. -1.
         21   -1    0    0  502  503 -0.00000000000E+00 -0.00000000000E+00 -0.51071436512E+02  0.51071436512E+02  0.00000000000E+00 0.  1.
          5    1    1    2  501    0  0.44119792963E+01 -0.63045499087E+01 -0.16826883084E+02  0.19090492534E+02  0.47000000000E+01 0. -1.
         -5    1    1    2    0  503 -0.44119792963E+01  0.63045499087E+01 -0.32498914802E+02  0.33726582605E+02  0.47000000000E+01 0.  1.
<mgrwt>
<rscale>  2 0.90168127E+01</rscale>
<asrwt>0</asrwt>
<pdfrwt beam="1">  1       21 0.26855983E-03 0.90168127E+01</pdfrwt>
<pdfrwt beam="2">  1       21 0.78571428E-02 0.90168127E+01</pdfrwt>
<totfact> 0.13035192E+09</totfact>
</mgrwt>
</event>
<event>
 4    1  0.3906087E+006  0.5083605E+01  0.7546771E-02  0.2552533E+00
         21   -1    0    0  501  502  0.00000000000E+00  0.00000000000E+00  0.60604254905E+01  0.60604254905E+01  0.00000000000E+00 0.  1.
         21   -1    0    0  502  503 -0.00000000000E+00 -0.00000000000E+00 -0.13328724080E+02  0.13328724080E+02  0.00000000000E+00 0.  1.
          5    1    1    2  501    0  0.18786202609E+01  0.47309947976E+00  0.43606267894E+01  0.66976192187E+01  0.47000000000E+01 0.  1.
         -5    1    1    2    0  503 -0.18786202609E+01 -0.47309947976E+00 -0.11628925379E+02  0.12691530352E+02  0.47000000000E+01 0.  1.
<mgrwt>
<rscale>  2 0.50836047E+01</rscale>
<asrwt>0</asrwt>
<pdfrwt beam="1">  1       21 0.93237316E-03 0.50836047E+01</pdfrwt>
<pdfrwt beam="2">  1       21 0.20505729E-02 0.50836047E+01</pdfrwt>
<totfact> 0.10821237E+09</totfact>
</mgrwt>
</event>
<event>
 4    1  0.3906087E+006  0.5592616E+01  0.7546771E-02  0.2471667E+00
         21   -1    0    0  503  502  0.00000000000E+00  0.00000000000E+00  0.28366576844E+00  0.28366576844E+00  0.00000000000E+00 0. -1.
         21   -1    0    0  501  503 -0.00000000000E+00 -0.00000000000E+00 -0.16868323732E+03  0.16868323732E+03  0.00000000000E+00 0. -1.
          5    1    1    2  501    0 -0.22287605503E+01 -0.20542588467E+01 -0.13391893707E+03  0.13403566338E+03  0.47000000000E+01 0. -1.
         -5    1    1    2    0  502  0.22287605503E+01  0.20542588467E+01 -0.34480634489E+02  0.34931239711E+02  0.47000000000E+01 0. -1.
<mgrwt>
<rscale>  2 0.55926159E+01</rscale>
<asrwt>0</asrwt>
<pdfrwt beam="1">  1       21 0.43640832E-04 0.55926159E+01</pdfrwt>
<pdfrwt beam="2">  1       21 0.25951300E-01 0.55926159E+01</pdfrwt>
<totfact> 0.16292041E+09</totfact>
</mgrwt>
</event>
<event>
 4    1  0.3906087E+006  0.6922769E+01  0.7546771E-02  0.2308851E+00
         21   -1    0    0  503  502  0.00000000000E+00  0.00000000000E+00  0.15391736965E+03  0.15391736965E+03  0.00000000000E+00 0.  1.
         21   -1    0    0  501  503 -0.00000000000E+00 -0.00000000000E+00 -0.45441709800E+00  0.45441709800E+00  0.00000000000E+00 0.  1.
          5    1    1    2  501    0  0.13539249094E+01 -0.48991451982E+01  0.33424764578E+02  0.34134141610E+02  0.47000000000E+01 0.  1.
         -5    1    1    2    0  502 -0.13539249094E+01  0.48991451982E+01  0.12003818797E+03  0.12023764514E+03  0.47000000000E+01 0.  1.
<mgrwt>
<rscale>  2 0.69227694E+01</rscale>
<asrwt>0</asrwt>
<pdfrwt beam="1">  1       21 0.23679554E-01 0.69227694E+01</pdfrwt>
<pdfrwt beam="2">  1       21 0.69910446E-04 0.69227694E+01</pdfrwt>
<totfact> 0.11864576E+09</totfact>
</mgrwt>
</event>
<event>
 4    1  0.3906087E+006  0.5611509E+01  0.7546771E-02  0.2468906E+00
         21   -1    0    0  503  502  0.00000000000E+00  0.00000000000E+00  0.15822044466E+02  0.15822044466E+02  0.00000000000E+00 0.  1.
         21   -1    0    0  501  503 -0.00000000000E+00 -0.00000000000E+00 -0.23337359449E+01  0.23337359449E+01  0.00000000000E+00 0.  1.
          5    1    1    2  501    0  0.25160314403E+01  0.17517459034E+01  0.32612193422E+01  0.64903451000E+01  0.47000000000E+01 0.  1.
         -5    1    1    2    0  502 -0.25160314403E+01 -0.17517459034E+01  0.10227089179E+02  0.11665435311E+02  0.47000000000E+01 0.  1.
<mgrwt>
<rscale>  2 0.56115085E+01</rscale>
<asrwt>0</asrwt>
<pdfrwt beam="1">  1       21 0.24341606E-02 0.56115085E+01</pdfrwt>
<pdfrwt beam="2">  1       21 0.35903631E-03 0.56115085E+01</pdfrwt>
<totfact> 0.34822663E+09</totfact>
</mgrwt>
</event>
<event>
 4    1  0.3906087E+006  0.8288040E+01  0.7546771E-02  0.2187897E+00
         21   -1    0    0  503  502  0.00000000000E+00  0.00000000000E+00  0.19441219501E+02  0.19441219501E+02  0.00000000000E+00 0. -1.
         21   -1    0    0  501  503 -0.00000000000E+00 -0.00000000000E+00 -0.99469282518E+01  0.99469282518E+01  0.00000000000E+00 0.  1.
          5    1    1    2  501    0  0.68040841975E+01  0.55321469915E+00 -0.70519768666E+01  0.10882186637E+02  0.47000000000E+01 0.  1.
         -5    1    1    2    0  502 -0.68040841975E+01 -0.55321469915E+00  0.16546268116E+02  0.18505961116E+02  0.47000000000E+01 0. -1.
<mgrwt>
<rscale>  2 0.82880401E+01</rscale>
<asrwt>0</asrwt>
<pdfrwt beam="1">  1       21 0.29909568E-02 0.82880401E+01</pdfrwt>
<pdfrwt beam="2">  1       21 0.15302967E-02 0.82880401E+01</pdfrwt>
<totfact> 0.44822721E+08</totfact>
</mgrwt>
</event>
<event>
 4    1  0.3906087E+006  0.4865807E+01  0.7546771E-02  0.2591524E+00
         21   -1    0    0  501  502  0.00000000000E+00  0.00000000000E+00  0.14375360539E+03  0.14375360539E+03  0.00000000000E+00 0.  1.
         21   -1    0    0  502  503 -0.00000000000E+00 -0.00000000000E+00 -0.30821095278E+01  0.30821095278E+01  0.00000000000E+00 0.  1.
          5    1    1    2  501    0  0.21560143277E+00  0.12408034116E+01  0.14176505618E+03  0.14184853623E+03  0.47000000000E+01 0.  1.
         -5    1    1    2    0  503 -0.21560143277E+00 -0.12408034116E+01 -0.10935603182E+01  0.49871786867E+01  0.47000000000E+01 0.  1.
<mgrwt>
<rscale>  2 0.48658069E+01</rscale>
<asrwt>0</asrwt>
<pdfrwt beam="1">  1       21 0.22115934E-01 0.48658069E+01</pdfrwt>
<pdfrwt beam="2">  1       21 0.47417081E-03 0.48658069E+01</pdfrwt>
<totfact> 0.76604957E+07</totfact>
</mgrwt>
</event>
<event>
 4    1  0.3906087E+006  0.6590832E+01  0.7546771E-02  0.2344333E+00
         21   -1    0    0  503  502  0.00000000000E+00  0.00000000000E+00  0.79043233594E+01  0.79043233594E+01  0.00000000000E+00 0. -1.
         21   -1    0    0  501  503 -0.00000000000E+00 -0.00000000000E+00 -0.67505907542E+01  0.67505907542E+01  0.00000000000E+00 0.  1.
          5    1    1    2  501    0  0.23233401636E+01 -0.39938895878E+01 -0.25825092389E+01  0.70787299373E+01  0.47000000000E+01 0.  1.
         -5    1    1    2    0  502 -0.23233401636E+01  0.39938895878E+01  0.37362418442E+01  0.75761841763E+01  0.47000000000E+01 0.  1.
<mgrwt>
<rscale>  2 0.65908318E+01</rscale>
<asrwt>0</asrwt>
<pdfrwt beam="1">  1       21 0.12160498E-02 0.65908318E+01</pdfrwt>
<pdfrwt beam="2">  1       21 0.10385524E-02 0.65908318E+01</pdfrwt>
<totfact> 0.24582038E+09</totfact>
</mgrwt>
</event>
<event>
 4    1  0.3906087E+006  0.6285729E+01  0.7546771E-02  0.2379656E+00
         21   -1    0    0  503  502  0.00000000000E+00  0.00000000000E+00  0.42801572058E+01  0.42801572058E+01  0.00000000000E+00 0.  1.
         21   -1    0    0  501  503 -0.00000000000E+00 -0.00000000000E+00 -0.14360991288E+02  0.14360991288E+02  0.00000000000E+00 0.  1.
          5    1    1    2  501    0  0.13990549437E+01  0.39323065147E+01 -0.10611071523E+02  0.12333094832E+02  0.47000000000E+01 0.  1.
         -5    1    1    2    0  502 -0.13990549437E+01 -0.39323065147E+01  0.53023744069E+00  0.63080536622E+01  0.47000000000E+01 0.  1.
<mgrwt>
<rscale>  2 0.62857290E+01</rscale>
<asrwt>0</asrwt>
<pdfrwt beam="1">  1       21 0.65848571E-03 0.62857290E+01</pdfrwt>
<pdfrwt beam="2">  1       21 0.22093833E-02 0.62857290E+01</pdfrwt>
<totfact> 0.19076005E+09</totfact>
</mgrwt>
</event>
<event>
 4    1  0.3906087E+006  0.4834249E+01  0.7546771E-02  0.2597425E+00
         21   -1    0    0  501  502  0.00000000000E+00  0.00000000000E+00  0.13624598526E+03  0.13624598526E+03  0.00000000000E+00 0. -1.
         21   -1    0    0  502  503 -0.00000000000E+00 -0.00000000000E+00 -0.17444847773E+00  0.17444847773E+00  0.00000000000E+00 0. -1.
          5    1    1    2  501    0  0.11067158241E+01 -0.23482371481E+00  0.76861774338E+02  0.77013650196E+02  0.47000000000E+01 0. -1.
         -5    1    1    2    0  503 -0.11067158241E+01  0.23482371481E+00  0.59209762440E+02  0.59406783538E+02  0.47000000000E+01 0. -1.
<mgrwt>
<rscale>  2 0.48342489E+01</rscale>
<asrwt>0</asrwt>
<pdfrwt beam="1">  1       21 0.20960836E-01 0.48342489E+01</pdfrwt>
<pdfrwt beam="2">  1       21 0.26838336E-04 0.48342489E+01</pdfrwt>
<totfact> 0.38431569E+09</totfact>
</mgrwt>
</event>
<event>
 4    1  0.3906087E+006  0.5256525E+01  0.7546771E-02  0.2523564E+00
         21   -1    0    0  501  502  0.00000000000E+00  0.00000000000E+00  0.17463814751E+00  0.17463814751E+00  0.00000000000E+00 0.  1.
         21   -1    0    0  502  503 -0.00000000000E+00 -0.00000000000E+00 -0.16713764345E+03  0.16713764345E+03  0.00000000000E+00 0.  1.
          5    1    1    2  501    0  0.27809891359E+00  0.23374582416E+01 -0.64156778671E+02  0.64371758555E+02  0.47000000000E+01 0.  1.
         -5    1    1    2    0  503 -0.27809891359E+00 -0.23374582416E+01 -0.10280622663E+03  0.10294052304E+03  0.47000000000E+01 0.  1.
<mgrwt>
<rscale>  2 0.52565245E+01</rscale>
<asrwt>0</asrwt>
<pdfrwt beam="1">  1       21 0.26867484E-04 0.52565245E+01</pdfrwt>
<pdfrwt beam="2">  1       21 0.25713410E-01 0.52565245E+01</pdfrwt>
<totfact> 0.29870043E+09</totfact>
</mgrwt>
</event>
<event>
 4    1  0.3906087E+006  0.5162370E+01  0.7546771E-02  0.2539131E+00
         21   -1    0    0  503  502  0.00000000000E+00  0.00000000000E+00  0.21042029414E+00  0.21042029414E+00  0.00000000000E+00 0. -1.
         21   -1    0    0  501  503 -0.00000000000E+00 -0.00000000000E+00 -0.14465262533E+03  0.14465262533E+03  0.00000000000E+00 0. -1.
          5    1    1    2  501    0  0.16306504482E+01 -0.13787815134E+01 -0.97772432568E+02  0.97908623877E+02  0.47000000000E+01 0. -1.
         -5    1    1    2    0  502 -0.16306504482E+01  0.13787815134E+01 -0.46669772464E+02  0.46954421742E+02  0.47000000000E+01 0. -1.
<mgrwt>
<rscale>  2 0.51623695E+01</rscale>
<asrwt>0</asrwt>
<pdfrwt beam="1">  1       21 0.32372421E-04 0.51623695E+01</pdfrwt>
<pdfrwt beam="2">  1       21 0.22254203E-01 0.51623695E+01</pdfrwt>
<totfact> 0.29010399E+09</totfact>
</mgrwt>
</event>
<event>
 4    1  0.3906087E+006  0.6644769E+01  0.7546771E-02  0.2338369E+00
         21   -1    0    0  503  502  0.00000000000E+00  0.00000000000E+00  0.12177413695E+02  0.12177413695E+02  0.00000000000E+00 0. -1.
         21   -1    0    0  501  503 -0.00000000000E+00 -0.00000000000E+00 -0.41692088174E+01  0.41692088174E+01  0.00000000000E+00 0.  1.
          5    1    1    2  501    0  0.44494836018E+01  0.15050083833E+01  0.10533575220E+01  0.67277423127E+01  0.47000000000E+01 0.  1.
         -5    1    1    2    0  502 -0.44494836018E+01 -0.15050083833E+01  0.69548473560E+01  0.96188802000E+01  0.47000000000E+01 0.  1.
<mgrwt>
<rscale>  2 0.66447690E+01</rscale>
<asrwt>0</asrwt>
<pdfrwt beam="1">  1       21 0.18734482E-02 0.66447690E+01</pdfrwt>
<pdfrwt beam="2">  1       21 0.64141675E-03 0.66447690E+01</pdfrwt>
<totfact> 0.26299292E+09</totfact>
</mgrwt>
</event>
<event>
 4    1  0.3906087E+006  0.5609124E+01  0.7546771E-02  0.2469254E+00
         21   -1    0    0  501  502  0.00000000000E+00  0.00000000000E+00  0.12203706551E+01  0.12203706551E+01  0.00000000000E+00 0. -1.
         21   -1    0    0  502  503 -0.00000000000E+00 -0.00000000000E+00 -0.26378735254E+02  0.26378735254E+02  0.00000000000E+00 0.  1.
          5    1    1    2  501    0  0.25884604948E+01  0.16346690351E+01 -0.10501764716E+02  0.11905852877E+02  0.47000000000E+01 0. -1.
         -5    1    1    2    0  503 -0.25884604948E+01 -0.16346690351E+01 -0.14656599883E+02  0.15693253032E+02  0.47000000000E+01 0.  1.
<mgrwt>
<rscale>  2 0.56091239E+01</rscale>
<asrwt>0</asrwt>
<pdfrwt beam="1">  1       21 0.18774936E-03 0.56091239E+01</pdfrwt>
<pdfrwt beam="2">  1       21 0.40582665E-02 0.56091239E+01</pdfrwt>
<totfact> 0.40153694E+09</totfact>
</mgrwt>
</event>
<event>
 4    1  0.3906087E+006  0.6640668E+01  0.7546771E-02  0.2338820E+00
         21   -1    0    0  501  502  0.00000000000E+00  0.00000000000E+00  0.19519152254E+02  0.19519152254E+02  0.00000000000E+00 0. -1.
         21   -1    0    0  502  503 -0.00000000000E+00 -0.00000000000E+00 -0.66604419061E+01  0.66604419061E+01  0.00000000000E+00 0. -1.
          5    1    1    2  501    0  0.34023097410E+01  0.32299773944E+01  0.17069976734E+02  0.18316183315E+02  0.47000000000E+01 0. -1.
         -5    1    1    2    0  503 -0.34023097410E+01 -0.32299773944E+01 -0.42112663860E+01  0.78634108449E+01  0.47000000000E+01 0. -1.
<mgrwt>
<rscale>  2 0.66406676E+01</rscale>
<asrwt>0</asrwt>
<pdfrwt beam="1">  1       21 0.30029465E-02 0.66406676E+01</pdfrwt>
<pdfrwt beam="2">  1       21 0.10246834E-02 0.66406676E+01</pdfrwt>
<totfact> 0.68321492E+08</totfact>
</mgrwt>
</event>
<event>
 4    1  0.3906087E+006  0.5477472E+01  0.7546771E-02  0.2488836E+00
         21   -1    0    0  503  502  0.00000000000E+00  0.00000000000E+00  0.92312311527E+00  0.92312311527E+00  0.00000000000E+00 0.  1.
         21   -1    0    0  501  503 -0.00000000000E+00 -0.00000000000E+00 -0.64718088281E+02  0.64718088281E+02  0.00000000000E+00 0.  1.
          5    1    1    2  501    0 -0.24166111096E+01  0.14396832899E+01 -0.55054088396E+02  0.55325901225E+02  0.47000000000E+01 0.  1.
         -5    1    1    2    0  502  0.24166111096E+01 -0.14396832899E+01 -0.87408767704E+01  0.10315310172E+02  0.47000000000E+01 0.  1.
<mgrwt>
<rscale>  2 0.54774718E+01</rscale>
<asrwt>0</asrwt>
<pdfrwt beam="1">  1       21 0.14201897E-03 0.54774718E+01</pdfrwt>
<pdfrwt beam="2">  1       21 0.99566269E-02 0.54774718E+01</pdfrwt>
<totfact> 0.15029187E+09</totfact>
</mgrwt>
</event>
<event>
 4    1  0.3906087E+006  0.4919250E+01  0.7546771E-02  0.2581681E+00
         21   -1    0    0  503  502  0.00000000000E+00  0.00000000000E+00  0.19893653175E+03  0.19893653175E+03  0.00000000000E+00 0. -1.
         21   -1    0    0  501  503 -0.00000000000E+00 -0.00000000000E+00 -0.19252748669E+00  0.19252748669E+00  0.00000000000E+00 0. -1.
          5    1    1    2  501    0  0.43766241282E-01 -0.14515857047E+01  0.38958047859E+02  0.39267397540E+02  0.47000000000E+01 0. -1.
         -5    1    1    2    0  502 -0.43766241282E-01  0.14515857047E+01  0.15978595641E+03  0.15986166170E+03  0.47000000000E+01 0. -1.
<mgrwt>
<rscale>  2 0.49192496E+01</rscale>
<asrwt>0</asrwt>
<pdfrwt beam="1">  1       21 0.30605456E-01 0.49192496E+01</pdfrwt>
<pdfrwt beam="2">  1       21 0.29619772E-04 0.49192496E+01</pdfrwt>
<totfact> 0.18539603E+09</totfact>
</mgrwt>
</event>
<event>
 4    1  0.3906087E+006  0.6544580E+01  0.7546771E-02  0.2349512E+00
         21   -1    0    0  501  502  0.00000000000E+00  0.00000000000E+00  0.19863116980E+01  0.19863116980E+01  0.00000000000E+00 0. -1.
         21   -1    0    0  502  503 -0.00000000000E+00 -0.00000000000E+00 -0.77382472685E+02  0.77382472685E+02  0.00000000000E+00 0. -1.
          5    1    1    2  501    0  0.44970221136E+01  0.71994631099E+00 -0.39934211503E+01  0.76667426632E+01  0.47000000000E+01 0. -1.
         -5    1    1    2    0  503 -0.44970221136E+01 -0.71994631099E+00 -0.71402739837E+02  0.71702041720E+02  0.47000000000E+01 0. -1.
<mgrwt>
<rscale>  2 0.65445802E+01</rscale>
<asrwt>0</asrwt>
<pdfrwt beam="1">  1       21 0.30558638E-03 0.65445802E+01</pdfrwt>
<pdfrwt beam="2">  1       21 0.11904997E-01 0.65445802E+01</pdfrwt>
<totfact> 0.46175124E+08</totfact>
</mgrwt>
</event>
<event>
 4    1  0.3906087E+006  0.6778927E+01  0.7546771E-02  0.2323875E+00
         21   -1    0    0  503  502  0.00000000000E+00  0.00000000000E+00  0.15417773909E+03  0.15417773909E+03  0.00000000000E+00 0. -1.
         21   -1    0    0  501  503 -0.00000000000E+00 -0.00000000000E+00 -0.35829167014E+00  0.35829167014E+00  0.00000000000E+00 0. -1.
          5    1    1    2  501    0 -0.43841425689E+00  0.48653514380E+01  0.10859098002E+03  0.10880236575E+03  0.47000000000E+01 0. -1.
         -5    1    1    2    0  502  0.43841425689E+00 -0.48653514380E+01  0.45228467403E+02  0.45733665011E+02  0.47000000000E+01 0. -1.
<mgrwt>
<rscale>  2 0.67789270E+01</rscale>
<asrwt>0</asrwt>
<pdfrwt beam="1">  1       21 0.23719599E-01 0.67789270E+01</pdfrwt>
<pdfrwt beam="2">  1       21 0.55121918E-04 0.67789270E+01</pdfrwt>
<totfact> 0.16054291E+09</totfact>
</mgrwt>
</event>
<event>
 4    1  0.3906087E+006  0.5111398E+01  0.7546771E-02  0.2547763E+00
         21   -1    0    0  501  502  0.00000000000E+00  0.00000000000E+00  0.23097595972E+01  0.23097595972E+01  0.00000000000E+00 0. -1.
         21   -1    0    0  502  503 -0.00000000000E+00 -0.00000000000E+00 -0.12480672198E+02  0.12480672198E+02  0.00000000000E+00 0.  1.
          5    1    1    2  501    0  0.15441974818E+01  0.12852421318E+01 -0.28218156214E+01  0.58385817286E+01  0.47000000000E+01 0. -1.
         -5    1    1    2    0  503 -0.15441974818E+01 -0.12852421318E+01 -0.73490969792E+01  0.89518500663E+01  0.47000000000E+01 0.  1.
<mgrwt>
<rscale>  2 0.51113984E+01</rscale>
<asrwt>0</asrwt>
<pdfrwt beam="1">  1       21 0.35534764E-03 0.51113984E+01</pdfrwt>
<pdfrwt beam="2">  1       21 0.19201034E-02 0.51113984E+01</pdfrwt>
<totfact> 0.45192013E+09</totfact>
</mgrwt>
</event>
<event>
 4    1  0.3906087E+006  0.6707290E+01  0.7546771E-02  0.2331555E+00
         21   -1    0    0  503  502  0.00000000000E+00  0.00000000000E+00  0.32649453304E+01  0.32649453304E+01  0.00000000000E+00 0.  1.
         21   -1    0    0  501  503 -0.00000000000E+00 -0.00000000000E+00 -0.48895810922E+02  0.48895810922E+02  0.00000000000E+00 0. -1.
          5    1    1    2  501    0  0.28777176138E+01 -0.38231507500E+01 -0.44917631589E+02  0.45415651133E+02  0.47000000000E+01 0. -1.
         -5    1    1    2    0  502 -0.28777176138E+01  0.38231507500E+01 -0.71323400256E+00  0.67451051189E+01  0.47000000000E+01 0.  1.
<mgrwt>
<rscale>  2 0.67072901E+01</rscale>
<asrwt>0</asrwt>
<pdfrwt beam="1">  1       21 0.50229928E-03 0.67072901E+01</pdfrwt>
<pdfrwt beam="2">  1       21 0.75224325E-02 0.67072901E+01</pdfrwt>
<totfact> 0.47774689E+08</totfact>
</mgrwt>
</event>
<event>
 4    1  0.3906087E+006  0.4880795E+01  0.7546771E-02  0.2588745E+00
         21   -1    0    0  503  502  0.00000000000E+00  0.00000000000E+00  0.21614896346E+03  0.21614896346E+03  0.00000000000E+00 0. -1.
         21   -1    0    0  501  503 -0.00000000000E+00 -0.00000000000E+00 -0.12185326162E+00  0.12185326162E+00  0.00000000000E+00 0. -1.
          5    1    1    2  501    0  0.92388834340E+00 -0.93733320842E+00  0.14143716623E+03  0.14152135582E+03  0.47000000000E+01 0. -1.
         -5    1    1    2    0  502 -0.92388834340E+00  0.93733320842E+00  0.74589943974E+02  0.74749460903E+02  0.47000000000E+01 0. -1.
<mgrwt>
<rscale>  2 0.48807953E+01</rscale>
<asrwt>0</asrwt>
<pdfrwt beam="1">  1       21 0.33253380E-01 0.48807953E+01</pdfrwt>
<pdfrwt beam="2">  1       21 0.18746829E-04 0.48807953E+01</pdfrwt>
<totfact> 0.29352636E+09</totfact>
</mgrwt>
</event>
<event>
 4    1  0.3906087E+006  0.7572166E+01  0.7546771E-02  0.2246905E+00
         21   -1    0    0  501  502  0.00000000000E+00  0.00000000000E+00  0.44002010868E+02  0.44002010868E+02  0.00000000000E+00 0.  1.
         21   -1    0    0  502  503 -0.00000000000E+00 -0.00000000000E+00 -0.13259192667E+01  0.13259192667E+01  0.00000000000E+00 0. -1.
          5    1    1    2  501    0  0.57911667075E+01  0.13077034208E+01  0.24313227776E+02  0.25465088748E+02  0.47000000000E+01 0.  1.
         -5    1    1    2    0  503 -0.57911667075E+01 -0.13077034208E+01  0.18362863825E+02  0.19862841386E+02  0.47000000000E+01 0.  1.
<mgrwt>
<rscale>  2 0.75721661E+01</rscale>
<asrwt>0</asrwt>
<pdfrwt beam="1">  1       21 0.67695390E-02 0.75721661E+01</pdfrwt>
<pdfrwt beam="2">  1       21 0.20398761E-03 0.75721661E+01</pdfrwt>
<totfact> 0.21377947E+09</totfact>
</mgrwt>
</event>
<event>
 4    1  0.3906087E+006  0.8633463E+01  0.7546771E-02  0.2162269E+00
         21   -1    0    0  503  502  0.00000000000E+00  0.00000000000E+00  0.65162249850E+01  0.65162249850E+01  0.00000000000E+00 0. -1.
         21   -1    0    0  501  503 -0.00000000000E+00 -0.00000000000E+00 -0.15511025368E+02  0.15511025368E+02  0.00000000000E+00 0.  1.
          5    1    1    2  501    0 -0.49804229390E+01 -0.52575724939E+01 -0.10140725032E+02  0.13318069881E+02  0.47000000000E+01 0.  1.
         -5    1    1    2    0  502  0.49804229390E+01  0.52575724939E+01  0.11459246497E+01  0.87091804714E+01  0.47000000000E+01 0. -1.
<mgrwt>
<rscale>  2 0.86334629E+01</rscale>
<asrwt>0</asrwt>
<pdfrwt beam="1">  1       21 0.10024962E-02 0.86334629E+01</pdfrwt>
<pdfrwt beam="2">  1       21 0.23863116E-02 0.86334629E+01</pdfrwt>
<totfact> 0.11846240E+09</totfact>
</mgrwt>
</event>
<event>
 4    1  0.3906087E+006  0.5668088E+01  0.7546771E-02  0.2460734E+00
         21   -1    0    0  501  502  0.00000000000E+00  0.00000000000E+00  0.30290221657E-01  0.30290221657E-01  0.00000000000E+00 0.  1.
         21   -1    0    0  502  503 -0.00000000000E+00 -0.00000000000E+00 -0.10851507698E+04  0.10851507698E+04  0.00000000000E+00 0. -1.
          5    1    1    2  501    0  0.22462188436E+01 -0.22342156422E+01 -0.62409592864E+03  0.62412166711E+03  0.47000000000E+01 0.  1.
         -5    1    1    2    0  503 -0.22462188436E+01  0.22342156422E+01 -0.46102455089E+03  0.46105939286E+03  0.47000000000E+01 0.  1.
<mgrwt>
<rscale>  2 0.56680877E+01</rscale>
<asrwt>0</asrwt>
<pdfrwt beam="1">  1       21 0.46593598E-05 0.56680877E+01</pdfrwt>
<pdfrwt beam="2">  1       21 0.16697043E+00 0.56680877E+01</pdfrwt>
<totfact> 0.96801177E+08</totfact>
</mgrwt>
</event>
<event>
 4    1  0.3906087E+006  0.6734582E+01  0.7546771E-02  0.2328613E+00
         21   -1    0    0  501  502  0.00000000000E+00  0.00000000000E+00  0.24463393381E+02  0.24463393381E+02  0.00000000000E+00 0.  1.
         21   -1    0    0  502  503 -0.00000000000E+00 -0.00000000000E+00 -0.19015689481E+01  0.19015689481E+01  0.00000000000E+00 0. -1.
          5    1    1    2  501    0  0.14181682695E+01  0.46101407029E+01  0.91954501672E+01  0.11397846389E+02  0.47000000000E+01 0. -1.
         -5    1    1    2    0  503 -0.14181682695E+01 -0.46101407029E+01  0.13366374266E+02  0.14967115940E+02  0.47000000000E+01 0. -1.
<mgrwt>
<rscale>  2 0.67345823E+01</rscale>
<asrwt>0</asrwt>
<pdfrwt beam="1">  1       21 0.37635988E-02 0.67345823E+01</pdfrwt>
<pdfrwt beam="2">  1       21 0.29254909E-03 0.67345823E+01</pdfrwt>
<totfact> 0.28680794E+09</totfact>
</mgrwt>
</event>
<event>
 4    1  0.3906087E+006  0.1017518E+02  0.7546771E-02  0.2065153E+00
         21   -1    0    0  503  502  0.00000000000E+00  0.00000000000E+00  0.31013031985E+03  0.31013031985E+03  0.00000000000E+00 0. -1.
         21   -1    0    0  501  503 -0.00000000000E+00 -0.00000000000E+00 -0.42317249704E+00  0.42317249704E+00  0.00000000000E+00 0.  1.
          5    1    1    2  501    0  0.65213154771E+01 -0.62383326127E+01  0.83510968113E+02  0.84128569134E+02  0.47000000000E+01 0.  1.
         -5    1    1    2    0  502 -0.65213154771E+01  0.62383326127E+01  0.22619617924E+03  0.22642492322E+03  0.47000000000E+01 0. -1.
<mgrwt>
<rscale>  2 0.10175183E+02</rscale>
<asrwt>0</asrwt>
<pdfrwt beam="1">  1       21 0.47712175E-01 0.10175183E+02</pdfrwt>
<pdfrwt beam="2">  1       21 0.65103709E-04 0.10175183E+02</pdfrwt>
<totfact> 0.48169828E+08</totfact>
</mgrwt>
</event>
<event>
 4    1  0.3906087E+006  0.6325239E+01  0.7546771E-02  0.2374922E+00
         21   -1    0    0  503  502  0.00000000000E+00  0.00000000000E+00  0.15956685452E+02  0.15956685452E+02  0.00000000000E+00 0. -1.
         21   -1    0    0  501  503 -0.00000000000E+00 -0.00000000000E+00 -0.96335852827E+01  0.96335852827E+01  0.00000000000E+00 0. -1.
          5    1    1    2  501    0  0.21092961349E+01  0.36700839015E+01 -0.78432373226E+01  0.10075962372E+02  0.47000000000E+01 0. -1.
         -5    1    1    2    0  502 -0.21092961349E+01 -0.36700839015E+01  0.14166337492E+02  0.15514308362E+02  0.47000000000E+01 0. -1.
<mgrwt>
<rscale>  2 0.63252388E+01</rscale>
<asrwt>0</asrwt>
<pdfrwt beam="1">  1       21 0.24548747E-02 0.63252388E+01</pdfrwt>
<pdfrwt beam="2">  1       21 0.14820900E-02 0.63252388E+01</pdfrwt>
<totfact> 0.52219719E+08</totfact>
</mgrwt>
</event>
<event>
 4    1  0.3906087E+006  0.9485214E+01  0.7546771E-02  0.2105526E+00
         21   -1    0    0  503  502  0.00000000000E+00  0.00000000000E+00  0.19675542088E+03  0.19675542088E+03  0.00000000000E+00 0. -1.
         21   -1    0    0  501  503 -0.00000000000E+00 -0.00000000000E+00 -0.49099477926E+00  0.49099477926E+00  0.00000000000E+00 0. -1.
          5    1    1    2  501    0  0.81478157051E+01  0.12216348208E+01  0.72282847100E+02  0.72902532722E+02  0.47000000000E+01 0. -1.
         -5    1    1    2    0  502 -0.81478157051E+01 -0.12216348208E+01  0.12398157900E+03  0.12434388293E+03  0.47000000000E+01 0. -1.
<mgrwt>
<rscale>  2 0.94852144E+01</rscale>
<asrwt>0</asrwt>
<pdfrwt beam="1">  1       21 0.30270002E-01 0.94852144E+01</pdfrwt>
<pdfrwt beam="2">  1       21 0.75537815E-04 0.94852144E+01</pdfrwt>
<totfact> 0.85664965E+08</totfact>
</mgrwt>
</event>
<event>
 4    1  0.3906087E+006  0.4958153E+01  0.7546771E-02  0.2574631E+00
         21   -1    0    0  501  502  0.00000000000E+00  0.00000000000E+00  0.40267835527E+01  0.40267835527E+01  0.00000000000E+00 0. -1.
         21   -1    0    0  502  503 -0.00000000000E+00 -0.00000000000E+00 -0.11730856201E+02  0.11730856201E+02  0.00000000000E+00 0. -1.
          5    1    1    2  501    0 -0.74582697479E+00  0.13917707629E+01  0.16041957367E+01  0.52112117300E+01  0.47000000000E+01 0. -1.
         -5    1    1    2    0  503  0.74582697479E+00 -0.13917707629E+01 -0.93082683845E+01  0.10546428023E+02  0.47000000000E+01 0. -1.
<mgrwt>
<rscale>  2 0.49581533E+01</rscale>
<asrwt>0</asrwt>
<pdfrwt beam="1">  1       21 0.61950517E-03 0.49581533E+01</pdfrwt>
<pdfrwt beam="2">  1       21 0.18047471E-02 0.49581533E+01</pdfrwt>
<totfact> 0.22303294E+09</totfact>
</mgrwt>
</event>
<event>
 4    1  0.3906087E+006  0.5998152E+01  0.7546771E-02  0.2415664E+00
         21   -1    0    0  501  502  0.00000000000E+00  0.00000000000E+00  0.28516934426E+03  0.28516934426E+03  0.00000000000E+00 0.  1.
         21   -1    0    0  502  503 -0.00000000000E+00 -0.00000000000E+00 -0.14151098796E+00  0.14151098796E+00  0.00000000000E+00 0. -1.
          5    1    1    2  501    0 -0.53106153262E+00  0.36886046595E+01  0.18949450077E+03  0.18958940807E+03  0.47000000000E+01 0.  1.
         -5    1    1    2    0  503  0.53106153262E+00 -0.36886046595E+01  0.95533332504E+02  0.95721447179E+02  0.47000000000E+01 0. -1.
<mgrwt>
<rscale>  2 0.59981523E+01</rscale>
<asrwt>0</asrwt>
<pdfrwt beam="1">  1       21 0.43871747E-01 0.59981523E+01</pdfrwt>
<pdfrwt beam="2">  1       21 0.21771149E-04 0.59981523E+01</pdfrwt>
<totfact> 0.17789154E+09</totfact>
</mgrwt>
</event>
<event>
 4    1  0.3906087E+006  0.9161578E+01  0.7546771E-02  0.2126098E+00
         21   -1    0    0  503  502  0.00000000000E+00  0.00000000000E+00  0.14382813815E+03  0.14382813815E+03  0.00000000000E+00 0. -1.
         21   -1    0    0  501  503 -0.00000000000E+00 -0.00000000000E+00 -0.59175911952E+00  0.59175911952E+00  0.00000000000E+00 0. -1.
          5    1    1    2  501    0 -0.64450892127E+00 -0.78376731484E+01  0.80110177206E+02  0.80632344653E+02  0.47000000000E+01 0. -1.
         -5    1    1    2    0  502  0.64450892127E+00  0.78376731484E+01  0.63126201829E+02  0.63787552622E+02  0.47000000000E+01 0. -1.
<mgrwt>
<rscale>  2 0.91615780E+01</rscale>
<asrwt>0</asrwt>
<pdfrwt beam="1">  1       21 0.22127378E-01 0.91615780E+01</pdfrwt>
<pdfrwt beam="2">  1       21 0.91039979E-04 0.91615780E+01</pdfrwt>
<totfact> 0.11103975E+09</totfact>
</mgrwt>
</event>
<event>
 4    1  0.3906087E+006  0.6467127E+01  0.7546771E-02  0.2358322E+00
         21   -1    0    0  501  502  0.00000000000E+00  0.00000000000E+00  0.38673563696E+00  0.38673563696E+00  0.00000000000E+00 0. -1.
         21   -1    0    0  502  503 -0.00000000000E+00 -0.00000000000E+00 -0.10814567906E+03  0.10814567906E+03  0.00000000000E+00 0. -1.
          5    1    1    2  501    0 -0.32656030876E+01  0.30115731311E+01 -0.53939878859E+02  0.54326183996E+02  0.47000000000E+01 0. -1.
         -5    1    1    2    0  503  0.32656030876E+01 -0.30115731311E+01 -0.53819064562E+02  0.54206230699E+02  0.47000000000E+01 0. -1.
<mgrwt>
<rscale>  2 0.64671274E+01</rscale>
<asrwt>0</asrwt>
<pdfrwt beam="1">  1       21 0.59497683E-04 0.64671274E+01</pdfrwt>
<pdfrwt beam="2">  1       21 0.16637827E-01 0.64671274E+01</pdfrwt>
<totfact> 0.24895020E+09</totfact>
</mgrwt>
</event>
<event>
 4    1  0.3906087E+006  0.1630492E+02  0.7546771E-02  0.1830677E+00
         21   -1    0    0  501  502  0.00000000000E+00  0.00000000000E+00  0.47502793524E+02  0.47502793524E+02  0.00000000000E+00 0.  1.
         21   -1    0    0  502  503 -0.00000000000E+00 -0.00000000000E+00 -0.16694601246E+03  0.16694601246E+03  0.00000000000E+00 0. -1.
          5    1    1    2  501    0  0.15281577261E+02  0.31990539585E+01  0.45690233743E+02  0.48512349039E+02  0.47000000000E+01 0.  1.
         -5    1    1    2    0  503 -0.15281577261E+02 -0.31990539585E+01 -0.16513345268E+03  0.16593645695E+03  0.47000000000E+01 0. -1.
<mgrwt>
<rscale>  2 0.16304924E+02</rscale>
<asrwt>0</asrwt>
<pdfrwt beam="1">  1       21 0.73081220E-02 0.16304924E+02</pdfrwt>
<pdfrwt beam="2">  1       21 0.25684002E-01 0.16304924E+02</pdfrwt>
<totfact> 0.17150075E+06</totfact>
</mgrwt>
</event>
<event>
 4    1  0.3906087E+006  0.4863157E+01  0.7546771E-02  0.2592017E+00
         21   -1    0    0  501  502  0.00000000000E+00  0.00000000000E+00  0.37784217492E+02  0.37784217492E+02  0.00000000000E+00 0. -1.
         21   -1    0    0  502  503 -0.00000000000E+00 -0.00000000000E+00 -0.84441254900E+00  0.84441254900E+00  0.00000000000E+00 0. -1.
          5    1    1    2  501    0 -0.12345220623E+01  0.19038843321E+00  0.28294389761E+02  0.28709280458E+02  0.47000000000E+01 0. -1.
         -5    1    1    2    0  503  0.12345220623E+01 -0.19038843321E+00  0.86454151820E+01  0.99193495828E+01  0.47000000000E+01 0. -1.
<mgrwt>
<rscale>  2 0.48631566E+01</rscale>
<asrwt>0</asrwt>
<pdfrwt beam="1">  1       21 0.58129552E-02 0.48631566E+01</pdfrwt>
<pdfrwt beam="2">  1       21 0.12990965E-03 0.48631566E+01</pdfrwt>
<totfact> 0.33752433E+09</totfact>
</mgrwt>
</event>
<event>
 4    1  0.3906087E+006  0.5463809E+01  0.7546771E-02  0.2490914E+00
         21   -1    0    0  503  502  0.00000000000E+00  0.00000000000E+00  0.34834762169E+02  0.34834762169E+02  0.00000000000E+00 0.  1.
         21   -1    0    0  501  503 -0.00000000000E+00 -0.00000000000E+00 -0.10928338833E+01  0.10928338833E+01  0.00000000000E+00 0.  1.
          5    1    1    2  501    0  0.19291492412E+01 -0.20103710136E+01  0.85259126720E+01  0.10126420656E+02  0.47000000000E+01 0.  1.
         -5    1    1    2    0  502 -0.19291492412E+01  0.20103710136E+01  0.25216015614E+02  0.25801175397E+02  0.47000000000E+01 0.  1.
<mgrwt>
<rscale>  2 0.54638090E+01</rscale>
<asrwt>0</asrwt>
<pdfrwt beam="1">  1       21 0.53591933E-02 0.54638090E+01</pdfrwt>
<pdfrwt beam="2">  1       21 0.16812832E-03 0.54638090E+01</pdfrwt>
<totfact> 0.30233572E+09</totfact>
</mgrwt>
</event>
<event>
 4    1  0.3906087E+006  0.6241095E+01  0.7546771E-02  0.2385063E+00
         21   -1    0    0  501  502  0.00000000000E+00  0.00000000000E+00  0.29258663394E+01  0.29258663394E+01  0.00000000000E+00 0. -1.
         21   -1    0    0  502  503 -0.00000000000E+00 -0.00000000000E+00 -0.21380033472E+02  0.21380033472E+02  0.00000000000E+00 0. -1.
          5    1    1    2  501    0 -0.41051499203E+01 -0.94930540687E-01 -0.17618788294E+01  0.64850200219E+01  0.47000000000E+01 0. -1.
         -5    1    1    2    0  503  0.41051499203E+01  0.94930540687E-01 -0.16692288303E+02  0.17820879790E+02  0.47000000000E+01 0. -1.
<mgrwt>
<rscale>  2 0.62410951E+01</rscale>
<asrwt>0</asrwt>
<pdfrwt beam="1">  1       21 0.45013330E-03 0.62410951E+01</pdfrwt>
<pdfrwt beam="2">  1       21 0.32892358E-02 0.62410951E+01</pdfrwt>
<totfact> 0.18080937E+09</totfact>
</mgrwt>
</event>
<event>
 4    1  0.3906087E+006  0.9383073E+01  0.7546771E-02  0.2111897E+00
         21   -1    0    0  503  502  0.00000000000E+00  0.00000000000E+00  0.29136128672E+03  0.29136128672E+03  0.00000000000E+00 0. -1.
         21   -1    0    0  501  503 -0.00000000000E+00 -0.00000000000E+00 -0.50410234599E+01  0.50410234599E+01  0.00000000000E+00 0.  1.
          5    1    1    2  501    0 -0.37627151576E+01 -0.71968066627E+01 -0.53056387407E+00  0.93980609448E+01  0.47000000000E+01 0.  1.
         -5    1    1    2    0  502  0.37627151576E+01  0.71968066627E+01  0.28685082714E+03  0.28700424924E+03  0.47000000000E+01 0. -1.
<mgrwt>
<rscale>  2 0.93830726E+01</rscale>
<asrwt>0</asrwt>
<pdfrwt beam="1">  1       21 0.44824800E-01 0.93830726E+01</pdfrwt>
<pdfrwt beam="2">  1       21 0.77554230E-03 0.93830726E+01</pdfrwt>
<totfact> 0.16210940E+07</totfact>
</mgrwt>
</event>
<event>
 4    1  0.3906087E+006  0.4836836E+01  0.7546771E-02  0.2596939E+00
         21   -1    0    0  501  502  0.00000000000E+00  0.00000000000E+00  0.17160128380E+03  0.17160128380E+03  0.00000000000E+00 0.  1.
         21   -1    0    0  502  503 -0.00000000000E+00 -0.00000000000E+00 -0.15320239348E+00  0.15320239348E+00  0.00000000000E+00 0.  1.
          5    1    1    2  501    0  0.71799615684E+00  0.88851878704E+00  0.57227635330E+02  0.57431674445E+02  0.47000000000E+01 0.  1.
         -5    1    1    2    0  503 -0.71799615684E+00 -0.88851878704E+00  0.11422044608E+03  0.11432281175E+03  0.47000000000E+01 0.  1.
<mgrwt>
<rscale>  2 0.48368362E+01</rscale>
<asrwt>0</asrwt>
<pdfrwt beam="1">  1       21 0.26400044E-01 0.48368362E+01</pdfrwt>
<pdfrwt beam="2">  1       21 0.23569736E-04 0.48368362E+01</pdfrwt>
<totfact> 0.31481460E+09</totfact>
</mgrwt>
</event>
<event>
 4    1  0.3906087E+006  0.4838685E+01  0.7546771E-02  0.2596592E+00
         21   -1    0    0  501  502  0.00000000000E+00  0.00000000000E+00  0.14001826732E+03  0.14001826732E+03  0.00000000000E+00 0. -1.
         21   -1    0    0  502  503 -0.00000000000E+00 -0.00000000000E+00 -0.30542450405E+00  0.30542450405E+00  0.00000000000E+00 0. -1.
          5    1    1    2  501    0 -0.96040378409E+00 -0.63285081891E+00  0.11705415587E+03  0.11715412192E+03  0.47000000000E+01 0. -1.
         -5    1    1    2    0  503  0.96040378409E+00  0.63285081891E+00  0.22658686947E+02  0.23169569908E+02  0.47000000000E+01 0. -1.
<mgrwt>
<rscale>  2 0.48386853E+01</rscale>
<asrwt>0</asrwt>
<pdfrwt beam="1">  1       21 0.21541221E-01 0.48386853E+01</pdfrwt>
<pdfrwt beam="2">  1       21 0.46988497E-04 0.48386853E+01</pdfrwt>
<totfact> 0.17557340E+09</totfact>
</mgrwt>
</event>
<event>
 4    1  0.3906087E+006  0.5070979E+01  0.7546771E-02  0.2554714E+00
         21   -1    0    0  501  502  0.00000000000E+00  0.00000000000E+00  0.78595389894E+01  0.78595389894E+01  0.00000000000E+00 0. -1.
         21   -1    0    0  502  503 -0.00000000000E+00 -0.00000000000E+00 -0.12976294228E+02  0.12976294228E+02  0.00000000000E+00 0. -1.
          5    1    1    2  501    0  0.18228874723E+01  0.54946113279E+00  0.64509426497E+01  0.82054547310E+01  0.47000000000E+01 0. -1.
         -5    1    1    2    0  503 -0.18228874723E+01 -0.54946113279E+00 -0.11567697888E+02  0.12630378486E+02  0.47000000000E+01 0. -1.
<mgrwt>
<rscale>  2 0.50709788E+01</rscale>
<asrwt>0</asrwt>
<pdfrwt beam="1">  1       21 0.12091599E-02 0.50709788E+01</pdfrwt>
<pdfrwt beam="2">  1       21 0.19963529E-02 0.50709788E+01</pdfrwt>
<totfact> 0.77978453E+08</totfact>
</mgrwt>
</event>
<event>
 4    1  0.3906087E+006  0.4721206E+01  0.7546771E-02  0.2619123E+00
         21   -1    0    0  503  502  0.00000000000E+00  0.00000000000E+00  0.70848083271E+01  0.70848083271E+01  0.00000000000E+00 0.  1.
         21   -1    0    0  501  503 -0.00000000000E+00 -0.00000000000E+00 -0.27035783322E+02  0.27035783322E+02  0.00000000000E+00 0.  1.
          5    1    1    2  501    0 -0.18625458045E+00 -0.40631720958E+00 -0.26012443227E+02  0.26437416422E+02  0.47000000000E+01 0.  1.
         -5    1    1    2    0  502  0.18625458045E+00  0.40631720958E+00  0.60614682319E+01  0.76831752271E+01  0.47000000000E+01 0.  1.
<mgrwt>
<rscale>  2 0.47212058E+01</rscale>
<asrwt>0</asrwt>
<pdfrwt beam="1">  1       21 0.10899705E-02 0.47212058E+01</pdfrwt>
<pdfrwt beam="2">  1       21 0.41593513E-02 0.47212058E+01</pdfrwt>
<totfact> 0.29539326E+08</totfact>
</mgrwt>
</event>
<event>
 4    1  0.3906087E+006  0.8852334E+01  0.7546771E-02  0.2146862E+00
         21   -1    0    0  503  502  0.00000000000E+00  0.00000000000E+00  0.10353041193E+02  0.10353041193E+02  0.00000000000E+00 0. -1.
         21   -1    0    0  501  503 -0.00000000000E+00 -0.00000000000E+00 -0.75775107358E+01  0.75775107358E+01  0.00000000000E+00 0. -1.
          5    1    1    2  501    0 -0.35602152986E+01 -0.66029304915E+01  0.10901426730E+01  0.89192059677E+01  0.47000000000E+01 0. -1.
         -5    1    1    2    0  502  0.35602152986E+01  0.66029304915E+01  0.16853877841E+01  0.90113459611E+01  0.47000000000E+01 0. -1.
<mgrwt>
<rscale>  2 0.88523344E+01</rscale>
<asrwt>0</asrwt>
<pdfrwt beam="1">  1       21 0.15927756E-02 0.88523344E+01</pdfrwt>
<pdfrwt beam="2">  1       21 0.11657709E-02 0.88523344E+01</pdfrwt>
<totfact> 0.17532011E+09</totfact>
</mgrwt>
</event>
<event>
 4    1  0.3906087E+006  0.5378602E+01  0.7546771E-02  0.2504076E+00
         21   -1    0    0  501  502  0.00000000000E+00  0.00000000000E+00  0.96779116709E+00  0.96779116709E+00  0.00000000000E+00 0. -1.
         21   -1    0    0  502  503 -0.00000000000E+00 -0.00000000000E+00 -0.76448301125E+02  0.76448301125E+02  0.00000000000E+00 0.  1.
          5    1    1    2  501    0  0.24197101955E+01  0.99214778187E+00 -0.75333739510E+01  0.92564073883E+01  0.47000000000E+01 0.  1.
         -5    1    1    2    0  503 -0.24197101955E+01 -0.99214778187E+00 -0.67947136007E+02  0.68159684904E+02  0.47000000000E+01 0.  1.
<mgrwt>
<rscale>  2 0.53786016E+01</rscale>
<asrwt>0</asrwt>
<pdfrwt beam="1">  1       21 0.14889094E-03 0.53786016E+01</pdfrwt>
<pdfrwt beam="2">  1       21 0.11761278E-01 0.53786016E+01</pdfrwt>
<totfact> 0.10758382E+09</totfact>
</mgrwt>
</event>
<event>
 4    1  0.3906087E+006  0.4713551E+01  0.7546771E-02  0.2620624E+00
         21   -1    0    0  503  502  0.00000000000E+00  0.00000000000E+00  0.66743770187E+01  0.66743770187E+01  0.00000000000E+00 0. -1.
         21   -1    0    0  501  503 -0.00000000000E+00 -0.00000000000E+00 -0.52611241612E+01  0.52611241612E+01  0.00000000000E+00 0. -1.
          5    1    1    2  501    0  0.21922195487E+00 -0.28196501933E+00 -0.29100789046E+01  0.55395055527E+01  0.47000000000E+01 0. -1.
         -5    1    1    2    0  502 -0.21922195487E+00  0.28196501933E+00  0.43233317621E+01  0.63959956271E+01  0.47000000000E+01 0. -1.
<mgrwt>
<rscale>  2 0.47135509E+01</rscale>
<asrwt>0</asrwt>
<pdfrwt beam="1">  1       21 0.10268272E-02 0.47135509E+01</pdfrwt>
<pdfrwt beam="2">  1       21 0.80940371E-03 0.47135509E+01</pdfrwt>
<totfact> 0.32232410E+09</totfact>
</mgrwt>
</event>
<event>
 4    1  0.3906087E+006  0.6025884E+01  0.7546771E-02  0.2412067E+00
         21   -1    0    0  503  502  0.00000000000E+00  0.00000000000E+00  0.59056914201E+00  0.59056914201E+00  0.00000000000E+00 0. -1.
         21   -1    0    0  501  503 -0.00000000000E+00 -0.00000000000E+00 -0.12548222753E+03  0.12548222753E+03  0.00000000000E+00 0.  1.
          5    1    1    2  501    0  0.35127474963E+01  0.13718175156E+01 -0.10746319599E+03  0.10763201090E+03  0.47000000000E+01 0.  1.
         -5    1    1    2    0  502 -0.35127474963E+01 -0.13718175156E+01 -0.17428462391E+02  0.18440785763E+02  0.47000000000E+01 0. -1.
<mgrwt>
<rscale>  2 0.60258840E+01</rscale>
<asrwt>0</asrwt>
<pdfrwt beam="1">  1       21 0.90856650E-04 0.60258840E+01</pdfrwt>
<pdfrwt beam="2">  1       21 0.19304988E-01 0.60258840E+01</pdfrwt>
<totfact> 0.10509050E+09</totfact>
</mgrwt>
</event>
<event>
 4    1  0.3906087E+006  0.5588723E+01  0.7546771E-02  0.2472237E+00
         21   -1    0    0  503  502  0.00000000000E+00  0.00000000000E+00  0.15422341778E+00  0.15422341778E+00  0.00000000000E+00 0.  1.
         21   -1    0    0  501  503 -0.00000000000E+00 -0.00000000000E+00 -0.23468163447E+03  0.23468163447E+03  0.00000000000E+00 0.  1.
          5    1    1    2  501    0  0.23769018856E+01 -0.18692680136E+01 -0.16072894498E+03  0.16082607867E+03  0.47000000000E+01 0.  1.
         -5    1    1    2    0  502 -0.23769018856E+01  0.18692680136E+01 -0.73798466065E+02  0.74009779212E+02  0.47000000000E+01 0.  1.
<mgrwt>
<rscale>  2 0.55887231E+01</rscale>
<asrwt>0</asrwt>
<pdfrwt beam="1">  1       21 0.23726477E-04 0.55887231E+01</pdfrwt>
<pdfrwt beam="2">  1       21 0.36105175E-01 0.55887231E+01</pdfrwt>
<totfact> 0.21050656E+09</totfact>
</mgrwt>
</event>
<event>
 4    1  0.3906087E+006  0.6722191E+01  0.7546771E-02  0.2329947E+00
         21   -1    0    0  501  502  0.00000000000E+00  0.00000000000E+00  0.16297176970E+03  0.16297176970E+03  0.00000000000E+00 0.  1.
         21   -1    0    0  502  503 -0.00000000000E+00 -0.00000000000E+00 -0.49934420245E+00  0.49934420245E+00  0.00000000000E+00 0. -1.
          5    1    1    2  501    0  0.34003745147E+01 -0.33963660531E+01  0.13574368924E+03  0.13591003281E+03  0.47000000000E+01 0.  1.
         -5    1    1    2    0  503 -0.34003745147E+01  0.33963660531E+01  0.26728736258E+02  0.27561081096E+02  0.47000000000E+01 0. -1.
<mgrwt>
<rscale>  2 0.67221908E+01</rscale>
<asrwt>0</asrwt>
<pdfrwt beam="1">  1       21 0.25072538E-01 0.67221908E+01</pdfrwt>
<pdfrwt beam="2">  1       21 0.76822315E-04 0.67221908E+01</pdfrwt>
<totfact> 0.93075771E+08</totfact>
</mgrwt>
</event>
<event>
 4    1  0.3906087E+006  0.1329637E+02  0.7546771E-02  0.1924993E+00
         21   -1    0    0  501  502  0.00000000000E+00  0.00000000000E+00  0.50911039767E+03  0.50911039767E+03  0.00000000000E+00 0.  1.
         21   -1    0    0  502  503 -0.00000000000E+00 -0.00000000000E+00 -0.25493260742E+01  0.25493260742E+01  0.00000000000E+00 0. -1.
          5    1    1    2  501    0 -0.67820376571E+01 -0.10426287647E+02  0.49104872371E+03  0.49122870698E+03  0.47000000000E+01 0.  1.
         -5    1    1    2    0  503  0.67820376571E+01  0.10426287647E+02  0.15512347886E+02  0.20431016760E+02  0.47000000000E+01 0. -1.
<mgrwt>
<rscale>  2 0.13296372E+02</rscale>
<asrwt>0</asrwt>
<pdfrwt beam="1">  1       21 0.78324596E-01 0.13296372E+02</pdfrwt>
<pdfrwt beam="2">  1       21 0.39220442E-03 0.13296372E+02</pdfrwt>
<totfact> 0.16429612E+07</totfact>
</mgrwt>
</event>
<event>
 4    1  0.3906087E+006  0.5381556E+01  0.7546771E-02  0.2503614E+00
         21   -1    0    0  503  502  0.00000000000E+00  0.00000000000E+00  0.58141645674E+02  0.58141645674E+02  0.00000000000E+00 0.  1.
         21   -1    0    0  501  503 -0.00000000000E+00 -0.00000000000E+00 -0.29033094824E+01  0.29033094824E+01  0.00000000000E+00 0. -1.
          5    1    1    2  501    0 -0.25298681316E+01 -0.68622877025E+00 -0.16186204524E+00  0.53839894140E+01  0.47000000000E+01 0. -1.
         -5    1    1    2    0  502  0.25298681316E+01  0.68622877025E+00  0.55400198237E+02  0.55660965743E+02  0.47000000000E+01 0.  1.
<mgrwt>
<rscale>  2 0.53815558E+01</rscale>
<asrwt>0</asrwt>
<pdfrwt beam="1">  1       21 0.89448677E-02 0.53815558E+01</pdfrwt>
<pdfrwt beam="2">  1       21 0.44666304E-03 0.53815558E+01</pdfrwt>
<totfact> 0.36687507E+08</totfact>
</mgrwt>
</event>
<event>
 4    1  0.3906087E+006  0.4805470E+01  0.7546771E-02  0.2602865E+00
         21   -1    0    0  501  502  0.00000000000E+00  0.00000000000E+00  0.14406769843E+02  0.14406769843E+02  0.00000000000E+00 0. -1.
         21   -1    0    0  502  503 -0.00000000000E+00 -0.00000000000E+00 -0.30466034620E+01  0.30466034620E+01  0.00000000000E+00 0.  1.
          5    1    1    2  501    0 -0.88461221606E-01  0.99735464240E+00  0.11687408398E+02  0.12636773985E+02  0.47000000000E+01 0. -1.
         -5    1    1    2    0  503  0.88461221606E-01 -0.99735464240E+00 -0.32724201770E+00  0.48165993199E+01  0.47000000000E+01 0.  1.
<mgrwt>
<rscale>  2 0.48054700E+01</rscale>
<asrwt>0</asrwt>
<pdfrwt beam="1">  1       21 0.22164261E-02 0.48054700E+01</pdfrwt>
<pdfrwt beam="2">  1       21 0.46870823E-03 0.48054700E+01</pdfrwt>
<totfact> 0.23687177E+09</totfact>
</mgrwt>
</event>
<event>
 4    1  0.3906087E+006  0.6122479E+01  0.7546771E-02  0.2399750E+00
         21   -1    0    0  501  502  0.00000000000E+00  0.00000000000E+00  0.14383933322E+03  0.14383933322E+03  0.00000000000E+00 0. -1.
         21   -1    0    0  502  503 -0.00000000000E+00 -0.00000000000E+00 -0.32146327554E+00  0.32146327554E+00  0.00000000000E+00 0. -1.
          5    1    1    2  501    0 -0.37657503223E+01 -0.11017600228E+01  0.10312237481E+03  0.10330396380E+03  0.47000000000E+01 0. -1.
         -5    1    1    2    0  503  0.37657503223E+01  0.11017600228E+01  0.40395495138E+02  0.40856832698E+02  0.47000000000E+01 0. -1.
<mgrwt>
<rscale>  2 0.61224791E+01</rscale>
<asrwt>0</asrwt>
<pdfrwt beam="1">  1       21 0.22129077E-01 0.61224791E+01</pdfrwt>
<pdfrwt beam="2">  1       21 0.49456003E-04 0.61224791E+01</pdfrwt>
<totfact> 0.19264252E+09</totfact>
</mgrwt>
</event>
<event>
 4    1  0.3906087E+006  0.5514602E+01  0.7546771E-02  0.2483233E+00
         21   -1    0    0  501  502  0.00000000000E+00  0.00000000000E+00  0.43856024805E+02  0.43856024805E+02  0.00000000000E+00 0.  1.
         21   -1    0    0  502  503 -0.00000000000E+00 -0.00000000000E+00 -0.72022150875E+00  0.72022150875E+00  0.00000000000E+00 0. -1.
          5    1    1    2  501    0 -0.28845866855E+01  0.20103521265E-03  0.25867064792E+02  0.26448362546E+02  0.47000000000E+01 0.  1.
         -5    1    1    2    0  503  0.28845866855E+01 -0.20103521265E-03  0.17268738504E+02  0.18127883768E+02  0.47000000000E+01 0. -1.
<mgrwt>
<rscale>  2 0.55146025E+01</rscale>
<asrwt>0</asrwt>
<pdfrwt beam="1">  1       21 0.67470786E-02 0.55146025E+01</pdfrwt>
<pdfrwt beam="2">  1       21 0.11080334E-03 0.55146025E+01</pdfrwt>
<totfact> 0.37928446E+09</totfact>
</mgrwt>
</event>
<event>
 4    1  0.3906087E+006  0.6817560E+01  0.7546771E-02  0.2319789E+00
         21   -1    0    0  501  502  0.00000000000E+00  0.00000000000E+00  0.62706316194E+02  0.62706316194E+02  0.00000000000E+00 0. -1.
         21   -1    0    0  502  503 -0.00000000000E+00 -0.00000000000E+00 -0.74140545972E+00  0.74140545972E+00  0.00000000000E+00 0.  1.
          5    1    1    2  501    0  0.14901243898E+01  0.47083593557E+01  0.31485431999E+02  0.32215082596E+02  0.47000000000E+01 0.  1.
         -5    1    1    2    0  503 -0.14901243898E+01 -0.47083593557E+01  0.30479478736E+02  0.31232639058E+02  0.47000000000E+01 0. -1.
<mgrwt>
<rscale>  2 0.68175596E+01</rscale>
<asrwt>0</asrwt>
<pdfrwt beam="1">  1       21 0.96471214E-02 0.68175596E+01</pdfrwt>
<pdfrwt beam="2">  1       21 0.11406243E-03 0.68175596E+01</pdfrwt>
<totfact> 0.25389186E+09</totfact>
</mgrwt>
</event>
<event>
 4    1  0.3906087E+006  0.8428127E+01  0.7546771E-02  0.2177301E+00
         21   -1    0    0  503  502  0.00000000000E+00  0.00000000000E+00  0.13101330003E+02  0.13101330003E+02  0.00000000000E+00 0.  1.
         21   -1    0    0  501  503 -0.00000000000E+00 -0.00000000000E+00 -0.20102881886E+02  0.20102881886E+02  0.00000000000E+00 0.  1.
          5    1    1    2  501    0 -0.18219370500E+01 -0.67545439392E+01 -0.17688490930E+02  0.19593775282E+02  0.47000000000E+01 0.  1.
         -5    1    1    2    0  502  0.18219370500E+01  0.67545439392E+01  0.10686939047E+02  0.13610436607E+02  0.47000000000E+01 0.  1.
<mgrwt>
<rscale>  2 0.84281266E+01</rscale>
<asrwt>0</asrwt>
<pdfrwt beam="1">  1       21 0.20155892E-02 0.84281266E+01</pdfrwt>
<pdfrwt beam="2">  1       21 0.30927510E-02 0.84281266E+01</pdfrwt>
<totfact> 0.28812091E+08</totfact>
</mgrwt>
</event>
<event>
 4    1  0.3906087E+006  0.1134764E+02  0.7546771E-02  0.2005536E+00
         21   -1    0    0  503  502  0.00000000000E+00  0.00000000000E+00  0.65288678752E+01  0.65288678752E+01  0.00000000000E+00 0.  1.
         21   -1    0    0  501  503 -0.00000000000E+00 -0.00000000000E+00 -0.19736326839E+02  0.19736326839E+02  0.00000000000E+00 0.  1.
          5    1    1    2  501    0  0.85653022047E+01  0.57718727297E+01 -0.69448770844E+01  0.13304143504E+02  0.47000000000E+01 0.  1.
         -5    1    1    2    0  502 -0.85653022047E+01 -0.57718727297E+01 -0.62625818789E+01  0.12961051209E+02  0.47000000000E+01 0.  1.
<mgrwt>
<rscale>  2 0.11347639E+02</rscale>
<asrwt>0</asrwt>
<pdfrwt beam="1">  1       21 0.10044412E-02 0.11347639E+02</pdfrwt>
<pdfrwt beam="2">  1       21 0.30363579E-02 0.11347639E+02</pdfrwt>
<totfact> 0.97011284E+08</totfact>
</mgrwt>
</event>
<event>
 4    1  0.3906087E+006  0.7084743E+01  0.7546771E-02  0.2292534E+00
         21   -1    0    0  503  502  0.00000000000E+00  0.00000000000E+00  0.31189562030E+02  0.31189562030E+02  0.00000000000E+00 0. -1.
         21   -1    0    0  501  503 -0.00000000000E+00 -0.00000000000E+00 -0.20396683845E+01  0.20396683845E+01  0.00000000000E+00 0.  1.
          5    1    1    2  501    0  0.20257655410E+01 -0.48989652026E+01  0.69431453739E+01  0.99197204480E+01  0.47000000000E+01 0.  1.
         -5    1    1    2    0  502 -0.20257655410E+01  0.48989652026E+01  0.22206748272E+02  0.23309509967E+02  0.47000000000E+01 0. -1.
<mgrwt>
<rscale>  2 0.70847432E+01</rscale>
<asrwt>0</asrwt>
<pdfrwt beam="1">  1       21 0.47983938E-02 0.70847432E+01</pdfrwt>
<pdfrwt beam="2">  1       21 0.31379516E-03 0.70847432E+01</pdfrwt>
<totfact> 0.18864945E+09</totfact>
</mgrwt>
</event>
<event>
 4    1  0.3906087E+006  0.7934330E+01  0.7546771E-02  0.2215979E+00
         21   -1    0    0  503  502  0.00000000000E+00  0.00000000000E+00  0.13423725982E+04  0.13423725982E+04  0.00000000000E+00 0.  1.
         21   -1    0    0  501  503 -0.00000000000E+00 -0.00000000000E+00 -0.67174768073E-01  0.67174768073E-01  0.00000000000E+00 0. -1.
          5    1    1    2  501    0  0.22546623080E+01  0.59816459664E+01  0.30237126148E+03  0.30247534339E+03  0.47000000000E+01 0.  1.
         -5    1    1    2    0  502 -0.22546623080E+01 -0.59816459664E+01  0.10399341619E+04  0.10399644296E+04  0.47000000000E+01 0.  1.
<mgrwt>
<rscale>  2 0.79343299E+01</rscale>
<asrwt>0</asrwt>
<pdfrwt beam="1">  1       21 0.20649738E+00 0.79343299E+01</pdfrwt>
<pdfrwt beam="2">  1       21 0.10335655E-04 0.79343299E+01</pdfrwt>
<totfact> 0.24675578E+08</totfact>
</mgrwt>
</event>
<event>
 4    1  0.3906087E+006  0.5025626E+01  0.7546771E-02  0.2562628E+00
         21   -1    0    0  501  502  0.00000000000E+00  0.00000000000E+00  0.61394691409E+01  0.61394691409E+01  0.00000000000E+00 0. -1.
         21   -1    0    0  502  503 -0.00000000000E+00 -0.00000000000E+00 -0.60793629469E+01  0.60793629469E+01  0.00000000000E+00 0. -1.
          5    1    1    2  501    0  0.38480668605E+00 -0.17374824284E+01 -0.34437678313E+01  0.60923278187E+01  0.47000000000E+01 0. -1.
         -5    1    1    2    0  503 -0.38480668605E+00  0.17374824284E+01  0.35038740252E+01  0.61265042691E+01  0.47000000000E+01 0. -1.
<mgrwt>
<rscale>  2 0.50256265E+01</rscale>
<asrwt>0</asrwt>
<pdfrwt beam="1">  1       21 0.94453371E-03 0.50256265E+01</pdfrwt>
<pdfrwt beam="2">  1       21 0.93528661E-03 0.50256265E+01</pdfrwt>
<totfact> 0.31693187E+09</totfact>
</mgrwt>
</event>
<event>
 4    1  0.3906087E+006  0.5062747E+01  0.7546771E-02  0.2556141E+00
         21   -1    0    0  501  502  0.00000000000E+00  0.00000000000E+00  0.28196921563E+03  0.28196921563E+03  0.00000000000E+00 0. -1.
         21   -1    0    0  502  503 -0.00000000000E+00 -0.00000000000E+00 -0.91181013628E-01  0.91181013628E-01  0.00000000000E+00 0.  1.
          5    1    1    2  501    0  0.10238583153E+01 -0.15789633855E+01  0.14874807095E+03  0.14883420314E+03  0.47000000000E+01 0.  1.
         -5    1    1    2    0  503 -0.10238583153E+01  0.15789633855E+01  0.13312996366E+03  0.13322619350E+03  0.47000000000E+01 0.  1.
<mgrwt>
<rscale>  2 0.50627474E+01</rscale>
<asrwt>0</asrwt>
<pdfrwt beam="1">  1       21 0.43379181E-01 0.50627474E+01</pdfrwt>
<pdfrwt beam="2">  1       21 0.14028074E-04 0.50627474E+01</pdfrwt>
<totfact> 0.28292033E+09</totfact>
</mgrwt>
</event>
<event>
 4    1  0.3906087E+006  0.1053358E+02  0.7546771E-02  0.2045835E+00
         21   -1    0    0  501  502  0.00000000000E+00  0.00000000000E+00  0.53491314217E+02  0.53491314217E+02  0.00000000000E+00 0.  1.
         21   -1    0    0  502  503 -0.00000000000E+00 -0.00000000000E+00 -0.33535919036E+01  0.33535919036E+01  0.00000000000E+00 0.  1.
          5    1    1    2  501    0  0.80004828928E+01  0.49858455477E+01  0.42623558338E+02  0.43905855051E+02  0.47000000000E+01 0.  1.
         -5    1    1    2    0  503 -0.80004828928E+01 -0.49858455477E+01  0.75141639759E+01  0.12939051070E+02  0.47000000000E+01 0.  1.
<mgrwt>
<rscale>  2 0.10533584E+02</rscale>
<asrwt>0</asrwt>
<pdfrwt beam="1">  1       21 0.82294323E-02 0.10533584E+02</pdfrwt>
<pdfrwt beam="2">  1       21 0.51593725E-03 0.10533584E+02</pdfrwt>
<totfact> 0.52584778E+08</totfact>
</mgrwt>
</event>
<event>
 4    1  0.3906087E+006  0.9621742E+01  0.7546771E-02  0.2097176E+00
         21   -1    0    0  501  502  0.00000000000E+00  0.00000000000E+00  0.87489207750E+01  0.87489207750E+01  0.00000000000E+00 0.  1.
         21   -1    0    0  502  503 -0.00000000000E+00 -0.00000000000E+00 -0.33671243834E+02  0.33671243834E+02  0.00000000000E+00 0. -1.
          5    1    1    2  501    0 -0.83947306452E+01  0.12814700897E+00  0.51027411009E+01  0.10891092278E+02  0.47000000000E+01 0.  1.
         -5    1    1    2    0  503  0.83947306452E+01 -0.12814700897E+00 -0.30025064160E+02  0.31529072331E+02  0.47000000000E+01 0. -1.
<mgrwt>
<rscale>  2 0.96217423E+01</rscale>
<asrwt>0</asrwt>
<pdfrwt beam="1">  1       21 0.13459878E-02 0.96217423E+01</pdfrwt>
<pdfrwt beam="2">  1       21 0.51801913E-02 0.96217423E+01</pdfrwt>
<totfact> 0.25731612E+08</totfact>
</mgrwt>
</event>
<event>
 4    1  0.3906087E+006  0.6290434E+01  0.7546771E-02  0.2379089E+00
         21   -1    0    0  501  502  0.00000000000E+00  0.00000000000E+00  0.75638639597E+03  0.75638639597E+03  0.00000000000E+00 0.  1.
         21   -1    0    0  502  503 -0.00000000000E+00 -0.00000000000E+00 -0.95345421704E-01  0.95345421704E-01  0.00000000000E+00 0.  1.
          5    1    1    2  501    0  0.54610169370E+00  0.41450365323E+01  0.63224962204E+03  0.63228091393E+03  0.47000000000E+01 0.  1.
         -5    1    1    2    0  503 -0.54610169370E+00 -0.41450365323E+01  0.12404142851E+03  0.12420082746E+03  0.47000000000E+01 0.  1.
<mgrwt>
<rscale>  2 0.62904336E+01</rscale>
<asrwt>0</asrwt>
<pdfrwt beam="1">  1       21 0.11636233E+00 0.62904336E+01</pdfrwt>
<pdfrwt beam="2">  1       21 0.14669132E-04 0.62904336E+01</pdfrwt>
<totfact> 0.48044760E+08</totfact>
</mgrwt>
</event>
<event>
 4    1  0.3906087E+006  0.6331681E+01  0.7546771E-02  0.2374155E+00
         21   -1    0    0  503  502  0.00000000000E+00  0.00000000000E+00  0.33053366917E+01  0.33053366917E+01  0.00000000000E+00 0. -1.
         21   -1    0    0  501  503 -0.00000000000E+00 -0.00000000000E+00 -0.13229672441E+02  0.13229672441E+02  0.00000000000E+00 0.  1.
          5    1    1    2  501    0  0.13128851249E+01 -0.40344160235E+01 -0.73469229929E+01  0.96988379440E+01  0.47000000000E+01 0.  1.
         -5    1    1    2    0  502 -0.13128851249E+01  0.40344160235E+01 -0.25774127562E+01  0.68361711884E+01  0.47000000000E+01 0. -1.
<mgrwt>
<rscale>  2 0.63316807E+01</rscale>
<asrwt>0</asrwt>
<pdfrwt beam="1">  1       21 0.50851335E-03 0.63316807E+01</pdfrwt>
<pdfrwt beam="2">  1       21 0.20353342E-02 0.63316807E+01</pdfrwt>
<totfact> 0.31010583E+09</totfact>
</mgrwt>
</event>
<event>
 4    1  0.3906087E+006  0.4739198E+01  0.7546771E-02  0.2615609E+00
         21   -1    0    0  503  502  0.00000000000E+00  0.00000000000E+00  0.33005396445E+03  0.33005396445E+03  0.00000000000E+00 0.  1.
         21   -1    0    0  501  503 -0.00000000000E+00 -0.00000000000E+00 -0.89137459157E-01  0.89137459157E-01  0.00000000000E+00 0.  1.
          5    1    1    2  501    0  0.60117415859E+00 -0.92664743348E-01  0.84692738768E+02  0.84825232079E+02  0.47000000000E+01 0.  1.
         -5    1    1    2    0  502 -0.60117415859E+00  0.92664743348E-01  0.24527208822E+03  0.24531786983E+03  0.47000000000E+01 0.  1.
<mgrwt>
<rscale>  2 0.47391979E+01</rscale>
<asrwt>0</asrwt>
<pdfrwt beam="1">  1       21 0.50776555E-01 0.47391979E+01</pdfrwt>
<pdfrwt beam="2">  1       21 0.13713719E-04 0.47391979E+01</pdfrwt>
<totfact> 0.20832908E+09</totfact>
</mgrwt>
</event>
<event>
 4    1  0.3906087E+006  0.4915747E+01  0.7546771E-02  0.2582321E+00
         21   -1    0    0  503  502  0.00000000000E+00  0.00000000000E+00  0.62355323733E+03  0.62355323733E+03  0.00000000000E+00 0. -1.
         21   -1    0    0  501  503 -0.00000000000E+00 -0.00000000000E+00 -0.60824368415E-01  0.60824368415E-01  0.00000000000E+00 0. -1.
          5    1    1    2  501    0 -0.55389137906E+00 -0.13295776536E+01  0.12391769699E+03  0.12401516117E+03  0.47000000000E+01 0. -1.
         -5    1    1    2    0  502  0.55389137906E+00  0.13295776536E+01  0.49957471598E+03  0.49959890053E+03  0.47000000000E+01 0. -1.
<mgrwt>
<rscale>  2 0.49157474E+01</rscale>
<asrwt>0</asrwt>
<pdfrwt beam="1">  1       21 0.95926148E-01 0.49157474E+01</pdfrwt>
<pdfrwt beam="2">  1       21 0.93580945E-05 0.49157474E+01</pdfrwt>
<totfact> 0.10847903E+09</totfact>
</mgrwt>
</event>
<event>
 4    1  0.3906087E+006  0.6028480E+01  0.7546771E-02  0.2411732E+00
         21   -1    0    0  503  502  0.00000000000E+00  0.00000000000E+00  0.12043194147E+00  0.12043194147E+00  0.00000000000E+00 0.  1.
         21   -1    0    0  501  503 -0.00000000000E+00 -0.00000000000E+00 -0.70097033595E+03  0.70097033595E+03  0.00000000000E+00 0.  1.
          5    1    1    2  501    0  0.33779645886E+01  0.16858029526E+01 -0.61496452761E+03  0.61499407541E+03  0.47000000000E+01 0.  1.
         -5    1    1    2    0  502 -0.33779645886E+01 -0.16858029526E+01 -0.85885376402E+02  0.86096692481E+02  0.47000000000E+01 0.  1.
<mgrwt>
<rscale>  2 0.60284804E+01</rscale>
<asrwt>0</asrwt>
<pdfrwt beam="1">  1       21 0.18527674E-04 0.60284804E+01</pdfrwt>
<pdfrwt beam="2">  1       21 0.10784344E+00 0.60284804E+01</pdfrwt>
<totfact> 0.40084752E+08</totfact>
</mgrwt>
</event>
<event>
 4    1  0.3906087E+006  0.7608131E+01  0.7546771E-02  0.2243728E+00
         21   -1    0    0  503  502  0.00000000000E+00  0.00000000000E+00  0.81127705398E+02  0.81127705398E+02  0.00000000000E+00 0. -1.
         21   -1    0    0  501  503 -0.00000000000E+00 -0.00000000000E+00 -0.87609528669E+00  0.87609528669E+00  0.00000000000E+00 0.  1.
          5    1    1    2  501    0 -0.59512691148E+01  0.61323248484E+00  0.22461437748E+02  0.23714970881E+02  0.47000000000E+01 0.  1.
         -5    1    1    2    0  502  0.59512691148E+01 -0.61323248484E+00  0.57790172363E+02  0.58288829804E+02  0.47000000000E+01 0.  1.
<mgrwt>
<rscale>  2 0.76081311E+01</rscale>
<asrwt>0</asrwt>
<pdfrwt beam="1">  1       21 0.12481180E-01 0.76081311E+01</pdfrwt>
<pdfrwt beam="2">  1       21 0.13478395E-03 0.76081311E+01</pdfrwt>
<totfact> 0.14648638E+09</totfact>
</mgrwt>
</event>
<event>
 4    1  0.3906087E+006  0.7310430E+01  0.7546771E-02  0.2270791E+00
         21   -1    0    0  501  502  0.00000000000E+00  0.00000000000E+00  0.46433994353E+02  0.46433994353E+02  0.00000000000E+00 0.  1.
         21   -1    0    0  502  503 -0.00000000000E+00 -0.00000000000E+00 -0.37840429454E+01  0.37840429454E+01  0.00000000000E+00 0. -1.
          5    1    1    2  501    0 -0.25110509739E+01 -0.50046994856E+01  0.42270259425E+02  0.42897753155E+02  0.47000000000E+01 0.  1.
         -5    1    1    2    0  503  0.25110509739E+01  0.50046994856E+01  0.37969198293E+00  0.73202841432E+01  0.47000000000E+01 0. -1.
<mgrwt>
<rscale>  2 0.73104305E+01</rscale>
<asrwt>0</asrwt>
<pdfrwt beam="1">  1       21 0.71436911E-02 0.73104305E+01</pdfrwt>
<pdfrwt beam="2">  1       21 0.58216048E-03 0.73104305E+01</pdfrwt>
<totfact> 0.44523020E+08</totfact>
</mgrwt>
</event>
<event>
 4    1  0.3906087E+006  0.5390197E+01  0.7546771E-02  0.2502264E+00
         21   -1    0    0  503  502  0.00000000000E+00  0.00000000000E+00  0.25314705121E+00  0.25314705121E+00  0.00000000000E+00 0.  1.
         21   -1    0    0  501  503 -0.00000000000E+00 -0.00000000000E+00 -0.11586520114E+04  0.11586520114E+04  0.00000000000E+00 0.  1.
          5    1    1    2  501    0 -0.23284271927E+01  0.12420347134E+01 -0.11292044561E+04  0.11292173209E+04  0.47000000000E+01 0.  1.
         -5    1    1    2    0  502  0.23284271927E+01 -0.12420347134E+01 -0.29194408276E+02  0.29687837544E+02  0.47000000000E+01 0.  1.
<mgrwt>
<rscale>  2 0.53901970E+01</rscale>
<asrwt>0</asrwt>
<pdfrwt beam="1">  1       21 0.38945402E-04 0.53901970E+01</pdfrwt>
<pdfrwt beam="2">  1       21 0.17825552E+00 0.53901970E+01</pdfrwt>
<totfact> 0.48088501E+07</totfact>
</mgrwt>
</event>
<event>
 4    1  0.3906087E+006  0.4770814E+01  0.7546771E-02  0.2609491E+00
         21   -1    0    0  503  502  0.00000000000E+00  0.00000000000E+00  0.22238973654E+01  0.22238973654E+01  0.00000000000E+00 0.  1.
         21   -1    0    0  501  503 -0.00000000000E+00 -0.00000000000E+00 -0.16403713940E+02  0.16403713940E+02  0.00000000000E+00 0.  1.
          5    1    1    2  501    0 -0.68744675855E+00 -0.44506408157E+00 -0.12801642972E+02  0.13661724923E+02  0.47000000000E+01 0.  1.
         -5    1    1    2    0  502  0.68744675855E+00  0.44506408157E+00 -0.13781736021E+01  0.49658863821E+01  0.47000000000E+01 0.  1.
<mgrwt>
<rscale>  2 0.47708139E+01</rscale>
<asrwt>0</asrwt>
<pdfrwt beam="1">  1       21 0.34213806E-03 0.47708139E+01</pdfrwt>
<pdfrwt beam="2">  1       21 0.25236483E-02 0.47708139E+01</pdfrwt>
<totfact> 0.30023762E+09</totfact>
</mgrwt>
</event>
<event>
 4    1  0.3906087E+006  0.2847878E+02  0.7546771E-02  0.1615539E+00
         21   -1    0    0  501  502  0.00000000000E+00  0.00000000000E+00  0.52500493079E+03  0.52500493079E+03  0.00000000000E+00 0. -1.
         21   -1    0    0  502  503 -0.00000000000E+00 -0.00000000000E+00 -0.39644971280E+01  0.39644971280E+01  0.00000000000E+00 0.  1.
          5    1    1    2  501    0  0.22472354124E+02 -0.16850636999E+02  0.46714613518E+03  0.46801341036E+03  0.47000000000E+01 0. -1.
         -5    1    1    2    0  503 -0.22472354124E+02  0.16850636999E+02  0.53894298482E+02  0.60956017554E+02  0.47000000000E+01 0.  1.
<mgrwt>
<rscale>  2 0.28478776E+02</rscale>
<asrwt>0</asrwt>
<pdfrwt beam="1">  1       21 0.80769934E-01 0.28478776E+02</pdfrwt>
<pdfrwt beam="2">  1       21 0.60992305E-03 0.28478776E+02</pdfrwt>
<totfact> 0.94127215E+06</totfact>
</mgrwt>
</event>
<event>
 4    1  0.3906087E+006  0.7157715E+01  0.7546771E-02  0.2285382E+00
         21   -1    0    0  503  502  0.00000000000E+00  0.00000000000E+00  0.58537827192E+02  0.58537827192E+02  0.00000000000E+00 0.  1.
         21   -1    0    0  501  503 -0.00000000000E+00 -0.00000000000E+00 -0.42566495428E+01  0.42566495428E+01  0.00000000000E+00 0.  1.
          5    1    1    2  501    0  0.40668731904E+01 -0.35501296619E+01 -0.84331701609E+00  0.72072228877E+01  0.47000000000E+01 0.  1.
         -5    1    1    2    0  502 -0.40668731904E+01  0.35501296619E+01  0.55124494665E+02  0.55587253847E+02  0.47000000000E+01 0.  1.
<mgrwt>
<rscale>  2 0.71577146E+01</rscale>
<asrwt>0</asrwt>
<pdfrwt beam="1">  1       21 0.90058190E-02 0.71577146E+01</pdfrwt>
<pdfrwt beam="2">  1       21 0.65486920E-03 0.71577146E+01</pdfrwt>
<totfact> 0.26063151E+08</totfact>
</mgrwt>
</event>
<event>
 4    1  0.3906087E+006  0.5200023E+01  0.7546771E-02  0.2532848E+00
         21   -1    0    0  503  502  0.00000000000E+00  0.00000000000E+00  0.47817321593E+01  0.47817321593E+01  0.00000000000E+00 0.  1.
         21   -1    0    0  501  503 -0.00000000000E+00 -0.00000000000E+00 -0.10045532550E+02  0.10045532550E+02  0.00000000000E+00 0.  1.
          5    1    1    2  501    0  0.15527504266E+01 -0.15934892689E+01 -0.75331614564E+01  0.91536202382E+01  0.47000000000E+01 0.  1.
         -5    1    1    2    0  502 -0.15527504266E+01  0.15934892689E+01  0.22693610657E+01  0.56736444711E+01  0.47000000000E+01 0.  1.
<mgrwt>
<rscale>  2 0.52000233E+01</rscale>
<asrwt>0</asrwt>
<pdfrwt beam="1">  1       21 0.73565110E-03 0.52000233E+01</pdfrwt>
<pdfrwt beam="2">  1       21 0.15454665E-02 0.52000233E+01</pdfrwt>
<totfact> 0.22961322E+09</totfact>
</mgrwt>
</event>
<event>
 4    1  0.3906087E+006  0.7007069E+01  0.7546771E-02  0.2300282E+00
         21   -1    0    0  501  502  0.00000000000E+00  0.00000000000E+00  0.88942662201E+01  0.88942662201E+01  0.00000000000E+00 0. -1.
         21   -1    0    0  502  503 -0.00000000000E+00 -0.00000000000E+00 -0.11847762359E+02  0.11847762359E+02  0.00000000000E+00 0.  1.
          5    1    1    2  501    0  0.45467276295E+01 -0.25171975506E+01  0.61023557982E+01  0.92918115528E+01  0.47000000000E+01 0. -1.
         -5    1    1    2    0  503 -0.45467276295E+01  0.25171975506E+01 -0.90558519371E+01  0.11450217026E+02  0.47000000000E+01 0.  1.
<mgrwt>
<rscale>  2 0.70070690E+01</rscale>
<asrwt>0</asrwt>
<pdfrwt beam="1">  1       21 0.13683486E-02 0.70070690E+01</pdfrwt>
<pdfrwt beam="2">  1       21 0.18227327E-02 0.70070690E+01</pdfrwt>
<totfact> 0.97188905E+08</totfact>
</mgrwt>
</event>
<event>
 4    1  0.3906087E+006  0.4709632E+01  0.7546771E-02  0.2621395E+00
         21   -1    0    0  501  502  0.00000000000E+00  0.00000000000E+00  0.51869478763E+02  0.51869478763E+02  0.00000000000E+00 0.  1.
         21   -1    0    0  502  503 -0.00000000000E+00 -0.00000000000E+00 -0.57594910673E+00  0.57594910673E+00  0.00000000000E+00 0.  1.
          5    1    1    2  501    0  0.23136273481E+00  0.19262559543E+00  0.38954156388E+02  0.39237825287E+02  0.47000000000E+01 0.  1.
         -5    1    1    2    0  503 -0.23136273481E+00 -0.19262559543E+00  0.12339373268E+02  0.13207602583E+02  0.47000000000E+01 0.  1.
<mgrwt>
<rscale>  2 0.47096320E+01</rscale>
<asrwt>0</asrwt>
<pdfrwt beam="1">  1       21 0.79799161E-02 0.47096320E+01</pdfrwt>
<pdfrwt beam="2">  1       21 0.88607596E-04 0.47096320E+01</pdfrwt>
<totfact> 0.33962057E+09</totfact>
</mgrwt>
</event>
<event>
 4    1  0.3906087E+006  0.6293590E+01  0.7546771E-02  0.2378710E+00
         21   -1    0    0  501  502  0.00000000000E+00  0.00000000000E+00  0.16112306148E+01  0.16112306148E+01  0.00000000000E+00 0. -1.
         21   -1    0    0  502  503 -0.00000000000E+00 -0.00000000000E+00 -0.31665609736E+03  0.31665609736E+03  0.00000000000E+00 0. -1.
          5    1    1    2  501    0  0.37856014462E+01  0.17856357421E+01 -0.46906318219E+01  0.78492866046E+01  0.47000000000E+01 0. -1.
         -5    1    1    2    0  503 -0.37856014462E+01 -0.17856357421E+01 -0.31035423492E+03  0.31041804137E+03  0.47000000000E+01 0. -1.
<mgrwt>
<rscale>  2 0.62935899E+01</rscale>
<asrwt>0</asrwt>
<pdfrwt beam="1">  1       21 0.24788179E-03 0.62935899E+01</pdfrwt>
<pdfrwt beam="2">  1       21 0.48716291E-01 0.62935899E+01</pdfrwt>
<totfact> 0.57734966E+07</totfact>
</mgrwt>
</event>
<event>
 4    1  0.3906087E+006  0.8382573E+01  0.7546771E-02  0.2180716E+00
         21   -1    0    0  501  502  0.00000000000E+00  0.00000000000E+00  0.13753939871E+01  0.13753939871E+01  0.00000000000E+00 0.  1.
         21   -1    0    0  502  503 -0.00000000000E+00 -0.00000000000E+00 -0.53199112235E+02  0.53199112235E+02  0.00000000000E+00 0. -1.
          5    1    1    2  501    0  0.62519437034E+01 -0.30150833507E+01 -0.31346346552E+02  0.32447819184E+02  0.47000000000E+01 0. -1.
         -5    1    1    2    0  503 -0.62519437034E+01  0.30150833507E+01 -0.20477371697E+02  0.22126687038E+02  0.47000000000E+01 0.  1.
<mgrwt>
<rscale>  2 0.83825729E+01</rscale>
<asrwt>0</asrwt>
<pdfrwt beam="1">  1       21 0.21159912E-03 0.83825729E+01</pdfrwt>
<pdfrwt beam="2">  1       21 0.81844772E-02 0.83825729E+01</pdfrwt>
<totfact> 0.16276253E+09</totfact>
</mgrwt>
</event>
<event>
 4    1  0.3906087E+006  0.9517527E+01  0.7546771E-02  0.2103532E+00
         21   -1    0    0  501  502  0.00000000000E+00  0.00000000000E+00  0.26498100868E+03  0.26498100868E+03  0.00000000000E+00 0.  1.
         21   -1    0    0  502  503 -0.00000000000E+00 -0.00000000000E+00 -0.44866456412E+00  0.44866456412E+00  0.00000000000E+00 0. -1.
          5    1    1    2  501    0  0.29177435281E+01 -0.77446820025E+01  0.19702174291E+03  0.19725149051E+03  0.47000000000E+01 0.  1.
         -5    1    1    2    0  503 -0.29177435281E+01  0.77446820025E+01  0.67510601206E+02  0.68178182741E+02  0.47000000000E+01 0. -1.
<mgrwt>
<rscale>  2 0.95175273E+01</rscale>
<asrwt>0</asrwt>
<pdfrwt beam="1">  1       21 0.40766184E-01 0.95175273E+01</pdfrwt>
<pdfrwt beam="2">  1       21 0.69025529E-04 0.95175273E+01</pdfrwt>
<totfact> 0.57311452E+08</totfact>
</mgrwt>
</event>
<event>
 4    1  0.3906087E+006  0.7714758E+01  0.7546771E-02  0.2234449E+00
         21   -1    0    0  503  502  0.00000000000E+00  0.00000000000E+00  0.17067343881E+03  0.17067343881E+03  0.00000000000E+00 0.  1.
         21   -1    0    0  501  503 -0.00000000000E+00 -0.00000000000E+00 -0.70060235820E+00  0.70060235820E+00  0.00000000000E+00 0. -1.
          5    1    1    2  501    0 -0.22523901159E+01 -0.56880776702E+01  0.24260079478E+02  0.25457198297E+02  0.47000000000E+01 0. -1.
         -5    1    1    2    0  502  0.22523901159E+01  0.56880776702E+01  0.14571275698E+03  0.14591684287E+03  0.47000000000E+01 0.  1.
<mgrwt>
<rscale>  2 0.77147579E+01</rscale>
<asrwt>0</asrwt>
<pdfrwt beam="1">  1       21 0.26257419E-01 0.77147579E+01</pdfrwt>
<pdfrwt beam="2">  1       21 0.10778511E-03 0.77147579E+01</pdfrwt>
<totfact> 0.59592737E+08</totfact>
</mgrwt>
</event>
<event>
 4    1  0.3906087E+006  0.1306215E+02  0.7546771E-02  0.1933691E+00
         21   -1    0    0  503  502  0.00000000000E+00  0.00000000000E+00  0.29732725350E+01  0.29732725350E+01  0.00000000000E+00 0.  1.
         21   -1    0    0  501  503 -0.00000000000E+00 -0.00000000000E+00 -0.10334249513E+03  0.10334249513E+03  0.00000000000E+00 0. -1.
          5    1    1    2  501    0 -0.10556286028E+02  0.60905374820E+01 -0.85633991659E+02  0.86624478925E+02  0.47000000000E+01 0. -1.
         -5    1    1    2    0  502  0.10556286028E+02 -0.60905374820E+01 -0.14735230937E+02  0.19691288741E+02  0.47000000000E+01 0.  1.
<mgrwt>
<rscale>  2 0.13062152E+02</rscale>
<asrwt>0</asrwt>
<pdfrwt beam="1">  1       21 0.45742656E-03 0.13062152E+02</pdfrwt>
<pdfrwt beam="2">  1       21 0.15898845E-01 0.13062152E+02</pdfrwt>
<totfact> 0.23846299E+08</totfact>
</mgrwt>
</event>
<event>
 4    1  0.3906087E+006  0.4926873E+01  0.7546771E-02  0.2580292E+00
         21   -1    0    0  501  502  0.00000000000E+00  0.00000000000E+00  0.21750702422E+01  0.21750702422E+01  0.00000000000E+00 0. -1.
         21   -1    0    0  502  503 -0.00000000000E+00 -0.00000000000E+00 -0.41007964289E+02  0.41007964289E+02  0.00000000000E+00 0. -1.
          5    1    1    2  501    0 -0.76936804117E+00  0.12618054967E+01 -0.99577698005E+00  0.50264950103E+01  0.47000000000E+01 0. -1.
         -5    1    1    2    0  503  0.76936804117E+00 -0.12618054967E+01 -0.37837117067E+02  0.38156539521E+02  0.47000000000E+01 0. -1.
<mgrwt>
<rscale>  2 0.49268733E+01</rscale>
<asrwt>0</asrwt>
<pdfrwt beam="1">  1       21 0.33462622E-03 0.49268733E+01</pdfrwt>
<pdfrwt beam="2">  1       21 0.63089171E-02 0.49268733E+01</pdfrwt>
<totfact> 0.84884719E+08</totfact>
</mgrwt>
</event>
<event>
 4    1  0.3906087E+006  0.5579494E+01  0.7546771E-02  0.2473593E+00
         21   -1    0    0  501  502  0.00000000000E+00  0.00000000000E+00  0.31613834476E+01  0.31613834476E+01  0.00000000000E+00 0.  1.
         21   -1    0    0  502  503 -0.00000000000E+00 -0.00000000000E+00 -0.20038771585E+02  0.20038771585E+02  0.00000000000E+00 0. -1.
          5    1    1    2  501    0  0.22988159557E+01 -0.19380913477E+01 -0.16601696811E+00  0.55819633198E+01  0.47000000000E+01 0.  1.
         -5    1    1    2    0  503 -0.22988159557E+01  0.19380913477E+01 -0.16711371169E+02  0.17618191713E+02  0.47000000000E+01 0. -1.
<mgrwt>
<rscale>  2 0.55794940E+01</rscale>
<asrwt>0</asrwt>
<pdfrwt beam="1">  1       21 0.48636669E-03 0.55794940E+01</pdfrwt>
<pdfrwt beam="2">  1       21 0.30828879E-02 0.55794940E+01</pdfrwt>
<totfact> 0.16216589E+09</totfact>
</mgrwt>
</event>
<event>
 4    1  0.3906087E+006  0.5390599E+01  0.7546771E-02  0.2502201E+00
         21   -1    0    0  503  502  0.00000000000E+00  0.00000000000E+00  0.29519350499E+03  0.29519350499E+03  0.00000000000E+00 0.  1.
         21   -1    0    0  501  503 -0.00000000000E+00 -0.00000000000E+00 -0.17611271629E+01  0.17611271629E+01  0.00000000000E+00 0. -1.
          5    1    1    2  501    0  0.83229266499E-01 -0.26384903801E+01  0.24481424861E+01  0.59204695953E+01  0.47000000000E+01 0. -1.
         -5    1    1    2    0  502 -0.83229266499E-01  0.26384903801E+01  0.29098423535E+03  0.29103416256E+03  0.47000000000E+01 0.  1.
<mgrwt>
<rscale>  2 0.53905991E+01</rscale>
<asrwt>0</asrwt>
<pdfrwt beam="1">  1       21 0.45414346E-01 0.53905991E+01</pdfrwt>
<pdfrwt beam="2">  1       21 0.27094287E-03 0.53905991E+01</pdfrwt>
<totfact> 0.52891660E+07</totfact>
</mgrwt>
</event>
<event>
 4    1  0.3906087E+006  0.5361474E+01  0.7546771E-02  0.2506764E+00
         21   -1    0    0  503  502  0.00000000000E+00  0.00000000000E+00  0.19365039948E+00  0.19365039948E+00  0.00000000000E+00 0.  1.
         21   -1    0    0  501  503 -0.00000000000E+00 -0.00000000000E+00 -0.17517446831E+03  0.17517446831E+03  0.00000000000E+00 0.  1.
          5    1    1    2  501    0 -0.23357775078E+01  0.10952405412E+01 -0.12174536426E+03  0.12186336253E+03  0.47000000000E+01 0.  1.
         -5    1    1    2    0  502  0.23357775078E+01 -0.10952405412E+01 -0.53235453653E+02  0.53504756181E+02  0.47000000000E+01 0.  1.
<mgrwt>
<rscale>  2 0.53614745E+01</rscale>
<asrwt>0</asrwt>
<pdfrwt beam="1">  1       21 0.29792256E-04 0.53614745E+01</pdfrwt>
<pdfrwt beam="2">  1       21 0.26950020E-01 0.53614745E+01</pdfrwt>
<totfact> 0.24537279E+09</totfact>
</mgrwt>
</event>
<event>
 4    1  0.3906087E+006  0.4794591E+01  0.7546771E-02  0.2604936E+00
         21   -1    0    0  503  502  0.00000000000E+00  0.00000000000E+00  0.31834029928E+00  0.31834029928E+00  0.00000000000E+00 0.  1.
         21   -1    0    0  501  503 -0.00000000000E+00 -0.00000000000E+00 -0.99281826797E+02  0.99281826797E+02  0.00000000000E+00 0.  1.
          5    1    1    2  501    0  0.64472254675E+00 -0.69457345890E+00 -0.75485444279E+02  0.75637559436E+02  0.47000000000E+01 0.  1.
         -5    1    1    2    0  502 -0.64472254675E+00  0.69457345890E+00 -0.23478042219E+02  0.23962607660E+02  0.47000000000E+01 0.  1.
<mgrwt>
<rscale>  2 0.47945906E+01</rscale>
<asrwt>0</asrwt>
<pdfrwt beam="1">  1       21 0.48975413E-04 0.47945906E+01</pdfrwt>
<pdfrwt beam="2">  1       21 0.15274133E-01 0.47945906E+01</pdfrwt>
<totfact> 0.28293328E+09</totfact>
</mgrwt>
</event>
<event>
 4    1  0.3906087E+006  0.5531993E+01  0.7546771E-02  0.2480631E+00
         21   -1    0    0  503  502  0.00000000000E+00  0.00000000000E+00  0.38744142101E+02  0.38744142101E+02  0.00000000000E+00 0.  1.
         21   -1    0    0  501  503 -0.00000000000E+00 -0.00000000000E+00 -0.79006684767E+00  0.79006684767E+00  0.00000000000E+00 0. -1.
          5    1    1    2  501    0  0.29065366443E+01  0.25493764409E+00  0.19286734224E+02  0.20064422880E+02  0.47000000000E+01 0. -1.
         -5    1    1    2    0  502 -0.29065366443E+01 -0.25493764409E+00  0.18667341029E+02  0.19469786068E+02  0.47000000000E+01 0.  1.
<mgrwt>
<rscale>  2 0.55319932E+01</rscale>
<asrwt>0</asrwt>
<pdfrwt beam="1">  1       21 0.59606358E-02 0.55319932E+01</pdfrwt>
<pdfrwt beam="2">  1       21 0.12154878E-03 0.55319932E+01</pdfrwt>
<totfact> 0.40411111E+09</totfact>
</mgrwt>
</event>
<event>
 4    1  0.3906087E+006  0.5614838E+01  0.7546771E-02  0.2468422E+00
         21   -1    0    0  503  502  0.00000000000E+00  0.00000000000E+00  0.77172592651E+00  0.77172592651E+00  0.00000000000E+00 0.  1.
         21   -1    0    0  501  503 -0.00000000000E+00 -0.00000000000E+00 -0.62824427105E+02  0.62824427105E+02  0.00000000000E+00 0. -1.
          5    1    1    2  501    0 -0.27306865535E+01  0.14070385963E+01 -0.49831526568E+02  0.50146858793E+02  0.47000000000E+01 0. -1.
         -5    1    1    2    0  502  0.27306865535E+01 -0.14070385963E+01 -0.12221174610E+02  0.13449294239E+02  0.47000000000E+01 0.  1.
<mgrwt>
<rscale>  2 0.56148381E+01</rscale>
<asrwt>0</asrwt>
<pdfrwt beam="1">  1       21 0.11872707E-03 0.56148381E+01</pdfrwt>
<pdfrwt beam="2">  1       21 0.96652965E-02 0.56148381E+01</pdfrwt>
<totfact> 0.20434790E+09</totfact>
</mgrwt>
</event>
<event>
 4    1  0.3906087E+006  0.9800768E+01  0.7546771E-02  0.2086507E+00
         21   -1    0    0  501  502  0.00000000000E+00  0.00000000000E+00  0.11008199650E+01  0.11008199650E+01  0.00000000000E+00 0. -1.
         21   -1    0    0  502  503 -0.00000000000E+00 -0.00000000000E+00 -0.91845182871E+02  0.91845182871E+02  0.00000000000E+00 0.  1.
          5    1    1    2  501    0 -0.47808286501E+01  0.71490363980E+01 -0.34985934337E+02  0.36332776462E+02  0.47000000000E+01 0. -1.
         -5    1    1    2    0  503  0.47808286501E+01 -0.71490363980E+01 -0.55758428569E+02  0.56613226374E+02  0.47000000000E+01 0.  1.
<mgrwt>
<rscale>  2 0.98007675E+01</rscale>
<asrwt>0</asrwt>
<pdfrwt beam="1">  1       21 0.16935689E-03 0.98007675E+01</pdfrwt>
<pdfrwt beam="2">  1       21 0.14130030E-01 0.98007675E+01</pdfrwt>
<totfact> 0.10267799E+09</totfact>
</mgrwt>
</event>
<event>
 4    1  0.3906087E+006  0.5681348E+01  0.7546771E-02  0.2458838E+00
         21   -1    0    0  501  502  0.00000000000E+00  0.00000000000E+00  0.20764653887E+01  0.20764653887E+01  0.00000000000E+00 0.  1.
         21   -1    0    0  502  503 -0.00000000000E+00 -0.00000000000E+00 -0.82905059598E+02  0.82905059598E+02  0.00000000000E+00 0.  1.
          5    1    1    2  501    0  0.22021597311E+01  0.23104555881E+01 -0.21135980771E+01  0.60617661896E+01  0.47000000000E+01 0.  1.
         -5    1    1    2    0  503 -0.22021597311E+01 -0.23104555881E+01 -0.78714996133E+02  0.78919758798E+02  0.47000000000E+01 0.  1.
<mgrwt>
<rscale>  2 0.56813478E+01</rscale>
<asrwt>0</asrwt>
<pdfrwt beam="1">  1       21 0.31945617E-03 0.56813478E+01</pdfrwt>
<pdfrwt beam="2">  1       21 0.12754626E-01 0.56813478E+01</pdfrwt>
<totfact> 0.35200899E+08</totfact>
</mgrwt>
</event>
<event>
 4    1  0.3906087E+006  0.8147759E+01  0.7546771E-02  0.2198800E+00
         21   -1    0    0  501  502  0.00000000000E+00  0.00000000000E+00  0.17524741918E+02  0.17524741918E+02  0.00000000000E+00 0.  1.
         21   -1    0    0  502  503 -0.00000000000E+00 -0.00000000000E+00 -0.62420248862E+01  0.62420248862E+01  0.00000000000E+00 0. -1.
          5    1    1    2  501    0 -0.43848420470E+01  0.50069091345E+01  0.13092202145E+02  0.15420497264E+02  0.47000000000E+01 0.  1.
         -5    1    1    2    0  503  0.43848420470E+01 -0.50069091345E+01 -0.18094851136E+01  0.83462695400E+01  0.47000000000E+01 0. -1.
<mgrwt>
<rscale>  2 0.81477591E+01</rscale>
<asrwt>0</asrwt>
<pdfrwt beam="1">  1       21 0.26961141E-02 0.81477591E+01</pdfrwt>
<pdfrwt beam="2">  1       21 0.96031153E-03 0.81477591E+01</pdfrwt>
<totfact> 0.10133078E+09</totfact>
</mgrwt>
</event>
<event>
 4    1  0.3906087E+006  0.5798580E+01  0.7546771E-02  0.2442400E+00
         21   -1    0    0  503  502  0.00000000000E+00  0.00000000000E+00  0.12997118743E+03  0.12997118743E+03  0.00000000000E+00 0.  1.
         21   -1    0    0  501  503 -0.00000000000E+00 -0.00000000000E+00 -0.38436360632E+00  0.38436360632E+00  0.00000000000E+00 0. -1.
          5    1    1    2  501    0  0.21498780139E+01 -0.26289835001E+01  0.27525643944E+02  0.28129781447E+02  0.47000000000E+01 0. -1.
         -5    1    1    2    0  502 -0.21498780139E+01  0.26289835001E+01  0.10206117988E+03  0.10222576959E+03  0.47000000000E+01 0.  1.
<mgrwt>
<rscale>  2 0.57985800E+01</rscale>
<asrwt>0</asrwt>
<pdfrwt beam="1">  1       21 0.19995532E-01 0.57985800E+01</pdfrwt>
<pdfrwt beam="2">  1       21 0.59132966E-04 0.57985800E+01</pdfrwt>
<totfact> 0.17114530E+09</totfact>
</mgrwt>
</event>
<event>
 4    1  0.3906087E+006  0.5477341E+01  0.7546771E-02  0.2488856E+00
         21   -1    0    0  501  502  0.00000000000E+00  0.00000000000E+00  0.19554672240E+01  0.19554672240E+01  0.00000000000E+00 0.  1.
         21   -1    0    0  502  503 -0.00000000000E+00 -0.00000000000E+00 -0.18477019599E+02  0.18477019599E+02  0.00000000000E+00 0.  1.
          5    1    1    2  501    0 -0.14697897075E+01 -0.23981204419E+01 -0.40527521492E+01  0.68136673987E+01  0.47000000000E+01 0.  1.
         -5    1    1    2    0  503  0.14697897075E+01  0.23981204419E+01 -0.12468800226E+02  0.13618819424E+02  0.47000000000E+01 0.  1.
<mgrwt>
<rscale>  2 0.54773409E+01</rscale>
<asrwt>0</asrwt>
<pdfrwt beam="1">  1       21 0.30084113E-03 0.54773409E+01</pdfrwt>
<pdfrwt beam="2">  1       21 0.28426182E-02 0.54773409E+01</pdfrwt>
<totfact> 0.34693749E+09</totfact>
</mgrwt>
</event>
<event>
 4    1  0.3906087E+006  0.8190264E+01  0.7546771E-02  0.2195464E+00
         21   -1    0    0  501  502  0.00000000000E+00  0.00000000000E+00  0.55335238591E+00  0.55335238591E+00  0.00000000000E+00 0. -1.
         21   -1    0    0  502  503 -0.00000000000E+00 -0.00000000000E+00 -0.16570385005E+03  0.16570385005E+03  0.00000000000E+00 0.  1.
          5    1    1    2  501    0  0.49422545643E+01 -0.45348147532E+01 -0.39506876382E+02  0.40346916939E+02  0.47000000000E+01 0. -1.
         -5    1    1    2    0  503 -0.49422545643E+01  0.45348147532E+01 -0.12564362128E+03  0.12591028549E+03  0.47000000000E+01 0.  1.
<mgrwt>
<rscale>  2 0.81902640E+01</rscale>
<asrwt>0</asrwt>
<pdfrwt beam="1">  1       21 0.85131124E-04 0.81902640E+01</pdfrwt>
<pdfrwt beam="2">  1       21 0.25492904E-01 0.81902640E+01</pdfrwt>
<totfact> 0.89653206E+08</totfact>
</mgrwt>
</event>
<event>
 4    1  0.3906087E+006  0.5712258E+01  0.7546771E-02  0.2454449E+00
         21   -1    0    0  501  502  0.00000000000E+00  0.00000000000E+00  0.16046377848E+01  0.16046377848E+01  0.00000000000E+00 0. -1.
         21   -1    0    0  502  503 -0.00000000000E+00 -0.00000000000E+00 -0.25813050559E+02  0.25813050559E+02  0.00000000000E+00 0. -1.
          5    1    1    2  501    0 -0.67660755484E+00 -0.31752308812E+01 -0.57887523701E+01  0.81326221438E+01  0.47000000000E+01 0. -1.
         -5    1    1    2    0  503  0.67660755484E+00  0.31752308812E+01 -0.18419660405E+02  0.19285066200E+02  0.47000000000E+01 0. -1.
<mgrwt>
<rscale>  2 0.57122578E+01</rscale>
<asrwt>0</asrwt>
<pdfrwt beam="1">  1       21 0.24686734E-03 0.57122578E+01</pdfrwt>
<pdfrwt beam="2">  1       21 0.39712387E-02 0.57122578E+01</pdfrwt>
<totfact> 0.29056738E+09</totfact>
</mgrwt>
</event>
<event>
 4    1  0.3906087E+006  0.1278795E+02  0.7546771E-02  0.1944180E+00
         21   -1    0    0  501  502  0.00000000000E+00  0.00000000000E+00  0.88279959146E+03  0.88279959146E+03  0.00000000000E+00 0.  1.
         21   -1    0    0  502  503 -0.00000000000E+00 -0.00000000000E+00 -0.19633816250E+00  0.19633816250E+00  0.00000000000E+00 0. -1.
          5    1    1    2  501    0 -0.11567282605E+02  0.27639682680E+01  0.33634422528E+03  0.33658723896E+03  0.47000000000E+01 0.  1.
         -5    1    1    2    0  503  0.11567282605E+02 -0.27639682680E+01  0.54625902801E+03  0.54640869066E+03  0.47000000000E+01 0. -1.
<mgrwt>
<rscale>  2 0.12787945E+02</rscale>
<asrwt>0</asrwt>
<pdfrwt beam="1">  1       21 0.13581214E+00 0.12787945E+02</pdfrwt>
<pdfrwt beam="2">  1       21 0.30206578E-04 0.12787945E+02</pdfrwt>
<totfact> 0.18138075E+08</totfact>
</mgrwt>
</event>
<event>
 4    1  0.3906087E+006  0.7841203E+01  0.7546771E-02  0.2223711E+00
         21   -1    0    0  501  502  0.00000000000E+00  0.00000000000E+00  0.42837622973E+00  0.42837622973E+00  0.00000000000E+00 0.  1.
         21   -1    0    0  502  503 -0.00000000000E+00 -0.00000000000E+00 -0.30528365044E+03  0.30528365044E+03  0.00000000000E+00 0. -1.
          5    1    1    2  501    0  0.61188594635E+01  0.13978619618E+01 -0.41162528840E+02  0.41902723536E+02  0.47000000000E+01 0.  1.
         -5    1    1    2    0  503 -0.61188594635E+01 -0.13978619618E+01 -0.26369274537E+03  0.26380930314E+03  0.47000000000E+01 0. -1.
<mgrwt>
<rscale>  2 0.78412027E+01</rscale>
<asrwt>0</asrwt>
<pdfrwt beam="1">  1       21 0.65903892E-04 0.78412027E+01</pdfrwt>
<pdfrwt beam="2">  1       21 0.46966818E-01 0.78412027E+01</pdfrwt>
<totfact> 0.42461019E+08</totfact>
</mgrwt>
</event>
<event>
 4    1  0.3906087E+006  0.4738827E+01  0.7546771E-02  0.2615681E+00
         21   -1    0    0  503  502  0.00000000000E+00  0.00000000000E+00  0.16220619427E+01  0.16220619427E+01  0.00000000000E+00 0. -1.
         21   -1    0    0  501  503 -0.00000000000E+00 -0.00000000000E+00 -0.17099357587E+02  0.17099357587E+02  0.00000000000E+00 0. -1.
          5    1    1    2  501    0  0.41851054188E+00  0.43741098844E+00 -0.11822700549E+02  0.12737061188E+02  0.47000000000E+01 0. -1.
         -5    1    1    2    0  502 -0.41851054188E+00 -0.43741098844E+00 -0.36545950956E+01  0.59843583415E+01  0.47000000000E+01 0. -1.
<mgrwt>
<rscale>  2 0.47388268E+01</rscale>
<asrwt>0</asrwt>
<pdfrwt beam="1">  1       21 0.24954801E-03 0.47388268E+01</pdfrwt>
<pdfrwt beam="2">  1       21 0.26306702E-02 0.47388268E+01</pdfrwt>
<totfact> 0.43056816E+09</totfact>
</mgrwt>
</event>
<event>
 4    1  0.3906087E+006  0.5956465E+01  0.7546771E-02  0.2421124E+00
         21   -1    0    0  503  502  0.00000000000E+00  0.00000000000E+00  0.52598484397E-01  0.52598484397E-01  0.00000000000E+00 0. -1.
         21   -1    0    0  501  503 -0.00000000000E+00 -0.00000000000E+00 -0.17020749874E+04  0.17020749874E+04  0.00000000000E+00 0. -1.
          5    1    1    2  501    0 -0.36536955642E+01 -0.19994992659E+00 -0.15122713062E+04  0.15122830367E+04  0.47000000000E+01 0. -1.
         -5    1    1    2    0  502  0.36536955642E+01  0.19994992659E+00 -0.18975108270E+03  0.18984454919E+03  0.47000000000E+01 0. -1.
<mgrwt>
<rscale>  2 0.59564647E+01</rscale>
<asrwt>0</asrwt>
<pdfrwt beam="1">  1       21 0.80915186E-05 0.59564647E+01</pdfrwt>
<pdfrwt beam="2">  1       21 0.26187568E+00 0.59564647E+01</pdfrwt>
<totfact> 0.17201216E+08</totfact>
</mgrwt>
</event>
<event>
 4    1  0.3906087E+006  0.5439308E+01  0.7546771E-02  0.2494663E+00
         21   -1    0    0  501  502  0.00000000000E+00  0.00000000000E+00  0.27252390366E+00  0.27252390366E+00  0.00000000000E+00 0.  1.
         21   -1    0    0  502  503 -0.00000000000E+00 -0.00000000000E+00 -0.10857932387E+03  0.10857932387E+03  0.00000000000E+00 0.  1.
          5    1    1    2  501    0 -0.11315930814E+01  0.24931037965E+01 -0.54816454246E+02  0.55085658075E+02  0.47000000000E+01 0.  1.
         -5    1    1    2    0  503  0.11315930814E+01 -0.24931037965E+01 -0.53490345721E+02  0.53766189700E+02  0.47000000000E+01 0.  1.
<mgrwt>
<rscale>  2 0.54393078E+01</rscale>
<asrwt>0</asrwt>
<pdfrwt beam="1">  1       21 0.41926724E-04 0.54393078E+01</pdfrwt>
<pdfrwt beam="2">  1       21 0.16704523E-01 0.54393078E+01</pdfrwt>
<totfact> 0.34117341E+09</totfact>
</mgrwt>
</event>
<event>
 4    1  0.3906087E+006  0.5807294E+01  0.7546771E-02  0.2441200E+00
         21   -1    0    0  503  502  0.00000000000E+00  0.00000000000E+00  0.23712612607E+01  0.23712612607E+01  0.00000000000E+00 0.  1.
         21   -1    0    0  501  503 -0.00000000000E+00 -0.00000000000E+00 -0.56009695603E+02  0.56009695603E+02  0.00000000000E+00 0.  1.
          5    1    1    2  501    0 -0.19742972714E+01  0.27815130939E+01 -0.52032682060E+02  0.52355751042E+02  0.47000000000E+01 0.  1.
         -5    1    1    2    0  502  0.19742972714E+01 -0.27815130939E+01 -0.16057522830E+01  0.60252058224E+01  0.47000000000E+01 0.  1.
<mgrwt>
<rscale>  2 0.58072941E+01</rscale>
<asrwt>0</asrwt>
<pdfrwt beam="1">  1       21 0.36480942E-03 0.58072941E+01</pdfrwt>
<pdfrwt beam="2">  1       21 0.86168765E-02 0.58072941E+01</pdfrwt>
<totfact> 0.54443538E+08</totfact>
</mgrwt>
</event>
<event>
 4    1  0.3906087E+006  0.5306227E+01  0.7546771E-02  0.2515537E+00
         21   -1    0    0  503  502  0.00000000000E+00  0.00000000000E+00  0.11424389242E+04  0.11424389242E+04  0.00000000000E+00 0. -1.
         21   -1    0    0  501  503 -0.00000000000E+00 -0.00000000000E+00 -0.24853524267E-01  0.24853524267E-01  0.00000000000E+00 0.  1.
          5    1    1    2  501    0  0.23486045437E+01  0.74168540861E+00  0.51895312944E+03  0.51898025646E+03  0.47000000000E+01 0. -1.
         -5    1    1    2    0  502 -0.23486045437E+01 -0.74168540861E+00  0.62346094127E+03  0.62348352130E+03  0.47000000000E+01 0.  1.
<mgrwt>
<rscale>  2 0.53062266E+01</rscale>
<asrwt>0</asrwt>
<pdfrwt beam="1">  1       21 0.17571779E+00 0.53062266E+01</pdfrwt>
<pdfrwt beam="2">  1       21 0.38245341E-05 0.53062266E+01</pdfrwt>
<totfact> 0.10858899E+09</totfact>
</mgrwt>
</event>
<event>
 4    1  0.3906087E+006  0.1255201E+02  0.7546771E-02  0.1953485E+00
         21   -1    0    0  501  502  0.00000000000E+00  0.00000000000E+00  0.26553800790E+03  0.26553800790E+03  0.00000000000E+00 0.  1.
         21   -1    0    0  502  503 -0.00000000000E+00 -0.00000000000E+00 -0.79365760316E+00  0.79365760316E+00  0.00000000000E+00 0. -1.
          5    1    1    2  501    0  0.84388347939E+01 -0.80155542557E+01  0.19927446724E+03  0.19966939259E+03  0.47000000000E+01 0.  1.
         -5    1    1    2    0  503 -0.84388347939E+01  0.80155542557E+01  0.65469883047E+02  0.66662272905E+02  0.47000000000E+01 0.  1.
<mgrwt>
<rscale>  2 0.12552013E+02</rscale>
<asrwt>0</asrwt>
<pdfrwt beam="1">  1       21 0.40851930E-01 0.12552013E+02</pdfrwt>
<pdfrwt beam="2">  1       21 0.12210138E-03 0.12552013E+02</pdfrwt>
<totfact> 0.29527486E+08</totfact>
</mgrwt>
</event>
<event>
 4    1  0.3906087E+006  0.5438749E+01  0.7546771E-02  0.2494749E+00
         21   -1    0    0  501  502  0.00000000000E+00  0.00000000000E+00  0.43053616538E-01  0.43053616538E-01  0.00000000000E+00 0. -1.
         21   -1    0    0  502  503 -0.00000000000E+00 -0.00000000000E+00 -0.87064576161E+03  0.87064576161E+03  0.00000000000E+00 0.  1.
          5    1    1    2  501    0  0.65369092818E+00 -0.26575706512E+01 -0.23538727713E+03  0.23545010135E+03  0.47000000000E+01 0. -1.
         -5    1    1    2    0  503 -0.65369092818E+00  0.26575706512E+01 -0.63521543086E+03  0.63523871387E+03  0.47000000000E+01 0.  1.
<mgrwt>
<rscale>  2 0.54387493E+01</rscale>
<asrwt>0</asrwt>
<pdfrwt beam="1">  1       21 0.66233105E-05 0.54387493E+01</pdfrwt>
<pdfrwt beam="2">  1       21 0.13395203E+00 0.54387493E+01</pdfrwt>
<totfact> 0.93716334E+08</totfact>
</mgrwt>
</event>
<event>
 4    1  0.3906087E+006  0.1193320E+02  0.7546771E-02  0.1979218E+00
         21   -1    0    0  501  502  0.00000000000E+00  0.00000000000E+00  0.48547061759E+01  0.48547061759E+01  0.00000000000E+00 0. -1.
         21   -1    0    0  502  503 -0.00000000000E+00 -0.00000000000E+00 -0.29332715239E+02  0.29332715239E+02  0.00000000000E+00 0. -1.
          5    1    1    2  501    0 -0.54255897287E+01  0.95328010680E+01 -0.12210581388E+02  0.17073359890E+02  0.47000000000E+01 0. -1.
         -5    1    1    2    0  503  0.54255897287E+01 -0.95328010680E+01 -0.12267427675E+02  0.17114061525E+02  0.47000000000E+01 0. -1.
<mgrwt>
<rscale>  2 0.11933202E+02</rscale>
<asrwt>0</asrwt>
<pdfrwt beam="1">  1       21 0.74687789E-03 0.11933202E+02</pdfrwt>
<pdfrwt beam="2">  1       21 0.45127253E-02 0.11933202E+02</pdfrwt>
<totfact> 0.83828663E+08</totfact>
</mgrwt>
</event>
<event>
 4    1  0.3906087E+006  0.5872897E+01  0.7546771E-02  0.2432266E+00
         21   -1    0    0  501  502  0.00000000000E+00  0.00000000000E+00  0.38474551807E+00  0.38474551807E+00  0.00000000000E+00 0. -1.
         21   -1    0    0  502  503 -0.00000000000E+00 -0.00000000000E+00 -0.93171277388E+02  0.93171277388E+02  0.00000000000E+00 0. -1.
          5    1    1    2  501    0  0.57655197084E+00 -0.34739753898E+01 -0.37294256797E+02  0.37753840960E+02  0.47000000000E+01 0. -1.
         -5    1    1    2    0  503 -0.57655197084E+00  0.34739753898E+01 -0.55492275072E+02  0.55802181946E+02  0.47000000000E+01 0. -1.
<mgrwt>
<rscale>  2 0.58728968E+01</rscale>
<asrwt>0</asrwt>
<pdfrwt beam="1">  1       21 0.59191510E-04 0.58728968E+01</pdfrwt>
<pdfrwt beam="2">  1       21 0.14334069E-01 0.58728968E+01</pdfrwt>
<totfact> 0.29321949E+09</totfact>
</mgrwt>
</event>
<event>
 4    1  0.3906087E+006  0.6377552E+01  0.7546771E-02  0.2368730E+00
         21   -1    0    0  503  502  0.00000000000E+00  0.00000000000E+00  0.95909894432E+00  0.95909894432E+00  0.00000000000E+00 0. -1.
         21   -1    0    0  501  503 -0.00000000000E+00 -0.00000000000E+00 -0.17971976243E+03  0.17971976243E+03  0.00000000000E+00 0.  1.
          5    1    1    2  501    0 -0.43075241066E+01 -0.16854795763E+00 -0.16834517719E+03  0.16846593678E+03  0.47000000000E+01 0.  1.
         -5    1    1    2    0  502  0.43075241066E+01  0.16854795763E+00 -0.10415486294E+02  0.12212924592E+02  0.47000000000E+01 0. -1.
<mgrwt>
<rscale>  2 0.63775522E+01</rscale>
<asrwt>0</asrwt>
<pdfrwt beam="1">  1       21 0.14755356E-03 0.63775522E+01</pdfrwt>
<pdfrwt beam="2">  1       21 0.27649218E-01 0.63775522E+01</pdfrwt>
<totfact> 0.31547397E+08</totfact>
</mgrwt>
</event>
<event>
 4    1  0.3906087E+006  0.9091866E+01  0.7546771E-02  0.2130681E+00
         21   -1    0    0  503  502  0.00000000000E+00  0.00000000000E+00  0.16480824099E+03  0.16480824099E+03  0.00000000000E+00 0.  1.
         21   -1    0    0  501  503 -0.00000000000E+00 -0.00000000000E+00 -0.10152790594E+01  0.10152790594E+01  0.00000000000E+00 0. -1.
          5    1    1    2  501    0 -0.76023952751E+01 -0.16660182476E+01  0.22919276448E+02  0.24656748846E+02  0.47000000000E+01 0. -1.
         -5    1    1    2    0  502  0.76023952751E+01  0.16660182476E+01  0.14087368548E+03  0.14116677120E+03  0.47000000000E+01 0.  1.
<mgrwt>
<rscale>  2 0.90918662E+01</rscale>
<asrwt>0</asrwt>
<pdfrwt beam="1">  1       21 0.25355093E-01 0.90918662E+01</pdfrwt>
<pdfrwt beam="2">  1       21 0.15619691E-03 0.90918662E+01</pdfrwt>
<totfact> 0.41748418E+08</totfact>
</mgrwt>
</event>
<event>
 4    1  0.3906087E+006  0.8308158E+01  0.7546771E-02  0.2186358E+00
         21   -1    0    0  503  502  0.00000000000E+00  0.00000000000E+00  0.19747695006E+03  0.19747695006E+03  0.00000000000E+00 0.  1.
         21   -1    0    0  501  503 -0.00000000000E+00 -0.00000000000E+00 -0.37934796267E+00  0.37934796267E+00  0.00000000000E+00 0. -1.
          5    1    1    2  501    0  0.48444675099E+01 -0.48442367632E+01  0.70816289300E+02  0.71301979815E+02  0.47000000000E+01 0. -1.
         -5    1    1    2    0  502 -0.48444675099E+01  0.48442367632E+01  0.12628131280E+03  0.12655431821E+03  0.47000000000E+01 0.  1.
<mgrwt>
<rscale>  2 0.83081584E+01</rscale>
<asrwt>0</asrwt>
<pdfrwt beam="1">  1       21 0.30380987E-01 0.83081584E+01</pdfrwt>
<pdfrwt beam="2">  1       21 0.58361383E-04 0.83081584E+01</pdfrwt>
<totfact> 0.11204193E+09</totfact>
</mgrwt>
</event>
<event>
 4    1  0.3906087E+006  0.4834441E+01  0.7546771E-02  0.2597389E+00
         21   -1    0    0  503  502  0.00000000000E+00  0.00000000000E+00  0.43170903162E+03  0.43170903162E+03  0.00000000000E+00 0.  1.
         21   -1    0    0  501  503 -0.00000000000E+00 -0.00000000000E+00 -0.12445575539E+00  0.12445575539E+00  0.00000000000E+00 0.  1.
          5    1    1    2  501    0  0.11245347979E+01 -0.13130519102E+00  0.53494857643E+02  0.53712862648E+02  0.47000000000E+01 0.  1.
         -5    1    1    2    0  502 -0.11245347979E+01  0.13130519102E+00  0.37808971822E+03  0.37812062472E+03  0.47000000000E+01 0.  1.
<mgrwt>
<rscale>  2 0.48344410E+01</rscale>
<asrwt>0</asrwt>
<pdfrwt beam="1">  1       21 0.66415575E-01 0.48344410E+01</pdfrwt>
<pdfrwt beam="2">  1       21 0.19147385E-04 0.48344410E+01</pdfrwt>
<totfact> 0.83881458E+08</totfact>
</mgrwt>
</event>
<event>
 4    1  0.3906087E+006  0.7057303E+01  0.7546771E-02  0.2295255E+00
         21   -1    0    0  501  502  0.00000000000E+00  0.00000000000E+00  0.38778169598E+01  0.38778169598E+01  0.00000000000E+00 0.  1.
         21   -1    0    0  502  503 -0.00000000000E+00 -0.00000000000E+00 -0.25147555497E+02  0.25147555497E+02  0.00000000000E+00 0. -1.
          5    1    1    2  501    0  0.44234235592E+01 -0.28546190591E+01 -0.48359664493E+00  0.70738526753E+01  0.47000000000E+01 0.  1.
         -5    1    1    2    0  503 -0.44234235592E+01  0.28546190591E+01 -0.20786141892E+02  0.21951519782E+02  0.47000000000E+01 0. -1.
<mgrwt>
<rscale>  2 0.70573030E+01</rscale>
<asrwt>0</asrwt>
<pdfrwt beam="1">  1       21 0.59658724E-03 0.70573030E+01</pdfrwt>
<pdfrwt beam="2">  1       21 0.38688546E-02 0.70573030E+01</pdfrwt>
<totfact> 0.10561921E+09</totfact>
</mgrwt>
</event>
<event>
 4    1  0.3906087E+006  0.1131398E+02  0.7546771E-02  0.2007113E+00
         21   -1    0    0  501  502  0.00000000000E+00  0.00000000000E+00  0.77259088361E+01  0.77259088361E+01  0.00000000000E+00 0.  1.
         21   -1    0    0  502  503 -0.00000000000E+00 -0.00000000000E+00 -0.27022047139E+02  0.27022047139E+02  0.00000000000E+00 0. -1.
          5    1    1    2  501    0  0.70807602365E+01 -0.74685354024E+01  0.11581412694E+01  0.11373103261E+02  0.47000000000E+01 0.  1.
         -5    1    1    2    0  503 -0.70807602365E+01  0.74685354024E+01 -0.20454279572E+02  0.23374852714E+02  0.47000000000E+01 0. -1.
<mgrwt>
<rscale>  2 0.11313982E+02</rscale>
<asrwt>0</asrwt>
<pdfrwt beam="1">  1       21 0.11886013E-02 0.11313982E+02</pdfrwt>
<pdfrwt beam="2">  1       21 0.41572381E-02 0.11313982E+02</pdfrwt>
<totfact> 0.46973067E+08</totfact>
</mgrwt>
</event>
<event>
 4    1  0.3906087E+006  0.7492965E+01  0.7546771E-02  0.2253990E+00
         21   -1    0    0  503  502  0.00000000000E+00  0.00000000000E+00  0.85916534174E+00  0.85916534174E+00  0.00000000000E+00 0. -1.
         21   -1    0    0  501  503 -0.00000000000E+00 -0.00000000000E+00 -0.77036484694E+02  0.77036484694E+02  0.00000000000E+00 0.  1.
          5    1    1    2  501    0  0.16099813084E+01 -0.56091433850E+01 -0.53259812147E+02  0.53784311089E+02  0.47000000000E+01 0. -1.
         -5    1    1    2    0  502 -0.16099813084E+01  0.56091433850E+01 -0.22917507205E+02  0.24111338947E+02  0.47000000000E+01 0. -1.
<mgrwt>
<rscale>  2 0.74929653E+01</rscale>
<asrwt>0</asrwt>
<pdfrwt beam="1">  1       21 0.13217928E-03 0.74929653E+01</pdfrwt>
<pdfrwt beam="2">  1       21 0.11851768E-01 0.74929653E+01</pdfrwt>
<totfact> 0.16152898E+09</totfact>
</mgrwt>
</event>
<event>
 4    1  0.3906087E+006  0.5745344E+01  0.7546771E-02  0.2449795E+00
         21   -1    0    0  503  502  0.00000000000E+00  0.00000000000E+00  0.11606601274E+02  0.11606601274E+02  0.00000000000E+00 0. -1.
         21   -1    0    0  501  503 -0.00000000000E+00 -0.00000000000E+00 -0.82552966258E+01  0.82552966258E+01  0.00000000000E+00 0.  1.
          5    1    1    2  501    0 -0.13944872118E+01  0.29957273186E+01 -0.63647126038E+01  0.85742954976E+01  0.47000000000E+01 0.  1.
         -5    1    1    2    0  502  0.13944872118E+01 -0.29957273186E+01  0.97160172522E+01  0.11287602402E+02  0.47000000000E+01 0. -1.
<mgrwt>
<rscale>  2 0.57453439E+01</rscale>
<asrwt>0</asrwt>
<pdfrwt beam="1">  1       21 0.17856310E-02 0.57453439E+01</pdfrwt>
<pdfrwt beam="2">  1       21 0.12700456E-02 0.57453439E+01</pdfrwt>
<totfact> 0.95239400E+08</totfact>
</mgrwt>
</event>
<event>
 4    1  0.3906087E+006  0.1871202E+02  0.7546771E-02  0.1772225E+00
         21   -1    0    0  501  502  0.00000000000E+00  0.00000000000E+00  0.56234708675E+01  0.56234708675E+01  0.00000000000E+00 0.  1.
         21   -1    0    0  502  503 -0.00000000000E+00 -0.00000000000E+00 -0.13595094485E+03  0.13595094485E+03  0.00000000000E+00 0. -1.
          5    1    1    2  501    0  0.11227702773E+02  0.14212259749E+02 -0.13049183305E+02  0.22812733762E+02  0.47000000000E+01 0.  1.
         -5    1    1    2    0  503 -0.11227702773E+02 -0.14212259749E+02 -0.11727829068E+03  0.11876168196E+03  0.47000000000E+01 0. -1.
<mgrwt>
<rscale>  2 0.18712019E+02</rscale>
<asrwt>0</asrwt>
<pdfrwt beam="1">  1       21 0.86514942E-03 0.18712019E+02</pdfrwt>
<pdfrwt beam="2">  1       21 0.20915529E-01 0.18712019E+02</pdfrwt>
<totfact> 0.66855606E+07</totfact>
</mgrwt>
</event>
<event>
 4    1  0.3906087E+006  0.7107125E+01  0.7546771E-02  0.2290328E+00
         21   -1    0    0  503  502  0.00000000000E+00  0.00000000000E+00  0.54744512638E+02  0.54744512638E+02  0.00000000000E+00 0. -1.
         21   -1    0    0  501  503 -0.00000000000E+00 -0.00000000000E+00 -0.25167327197E+01  0.25167327197E+01  0.00000000000E+00 0.  1.
          5    1    1    2  501    0 -0.10638500974E+01  0.52239307369E+01  0.33280692995E+01  0.78477560255E+01  0.47000000000E+01 0.  1.
         -5    1    1    2    0  502  0.10638500974E+01 -0.52239307369E+01  0.48899710619E+02  0.49413489332E+02  0.47000000000E+01 0. -1.
<mgrwt>
<rscale>  2 0.71071253E+01</rscale>
<asrwt>0</asrwt>
<pdfrwt beam="1">  1       21 0.84222318E-02 0.71071253E+01</pdfrwt>
<pdfrwt beam="2">  1       21 0.38718969E-03 0.71071253E+01</pdfrwt>
<totfact> 0.60132081E+08</totfact>
</mgrwt>
</event>
<event>
 4    1  0.3906087E+006  0.4807637E+01  0.7546771E-02  0.2602453E+00
         21   -1    0    0  503  502  0.00000000000E+00  0.00000000000E+00  0.16408188895E+01  0.16408188895E+01  0.00000000000E+00 0. -1.
         21   -1    0    0  501  503 -0.00000000000E+00 -0.00000000000E+00 -0.39193825501E+02  0.39193825501E+02  0.00000000000E+00 0. -1.
          5    1    1    2  501    0 -0.59287947707E+00 -0.81967527183E+00 -0.35117942245E+02  0.35445496769E+02  0.47000000000E+01 0. -1.
         -5    1    1    2    0  502  0.59287947707E+00  0.81967527183E+00 -0.24350643664E+01  0.53891476222E+01  0.47000000000E+01 0. -1.
<mgrwt>
<rscale>  2 0.48076370E+01</rscale>
<asrwt>0</asrwt>
<pdfrwt beam="1">  1       21 0.25243368E-03 0.48076370E+01</pdfrwt>
<pdfrwt beam="2">  1       21 0.60298191E-02 0.48076370E+01</pdfrwt>
<totfact> 0.12984352E+09</totfact>
</mgrwt>
</event>
<event>
 4    1  0.3906087E+006  0.7502031E+01  0.7546771E-02  0.2253173E+00
         21   -1    0    0  501  502  0.00000000000E+00  0.00000000000E+00  0.37927444070E+01  0.37927444070E+01  0.00000000000E+00 0.  1.
         21   -1    0    0  502  503 -0.00000000000E+00 -0.00000000000E+00 -0.25376403171E+02  0.25376403171E+02  0.00000000000E+00 0. -1.
          5    1    1    2  501    0 -0.34684608608E+01 -0.47074665493E+01 -0.13936030430E+01  0.76303729592E+01  0.47000000000E+01 0.  1.
         -5    1    1    2    0  503  0.34684608608E+01  0.47074665493E+01 -0.20190055721E+02  0.21538774619E+02  0.47000000000E+01 0. -1.
<mgrwt>
<rscale>  2 0.75020305E+01</rscale>
<asrwt>0</asrwt>
<pdfrwt beam="1">  1       21 0.58349915E-03 0.75020305E+01</pdfrwt>
<pdfrwt beam="2">  1       21 0.39040620E-02 0.75020305E+01</pdfrwt>
<totfact> 0.11233879E+09</totfact>
</mgrwt>
</event>
<event>
 4    1  0.3906087E+006  0.1243156E+02  0.7546771E-02  0.1958339E+00
         21   -1    0    0  501  502  0.00000000000E+00  0.00000000000E+00  0.23630678630E+03  0.23630678630E+03  0.00000000000E+00 0. -1.
         21   -1    0    0  502  503 -0.00000000000E+00 -0.00000000000E+00 -0.12584572608E+02  0.12584572608E+02  0.00000000000E+00 0.  1.
          5    1    1    2  501    0  0.95329868844E+01  0.64479299569E+01  0.23303004689E+03  0.23336140725E+03  0.47000000000E+01 0. -1.
         -5    1    1    2    0  503 -0.95329868844E+01 -0.64479299569E+01 -0.93078331986E+01  0.15529951659E+02  0.47000000000E+01 0.  1.
<mgrwt>
<rscale>  2 0.12431558E+02</rscale>
<asrwt>0</asrwt>
<pdfrwt beam="1">  1       21 0.36354887E-01 0.12431558E+02</pdfrwt>
<pdfrwt beam="2">  1       21 0.19360883E-02 0.12431558E+02</pdfrwt>
<totfact> 0.67682422E+06</totfact>
</mgrwt>
</event>
<event>
 4    1  0.3906087E+006  0.6059019E+01  0.7546771E-02  0.2407805E+00
         21   -1    0    0  501  502  0.00000000000E+00  0.00000000000E+00  0.25083837243E+03  0.25083837243E+03  0.00000000000E+00 0.  1.
         21   -1    0    0  502  503 -0.00000000000E+00 -0.00000000000E+00 -0.31157759985E+00  0.31157759985E+00  0.00000000000E+00 0.  1.
          5    1    1    2  501    0 -0.26132884946E+01 -0.27914930291E+01  0.21670700468E+03  0.21679169169E+03  0.47000000000E+01 0.  1.
         -5    1    1    2    0  503  0.26132884946E+01  0.27914930291E+01  0.33819790152E+02  0.34358258338E+02  0.47000000000E+01 0.  1.
<mgrwt>
<rscale>  2 0.60590189E+01</rscale>
<asrwt>0</asrwt>
<pdfrwt beam="1">  1       21 0.38590357E-01 0.60590189E+01</pdfrwt>
<pdfrwt beam="2">  1       21 0.47935216E-04 0.60590189E+01</pdfrwt>
<totfact> 0.78204405E+08</totfact>
</mgrwt>
</event>
<event>
 4    1  0.3906087E+006  0.6059087E+01  0.7546771E-02  0.2407796E+00
         21   -1    0    0  501  502  0.00000000000E+00  0.00000000000E+00  0.83769322594E-01  0.83769322594E-01  0.00000000000E+00 0. -1.
         21   -1    0    0  502  503 -0.00000000000E+00 -0.00000000000E+00 -0.63792915942E+03  0.63792915942E+03  0.00000000000E+00 0. -1.
          5    1    1    2  501    0 -0.31580782474E+01  0.21561710823E+01 -0.14045011762E+03  0.14058075285E+03  0.47000000000E+01 0. -1.
         -5    1    1    2    0  503  0.31580782474E+01 -0.21561710823E+01 -0.49739527247E+03  0.49743217589E+03  0.47000000000E+01 0. -1.
<mgrwt>
<rscale>  2 0.60590867E+01</rscale>
<asrwt>0</asrwt>
<pdfrwt beam="1">  1       21 0.12887728E-04 0.60590867E+01</pdfrwt>
<pdfrwt beam="2">  1       21 0.98141882E-01 0.60590867E+01</pdfrwt>
<totfact> 0.79032545E+08</totfact>
</mgrwt>
</event>
<event>
 4    1  0.3906087E+006  0.8709596E+01  0.7546771E-02  0.2156840E+00
         21   -1    0    0  503  502  0.00000000000E+00  0.00000000000E+00  0.88038511839E+01  0.88038511839E+01  0.00000000000E+00 0.  1.
         21   -1    0    0  501  503 -0.00000000000E+00 -0.00000000000E+00 -0.18600099405E+02  0.18600099405E+02  0.00000000000E+00 0. -1.
          5    1    1    2  501    0  0.58750131242E+01  0.43876286573E+01 -0.14936706324E+02  0.17290525158E+02  0.47000000000E+01 0. -1.
         -5    1    1    2    0  502 -0.58750131242E+01 -0.43876286573E+01  0.51404581025E+01  0.10113425431E+02  0.47000000000E+01 0.  1.
<mgrwt>
<rscale>  2 0.87095961E+01</rscale>
<asrwt>0</asrwt>
<pdfrwt beam="1">  1       21 0.13544386E-02 0.87095961E+01</pdfrwt>
<pdfrwt beam="2">  1       21 0.28615537E-02 0.87095961E+01</pdfrwt>
<totfact> 0.58904716E+08</totfact>
</mgrwt>
</event>
<event>
 4    1  0.3906087E+006  0.5178910E+01  0.7546771E-02  0.2536362E+00
         21   -1    0    0  501  502  0.00000000000E+00  0.00000000000E+00  0.19179475081E+02  0.19179475081E+02  0.00000000000E+00 0.  1.
         21   -1    0    0  502  503 -0.00000000000E+00 -0.00000000000E+00 -0.40844591109E+01  0.40844591109E+01  0.00000000000E+00 0. -1.
          5    1    1    2  501    0  0.19934266825E+01  0.87026216171E+00  0.16980325767E+02  0.17752536983E+02  0.47000000000E+01 0.  1.
         -5    1    1    2    0  503 -0.19934266825E+01 -0.87026216171E+00 -0.18853097968E+01  0.55113972093E+01  0.47000000000E+01 0. -1.
<mgrwt>
<rscale>  2 0.51789097E+01</rscale>
<asrwt>0</asrwt>
<pdfrwt beam="1">  1       21 0.29506884E-02 0.51789097E+01</pdfrwt>
<pdfrwt beam="2">  1       21 0.62837834E-03 0.51789097E+01</pdfrwt>
<totfact> 0.11323994E+09</totfact>
</mgrwt>
</event>
<event>
 4    1  0.3906087E+006  0.5228774E+01  0.7546771E-02  0.2528102E+00
         21   -1    0    0  501  502  0.00000000000E+00  0.00000000000E+00  0.41832048404E+02  0.41832048404E+02  0.00000000000E+00 0. -1.
         21   -1    0    0  502  503 -0.00000000000E+00 -0.00000000000E+00 -0.85914775906E+01  0.85914775906E+01  0.00000000000E+00 0. -1.
          5    1    1    2  501    0  0.22232845040E+01 -0.55415133508E+00  0.40854132652E+02  0.41187379528E+02  0.47000000000E+01 0. -1.
         -5    1    1    2    0  503 -0.22232845040E+01  0.55415133508E+00 -0.76135618381E+01  0.92361464665E+01  0.47000000000E+01 0. -1.
<mgrwt>
<rscale>  2 0.52287740E+01</rscale>
<asrwt>0</asrwt>
<pdfrwt beam="1">  1       21 0.64356996E-02 0.52287740E+01</pdfrwt>
<pdfrwt beam="2">  1       21 0.13217658E-02 0.52287740E+01</pdfrwt>
<totfact> 0.12964442E+08</totfact>
</mgrwt>
</event>
<event>
 4    1  0.3906087E+006  0.8807082E+01  0.7546771E-02  0.2149998E+00
         21   -1    0    0  501  502  0.00000000000E+00  0.00000000000E+00  0.44439273644E+00  0.44439273644E+00  0.00000000000E+00 0.  1.
         21   -1    0    0  502  503 -0.00000000000E+00 -0.00000000000E+00 -0.24434997053E+03  0.24434997053E+03  0.00000000000E+00 0. -1.
          5    1    1    2  501    0 -0.74031452457E+01 -0.81739426273E+00 -0.56531166978E+02  0.57213088825E+02  0.47000000000E+01 0.  1.
         -5    1    1    2    0  503  0.74031452457E+01  0.81739426273E+00 -0.18737441082E+03  0.18758127444E+03  0.47000000000E+01 0. -1.
<mgrwt>
<rscale>  2 0.88070820E+01</rscale>
<asrwt>0</asrwt>
<pdfrwt beam="1">  1       21 0.68368156E-04 0.88070820E+01</pdfrwt>
<pdfrwt beam="2">  1       21 0.37592280E-01 0.88070820E+01</pdfrwt>
<totfact> 0.64367279E+08</totfact>
</mgrwt>
</event>
<event>
 4    1  0.3906087E+006  0.6067088E+01  0.7546771E-02  0.2406773E+00
         21   -1    0    0  501  502  0.00000000000E+00  0.00000000000E+00  0.57174648735E+01  0.57174648735E+01  0.00000000000E+00 0.  1.
         21   -1    0    0  502  503 -0.00000000000E+00 -0.00000000000E+00 -0.67264921539E+01  0.67264921539E+01  0.00000000000E+00 0.  1.
          5    1    1    2  501    0  0.35449714949E+01 -0.14672193754E+01 -0.17928615326E+01  0.63264451369E+01  0.47000000000E+01 0.  1.
         -5    1    1    2    0  503 -0.35449714949E+01  0.14672193754E+01  0.78383425220E+00  0.61175118905E+01  0.47000000000E+01 0.  1.
<mgrwt>
<rscale>  2 0.60670879E+01</rscale>
<asrwt>0</asrwt>
<pdfrwt beam="1">  1       21 0.87960998E-03 0.60670879E+01</pdfrwt>
<pdfrwt beam="2">  1       21 0.10348449E-02 0.60670879E+01</pdfrwt>
<totfact> 0.36392047E+09</totfact>
</mgrwt>
</event>
<event>
 4    1  0.3906087E+006  0.4898893E+01  0.7546771E-02  0.2585409E+00
         21   -1    0    0  501  502  0.00000000000E+00  0.00000000000E+00  0.25646899210E+00  0.25646899210E+00  0.00000000000E+00 0.  1.
         21   -1    0    0  502  503 -0.00000000000E+00 -0.00000000000E+00 -0.10131226327E+03  0.10131226327E+03  0.00000000000E+00 0. -1.
          5    1    1    2  501    0 -0.78448961118E+00  0.11374232948E+01 -0.36493780547E+02  0.36821124023E+02  0.47000000000E+01 0.  1.
         -5    1    1    2    0  503  0.78448961118E+00 -0.11374232948E+01 -0.64562013732E+02  0.64747608240E+02  0.47000000000E+01 0.  1.
<mgrwt>
<rscale>  2 0.48988933E+01</rscale>
<asrwt>0</asrwt>
<pdfrwt beam="1">  1       21 0.39456745E-04 0.48988933E+01</pdfrwt>
<pdfrwt beam="2">  1       21 0.15586511E-01 0.48988933E+01</pdfrwt>
<totfact> 0.37284133E+09</totfact>
</mgrwt>
</event>
<event>
 4    1  0.3906087E+006  0.5684399E+01  0.7546771E-02  0.2458403E+00
         21   -1    0    0  501  502  0.00000000000E+00  0.00000000000E+00  0.50882075598E+01  0.50882075598E+01  0.00000000000E+00 0. -1.
         21   -1    0    0  502  503 -0.00000000000E+00 -0.00000000000E+00 -0.14037609326E+02  0.14037609326E+02  0.00000000000E+00 0.  1.
          5    1    1    2  501    0 -0.13714740595E+01 -0.28881571646E+01  0.26019284021E+01  0.62515937418E+01  0.47000000000E+01 0. -1.
         -5    1    1    2    0  503  0.13714740595E+01  0.28881571646E+01 -0.11551330168E+02  0.12874223144E+02  0.47000000000E+01 0.  1.
<mgrwt>
<rscale>  2 0.56843991E+01</rscale>
<asrwt>0</asrwt>
<pdfrwt beam="1">  1       21 0.78280116E-03 0.56843991E+01</pdfrwt>
<pdfrwt beam="2">  1       21 0.21596322E-02 0.56843991E+01</pdfrwt>
<totfact> 0.14202867E+09</totfact>
</mgrwt>
</event>
<event>
 4    1  0.3906087E+006  0.5733943E+01  0.7546771E-02  0.2451393E+00
         21   -1    0    0  503  502  0.00000000000E+00  0.00000000000E+00  0.18703040219E+03  0.18703040219E+03  0.00000000000E+00 0.  1.
         21   -1    0    0  501  503 -0.00000000000E+00 -0.00000000000E+00 -0.19808285330E+01  0.19808285330E+01  0.00000000000E+00 0.  1.
          5    1    1    2  501    0  0.32294759849E+01 -0.59881732000E+00  0.23100686695E+01  0.61817889464E+01  0.47000000000E+01 0.  1.
         -5    1    1    2    0  502 -0.32294759849E+01  0.59881732000E+00  0.18273950499E+03  0.18282944178E+03  0.47000000000E+01 0.  1.
<mgrwt>
<rscale>  2 0.57339426E+01</rscale>
<asrwt>0</asrwt>
<pdfrwt beam="1">  1       21 0.28773894E-01 0.57339426E+01</pdfrwt>
<pdfrwt beam="2">  1       21 0.30474300E-03 0.57339426E+01</pdfrwt>
<totfact> 0.10235569E+08</totfact>
</mgrwt>
</event>
<event>
 4    1  0.3906087E+006  0.5002837E+01  0.7546771E-02  0.2566651E+00
         21   -1    0    0  501  502  0.00000000000E+00  0.00000000000E+00  0.79537877064E+00  0.79537877064E+00  0.00000000000E+00 0. -1.
         21   -1    0    0  502  503 -0.00000000000E+00 -0.00000000000E+00 -0.43975203017E+02  0.43975203017E+02  0.00000000000E+00 0. -1.
          5    1    1    2  501    0 -0.16934982177E+01  0.26541776264E+00 -0.96513525067E+01  0.10870923972E+02  0.47000000000E+01 0. -1.
         -5    1    1    2    0  503  0.16934982177E+01 -0.26541776264E+00 -0.33528471739E+02  0.33899657815E+02  0.47000000000E+01 0. -1.
<mgrwt>
<rscale>  2 0.50028375E+01</rscale>
<asrwt>0</asrwt>
<pdfrwt beam="1">  1       21 0.12236597E-03 0.50028375E+01</pdfrwt>
<pdfrwt beam="2">  1       21 0.67654157E-02 0.50028375E+01</pdfrwt>
<totfact> 0.30080743E+09</totfact>
</mgrwt>
</event>
<event>
 4    1  0.3906087E+006  0.5322879E+01  0.7546771E-02  0.2512877E+00
         21   -1    0    0  501  502  0.00000000000E+00  0.00000000000E+00  0.11351372518E+01  0.11351372518E+01  0.00000000000E+00 0. -1.
         21   -1    0    0  502  503 -0.00000000000E+00 -0.00000000000E+00 -0.27961002562E+02  0.27961002562E+02  0.00000000000E+00 0. -1.
          5    1    1    2  501    0 -0.78644455732E+00 -0.23716120365E+01 -0.86468521797E+01  0.10153870755E+02  0.47000000000E+01 0. -1.
         -5    1    1    2    0  503  0.78644455732E+00  0.23716120365E+01 -0.18179013131E+02  0.18942269059E+02  0.47000000000E+01 0. -1.
<mgrwt>
<rscale>  2 0.53228788E+01</rscale>
<asrwt>0</asrwt>
<pdfrwt beam="1">  1       21 0.17463651E-03 0.53228788E+01</pdfrwt>
<pdfrwt beam="2">  1       21 0.43016926E-02 0.53228788E+01</pdfrwt>
<totfact> 0.38676689E+09</totfact>
</mgrwt>
</event>
<event>
 4    1  0.3906087E+006  0.6415301E+01  0.7546771E-02  0.2364315E+00
         21   -1    0    0  501  502  0.00000000000E+00  0.00000000000E+00  0.20384638051E+00  0.20384638051E+00  0.00000000000E+00 0.  1.
         21   -1    0    0  502  503 -0.00000000000E+00 -0.00000000000E+00 -0.34849842788E+03  0.34849842788E+03  0.00000000000E+00 0. -1.
          5    1    1    2  501    0  0.43247227966E+01 -0.60237700045E+00 -0.61065505989E+02  0.61401564370E+02  0.47000000000E+01 0.  1.
         -5    1    1    2    0  503 -0.43247227966E+01  0.60237700045E+00 -0.28722907551E+03  0.28730070989E+03  0.47000000000E+01 0. -1.
<mgrwt>
<rscale>  2 0.64153009E+01</rscale>
<asrwt>0</asrwt>
<pdfrwt beam="1">  1       21 0.31360889E-04 0.64153009E+01</pdfrwt>
<pdfrwt beam="2">  1       21 0.53615301E-01 0.64153009E+01</pdfrwt>
<totfact> 0.79949227E+08</totfact>
</mgrwt>
</event>
<event>
 4    1  0.3906087E+006  0.4789409E+01  0.7546771E-02  0.2605925E+00
         21   -1    0    0  501  502  0.00000000000E+00  0.00000000000E+00  0.58295447639E+02  0.58295447639E+02  0.00000000000E+00 0.  1.
         21   -1    0    0  502  503 -0.00000000000E+00 -0.00000000000E+00 -0.40371057995E+00  0.40371057995E+00  0.00000000000E+00 0.  1.
          5    1    1    2  501    0 -0.62156664981E-01 -0.91900508220E+00  0.33616684168E+02  0.33956146545E+02  0.47000000000E+01 0. -1.
         -5    1    1    2    0  503  0.62156664981E-01  0.91900508220E+00  0.24275052891E+02  0.24743011674E+02  0.47000000000E+01 0. -1.
<mgrwt>
<rscale>  2 0.47894085E+01</rscale>
<asrwt>0</asrwt>
<pdfrwt beam="1">  1       21 0.89685237E-02 0.47894085E+01</pdfrwt>
<pdfrwt beam="2">  1       21 0.62109366E-04 0.47894085E+01</pdfrwt>
<totfact> 0.46446521E+09</totfact>
</mgrwt>
</event>
<event>
 4    1  0.3906087E+006  0.4950254E+01  0.7546771E-02  0.2576055E+00
         21   -1    0    0  501  502  0.00000000000E+00  0.00000000000E+00  0.38227454112E+02  0.38227454112E+02  0.00000000000E+00 0. -1.
         21   -1    0    0  502  503 -0.00000000000E+00 -0.00000000000E+00 -0.97006497960E+00  0.97006497960E+00  0.00000000000E+00 0. -1.
          5    1    1    2  501    0  0.10636256515E+00 -0.15503885629E+01  0.72144295960E+01  0.87494578167E+01  0.47000000000E+01 0. -1.
         -5    1    1    2    0  503 -0.10636256515E+00  0.15503885629E+01  0.30042959536E+02  0.30448061275E+02  0.47000000000E+01 0. -1.
<mgrwt>
<rscale>  2 0.49502543E+01</rscale>
<asrwt>0</asrwt>
<pdfrwt beam="1">  1       21 0.58811456E-02 0.49502543E+01</pdfrwt>
<pdfrwt beam="2">  1       21 0.14924080E-03 0.49502543E+01</pdfrwt>
<totfact> 0.28079601E+09</totfact>
</mgrwt>
</event>
<event>
 4    1  0.3906087E+006  0.7457245E+01  0.7546771E-02  0.2257225E+00
         21   -1    0    0  501  502  0.00000000000E+00  0.00000000000E+00  0.17512532042E+02  0.17512532042E+02  0.00000000000E+00 0.  1.
         21   -1    0    0  502  503 -0.00000000000E+00 -0.00000000000E+00 -0.36940397597E+01  0.36940397597E+01  0.00000000000E+00 0. -1.
          5    1    1    2  501    0  0.36635537235E+01  0.44831764114E+01  0.10882020000E+02  0.13191999693E+02  0.47000000000E+01 0.  1.
         -5    1    1    2    0  503 -0.36635537235E+01 -0.44831764114E+01  0.29364722824E+01  0.80145721087E+01  0.47000000000E+01 0. -1.
<mgrwt>
<rscale>  2 0.74572446E+01</rscale>
<asrwt>0</asrwt>
<pdfrwt beam="1">  1       21 0.26942356E-02 0.74572446E+01</pdfrwt>
<pdfrwt beam="2">  1       21 0.56831382E-03 0.74572446E+01</pdfrwt>
<totfact> 0.20094642E+09</totfact>
</mgrwt>
</event>
<event>
 4    1  0.3906087E+006  0.5220004E+01  0.7546771E-02  0.2529545E+00
         21   -1    0    0  503  502  0.00000000000E+00  0.00000000000E+00  0.77495642868E-01  0.77495642868E-01  0.00000000000E+00 0.  1.
         21   -1    0    0  501  503 -0.00000000000E+00 -0.00000000000E+00 -0.54369116630E+03  0.54369116630E+03  0.00000000000E+00 0.  1.
          5    1    1    2  501    0  0.17269871522E+01  0.14751108494E+01 -0.43340916154E+03  0.43344059540E+03  0.47000000000E+01 0.  1.
         -5    1    1    2    0  502 -0.17269871522E+01 -0.14751108494E+01 -0.11020450912E+03  0.11032806654E+03  0.47000000000E+01 0.  1.
<mgrwt>
<rscale>  2 0.52200035E+01</rscale>
<asrwt>0</asrwt>
<pdfrwt beam="1">  1       21 0.11921956E-04 0.52200035E+01</pdfrwt>
<pdfrwt beam="2">  1       21 0.83647954E-01 0.52200035E+01</pdfrwt>
<totfact> 0.10790398E+09</totfact>
</mgrwt>
</event>
<event>
 4    1  0.3906087E+006  0.4854142E+01  0.7546771E-02  0.2593698E+00
         21   -1    0    0  501  502  0.00000000000E+00  0.00000000000E+00  0.12279811552E+01  0.12279811552E+01  0.00000000000E+00 0.  1.
         21   -1    0    0  502  503 -0.00000000000E+00 -0.00000000000E+00 -0.69627267281E+02  0.69627267281E+02  0.00000000000E+00 0. -1.
          5    1    1    2  501    0 -0.11862569017E+01  0.25590313670E+00 -0.40462579398E+01  0.63194062354E+01  0.47000000000E+01 0.  1.
         -5    1    1    2    0  503  0.11862569017E+01 -0.25590313670E+00 -0.64353028186E+02  0.64535842200E+02  0.47000000000E+01 0. -1.
<mgrwt>
<rscale>  2 0.48541417E+01</rscale>
<asrwt>0</asrwt>
<pdfrwt beam="1">  1       21 0.18892014E-03 0.48541417E+01</pdfrwt>
<pdfrwt beam="2">  1       21 0.10711890E-01 0.48541417E+01</pdfrwt>
<totfact> 0.82154871E+08</totfact>
</mgrwt>
</event>
<event>
 4    1  0.3906087E+006  0.5670265E+01  0.7546771E-02  0.2460422E+00
         21   -1    0    0  503  502  0.00000000000E+00  0.00000000000E+00  0.89466746762E+02  0.89466746762E+02  0.00000000000E+00 0. -1.
         21   -1    0    0  501  503 -0.00000000000E+00 -0.00000000000E+00 -0.11472613586E+01  0.11472613586E+01  0.00000000000E+00 0. -1.
          5    1    1    2  501    0  0.12426772411E+01  0.29185024717E+01  0.66134902646E+01  0.87114956743E+01  0.47000000000E+01 0. -1.
         -5    1    1    2    0  502 -0.12426772411E+01 -0.29185024717E+01  0.81705995139E+02  0.81902512446E+02  0.47000000000E+01 0. -1.
<mgrwt>
<rscale>  2 0.56702648E+01</rscale>
<asrwt>0</asrwt>
<pdfrwt beam="1">  1       21 0.13764109E-01 0.56702648E+01</pdfrwt>
<pdfrwt beam="2">  1       21 0.17650182E-03 0.56702648E+01</pdfrwt>
<totfact> 0.70024833E+08</totfact>
</mgrwt>
</event>
<event>
 4    1  0.3906087E+006  0.4701263E+01  0.7546771E-02  0.2623044E+00
         21   -1    0    0  501  502  0.00000000000E+00  0.00000000000E+00  0.29327997707E+02  0.29327997707E+02  0.00000000000E+00 0.  1.
         21   -1    0    0  502  503 -0.00000000000E+00 -0.00000000000E+00 -0.16476430039E+01  0.16476430039E+01  0.00000000000E+00 0.  1.
          5    1    1    2  501    0  0.10469716581E+00  0.30146640804E-01  0.25248860949E+02  0.25682812337E+02  0.47000000000E+01 0.  1.
         -5    1    1    2    0  503 -0.10469716581E+00 -0.30146640804E-01  0.24314937536E+01  0.52928283734E+01  0.47000000000E+01 0.  1.
<mgrwt>
<rscale>  2 0.47012626E+01</rscale>
<asrwt>0</asrwt>
<pdfrwt beam="1">  1       21 0.45119993E-02 0.47012626E+01</pdfrwt>
<pdfrwt beam="2">  1       21 0.25348356E-03 0.47012626E+01</pdfrwt>
<totfact> 0.19273138E+09</totfact>
</mgrwt>
</event>
<event>
 4    1  0.3906087E+006  0.5030641E+01  0.7546771E-02  0.2561747E+00
         21   -1    0    0  503  502  0.00000000000E+00  0.00000000000E+00  0.19544915524E+02  0.19544915524E+02  0.00000000000E+00 0. -1.
         21   -1    0    0  501  503 -0.00000000000E+00 -0.00000000000E+00 -0.12948391431E+01  0.12948391431E+01  0.00000000000E+00 0. -1.
          5    1    1    2  501    0 -0.17859561455E+01  0.16645437913E+00  0.91524584747E+01  0.10443890202E+02  0.47000000000E+01 0. -1.
         -5    1    1    2    0  502  0.17859561455E+01 -0.16645437913E+00  0.90976179061E+01  0.10395864465E+02  0.47000000000E+01 0. -1.
<mgrwt>
<rscale>  2 0.50306408E+01</rscale>
<asrwt>0</asrwt>
<pdfrwt beam="1">  1       21 0.30069099E-02 0.50306408E+01</pdfrwt>
<pdfrwt beam="2">  1       21 0.19920604E-03 0.50306408E+01</pdfrwt>
<totfact> 0.51349978E+09</totfact>
</mgrwt>
</event>
<event>
 4    1  0.3906087E+006  0.1293212E+02  0.7546771E-02  0.1938623E+00
         21   -1    0    0  501  502  0.00000000000E+00  0.00000000000E+00  0.10715990325E+01  0.10715990325E+01  0.00000000000E+00 0. -1.
         21   -1    0    0  502  503 -0.00000000000E+00 -0.00000000000E+00 -0.19791573243E+03  0.19791573243E+03  0.00000000000E+00 0.  1.
          5    1    1    2  501    0 -0.87065230038E+00 -0.12016304673E+02 -0.52670672461E+02  0.54235038038E+02  0.47000000000E+01 0. -1.
         -5    1    1    2    0  503  0.87065230038E+00  0.12016304673E+02 -0.14417346094E+03  0.14475229343E+03  0.47000000000E+01 0.  1.
<mgrwt>
<rscale>  2 0.12932116E+02</rscale>
<asrwt>0</asrwt>
<pdfrwt beam="1">  1       21 0.16486130E-03 0.12932116E+02</pdfrwt>
<pdfrwt beam="2">  1       21 0.30448590E-01 0.12932116E+02</pdfrwt>
<totfact> 0.33326927E+08</totfact>
</mgrwt>
</event>
<event>
 4    1  0.3906087E+006  0.5180723E+01  0.7546771E-02  0.2536059E+00
         21   -1    0    0  503  502  0.00000000000E+00  0.00000000000E+00  0.34121669216E+01  0.34121669216E+01  0.00000000000E+00 0. -1.
         21   -1    0    0  501  503 -0.00000000000E+00 -0.00000000000E+00 -0.79611968682E+01  0.79611968682E+01  0.00000000000E+00 0. -1.
          5    1    1    2  501    0  0.11334591293E+01 -0.18614933285E+01 -0.16524628672E+01  0.54378783121E+01  0.47000000000E+01 0. -1.
         -5    1    1    2    0  502 -0.11334591293E+01  0.18614933285E+01 -0.28965670794E+01  0.59354854776E+01  0.47000000000E+01 0. -1.
<mgrwt>
<rscale>  2 0.51807226E+01</rscale>
<asrwt>0</asrwt>
<pdfrwt beam="1">  1       21 0.52494876E-03 0.51807226E+01</pdfrwt>
<pdfrwt beam="2">  1       21 0.12247995E-02 0.51807226E+01</pdfrwt>
<totfact> 0.50621581E+09</totfact>
</mgrwt>
</event>
<event>
 4    1  0.3906087E+006  0.7223878E+01  0.7546771E-02  0.2278998E+00
         21   -1    0    0  503  502  0.00000000000E+00  0.00000000000E+00  0.64305556949E+00  0.64305556949E+00  0.00000000000E+00 0. -1.
         21   -1    0    0  501  503 -0.00000000000E+00 -0.00000000000E+00 -0.96358882263E+02  0.96358882263E+02  0.00000000000E+00 0. -1.
          5    1    1    2  501    0 -0.89196116440E+00  0.54128380609E+01 -0.67126203176E+02  0.67513787951E+02  0.47000000000E+01 0. -1.
         -5    1    1    2    0  502  0.89196116440E+00 -0.54128380609E+01 -0.28589623517E+02  0.29488149881E+02  0.47000000000E+01 0. -1.
<mgrwt>
<rscale>  2 0.72238778E+01</rscale>
<asrwt>0</asrwt>
<pdfrwt beam="1">  1       21 0.98931593E-04 0.72238778E+01</pdfrwt>
<pdfrwt beam="2">  1       21 0.14824448E-01 0.72238778E+01</pdfrwt>
<totfact> 0.16373023E+09</totfact>
</mgrwt>
</event>
<event>
 4    1  0.3906087E+006  0.4908390E+01  0.7546771E-02  0.2583666E+00
         21   -1    0    0  503  502  0.00000000000E+00  0.00000000000E+00  0.15709291709E+03  0.15709291709E+03  0.00000000000E+00 0.  1.
         21   -1    0    0  501  503 -0.00000000000E+00 -0.00000000000E+00 -0.22471029912E+00  0.22471029912E+00  0.00000000000E+00 0. -1.
          5    1    1    2  501    0 -0.12807396462E+01  0.60165908128E+00  0.34111652428E+02  0.34462981865E+02  0.47000000000E+01 0. -1.
         -5    1    1    2    0  502  0.12807396462E+01 -0.60165908128E+00  0.12275655436E+03  0.12285464552E+03  0.47000000000E+01 0.  1.
<mgrwt>
<rscale>  2 0.49083895E+01</rscale>
<asrwt>0</asrwt>
<pdfrwt beam="1">  1       21 0.24168053E-01 0.49083895E+01</pdfrwt>
<pdfrwt beam="2">  1       21 0.34570941E-04 0.49083895E+01</pdfrwt>
<totfact> 0.22200745E+09</totfact>
</mgrwt>
</event>
<event>
 4    1  0.3906087E+006  0.6408984E+01  0.7546771E-02  0.2365051E+00
         21   -1    0    0  503  502  0.00000000000E+00  0.00000000000E+00  0.13031848930E+00  0.13031848930E+00  0.00000000000E+00 0.  1.
         21   -1    0    0  501  503 -0.00000000000E+00 -0.00000000000E+00 -0.33734546850E+03  0.33734546850E+03  0.00000000000E+00 0.  1.
          5    1    1    2  501    0  0.17350100886E+01 -0.39968506810E+01 -0.21185062810E+03  0.21194754942E+03  0.47000000000E+01 0.  1.
         -5    1    1    2    0  502 -0.17350100886E+01  0.39968506810E+01 -0.12536452190E+03  0.12552823757E+03  0.47000000000E+01 0.  1.
<mgrwt>
<rscale>  2 0.64089840E+01</rscale>
<asrwt>0</asrwt>
<pdfrwt beam="1">  1       21 0.20049068E-04 0.64089840E+01</pdfrwt>
<pdfrwt beam="2">  1       21 0.51899122E-01 0.64089840E+01</pdfrwt>
<totfact> 0.15423927E+09</totfact>
</mgrwt>
</event>
<event>
 4    1  0.3906087E+006  0.5078922E+01  0.7546771E-02  0.2553341E+00
         21   -1    0    0  501  502  0.00000000000E+00  0.00000000000E+00  0.13644178250E+01  0.13644178250E+01  0.00000000000E+00 0.  1.
         21   -1    0    0  502  503 -0.00000000000E+00 -0.00000000000E+00 -0.27850782607E+02  0.27850782607E+02  0.00000000000E+00 0.  1.
          5    1    1    2  501    0 -0.17332105610E+01  0.83751492892E+00 -0.49647287966E+01  0.71023927045E+01  0.47000000000E+01 0.  1.
         -5    1    1    2    0  503  0.17332105610E+01 -0.83751492892E+00 -0.21521635985E+02  0.22112807727E+02  0.47000000000E+01 0.  1.
<mgrwt>
<rscale>  2 0.50789221E+01</rscale>
<asrwt>0</asrwt>
<pdfrwt beam="1">  1       21 0.20991047E-03 0.50789221E+01</pdfrwt>
<pdfrwt beam="2">  1       21 0.42847352E-02 0.50789221E+01</pdfrwt>
<totfact> 0.28970065E+09</totfact>
</mgrwt>
</event>
<event>
 4    1  0.3906087E+006  0.6914711E+01  0.7546771E-02  0.2309679E+00
         21   -1    0    0  503  502  0.00000000000E+00  0.00000000000E+00  0.43870668602E+02  0.43870668602E+02  0.00000000000E+00 0. -1.
         21   -1    0    0  501  503 -0.00000000000E+00 -0.00000000000E+00 -0.75525949388E+01  0.75525949388E+01  0.00000000000E+00 0.  1.
          5    1    1    2  501    0  0.48913464603E+01  0.13408800664E+01 -0.56252127092E+01  0.89138233980E+01  0.47000000000E+01 0.  1.
         -5    1    1    2    0  502 -0.48913464603E+01 -0.13408800664E+01  0.41943286372E+02  0.42509440142E+02  0.47000000000E+01 0. -1.
<mgrwt>
<rscale>  2 0.69147111E+01</rscale>
<asrwt>0</asrwt>
<pdfrwt beam="1">  1       21 0.67493335E-02 0.69147111E+01</pdfrwt>
<pdfrwt beam="2">  1       21 0.11619377E-02 0.69147111E+01</pdfrwt>
<totfact> 0.17571749E+08</totfact>
</mgrwt>
</event>
<event>
 4    1  0.3906087E+006  0.5108690E+01  0.7546771E-02  0.2548226E+00
         21   -1    0    0  501  502  0.00000000000E+00  0.00000000000E+00  0.43577862079E+02  0.43577862079E+02  0.00000000000E+00 0.  1.
         21   -1    0    0  502  503 -0.00000000000E+00 -0.00000000000E+00 -0.19658442212E+01  0.19658442212E+01  0.00000000000E+00 0. -1.
          5    1    1    2  501    0  0.14610427477E+01 -0.13689640990E+01  0.39794894925E+02  0.40121470197E+02  0.47000000000E+01 0.  1.
         -5    1    1    2    0  503 -0.14610427477E+01  0.13689640990E+01  0.18171229329E+01  0.54222361041E+01  0.47000000000E+01 0. -1.
<mgrwt>
<rscale>  2 0.51086895E+01</rscale>
<asrwt>0</asrwt>
<pdfrwt beam="1">  1       21 0.67042858E-02 0.51086895E+01</pdfrwt>
<pdfrwt beam="2">  1       21 0.30243761E-03 0.51086895E+01</pdfrwt>
<totfact> 0.92058259E+08</totfact>
</mgrwt>
</event>
<event>
 4    1  0.3906087E+006  0.8401399E+01  0.7546771E-02  0.2179301E+00
         21   -1    0    0  503  502  0.00000000000E+00  0.00000000000E+00  0.33096139356E+02  0.33096139356E+02  0.00000000000E+00 0. -1.
         21   -1    0    0  501  503 -0.00000000000E+00 -0.00000000000E+00 -0.21511622912E+01  0.21511622912E+01  0.00000000000E+00 0.  1.
          5    1    1    2  501    0  0.45733394199E+01 -0.52514825828E+01  0.13838958385E+02  0.16189511170E+02  0.47000000000E+01 0. -1.
         -5    1    1    2    0  502 -0.45733394199E+01  0.52514825828E+01  0.17106018680E+02  0.19057790477E+02  0.47000000000E+01 0.  1.
<mgrwt>
<rscale>  2 0.84013989E+01</rscale>
<asrwt>0</asrwt>
<pdfrwt beam="1">  1       21 0.50917134E-02 0.84013989E+01</pdfrwt>
<pdfrwt beam="2">  1       21 0.33094807E-03 0.84013989E+01</pdfrwt>
<totfact> 0.18090817E+09</totfact>
</mgrwt>
</event>
<event>
 4    1  0.3906087E+006  0.7328493E+01  0.7546771E-02  0.2269098E+00
         21   -1    0    0  501  502  0.00000000000E+00  0.00000000000E+00  0.71618829573E+02  0.71618829573E+02  0.00000000000E+00 0. -1.
         21   -1    0    0  502  503 -0.00000000000E+00 -0.00000000000E+00 -0.18998501228E+01  0.18998501228E+01  0.00000000000E+00 0. -1.
          5    1    1    2  501    0  0.23033471463E+01  0.51294642177E+01  0.63458297440E+02  0.63880062032E+02  0.47000000000E+01 0. -1.
         -5    1    1    2    0  503 -0.23033471463E+01 -0.51294642177E+01  0.62606820104E+01  0.96386176640E+01  0.47000000000E+01 0. -1.
<mgrwt>
<rscale>  2 0.73284931E+01</rscale>
<asrwt>0</asrwt>
<pdfrwt beam="1">  1       21 0.11018279E-01 0.73284931E+01</pdfrwt>
<pdfrwt beam="2">  1       21 0.29228469E-03 0.73284931E+01</pdfrwt>
<totfact> 0.59819501E+08</totfact>
</mgrwt>
</event>
<event>
 4    1  0.3906087E+006  0.6391525E+01  0.7546771E-02  0.2367091E+00
         21   -1    0    0  503  502  0.00000000000E+00  0.00000000000E+00  0.28496055629E+02  0.28496055629E+02  0.00000000000E+00 0.  1.
         21   -1    0    0  501  503 -0.00000000000E+00 -0.00000000000E+00 -0.25040798767E+01  0.25040798767E+01  0.00000000000E+00 0.  1.
          5    1    1    2  501    0  0.38476230793E+01  0.19893201649E+01  0.28615133977E+01  0.70028463502E+01  0.47000000000E+01 0.  1.
         -5    1    1    2    0  502 -0.38476230793E+01 -0.19893201649E+01  0.23130462355E+02  0.23997289156E+02  0.47000000000E+01 0.  1.
<mgrwt>
<rscale>  2 0.63915255E+01</rscale>
<asrwt>0</asrwt>
<pdfrwt beam="1">  1       21 0.43840083E-02 0.63915255E+01</pdfrwt>
<pdfrwt beam="2">  1       21 0.38524308E-03 0.63915255E+01</pdfrwt>
<totfact> 0.14994051E+09</totfact>
</mgrwt>
</event>
<event>
 4    1  0.3906087E+006  0.6224794E+01  0.7546771E-02  0.2387053E+00
         21   -1    0    0  501  502  0.00000000000E+00  0.00000000000E+00  0.16398233122E+03  0.16398233122E+03  0.00000000000E+00 0.  1.
         21   -1    0    0  502  503 -0.00000000000E+00 -0.00000000000E+00 -0.40118399407E+01  0.40118399407E+01  0.00000000000E+00 0.  1.
          5    1    1    2  501    0 -0.21352696932E+01 -0.34783158422E+01  0.16147111298E+03  0.16159105292E+03  0.47000000000E+01 0.  1.
         -5    1    1    2    0  503  0.21352696932E+01  0.34783158422E+01 -0.15006216954E+01  0.64031182430E+01  0.47000000000E+01 0.  1.
<mgrwt>
<rscale>  2 0.62247938E+01</rscale>
<asrwt>0</asrwt>
<pdfrwt beam="1">  1       21 0.25228046E-01 0.62247938E+01</pdfrwt>
<pdfrwt beam="2">  1       21 0.61720627E-03 0.62247938E+01</pdfrwt>
<totfact> 0.50411817E+07</totfact>
</mgrwt>
</event>
<event>
 4    1  0.3906087E+006  0.8427004E+01  0.7546771E-02  0.2177385E+00
         21   -1    0    0  501  502  0.00000000000E+00  0.00000000000E+00  0.51637692100E+02  0.51637692100E+02  0.00000000000E+00 0. -1.
         21   -1    0    0  502  503 -0.00000000000E+00 -0.00000000000E+00 -0.50931447985E+01  0.50931447985E+01  0.00000000000E+00 0. -1.
          5    1    1    2  501    0  0.65292136609E+01 -0.25087373083E+01  0.47507390522E+02  0.48249005670E+02  0.47000000000E+01 0. -1.
         -5    1    1    2    0  503 -0.65292136609E+01  0.25087373083E+01 -0.96284322118E+00  0.84818312280E+01  0.47000000000E+01 0. -1.
<mgrwt>
<rscale>  2 0.84270039E+01</rscale>
<asrwt>0</asrwt>
<pdfrwt beam="1">  1       21 0.79442599E-02 0.84270039E+01</pdfrwt>
<pdfrwt beam="2">  1       21 0.78356078E-03 0.84270039E+01</pdfrwt>
<totfact> 0.27050282E+08</totfact>
</mgrwt>
</event>
<event>
 4    1  0.3906087E+006  0.4731240E+01  0.7546771E-02  0.2617160E+00
         21   -1    0    0  503  502  0.00000000000E+00  0.00000000000E+00  0.14179742987E+03  0.14179742987E+03  0.00000000000E+00 0.  1.
         21   -1    0    0  501  503 -0.00000000000E+00 -0.00000000000E+00 -0.20174046923E+00  0.20174046923E+00  0.00000000000E+00 0.  1.
          5    1    1    2  501    0  0.13964220333E+00 -0.52453010360E+00  0.37686421670E+02  0.37982245985E+02  0.47000000000E+01 0.  1.
         -5    1    1    2    0  502 -0.13964220333E+00  0.52453010360E+00  0.10390926773E+03  0.10401692435E+03  0.47000000000E+01 0.  1.
<mgrwt>
<rscale>  2 0.47312400E+01</rscale>
<asrwt>0</asrwt>
<pdfrwt beam="1">  1       21 0.21814910E-01 0.47312400E+01</pdfrwt>
<pdfrwt beam="2">  1       21 0.31037109E-04 0.47312400E+01</pdfrwt>
<totfact> 0.29127504E+09</totfact>
</mgrwt>
</event>
<event>
 4    1  0.3906087E+006  0.8966465E+01  0.7546771E-02  0.2139067E+00
         21   -1    0    0  501  502  0.00000000000E+00  0.00000000000E+00  0.32724790226E+00  0.32724790226E+00  0.00000000000E+00 0. -1.
         21   -1    0    0  502  503 -0.00000000000E+00 -0.00000000000E+00 -0.24580844247E+03  0.24580844247E+03  0.00000000000E+00 0.  1.
          5    1    1    2  501    0  0.66207358594E+01 -0.38043859112E+01 -0.11990177539E+03  0.12023657196E+03  0.47000000000E+01 0.  1.
         -5    1    1    2    0  503 -0.66207358594E+01  0.38043859112E+01 -0.12557941918E+03  0.12589911842E+03  0.47000000000E+01 0. -1.
<mgrwt>
<rscale>  2 0.89664650E+01</rscale>
<asrwt>0</asrwt>
<pdfrwt beam="1">  1       21 0.50345746E-04 0.89664650E+01</pdfrwt>
<pdfrwt beam="2">  1       21 0.37816748E-01 0.89664650E+01</pdfrwt>
<totfact> 0.97635212E+08</totfact>
</mgrwt>
</event>
<event>
 4    1  0.3906087E+006  0.4976592E+01  0.7546771E-02  0.2571323E+00
         21   -1    0    0  503  502  0.00000000000E+00  0.00000000000E+00  0.21292932356E+01  0.21292932356E+01  0.00000000000E+00 0.  1.
         21   -1    0    0  501  503 -0.00000000000E+00 -0.00000000000E+00 -0.11768704855E+02  0.11768704855E+02  0.00000000000E+00 0.  1.
          5    1    1    2  501    0 -0.15967317059E+01 -0.35624606922E+00 -0.40688650704E+01  0.64282288668E+01  0.47000000000E+01 0.  1.
         -5    1    1    2    0  502  0.15967317059E+01  0.35624606922E+00 -0.55705465489E+01  0.74697692238E+01  0.47000000000E+01 0.  1.
<mgrwt>
<rscale>  2 0.49765915E+01</rscale>
<asrwt>0</asrwt>
<pdfrwt beam="1">  1       21 0.32758358E-03 0.49765915E+01</pdfrwt>
<pdfrwt beam="2">  1       21 0.18105699E-02 0.49765915E+01</pdfrwt>
<totfact> 0.53344697E+09</totfact>
</mgrwt>
</event>
<event>
 4    1  0.3906087E+006  0.5746461E+01  0.7546771E-02  0.2449638E+00
         21   -1    0    0  503  502  0.00000000000E+00  0.00000000000E+00  0.41244571889E+02  0.41244571889E+02  0.00000000000E+00 0. -1.
         21   -1    0    0  501  503 -0.00000000000E+00 -0.00000000000E+00 -0.19769462405E+01  0.19769462405E+01  0.00000000000E+00 0. -1.
          5    1    1    2  501    0 -0.61960270659E-03 -0.33063299185E+01  0.29638800276E+01  0.64657870930E+01  0.47000000000E+01 0. -1.
         -5    1    1    2    0  502  0.61960270659E-03  0.33063299185E+01  0.36303745621E+02  0.36755731036E+02  0.47000000000E+01 0. -1.
<mgrwt>
<rscale>  2 0.57464613E+01</rscale>
<asrwt>0</asrwt>
<pdfrwt beam="1">  1       21 0.63453181E-02 0.57464613E+01</pdfrwt>
<pdfrwt beam="2">  1       21 0.30414560E-03 0.57464613E+01</pdfrwt>
<totfact> 0.10985984E+09</totfact>
</mgrwt>
</event>
<event>
 4    1  0.3906087E+006  0.1050627E+02  0.7546771E-02  0.2047270E+00
         21   -1    0    0  501  502  0.00000000000E+00  0.00000000000E+00  0.25074578451E+02  0.25074578451E+02  0.00000000000E+00 0. -1.
         21   -1    0    0  502  503 -0.00000000000E+00 -0.00000000000E+00 -0.18337625942E+02  0.18337625942E+02  0.00000000000E+00 0.  1.
          5    1    1    2  501    0  0.86859175854E+01  0.35842176756E+01  0.22290664661E+02  0.24642554893E+02  0.47000000000E+01 0. -1.
         -5    1    1    2    0  503 -0.86859175854E+01 -0.35842176756E+01 -0.15553712152E+02  0.18769649500E+02  0.47000000000E+01 0.  1.
<mgrwt>
<rscale>  2 0.10506273E+02</rscale>
<asrwt>0</asrwt>
<pdfrwt beam="1">  1       21 0.38576275E-02 0.10506273E+02</pdfrwt>
<pdfrwt beam="2">  1       21 0.28211732E-02 0.10506273E+02</pdfrwt>
<totfact> 0.14090990E+08</totfact>
</mgrwt>
</event>
<event>
 4    1  0.3906087E+006  0.4707824E+01  0.7546771E-02  0.2621751E+00
         21   -1    0    0  503  502  0.00000000000E+00  0.00000000000E+00  0.46394978605E+02  0.46394978605E+02  0.00000000000E+00 0. -1.
         21   -1    0    0  501  503 -0.00000000000E+00 -0.00000000000E+00 -0.60750188585E+00  0.60750188585E+00  0.00000000000E+00 0. -1.
          5    1    1    2  501    0  0.65071865703E-01 -0.26339397121E+00  0.12031203984E+02  0.12919499992E+02  0.47000000000E+01 0. -1.
         -5    1    1    2    0  502 -0.65071865703E-01  0.26339397121E+00  0.33756272735E+02  0.34082980499E+02  0.47000000000E+01 0. -1.
<mgrwt>
<rscale>  2 0.47078244E+01</rscale>
<asrwt>0</asrwt>
<pdfrwt beam="1">  1       21 0.71376862E-02 0.47078244E+01</pdfrwt>
<pdfrwt beam="2">  1       21 0.93461865E-04 0.47078244E+01</pdfrwt>
<totfact> 0.37323320E+09</totfact>
</mgrwt>
</event>
<event>
 4    1  0.3906087E+006  0.5601635E+01  0.7546771E-02  0.2470347E+00
         21   -1    0    0  501  502  0.00000000000E+00  0.00000000000E+00  0.85629472303E+00  0.85629472303E+00  0.00000000000E+00 0.  1.
         21   -1    0    0  502  503 -0.00000000000E+00 -0.00000000000E+00 -0.36644429966E+02  0.36644429966E+02  0.00000000000E+00 0. -1.
          5    1    1    2  501    0 -0.14376547444E+01  0.26872780469E+01 -0.17930358100E+02  0.18784995503E+02  0.47000000000E+01 0.  1.
         -5    1    1    2    0  503  0.14376547444E+01 -0.26872780469E+01 -0.17857777143E+02  0.18715729186E+02  0.47000000000E+01 0.  1.
<mgrwt>
<rscale>  2 0.56016350E+01</rscale>
<asrwt>0</asrwt>
<pdfrwt beam="1">  1       21 0.13173765E-03 0.56016350E+01</pdfrwt>
<pdfrwt beam="2">  1       21 0.56376045E-02 0.56016350E+01</pdfrwt>
<totfact> 0.39856931E+09</totfact>
</mgrwt>
</event>
<event>
 4    1  0.3906087E+006  0.6934978E+01  0.7546771E-02  0.2307599E+00
         21   -1    0    0  503  502  0.00000000000E+00  0.00000000000E+00  0.11321893162E+01  0.11321893162E+01  0.00000000000E+00 0. -1.
         21   -1    0    0  501  503 -0.00000000000E+00 -0.00000000000E+00 -0.43677743630E+02  0.43677743630E+02  0.00000000000E+00 0.  1.
          5    1    1    2  501    0  0.14693577427E+01 -0.48831243247E+01 -0.24985000413E+02  0.25929600093E+02  0.47000000000E+01 0. -1.
         -5    1    1    2    0  502 -0.14693577427E+01  0.48831243247E+01 -0.17560553901E+02  0.18880332853E+02  0.47000000000E+01 0. -1.
<mgrwt>
<rscale>  2 0.69349777E+01</rscale>
<asrwt>0</asrwt>
<pdfrwt beam="1">  1       21 0.17418297E-03 0.69349777E+01</pdfrwt>
<pdfrwt beam="2">  1       21 0.67196528E-02 0.69349777E+01</pdfrwt>
<totfact> 0.25145094E+09</totfact>
</mgrwt>
</event>
<event>
 4    1  0.3906087E+006  0.5113794E+01  0.7546771E-02  0.2547354E+00
         21   -1    0    0  503  502  0.00000000000E+00  0.00000000000E+00  0.40231955621E+01  0.40231955621E+01  0.00000000000E+00 0.  1.
         21   -1    0    0  501  503 -0.00000000000E+00 -0.00000000000E+00 -0.68881445932E+01  0.68881445932E+01  0.00000000000E+00 0. -1.
          5    1    1    2  501    0 -0.92107714423E+00  0.17923461643E+01 -0.13745143031E+00  0.51156407980E+01  0.47000000000E+01 0.  1.
         -5    1    1    2    0  502  0.92107714423E+00 -0.17923461643E+01 -0.27274976008E+01  0.57956993573E+01  0.47000000000E+01 0. -1.
<mgrwt>
<rscale>  2 0.51137939E+01</rscale>
<asrwt>0</asrwt>
<pdfrwt beam="1">  1       21 0.61895317E-03 0.51137939E+01</pdfrwt>
<pdfrwt beam="2">  1       21 0.10597145E-02 0.51137939E+01</pdfrwt>
<totfact> 0.48732545E+09</totfact>
</mgrwt>
</event>
<event>
 4    1  0.3906087E+006  0.9040411E+01  0.7546771E-02  0.2134100E+00
         21   -1    0    0  501  502  0.00000000000E+00  0.00000000000E+00  0.69453912290E+01  0.69453912290E+01  0.00000000000E+00 0. -1.
         21   -1    0    0  502  503 -0.00000000000E+00 -0.00000000000E+00 -0.97232552185E+02  0.97232552185E+02  0.00000000000E+00 0. -1.
          5    1    1    2  501    0 -0.77218236423E+01  0.11165673034E+00  0.36917958108E+01  0.97651617445E+01  0.47000000000E+01 0. -1.
         -5    1    1    2    0  503  0.77218236423E+01 -0.11165673034E+00 -0.93978956767E+02  0.94412781669E+02  0.47000000000E+01 0. -1.
<mgrwt>
<rscale>  2 0.90404108E+01</rscale>
<asrwt>0</asrwt>
<pdfrwt beam="1">  1       21 0.10685217E-02 0.90404108E+01</pdfrwt>
<pdfrwt beam="2">  1       21 0.14958854E-01 0.90404108E+01</pdfrwt>
<totfact> 0.65874098E+07</totfact>
</mgrwt>
</event>
<event>
 4    1  0.3906087E+006  0.5460100E+01  0.7546771E-02  0.2491480E+00
         21   -1    0    0  501  502  0.00000000000E+00  0.00000000000E+00  0.14385174798E+03  0.14385174798E+03  0.00000000000E+00 0.  1.
         21   -1    0    0  502  503 -0.00000000000E+00 -0.00000000000E+00 -0.53746392692E+00  0.53746392692E+00  0.00000000000E+00 0. -1.
          5    1    1    2  501    0  0.61711820923E+00  0.27095858752E+01  0.12824593800E+03  0.12836211787E+03  0.47000000000E+01 0.  1.
         -5    1    1    2    0  503 -0.61711820923E+00 -0.27095858752E+01  0.15068346052E+02  0.16027094036E+02  0.47000000000E+01 0. -1.
<mgrwt>
<rscale>  2 0.54600999E+01</rscale>
<asrwt>0</asrwt>
<pdfrwt beam="1">  1       21 0.22131007E-01 0.54600999E+01</pdfrwt>
<pdfrwt beam="2">  1       21 0.82686873E-04 0.54600999E+01</pdfrwt>
<totfact> 0.88429852E+08</totfact>
</mgrwt>
</event>
<event>
 4    1  0.3906087E+006  0.1045539E+02  0.7546771E-02  0.2049961E+00
         21   -1    0    0  503  502  0.00000000000E+00  0.00000000000E+00  0.19035897294E+01  0.19035897294E+01  0.00000000000E+00 0.  1.
         21   -1    0    0  501  503 -0.00000000000E+00 -0.00000000000E+00 -0.72070314508E+02  0.72070314508E+02  0.00000000000E+00 0. -1.
          5    1    1    2  501    0  0.72736348562E+01 -0.58582782672E+01 -0.51756127413E+02  0.52801627940E+02  0.47000000000E+01 0. -1.
         -5    1    1    2    0  502 -0.72736348562E+01  0.58582782672E+01 -0.18410597366E+02  0.21172276298E+02  0.47000000000E+01 0.  1.
<mgrwt>
<rscale>  2 0.10455390E+02</rscale>
<asrwt>0</asrwt>
<pdfrwt beam="1">  1       21 0.29286002E-03 0.10455390E+02</pdfrwt>
<pdfrwt beam="2">  1       21 0.11087739E-01 0.10455390E+02</pdfrwt>
<totfact> 0.72986103E+08</totfact>
</mgrwt>
</event>
<event>
 4    1  0.3906087E+006  0.5928661E+01  0.7546771E-02  0.2424802E+00
         21   -1    0    0  503  502  0.00000000000E+00  0.00000000000E+00  0.59042985446E+02  0.59042985446E+02  0.00000000000E+00 0. -1.
         21   -1    0    0  501  503 -0.00000000000E+00 -0.00000000000E+00 -0.80083996326E+00  0.80083996326E+00  0.00000000000E+00 0. -1.
          5    1    1    2  501    0  0.50628007970E+00  0.35780864732E+01  0.13962737680E+02  0.15169280334E+02  0.47000000000E+01 0. -1.
         -5    1    1    2    0  502 -0.50628007970E+00 -0.35780864732E+01  0.44279407803E+02  0.44674545075E+02  0.47000000000E+01 0. -1.
<mgrwt>
<rscale>  2 0.59286611E+01</rscale>
<asrwt>0</asrwt>
<pdfrwt beam="1">  1       21 0.90835328E-02 0.59286611E+01</pdfrwt>
<pdfrwt beam="2">  1       21 0.12320619E-03 0.59286611E+01</pdfrwt>
<totfact> 0.22394522E+09</totfact>
</mgrwt>
</event>
<event>
 4    1  0.3906087E+006  0.7937668E+01  0.7546771E-02  0.2215705E+00
         21   -1    0    0  501  502  0.00000000000E+00  0.00000000000E+00  0.22158730488E+01  0.22158730488E+01  0.00000000000E+00 0.  1.
         21   -1    0    0  502  503 -0.00000000000E+00 -0.00000000000E+00 -0.28962994465E+02  0.28962994465E+02  0.00000000000E+00 0.  1.
          5    1    1    2  501    0 -0.48824839511E+01 -0.41325440363E+01 -0.11267099393E+02  0.13782383628E+02  0.47000000000E+01 0.  1.
         -5    1    1    2    0  503  0.48824839511E+01  0.41325440363E+01 -0.15480022024E+02  0.17396483886E+02  0.47000000000E+01 0.  1.
<mgrwt>
<rscale>  2 0.79376678E+01</rscale>
<asrwt>0</asrwt>
<pdfrwt beam="1">  1       21 0.34090353E-03 0.79376678E+01</pdfrwt>
<pdfrwt beam="2">  1       21 0.44558454E-02 0.79376678E+01</pdfrwt>
<totfact> 0.20421495E+09</totfact>
</mgrwt>
</event>
<event>
 4    1  0.3906087E+006  0.5539673E+01  0.7546771E-02  0.2479486E+00
         21   -1    0    0  501  502  0.00000000000E+00  0.00000000000E+00  0.25845515429E+03  0.25845515429E+03  0.00000000000E+00 0. -1.
         21   -1    0    0  502  503 -0.00000000000E+00 -0.00000000000E+00 -0.20005863913E+00  0.20005863913E+00  0.00000000000E+00 0.  1.
          5    1    1    2  501    0  0.28219004799E+01 -0.79678074799E+00  0.21158269920E+03  0.21165520684E+03  0.47000000000E+01 0. -1.
         -5    1    1    2    0  503 -0.28219004799E+01  0.79678074799E+00  0.46672396453E+02  0.47000006091E+02  0.47000000000E+01 0.  1.
<mgrwt>
<rscale>  2 0.55396734E+01</rscale>
<asrwt>0</asrwt>
<pdfrwt beam="1">  1       21 0.39762064E-01 0.55396734E+01</pdfrwt>
<pdfrwt beam="2">  1       21 0.30778459E-04 0.55396734E+01</pdfrwt>
<totfact> 0.12522105E+09</totfact>
</mgrwt>
</event>
<event>
 4    1  0.3906087E+006  0.4811799E+01  0.7546771E-02  0.2601664E+00
         21   -1    0    0  501  502  0.00000000000E+00  0.00000000000E+00  0.99932608931E-01  0.99932608931E-01  0.00000000000E+00 0.  1.
         21   -1    0    0  502  503 -0.00000000000E+00 -0.00000000000E+00 -0.34764696803E+03  0.34764696803E+03  0.00000000000E+00 0.  1.
          5    1    1    2  501    0 -0.10305550662E+01  0.36906355565E-01 -0.73355393078E+02  0.73513040336E+02  0.47000000000E+01 0.  1.
         -5    1    1    2    0  503  0.10305550662E+01 -0.36906355565E-01 -0.27419164234E+03  0.27423386030E+03  0.47000000000E+01 0.  1.
<mgrwt>
<rscale>  2 0.48117986E+01</rscale>
<asrwt>0</asrwt>
<pdfrwt beam="1">  1       21 0.15374166E-04 0.48117986E+01</pdfrwt>
<pdfrwt beam="2">  1       21 0.53484432E-01 0.48117986E+01</pdfrwt>
<totfact> 0.16558400E+09</totfact>
</mgrwt>
</event>
<event>
 4    1  0.3906087E+006  0.6705857E+01  0.7546771E-02  0.2331710E+00
         21   -1    0    0  503  502  0.00000000000E+00  0.00000000000E+00  0.72698232583E+02  0.72698232583E+02  0.00000000000E+00 0. -1.
         21   -1    0    0  501  503 -0.00000000000E+00 -0.00000000000E+00 -0.89723612566E+00  0.89723612566E+00  0.00000000000E+00 0.  1.
          5    1    1    2  501    0 -0.44151041106E+00  0.47627285193E+01  0.15392918090E+02  0.16790188853E+02  0.47000000000E+01 0.  1.
         -5    1    1    2    0  502  0.44151041106E+00 -0.47627285193E+01  0.56408078367E+02  0.56805279856E+02  0.47000000000E+01 0.  1.
<mgrwt>
<rscale>  2 0.67058567E+01</rscale>
<asrwt>0</asrwt>
<pdfrwt beam="1">  1       21 0.11184339E-01 0.67058567E+01</pdfrwt>
<pdfrwt beam="2">  1       21 0.13803638E-03 0.67058567E+01</pdfrwt>
<totfact> 0.15382824E+09</totfact>
</mgrwt>
</event>
<event>
 4    1  0.3906087E+006  0.7771184E+01  0.7546771E-02  0.2229622E+00
         21   -1    0    0  501  502  0.00000000000E+00  0.00000000000E+00  0.10198266763E+00  0.10198266763E+00  0.00000000000E+00 0.  1.
         21   -1    0    0  502  503 -0.00000000000E+00 -0.00000000000E+00 -0.68840454009E+03  0.68840454009E+03  0.00000000000E+00 0. -1.
          5    1    1    2  501    0  0.27191654365E+01 -0.55594463385E+01 -0.21543998846E+03  0.21558010096E+03  0.47000000000E+01 0. -1.
         -5    1    1    2    0  503 -0.27191654365E+01  0.55594463385E+01 -0.47286256896E+03  0.47292642179E+03  0.47000000000E+01 0.  1.
<mgrwt>
<rscale>  2 0.77711842E+01</rscale>
<asrwt>0</asrwt>
<pdfrwt beam="1">  1       21 0.15689852E-04 0.77711842E+01</pdfrwt>
<pdfrwt beam="2">  1       21 0.10590697E+00 0.77711842E+01</pdfrwt>
<totfact> 0.60472369E+08</totfact>
</mgrwt>
</event>
<event>
 4    1  0.3906087E+006  0.7085163E+01  0.7546771E-02  0.2292493E+00
         21   -1    0    0  503  502  0.00000000000E+00  0.00000000000E+00  0.25326906005E+01  0.25326906005E+01  0.00000000000E+00 0.  1.
         21   -1    0    0  501  503 -0.00000000000E+00 -0.00000000000E+00 -0.36084343658E+02  0.36084343658E+02  0.00000000000E+00 0.  1.
          5    1    1    2  501    0 -0.78779029258E+00  0.52429872035E+01 -0.29738642324E+02  0.30571005473E+02  0.47000000000E+01 0.  1.
         -5    1    1    2    0  502  0.78779029258E+00 -0.52429872035E+01 -0.38130107336E+01  0.80460287854E+01  0.47000000000E+01 0.  1.
<mgrwt>
<rscale>  2 0.70851626E+01</rscale>
<asrwt>0</asrwt>
<pdfrwt beam="1">  1       21 0.38964472E-03 0.70851626E+01</pdfrwt>
<pdfrwt beam="2">  1       21 0.55514372E-02 0.70851626E+01</pdfrwt>
<totfact> 0.11215380E+09</totfact>
</mgrwt>
</event>
<event>
 4    1  0.3906087E+006  0.7622786E+01  0.7546771E-02  0.2242440E+00
         21   -1    0    0  501  502  0.00000000000E+00  0.00000000000E+00  0.88688315433E+02  0.88688315433E+02  0.00000000000E+00 0.  1.
         21   -1    0    0  502  503 -0.00000000000E+00 -0.00000000000E+00 -0.66192909102E+00  0.66192909102E+00  0.00000000000E+00 0.  1.
          5    1    1    2  501    0  0.21977332849E+01 -0.55845176217E+01  0.48524076147E+02  0.49119169726E+02  0.47000000000E+01 0.  1.
         -5    1    1    2    0  503 -0.21977332849E+01  0.55845176217E+01  0.39502310195E+02  0.40231074798E+02  0.47000000000E+01 0.  1.
<mgrwt>
<rscale>  2 0.76227861E+01</rscale>
<asrwt>0</asrwt>
<pdfrwt beam="1">  1       21 0.13644347E-01 0.76227861E+01</pdfrwt>
<pdfrwt beam="2">  1       21 0.10183532E-03 0.76227861E+01</pdfrwt>
<totfact> 0.18667277E+09</totfact>
</mgrwt>
</event>
<event>
 4    1  0.3906087E+006  0.5504257E+01  0.7546771E-02  0.2484788E+00
         21   -1    0    0  503  502  0.00000000000E+00  0.00000000000E+00  0.10443026814E+02  0.10443026814E+02  0.00000000000E+00 0. -1.
         21   -1    0    0  501  503 -0.00000000000E+00 -0.00000000000E+00 -0.29375999858E+01  0.29375999858E+01  0.00000000000E+00 0.  1.
          5    1    1    2  501    0  0.28260765715E+01 -0.46918583344E+00  0.30075245471E+01  0.62723239741E+01  0.47000000000E+01 0. -1.
         -5    1    1    2    0  502 -0.28260765715E+01  0.46918583344E+00  0.44979022812E+01  0.71083028259E+01  0.47000000000E+01 0. -1.
<mgrwt>
<rscale>  2 0.55042569E+01</rscale>
<asrwt>0</asrwt>
<pdfrwt beam="1">  1       21 0.16066195E-02 0.55042569E+01</pdfrwt>
<pdfrwt beam="2">  1       21 0.45193846E-03 0.55042569E+01</pdfrwt>
<totfact> 0.45101957E+09</totfact>
</mgrwt>
</event>
<event>
 4    1  0.3906087E+006  0.5479266E+01  0.7546771E-02  0.2488564E+00
         21   -1    0    0  503  502  0.00000000000E+00  0.00000000000E+00  0.46190319437E+03  0.46190319437E+03  0.00000000000E+00 0. -1.
         21   -1    0    0  501  503 -0.00000000000E+00 -0.00000000000E+00 -0.44714394416E+00  0.44714394416E+00  0.00000000000E+00 0.  1.
          5    1    1    2  501    0 -0.26696951496E+01 -0.89726189655E+00  0.17014175707E+02  0.17874689538E+02  0.47000000000E+01 0.  1.
         -5    1    1    2    0  502  0.26696951496E+01  0.89726189655E+00  0.44444187472E+03  0.44447564878E+03  0.47000000000E+01 0. -1.
<mgrwt>
<rscale>  2 0.54792656E+01</rscale>
<asrwt>0</asrwt>
<pdfrwt beam="1">  1       21 0.71061648E-01 0.54792656E+01</pdfrwt>
<pdfrwt beam="2">  1       21 0.68791746E-04 0.54792656E+01</pdfrwt>
<totfact> 0.14900578E+08</totfact>
</mgrwt>
</event>
<event>
 4    1  0.3906087E+006  0.4944502E+01  0.7546771E-02  0.2577094E+00
         21   -1    0    0  501  502  0.00000000000E+00  0.00000000000E+00  0.17799903056E+03  0.17799903056E+03  0.00000000000E+00 0. -1.
         21   -1    0    0  502  503 -0.00000000000E+00 -0.00000000000E+00 -0.17419761458E+00  0.17419761458E+00  0.00000000000E+00 0. -1.
          5    1    1    2  501    0 -0.10326266245E+01 -0.11365667877E+01  0.12988545702E+03  0.12997953704E+03  0.47000000000E+01 0.  1.
         -5    1    1    2    0  503  0.10326266245E+01  0.11365667877E+01  0.47939375924E+02  0.48193691141E+02  0.47000000000E+01 0.  1.
<mgrwt>
<rscale>  2 0.49445022E+01</rscale>
<asrwt>0</asrwt>
<pdfrwt beam="1">  1       21 0.27384321E-01 0.49445022E+01</pdfrwt>
<pdfrwt beam="2">  1       21 0.26799775E-04 0.49445022E+01</pdfrwt>
<totfact> 0.25548945E+09</totfact>
</mgrwt>
</event>
<event>
 4    1  0.3906087E+006  0.5343786E+01  0.7546771E-02  0.2509556E+00
         21   -1    0    0  501  502  0.00000000000E+00  0.00000000000E+00  0.46960569112E+01  0.46960569112E+01  0.00000000000E+00 0. -1.
         21   -1    0    0  502  503 -0.00000000000E+00 -0.00000000000E+00 -0.88875238937E+01  0.88875238937E+01  0.00000000000E+00 0. -1.
          5    1    1    2  501    0  0.23029981482E+01 -0.10780785754E+01  0.17209774081E+01  0.56140731314E+01  0.47000000000E+01 0. -1.
         -5    1    1    2    0  503 -0.23029981482E+01  0.10780785754E+01 -0.59124443907E+01  0.79695076735E+01  0.47000000000E+01 0. -1.
<mgrwt>
<rscale>  2 0.53437865E+01</rscale>
<asrwt>0</asrwt>
<pdfrwt beam="1">  1       21 0.72247030E-03 0.53437865E+01</pdfrwt>
<pdfrwt beam="2">  1       21 0.13673114E-02 0.53437865E+01</pdfrwt>
<totfact> 0.28755964E+09</totfact>
</mgrwt>
</event>
<event>
 4    1  0.3906087E+006  0.5247506E+01  0.7546771E-02  0.2525035E+00
         21   -1    0    0  503  502  0.00000000000E+00  0.00000000000E+00  0.84629534441E+00  0.84629534441E+00  0.00000000000E+00 0. -1.
         21   -1    0    0  501  503 -0.00000000000E+00 -0.00000000000E+00 -0.15155982522E+04  0.15155982522E+04  0.00000000000E+00 0. -1.
          5    1    1    2  501    0 -0.13495360584E+01 -0.19039608221E+01 -0.15074151834E+04  0.15074243170E+04  0.47000000000E+01 0. -1.
         -5    1    1    2    0  502  0.13495360584E+01  0.19039608221E+01 -0.73367734282E+01  0.90202305248E+01  0.47000000000E+01 0. -1.
<mgrwt>
<rscale>  2 0.52475055E+01</rscale>
<asrwt>0</asrwt>
<pdfrwt beam="1">  1       21 0.13019872E-03 0.52475055E+01</pdfrwt>
<pdfrwt beam="2">  1       21 0.23316998E+00 0.52475055E+01</pdfrwt>
<totfact> 0.52531939E+06</totfact>
</mgrwt>
</event>
<event>
 4    1  0.3906087E+006  0.6762797E+01  0.7546771E-02  0.2325593E+00
         21   -1    0    0  503  502  0.00000000000E+00  0.00000000000E+00  0.24618170993E+01  0.24618170993E+01  0.00000000000E+00 0. -1.
         21   -1    0    0  501  503 -0.00000000000E+00 -0.00000000000E+00 -0.12112536535E+03  0.12112536535E+03  0.00000000000E+00 0. -1.
          5    1    1    2  501    0  0.17380259210E+01 -0.45414413458E+01 -0.11618934790E+03  0.11638599567E+03  0.47000000000E+01 0. -1.
         -5    1    1    2    0  502 -0.17380259210E+01  0.45414413458E+01 -0.24742003509E+01  0.72011867755E+01  0.47000000000E+01 0. -1.
<mgrwt>
<rscale>  2 0.67627970E+01</rscale>
<asrwt>0</asrwt>
<pdfrwt beam="1">  1       21 0.37874108E-03 0.67627970E+01</pdfrwt>
<pdfrwt beam="2">  1       21 0.18634672E-01 0.67627970E+01</pdfrwt>
<totfact> 0.17185223E+08</totfact>
</mgrwt>
</event>
<event>
 4    1  0.3906087E+006  0.5343192E+01  0.7546771E-02  0.2509650E+00
         21   -1    0    0  501  502  0.00000000000E+00  0.00000000000E+00  0.34105886961E+00  0.34105886961E+00  0.00000000000E+00 0. -1.
         21   -1    0    0  502  503 -0.00000000000E+00 -0.00000000000E+00 -0.86298753736E+02  0.86298753736E+02  0.00000000000E+00 0.  1.
          5    1    1    2  501    0 -0.16494951210E+01  0.19336136975E+01 -0.50483225147E+02  0.50765201835E+02  0.47000000000E+01 0.  1.
         -5    1    1    2    0  503  0.16494951210E+01 -0.19336136975E+01 -0.35474469719E+02  0.35874610771E+02  0.47000000000E+01 0. -1.
<mgrwt>
<rscale>  2 0.53431916E+01</rscale>
<asrwt>0</asrwt>
<pdfrwt beam="1">  1       21 0.52470520E-04 0.53431916E+01</pdfrwt>
<pdfrwt beam="2">  1       21 0.13276751E-01 0.53431916E+01</pdfrwt>
<totfact> 0.35659098E+09</totfact>
</mgrwt>
</event>
<event>
 4    1  0.3906087E+006  0.7680068E+01  0.7546771E-02  0.2237445E+00
         21   -1    0    0  501  502  0.00000000000E+00  0.00000000000E+00  0.17910102031E+01  0.17910102031E+01  0.00000000000E+00 0.  1.
         21   -1    0    0  502  503 -0.00000000000E+00 -0.00000000000E+00 -0.39807089490E+02  0.39807089490E+02  0.00000000000E+00 0.  1.
          5    1    1    2  501    0 -0.40723968920E+01  0.45065546017E+01 -0.10364952296E+02  0.12900220422E+02  0.47000000000E+01 0.  1.
         -5    1    1    2    0  503  0.40723968920E+01 -0.45065546017E+01 -0.27651126990E+02  0.28697879271E+02  0.47000000000E+01 0.  1.
<mgrwt>
<rscale>  2 0.76800684E+01</rscale>
<asrwt>0</asrwt>
<pdfrwt beam="1">  1       21 0.27554005E-03 0.76800684E+01</pdfrwt>
<pdfrwt beam="2">  1       21 0.61241673E-02 0.76800684E+01</pdfrwt>
<totfact> 0.16593261E+09</totfact>
</mgrwt>
</event>
<event>
 4    1  0.3906087E+006  0.1002567E+02  0.7546771E-02  0.2073530E+00
         21   -1    0    0  501  502  0.00000000000E+00  0.00000000000E+00  0.12841699389E+01  0.12841699389E+01  0.00000000000E+00 0. -1.
         21   -1    0    0  502  503 -0.00000000000E+00 -0.00000000000E+00 -0.10007324773E+03  0.10007324773E+03  0.00000000000E+00 0.  1.
          5    1    1    2  501    0 -0.30564877931E+01  0.83115575474E+01 -0.25740208692E+02  0.27623766036E+02  0.47000000000E+01 0. -1.
         -5    1    1    2    0  503  0.30564877931E+01 -0.83115575474E+01 -0.73048869100E+02  0.73733651634E+02  0.47000000000E+01 0.  1.
<mgrwt>
<rscale>  2 0.10025672E+02</rscale>
<asrwt>0</asrwt>
<pdfrwt beam="1">  1       21 0.19756461E-03 0.10025672E+02</pdfrwt>
<pdfrwt beam="2">  1       21 0.15395884E-01 0.10025672E+02</pdfrwt>
<totfact> 0.72922141E+08</totfact>
</mgrwt>
</event>
<event>
 4    1  0.3906087E+006  0.7009934E+01  0.7546771E-02  0.2299993E+00
         21   -1    0    0  503  502  0.00000000000E+00  0.00000000000E+00  0.51633063494E+00  0.51633063494E+00  0.00000000000E+00 0.  1.
         21   -1    0    0  501  503 -0.00000000000E+00 -0.00000000000E+00 -0.12769249091E+03  0.12769249091E+03  0.00000000000E+00 0. -1.
          5    1    1    2  501    0  0.50525335932E+01  0.12333181107E+01 -0.95939798774E+02  0.96195551654E+02  0.47000000000E+01 0. -1.
         -5    1    1    2    0  502 -0.50525335932E+01 -0.12333181107E+01 -0.31236361503E+02  0.32013269893E+02  0.47000000000E+01 0.  1.
<mgrwt>
<rscale>  2 0.70099336E+01</rscale>
<asrwt>0</asrwt>
<pdfrwt beam="1">  1       21 0.79435552E-04 0.70099336E+01</pdfrwt>
<pdfrwt beam="2">  1       21 0.19644981E-01 0.70099336E+01</pdfrwt>
<totfact> 0.13696544E+09</totfact>
</mgrwt>
</event>
<event>
 4    1  0.3906087E+006  0.5440049E+01  0.7546771E-02  0.2494549E+00
         21   -1    0    0  501  502  0.00000000000E+00  0.00000000000E+00  0.68568192172E+01  0.68568192172E+01  0.00000000000E+00 0. -1.
         21   -1    0    0  502  503 -0.00000000000E+00 -0.00000000000E+00 -0.19062885735E+02  0.19062885735E+02  0.00000000000E+00 0.  1.
          5    1    1    2  501    0  0.10821936852E+01  0.25165443260E+01  0.52956756694E+01  0.75919904710E+01  0.47000000000E+01 0. -1.
         -5    1    1    2    0  503 -0.10821936852E+01 -0.25165443260E+01 -0.17501742187E+02  0.18327714481E+02  0.47000000000E+01 0.  1.
<mgrwt>
<rscale>  2 0.54400495E+01</rscale>
<asrwt>0</asrwt>
<pdfrwt beam="1">  1       21 0.10548953E-02 0.54400495E+01</pdfrwt>
<pdfrwt beam="2">  1       21 0.29327516E-02 0.54400495E+01</pdfrwt>
<totfact> 0.58022732E+08</totfact>
</mgrwt>
</event>
<event>
 4    1  0.3906087E+006  0.4742928E+01  0.7546771E-02  0.2614884E+00
         21   -1    0    0  503  502  0.00000000000E+00  0.00000000000E+00  0.34366689775E+02  0.34366689775E+02  0.00000000000E+00 0. -1.
         21   -1    0    0  501  503 -0.00000000000E+00 -0.00000000000E+00 -0.97439648047E+00  0.97439648047E+00  0.00000000000E+00 0. -1.
          5    1    1    2  501    0 -0.10658002897E+00 -0.62769997809E+00  0.65724296423E+01  0.81050723604E+01  0.47000000000E+01 0. -1.
         -5    1    1    2    0  502  0.10658002897E+00  0.62769997809E+00  0.26819863653E+02  0.27236013895E+02  0.47000000000E+01 0. -1.
<mgrwt>
<rscale>  2 0.47429281E+01</rscale>
<asrwt>0</asrwt>
<pdfrwt beam="1">  1       21 0.52871821E-02 0.47429281E+01</pdfrwt>
<pdfrwt beam="2">  1       21 0.14990718E-03 0.47429281E+01</pdfrwt>
<totfact> 0.31217355E+09</totfact>
</mgrwt>
</event>
<event>
 4    1  0.3906087E+006  0.9852852E+01  0.7546771E-02  0.2083460E+00
         21   -1    0    0  503  502  0.00000000000E+00  0.00000000000E+00  0.86201991019E+02  0.86201991019E+02  0.00000000000E+00 0. -1.
         21   -1    0    0  501  503 -0.00000000000E+00 -0.00000000000E+00 -0.11276658983E+01  0.11276658983E+01  0.00000000000E+00 0.  1.
          5    1    1    2  501    0 -0.59111348037E+01 -0.63282836713E+01  0.44123853108E+02  0.45210541934E+02  0.47000000000E+01 0.  1.
         -5    1    1    2    0  502  0.59111348037E+01  0.63282836713E+01  0.40950472013E+02  0.42119114983E+02  0.47000000000E+01 0. -1.
<mgrwt>
<rscale>  2 0.98528518E+01</rscale>
<asrwt>0</asrwt>
<pdfrwt beam="1">  1       21 0.13261840E-01 0.98528518E+01</pdfrwt>
<pdfrwt beam="2">  1       21 0.17348713E-03 0.98528518E+01</pdfrwt>
<totfact> 0.11036372E+09</totfact>
</mgrwt>
</event>
<event>
 4    1  0.3906087E+006  0.7621621E+01  0.7546771E-02  0.2242542E+00
         21   -1    0    0  503  502  0.00000000000E+00  0.00000000000E+00  0.16458683135E+02  0.16458683135E+02  0.00000000000E+00 0.  1.
         21   -1    0    0  501  503 -0.00000000000E+00 -0.00000000000E+00 -0.14581712283E+02  0.14581712283E+02  0.00000000000E+00 0. -1.
          5    1    1    2  501    0  0.31351472451E+01 -0.51156586671E+01 -0.12573518319E+02  0.14703145064E+02  0.47000000000E+01 0. -1.
         -5    1    1    2    0  502 -0.31351472451E+01  0.51156586671E+01  0.14450489171E+02  0.16337250354E+02  0.47000000000E+01 0.  1.
<mgrwt>
<rscale>  2 0.76216213E+01</rscale>
<asrwt>0</asrwt>
<pdfrwt beam="1">  1       21 0.25321051E-02 0.76216213E+01</pdfrwt>
<pdfrwt beam="2">  1       21 0.22433403E-02 0.76216213E+01</pdfrwt>
<totfact> 0.31152294E+08</totfact>
</mgrwt>
</event>
<event>
 4    1  0.3906087E+006  0.5526806E+01  0.7546771E-02  0.2481405E+00
         21   -1    0    0  503  502  0.00000000000E+00  0.00000000000E+00  0.30208551444E+02  0.30208551444E+02  0.00000000000E+00 0. -1.
         21   -1    0    0  501  503 -0.00000000000E+00 -0.00000000000E+00 -0.35074107165E+01  0.35074107165E+01  0.00000000000E+00 0.  1.
          5    1    1    2  501    0  0.10586238678E+01 -0.27083024520E+01 -0.87129675798E+00  0.55950643165E+01  0.47000000000E+01 0.  1.
         -5    1    1    2    0  502 -0.10586238678E+01  0.27083024520E+01  0.27572437485E+02  0.28120897844E+02  0.47000000000E+01 0. -1.
<mgrwt>
<rscale>  2 0.55268062E+01</rscale>
<asrwt>0</asrwt>
<pdfrwt beam="1">  1       21 0.46474693E-02 0.55268062E+01</pdfrwt>
<pdfrwt beam="2">  1       21 0.53960167E-03 0.55268062E+01</pdfrwt>
<totfact> 0.76584089E+08</totfact>
</mgrwt>
</event>
<event>
 4    1  0.3906087E+006  0.9075494E+01  0.7546771E-02  0.2131765E+00
         21   -1    0    0  503  502  0.00000000000E+00  0.00000000000E+00  0.26602533123E+01  0.26602533123E+01  0.00000000000E+00 0. -1.
         21   -1    0    0  501  503 -0.00000000000E+00 -0.00000000000E+00 -0.49409277721E+02  0.49409277721E+02  0.00000000000E+00 0. -1.
          5    1    1    2  501    0  0.59210222835E+01  0.50215615337E+01 -0.39282864417E+02  0.40317589486E+02  0.47000000000E+01 0. -1.
         -5    1    1    2    0  502 -0.59210222835E+01 -0.50215615337E+01 -0.74661599912E+01  0.11751941547E+02  0.47000000000E+01 0. -1.
<mgrwt>
<rscale>  2 0.90754937E+01</rscale>
<asrwt>0</asrwt>
<pdfrwt beam="1">  1       21 0.40926973E-03 0.90754937E+01</pdfrwt>
<pdfrwt beam="2">  1       21 0.76014275E-02 0.90754937E+01</pdfrwt>
<totfact> 0.76165438E+08</totfact>
</mgrwt>
</event>
<event>
 4    1  0.3906087E+006  0.5560099E+01  0.7546771E-02  0.2476454E+00
         21   -1    0    0  501  502  0.00000000000E+00  0.00000000000E+00  0.37708244176E+01  0.37708244176E+01  0.00000000000E+00 0. -1.
         21   -1    0    0  502  503 -0.00000000000E+00 -0.00000000000E+00 -0.13600601854E+02  0.13600601854E+02  0.00000000000E+00 0. -1.
          5    1    1    2  501    0  0.92975360145E+00  0.28213938818E+01  0.55920279426E+00  0.55881493324E+01  0.47000000000E+01 0. -1.
         -5    1    1    2    0  503 -0.92975360145E+00 -0.28213938818E+01 -0.10388980231E+02  0.11783276939E+02  0.47000000000E+01 0. -1.
<mgrwt>
<rscale>  2 0.55600994E+01</rscale>
<asrwt>0</asrwt>
<pdfrwt beam="1">  1       21 0.58012683E-03 0.55600994E+01</pdfrwt>
<pdfrwt beam="2">  1       21 0.20924003E-02 0.55600994E+01</pdfrwt>
<totfact> 0.22121505E+09</totfact>
</mgrwt>
</event>
<event>
 4    1  0.3906087E+006  0.9311566E+01  0.7546771E-02  0.2116423E+00
         21   -1    0    0  503  502  0.00000000000E+00  0.00000000000E+00  0.17736612071E+01  0.17736612071E+01  0.00000000000E+00 0.  1.
         21   -1    0    0  501  503 -0.00000000000E+00 -0.00000000000E+00 -0.83914704692E+02  0.83914704692E+02  0.00000000000E+00 0.  1.
          5    1    1    2  501    0  0.28597945921E+01 -0.75124459874E+01 -0.68752149299E+02  0.69379847961E+02  0.47000000000E+01 0.  1.
         -5    1    1    2    0  502 -0.28597945921E+01  0.75124459874E+01 -0.13388894185E+02  0.16308517938E+02  0.47000000000E+01 0.  1.
<mgrwt>
<rscale>  2 0.93115665E+01</rscale>
<asrwt>0</asrwt>
<pdfrwt beam="1">  1       21 0.27287096E-03 0.93115665E+01</pdfrwt>
<pdfrwt beam="2">  1       21 0.12909954E-01 0.93115665E+01</pdfrwt>
<totfact> 0.59274066E+08</totfact>
</mgrwt>
</event>
<event>
 4    1  0.3906087E+006  0.6192914E+01  0.7546771E-02  0.2390972E+00
         21   -1    0    0  501  502  0.00000000000E+00  0.00000000000E+00  0.84688903714E+01  0.84688903714E+01  0.00000000000E+00 0. -1.
         21   -1    0    0  502  503 -0.00000000000E+00 -0.00000000000E+00 -0.86657449484E+01  0.86657449484E+01  0.00000000000E+00 0.  1.
          5    1    1    2  501    0  0.18368309884E+01 -0.35900192011E+01  0.58211743168E+01  0.84993091702E+01  0.47000000000E+01 0. -1.
         -5    1    1    2    0  503 -0.18368309884E+01  0.35900192011E+01 -0.60180288938E+01  0.86353261496E+01  0.47000000000E+01 0.  1.
<mgrwt>
<rscale>  2 0.61929142E+01</rscale>
<asrwt>0</asrwt>
<pdfrwt beam="1">  1       21 0.13029062E-02 0.61929142E+01</pdfrwt>
<pdfrwt beam="2">  1       21 0.13331915E-02 0.61929142E+01</pdfrwt>
<totfact> 0.14831002E+09</totfact>
</mgrwt>
</event>
<event>
 4    1  0.3906087E+006  0.4959237E+01  0.7546771E-02  0.2574436E+00
         21   -1    0    0  501  502  0.00000000000E+00  0.00000000000E+00  0.95355180339E+02  0.95355180339E+02  0.00000000000E+00 0.  1.
         21   -1    0    0  502  503 -0.00000000000E+00 -0.00000000000E+00 -0.24127687196E+01  0.24127687196E+01  0.00000000000E+00 0.  1.
          5    1    1    2  501    0  0.15740203163E+01 -0.16276146481E+00  0.92668552280E+02  0.92801156312E+02  0.47000000000E+01 0.  1.
         -5    1    1    2    0  503 -0.15740203163E+01  0.16276146481E+00  0.27385933983E+00  0.49667927467E+01  0.47000000000E+01 0.  1.
<mgrwt>
<rscale>  2 0.49592370E+01</rscale>
<asrwt>0</asrwt>
<pdfrwt beam="1">  1       21 0.14670025E-01 0.49592370E+01</pdfrwt>
<pdfrwt beam="2">  1       21 0.37119526E-03 0.49592370E+01</pdfrwt>
<totfact> 0.20738452E+08</totfact>
</mgrwt>
</event>
<event>
 4    1  0.3906087E+006  0.6030867E+01  0.7546771E-02  0.2411423E+00
         21   -1    0    0  503  502  0.00000000000E+00  0.00000000000E+00  0.17403269440E+01  0.17403269440E+01  0.00000000000E+00 0. -1.
         21   -1    0    0  501  503 -0.00000000000E+00 -0.00000000000E+00 -0.25863761348E+02  0.25863761348E+02  0.00000000000E+00 0. -1.
          5    1    1    2  501    0 -0.12584100678E+01  0.35633911467E+01 -0.18108720915E+02  0.19086569245E+02  0.47000000000E+01 0. -1.
         -5    1    1    2    0  502  0.12584100678E+01 -0.35633911467E+01 -0.60147134890E+01  0.85175190471E+01  0.47000000000E+01 0. -1.
<mgrwt>
<rscale>  2 0.60308666E+01</rscale>
<asrwt>0</asrwt>
<pdfrwt beam="1">  1       21 0.26774263E-03 0.60308666E+01</pdfrwt>
<pdfrwt beam="2">  1       21 0.39790399E-02 0.60308666E+01</pdfrwt>
<totfact> 0.27204815E+09</totfact>
</mgrwt>
</event>
<event>
 4    1  0.3906087E+006  0.1299022E+02  0.7546771E-02  0.1936409E+00
         21   -1    0    0  501  502  0.00000000000E+00  0.00000000000E+00  0.60146583434E+01  0.60146583434E+01  0.00000000000E+00 0.  1.
         21   -1    0    0  502  503 -0.00000000000E+00 -0.00000000000E+00 -0.35504852944E+02  0.35504852944E+02  0.00000000000E+00 0. -1.
          5    1    1    2  501    0  0.65842144530E+01 -0.10163858954E+02 -0.52362121808E+01  0.14005849735E+02  0.47000000000E+01 0.  1.
         -5    1    1    2    0  503 -0.65842144530E+01  0.10163858954E+02 -0.24253982420E+02  0.27513661553E+02  0.47000000000E+01 0. -1.
<mgrwt>
<rscale>  2 0.12990224E+02</rscale>
<asrwt>0</asrwt>
<pdfrwt beam="1">  1       21 0.92533204E-03 0.12990224E+02</pdfrwt>
<pdfrwt beam="2">  1       21 0.54622852E-02 0.12990224E+02</pdfrwt>
<totfact> 0.47558235E+08</totfact>
</mgrwt>
</event>
<event>
 4    1  0.3906087E+006  0.5196405E+01  0.7546771E-02  0.2533448E+00
         21   -1    0    0  501  502  0.00000000000E+00  0.00000000000E+00  0.32639116685E+00  0.32639116685E+00  0.00000000000E+00 0. -1.
         21   -1    0    0  502  503 -0.00000000000E+00 -0.00000000000E+00 -0.86673160989E+02  0.86673160989E+02  0.00000000000E+00 0. -1.
          5    1    1    2  501    0  0.19763004251E+01  0.10034248948E+01 -0.33896138468E+02  0.34292139448E+02  0.47000000000E+01 0. -1.
         -5    1    1    2    0  503 -0.19763004251E+01 -0.10034248948E+01 -0.52450631354E+02  0.52707412708E+02  0.47000000000E+01 0. -1.
<mgrwt>
<rscale>  2 0.51964050E+01</rscale>
<asrwt>0</asrwt>
<pdfrwt beam="1">  1       21 0.50214026E-04 0.51964050E+01</pdfrwt>
<pdfrwt beam="2">  1       21 0.13334332E-01 0.51964050E+01</pdfrwt>
<totfact> 0.36562481E+09</totfact>
</mgrwt>
</event>
<event>
 4    1  0.3906087E+006  0.6155098E+01  0.7546771E-02  0.2395664E+00
         21   -1    0    0  501  502  0.00000000000E+00  0.00000000000E+00  0.13156340088E+00  0.13156340088E+00  0.00000000000E+00 0. -1.
         21   -1    0    0  502  503 -0.00000000000E+00 -0.00000000000E+00 -0.81665043108E+03  0.81665043108E+03  0.00000000000E+00 0. -1.
          5    1    1    2  501    0  0.39736707026E+01  0.71947922188E-01 -0.79666634260E+02  0.79904054025E+02  0.47000000000E+01 0. -1.
         -5    1    1    2    0  503 -0.39736707026E+01 -0.71947922188E-01 -0.73685223342E+03  0.73687794046E+03  0.47000000000E+01 0. -1.
<mgrwt>
<rscale>  2 0.61550983E+01</rscale>
<asrwt>0</asrwt>
<pdfrwt beam="1">  1       21 0.20240437E-04 0.61550983E+01</pdfrwt>
<pdfrwt beam="2">  1       21 0.12563906E+00 0.61550983E+01</pdfrwt>
<totfact> 0.26273308E+08</totfact>
</mgrwt>
</event>
<event>
 4    1  0.3906087E+006  0.4956053E+01  0.7546771E-02  0.2575009E+00
         21   -1    0    0  503  502  0.00000000000E+00  0.00000000000E+00  0.60910967018E+00  0.60910967018E+00  0.00000000000E+00 0.  1.
         21   -1    0    0  501  503 -0.00000000000E+00 -0.00000000000E+00 -0.41144847848E+02  0.41144847848E+02  0.00000000000E+00 0.  1.
          5    1    1    2  501    0  0.28614315523E+00  0.15461527197E+01 -0.17321243653E+02  0.18016324482E+02  0.47000000000E+01 0. -1.
         -5    1    1    2    0  502 -0.28614315523E+00 -0.15461527197E+01 -0.23214494524E+02  0.23737633036E+02  0.47000000000E+01 0. -1.
<mgrwt>
<rscale>  2 0.49560535E+01</rscale>
<asrwt>0</asrwt>
<pdfrwt beam="1">  1       21 0.93709196E-04 0.49560535E+01</pdfrwt>
<pdfrwt beam="2">  1       21 0.63299755E-02 0.49560535E+01</pdfrwt>
<totfact> 0.46877170E+09</totfact>
</mgrwt>
</event>
<event>
 4    1  0.3906087E+006  0.4918504E+01  0.7546771E-02  0.2581817E+00
         21   -1    0    0  501  502  0.00000000000E+00  0.00000000000E+00  0.29775719283E+01  0.29775719283E+01  0.00000000000E+00 0.  1.
         21   -1    0    0  502  503 -0.00000000000E+00 -0.00000000000E+00 -0.87180349008E+01  0.87180349008E+01  0.00000000000E+00 0.  1.
          5    1    1    2  501    0  0.92790502751E+00  0.11138563051E+01 -0.13445728166E+01  0.50989763353E+01  0.47000000000E+01 0.  1.
         -5    1    1    2    0  503 -0.92790502751E+00 -0.11138563051E+01 -0.43958901559E+01  0.65966304938E+01  0.47000000000E+01 0.  1.
<mgrwt>
<rscale>  2 0.49185042E+01</rscale>
<asrwt>0</asrwt>
<pdfrwt beam="1">  1       21 0.45808799E-03 0.49185042E+01</pdfrwt>
<pdfrwt beam="2">  1       21 0.13412361E-02 0.49185042E+01</pdfrwt>
<totfact> 0.50857898E+09</totfact>
</mgrwt>
</event>
<event>
 4    1  0.3906087E+006  0.5924554E+01  0.7546771E-02  0.2425348E+00
         21   -1    0    0  501  502  0.00000000000E+00  0.00000000000E+00  0.12525162831E+01  0.12525162831E+01  0.00000000000E+00 0.  1.
         21   -1    0    0  502  503 -0.00000000000E+00 -0.00000000000E+00 -0.29837430397E+02  0.29837430397E+02  0.00000000000E+00 0.  1.
          5    1    1    2  501    0 -0.19700634096E+01 -0.30214552051E+01 -0.10460007563E+02  0.12021318547E+02  0.47000000000E+01 0.  1.
         -5    1    1    2    0  503  0.19700634096E+01  0.30214552051E+01 -0.18124906551E+02  0.19068628133E+02  0.47000000000E+01 0.  1.
<mgrwt>
<rscale>  2 0.59245541E+01</rscale>
<asrwt>0</asrwt>
<pdfrwt beam="1">  1       21 0.19269484E-03 0.59245541E+01</pdfrwt>
<pdfrwt beam="2">  1       21 0.45903733E-02 0.59245541E+01</pdfrwt>
<totfact> 0.33992855E+09</totfact>
</mgrwt>
</event>
<event>
 4    1  0.3906087E+006  0.5256946E+01  0.7546771E-02  0.2523495E+00
         21   -1    0    0  501  502  0.00000000000E+00  0.00000000000E+00  0.10832144090E+02  0.10832144090E+02  0.00000000000E+00 0. -1.
         21   -1    0    0  502  503 -0.00000000000E+00 -0.00000000000E+00 -0.25814238554E+01  0.25814238554E+01  0.00000000000E+00 0. -1.
          5    1    1    2  501    0 -0.23185339588E+00 -0.23434438669E+01  0.34002316115E+01  0.62607555588E+01  0.47000000000E+01 0. -1.
         -5    1    1    2    0  503  0.23185339588E+00  0.23434438669E+01  0.48504886226E+01  0.71528123862E+01  0.47000000000E+01 0. -1.
<mgrwt>
<rscale>  2 0.52569464E+01</rscale>
<asrwt>0</asrwt>
<pdfrwt beam="1">  1       21 0.16664837E-02 0.52569464E+01</pdfrwt>
<pdfrwt beam="2">  1       21 0.39714214E-03 0.52569464E+01</pdfrwt>
<totfact> 0.48847482E+09</totfact>
</mgrwt>
</event>
<event>
 4    1  0.3906087E+006  0.4970079E+01  0.7546771E-02  0.2572489E+00
         21   -1    0    0  503  502  0.00000000000E+00  0.00000000000E+00  0.18053824747E+01  0.18053824747E+01  0.00000000000E+00 0. -1.
         21   -1    0    0  501  503 -0.00000000000E+00 -0.00000000000E+00 -0.68394987961E+02  0.68394987961E+02  0.00000000000E+00 0. -1.
          5    1    1    2  501    0 -0.15597433245E+01  0.42295272105E+00 -0.64688430698E+02  0.64879077940E+02  0.47000000000E+01 0. -1.
         -5    1    1    2    0  502  0.15597433245E+01 -0.42295272105E+00 -0.19011747882E+01  0.53212924950E+01  0.47000000000E+01 0. -1.
<mgrwt>
<rscale>  2 0.49700793E+01</rscale>
<asrwt>0</asrwt>
<pdfrwt beam="1">  1       21 0.27775113E-03 0.49700793E+01</pdfrwt>
<pdfrwt beam="2">  1       21 0.10522307E-01 0.49700793E+01</pdfrwt>
<totfact> 0.51288622E+08</totfact>
</mgrwt>
</event>
<event>
 4    1  0.3906087E+006  0.6807380E+01  0.7546771E-02  0.2320862E+00
         21   -1    0    0  501  502  0.00000000000E+00  0.00000000000E+00  0.92586848144E+03  0.92586848144E+03  0.00000000000E+00 0. -1.
         21   -1    0    0  502  503 -0.00000000000E+00 -0.00000000000E+00 -0.24636857166E+00  0.24636857166E+00  0.00000000000E+00 0.  1.
          5    1    1    2  501    0 -0.44053057353E+01  0.22008403234E+01  0.87616497304E+03  0.87619141767E+03  0.47000000000E+01 0. -1.
         -5    1    1    2    0  503  0.44053057353E+01 -0.22008403234E+01  0.49457139827E+02  0.49923432340E+02  0.47000000000E+01 0.  1.
<mgrwt>
<rscale>  2 0.68073796E+01</rscale>
<asrwt>0</asrwt>
<pdfrwt beam="1">  1       21 0.14243852E+00 0.68073796E+01</pdfrwt>
<pdfrwt beam="2">  1       21 0.37903599E-04 0.68073796E+01</pdfrwt>
<totfact> 0.91821726E+07</totfact>
</mgrwt>
</event>
<event>
 4    1  0.3906087E+006  0.1050790E+02  0.7546771E-02  0.2047185E+00
         21   -1    0    0  501  502  0.00000000000E+00  0.00000000000E+00  0.10825414157E+01  0.10825414157E+01  0.00000000000E+00 0. -1.
         21   -1    0    0  502  503 -0.00000000000E+00 -0.00000000000E+00 -0.25259776474E+03  0.25259776474E+03  0.00000000000E+00 0.  1.
          5    1    1    2  501    0 -0.88809030240E+01 -0.30749964803E+01 -0.27818647193E+02  0.29737067332E+02  0.47000000000E+01 0. -1.
         -5    1    1    2    0  503  0.88809030240E+01  0.30749964803E+01 -0.22369657613E+03  0.22394323883E+03  0.47000000000E+01 0.  1.
<mgrwt>
<rscale>  2 0.10507904E+02</rscale>
<asrwt>0</asrwt>
<pdfrwt beam="1">  1       21 0.16654465E-03 0.10507904E+02</pdfrwt>
<pdfrwt beam="2">  1       21 0.38861237E-01 0.10507904E+02</pdfrwt>
<totfact> 0.19413549E+08</totfact>
</mgrwt>
</event>
<event>
 4    1  0.3906087E+006  0.6300891E+01  0.7546771E-02  0.2377833E+00
         21   -1    0    0  503  502  0.00000000000E+00  0.00000000000E+00  0.16158326242E+01  0.16158326242E+01  0.00000000000E+00 0. -1.
         21   -1    0    0  501  503 -0.00000000000E+00 -0.00000000000E+00 -0.40160828003E+02  0.40160828003E+02  0.00000000000E+00 0.  1.
          5    1    1    2  501    0  0.35455645625E+01 -0.22450387419E+01 -0.32287225692E+02  0.32896294166E+02  0.47000000000E+01 0.  1.
         -5    1    1    2    0  502 -0.35455645625E+01  0.22450387419E+01 -0.62577696866E+01  0.88803664603E+01  0.47000000000E+01 0.  1.
<mgrwt>
<rscale>  2 0.63008910E+01</rscale>
<asrwt>0</asrwt>
<pdfrwt beam="1">  1       21 0.24858964E-03 0.63008910E+01</pdfrwt>
<pdfrwt beam="2">  1       21 0.61785887E-02 0.63008910E+01</pdfrwt>
<totfact> 0.16257261E+09</totfact>
</mgrwt>
</event>
<event>
 4    1  0.3906087E+006  0.1233515E+02  0.7546771E-02  0.1962277E+00
         21   -1    0    0  503  502  0.00000000000E+00  0.00000000000E+00  0.83258286316E+03  0.83258286316E+03  0.00000000000E+00 0.  1.
         21   -1    0    0  501  503 -0.00000000000E+00 -0.00000000000E+00 -0.64034525803E+00  0.64034525803E+00  0.00000000000E+00 0. -1.
          5    1    1    2  501    0  0.11335934894E+02 -0.12500331159E+01  0.63791675708E+02  0.64973332163E+02  0.47000000000E+01 0. -1.
         -5    1    1    2    0  502 -0.11335934894E+02  0.12500331159E+01  0.76815084219E+03  0.76824987625E+03  0.47000000000E+01 0.  1.
<mgrwt>
<rscale>  2 0.12335153E+02</rscale>
<asrwt>0</asrwt>
<pdfrwt beam="1">  1       21 0.12808881E+00 0.12335153E+02</pdfrwt>
<pdfrwt beam="2">  1       21 0.98515321E-04 0.12335153E+02</pdfrwt>
<totfact> 0.39860112E+07</totfact>
</mgrwt>
</event>
<event>
 4    1  0.3906087E+006  0.6215582E+01  0.7546771E-02  0.2388182E+00
         21   -1    0    0  501  502  0.00000000000E+00  0.00000000000E+00  0.38017720326E+03  0.38017720326E+03  0.00000000000E+00 0.  1.
         21   -1    0    0  502  503 -0.00000000000E+00 -0.00000000000E+00 -0.16216139076E+00  0.16216139076E+00  0.00000000000E+00 0. -1.
          5    1    1    2  501    0  0.40177209758E+01  0.63354515238E+00  0.30620457721E+03  0.30626765511E+03  0.47000000000E+01 0. -1.
         -5    1    1    2    0  503 -0.40177209758E+01 -0.63354515238E+00  0.73810464654E+02  0.74071709537E+02  0.47000000000E+01 0. -1.
<mgrwt>
<rscale>  2 0.62155821E+01</rscale>
<asrwt>0</asrwt>
<pdfrwt beam="1">  1       21 0.58488087E-01 0.62155821E+01</pdfrwt>
<pdfrwt beam="2">  1       21 0.24948211E-04 0.62155821E+01</pdfrwt>
<totfact> 0.90517623E+08</totfact>
</mgrwt>
</event>
<event>
 4    1  0.3906087E+006  0.4819268E+01  0.7546771E-02  0.2600250E+00
         21   -1    0    0  503  502  0.00000000000E+00  0.00000000000E+00  0.34963795628E-01  0.34963795628E-01  0.00000000000E+00 0. -1.
         21   -1    0    0  501  503 -0.00000000000E+00 -0.00000000000E+00 -0.82107742886E+03  0.82107742886E+03  0.00000000000E+00 0. -1.
          5    1    1    2  501    0 -0.82529531087E+00  0.67396801778E+00 -0.58993925299E+03  0.58995893719E+03  0.47000000000E+01 0. -1.
         -5    1    1    2    0  502  0.82529531087E+00 -0.67396801778E+00 -0.23110321207E+03  0.23115345547E+03  0.47000000000E+01 0. -1.
<mgrwt>
<rscale>  2 0.48192681E+01</rscale>
<asrwt>0</asrwt>
<pdfrwt beam="1">  1       21 0.53793716E-05 0.48192681E+01</pdfrwt>
<pdfrwt beam="2">  1       21 0.12631195E+00 0.48192681E+01</pdfrwt>
<totfact> 0.12811077E+09</totfact>
</mgrwt>
</event>
<event>
 4    1  0.3906087E+006  0.5666188E+01  0.7546771E-02  0.2461006E+00
         21   -1    0    0  503  502  0.00000000000E+00  0.00000000000E+00  0.23595315218E+02  0.23595315218E+02  0.00000000000E+00 0.  1.
         21   -1    0    0  501  503 -0.00000000000E+00 -0.00000000000E+00 -0.15830635048E+01  0.15830635048E+01  0.00000000000E+00 0.  1.
          5    1    1    2  501    0 -0.31629145277E+01  0.10798863095E+00  0.62876774949E+01  0.84640757401E+01  0.47000000000E+01 0.  1.
         -5    1    1    2    0  502  0.31629145277E+01 -0.10798863095E+00  0.15724574218E+02  0.16714302983E+02  0.47000000000E+01 0.  1.
<mgrwt>
<rscale>  2 0.56661883E+01</rscale>
<asrwt>0</asrwt>
<pdfrwt beam="1">  1       21 0.36300482E-02 0.56661883E+01</pdfrwt>
<pdfrwt beam="2">  1       21 0.24354825E-03 0.56661883E+01</pdfrwt>
<totfact> 0.33500790E+09</totfact>
</mgrwt>
</event>
<event>
 4    1  0.3906087E+006  0.5977476E+01  0.7546771E-02  0.2418364E+00
         21   -1    0    0  503  502  0.00000000000E+00  0.00000000000E+00  0.96447844672E+02  0.96447844672E+02  0.00000000000E+00 0.  1.
         21   -1    0    0  501  503 -0.00000000000E+00 -0.00000000000E+00 -0.67790760549E+00  0.67790760549E+00  0.00000000000E+00 0. -1.
          5    1    1    2  501    0  0.24798109712E+01 -0.27369241619E+01  0.15180761604E+02  0.16315199637E+02  0.47000000000E+01 0. -1.
         -5    1    1    2    0  502 -0.24798109712E+01  0.27369241619E+01  0.80589175462E+02  0.80810552640E+02  0.47000000000E+01 0.  1.
<mgrwt>
<rscale>  2 0.59774757E+01</rscale>
<asrwt>0</asrwt>
<pdfrwt beam="1">  1       21 0.14838119E-01 0.59774757E+01</pdfrwt>
<pdfrwt beam="2">  1       21 0.10429355E-03 0.59774757E+01</pdfrwt>
<totfact> 0.13193224E+09</totfact>
</mgrwt>
</event>
<event>
 4    1  0.3906087E+006  0.6071233E+01  0.7546771E-02  0.2406244E+00
         21   -1    0    0  503  502  0.00000000000E+00  0.00000000000E+00  0.23489584244E+01  0.23489584244E+01  0.00000000000E+00 0.  1.
         21   -1    0    0  501  503 -0.00000000000E+00 -0.00000000000E+00 -0.33115827927E+02  0.33115827927E+02  0.00000000000E+00 0.  1.
          5    1    1    2  501    0  0.23132623722E+01  0.30689878557E+01 -0.28245812435E+02  0.28890929188E+02  0.47000000000E+01 0.  1.
         -5    1    1    2    0  502 -0.23132623722E+01 -0.30689878557E+01 -0.25210570676E+01  0.65738571630E+01  0.47000000000E+01 0.  1.
<mgrwt>
<rscale>  2 0.60712329E+01</rscale>
<asrwt>0</asrwt>
<pdfrwt beam="1">  1       21 0.36137824E-03 0.60712329E+01</pdfrwt>
<pdfrwt beam="2">  1       21 0.50947425E-02 0.60712329E+01</pdfrwt>
<totfact> 0.12572703E+09</totfact>
</mgrwt>
</event>
<event>
 4    1  0.3906087E+006  0.5202422E+01  0.7546771E-02  0.2532450E+00
         21   -1    0    0  501  502  0.00000000000E+00  0.00000000000E+00  0.21126184506E+01  0.21126184506E+01  0.00000000000E+00 0. -1.
         21   -1    0    0  502  503 -0.00000000000E+00 -0.00000000000E+00 -0.12832296058E+02  0.12832296058E+02  0.00000000000E+00 0. -1.
          5    1    1    2  501    0  0.20819149181E+01 -0.80051311512E+00 -0.50569060537E+01  0.72551698677E+01  0.47000000000E+01 0. -1.
         -5    1    1    2    0  503 -0.20819149181E+01  0.80051311512E+00 -0.56627715538E+01  0.76897446410E+01  0.47000000000E+01 0. -1.
<mgrwt>
<rscale>  2 0.52024216E+01</rscale>
<asrwt>0</asrwt>
<pdfrwt beam="1">  1       21 0.32501822E-03 0.52024216E+01</pdfrwt>
<pdfrwt beam="2">  1       21 0.19741994E-02 0.52024216E+01</pdfrwt>
<totfact> 0.49974668E+09</totfact>
</mgrwt>
</event>
<event>
 4    1  0.3906087E+006  0.4812869E+01  0.7546771E-02  0.2601461E+00
         21   -1    0    0  501  502  0.00000000000E+00  0.00000000000E+00  0.11558328617E+02  0.11558328617E+02  0.00000000000E+00 0. -1.
         21   -1    0    0  502  503 -0.00000000000E+00 -0.00000000000E+00 -0.22101292399E+01  0.22101292399E+01  0.00000000000E+00 0. -1.
          5    1    1    2  501    0  0.57029792088E+00  0.86514086825E+00  0.67761432526E+01  0.83114274238E+01  0.47000000000E+01 0.  1.
         -5    1    1    2    0  503 -0.57029792088E+00 -0.86514086825E+00  0.25720561243E+01  0.54570304330E+01  0.47000000000E+01 0.  1.
<mgrwt>
<rscale>  2 0.48128690E+01</rscale>
<asrwt>0</asrwt>
<pdfrwt beam="1">  1       21 0.17782044E-02 0.48128690E+01</pdfrwt>
<pdfrwt beam="2">  1       21 0.34001989E-03 0.48128690E+01</pdfrwt>
<totfact> 0.50175378E+09</totfact>
</mgrwt>
</event>
<event>
 4    1  0.3906087E+006  0.7156139E+01  0.7546771E-02  0.2285535E+00
         21   -1    0    0  501  502  0.00000000000E+00  0.00000000000E+00  0.29192916232E+02  0.29192916232E+02  0.00000000000E+00 0.  1.
         21   -1    0    0  502  503 -0.00000000000E+00 -0.00000000000E+00 -0.34804343600E+01  0.34804343600E+01  0.00000000000E+00 0.  1.
          5    1    1    2  501    0  0.30861870114E+01 -0.44267121952E+01  0.24361497974E+02  0.25390803742E+02  0.47000000000E+01 0.  1.
         -5    1    1    2    0  503 -0.30861870114E+01  0.44267121952E+01  0.13509838980E+01  0.72825468499E+01  0.47000000000E+01 0.  1.
<mgrwt>
<rscale>  2 0.71561394E+01</rscale>
<asrwt>0</asrwt>
<pdfrwt beam="1">  1       21 0.44912177E-02 0.71561394E+01</pdfrwt>
<pdfrwt beam="2">  1       21 0.53545146E-03 0.71561394E+01</pdfrwt>
<totfact> 0.99475329E+08</totfact>
</mgrwt>
</event>
<event>
 4    1  0.3906087E+006  0.7114879E+01  0.7546771E-02  0.2289566E+00
         21   -1    0    0  501  502  0.00000000000E+00  0.00000000000E+00  0.49506378520E+01  0.49506378520E+01  0.00000000000E+00 0.  1.
         21   -1    0    0  502  503 -0.00000000000E+00 -0.00000000000E+00 -0.15974806986E+02  0.15974806986E+02  0.00000000000E+00 0.  1.
          5    1    1    2  501    0  0.51405581350E+01 -0.14512613512E+01  0.76480052771E+00  0.71558659361E+01  0.47000000000E+01 0.  1.
         -5    1    1    2    0  503 -0.51405581350E+01  0.14512613512E+01 -0.11788969662E+02  0.13769578902E+02  0.47000000000E+01 0.  1.
<mgrwt>
<rscale>  2 0.71148786E+01</rscale>
<asrwt>0</asrwt>
<pdfrwt beam="1">  1       21 0.76163658E-03 0.71148786E+01</pdfrwt>
<pdfrwt beam="2">  1       21 0.24576626E-02 0.71148786E+01</pdfrwt>
<totfact> 0.14675509E+09</totfact>
</mgrwt>
</event>
<event>
 4    1  0.3906087E+006  0.1173023E+02  0.7546771E-02  0.1988111E+00
         21   -1    0    0  501  502  0.00000000000E+00  0.00000000000E+00  0.30496468821E+00  0.30496468821E+00  0.00000000000E+00 0.  1.
         21   -1    0    0  502  503 -0.00000000000E+00 -0.00000000000E+00 -0.68075657801E+03  0.68075657801E+03  0.00000000000E+00 0. -1.
          5    1    1    2  501    0 -0.63884799057E+00  0.10728476796E+02 -0.14247846032E+03  0.14296051901E+03  0.47000000000E+01 0.  1.
         -5    1    1    2    0  503  0.63884799057E+00 -0.10728476796E+02 -0.53797315300E+03  0.53810102369E+03  0.47000000000E+01 0. -1.
<mgrwt>
<rscale>  2 0.11730232E+02</rscale>
<asrwt>0</asrwt>
<pdfrwt beam="1">  1       21 0.46917528E-04 0.11730232E+02</pdfrwt>
<pdfrwt beam="2">  1       21 0.10473204E+00 0.11730232E+02</pdfrwt>
<totfact> 0.16918223E+08</totfact>
</mgrwt>
</event>
<event>
 4    1  0.3906087E+006  0.4808231E+01  0.7546771E-02  0.2602341E+00
         21   -1    0    0  503  502  0.00000000000E+00  0.00000000000E+00  0.39106196299E-01  0.39106196299E-01  0.00000000000E+00 0.  1.
         21   -1    0    0  501  503 -0.00000000000E+00 -0.00000000000E+00 -0.72109074613E+03  0.72109074613E+03  0.00000000000E+00 0.  1.
          5    1    1    2  501    0  0.82515910125E+00  0.59008270044E+00 -0.51356369134E+03  0.51358619934E+03  0.47000000000E+01 0. -1.
         -5    1    1    2    0  502 -0.82515910125E+00 -0.59008270044E+00 -0.20748794859E+03  0.20754365299E+03  0.47000000000E+01 0. -1.
<mgrwt>
<rscale>  2 0.48082310E+01</rscale>
<asrwt>0</asrwt>
<pdfrwt beam="1">  1       21 0.60164470E-05 0.48082310E+01</pdfrwt>
<pdfrwt beam="2">  1       21 0.11093503E+00 0.48082310E+01</pdfrwt>
<totfact> 0.14350189E+09</totfact>
</mgrwt>
</event>
<event>
 4    1  0.3906087E+006  0.6061300E+01  0.7546771E-02  0.2407513E+00
         21   -1    0    0  501  502  0.00000000000E+00  0.00000000000E+00  0.11769069980E+00  0.11769069980E+00  0.00000000000E+00 0. -1.
         21   -1    0    0  502  503 -0.00000000000E+00 -0.00000000000E+00 -0.45169526201E+03  0.45169526201E+03  0.00000000000E+00 0.  1.
          5    1    1    2  501    0 -0.33540187940E+01 -0.18438850201E+01 -0.10023368987E+03  0.10041679112E+03  0.47000000000E+01 0. -1.
         -5    1    1    2    0  503  0.33540187940E+01  0.18438850201E+01 -0.35134388144E+03  0.35139616159E+03  0.47000000000E+01 0.  1.
<mgrwt>
<rscale>  2 0.60612997E+01</rscale>
<asrwt>0</asrwt>
<pdfrwt beam="1">  1       21 0.18106298E-04 0.60612997E+01</pdfrwt>
<pdfrwt beam="2">  1       21 0.69491439E-01 0.60612997E+01</pdfrwt>
<totfact> 0.98751157E+08</totfact>
</mgrwt>
</event>
<event>
 4    1  0.3906087E+006  0.5288361E+01  0.7546771E-02  0.2518408E+00
         21   -1    0    0  501  502  0.00000000000E+00  0.00000000000E+00  0.89409151650E+01  0.89409151650E+01  0.00000000000E+00 0. -1.
         21   -1    0    0  502  503 -0.00000000000E+00 -0.00000000000E+00 -0.31309898013E+01  0.31309898013E+01  0.00000000000E+00 0. -1.
          5    1    1    2  501    0 -0.21507802378E+01 -0.11184389287E+01  0.27169780583E+01  0.59454798829E+01  0.47000000000E+01 0. -1.
         -5    1    1    2    0  503  0.21507802378E+01  0.11184389287E+01  0.30929473054E+01  0.61264250834E+01  0.47000000000E+01 0. -1.
<mgrwt>
<rscale>  2 0.52883609E+01</rscale>
<asrwt>0</asrwt>
<pdfrwt beam="1">  1       21 0.13755254E-02 0.52883609E+01</pdfrwt>
<pdfrwt beam="2">  1       21 0.48169074E-03 0.52883609E+01</pdfrwt>
<totfact> 0.49443158E+09</totfact>
</mgrwt>
</event>
<event>
 4    1  0.3906087E+006  0.6001193E+01  0.7546771E-02  0.2415268E+00
         21   -1    0    0  501  502  0.00000000000E+00  0.00000000000E+00  0.19067412403E+03  0.19067412403E+03  0.00000000000E+00 0.  1.
         21   -1    0    0  502  503 -0.00000000000E+00 -0.00000000000E+00 -0.39744309618E+00  0.39744309618E+00  0.00000000000E+00 0.  1.
          5    1    1    2  501    0 -0.33884356912E+01  0.15629516151E+01  0.16434509676E+03  0.16445462944E+03  0.47000000000E+01 0.  1.
         -5    1    1    2    0  503  0.33884356912E+01 -0.15629516151E+01  0.25931584170E+02  0.26616937686E+02  0.47000000000E+01 0.  1.
<mgrwt>
<rscale>  2 0.60011927E+01</rscale>
<asrwt>0</asrwt>
<pdfrwt beam="1">  1       21 0.29334408E-01 0.60011927E+01</pdfrwt>
<pdfrwt beam="2">  1       21 0.61145244E-04 0.60011927E+01</pdfrwt>
<totfact> 0.89558307E+08</totfact>
</mgrwt>
</event>
<event>
 4    1  0.3906087E+006  0.5977644E+01  0.7546771E-02  0.2418342E+00
         21   -1    0    0  501  502  0.00000000000E+00  0.00000000000E+00  0.19094984352E+03  0.19094984352E+03  0.00000000000E+00 0. -1.
         21   -1    0    0  502  503 -0.00000000000E+00 -0.00000000000E+00 -0.12081305239E+01  0.12081305239E+01  0.00000000000E+00 0. -1.
          5    1    1    2  501    0 -0.23531664461E+01  0.28468994424E+01  0.18319607276E+03  0.18329357137E+03  0.47000000000E+01 0. -1.
         -5    1    1    2    0  503  0.23531664461E+01 -0.28468994424E+01  0.65456402341E+01  0.88644026777E+01  0.47000000000E+01 0. -1.
<mgrwt>
<rscale>  2 0.59776441E+01</rscale>
<asrwt>0</asrwt>
<pdfrwt beam="1">  1       21 0.29376875E-01 0.59776441E+01</pdfrwt>
<pdfrwt beam="2">  1       21 0.18586639E-03 0.59776441E+01</pdfrwt>
<totfact> 0.19945525E+08</totfact>
</mgrwt>
</event>
<event>
 4    1  0.3906087E+006  0.4777031E+01  0.7546771E-02  0.2608296E+00
         21   -1    0    0  503  502  0.00000000000E+00  0.00000000000E+00  0.14353756113E+01  0.14353756113E+01  0.00000000000E+00 0. -1.
         21   -1    0    0  501  503 -0.00000000000E+00 -0.00000000000E+00 -0.25551820507E+02  0.25551820507E+02  0.00000000000E+00 0. -1.
          5    1    1    2  501    0  0.12028142233E+00  0.84590698759E+00 -0.20352141618E+02  0.20905255193E+02  0.47000000000E+01 0. -1.
         -5    1    1    2    0  502 -0.12028142233E+00 -0.84590698759E+00 -0.37643032783E+01  0.60819409257E+01  0.47000000000E+01 0. -1.
<mgrwt>
<rscale>  2 0.47770311E+01</rscale>
<asrwt>0</asrwt>
<pdfrwt beam="1">  1       21 0.22082704E-03 0.47770311E+01</pdfrwt>
<pdfrwt beam="2">  1       21 0.39310490E-02 0.47770311E+01</pdfrwt>
<totfact> 0.28792535E+09</totfact>
</mgrwt>
</event>
<event>
 4    1  0.3906087E+006  0.5587029E+01  0.7546771E-02  0.2472486E+00
         21   -1    0    0  501  502  0.00000000000E+00  0.00000000000E+00  0.30546316924E+00  0.30546316924E+00  0.00000000000E+00 0. -1.
         21   -1    0    0  502  503 -0.00000000000E+00 -0.00000000000E+00 -0.10264697771E+03  0.10264697771E+03  0.00000000000E+00 0. -1.
          5    1    1    2  501    0  0.30199831907E+01 -0.67823170272E-01 -0.54610102444E+02  0.54895156320E+02  0.47000000000E+01 0. -1.
         -5    1    1    2    0  503 -0.30199831907E+01  0.67823170272E-01 -0.47731412096E+02  0.48057284558E+02  0.47000000000E+01 0. -1.
<mgrwt>
<rscale>  2 0.55870295E+01</rscale>
<asrwt>0</asrwt>
<pdfrwt beam="1">  1       21 0.46994345E-04 0.55870295E+01</pdfrwt>
<pdfrwt beam="2">  1       21 0.15791839E-01 0.55870295E+01</pdfrwt>
<totfact> 0.32801387E+09</totfact>
</mgrwt>
</event>
<event>
 4    1  0.3906087E+006  0.6391169E+01  0.7546771E-02  0.2367133E+00
         21   -1    0    0  501  502  0.00000000000E+00  0.00000000000E+00  0.12673056755E+02  0.12673056755E+02  0.00000000000E+00 0. -1.
         21   -1    0    0  502  503 -0.00000000000E+00 -0.00000000000E+00 -0.37734816397E+01  0.37734816397E+01  0.00000000000E+00 0. -1.
          5    1    1    2  501    0 -0.25617384701E+01 -0.34920684963E+01  0.75902185558E+01  0.99226238514E+01  0.47000000000E+01 0. -1.
         -5    1    1    2    0  503  0.25617384701E+01  0.34920684963E+01  0.13093565599E+01  0.65239145436E+01  0.47000000000E+01 0. -1.
<mgrwt>
<rscale>  2 0.63911694E+01</rscale>
<asrwt>0</asrwt>
<pdfrwt beam="1">  1       21 0.19497010E-02 0.63911694E+01</pdfrwt>
<pdfrwt beam="2">  1       21 0.58053564E-03 0.63911694E+01</pdfrwt>
<totfact> 0.27642609E+09</totfact>
</mgrwt>
</event>
<event>
 4    1  0.3906087E+006  0.7769364E+01  0.7546771E-02  0.2229777E+00
         21   -1    0    0  501  502  0.00000000000E+00  0.00000000000E+00  0.32081992263E+02  0.32081992263E+02  0.00000000000E+00 0.  1.
         21   -1    0    0  502  503 -0.00000000000E+00 -0.00000000000E+00 -0.26893928925E+01  0.26893928925E+01  0.00000000000E+00 0. -1.
          5    1    1    2  501    0 -0.23463188708E+01  0.57243165295E+01  0.24225040934E+02  0.25440432783E+02  0.47000000000E+01 0.  1.
         -5    1    1    2    0  503  0.23463188708E+01 -0.57243165295E+01  0.51675584370E+01  0.93309523722E+01  0.47000000000E+01 0. -1.
<mgrwt>
<rscale>  2 0.77693637E+01</rscale>
<asrwt>0</asrwt>
<pdfrwt beam="1">  1       21 0.49356909E-02 0.77693637E+01</pdfrwt>
<pdfrwt beam="2">  1       21 0.41375278E-03 0.77693637E+01</pdfrwt>
<totfact> 0.13146761E+09</totfact>
</mgrwt>
</event>
<event>
 4    1  0.3906087E+006  0.7008660E+01  0.7546771E-02  0.2300122E+00
         21   -1    0    0  501  502  0.00000000000E+00  0.00000000000E+00  0.24721381676E+00  0.24721381676E+00  0.00000000000E+00 0.  1.
         21   -1    0    0  502  503 -0.00000000000E+00 -0.00000000000E+00 -0.72572496744E+03  0.72572496744E+03  0.00000000000E+00 0. -1.
          5    1    1    2  501    0 -0.45770373469E+01 -0.24661802702E+01 -0.53410571743E+02  0.53868455426E+02  0.47000000000E+01 0.  1.
         -5    1    1    2    0  503  0.45770373469E+01  0.24661802702E+01 -0.67206718188E+03  0.67210372583E+03  0.47000000000E+01 0. -1.
<mgrwt>
<rscale>  2 0.70086601E+01</rscale>
<asrwt>0</asrwt>
<pdfrwt beam="1">  1       21 0.38033336E-04 0.70086601E+01</pdfrwt>
<pdfrwt beam="2">  1       21 0.11164870E+00 0.70086601E+01</pdfrwt>
<totfact> 0.15566284E+08</totfact>
</mgrwt>
</event>
<event>
 4    1  0.3906087E+006  0.6157625E+01  0.7546771E-02  0.2395349E+00
         21   -1    0    0  503  502  0.00000000000E+00  0.00000000000E+00  0.15363513948E+03  0.15363513948E+03  0.00000000000E+00 0. -1.
         21   -1    0    0  501  503 -0.00000000000E+00 -0.00000000000E+00 -0.55074329624E+00  0.55074329624E+00  0.00000000000E+00 0.  1.
          5    1    1    2  501    0  0.58854009314E+00 -0.39344587648E+01  0.19270502064E+02  0.20230387910E+02  0.47000000000E+01 0.  1.
         -5    1    1    2    0  502 -0.58854009314E+00  0.39344587648E+01  0.13381389412E+03  0.13395549487E+03  0.47000000000E+01 0. -1.
<mgrwt>
<rscale>  2 0.61576250E+01</rscale>
<asrwt>0</asrwt>
<pdfrwt beam="1">  1       21 0.23636141E-01 0.61576250E+01</pdfrwt>
<pdfrwt beam="2">  1       21 0.84729860E-04 0.61576250E+01</pdfrwt>
<totfact> 0.84407680E+08</totfact>
</mgrwt>
</event>
<event>
 4    1  0.3906087E+006  0.9754872E+01  0.7546771E-02  0.2089213E+00
         21   -1    0    0  503  502  0.00000000000E+00  0.00000000000E+00  0.10718385852E+02  0.10718385852E+02  0.00000000000E+00 0.  1.
         21   -1    0    0  501  503 -0.00000000000E+00 -0.00000000000E+00 -0.21181241998E+02  0.21181241998E+02  0.00000000000E+00 0. -1.
          5    1    1    2  501    0  0.47364021183E+01  0.71157587731E+01 -0.17387414030E+02  0.19936892802E+02  0.47000000000E+01 0. -1.
         -5    1    1    2    0  502 -0.47364021183E+01 -0.71157587731E+01  0.69245578835E+01  0.11962735048E+02  0.47000000000E+01 0.  1.
<mgrwt>
<rscale>  2 0.97548720E+01</rscale>
<asrwt>0</asrwt>
<pdfrwt beam="1">  1       21 0.16489824E-02 0.97548720E+01</pdfrwt>
<pdfrwt beam="2">  1       21 0.32586526E-02 0.97548720E+01</pdfrwt>
<totfact> 0.38867323E+08</totfact>
</mgrwt>
</event>
<event>
 4    1  0.3906087E+006  0.5470637E+01  0.7546771E-02  0.2489875E+00
         21   -1    0    0  501  502  0.00000000000E+00  0.00000000000E+00  0.13982464442E+03  0.13982464442E+03  0.00000000000E+00 0. -1.
         21   -1    0    0  502  503 -0.00000000000E+00 -0.00000000000E+00 -0.45101679015E+00  0.45101679015E+00  0.00000000000E+00 0.  1.
          5    1    1    2  501    0 -0.45565991359E+00  0.27622894735E+01  0.12052735637E+03  0.12065144633E+03  0.47000000000E+01 0. -1.
         -5    1    1    2    0  503  0.45565991359E+00 -0.27622894735E+01  0.18846271267E+02  0.19624214882E+02  0.47000000000E+01 0.  1.
<mgrwt>
<rscale>  2 0.54706370E+01</rscale>
<asrwt>0</asrwt>
<pdfrwt beam="1">  1       21 0.21511449E-01 0.54706370E+01</pdfrwt>
<pdfrwt beam="2">  1       21 0.69387310E-04 0.54706370E+01</pdfrwt>
<totfact> 0.11714242E+09</totfact>
</mgrwt>
</event>
<event>
 4    1  0.3906087E+006  0.9994323E+01  0.7546771E-02  0.2075311E+00
         21   -1    0    0  503  502  0.00000000000E+00  0.00000000000E+00  0.27864622591E+02  0.27864622591E+02  0.00000000000E+00 0.  1.
         21   -1    0    0  501  503 -0.00000000000E+00 -0.00000000000E+00 -0.42873671502E+01  0.42873671502E+01  0.00000000000E+00 0. -1.
          5    1    1    2  501    0 -0.19870881192E+01  0.85934846564E+01  0.52805116022E+01  0.11303552562E+02  0.47000000000E+01 0. -1.
         -5    1    1    2    0  502  0.19870881192E+01 -0.85934846564E+01  0.18296743839E+02  0.20848437180E+02  0.47000000000E+01 0.  1.
<mgrwt>
<rscale>  2 0.99943233E+01</rscale>
<asrwt>0</asrwt>
<pdfrwt beam="1">  1       21 0.42868649E-02 0.99943233E+01</pdfrwt>
<pdfrwt beam="2">  1       21 0.65959496E-03 0.99943233E+01</pdfrwt>
<totfact> 0.98459967E+08</totfact>
</mgrwt>
</event>
<event>
 4    1  0.3906087E+006  0.5033806E+01  0.7546771E-02  0.2561191E+00
         21   -1    0    0  503  502  0.00000000000E+00  0.00000000000E+00  0.32015964222E+02  0.32015964222E+02  0.00000000000E+00 0. -1.
         21   -1    0    0  501  503 -0.00000000000E+00 -0.00000000000E+00 -0.14069430967E+01  0.14069430967E+01  0.00000000000E+00 0. -1.
          5    1    1    2  501    0 -0.14097527845E+01  0.11233005775E+01  0.42513708922E+01  0.65888816626E+01  0.47000000000E+01 0. -1.
         -5    1    1    2    0  502  0.14097527845E+01 -0.11233005775E+01  0.26357650233E+02  0.26834025656E+02  0.47000000000E+01 0. -1.
<mgrwt>
<rscale>  2 0.50338064E+01</rscale>
<asrwt>0</asrwt>
<pdfrwt beam="1">  1       21 0.49255324E-02 0.50338064E+01</pdfrwt>
<pdfrwt beam="2">  1       21 0.21645281E-03 0.50338064E+01</pdfrwt>
<totfact> 0.22482803E+09</totfact>
</mgrwt>
</event>
<event>
 4    1  0.3906087E+006  0.7115570E+01  0.7546771E-02  0.2289498E+00
         21   -1    0    0  503  502  0.00000000000E+00  0.00000000000E+00  0.18564590476E+00  0.18564590476E+00  0.00000000000E+00 0. -1.
         21   -1    0    0  501  503 -0.00000000000E+00 -0.00000000000E+00 -0.89542837722E+03  0.89542837722E+03  0.00000000000E+00 0.  1.
          5    1    1    2  501    0  0.51709565640E+01 -0.13425890206E+01 -0.82105556318E+03  0.82108639568E+03  0.47000000000E+01 0.  1.
         -5    1    1    2    0  502 -0.51709565640E+01  0.13425890206E+01 -0.74187168139E+02  0.74527627451E+02  0.47000000000E+01 0. -1.
<mgrwt>
<rscale>  2 0.71155700E+01</rscale>
<asrwt>0</asrwt>
<pdfrwt beam="1">  1       21 0.28561171E-04 0.71155700E+01</pdfrwt>
<pdfrwt beam="2">  1       21 0.13775695E+00 0.71155700E+01</pdfrwt>
<totfact> 0.14769734E+08</totfact>
</mgrwt>
</event>
<event>
 4    1  0.3906087E+006  0.5114087E+01  0.7546771E-02  0.2547304E+00
         21   -1    0    0  503  502  0.00000000000E+00  0.00000000000E+00  0.55313884269E+00  0.55313884269E+00  0.00000000000E+00 0. -1.
         21   -1    0    0  501  503 -0.00000000000E+00 -0.00000000000E+00 -0.88785272141E+02  0.88785272141E+02  0.00000000000E+00 0. -1.
          5    1    1    2  501    0 -0.20156807430E+01 -0.30328146623E-01 -0.74656511412E+02  0.74831467879E+02  0.47000000000E+01 0. -1.
         -5    1    1    2    0  502  0.20156807430E+01  0.30328146623E-01 -0.13575621886E+02  0.14506943105E+02  0.47000000000E+01 0. -1.
<mgrwt>
<rscale>  2 0.51140873E+01</rscale>
<asrwt>0</asrwt>
<pdfrwt beam="1">  1       21 0.85098292E-04 0.51140873E+01</pdfrwt>
<pdfrwt beam="2">  1       21 0.13659271E-01 0.51140873E+01</pdfrwt>
<totfact> 0.17223701E+09</totfact>
</mgrwt>
</event>
<event>
 4    1  0.3906087E+006  0.6243532E+01  0.7546771E-02  0.2384766E+00
         21   -1    0    0  501  502  0.00000000000E+00  0.00000000000E+00  0.55584356598E+01  0.55584356598E+01  0.00000000000E+00 0. -1.
         21   -1    0    0  502  503 -0.00000000000E+00 -0.00000000000E+00 -0.12272595138E+02  0.12272595138E+02  0.00000000000E+00 0. -1.
          5    1    1    2  501    0  0.40899562150E+01  0.40491421343E+00  0.24794073052E+01  0.67178238996E+01  0.47000000000E+01 0. -1.
         -5    1    1    2    0  503 -0.40899562150E+01 -0.40491421343E+00 -0.91935667832E+01  0.11113206898E+02  0.47000000000E+01 0. -1.
<mgrwt>
<rscale>  2 0.62435324E+01</rscale>
<asrwt>0</asrwt>
<pdfrwt beam="1">  1       21 0.85514396E-03 0.62435324E+01</pdfrwt>
<pdfrwt beam="2">  1       21 0.18880915E-02 0.62435324E+01</pdfrwt>
<totfact> 0.16477224E+09</totfact>
</mgrwt>
</event>
<event>
 4    1  0.3906087E+006  0.5193366E+01  0.7546771E-02  0.2533953E+00
         21   -1    0    0  503  502  0.00000000000E+00  0.00000000000E+00  0.10245734824E+02  0.10245734824E+02  0.00000000000E+00 0. -1.
         21   -1    0    0  501  503 -0.00000000000E+00 -0.00000000000E+00 -0.29919129627E+01  0.29919129627E+01  0.00000000000E+00 0. -1.
          5    1    1    2  501    0 -0.16528627282E+01  0.14659781574E+01  0.13325944756E+01  0.53616093846E+01  0.47000000000E+01 0. -1.
         -5    1    1    2    0  502  0.16528627282E+01 -0.14659781574E+01  0.59212273854E+01  0.78760384017E+01  0.47000000000E+01 0. -1.
<mgrwt>
<rscale>  2 0.51933657E+01</rscale>
<asrwt>0</asrwt>
<pdfrwt beam="1">  1       21 0.15762669E-02 0.51933657E+01</pdfrwt>
<pdfrwt beam="2">  1       21 0.46029431E-03 0.51933657E+01</pdfrwt>
<totfact> 0.42621848E+09</totfact>
</mgrwt>
</event>
<event>
 4    1  0.3906087E+006  0.4714607E+01  0.7546771E-02  0.2620417E+00
         21   -1    0    0  503  502  0.00000000000E+00  0.00000000000E+00  0.74668900900E+03  0.74668900900E+03  0.00000000000E+00 0.  1.
         21   -1    0    0  501  503 -0.00000000000E+00 -0.00000000000E+00 -0.62822675831E-01  0.62822675831E-01  0.00000000000E+00 0.  1.
          5    1    1    2  501    0 -0.25704747078E+00  0.26729447494E+00  0.10247869567E+03  0.10258708781E+03  0.47000000000E+01 0.  1.
         -5    1    1    2    0  502  0.25704747078E+00 -0.26729447494E+00  0.64414749065E+03  0.64416474386E+03  0.47000000000E+01 0.  1.
<mgrwt>
<rscale>  2 0.47146071E+01</rscale>
<asrwt>0</asrwt>
<pdfrwt beam="1">  1       21 0.11486813E+00 0.47146071E+01</pdfrwt>
<pdfrwt beam="2">  1       21 0.96656250E-05 0.47146071E+01</pdfrwt>
<totfact> 0.69978175E+08</totfact>
</mgrwt>
</event>
<event>
 4    1  0.3906087E+006  0.5108683E+01  0.7546771E-02  0.2548227E+00
         21   -1    0    0  501  502  0.00000000000E+00  0.00000000000E+00  0.45904586116E+03  0.45904586116E+03  0.00000000000E+00 0.  1.
         21   -1    0    0  502  503 -0.00000000000E+00 -0.00000000000E+00 -0.62056913250E+00  0.62056913250E+00  0.00000000000E+00 0.  1.
          5    1    1    2  501    0 -0.20010406031E+01 -0.66943343436E-01  0.44826479141E+03  0.44829390121E+03  0.47000000000E+01 0.  1.
         -5    1    1    2    0  503  0.20010406031E+01  0.66943343436E-01  0.10160500613E+02  0.11372529077E+02  0.47000000000E+01 0.  1.
<mgrwt>
<rscale>  2 0.51086833E+01</rscale>
<asrwt>0</asrwt>
<pdfrwt beam="1">  1       21 0.70622169E-01 0.51086833E+01</pdfrwt>
<pdfrwt beam="2">  1       21 0.95472541E-04 0.51086833E+01</pdfrwt>
<totfact> 0.92898985E+07</totfact>
</mgrwt>
</event>
<event>
 4    1  0.3906087E+006  0.6026635E+01  0.7546771E-02  0.2411970E+00
         21   -1    0    0  503  502  0.00000000000E+00  0.00000000000E+00  0.39697229459E+00  0.39697229459E+00  0.00000000000E+00 0. -1.
         21   -1    0    0  501  503 -0.00000000000E+00 -0.00000000000E+00 -0.96533724735E+02  0.96533724735E+02  0.00000000000E+00 0.  1.
          5    1    1    2  501    0 -0.24341900911E+01 -0.28818474709E+01 -0.59142849912E+02  0.59449112877E+02  0.47000000000E+01 0. -1.
         -5    1    1    2    0  502  0.24341900911E+01  0.28818474709E+01 -0.36993902529E+02  0.37481584153E+02  0.47000000000E+01 0.  1.
<mgrwt>
<rscale>  2 0.60266347E+01</rscale>
<asrwt>0</asrwt>
<pdfrwt beam="1">  1       21 0.61072611E-04 0.60266347E+01</pdfrwt>
<pdfrwt beam="2">  1       21 0.14851354E-01 0.60266347E+01</pdfrwt>
<totfact> 0.27182768E+09</totfact>
</mgrwt>
</event>
<event>
 4    1  0.3906087E+006  0.5097667E+01  0.7546771E-02  0.2550114E+00
         21   -1    0    0  503  502  0.00000000000E+00  0.00000000000E+00  0.22414319564E+00  0.22414319564E+00  0.00000000000E+00 0. -1.
         21   -1    0    0  501  503 -0.00000000000E+00 -0.00000000000E+00 -0.36197522476E+03  0.36197522476E+03  0.00000000000E+00 0.  1.
          5    1    1    2  501    0 -0.16423495581E+01 -0.10949407584E+01 -0.33018271405E+03  0.33022206296E+03  0.47000000000E+01 0.  1.
         -5    1    1    2    0  502  0.16423495581E+01  0.10949407584E+01 -0.31568367508E+02  0.31977304991E+02  0.47000000000E+01 0. -1.
<mgrwt>
<rscale>  2 0.50976669E+01</rscale>
<asrwt>0</asrwt>
<pdfrwt beam="1">  1       21 0.34483539E-04 0.50976669E+01</pdfrwt>
<pdfrwt beam="2">  1       21 0.55688544E-01 0.50976669E+01</pdfrwt>
<totfact> 0.55506857E+08</totfact>
</mgrwt>
</event>
<event>
 4    1  0.3906087E+006  0.5446390E+01  0.7546771E-02  0.2493576E+00
         21   -1    0    0  503  502  0.00000000000E+00  0.00000000000E+00  0.38334784579E+01  0.38334784579E+01  0.00000000000E+00 0. -1.
         21   -1    0    0  501  503 -0.00000000000E+00 -0.00000000000E+00 -0.82251173730E+01  0.82251173730E+01  0.00000000000E+00 0. -1.
          5    1    1    2  501    0 -0.19102953212E+01 -0.19808932916E+01 -0.36632116534E+01  0.65637097791E+01  0.47000000000E+01 0. -1.
         -5    1    1    2    0  502  0.19102953212E+01  0.19808932916E+01 -0.72842726167E+00  0.54948860518E+01  0.47000000000E+01 0. -1.
<mgrwt>
<rscale>  2 0.54463902E+01</rscale>
<asrwt>0</asrwt>
<pdfrwt beam="1">  1       21 0.58976593E-03 0.54463902E+01</pdfrwt>
<pdfrwt beam="2">  1       21 0.12654027E-02 0.54463902E+01</pdfrwt>
<totfact> 0.43321100E+09</totfact>
</mgrwt>
</event>
<event>
 4    1  0.3906087E+006  0.5114815E+01  0.7546771E-02  0.2547180E+00
         21   -1    0    0  501  502  0.00000000000E+00  0.00000000000E+00  0.69381050221E-01  0.69381050221E-01  0.00000000000E+00 0. -1.
         21   -1    0    0  502  503 -0.00000000000E+00 -0.00000000000E+00 -0.38135507794E+03  0.38135507794E+03  0.00000000000E+00 0.  1.
          5    1    1    2  501    0  0.82109484453E+00  0.18431331395E+01 -0.17042095964E+03  0.17049769740E+03  0.47000000000E+01 0. -1.
         -5    1    1    2    0  503 -0.82109484453E+00 -0.18431331395E+01 -0.21086473726E+03  0.21092676159E+03  0.47000000000E+01 0.  1.
<mgrwt>
<rscale>  2 0.51148154E+01</rscale>
<asrwt>0</asrwt>
<pdfrwt beam="1">  1       21 0.10674039E-04 0.51148154E+01</pdfrwt>
<pdfrwt beam="2">  1       21 0.58669842E-01 0.51148154E+01</pdfrwt>
<totfact> 0.23940996E+09</totfact>
</mgrwt>
</event>
<event>
 4    1  0.3906087E+006  0.5757159E+01  0.7546771E-02  0.2448143E+00
         21   -1    0    0  501  502  0.00000000000E+00  0.00000000000E+00  0.44903505939E+01  0.44903505939E+01  0.00000000000E+00 0.  1.
         21   -1    0    0  502  503 -0.00000000000E+00 -0.00000000000E+00 -0.12478300857E+02  0.12478300857E+02  0.00000000000E+00 0. -1.
          5    1    1    2  501    0 -0.14769807803E+01 -0.29788273085E+01  0.14284616596E+01  0.59317271576E+01  0.47000000000E+01 0.  1.
         -5    1    1    2    0  503  0.14769807803E+01  0.29788273085E+01 -0.94164119226E+01  0.11036924293E+02  0.47000000000E+01 0. -1.
<mgrwt>
<rscale>  2 0.57571594E+01</rscale>
<asrwt>0</asrwt>
<pdfrwt beam="1">  1       21 0.69082317E-03 0.57571594E+01</pdfrwt>
<pdfrwt beam="2">  1       21 0.19197386E-02 0.57571594E+01</pdfrwt>
<totfact> 0.20243532E+09</totfact>
</mgrwt>
</event>
<event>
 4    1  0.3906087E+006  0.6115492E+01  0.7546771E-02  0.2400630E+00
         21   -1    0    0  503  502  0.00000000000E+00  0.00000000000E+00  0.66132914552E+02  0.66132914552E+02  0.00000000000E+00 0.  1.
         21   -1    0    0  501  503 -0.00000000000E+00 -0.00000000000E+00 -0.75536274496E+00  0.75536274496E+00  0.00000000000E+00 0.  1.
          5    1    1    2  501    0 -0.34717123090E+01  0.18045659363E+01  0.49455314374E+02  0.49831991375E+02  0.47000000000E+01 0.  1.
         -5    1    1    2    0  502  0.34717123090E+01 -0.18045659363E+01  0.15922237433E+02  0.17056285922E+02  0.47000000000E+01 0.  1.
<mgrwt>
<rscale>  2 0.61154922E+01</rscale>
<asrwt>0</asrwt>
<pdfrwt beam="1">  1       21 0.10174290E-01 0.61154922E+01</pdfrwt>
<pdfrwt beam="2">  1       21 0.11620971E-03 0.61154922E+01</pdfrwt>
<totfact> 0.20903316E+09</totfact>
</mgrwt>
</event>
<event>
 4    1  0.3906087E+006  0.4947023E+01  0.7546771E-02  0.2576638E+00
         21   -1    0    0  501  502  0.00000000000E+00  0.00000000000E+00  0.37007814573E+01  0.37007814573E+01  0.00000000000E+00 0. -1.
         21   -1    0    0  502  503 -0.00000000000E+00 -0.00000000000E+00 -0.22462548292E+02  0.22462548292E+02  0.00000000000E+00 0. -1.
          5    1    1    2  501    0  0.37058548907E+00  0.14985685417E+01  0.16077273558E+01  0.52017139992E+01  0.47000000000E+01 0. -1.
         -5    1    1    2    0  503 -0.37058548907E+00 -0.14985685417E+01 -0.20369494191E+02  0.20961615750E+02  0.47000000000E+01 0. -1.
<mgrwt>
<rscale>  2 0.49470235E+01</rscale>
<asrwt>0</asrwt>
<pdfrwt beam="1">  1       21 0.56935101E-03 0.49470235E+01</pdfrwt>
<pdfrwt beam="2">  1       21 0.34557766E-02 0.49470235E+01</pdfrwt>
<totfact> 0.98974226E+08</totfact>
</mgrwt>
</event>
<event>
 4    1  0.3906087E+006  0.6198786E+01  0.7546771E-02  0.2390248E+00
         21   -1    0    0  501  502  0.00000000000E+00  0.00000000000E+00  0.14746879287E+02  0.14746879287E+02  0.00000000000E+00 0. -1.
         21   -1    0    0  502  503 -0.00000000000E+00 -0.00000000000E+00 -0.53691065618E+01  0.53691065618E+01  0.00000000000E+00 0. -1.
          5    1    1    2  501    0  0.34285022429E+01  0.21401692333E+01  0.11904744538E+02  0.13421918436E+02  0.47000000000E+01 0. -1.
         -5    1    1    2    0  503 -0.34285022429E+01 -0.21401692333E+01 -0.25269718135E+01  0.66940674125E+01  0.47000000000E+01 0. -1.
<mgrwt>
<rscale>  2 0.61987863E+01</rscale>
<asrwt>0</asrwt>
<pdfrwt beam="1">  1       21 0.22687506E-02 0.61987863E+01</pdfrwt>
<pdfrwt beam="2">  1       21 0.82601640E-03 0.61987863E+01</pdfrwt>
<totfact> 0.13199220E+09</totfact>
</mgrwt>
</event>
<event>
 4    1  0.3906087E+006  0.5669025E+01  0.7546771E-02  0.2460600E+00
         21   -1    0    0  501  502  0.00000000000E+00  0.00000000000E+00  0.17867602421E+01  0.17867602421E+01  0.00000000000E+00 0. -1.
         21   -1    0    0  502  503 -0.00000000000E+00 -0.00000000000E+00 -0.39717513011E+02  0.39717513011E+02  0.00000000000E+00 0.  1.
          5    1    1    2  501    0 -0.67155760315E+00 -0.30978784805E+01 -0.36153110534E+01  0.67237128662E+01  0.47000000000E+01 0. -1.
         -5    1    1    2    0  503  0.67155760315E+00  0.30978784805E+01 -0.34315441716E+02  0.34780560387E+02  0.47000000000E+01 0.  1.
<mgrwt>
<rscale>  2 0.56690247E+01</rscale>
<asrwt>0</asrwt>
<pdfrwt beam="1">  1       21 0.27488621E-03 0.56690247E+01</pdfrwt>
<pdfrwt beam="2">  1       21 0.61103863E-02 0.56690247E+01</pdfrwt>
<totfact> 0.13196213E+09</totfact>
</mgrwt>
</event>
<event>
 4    1  0.3906087E+006  0.6081861E+01  0.7546771E-02  0.2404890E+00
         21   -1    0    0  501  502  0.00000000000E+00  0.00000000000E+00  0.49566471330E+00  0.49566471330E+00  0.00000000000E+00 0.  1.
         21   -1    0    0  502  503 -0.00000000000E+00 -0.00000000000E+00 -0.88800363975E+02  0.88800363975E+02  0.00000000000E+00 0.  1.
          5    1    1    2  501    0  0.21712802902E+01 -0.31913275487E+01 -0.26313767668E+02  0.27007469310E+02  0.47000000000E+01 0.  1.
         -5    1    1    2    0  503 -0.21712802902E+01  0.31913275487E+01 -0.61990931594E+02  0.62288559379E+02  0.47000000000E+01 0.  1.
<mgrwt>
<rscale>  2 0.60818607E+01</rscale>
<asrwt>0</asrwt>
<pdfrwt beam="1">  1       21 0.76256056E-04 0.60818607E+01</pdfrwt>
<pdfrwt beam="2">  1       21 0.13661604E-01 0.60818607E+01</pdfrwt>
<totfact> 0.23197162E+09</totfact>
</mgrwt>
</event>
<event>
 4    1  0.3906087E+006  0.7371486E+01  0.7546771E-02  0.2265096E+00
         21   -1    0    0  503  502  0.00000000000E+00  0.00000000000E+00  0.14194343548E+03  0.14194343548E+03  0.00000000000E+00 0. -1.
         21   -1    0    0  501  503 -0.00000000000E+00 -0.00000000000E+00 -0.62024357245E+00  0.62024357245E+00  0.00000000000E+00 0. -1.
          5    1    1    2  501    0  0.28041595405E+01 -0.49381668937E+01  0.26559465401E+02  0.27563454163E+02  0.47000000000E+01 0. -1.
         -5    1    1    2    0  502 -0.28041595405E+01  0.49381668937E+01  0.11476372651E+03  0.11500022489E+03  0.47000000000E+01 0. -1.
<mgrwt>
<rscale>  2 0.73714858E+01</rscale>
<asrwt>0</asrwt>
<pdfrwt beam="1">  1       21 0.21837426E-01 0.73714858E+01</pdfrwt>
<pdfrwt beam="2">  1       21 0.95422201E-04 0.73714858E+01</pdfrwt>
<totfact> 0.92949484E+08</totfact>
</mgrwt>
</event>
<event>
 4    1  0.3906087E+006  0.5692545E+01  0.7546771E-02  0.2457244E+00
         21   -1    0    0  503  502  0.00000000000E+00  0.00000000000E+00  0.11065625286E+01  0.11065625286E+01  0.00000000000E+00 0.  1.
         21   -1    0    0  501  503 -0.00000000000E+00 -0.00000000000E+00 -0.59356218842E+02  0.59356218842E+02  0.00000000000E+00 0.  1.
          5    1    1    2  501    0  0.24471189553E+01  0.20800678172E+01 -0.50642957347E+02  0.50961889703E+02  0.47000000000E+01 0.  1.
         -5    1    1    2    0  502 -0.24471189553E+01 -0.20800678172E+01 -0.76066989671E+01  0.95008916677E+01  0.47000000000E+01 0.  1.
<mgrwt>
<rscale>  2 0.56925454E+01</rscale>
<asrwt>0</asrwt>
<pdfrwt beam="1">  1       21 0.17024039E-03 0.56925454E+01</pdfrwt>
<pdfrwt beam="2">  1       21 0.91317258E-02 0.56925454E+01</pdfrwt>
<totfact> 0.13875034E+09</totfact>
</mgrwt>
</event>
<event>
 4    1  0.3906087E+006  0.6220593E+01  0.7546771E-02  0.2387568E+00
         21   -1    0    0  503  502  0.00000000000E+00  0.00000000000E+00  0.23194812274E+02  0.23194812274E+02  0.00000000000E+00 0. -1.
         21   -1    0    0  501  503 -0.00000000000E+00 -0.00000000000E+00 -0.49609071784E+01  0.49609071784E+01  0.00000000000E+00 0.  1.
          5    1    1    2  501    0 -0.16188076478E+01 -0.37396839655E+01 -0.23520702390E+01  0.66504141805E+01  0.47000000000E+01 0.  1.
         -5    1    1    2    0  502  0.16188076478E+01  0.37396839655E+01  0.20585975334E+02  0.21505305272E+02  0.47000000000E+01 0. -1.
<mgrwt>
<rscale>  2 0.62205928E+01</rscale>
<asrwt>0</asrwt>
<pdfrwt beam="1">  1       21 0.35684326E-02 0.62205928E+01</pdfrwt>
<pdfrwt beam="2">  1       21 0.76321650E-03 0.62205928E+01</pdfrwt>
<totfact> 0.76534127E+08</totfact>
</mgrwt>
</event>
<event>
 4    1  0.3906087E+006  0.5387535E+01  0.7546771E-02  0.2502679E+00
         21   -1    0    0  501  502  0.00000000000E+00  0.00000000000E+00  0.11843182734E+04  0.11843182734E+04  0.00000000000E+00 0. -1.
         21   -1    0    0  502  503 -0.00000000000E+00 -0.00000000000E+00 -0.26198042823E-01  0.26198042823E-01  0.00000000000E+00 0. -1.
          5    1    1    2  501    0 -0.26126315377E+01 -0.33119633896E+00  0.44175082542E+03  0.44178367703E+03  0.47000000000E+01 0. -1.
         -5    1    1    2    0  503  0.26126315377E+01  0.33119633896E+00  0.74254124991E+03  0.74256079438E+03  0.47000000000E+01 0. -1.
<mgrwt>
<rscale>  2 0.53875351E+01</rscale>
<asrwt>0</asrwt>
<pdfrwt beam="1">  1       21 0.18215994E+00 0.53875351E+01</pdfrwt>
<pdfrwt beam="2">  1       21 0.40314167E-05 0.53875351E+01</pdfrwt>
<totfact> 0.94360997E+08</totfact>
</mgrwt>
</event>
<event>
 4    1  0.3906087E+006  0.8009734E+01  0.7546771E-02  0.2209825E+00
         21   -1    0    0  503  502  0.00000000000E+00  0.00000000000E+00  0.66182379557E+02  0.66182379557E+02  0.00000000000E+00 0. -1.
         21   -1    0    0  501  503 -0.00000000000E+00 -0.00000000000E+00 -0.11286744708E+01  0.11286744708E+01  0.00000000000E+00 0. -1.
          5    1    1    2  501    0 -0.64852912530E+01 -0.82702926133E-01  0.45170520109E+02  0.45875175524E+02  0.47000000000E+01 0. -1.
         -5    1    1    2    0  502  0.64852912530E+01  0.82702926133E-01  0.19883184977E+02  0.21435878504E+02  0.47000000000E+01 0. -1.
<mgrwt>
<rscale>  2 0.80097342E+01</rscale>
<asrwt>0</asrwt>
<pdfrwt beam="1">  1       21 0.10181902E-01 0.80097342E+01</pdfrwt>
<pdfrwt beam="2">  1       21 0.17364228E-03 0.80097342E+01</pdfrwt>
<totfact> 0.14767494E+09</totfact>
</mgrwt>
</event>
<event>
 4    1  0.3906087E+006  0.5095287E+01  0.7546771E-02  0.2550523E+00
         21   -1    0    0  503  502  0.00000000000E+00  0.00000000000E+00  0.68485522460E+02  0.68485522460E+02  0.00000000000E+00 0.  1.
         21   -1    0    0  501  503 -0.00000000000E+00 -0.00000000000E+00 -0.22064992875E+01  0.22064992875E+01  0.00000000000E+00 0.  1.
          5    1    1    2  501    0 -0.13948378950E+01  0.13879388189E+01  0.97278826317E+00  0.51873176039E+01  0.47000000000E+01 0.  1.
         -5    1    1    2    0  502  0.13948378950E+01 -0.13879388189E+01  0.65306234909E+02  0.65504704143E+02  0.47000000000E+01 0.  1.
<mgrwt>
<rscale>  2 0.50952867E+01</rscale>
<asrwt>0</asrwt>
<pdfrwt beam="1">  1       21 0.10536233E-01 0.50952867E+01</pdfrwt>
<pdfrwt beam="2">  1       21 0.33946148E-03 0.50952867E+01</pdfrwt>
<totfact> 0.39817037E+08</totfact>
</mgrwt>
</event>
<event>
 4    1  0.3906087E+006  0.4879423E+01  0.7546771E-02  0.2588999E+00
         21   -1    0    0  501  502  0.00000000000E+00  0.00000000000E+00  0.16967103271E+02  0.16967103271E+02  0.00000000000E+00 0. -1.
         21   -1    0    0  502  503 -0.00000000000E+00 -0.00000000000E+00 -0.33479055636E+01  0.33479055636E+01  0.00000000000E+00 0. -1.
          5    1    1    2  501    0  0.20921874862E+00  0.12942159403E+01  0.14551076666E+02  0.15347397158E+02  0.47000000000E+01 0. -1.
         -5    1    1    2    0  503 -0.20921874862E+00 -0.12942159403E+01 -0.93187895789E+00  0.49676116774E+01  0.47000000000E+01 0. -1.
<mgrwt>
<rscale>  2 0.48794229E+01</rscale>
<asrwt>0</asrwt>
<pdfrwt beam="1">  1       21 0.26103235E-02 0.48794229E+01</pdfrwt>
<pdfrwt beam="2">  1       21 0.51506240E-03 0.48794229E+01</pdfrwt>
<totfact> 0.16754561E+09</totfact>
</mgrwt>
</event>
<event>
 4    1  0.3906087E+006  0.6280147E+01  0.7546771E-02  0.2380328E+00
         21   -1    0    0  501  502  0.00000000000E+00  0.00000000000E+00  0.47885276853E+02  0.47885276853E+02  0.00000000000E+00 0.  1.
         21   -1    0    0  502  503 -0.00000000000E+00 -0.00000000000E+00 -0.83326271701E+00  0.83326271701E+00  0.00000000000E+00 0.  1.
          5    1    1    2  501    0 -0.33901482462E+01  0.24201527496E+01  0.20908336069E+02  0.21831142014E+02  0.47000000000E+01 0.  1.
         -5    1    1    2    0  503  0.33901482462E+01 -0.24201527496E+01  0.26143678068E+02  0.26887397557E+02  0.47000000000E+01 0.  1.
<mgrwt>
<rscale>  2 0.62801469E+01</rscale>
<asrwt>0</asrwt>
<pdfrwt beam="1">  1       21 0.73669635E-02 0.62801469E+01</pdfrwt>
<pdfrwt beam="2">  1       21 0.12819430E-03 0.62801469E+01</pdfrwt>
<totfact> 0.30639478E+09</totfact>
</mgrwt>
</event>
<event>
 4    1  0.3906087E+006  0.7490017E+01  0.7546771E-02  0.2254256E+00
         21   -1    0    0  503  502  0.00000000000E+00  0.00000000000E+00  0.18576579880E+00  0.18576579880E+00  0.00000000000E+00 0. -1.
         21   -1    0    0  501  503 -0.00000000000E+00 -0.00000000000E+00 -0.37998149177E+03  0.37998149177E+03  0.00000000000E+00 0.  1.
          5    1    1    2  501    0  0.27873962810E+01  0.51225749575E+01 -0.27601171918E+03  0.27611332724E+03  0.47000000000E+01 0.  1.
         -5    1    1    2    0  502 -0.27873962810E+01 -0.51225749575E+01 -0.10378400679E+03  0.10405393033E+03  0.47000000000E+01 0. -1.
<mgrwt>
<rscale>  2 0.74900168E+01</rscale>
<asrwt>0</asrwt>
<pdfrwt beam="1">  1       21 0.28579247E-04 0.74900168E+01</pdfrwt>
<pdfrwt beam="2">  1       21 0.58458910E-01 0.74900168E+01</pdfrwt>
<totfact> 0.85320953E+08</totfact>
</mgrwt>
</event>
<event>
 4    1  0.3906087E+006  0.6448009E+01  0.7546771E-02  0.2360523E+00
         21   -1    0    0  501  502  0.00000000000E+00  0.00000000000E+00  0.11042573136E+00  0.11042573136E+00  0.00000000000E+00 0.  1.
         21   -1    0    0  502  503 -0.00000000000E+00 -0.00000000000E+00 -0.41130231325E+03  0.41130231325E+03  0.00000000000E+00 0.  1.
          5    1    1    2  501    0  0.28142297567E+01 -0.34010194182E+01 -0.26542119149E+03  0.26549950228E+03  0.47000000000E+01 0.  1.
         -5    1    1    2    0  503 -0.28142297567E+01  0.34010194182E+01 -0.14577069603E+03  0.14591323670E+03  0.47000000000E+01 0.  1.
<mgrwt>
<rscale>  2 0.64480092E+01</rscale>
<asrwt>0</asrwt>
<pdfrwt beam="1">  1       21 0.16988361E-04 0.64480092E+01</pdfrwt>
<pdfrwt beam="2">  1       21 0.63278073E-01 0.64480092E+01</pdfrwt>
<totfact> 0.13395775E+09</totfact>
</mgrwt>
</event>
<event>
 4    1  0.3906087E+006  0.5589855E+01  0.7546771E-02  0.2472071E+00
         21   -1    0    0  503  502  0.00000000000E+00  0.00000000000E+00  0.41295613453E+01  0.41295613453E+01  0.00000000000E+00 0. -1.
         21   -1    0    0  501  503 -0.00000000000E+00 -0.00000000000E+00 -0.14162084595E+02  0.14162084595E+02  0.00000000000E+00 0. -1.
          5    1    1    2  501    0 -0.30059417534E+01 -0.34755233062E+00 -0.11257699184E+02  0.12569099783E+02  0.47000000000E+01 0. -1.
         -5    1    1    2    0  502  0.30059417534E+01  0.34755233062E+00  0.12251759343E+01  0.57225461569E+01  0.47000000000E+01 0. -1.
<mgrwt>
<rscale>  2 0.55898550E+01</rscale>
<asrwt>0</asrwt>
<pdfrwt beam="1">  1       21 0.63531714E-03 0.55898550E+01</pdfrwt>
<pdfrwt beam="2">  1       21 0.21787822E-02 0.55898550E+01</pdfrwt>
<totfact> 0.18489385E+09</totfact>
</mgrwt>
</event>
<event>
 4    1  0.3906087E+006  0.5049963E+01  0.7546771E-02  0.2558366E+00
         21   -1    0    0  501  502  0.00000000000E+00  0.00000000000E+00  0.22572806225E+02  0.22572806225E+02  0.00000000000E+00 0.  1.
         21   -1    0    0  502  503 -0.00000000000E+00 -0.00000000000E+00 -0.11422904731E+01  0.11422904731E+01  0.00000000000E+00 0.  1.
          5    1    1    2  501    0 -0.17602264451E+01 -0.56011682278E+00  0.11956565927E+02  0.12979275664E+02  0.47000000000E+01 0. -1.
         -5    1    1    2    0  503  0.17602264451E+01  0.56011682278E+00  0.94739498249E+01  0.10735821034E+02  0.47000000000E+01 0. -1.
<mgrwt>
<rscale>  2 0.50499632E+01</rscale>
<asrwt>0</asrwt>
<pdfrwt beam="1">  1       21 0.34727391E-02 0.50499632E+01</pdfrwt>
<pdfrwt beam="2">  1       21 0.17573701E-03 0.50499632E+01</pdfrwt>
<totfact> 0.49592573E+09</totfact>
</mgrwt>
</event>
<event>
 4    1  0.3906087E+006  0.4761706E+01  0.7546771E-02  0.2611246E+00
         21   -1    0    0  501  502  0.00000000000E+00  0.00000000000E+00  0.39857412523E+02  0.39857412523E+02  0.00000000000E+00 0.  1.
         21   -1    0    0  502  503 -0.00000000000E+00 -0.00000000000E+00 -0.11070043934E+01  0.11070043934E+01  0.00000000000E+00 0.  1.
          5    1    1    2  501    0  0.42814010486E+00 -0.63288263452E+00  0.33655785287E+02  0.33990965383E+02  0.47000000000E+01 0.  1.
         -5    1    1    2    0  503 -0.42814010486E+00  0.63288263452E+00  0.50946228418E+01  0.69734515326E+01  0.47000000000E+01 0.  1.
<mgrwt>
<rscale>  2 0.47617060E+01</rscale>
<asrwt>0</asrwt>
<pdfrwt beam="1">  1       21 0.61319085E-02 0.47617060E+01</pdfrwt>
<pdfrwt beam="2">  1       21 0.17030840E-03 0.47617060E+01</pdfrwt>
<totfact> 0.21281252E+09</totfact>
</mgrwt>
</event>
<event>
 4    1  0.3906087E+006  0.6973947E+01  0.7546771E-02  0.2303628E+00
         21   -1    0    0  503  502  0.00000000000E+00  0.00000000000E+00  0.29474996336E+02  0.29474996336E+02  0.00000000000E+00 0.  1.
         21   -1    0    0  501  503 -0.00000000000E+00 -0.00000000000E+00 -0.17260025154E+01  0.17260025154E+01  0.00000000000E+00 0. -1.
          5    1    1    2  501    0 -0.28544626080E+01 -0.42892872729E+01  0.10602456974E+02  0.12690470282E+02  0.47000000000E+01 0. -1.
         -5    1    1    2    0  502  0.28544626080E+01  0.42892872729E+01  0.17146536847E+02  0.18510528570E+02  0.47000000000E+01 0.  1.
<mgrwt>
<rscale>  2 0.69739474E+01</rscale>
<asrwt>0</asrwt>
<pdfrwt beam="1">  1       21 0.45346145E-02 0.69739474E+01</pdfrwt>
<pdfrwt beam="2">  1       21 0.26553887E-03 0.69739474E+01</pdfrwt>
<totfact> 0.25557960E+09</totfact>
</mgrwt>
</event>
<event>
 4    1  0.3906087E+006  0.5120608E+01  0.7546771E-02  0.2546193E+00
         21   -1    0    0  503  502  0.00000000000E+00  0.00000000000E+00  0.35256071977E+01  0.35256071977E+01  0.00000000000E+00 0. -1.
         21   -1    0    0  501  503 -0.00000000000E+00 -0.00000000000E+00 -0.24556262888E+02  0.24556262888E+02  0.00000000000E+00 0. -1.
          5    1    1    2  501    0 -0.11777832567E+00  0.20289785578E+01 -0.22238764988E+02  0.22820676894E+02  0.47000000000E+01 0. -1.
         -5    1    1    2    0  502  0.11777832567E+00 -0.20289785578E+01  0.12081092977E+01  0.52611931914E+01  0.47000000000E+01 0. -1.
<mgrwt>
<rscale>  2 0.51206079E+01</rscale>
<asrwt>0</asrwt>
<pdfrwt beam="1">  1       21 0.54240111E-03 0.51206079E+01</pdfrwt>
<pdfrwt beam="2">  1       21 0.37778866E-02 0.51206079E+01</pdfrwt>
<totfact> 0.96098559E+08</totfact>
</mgrwt>
</event>
<event>
 4    1  0.3906087E+006  0.5373077E+01  0.7546771E-02  0.2504941E+00
         21   -1    0    0  503  502  0.00000000000E+00  0.00000000000E+00  0.19161587986E+01  0.19161587986E+01  0.00000000000E+00 0.  1.
         21   -1    0    0  501  503 -0.00000000000E+00 -0.00000000000E+00 -0.15095140289E+02  0.15095140289E+02  0.00000000000E+00 0.  1.
          5    1    1    2  501    0 -0.21583597560E+01  0.14565179800E+01 -0.62195231071E+01  0.82190284792E+01  0.47000000000E+01 0.  1.
         -5    1    1    2    0  502  0.21583597560E+01 -0.14565179800E+01 -0.69594583837E+01  0.87922706087E+01  0.47000000000E+01 0.  1.
<mgrwt>
<rscale>  2 0.53730775E+01</rscale>
<asrwt>0</asrwt>
<pdfrwt beam="1">  1       21 0.29479367E-03 0.53730775E+01</pdfrwt>
<pdfrwt beam="2">  1       21 0.23223292E-02 0.53730775E+01</pdfrwt>
<totfact> 0.46804012E+09</totfact>
</mgrwt>
</event>
<event>
 4    1  0.3906087E+006  0.6649544E+01  0.7546771E-02  0.2337845E+00
         21   -1    0    0  503  502  0.00000000000E+00  0.00000000000E+00  0.25586890341E+00  0.25586890341E+00  0.00000000000E+00 0. -1.
         21   -1    0    0  501  503 -0.00000000000E+00 -0.00000000000E+00 -0.19522666715E+03  0.19522666715E+03  0.00000000000E+00 0. -1.
          5    1    1    2  501    0  0.36871655599E+01  0.29208295215E+01 -0.13060645331E+03  0.13077561730E+03  0.47000000000E+01 0. -1.
         -5    1    1    2    0  502 -0.36871655599E+01 -0.29208295215E+01 -0.64364344938E+02  0.64706918751E+02  0.47000000000E+01 0. -1.
<mgrwt>
<rscale>  2 0.66495440E+01</rscale>
<asrwt>0</asrwt>
<pdfrwt beam="1">  1       21 0.39364294E-04 0.66495440E+01</pdfrwt>
<pdfrwt beam="2">  1       21 0.30034988E-01 0.66495440E+01</pdfrwt>
<totfact> 0.16755324E+09</totfact>
</mgrwt>
</event>
<event>
 4    1  0.3906087E+006  0.1017462E+02  0.7546771E-02  0.2065184E+00
         21   -1    0    0  503  502  0.00000000000E+00  0.00000000000E+00  0.12691513766E+03  0.12691513766E+03  0.00000000000E+00 0.  1.
         21   -1    0    0  501  503 -0.00000000000E+00 -0.00000000000E+00 -0.37820880279E+01  0.37820880279E+01  0.00000000000E+00 0. -1.
          5    1    1    2  501    0  0.36765107924E+01 -0.82411283552E+01  0.36922521825E+01  0.10823846560E+02  0.47000000000E+01 0. -1.
         -5    1    1    2    0  502 -0.36765107924E+01  0.82411283552E+01  0.11944079745E+03  0.11987337913E+03  0.47000000000E+01 0.  1.
<mgrwt>
<rscale>  2 0.10174622E+02</rscale>
<asrwt>0</asrwt>
<pdfrwt beam="1">  1       21 0.19525403E-01 0.10174622E+02</pdfrwt>
<pdfrwt beam="2">  1       21 0.58185979E-03 0.10174622E+02</pdfrwt>
<totfact> 0.10754004E+08</totfact>
</mgrwt>
</event>
<event>
 4    1  0.3906087E+006  0.6240446E+01  0.7546771E-02  0.2385142E+00
         21   -1    0    0  503  502  0.00000000000E+00  0.00000000000E+00  0.19962391498E+04  0.19962391498E+04  0.00000000000E+00 0. -1.
         21   -1    0    0  501  503 -0.00000000000E+00 -0.00000000000E+00 -0.19980438068E-01  0.19980438068E-01  0.00000000000E+00 0.  1.
          5    1    1    2  501    0  0.25400651884E+01 -0.32250946721E+01  0.84467120851E+03  0.84469426046E+03  0.47000000000E+01 0.  1.
         -5    1    1    2    0  502 -0.25400651884E+01  0.32250946721E+01  0.11515479609E+04  0.11515648698E+04  0.47000000000E+01 0.  1.
<mgrwt>
<rscale>  2 0.62404460E+01</rscale>
<asrwt>0</asrwt>
<pdfrwt beam="1">  1       21 0.30695406E+00 0.62404460E+01</pdfrwt>
<pdfrwt beam="2">  1       21 0.30755124E-05 0.62404460E+01</pdfrwt>
<totfact> 0.43219968E+08</totfact>
</mgrwt>
</event>
<event>
 4    1  0.3906087E+006  0.1297561E+02  0.7546771E-02  0.1936965E+00
         21   -1    0    0  501  502  0.00000000000E+00  0.00000000000E+00  0.79576999063E-01  0.79576999063E-01  0.00000000000E+00 0. -1.
         21   -1    0    0  502  503 -0.00000000000E+00 -0.00000000000E+00 -0.23821311987E+04  0.23821311987E+04  0.00000000000E+00 0.  1.
          5    1    1    2  501    0 -0.34593668556E+01 -0.11589186676E+02 -0.15893204624E+04  0.15893734296E+04  0.47000000000E+01 0. -1.
         -5    1    1    2    0  503  0.34593668556E+01  0.11589186676E+02 -0.79273115925E+03  0.79283734606E+03  0.47000000000E+01 0.  1.
<mgrwt>
<rscale>  2 0.12975610E+02</rscale>
<asrwt>0</asrwt>
<pdfrwt beam="1">  1       21 0.12243359E-04 0.12975610E+02</pdfrwt>
<pdfrwt beam="2">  1       21 0.36645945E+00 0.12975610E+02</pdfrwt>
<totfact> 0.42730378E+07</totfact>
</mgrwt>
</event>
<event>
 4    1  0.3906087E+006  0.5154586E+01  0.7546771E-02  0.2540440E+00
         21   -1    0    0  501  502  0.00000000000E+00  0.00000000000E+00  0.40717770158E+02  0.40717770158E+02  0.00000000000E+00 0.  1.
         21   -1    0    0  502  503 -0.00000000000E+00 -0.00000000000E+00 -0.66203108581E+00  0.66203108581E+00  0.00000000000E+00 0.  1.
          5    1    1    2  501    0 -0.18053079982E+01  0.11048181841E+01  0.22505845691E+02  0.23088587017E+02  0.47000000000E+01 0.  1.
         -5    1    1    2    0  503  0.18053079982E+01 -0.11048181841E+01  0.17549893381E+02  0.18291214226E+02  0.47000000000E+01 0.  1.
<mgrwt>
<rscale>  2 0.51545863E+01</rscale>
<asrwt>0</asrwt>
<pdfrwt beam="1">  1       21 0.62642704E-02 0.51545863E+01</pdfrwt>
<pdfrwt beam="2">  1       21 0.10185097E-03 0.51545863E+01</pdfrwt>
<totfact> 0.44369205E+09</totfact>
</mgrwt>
</event>
<event>
 4    1  0.3906087E+006  0.6431262E+01  0.7546771E-02  0.2362460E+00
         21   -1    0    0  503  502  0.00000000000E+00  0.00000000000E+00  0.19486761758E+02  0.19486761758E+02  0.00000000000E+00 0. -1.
         21   -1    0    0  501  503 -0.00000000000E+00 -0.00000000000E+00 -0.32229624040E+01  0.32229624040E+01  0.00000000000E+00 0. -1.
          5    1    1    2  501    0  0.41321493967E+01 -0.14820512800E+01  0.14969602883E+01  0.66031829248E+01  0.47000000000E+01 0. -1.
         -5    1    1    2    0  502 -0.41321493967E+01  0.14820512800E+01  0.14766839066E+02  0.16106541237E+02  0.47000000000E+01 0. -1.
<mgrwt>
<rscale>  2 0.64312623E+01</rscale>
<asrwt>0</asrwt>
<pdfrwt beam="1">  1       21 0.29979633E-02 0.64312623E+01</pdfrwt>
<pdfrwt beam="2">  1       21 0.49584038E-03 0.64312623E+01</pdfrwt>
<totfact> 0.18554303E+09</totfact>
</mgrwt>
</event>
<event>
 4    1  0.3906087E+006  0.5281648E+01  0.7546771E-02  0.2519491E+00
         21   -1    0    0  501  502  0.00000000000E+00  0.00000000000E+00  0.45161225438E+00  0.45161225438E+00  0.00000000000E+00 0. -1.
         21   -1    0    0  502  503 -0.00000000000E+00 -0.00000000000E+00 -0.10012936738E+03  0.10012936738E+03  0.00000000000E+00 0. -1.
          5    1    1    2  501    0  0.10609592009E+01  0.21633704596E+01 -0.18711366789E+02  0.19442506353E+02  0.47000000000E+01 0. -1.
         -5    1    1    2    0  503 -0.10609592009E+01 -0.21633704596E+01 -0.80966388337E+02  0.81138473282E+02  0.47000000000E+01 0. -1.
<mgrwt>
<rscale>  2 0.52816481E+01</rscale>
<asrwt>0</asrwt>
<pdfrwt beam="1">  1       21 0.69478778E-04 0.52816481E+01</pdfrwt>
<pdfrwt beam="2">  1       21 0.15404525E-01 0.52816481E+01</pdfrwt>
<totfact> 0.19271035E+09</totfact>
</mgrwt>
</event>
<event>
 4    1  0.3906087E+006  0.5328518E+01  0.7546771E-02  0.2511979E+00
         21   -1    0    0  501  502  0.00000000000E+00  0.00000000000E+00  0.68222512373E+03  0.68222512373E+03  0.00000000000E+00 0.  1.
         21   -1    0    0  502  503 -0.00000000000E+00 -0.00000000000E+00 -0.50644347000E-01  0.50644347000E-01  0.00000000000E+00 0.  1.
          5    1    1    2  501    0  0.91080227403E+00 -0.23395614514E+01  0.19707109232E+03  0.19714311689E+03  0.47000000000E+01 0.  1.
         -5    1    1    2    0  503 -0.91080227403E+00  0.23395614514E+01  0.48510338706E+03  0.48513265119E+03  0.47000000000E+01 0.  1.
<mgrwt>
<rscale>  2 0.53285184E+01</rscale>
<asrwt>0</asrwt>
<pdfrwt beam="1">  1       21 0.10495035E+00 0.53285184E+01</pdfrwt>
<pdfrwt beam="2">  1       21 0.77919844E-05 0.53285184E+01</pdfrwt>
<totfact> 0.12304137E+09</totfact>
</mgrwt>
</event>
<event>
 4    1  0.3906087E+006  0.5305614E+01  0.7546771E-02  0.2515636E+00
         21   -1    0    0  503  502  0.00000000000E+00  0.00000000000E+00  0.94176568976E+02  0.94176568976E+02  0.00000000000E+00 0.  1.
         21   -1    0    0  501  503 -0.00000000000E+00 -0.00000000000E+00 -0.30234947465E+00  0.30234947465E+00  0.00000000000E+00 0. -1.
          5    1    1    2  501    0 -0.24091795316E+01 -0.50536328902E+00  0.41892602624E+02  0.42227238753E+02  0.47000000000E+01 0. -1.
         -5    1    1    2    0  502  0.24091795316E+01  0.50536328902E+00  0.51981616878E+02  0.52251679698E+02  0.47000000000E+01 0.  1.
<mgrwt>
<rscale>  2 0.53056138E+01</rscale>
<asrwt>0</asrwt>
<pdfrwt beam="1">  1       21 0.14488680E-01 0.53056138E+01</pdfrwt>
<pdfrwt beam="2">  1       21 0.46515379E-04 0.53056138E+01</pdfrwt>
<totfact> 0.36294916E+09</totfact>
</mgrwt>
</event>
<event>
 4    1  0.3906087E+006  0.7854080E+01  0.7546771E-02  0.2222633E+00
         21   -1    0    0  501  502  0.00000000000E+00  0.00000000000E+00  0.47051501629E+03  0.47051501629E+03  0.00000000000E+00 0.  1.
         21   -1    0    0  502  503 -0.00000000000E+00 -0.00000000000E+00 -0.28146761694E+00  0.28146761694E+00  0.00000000000E+00 0. -1.
          5    1    1    2  501    0  0.52434107461E+01 -0.34789667229E+01  0.40716883260E+03  0.40724457615E+03  0.47000000000E+01 0.  1.
         -5    1    1    2    0  503 -0.52434107461E+01  0.34789667229E+01  0.63064716078E+02  0.63551907758E+02  0.47000000000E+01 0. -1.
<mgrwt>
<rscale>  2 0.78540796E+01</rscale>
<asrwt>0</asrwt>
<pdfrwt beam="1">  1       21 0.72386296E-01 0.78540796E+01</pdfrwt>
<pdfrwt beam="2">  1       21 0.43303087E-04 0.78540796E+01</pdfrwt>
<totfact> 0.33275658E+08</totfact>
</mgrwt>
</event>
<event>
 4    1  0.3906087E+006  0.7154384E+01  0.7546771E-02  0.2285705E+00
         21   -1    0    0  501  502  0.00000000000E+00  0.00000000000E+00  0.91603171936E+01  0.91603171936E+01  0.00000000000E+00 0. -1.
         21   -1    0    0  502  503 -0.00000000000E+00 -0.00000000000E+00 -0.57164471365E+01  0.57164471365E+01  0.00000000000E+00 0.  1.
          5    1    1    2  501    0 -0.41669704895E+01 -0.34251375495E+01  0.28381932732E+01  0.76967883789E+01  0.47000000000E+01 0.  1.
         -5    1    1    2    0  503  0.41669704895E+01  0.34251375495E+01  0.60567678393E+00  0.71799759512E+01  0.47000000000E+01 0. -1.
<mgrwt>
<rscale>  2 0.71543840E+01</rscale>
<asrwt>0</asrwt>
<pdfrwt beam="1">  1       21 0.14092796E-02 0.71543840E+01</pdfrwt>
<pdfrwt beam="2">  1       21 0.87945340E-03 0.71543840E+01</pdfrwt>
<totfact> 0.26904248E+09</totfact>
</mgrwt>
</event>
<event>
 4    1  0.3906087E+006  0.6668176E+01  0.7546771E-02  0.2335806E+00
         21   -1    0    0  501  502  0.00000000000E+00  0.00000000000E+00  0.72649228697E+01  0.72649228697E+01  0.00000000000E+00 0. -1.
         21   -1    0    0  502  503 -0.00000000000E+00 -0.00000000000E+00 -0.76972519944E+01  0.76972519944E+01  0.00000000000E+00 0. -1.
          5    1    1    2  501    0 -0.28847660922E-01  0.47300887395E+01  0.31698275477E+01  0.73832498504E+01  0.47000000000E+01 0. -1.
         -5    1    1    2    0  503  0.28847660922E-01 -0.47300887395E+01 -0.36021566724E+01  0.75789250137E+01  0.47000000000E+01 0. -1.
<mgrwt>
<rscale>  2 0.66681760E+01</rscale>
<asrwt>0</asrwt>
<pdfrwt beam="1">  1       21 0.11176804E-02 0.66681760E+01</pdfrwt>
<pdfrwt beam="2">  1       21 0.11841926E-02 0.66681760E+01</pdfrwt>
<totfact> 0.23215320E+09</totfact>
</mgrwt>
</event>
<event>
 4    1  0.3906087E+006  0.8012964E+01  0.7546771E-02  0.2209564E+00
         21   -1    0    0  503  502  0.00000000000E+00  0.00000000000E+00  0.32854863391E+02  0.32854863391E+02  0.00000000000E+00 0.  1.
         21   -1    0    0  501  503 -0.00000000000E+00 -0.00000000000E+00 -0.37473073023E+01  0.37473073023E+01  0.00000000000E+00 0.  1.
          5    1    1    2  501    0  0.75813585739E+00  0.64453718549E+01  0.18944488068E+01  0.82338645002E+01  0.47000000000E+01 0.  1.
         -5    1    1    2    0  502 -0.75813585739E+00 -0.64453718549E+01  0.27213107281E+02  0.28368306193E+02  0.47000000000E+01 0.  1.
<mgrwt>
<rscale>  2 0.80129638E+01</rscale>
<asrwt>0</asrwt>
<pdfrwt beam="1">  1       21 0.50545942E-02 0.80129638E+01</pdfrwt>
<pdfrwt beam="2">  1       21 0.57650884E-03 0.80129638E+01</pdfrwt>
<totfact> 0.81130057E+08</totfact>
</mgrwt>
</event>
<event>
 4    1  0.3906087E+006  0.5119221E+01  0.7546771E-02  0.2546429E+00
         21   -1    0    0  501  502  0.00000000000E+00  0.00000000000E+00  0.85110551334E+01  0.85110551334E+01  0.00000000000E+00 0.  1.
         21   -1    0    0  502  503 -0.00000000000E+00 -0.00000000000E+00 -0.34954312372E+01  0.34954312372E+01  0.00000000000E+00 0.  1.
          5    1    1    2  501    0  0.66663748305E+00 -0.19162519880E+01  0.45796354940E+01  0.68687326687E+01  0.47000000000E+01 0.  1.
         -5    1    1    2    0  503 -0.66663748305E+00  0.19162519880E+01  0.43598840211E+00  0.51377537020E+01  0.47000000000E+01 0.  1.
<mgrwt>
<rscale>  2 0.51192213E+01</rscale>
<asrwt>0</asrwt>
<pdfrwt beam="1">  1       21 0.13093931E-02 0.51192213E+01</pdfrwt>
<pdfrwt beam="2">  1       21 0.53775866E-03 0.51192213E+01</pdfrwt>
<totfact> 0.44030263E+09</totfact>
</mgrwt>
</event>
<event>
 4    1  0.3906087E+006  0.7150287E+01  0.7546771E-02  0.2286104E+00
         21   -1    0    0  501  502  0.00000000000E+00  0.00000000000E+00  0.11103968527E+02  0.11103968527E+02  0.00000000000E+00 0. -1.
         21   -1    0    0  502  503 -0.00000000000E+00 -0.00000000000E+00 -0.23443734935E+02  0.23443734935E+02  0.00000000000E+00 0. -1.
          5    1    1    2  501    0 -0.19702376983E+01 -0.50154530094E+01  0.93150414483E+01  0.11742938417E+02  0.47000000000E+01 0. -1.
         -5    1    1    2    0  503  0.19702376983E+01  0.50154530094E+01 -0.21654807856E+02  0.22804765045E+02  0.47000000000E+01 0. -1.
<mgrwt>
<rscale>  2 0.71502871E+01</rscale>
<asrwt>0</asrwt>
<pdfrwt beam="1">  1       21 0.17083029E-02 0.71502871E+01</pdfrwt>
<pdfrwt beam="2">  1       21 0.36067284E-02 0.71502871E+01</pdfrwt>
<totfact> 0.26379276E+08</totfact>
</mgrwt>
</event>
<event>
 4    1  0.3906087E+006  0.7033389E+01  0.7546771E-02  0.2297641E+00
         21   -1    0    0  503  502  0.00000000000E+00  0.00000000000E+00  0.54343235260E+01  0.54343235260E+01  0.00000000000E+00 0. -1.
         21   -1    0    0  501  503 -0.00000000000E+00 -0.00000000000E+00 -0.92222164774E+01  0.92222164774E+01  0.00000000000E+00 0. -1.
          5    1    1    2  501    0  0.52208964373E+01 -0.34757159617E+00 -0.10606889570E+01  0.71129197020E+01  0.47000000000E+01 0. -1.
         -5    1    1    2    0  502 -0.52208964373E+01  0.34757159617E+00 -0.27272039944E+01  0.75436203013E+01  0.47000000000E+01 0. -1.
<mgrwt>
<rscale>  2 0.70333893E+01</rscale>
<asrwt>0</asrwt>
<pdfrwt beam="1">  1       21 0.83604978E-03 0.70333893E+01</pdfrwt>
<pdfrwt beam="2">  1       21 0.14188025E-02 0.70333893E+01</pdfrwt>
<totfact> 0.28248987E+09</totfact>
</mgrwt>
</event>
<event>
 4    1  0.3906087E+006  0.9930947E+01  0.7546771E-02  0.2078939E+00
         21   -1    0    0  503  502  0.00000000000E+00  0.00000000000E+00  0.17227458488E+02  0.17227458488E+02  0.00000000000E+00 0. -1.
         21   -1    0    0  501  503 -0.00000000000E+00 -0.00000000000E+00 -0.70722577137E+01  0.70722577137E+01  0.00000000000E+00 0. -1.
          5    1    1    2  501    0  0.38506203905E+01  0.78553441572E+01 -0.22574804579E+00  0.99335125409E+01  0.47000000000E+01 0. -1.
         -5    1    1    2    0  502 -0.38506203905E+01 -0.78553441572E+01  0.10380948820E+02  0.14366203661E+02  0.47000000000E+01 0. -1.
<mgrwt>
<rscale>  2 0.99309470E+01</rscale>
<asrwt>0</asrwt>
<pdfrwt beam="1">  1       21 0.26503782E-02 0.99309470E+01</pdfrwt>
<pdfrwt beam="2">  1       21 0.10880397E-02 0.99309470E+01</pdfrwt>
<totfact> 0.98206577E+08</totfact>
</mgrwt>
</event>
<event>
 4    1  0.3906087E+006  0.6130638E+01  0.7546771E-02  0.2398725E+00
         21   -1    0    0  501  502  0.00000000000E+00  0.00000000000E+00  0.66047796186E+02  0.66047796186E+02  0.00000000000E+00 0. -1.
         21   -1    0    0  502  503 -0.00000000000E+00 -0.00000000000E+00 -0.14160671314E+01  0.14160671314E+01  0.00000000000E+00 0. -1.
          5    1    1    2  501    0 -0.83386276101E+00  0.38469979136E+01  0.58404089288E+02  0.58724972248E+02  0.47000000000E+01 0. -1.
         -5    1    1    2    0  503  0.83386276101E+00 -0.38469979136E+01  0.62276397672E+01  0.87388910693E+01  0.47000000000E+01 0. -1.
<mgrwt>
<rscale>  2 0.61306378E+01</rscale>
<asrwt>0</asrwt>
<pdfrwt beam="1">  1       21 0.10161197E-01 0.61306378E+01</pdfrwt>
<pdfrwt beam="2">  1       21 0.21785653E-03 0.61306378E+01</pdfrwt>
<totfact> 0.89485628E+08</totfact>
</mgrwt>
</event>
<event>
 4    1  0.3906087E+006  0.6697867E+01  0.7546771E-02  0.2332576E+00
         21   -1    0    0  501  502  0.00000000000E+00  0.00000000000E+00  0.19139721464E+03  0.19139721464E+03  0.00000000000E+00 0. -1.
         21   -1    0    0  502  503 -0.00000000000E+00 -0.00000000000E+00 -0.24667830104E+00  0.24667830104E+00  0.00000000000E+00 0.  1.
          5    1    1    2  501    0 -0.63787779986E-01  0.47715141777E+01  0.74187683105E+02  0.74489420329E+02  0.47000000000E+01 0. -1.
         -5    1    1    2    0  503  0.63787779986E-01 -0.47715141777E+01  0.11696285323E+03  0.11715447261E+03  0.47000000000E+01 0.  1.
<mgrwt>
<rscale>  2 0.66978666E+01</rscale>
<asrwt>0</asrwt>
<pdfrwt beam="1">  1       21 0.29445607E-01 0.66978666E+01</pdfrwt>
<pdfrwt beam="2">  1       21 0.37950661E-04 0.66978666E+01</pdfrwt>
<totfact> 0.18296059E+09</totfact>
</mgrwt>
</event>
<event>
 4    1  0.3906087E+006  0.8428950E+01  0.7546771E-02  0.2177240E+00
         21   -1    0    0  501  502  0.00000000000E+00  0.00000000000E+00  0.72226121735E+01  0.72226121735E+01  0.00000000000E+00 0. -1.
         21   -1    0    0  502  503 -0.00000000000E+00 -0.00000000000E+00 -0.12354915306E+02  0.12354915306E+02  0.00000000000E+00 0.  1.
          5    1    1    2  501    0  0.63870655653E+01  0.28570243525E+01 -0.69853969362E+01  0.10947281171E+02  0.47000000000E+01 0.  1.
         -5    1    1    2    0  503 -0.63870655653E+01 -0.28570243525E+01  0.18530938041E+01  0.86302463078E+01  0.47000000000E+01 0. -1.
<mgrwt>
<rscale>  2 0.84289498E+01</rscale>
<asrwt>0</asrwt>
<pdfrwt beam="1">  1       21 0.11111711E-02 0.84289498E+01</pdfrwt>
<pdfrwt beam="2">  1       21 0.19007562E-02 0.84289498E+01</pdfrwt>
<totfact> 0.14045401E+09</totfact>
</mgrwt>
</event>
<event>
 4    1  0.3906087E+006  0.8691376E+01  0.7546771E-02  0.2158132E+00
         21   -1    0    0  501  502  0.00000000000E+00  0.00000000000E+00  0.27469841128E+02  0.27469841128E+02  0.00000000000E+00 0.  1.
         21   -1    0    0  502  503 -0.00000000000E+00 -0.00000000000E+00 -0.58955241284E+01  0.58955241284E+01  0.00000000000E+00 0. -1.
          5    1    1    2  501    0 -0.71125945583E+01 -0.16914512073E+01  0.22973023174E+02  0.24562162004E+02  0.47000000000E+01 0.  1.
         -5    1    1    2    0  503  0.71125945583E+01  0.16914512073E+01 -0.13987061748E+01  0.88032032523E+01  0.47000000000E+01 0. -1.
<mgrwt>
<rscale>  2 0.86913755E+01</rscale>
<asrwt>0</asrwt>
<pdfrwt beam="1">  1       21 0.42261293E-02 0.86913755E+01</pdfrwt>
<pdfrwt beam="2">  1       21 0.90700373E-03 0.86913755E+01</pdfrwt>
<totfact> 0.58586488E+08</totfact>
</mgrwt>
</event>
<event>
 4    1  0.3906087E+006  0.6235026E+01  0.7546771E-02  0.2385803E+00
         21   -1    0    0  501  502  0.00000000000E+00  0.00000000000E+00  0.23574922950E+02  0.23574922950E+02  0.00000000000E+00 0. -1.
         21   -1    0    0  502  503 -0.00000000000E+00 -0.00000000000E+00 -0.41118233615E+01  0.41118233615E+01  0.00000000000E+00 0. -1.
          5    1    1    2  501    0 -0.74086653607E+00 -0.40294745866E+01  0.20445249279E+02  0.21374839573E+02  0.47000000000E+01 0. -1.
         -5    1    1    2    0  503  0.74086653607E+00  0.40294745866E+01 -0.98214969049E+00  0.63119067391E+01  0.47000000000E+01 0. -1.
<mgrwt>
<rscale>  2 0.62350260E+01</rscale>
<asrwt>0</asrwt>
<pdfrwt beam="1">  1       21 0.36269112E-02 0.62350260E+01</pdfrwt>
<pdfrwt beam="2">  1       21 0.63258822E-03 0.62350260E+01</pdfrwt>
<totfact> 0.97417539E+08</totfact>
</mgrwt>
</event>
<event>
 4    1  0.3906087E+006  0.4757491E+01  0.7546771E-02  0.2612061E+00
         21   -1    0    0  503  502  0.00000000000E+00  0.00000000000E+00  0.33645185626E-01  0.33645185626E-01  0.00000000000E+00 0. -1.
         21   -1    0    0  501  503 -0.00000000000E+00 -0.00000000000E+00 -0.11489629775E+04  0.11489629775E+04  0.00000000000E+00 0. -1.
          5    1    1    2  501    0  0.40542421711E+00 -0.61591529498E+00 -0.94433624758E+03  0.94434823144E+03  0.47000000000E+01 0. -1.
         -5    1    1    2    0  502 -0.40542421711E+00  0.61591529498E+00 -0.20459308472E+03  0.20464839123E+03  0.47000000000E+01 0. -1.
<mgrwt>
<rscale>  2 0.47574910E+01</rscale>
<asrwt>0</asrwt>
<pdfrwt beam="1">  1       21 0.51766528E-05 0.47574910E+01</pdfrwt>
<pdfrwt beam="2">  1       21 0.17674747E+00 0.47574910E+01</pdfrwt>
<totfact> 0.65931892E+08</totfact>
</mgrwt>
</event>
<event>
 4    1  0.3906087E+006  0.5456575E+01  0.7546771E-02  0.2492018E+00
         21   -1    0    0  503  502  0.00000000000E+00  0.00000000000E+00  0.52360218758E+01  0.52360218758E+01  0.00000000000E+00 0. -1.
         21   -1    0    0  501  503 -0.00000000000E+00 -0.00000000000E+00 -0.11912671183E+02  0.11912671183E+02  0.00000000000E+00 0. -1.
          5    1    1    2  501    0 -0.13375776520E+01  0.24279822863E+01 -0.95371560372E+01  0.10987791281E+02  0.47000000000E+01 0. -1.
         -5    1    1    2    0  502  0.13375776520E+01 -0.24279822863E+01  0.28605067302E+01  0.61609017775E+01  0.47000000000E+01 0. -1.
<mgrwt>
<rscale>  2 0.54565751E+01</rscale>
<asrwt>0</asrwt>
<pdfrwt beam="1">  1       21 0.80554185E-03 0.54565751E+01</pdfrwt>
<pdfrwt beam="2">  1       21 0.18327186E-02 0.54565751E+01</pdfrwt>
<totfact> 0.16643239E+09</totfact>
</mgrwt>
</event>
<event>
 4    1  0.3906087E+006  0.3174557E+02  0.7546771E-02  0.1579558E+00
         21   -1    0    0  501  502  0.00000000000E+00  0.00000000000E+00  0.11862983600E+02  0.11862983600E+02  0.00000000000E+00 0.  1.
         21   -1    0    0  502  503 -0.00000000000E+00 -0.00000000000E+00 -0.51616965875E+03  0.51616965875E+03  0.00000000000E+00 0. -1.
          5    1    1    2  501    0 -0.39161637077E+01 -0.31150523222E+02 -0.10839112103E+02  0.33545011348E+02  0.47000000000E+01 0.  1.
         -5    1    1    2    0  503  0.39161637077E+01  0.31150523222E+02 -0.49346756305E+03  0.49448763101E+03  0.47000000000E+01 0. -1.
<mgrwt>
<rscale>  2 0.31745573E+02</rscale>
<asrwt>0</asrwt>
<pdfrwt beam="1">  1       21 0.18250744E-02 0.31745573E+02</pdfrwt>
<pdfrwt beam="2">  1       21 0.79410718E-01 0.31745573E+02</pdfrwt>
<totfact> 0.18700499E+06</totfact>
</mgrwt>
</event>
<event>
 4    1  0.3906087E+006  0.5091554E+01  0.7546771E-02  0.2551164E+00
         21   -1    0    0  503  502  0.00000000000E+00  0.00000000000E+00  0.27426715614E+02  0.27426715614E+02  0.00000000000E+00 0. -1.
         21   -1    0    0  501  503 -0.00000000000E+00 -0.00000000000E+00 -0.96549328443E+00  0.96549328443E+00  0.00000000000E+00 0. -1.
          5    1    1    2  501    0  0.19434841767E+01 -0.23830807740E+00  0.11172842108E+02  0.12278286617E+02  0.47000000000E+01 0. -1.
         -5    1    1    2    0  502 -0.19434841767E+01  0.23830807740E+00  0.15288380221E+02  0.16113922281E+02  0.47000000000E+01 0. -1.
<mgrwt>
<rscale>  2 0.50915539E+01</rscale>
<asrwt>0</asrwt>
<pdfrwt beam="1">  1       21 0.42194941E-02 0.50915539E+01</pdfrwt>
<pdfrwt beam="2">  1       21 0.14853745E-03 0.50915539E+01</pdfrwt>
<totfact> 0.47260797E+09</totfact>
</mgrwt>
</event>
<event>
 4    1  0.3906087E+006  0.8967720E+01  0.7546771E-02  0.2138982E+00
         21   -1    0    0  501  502  0.00000000000E+00  0.00000000000E+00  0.16944605686E+02  0.16944605686E+02  0.00000000000E+00 0. -1.
         21   -1    0    0  502  503 -0.00000000000E+00 -0.00000000000E+00 -0.75232324407E+01  0.75232324407E+01  0.00000000000E+00 0. -1.
          5    1    1    2  501    0  0.68201664958E+01 -0.34373438747E+01  0.12143706600E+02  0.15096013180E+02  0.47000000000E+01 0. -1.
         -5    1    1    2    0  503 -0.68201664958E+01  0.34373438747E+01 -0.27223333545E+01  0.93718249470E+01  0.47000000000E+01 0. -1.
<mgrwt>
<rscale>  2 0.89677201E+01</rscale>
<asrwt>0</asrwt>
<pdfrwt beam="1">  1       21 0.26068624E-02 0.89677201E+01</pdfrwt>
<pdfrwt beam="2">  1       21 0.11574204E-02 0.89677201E+01</pdfrwt>
<totfact> 0.86518650E+08</totfact>
</mgrwt>
</event>
<event>
 4    1  0.3906087E+006  0.6838428E+01  0.7546771E-02  0.2317597E+00
         21   -1    0    0  501  502  0.00000000000E+00  0.00000000000E+00  0.43604874265E+00  0.43604874265E+00  0.00000000000E+00 0.  1.
         21   -1    0    0  502  503 -0.00000000000E+00 -0.00000000000E+00 -0.12510779949E+03  0.12510779949E+03  0.00000000000E+00 0.  1.
          5    1    1    2  501    0  0.14538796084E+01  0.47497717661E+01 -0.38616862731E+02  0.39217676945E+02  0.47000000000E+01 0.  1.
         -5    1    1    2    0  503 -0.14538796084E+01 -0.47497717661E+01 -0.86054888014E+02  0.86326171285E+02  0.47000000000E+01 0.  1.
<mgrwt>
<rscale>  2 0.68384280E+01</rscale>
<asrwt>0</asrwt>
<pdfrwt beam="1">  1       21 0.67084493E-04 0.68384280E+01</pdfrwt>
<pdfrwt beam="2">  1       21 0.19247334E-01 0.68384280E+01</pdfrwt>
<totfact> 0.17473888E+09</totfact>
</mgrwt>
</event>
<event>
 4    1  0.3906087E+006  0.6033708E+01  0.7546771E-02  0.2411057E+00
         21   -1    0    0  501  502  0.00000000000E+00  0.00000000000E+00  0.76169903999E-01  0.76169903999E-01  0.00000000000E+00 0.  1.
         21   -1    0    0  502  503 -0.00000000000E+00 -0.00000000000E+00 -0.64737337243E+03  0.64737337243E+03  0.00000000000E+00 0. -1.
          5    1    1    2  501    0  0.31191450209E+01 -0.21416282717E+01 -0.15804061404E+03  0.15815575020E+03  0.47000000000E+01 0.  1.
         -5    1    1    2    0  503 -0.31191450209E+01  0.21416282717E+01 -0.48925658849E+03  0.48929379214E+03  0.47000000000E+01 0. -1.
<mgrwt>
<rscale>  2 0.60337084E+01</rscale>
<asrwt>0</asrwt>
<pdfrwt beam="1">  1       21 0.11718292E-04 0.60337084E+01</pdfrwt>
<pdfrwt beam="2">  1       21 0.99597215E-01 0.60337084E+01</pdfrwt>
<totfact> 0.86837568E+08</totfact>
</mgrwt>
</event>
<event>
 4    1  0.3906087E+006  0.1385731E+02  0.7546771E-02  0.1905082E+00
         21   -1    0    0  501  502  0.00000000000E+00  0.00000000000E+00  0.76928937040E+02  0.76928937040E+02  0.00000000000E+00 0. -1.
         21   -1    0    0  502  503 -0.00000000000E+00 -0.00000000000E+00 -0.65335479643E+01  0.65335479643E+01  0.00000000000E+00 0.  1.
          5    1    1    2  501    0  0.42126660887E+01  0.12336467063E+02  0.68002569461E+02  0.69400103951E+02  0.47000000000E+01 0. -1.
         -5    1    1    2    0  503 -0.42126660887E+01 -0.12336467063E+02  0.23928196145E+01  0.14062381053E+02  0.47000000000E+01 0.  1.
<mgrwt>
<rscale>  2 0.13857308E+02</rscale>
<asrwt>0</asrwt>
<pdfrwt beam="1">  1       21 0.11835220E-01 0.13857308E+02</pdfrwt>
<pdfrwt beam="2">  1       21 0.10051613E-02 0.13857308E+02</pdfrwt>
<totfact> 0.12627576E+08</totfact>
</mgrwt>
</event>
<event>
 4    1  0.3906087E+006  0.6127847E+01  0.7546771E-02  0.2399075E+00
         21   -1    0    0  501  502  0.00000000000E+00  0.00000000000E+00  0.28610777680E+03  0.28610777680E+03  0.00000000000E+00 0.  1.
         21   -1    0    0  502  503 -0.00000000000E+00 -0.00000000000E+00 -0.24506953238E+00  0.24506953238E+00  0.00000000000E+00 0.  1.
          5    1    1    2  501    0 -0.23389791232E+01  0.31606460008E+01  0.24050731583E+03  0.24058536837E+03  0.47000000000E+01 0.  1.
         -5    1    1    2    0  503  0.23389791232E+01 -0.31606460008E+01  0.45355391437E+02  0.45767477961E+02  0.47000000000E+01 0.  1.
<mgrwt>
<rscale>  2 0.61278468E+01</rscale>
<asrwt>0</asrwt>
<pdfrwt beam="1">  1       21 0.44016314E-01 0.61278468E+01</pdfrwt>
<pdfrwt beam="2">  1       21 0.37703234E-04 0.61278468E+01</pdfrwt>
<totfact> 0.86300427E+08</totfact>
</mgrwt>
</event>
<event>
 4    1  0.3906087E+006  0.4996088E+01  0.7546771E-02  0.2567848E+00
         21   -1    0    0  501  502  0.00000000000E+00  0.00000000000E+00  0.53423941234E+03  0.53423941234E+03  0.00000000000E+00 0. -1.
         21   -1    0    0  502  503 -0.00000000000E+00 -0.00000000000E+00 -0.77695609426E-01  0.77695609426E-01  0.00000000000E+00 0. -1.
          5    1    1    2  501    0  0.11750870672E+01 -0.12206819230E+01  0.43576127015E+03  0.43578990977E+03  0.47000000000E+01 0. -1.
         -5    1    1    2    0  503 -0.11750870672E+01  0.12206819230E+01  0.98400446573E+02  0.98527198173E+02  0.47000000000E+01 0. -1.
<mgrwt>
<rscale>  2 0.49960879E+01</rscale>
<asrwt>0</asrwt>
<pdfrwt beam="1">  1       21 0.82187737E-01 0.49960879E+01</pdfrwt>
<pdfrwt beam="2">  1       21 0.11953598E-04 0.49960879E+01</pdfrwt>
<totfact> 0.10744941E+09</totfact>
</mgrwt>
</event>
<event>
 4    1  0.3906087E+006  0.5129426E+01  0.7546771E-02  0.2544694E+00
         21   -1    0    0  501  502  0.00000000000E+00  0.00000000000E+00  0.71344072343E+02  0.71344072343E+02  0.00000000000E+00 0.  1.
         21   -1    0    0  502  503 -0.00000000000E+00 -0.00000000000E+00 -0.37045858372E+00  0.37045858372E+00  0.00000000000E+00 0.  1.
          5    1    1    2  501    0  0.10032478969E+01 -0.17929027704E+01  0.37893016472E+02  0.38238615352E+02  0.47000000000E+01 0. -1.
         -5    1    1    2    0  503 -0.10032478969E+01  0.17929027704E+01  0.33080597287E+02  0.33475915575E+02  0.47000000000E+01 0. -1.
<mgrwt>
<rscale>  2 0.51294256E+01</rscale>
<asrwt>0</asrwt>
<pdfrwt beam="1">  1       21 0.10976000E-01 0.51294256E+01</pdfrwt>
<pdfrwt beam="2">  1       21 0.56993685E-04 0.51294256E+01</pdfrwt>
<totfact> 0.41143176E+09</totfact>
</mgrwt>
</event>
<event>
 4    1  0.3906087E+006  0.5050647E+01  0.7546771E-02  0.2558247E+00
         21   -1    0    0  501  502  0.00000000000E+00  0.00000000000E+00  0.34953254523E+00  0.34953254523E+00  0.00000000000E+00 0. -1.
         21   -1    0    0  502  503 -0.00000000000E+00 -0.00000000000E+00 -0.12736777297E+03  0.12736777297E+03  0.00000000000E+00 0. -1.
          5    1    1    2  501    0 -0.18012793372E+01  0.41764759681E+00 -0.21780033439E+02  0.22357971585E+02  0.47000000000E+01 0. -1.
         -5    1    1    2    0  503  0.18012793372E+01 -0.41764759681E+00 -0.10523820699E+03  0.10535933393E+03  0.47000000000E+01 0. -1.
<mgrwt>
<rscale>  2 0.50506472E+01</rscale>
<asrwt>0</asrwt>
<pdfrwt beam="1">  1       21 0.53774310E-04 0.50506472E+01</pdfrwt>
<pdfrwt beam="2">  1       21 0.19595016E-01 0.50506472E+01</pdfrwt>
<totfact> 0.17780045E+09</totfact>
</mgrwt>
</event>
<event>
 4    1  0.3906087E+006  0.1610216E+02  0.7546771E-02  0.1836187E+00
         21   -1    0    0  501  502  0.00000000000E+00  0.00000000000E+00  0.36507975879E+01  0.36507975879E+01  0.00000000000E+00 0. -1.
         21   -1    0    0  502  503 -0.00000000000E+00 -0.00000000000E+00 -0.88913950197E+02  0.88913950197E+02  0.00000000000E+00 0.  1.
          5    1    1    2  501    0  0.17470054146E+01  0.15301556023E+02 -0.21868878346E+02  0.27157457259E+02  0.47000000000E+01 0. -1.
         -5    1    1    2    0  503 -0.17470054146E+01 -0.15301556023E+02 -0.63394274263E+02  0.65407290526E+02  0.47000000000E+01 0.  1.
<mgrwt>
<rscale>  2 0.16102163E+02</rscale>
<asrwt>0</asrwt>
<pdfrwt beam="1">  1       21 0.56166118E-03 0.16102163E+02</pdfrwt>
<pdfrwt beam="2">  1       21 0.13679069E-01 0.16102163E+02</pdfrwt>
<totfact> 0.24711223E+08</totfact>
</mgrwt>
</event>
<event>
 4    1  0.3906087E+006  0.5661235E+01  0.7546771E-02  0.2461716E+00
         21   -1    0    0  503  502  0.00000000000E+00  0.00000000000E+00  0.86549478196E+00  0.86549478196E+00  0.00000000000E+00 0. -1.
         21   -1    0    0  501  503 -0.00000000000E+00 -0.00000000000E+00 -0.91789098056E+02  0.91789098056E+02  0.00000000000E+00 0. -1.
          5    1    1    2  501    0  0.30059845564E+01 -0.96106013290E+00 -0.96795111407E+01  0.11213497031E+02  0.47000000000E+01 0. -1.
         -5    1    1    2    0  502 -0.30059845564E+01  0.96106013290E+00 -0.81244092134E+02  0.81441095808E+02  0.47000000000E+01 0. -1.
<mgrwt>
<rscale>  2 0.56612348E+01</rscale>
<asrwt>0</asrwt>
<pdfrwt beam="1">  1       21 0.13315304E-03 0.56612348E+01</pdfrwt>
<pdfrwt beam="2">  1       21 0.14121400E-01 0.56612348E+01</pdfrwt>
<totfact> 0.98265854E+08</totfact>
</mgrwt>
</event>
<event>
 4    1  0.3906087E+006  0.5673489E+01  0.7546771E-02  0.2459961E+00
         21   -1    0    0  501  502  0.00000000000E+00  0.00000000000E+00  0.32759080585E+02  0.32759080585E+02  0.00000000000E+00 0. -1.
         21   -1    0    0  502  503 -0.00000000000E+00 -0.00000000000E+00 -0.29618919741E+02  0.29618919741E+02  0.00000000000E+00 0.  1.
          5    1    1    2  501    0 -0.22544741005E+01 -0.22396035668E+01  0.32237383438E+02  0.32732817913E+02  0.47000000000E+01 0. -1.
         -5    1    1    2    0  503  0.22544741005E+01  0.22396035668E+01 -0.29097222594E+02  0.29645182412E+02  0.47000000000E+01 0.  1.
<mgrwt>
<rscale>  2 0.56734890E+01</rscale>
<asrwt>0</asrwt>
<pdfrwt beam="1">  1       21 0.50398586E-02 0.56734890E+01</pdfrwt>
<pdfrwt beam="2">  1       21 0.45567569E-02 0.56734890E+01</pdfrwt>
<totfact> 0.33284630E+07</totfact>
</mgrwt>
</event>
<event>
 4    1  0.3906087E+006  0.6505987E+01  0.7546771E-02  0.2353880E+00
         21   -1    0    0  503  502  0.00000000000E+00  0.00000000000E+00  0.66360331865E+02  0.66360331865E+02  0.00000000000E+00 0. -1.
         21   -1    0    0  501  503 -0.00000000000E+00 -0.00000000000E+00 -0.23209966643E+01  0.23209966643E+01  0.00000000000E+00 0. -1.
          5    1    1    2  501    0  0.44509203016E+01  0.65358898049E+00  0.27759524318E+01  0.70734561559E+01  0.47000000000E+01 0. -1.
         -5    1    1    2    0  502 -0.44509203016E+01 -0.65358898049E+00  0.61263382769E+02  0.61607872374E+02  0.47000000000E+01 0. -1.
<mgrwt>
<rscale>  2 0.65059872E+01</rscale>
<asrwt>0</asrwt>
<pdfrwt beam="1">  1       21 0.10209280E-01 0.65059872E+01</pdfrwt>
<pdfrwt beam="2">  1       21 0.35707646E-03 0.65059872E+01</pdfrwt>
<totfact> 0.47070586E+08</totfact>
</mgrwt>
</event>
<event>
 4    1  0.3906087E+006  0.5513432E+01  0.7546771E-02  0.2483409E+00
         21   -1    0    0  503  502  0.00000000000E+00  0.00000000000E+00  0.33473429873E+01  0.33473429873E+01  0.00000000000E+00 0. -1.
         21   -1    0    0  501  503 -0.00000000000E+00 -0.00000000000E+00 -0.15019084899E+02  0.15019084899E+02  0.00000000000E+00 0. -1.
          5    1    1    2  501    0  0.28514103979E+01  0.42117612749E+00 -0.11610025754E+02  0.12852650645E+02  0.47000000000E+01 0. -1.
         -5    1    1    2    0  502 -0.28514103979E+01 -0.42117612749E+00 -0.61716157981E-01  0.55137772418E+01  0.47000000000E+01 0. -1.
<mgrwt>
<rscale>  2 0.55134318E+01</rscale>
<asrwt>0</asrwt>
<pdfrwt beam="1">  1       21 0.51497584E-03 0.55134318E+01</pdfrwt>
<pdfrwt beam="2">  1       21 0.23106285E-02 0.55134318E+01</pdfrwt>
<totfact> 0.22462038E+09</totfact>
</mgrwt>
</event>
<event>
 4    1  0.3906087E+006  0.1449719E+02  0.7546771E-02  0.1883811E+00
         21   -1    0    0  503  502  0.00000000000E+00  0.00000000000E+00  0.26786338604E+02  0.26786338604E+02  0.00000000000E+00 0. -1.
         21   -1    0    0  501  503 -0.00000000000E+00 -0.00000000000E+00 -0.78552907714E+01  0.78552907714E+01  0.00000000000E+00 0.  1.
          5    1    1    2  501    0 -0.11627127160E+02 -0.72724383977E+01  0.88732447121E+01  0.16997144406E+02  0.47000000000E+01 0. -1.
         -5    1    1    2    0  502  0.11627127160E+02  0.72724383977E+01  0.10057803121E+02  0.17644484970E+02  0.47000000000E+01 0.  1.
<mgrwt>
<rscale>  2 0.14497188E+02</rscale>
<asrwt>0</asrwt>
<pdfrwt beam="1">  1       21 0.41209751E-02 0.14497188E+02</pdfrwt>
<pdfrwt beam="2">  1       21 0.12085063E-02 0.14497188E+02</pdfrwt>
<totfact> 0.52238432E+08</totfact>
</mgrwt>
</event>
<event>
 4    1  0.3906087E+006  0.1408705E+02  0.7546771E-02  0.1897277E+00
         21   -1    0    0  501  502  0.00000000000E+00  0.00000000000E+00  0.31228132400E+01  0.31228132400E+01  0.00000000000E+00 0.  1.
         21   -1    0    0  502  503 -0.00000000000E+00 -0.00000000000E+00 -0.11890225963E+03  0.11890225963E+03  0.00000000000E+00 0. -1.
          5    1    1    2  501    0  0.12902714316E+02  0.31424468837E+01 -0.16259956280E+02  0.21513511739E+02  0.47000000000E+01 0.  1.
         -5    1    1    2    0  503 -0.12902714316E+02 -0.31424468837E+01 -0.99519490111E+02  0.10051156113E+03  0.47000000000E+01 0. -1.
<mgrwt>
<rscale>  2 0.14087051E+02</rscale>
<asrwt>0</asrwt>
<pdfrwt beam="1">  1       21 0.48043286E-03 0.14087051E+02</pdfrwt>
<pdfrwt beam="2">  1       21 0.18292653E-01 0.14087051E+02</pdfrwt>
<totfact> 0.18104282E+08</totfact>
</mgrwt>
</event>
<event>
 4    1  0.3906087E+006  0.5290297E+01  0.7546771E-02  0.2518096E+00
         21   -1    0    0  503  502  0.00000000000E+00  0.00000000000E+00  0.26388281033E+01  0.26388281033E+01  0.00000000000E+00 0. -1.
         21   -1    0    0  501  503 -0.00000000000E+00 -0.00000000000E+00 -0.32356136852E+02  0.32356136852E+02  0.00000000000E+00 0. -1.
          5    1    1    2  501    0  0.20792414622E+01 -0.12545925922E+01 -0.29204589084E+02  0.29679879906E+02  0.47000000000E+01 0. -1.
         -5    1    1    2    0  502 -0.20792414622E+01  0.12545925922E+01 -0.51271966432E+00  0.53150850496E+01  0.47000000000E+01 0. -1.
<mgrwt>
<rscale>  2 0.52902975E+01</rscale>
<asrwt>0</asrwt>
<pdfrwt beam="1">  1       21 0.40597355E-03 0.52902975E+01</pdfrwt>
<pdfrwt beam="2">  1       21 0.49778673E-02 0.52902975E+01</pdfrwt>
<totfact> 0.98642673E+08</totfact>
</mgrwt>
</event>
<event>
 4    1  0.3906087E+006  0.4841620E+01  0.7546771E-02  0.2596041E+00
         21   -1    0    0  503  502  0.00000000000E+00  0.00000000000E+00  0.17411307299E+02  0.17411307299E+02  0.00000000000E+00 0.  1.
         21   -1    0    0  501  503 -0.00000000000E+00 -0.00000000000E+00 -0.15124809913E+01  0.15124809913E+01  0.00000000000E+00 0.  1.
          5    1    1    2  501    0 -0.87408769285E+00 -0.76632356581E+00  0.11085520465E+02  0.12096695626E+02  0.47000000000E+01 0.  1.
         -5    1    1    2    0  502  0.87408769285E+00  0.76632356581E+00  0.48133058427E+01  0.68270926636E+01  0.47000000000E+01 0.  1.
<mgrwt>
<rscale>  2 0.48416197E+01</rscale>
<asrwt>0</asrwt>
<pdfrwt beam="1">  1       21 0.26786625E-02 0.48416197E+01</pdfrwt>
<pdfrwt beam="2">  1       21 0.23268940E-03 0.48416197E+01</pdfrwt>
<totfact> 0.47188858E+09</totfact>
</mgrwt>
</event>
<event>
 4    1  0.3906087E+006  0.8260445E+01  0.7546771E-02  0.2190018E+00
         21   -1    0    0  503  502  0.00000000000E+00  0.00000000000E+00  0.67638683330E+00  0.67638683330E+00  0.00000000000E+00 0. -1.
         21   -1    0    0  501  503 -0.00000000000E+00 -0.00000000000E+00 -0.40007466895E+03  0.40007466895E+03  0.00000000000E+00 0.  1.
          5    1    1    2  501    0 -0.13096733953E+01 -0.66655614820E+01 -0.37297974403E+03  0.37307120555E+03  0.47000000000E+01 0.  1.
         -5    1    1    2    0  502  0.13096733953E+01  0.66655614820E+01 -0.26418538089E+02  0.27679850235E+02  0.47000000000E+01 0. -1.
<mgrwt>
<rscale>  2 0.82604452E+01</rscale>
<asrwt>0</asrwt>
<pdfrwt beam="1">  1       21 0.10405944E-03 0.82604452E+01</pdfrwt>
<pdfrwt beam="2">  1       21 0.61549991E-01 0.82604452E+01</pdfrwt>
<totfact> 0.14176099E+08</totfact>
</mgrwt>
</event>
<event>
 4    1  0.3906087E+006  0.8406526E+01  0.7546771E-02  0.2178916E+00
         21   -1    0    0  501  502  0.00000000000E+00  0.00000000000E+00  0.11234042801E+03  0.11234042801E+03  0.00000000000E+00 0.  1.
         21   -1    0    0  502  503 -0.00000000000E+00 -0.00000000000E+00 -0.32515927331E+01  0.32515927331E+01  0.00000000000E+00 0. -1.
          5    1    1    2  501    0 -0.59697305737E+01  0.35974984594E+01  0.10644947208E+03  0.10678089616E+03  0.47000000000E+01 0.  1.
         -5    1    1    2    0  503  0.59697305737E+01 -0.35974984594E+01  0.26393631910E+01  0.88111245787E+01  0.47000000000E+01 0. -1.
<mgrwt>
<rscale>  2 0.84065259E+01</rscale>
<asrwt>0</asrwt>
<pdfrwt beam="1">  1       21 0.17283140E-01 0.84065259E+01</pdfrwt>
<pdfrwt beam="2">  1       21 0.50024512E-03 0.84065259E+01</pdfrwt>
<totfact> 0.14874849E+08</totfact>
</mgrwt>
</event>
<event>
 4    1  0.3906087E+006  0.4907417E+01  0.7546771E-02  0.2583845E+00
         21   -1    0    0  503  502  0.00000000000E+00  0.00000000000E+00  0.45114662939E+01  0.45114662939E+01  0.00000000000E+00 0. -1.
         21   -1    0    0  501  503 -0.00000000000E+00 -0.00000000000E+00 -0.62896079198E+01  0.62896079198E+01  0.00000000000E+00 0. -1.
          5    1    1    2  501    0 -0.82926536386E+00 -0.11423944742E+01 -0.29895913026E+01  0.57463381675E+01  0.47000000000E+01 0. -1.
         -5    1    1    2    0  502  0.82926536386E+00  0.11423944742E+01  0.12114496766E+01  0.50547360463E+01  0.47000000000E+01 0. -1.
<mgrwt>
<rscale>  2 0.49074175E+01</rscale>
<asrwt>0</asrwt>
<pdfrwt beam="1">  1       21 0.69407174E-03 0.49074175E+01</pdfrwt>
<pdfrwt beam="2">  1       21 0.96763198E-03 0.49074175E+01</pdfrwt>
<totfact> 0.45205202E+09</totfact>
</mgrwt>
</event>
<event>
 4    1  0.3906087E+006  0.5012205E+01  0.7546771E-02  0.2564993E+00
         21   -1    0    0  503  502  0.00000000000E+00  0.00000000000E+00  0.19409401004E+00  0.19409401004E+00  0.00000000000E+00 0.  1.
         21   -1    0    0  501  503 -0.00000000000E+00 -0.00000000000E+00 -0.13400785146E+03  0.13400785146E+03  0.00000000000E+00 0.  1.
          5    1    1    2  501    0  0.11163969217E+01 -0.13363578476E+01 -0.79304724517E+02  0.79462956936E+02  0.47000000000E+01 0.  1.
         -5    1    1    2    0  502 -0.11163969217E+01  0.13363578476E+01 -0.54509032935E+02  0.54738988536E+02  0.47000000000E+01 0.  1.
<mgrwt>
<rscale>  2 0.50122045E+01</rscale>
<asrwt>0</asrwt>
<pdfrwt beam="1">  1       21 0.29860634E-04 0.50122045E+01</pdfrwt>
<pdfrwt beam="2">  1       21 0.20616581E-01 0.50122045E+01</pdfrwt>
<totfact> 0.35494691E+09</totfact>
</mgrwt>
</event>
<event>
 4    1  0.3906087E+006  0.5665344E+01  0.7546771E-02  0.2461127E+00
         21   -1    0    0  503  502  0.00000000000E+00  0.00000000000E+00  0.11760764764E+03  0.11760764764E+03  0.00000000000E+00 0. -1.
         21   -1    0    0  501  503 -0.00000000000E+00 -0.00000000000E+00 -0.60686422953E+00  0.60686422953E+00  0.00000000000E+00 0. -1.
          5    1    1    2  501    0  0.12046041022E+01  0.29249025385E+01  0.14653432363E+02  0.15710480766E+02  0.47000000000E+01 0. -1.
         -5    1    1    2    0  502 -0.12046041022E+01 -0.29249025385E+01  0.10234735105E+03  0.10250403110E+03  0.47000000000E+01 0. -1.
<mgrwt>
<rscale>  2 0.56653443E+01</rscale>
<asrwt>0</asrwt>
<pdfrwt beam="1">  1       21 0.18093466E-01 0.56653443E+01</pdfrwt>
<pdfrwt beam="2">  1       21 0.93363821E-04 0.56653443E+01</pdfrwt>
<totfact> 0.10705457E+09</totfact>
</mgrwt>
</event>
<event>
 4    1  0.3906087E+006  0.6235565E+01  0.7546771E-02  0.2385737E+00
         21   -1    0    0  503  502  0.00000000000E+00  0.00000000000E+00  0.18333914799E+02  0.18333914799E+02  0.00000000000E+00 0.  1.
         21   -1    0    0  501  503 -0.00000000000E+00 -0.00000000000E+00 -0.22474182003E+01  0.22474182003E+01  0.00000000000E+00 0. -1.
          5    1    1    2  501    0  0.39318412607E+01 -0.11545084821E+01  0.10485991294E+02  0.12199929465E+02  0.47000000000E+01 0. -1.
         -5    1    1    2    0  502 -0.39318412607E+01  0.11545084821E+01  0.56005053043E+01  0.83814035339E+01  0.47000000000E+01 0. -1.
<mgrwt>
<rscale>  2 0.62355646E+01</rscale>
<asrwt>0</asrwt>
<pdfrwt beam="1">  1       21 0.28206022E-02 0.62355646E+01</pdfrwt>
<pdfrwt beam="2">  1       21 0.34575666E-03 0.62355646E+01</pdfrwt>
<totfact> 0.32580024E+09</totfact>
</mgrwt>
</event>
<event>
 4    1  0.3906087E+006  0.6929822E+01  0.7546771E-02  0.2308127E+00
         21   -1    0    0  503  502  0.00000000000E+00  0.00000000000E+00  0.80405140377E-01  0.80405140377E-01  0.00000000000E+00 0.  1.
         21   -1    0    0  501  503 -0.00000000000E+00 -0.00000000000E+00 -0.64185181002E+03  0.64185181002E+03  0.00000000000E+00 0.  1.
          5    1    1    2  501    0 -0.14337629234E+00  0.50903710586E+01 -0.40548951291E+03  0.40554872397E+03  0.47000000000E+01 0.  1.
         -5    1    1    2    0  502  0.14337629234E+00 -0.50903710586E+01 -0.23628189197E+03  0.23638349119E+03  0.47000000000E+01 0.  1.
<mgrwt>
<rscale>  2 0.69298221E+01</rscale>
<asrwt>0</asrwt>
<pdfrwt beam="1">  1       21 0.12369965E-04 0.69298221E+01</pdfrwt>
<pdfrwt beam="2">  1       21 0.98746888E-01 0.69298221E+01</pdfrwt>
<totfact> 0.89880476E+08</totfact>
</mgrwt>
</event>
<event>
 4    1  0.3906087E+006  0.6870522E+01  0.7546771E-02  0.2314248E+00
         21   -1    0    0  501  502  0.00000000000E+00  0.00000000000E+00  0.19467015051E+02  0.19467015051E+02  0.00000000000E+00 0.  1.
         21   -1    0    0  502  503 -0.00000000000E+00 -0.00000000000E+00 -0.43720420657E+01  0.43720420657E+01  0.00000000000E+00 0.  1.
          5    1    1    2  501    0  0.40158224614E+01  0.29978738640E+01  0.15502194652E+02  0.16956477133E+02  0.47000000000E+01 0.  1.
         -5    1    1    2    0  503 -0.40158224614E+01 -0.29978738640E+01 -0.40722166641E+00  0.68825799836E+01  0.47000000000E+01 0.  1.
<mgrwt>
<rscale>  2 0.68705224E+01</rscale>
<asrwt>0</asrwt>
<pdfrwt beam="1">  1       21 0.29949253E-02 0.68705224E+01</pdfrwt>
<pdfrwt beam="2">  1       21 0.67262187E-03 0.68705224E+01</pdfrwt>
<totfact> 0.12758709E+09</totfact>
</mgrwt>
</event>
<event>
 4    1  0.3906087E+006  0.7340465E+01  0.7546771E-02  0.2267980E+00
         21   -1    0    0  503  502  0.00000000000E+00  0.00000000000E+00  0.41251235487E+01  0.41251235487E+01  0.00000000000E+00 0.  1.
         21   -1    0    0  501  503 -0.00000000000E+00 -0.00000000000E+00 -0.30733359484E+02  0.30733359484E+02  0.00000000000E+00 0.  1.
          5    1    1    2  501    0  0.56229416367E+01  0.41827613659E+00 -0.26520368444E+02  0.27517492073E+02  0.47000000000E+01 0.  1.
         -5    1    1    2    0  502 -0.56229416367E+01 -0.41827613659E+00 -0.87867491387E-01  0.73409909599E+01  0.47000000000E+01 0.  1.
<mgrwt>
<rscale>  2 0.73404651E+01</rscale>
<asrwt>0</asrwt>
<pdfrwt beam="1">  1       21 0.63463440E-03 0.73404651E+01</pdfrwt>
<pdfrwt beam="2">  1       21 0.47282091E-02 0.73404651E+01</pdfrwt>
<totfact> 0.73803543E+08</totfact>
</mgrwt>
</event>
<event>
 4    1  0.3906087E+006  0.5412209E+01  0.7546771E-02  0.2498843E+00
         21   -1    0    0  503  502  0.00000000000E+00  0.00000000000E+00  0.56098232945E-01  0.56098232945E-01  0.00000000000E+00 0. -1.
         21   -1    0    0  501  503 -0.00000000000E+00 -0.00000000000E+00 -0.14393738954E+04  0.14393738954E+04  0.00000000000E+00 0.  1.
          5    1    1    2  501    0  0.23643079190E+01  0.12696650661E+01 -0.12941854676E+04  0.12941967843E+04  0.47000000000E+01 0.  1.
         -5    1    1    2    0  502 -0.23643079190E+01 -0.12696650661E+01 -0.14513232957E+03  0.14523320932E+03  0.47000000000E+01 0. -1.
<mgrwt>
<rscale>  2 0.54122085E+01</rscale>
<asrwt>0</asrwt>
<pdfrwt beam="1">  1       21 0.86299189E-05 0.54122085E+01</pdfrwt>
<pdfrwt beam="2">  1       21 0.22145698E+00 0.54122085E+01</pdfrwt>
<totfact> 0.22064286E+08</totfact>
</mgrwt>
</event>
<event>
 4    1  0.3906087E+006  0.5468239E+01  0.7546771E-02  0.2490240E+00
         21   -1    0    0  503  502  0.00000000000E+00  0.00000000000E+00  0.47620181815E-01  0.47620181815E-01  0.00000000000E+00 0.  1.
         21   -1    0    0  501  503 -0.00000000000E+00 -0.00000000000E+00 -0.66002489639E+03  0.66002489639E+03  0.00000000000E+00 0.  1.
          5    1    1    2  501    0 -0.18921567466E+01  0.20570314536E+01 -0.40277855989E+03  0.40281567738E+03  0.47000000000E+01 0.  1.
         -5    1    1    2    0  502  0.18921567466E+01 -0.20570314536E+01 -0.25719871632E+03  0.25725683919E+03  0.47000000000E+01 0.  1.
<mgrwt>
<rscale>  2 0.54682388E+01</rscale>
<asrwt>0</asrwt>
<pdfrwt beam="1">  1       21 0.73266295E-05 0.54682388E+01</pdfrwt>
<pdfrwt beam="2">  1       21 0.10153609E+00 0.54682388E+01</pdfrwt>
<totfact> 0.14558526E+09</totfact>
</mgrwt>
</event>
<event>
 4    1  0.3906087E+006  0.6033521E+01  0.7546771E-02  0.2411081E+00
         21   -1    0    0  501  502  0.00000000000E+00  0.00000000000E+00  0.50262946654E+01  0.50262946654E+01  0.00000000000E+00 0.  1.
         21   -1    0    0  502  503 -0.00000000000E+00 -0.00000000000E+00 -0.11156447744E+02  0.11156447744E+02  0.00000000000E+00 0.  1.
          5    1    1    2  501    0 -0.36649060843E+01 -0.93906595213E+00  0.17274197636E+01  0.62759350306E+01  0.47000000000E+01 0.  1.
         -5    1    1    2    0  503  0.36649060843E+01  0.93906595213E+00 -0.78575728422E+01  0.99068073787E+01  0.47000000000E+01 0.  1.
<mgrwt>
<rscale>  2 0.60335215E+01</rscale>
<asrwt>0</asrwt>
<pdfrwt beam="1">  1       21 0.77327611E-03 0.60335215E+01</pdfrwt>
<pdfrwt beam="2">  1       21 0.17163766E-02 0.60335215E+01</pdfrwt>
<totfact> 0.21140264E+09</totfact>
</mgrwt>
</event>
<event>
 4    1  0.3906087E+006  0.6018956E+01  0.7546771E-02  0.2412963E+00
         21   -1    0    0  503  502  0.00000000000E+00  0.00000000000E+00  0.30009033914E+02  0.30009033914E+02  0.00000000000E+00 0.  1.
         21   -1    0    0  501  503 -0.00000000000E+00 -0.00000000000E+00 -0.67889703434E+01  0.67889703434E+01  0.00000000000E+00 0.  1.
          5    1    1    2  501    0  0.28929298759E+01  0.24018293018E+01 -0.50730815902E+01  0.78717205287E+01  0.47000000000E+01 0.  1.
         -5    1    1    2    0  502 -0.28929298759E+01 -0.24018293018E+01  0.28293145161E+02  0.28926283729E+02  0.47000000000E+01 0.  1.
<mgrwt>
<rscale>  2 0.60189557E+01</rscale>
<asrwt>0</asrwt>
<pdfrwt beam="1">  1       21 0.46167744E-02 0.60189557E+01</pdfrwt>
<pdfrwt beam="2">  1       21 0.10444570E-02 0.60189557E+01</pdfrwt>
<totfact> 0.32830811E+08</totfact>
</mgrwt>
</event>
<event>
 4    1  0.3906087E+006  0.5041817E+01  0.7546771E-02  0.2559788E+00
         21   -1    0    0  501  502  0.00000000000E+00  0.00000000000E+00  0.16357846591E+02  0.16357846591E+02  0.00000000000E+00 0.  1.
         21   -1    0    0  502  503 -0.00000000000E+00 -0.00000000000E+00 -0.13152814552E+02  0.13152814552E+02  0.00000000000E+00 0.  1.
          5    1    1    2  501    0  0.60328327462E+00  0.17221994985E+01  0.15458794216E+02  0.16260204194E+02  0.47000000000E+01 0.  1.
         -5    1    1    2    0  503 -0.60328327462E+00 -0.17221994985E+01 -0.12253762178E+02  0.13250456948E+02  0.47000000000E+01 0.  1.
<mgrwt>
<rscale>  2 0.50418173E+01</rscale>
<asrwt>0</asrwt>
<pdfrwt beam="1">  1       21 0.25165918E-02 0.50418173E+01</pdfrwt>
<pdfrwt beam="2">  1       21 0.20235099E-02 0.50418173E+01</pdfrwt>
<totfact> 0.26985462E+08</totfact>
</mgrwt>
</event>
<event>
 4    1  0.3906087E+006  0.5191778E+01  0.7546771E-02  0.2534217E+00
         21   -1    0    0  501  502  0.00000000000E+00  0.00000000000E+00  0.78173475492E+00  0.78173475492E+00  0.00000000000E+00 0.  1.
         21   -1    0    0  502  503 -0.00000000000E+00 -0.00000000000E+00 -0.46358923291E+02  0.46358923291E+02  0.00000000000E+00 0.  1.
          5    1    1    2  501    0 -0.12163020996E+01 -0.18398836252E+01 -0.10857524891E+02  0.12034966112E+02  0.47000000000E+01 0.  1.
         -5    1    1    2    0  503  0.12163020996E+01  0.18398836252E+01 -0.34719663645E+02  0.35105691934E+02  0.47000000000E+01 0.  1.
<mgrwt>
<rscale>  2 0.51917784E+01</rscale>
<asrwt>0</asrwt>
<pdfrwt beam="1">  1       21 0.12026690E-03 0.51917784E+01</pdfrwt>
<pdfrwt beam="2">  1       21 0.71321415E-02 0.51917784E+01</pdfrwt>
<totfact> 0.29527857E+09</totfact>
</mgrwt>
</event>
<event>
 4    1  0.3906087E+006  0.8874233E+01  0.7546771E-02  0.2145354E+00
         21   -1    0    0  503  502  0.00000000000E+00  0.00000000000E+00  0.31898732013E+00  0.31898732013E+00  0.00000000000E+00 0. -1.
         21   -1    0    0  501  503 -0.00000000000E+00 -0.00000000000E+00 -0.67078271306E+03  0.67078271306E+03  0.00000000000E+00 0.  1.
          5    1    1    2  501    0  0.33540775518E+01 -0.67388559324E+01 -0.60197903668E+03  0.60204444406E+03  0.47000000000E+01 0.  1.
         -5    1    1    2    0  502 -0.33540775518E+01  0.67388559324E+01 -0.68484689056E+02  0.69057256321E+02  0.47000000000E+01 0. -1.
<mgrwt>
<rscale>  2 0.88742332E+01</rscale>
<asrwt>0</asrwt>
<pdfrwt beam="1">  1       21 0.49075015E-04 0.88742332E+01</pdfrwt>
<pdfrwt beam="2">  1       21 0.10319725E+00 0.88742332E+01</pdfrwt>
<totfact> 0.14606685E+08</totfact>
</mgrwt>
</event>
<event>
 4    1  0.3906087E+006  0.7186286E+01  0.7546771E-02  0.2282613E+00
         21   -1    0    0  503  502  0.00000000000E+00  0.00000000000E+00  0.37402087274E+01  0.37402087274E+01  0.00000000000E+00 0.  1.
         21   -1    0    0  501  503 -0.00000000000E+00 -0.00000000000E+00 -0.21816073811E+02  0.21816073811E+02  0.00000000000E+00 0.  1.
          5    1    1    2  501    0  0.52145120606E+01  0.15367409248E+01 -0.16780029362E+02  0.18254098008E+02  0.47000000000E+01 0.  1.
         -5    1    1    2    0  502 -0.52145120606E+01 -0.15367409248E+01 -0.12958357218E+01  0.73021845305E+01  0.47000000000E+01 0.  1.
<mgrwt>
<rscale>  2 0.71862862E+01</rscale>
<asrwt>0</asrwt>
<pdfrwt beam="1">  1       21 0.57541673E-03 0.71862862E+01</pdfrwt>
<pdfrwt beam="2">  1       21 0.33563190E-02 0.71862862E+01</pdfrwt>
<totfact> 0.13897938E+09</totfact>
</mgrwt>
</event>
<event>
 4    1  0.3906087E+006  0.5549917E+01  0.7546771E-02  0.2477963E+00
         21   -1    0    0  503  502  0.00000000000E+00  0.00000000000E+00  0.10395610775E+03  0.10395610775E+03  0.00000000000E+00 0.  1.
         21   -1    0    0  501  503 -0.00000000000E+00 -0.00000000000E+00 -0.44655938112E+00  0.44655938112E+00  0.00000000000E+00 0. -1.
          5    1    1    2  501    0  0.11010993459E+01  0.27384599981E+01  0.21473698976E+02  0.22179299597E+02  0.47000000000E+01 0. -1.
         -5    1    1    2    0  502 -0.11010993459E+01 -0.27384599981E+01  0.82035849395E+02  0.82223367535E+02  0.47000000000E+01 0.  1.
<mgrwt>
<rscale>  2 0.55499174E+01</rscale>
<asrwt>0</asrwt>
<pdfrwt beam="1">  1       21 0.15993228E-01 0.55499174E+01</pdfrwt>
<pdfrwt beam="2">  1       21 0.68701526E-04 0.55499174E+01</pdfrwt>
<totfact> 0.19273592E+09</totfact>
</mgrwt>
</event>
<event>
 4    1  0.3906087E+006  0.7526287E+01  0.7546771E-02  0.2250994E+00
         21   -1    0    0  503  502  0.00000000000E+00  0.00000000000E+00  0.21549704100E+02  0.21549704100E+02  0.00000000000E+00 0.  1.
         21   -1    0    0  501  503 -0.00000000000E+00 -0.00000000000E+00 -0.12362325943E+02  0.12362325943E+02  0.00000000000E+00 0.  1.
          5    1    1    2  501    0 -0.55647429001E+01 -0.18943696204E+01 -0.10452060415E+02  0.12879851192E+02  0.47000000000E+01 0.  1.
         -5    1    1    2    0  502  0.55647429001E+01  0.18943696204E+01  0.19639438572E+02  0.21032178851E+02  0.47000000000E+01 0.  1.
<mgrwt>
<rscale>  2 0.75262873E+01</rscale>
<asrwt>0</asrwt>
<pdfrwt beam="1">  1       21 0.33153391E-02 0.75262873E+01</pdfrwt>
<pdfrwt beam="2">  1       21 0.19018963E-02 0.75262873E+01</pdfrwt>
<totfact> 0.26425536E+08</totfact>
</mgrwt>
</event>
<event>
 4    1  0.3906087E+006  0.5058283E+01  0.7546771E-02  0.2556917E+00
         21   -1    0    0  503  502  0.00000000000E+00  0.00000000000E+00  0.10732149532E+01  0.10732149532E+01  0.00000000000E+00 0. -1.
         21   -1    0    0  501  503 -0.00000000000E+00 -0.00000000000E+00 -0.37340033535E+02  0.37340033535E+02  0.00000000000E+00 0.  1.
          5    1    1    2  501    0  0.17962855380E+01  0.51921716482E+00 -0.29681744074E+02  0.30109668870E+02  0.47000000000E+01 0.  1.
         -5    1    1    2    0  502 -0.17962855380E+01 -0.51921716482E+00 -0.65850745078E+01  0.83035796180E+01  0.47000000000E+01 0. -1.
<mgrwt>
<rscale>  2 0.50582831E+01</rscale>
<asrwt>0</asrwt>
<pdfrwt beam="1">  1       21 0.16511001E-03 0.50582831E+01</pdfrwt>
<pdfrwt beam="2">  1       21 0.57446201E-02 0.50582831E+01</pdfrwt>
<totfact> 0.25944253E+09</totfact>
</mgrwt>
</event>
<event>
 4    1  0.3906087E+006  0.5730383E+01  0.7546771E-02  0.2451894E+00
         21   -1    0    0  503  502  0.00000000000E+00  0.00000000000E+00  0.11400186020E+01  0.11400186020E+01  0.00000000000E+00 0.  1.
         21   -1    0    0  501  503 -0.00000000000E+00 -0.00000000000E+00 -0.51246444243E+02  0.51246444243E+02  0.00000000000E+00 0.  1.
          5    1    1    2  501    0  0.32492351615E+01  0.43561401756E+00 -0.42386887914E+02  0.42772485966E+02  0.47000000000E+01 0.  1.
         -5    1    1    2    0  502 -0.32492351615E+01 -0.43561401756E+00 -0.77195377274E+01  0.96139768791E+01  0.47000000000E+01 0.  1.
<mgrwt>
<rscale>  2 0.57303829E+01</rscale>
<asrwt>0</asrwt>
<pdfrwt beam="1">  1       21 0.17538749E-03 0.57303829E+01</pdfrwt>
<pdfrwt beam="2">  1       21 0.78840680E-02 0.57303829E+01</pdfrwt>
<totfact> 0.16742558E+09</totfact>
</mgrwt>
</event>
<event>
 4    1  0.3906087E+006  0.4906736E+01  0.7546771E-02  0.2583969E+00
         21   -1    0    0  501  502  0.00000000000E+00  0.00000000000E+00  0.16292212025E+03  0.16292212025E+03  0.00000000000E+00 0.  1.
         21   -1    0    0  502  503 -0.00000000000E+00 -0.00000000000E+00 -0.19309788266E+01  0.19309788266E+01  0.00000000000E+00 0.  1.
          5    1    1    2  501    0 -0.14089787125E+01  0.28930889036E-01  0.15970532706E+03  0.15978068579E+03  0.47000000000E+01 0.  1.
         -5    1    1    2    0  503  0.14089787125E+01 -0.28930889036E-01  0.12858143589E+01  0.50724132890E+01  0.47000000000E+01 0.  1.
<mgrwt>
<rscale>  2 0.49067360E+01</rscale>
<asrwt>0</asrwt>
<pdfrwt beam="1">  1       21 0.25064931E-01 0.49067360E+01</pdfrwt>
<pdfrwt beam="2">  1       21 0.29707380E-03 0.49067360E+01</pdfrwt>
<totfact> 0.11913488E+08</totfact>
</mgrwt>
</event>
<event>
 4    1  0.3906087E+006  0.4891996E+01  0.7546771E-02  0.2586678E+00
         21   -1    0    0  503  502  0.00000000000E+00  0.00000000000E+00  0.43421228241E+00  0.43421228241E+00  0.00000000000E+00 0. -1.
         21   -1    0    0  501  503 -0.00000000000E+00 -0.00000000000E+00 -0.26621877610E+03  0.26621877610E+03  0.00000000000E+00 0. -1.
          5    1    1    2  501    0 -0.45104283532E+00  0.12799156622E+01 -0.25161807694E+03  0.25166562790E+03  0.47000000000E+01 0. -1.
         -5    1    1    2    0  502  0.45104283532E+00 -0.12799156622E+01 -0.14166486872E+02  0.14987360476E+02  0.47000000000E+01 0. -1.
<mgrwt>
<rscale>  2 0.48919959E+01</rscale>
<asrwt>0</asrwt>
<pdfrwt beam="1">  1       21 0.66801933E-04 0.48919959E+01</pdfrwt>
<pdfrwt beam="2">  1       21 0.40956708E-01 0.48919959E+01</pdfrwt>
<totfact> 0.38436901E+08</totfact>
</mgrwt>
</event>
<event>
 4    1  0.3906087E+006  0.5111216E+01  0.7546771E-02  0.2547794E+00
         21   -1    0    0  501  502  0.00000000000E+00  0.00000000000E+00  0.85900036621E+01  0.85900036621E+01  0.00000000000E+00 0. -1.
         21   -1    0    0  502  503 -0.00000000000E+00 -0.00000000000E+00 -0.25854417998E+02  0.25854417998E+02  0.00000000000E+00 0. -1.
          5    1    1    2  501    0  0.77000626606E+00  0.18551605639E+01  0.75453937039E+01  0.91135885640E+01  0.47000000000E+01 0. -1.
         -5    1    1    2    0  503 -0.77000626606E+00 -0.18551605639E+01 -0.24809808040E+02  0.25330833096E+02  0.47000000000E+01 0. -1.
<mgrwt>
<rscale>  2 0.51112161E+01</rscale>
<asrwt>0</asrwt>
<pdfrwt beam="1">  1       21 0.13215390E-02 0.51112161E+01</pdfrwt>
<pdfrwt beam="2">  1       21 0.39776028E-02 0.51112161E+01</pdfrwt>
<totfact> 0.25784023E+08</totfact>
</mgrwt>
</event>
<event>
 4    1  0.3906087E+006  0.5811092E+01  0.7546771E-02  0.2440678E+00
         21   -1    0    0  501  502  0.00000000000E+00  0.00000000000E+00  0.11979712794E+01  0.11979712794E+01  0.00000000000E+00 0. -1.
         21   -1    0    0  502  503 -0.00000000000E+00 -0.00000000000E+00 -0.32415776993E+02  0.32415776993E+02  0.00000000000E+00 0.  1.
          5    1    1    2  501    0  0.19837878065E+01  0.27826918815E+01 -0.95394612047E+01  0.11170054084E+02  0.47000000000E+01 0. -1.
         -5    1    1    2    0  503 -0.19837878065E+01 -0.27826918815E+01 -0.21678344509E+02  0.22443694189E+02  0.47000000000E+01 0.  1.
<mgrwt>
<rscale>  2 0.58110918E+01</rscale>
<asrwt>0</asrwt>
<pdfrwt beam="1">  1       21 0.18430328E-03 0.58110918E+01</pdfrwt>
<pdfrwt beam="2">  1       21 0.49870423E-02 0.58110918E+01</pdfrwt>
<totfact> 0.31403958E+09</totfact>
</mgrwt>
</event>
<event>
 4    1  0.3906087E+006  0.7190469E+01  0.7546771E-02  0.2282210E+00
         21   -1    0    0  501  502  0.00000000000E+00  0.00000000000E+00  0.48874263692E+01  0.48874263692E+01  0.00000000000E+00 0.  1.
         21   -1    0    0  502  503 -0.00000000000E+00 -0.00000000000E+00 -0.80599849872E+02  0.80599849872E+02  0.00000000000E+00 0. -1.
          5    1    1    2  501    0 -0.51672120436E+00 -0.54171801310E+01  0.19837437730E+01  0.74590938278E+01  0.47000000000E+01 0.  1.
         -5    1    1    2    0  503  0.51672120436E+00  0.54171801310E+01 -0.77696167276E+02  0.78028182413E+02  0.47000000000E+01 0. -1.
<mgrwt>
<rscale>  2 0.71904688E+01</rscale>
<asrwt>0</asrwt>
<pdfrwt beam="1">  1       21 0.75191177E-03 0.71904688E+01</pdfrwt>
<pdfrwt beam="2">  1       21 0.12399977E-01 0.71904688E+01</pdfrwt>
<totfact> 0.13050335E+08</totfact>
</mgrwt>
</event>
<event>
 4    1  0.3906087E+006  0.9068335E+01  0.7546771E-02  0.2132241E+00
         21   -1    0    0  501  502  0.00000000000E+00  0.00000000000E+00  0.12688848355E+01  0.12688848355E+01  0.00000000000E+00 0.  1.
         21   -1    0    0  502  503 -0.00000000000E+00 -0.00000000000E+00 -0.71107035160E+02  0.71107035160E+02  0.00000000000E+00 0. -1.
          5    1    1    2  501    0  0.77199414576E+01  0.73972754735E+00 -0.24148894864E+02  0.25795422387E+02  0.47000000000E+01 0. -1.
         -5    1    1    2    0  503 -0.77199414576E+01 -0.73972754735E+00 -0.45689255461E+02  0.46580497609E+02  0.47000000000E+01 0. -1.
<mgrwt>
<rscale>  2 0.90683346E+01</rscale>
<asrwt>0</asrwt>
<pdfrwt beam="1">  1       21 0.19521301E-03 0.90683346E+01</pdfrwt>
<pdfrwt beam="2">  1       21 0.10939546E-01 0.90683346E+01</pdfrwt>
<totfact> 0.12136731E+09</totfact>
</mgrwt>
</event>
<event>
 4    1  0.3906087E+006  0.7008471E+01  0.7546771E-02  0.2300141E+00
         21   -1    0    0  503  502  0.00000000000E+00  0.00000000000E+00  0.22728791398E+01  0.22728791398E+01  0.00000000000E+00 0. -1.
         21   -1    0    0  501  503 -0.00000000000E+00 -0.00000000000E+00 -0.65798986805E+02  0.65798986805E+02  0.00000000000E+00 0.  1.
          5    1    1    2  501    0  0.26675865164E+01  0.44623590997E+01 -0.59655159286E+02  0.60065436784E+02  0.47000000000E+01 0.  1.
         -5    1    1    2    0  502 -0.26675865164E+01 -0.44623590997E+01 -0.38709483789E+01  0.80064291610E+01  0.47000000000E+01 0. -1.
<mgrwt>
<rscale>  2 0.70084711E+01</rscale>
<asrwt>0</asrwt>
<pdfrwt beam="1">  1       21 0.34967369E-03 0.70084711E+01</pdfrwt>
<pdfrwt beam="2">  1       21 0.10122922E-01 0.70084711E+01</pdfrwt>
<totfact> 0.51660379E+08</totfact>
</mgrwt>
</event>
<event>
 4    1  0.3906087E+006  0.6915097E+01  0.7546771E-02  0.2309639E+00
         21   -1    0    0  503  502  0.00000000000E+00  0.00000000000E+00  0.46618952901E+03  0.46618952901E+03  0.00000000000E+00 0. -1.
         21   -1    0    0  501  503 -0.00000000000E+00 -0.00000000000E+00 -0.10380300581E+00  0.10380300581E+00  0.00000000000E+00 0.  1.
          5    1    1    2  501    0  0.30028758203E+01  0.40879453255E+01  0.25841980820E+03  0.25851231272E+03  0.47000000000E+01 0. -1.
         -5    1    1    2    0  502 -0.30028758203E+01 -0.40879453255E+01  0.20766591780E+03  0.20778101929E+03  0.47000000000E+01 0.  1.
<mgrwt>
<rscale>  2 0.69150965E+01</rscale>
<asrwt>0</asrwt>
<pdfrwt beam="1">  1       21 0.71719790E-01 0.69150965E+01</pdfrwt>
<pdfrwt beam="2">  1       21 0.15970066E-04 0.69150965E+01</pdfrwt>
<totfact> 0.12016970E+09</totfact>
</mgrwt>
</event>
<event>
 4    1  0.3906087E+006  0.8278837E+01  0.7546771E-02  0.2188603E+00
         21   -1    0    0  503  502  0.00000000000E+00  0.00000000000E+00  0.93900258666E+01  0.93900258666E+01  0.00000000000E+00 0.  1.
         21   -1    0    0  501  503 -0.00000000000E+00 -0.00000000000E+00 -0.25233698072E+02  0.25233698072E+02  0.00000000000E+00 0.  1.
          5    1    1    2  501    0 -0.62531257288E+01 -0.27106383559E+01 -0.22516652400E+02  0.23990389262E+02  0.47000000000E+01 0.  1.
         -5    1    1    2    0  502  0.62531257288E+01  0.27106383559E+01  0.66729801939E+01  0.10633334677E+02  0.47000000000E+01 0.  1.
<mgrwt>
<rscale>  2 0.82788370E+01</rscale>
<asrwt>0</asrwt>
<pdfrwt beam="1">  1       21 0.14446194E-02 0.82788370E+01</pdfrwt>
<pdfrwt beam="2">  1       21 0.38821074E-02 0.82788370E+01</pdfrwt>
<totfact> 0.33012437E+08</totfact>
</mgrwt>
</event>
<event>
 4    1  0.3906087E+006  0.9577959E+01  0.7546771E-02  0.2099833E+00
         21   -1    0    0  503  502  0.00000000000E+00  0.00000000000E+00  0.23467888639E+03  0.23467888639E+03  0.00000000000E+00 0. -1.
         21   -1    0    0  501  503 -0.00000000000E+00 -0.00000000000E+00 -0.16517205536E+01  0.16517205536E+01  0.00000000000E+00 0.  1.
          5    1    1    2  501    0 -0.60569790722E+01  0.57411064068E+01  0.13273734497E+02  0.16368546843E+02  0.47000000000E+01 0.  1.
         -5    1    1    2    0  502  0.60569790722E+01 -0.57411064068E+01  0.21975343134E+03  0.21996206010E+03  0.47000000000E+01 0. -1.
<mgrwt>
<rscale>  2 0.95779590E+01</rscale>
<asrwt>0</asrwt>
<pdfrwt beam="1">  1       21 0.36104418E-01 0.95779590E+01</pdfrwt>
<pdfrwt beam="2">  1       21 0.25411104E-03 0.95779590E+01</pdfrwt>
<totfact> 0.11767431E+08</totfact>
</mgrwt>
</event>
<event>
 4    1  0.3906087E+006  0.4925886E+01  0.7546771E-02  0.2580472E+00
         21   -1    0    0  503  502  0.00000000000E+00  0.00000000000E+00  0.24814211318E+01  0.24814211318E+01  0.00000000000E+00 0.  1.
         21   -1    0    0  501  503 -0.00000000000E+00 -0.00000000000E+00 -0.29577413371E+02  0.29577413371E+02  0.00000000000E+00 0.  1.
          5    1    1    2  501    0  0.47607912759E+00  0.13956014384E+01 -0.26662724385E+02  0.27113930485E+02  0.47000000000E+01 0.  1.
         -5    1    1    2    0  502 -0.47607912759E+00 -0.13956014384E+01 -0.43326785387E+00  0.49449040176E+01  0.47000000000E+01 0.  1.
<mgrwt>
<rscale>  2 0.49258862E+01</rscale>
<asrwt>0</asrwt>
<pdfrwt beam="1">  1       21 0.38175707E-03 0.49258862E+01</pdfrwt>
<pdfrwt beam="2">  1       21 0.45503716E-02 0.49258862E+01</pdfrwt>
<totfact> 0.11445332E+09</totfact>
</mgrwt>
</event>
<event>
 4    1  0.3906087E+006  0.6607565E+01  0.7546771E-02  0.2342474E+00
         21   -1    0    0  503  502  0.00000000000E+00  0.00000000000E+00  0.30185295772E+01  0.30185295772E+01  0.00000000000E+00 0.  1.
         21   -1    0    0  501  503 -0.00000000000E+00 -0.00000000000E+00 -0.16191611522E+02  0.16191611522E+02  0.00000000000E+00 0.  1.
          5    1    1    2  501    0 -0.36457058943E+01  0.28772796284E+01 -0.97240344099E+01  0.11756562199E+02  0.47000000000E+01 0.  1.
         -5    1    1    2    0  502  0.36457058943E+01 -0.28772796284E+01 -0.34490475349E+01  0.74535789005E+01  0.47000000000E+01 0.  1.
<mgrwt>
<rscale>  2 0.66075646E+01</rscale>
<asrwt>0</asrwt>
<pdfrwt beam="1">  1       21 0.46438918E-03 0.66075646E+01</pdfrwt>
<pdfrwt beam="2">  1       21 0.24910171E-02 0.66075646E+01</pdfrwt>
<totfact> 0.27230513E+09</totfact>
</mgrwt>
</event>
<event>
 4    1  0.3906087E+006  0.9466604E+01  0.7546771E-02  0.2106678E+00
         21   -1    0    0  503  502  0.00000000000E+00  0.00000000000E+00  0.28614584353E+01  0.28614584353E+01  0.00000000000E+00 0. -1.
         21   -1    0    0  501  503 -0.00000000000E+00 -0.00000000000E+00 -0.31803686593E+02  0.31803686593E+02  0.00000000000E+00 0. -1.
          5    1    1    2  501    0  0.51573977707E+01 -0.63974869155E+01 -0.16611923320E+02  0.19119952588E+02  0.47000000000E+01 0. -1.
         -5    1    1    2    0  502 -0.51573977707E+01  0.63974869155E+01 -0.12330304838E+02  0.15545192440E+02  0.47000000000E+01 0. -1.
<mgrwt>
<rscale>  2 0.94666040E+01</rscale>
<asrwt>0</asrwt>
<pdfrwt beam="1">  1       21 0.44022435E-03 0.94666040E+01</pdfrwt>
<pdfrwt beam="2">  1       21 0.48928752E-02 0.94666040E+01</pdfrwt>
<totfact> 0.13885791E+09</totfact>
</mgrwt>
</event>
<event>
 4    1  0.3906087E+006  0.5319055E+01  0.7546771E-02  0.2513487E+00
         21   -1    0    0  501  502  0.00000000000E+00  0.00000000000E+00  0.47397731691E-01  0.47397731691E-01  0.00000000000E+00 0.  1.
         21   -1    0    0  502  503 -0.00000000000E+00 -0.00000000000E+00 -0.59939143765E+03  0.59939143765E+03  0.00000000000E+00 0.  1.
          5    1    1    2  501    0  0.18350334469E+01 -0.16837442582E+01 -0.28040071358E+03  0.28045115888E+03  0.47000000000E+01 0.  1.
         -5    1    1    2    0  503 -0.18350334469E+01  0.16837442582E+01 -0.31894332634E+03  0.31898767650E+03  0.47000000000E+01 0.  1.
<mgrwt>
<rscale>  2 0.53190547E+01</rscale>
<asrwt>0</asrwt>
<pdfrwt beam="1">  1       21 0.72920167E-05 0.53190547E+01</pdfrwt>
<pdfrwt beam="2">  1       21 0.92213334E-01 0.53190547E+01</pdfrwt>
<totfact> 0.17389411E+09</totfact>
</mgrwt>
</event>
<event>
 4    1  0.3906087E+006  0.6267219E+01  0.7546771E-02  0.2381890E+00
         21   -1    0    0  503  502  0.00000000000E+00  0.00000000000E+00  0.51753120537E+03  0.51753120537E+03  0.00000000000E+00 0. -1.
         21   -1    0    0  501  503 -0.00000000000E+00 -0.00000000000E+00 -0.20384371918E+00  0.20384371918E+00  0.00000000000E+00 0. -1.
          5    1    1    2  501    0 -0.37847237846E+01 -0.16923047931E+01  0.53572550439E+02  0.53937891970E+02  0.47000000000E+01 0. -1.
         -5    1    1    2    0  502  0.37847237846E+01  0.16923047931E+01  0.46375481121E+03  0.46379715712E+03  0.47000000000E+01 0. -1.
<mgrwt>
<rscale>  2 0.62672187E+01</rscale>
<asrwt>0</asrwt>
<pdfrwt beam="1">  1       21 0.79619134E-01 0.62672187E+01</pdfrwt>
<pdfrwt beam="2">  1       21 0.31360986E-04 0.62672187E+01</pdfrwt>
<totfact> 0.37325098E+08</totfact>
</mgrwt>
</event>
<event>
 4    1  0.3906087E+006  0.6261980E+01  0.7546771E-02  0.2382525E+00
         21   -1    0    0  501  502  0.00000000000E+00  0.00000000000E+00  0.23517827725E+00  0.23517827725E+00  0.00000000000E+00 0. -1.
         21   -1    0    0  502  503 -0.00000000000E+00 -0.00000000000E+00 -0.31325862358E+03  0.31325862358E+03  0.00000000000E+00 0.  1.
          5    1    1    2  501    0 -0.77838573985E+00 -0.40640505668E+01 -0.49310030559E+02  0.49706050990E+02  0.47000000000E+01 0. -1.
         -5    1    1    2    0  503  0.77838573985E+00  0.40640505668E+01 -0.26371341474E+03  0.26378775086E+03  0.47000000000E+01 0.  1.
<mgrwt>
<rscale>  2 0.62619798E+01</rscale>
<asrwt>0</asrwt>
<pdfrwt beam="1">  1       21 0.36181388E-04 0.62619798E+01</pdfrwt>
<pdfrwt beam="2">  1       21 0.48193481E-01 0.62619798E+01</pdfrwt>
<totfact> 0.78773218E+08</totfact>
</mgrwt>
</event>
<event>
 4    1  0.3906087E+006  0.5240658E+01  0.7546771E-02  0.2526154E+00
         21   -1    0    0  501  502  0.00000000000E+00  0.00000000000E+00  0.42314235565E+00  0.42314235565E+00  0.00000000000E+00 0. -1.
         21   -1    0    0  502  503 -0.00000000000E+00 -0.00000000000E+00 -0.69035425539E+02  0.69035425539E+02  0.00000000000E+00 0. -1.
          5    1    1    2  501    0  0.92011616912E+00  0.21278818355E+01 -0.25812332094E+02  0.26338963211E+02  0.47000000000E+01 0. -1.
         -5    1    1    2    0  503 -0.92011616912E+00 -0.21278818355E+01 -0.42799951089E+02  0.43119604684E+02  0.47000000000E+01 0. -1.
<mgrwt>
<rscale>  2 0.52406579E+01</rscale>
<asrwt>0</asrwt>
<pdfrwt beam="1">  1       21 0.65098784E-04 0.52406579E+01</pdfrwt>
<pdfrwt beam="2">  1       21 0.10620841E-01 0.52406579E+01</pdfrwt>
<totfact> 0.37031138E+09</totfact>
</mgrwt>
</event>
<event>
 4    1  0.3906087E+006  0.5411296E+01  0.7546771E-02  0.2498984E+00
         21   -1    0    0  503  502  0.00000000000E+00  0.00000000000E+00  0.46390092255E+00  0.46390092255E+00  0.00000000000E+00 0.  1.
         21   -1    0    0  501  503 -0.00000000000E+00 -0.00000000000E+00 -0.80170292237E+02  0.80170292237E+02  0.00000000000E+00 0.  1.
          5    1    1    2  501    0 -0.18951999767E+00 -0.26751088911E+01 -0.58445329343E+02  0.58695303453E+02  0.47000000000E+01 0.  1.
         -5    1    1    2    0  502  0.18951999767E+00  0.26751088911E+01 -0.21261061971E+02  0.21938889707E+02  0.47000000000E+01 0.  1.
<mgrwt>
<rscale>  2 0.54112961E+01</rscale>
<asrwt>0</asrwt>
<pdfrwt beam="1">  1       21 0.71369317E-04 0.54112961E+01</pdfrwt>
<pdfrwt beam="2">  1       21 0.12333901E-01 0.54112961E+01</pdfrwt>
<totfact> 0.26859748E+09</totfact>
</mgrwt>
</event>
<event>
 4    1  0.3906087E+006  0.1139426E+02  0.7546771E-02  0.2003364E+00
         21   -1    0    0  501  502  0.00000000000E+00  0.00000000000E+00  0.13626634627E+00  0.13626634627E+00  0.00000000000E+00 0. -1.
         21   -1    0    0  502  503 -0.00000000000E+00 -0.00000000000E+00 -0.13881069112E+04  0.13881069112E+04  0.00000000000E+00 0. -1.
          5    1    1    2  501    0 -0.24701049109E+01  0.10081553798E+02 -0.30526096880E+03  0.30547354749E+03  0.47000000000E+01 0. -1.
         -5    1    1    2    0  503  0.24701049109E+01 -0.10081553798E+02 -0.10827096761E+04  0.10827696301E+04  0.47000000000E+01 0. -1.
<mgrwt>
<rscale>  2 0.11394259E+02</rscale>
<asrwt>0</asrwt>
<pdfrwt beam="1">  1       21 0.20964946E-04 0.11394259E+02</pdfrwt>
<pdfrwt beam="2">  1       21 0.21354582E+00 0.11394259E+02</pdfrwt>
<totfact> 0.99956122E+07</totfact>
</mgrwt>
</event>
<event>
 4    1  0.3906087E+006  0.6009961E+01  0.7546771E-02  0.2414129E+00
         21   -1    0    0  501  502  0.00000000000E+00  0.00000000000E+00  0.44986728064E+02  0.44986728064E+02  0.00000000000E+00 0.  1.
         21   -1    0    0  502  503 -0.00000000000E+00 -0.00000000000E+00 -0.12975367318E+01  0.12975367318E+01  0.00000000000E+00 0. -1.
          5    1    1    2  501    0 -0.37425033574E+01  0.15264709411E+00  0.36133166389E+02  0.36629569282E+02  0.47000000000E+01 0.  1.
         -5    1    1    2    0  503  0.37425033574E+01 -0.15264709411E+00  0.75560249434E+01  0.96546955136E+01  0.47000000000E+01 0. -1.
<mgrwt>
<rscale>  2 0.60099611E+01</rscale>
<asrwt>0</asrwt>
<pdfrwt beam="1">  1       21 0.69210339E-02 0.60099611E+01</pdfrwt>
<pdfrwt beam="2">  1       21 0.19962107E-03 0.60099611E+01</pdfrwt>
<totfact> 0.17792687E+09</totfact>
</mgrwt>
</event>
<event>
 4    1  0.3906087E+006  0.6734746E+01  0.7546771E-02  0.2328596E+00
         21   -1    0    0  501  502  0.00000000000E+00  0.00000000000E+00  0.15584521829E+02  0.15584521829E+02  0.00000000000E+00 0. -1.
         21   -1    0    0  502  503 -0.00000000000E+00 -0.00000000000E+00 -0.10629033827E+02  0.10629033827E+02  0.00000000000E+00 0.  1.
          5    1    1    2  501    0  0.42937946292E+01  0.21977569660E+01  0.13646889699E+02  0.15218226127E+02  0.47000000000E+01 0. -1.
         -5    1    1    2    0  503 -0.42937946292E+01 -0.21977569660E+01 -0.86914016967E+01  0.10995329529E+02  0.47000000000E+01 0.  1.
<mgrwt>
<rscale>  2 0.67347463E+01</rscale>
<asrwt>0</asrwt>
<pdfrwt beam="1">  1       21 0.23976187E-02 0.67347463E+01</pdfrwt>
<pdfrwt beam="2">  1       21 0.16352360E-02 0.67347463E+01</pdfrwt>
<totfact> 0.49136761E+08</totfact>
</mgrwt>
</event>
<event>
 4    1  0.3906087E+006  0.4865557E+01  0.7546771E-02  0.2591571E+00
         21   -1    0    0  503  502  0.00000000000E+00  0.00000000000E+00  0.69998852441E+00  0.69998852441E+00  0.00000000000E+00 0.  1.
         21   -1    0    0  501  503 -0.00000000000E+00 -0.00000000000E+00 -0.49865404521E+02  0.49865404521E+02  0.00000000000E+00 0.  1.
          5    1    1    2  501    0 -0.10973034124E+01 -0.61609401716E+00 -0.38924333656E+02  0.39227253246E+02  0.47000000000E+01 0.  1.
         -5    1    1    2    0  502  0.10973034124E+01  0.61609401716E+00 -0.10241082340E+02  0.11338139800E+02  0.47000000000E+01 0.  1.
<mgrwt>
<rscale>  2 0.48655572E+01</rscale>
<asrwt>0</asrwt>
<pdfrwt beam="1">  1       21 0.10769052E-03 0.48655572E+01</pdfrwt>
<pdfrwt beam="2">  1       21 0.76716019E-02 0.48655572E+01</pdfrwt>
<totfact> 0.28763362E+09</totfact>
</mgrwt>
</event>
<event>
 4    1  0.3906087E+006  0.4929620E+01  0.7546771E-02  0.2579793E+00
         21   -1    0    0  501  502  0.00000000000E+00  0.00000000000E+00  0.84357707078E+00  0.84357707078E+00  0.00000000000E+00 0.  1.
         21   -1    0    0  502  503 -0.00000000000E+00 -0.00000000000E+00 -0.32866087009E+02  0.32866087009E+02  0.00000000000E+00 0. -1.
          5    1    1    2  501    0  0.43173254346E+00  0.14229416990E+01 -0.10088143106E+02  0.11228169370E+02  0.47000000000E+01 0.  1.
         -5    1    1    2    0  503 -0.43173254346E+00 -0.14229416990E+01 -0.21934366833E+02  0.22481494711E+02  0.47000000000E+01 0. -1.
<mgrwt>
<rscale>  2 0.49296203E+01</rscale>
<asrwt>0</asrwt>
<pdfrwt beam="1">  1       21 0.12978111E-03 0.49296203E+01</pdfrwt>
<pdfrwt beam="2">  1       21 0.50563202E-02 0.49296203E+01</pdfrwt>
<totfact> 0.42042939E+09</totfact>
</mgrwt>
</event>
<event>
 4    1  0.3906087E+006  0.1011278E+02  0.7546771E-02  0.2068626E+00
         21   -1    0    0  501  502  0.00000000000E+00  0.00000000000E+00  0.18822699143E+01  0.18822699143E+01  0.00000000000E+00 0. -1.
         21   -1    0    0  502  503 -0.00000000000E+00 -0.00000000000E+00 -0.74790232178E+02  0.74790232178E+02  0.00000000000E+00 0. -1.
          5    1    1    2  501    0 -0.70996657442E+01 -0.54564625018E+01 -0.16403858434E+02  0.19270568446E+02  0.47000000000E+01 0.  1.
         -5    1    1    2    0  503  0.70996657442E+01  0.54564625018E+01 -0.56504103830E+02  0.57401933647E+02  0.47000000000E+01 0.  1.
<mgrwt>
<rscale>  2 0.10112776E+02</rscale>
<asrwt>0</asrwt>
<pdfrwt beam="1">  1       21 0.28958001E-03 0.10112776E+02</pdfrwt>
<pdfrwt beam="2">  1       21 0.11506189E-01 0.10112776E+02</pdfrwt>
<totfact> 0.68639039E+08</totfact>
</mgrwt>
</event>
<event>
 4    1  0.3906087E+006  0.4953509E+01  0.7546771E-02  0.2575468E+00
         21   -1    0    0  501  502  0.00000000000E+00  0.00000000000E+00  0.70777085427E+00  0.70777085427E+00  0.00000000000E+00 0.  1.
         21   -1    0    0  502  503 -0.00000000000E+00 -0.00000000000E+00 -0.46865450814E+02  0.46865450814E+02  0.00000000000E+00 0.  1.
          5    1    1    2  501    0  0.90072318822E+00  0.12790429791E+01 -0.10943992115E+02  0.12012835495E+02  0.47000000000E+01 0.  1.
         -5    1    1    2    0  503 -0.90072318822E+00 -0.12790429791E+01 -0.35213687845E+02  0.35560386174E+02  0.47000000000E+01 0.  1.
<mgrwt>
<rscale>  2 0.49535092E+01</rscale>
<asrwt>0</asrwt>
<pdfrwt beam="1">  1       21 0.10888785E-03 0.49535092E+01</pdfrwt>
<pdfrwt beam="2">  1       21 0.72100678E-02 0.49535092E+01</pdfrwt>
<totfact> 0.31652821E+09</totfact>
</mgrwt>
</event>
<event>
 4    1  0.3906087E+006  0.1053256E+02  0.7546771E-02  0.2045889E+00
         21   -1    0    0  503  502  0.00000000000E+00  0.00000000000E+00  0.18736901679E+00  0.18736901679E+00  0.00000000000E+00 0. -1.
         21   -1    0    0  501  503 -0.00000000000E+00 -0.00000000000E+00 -0.73261485576E+03  0.73261485576E+03  0.00000000000E+00 0.  1.
          5    1    1    2  501    0  0.19440359692E+01  0.92230946774E+01 -0.52669827618E+03  0.52680357713E+03  0.47000000000E+01 0.  1.
         -5    1    1    2    0  502 -0.19440359692E+01 -0.92230946774E+01 -0.20572921057E+03  0.20599864765E+03  0.47000000000E+01 0. -1.
<mgrwt>
<rscale>  2 0.10532557E+02</rscale>
<asrwt>0</asrwt>
<pdfrwt beam="1">  1       21 0.28825480E-04 0.10532557E+02</pdfrwt>
<pdfrwt beam="2">  1       21 0.11271202E+00 0.10532557E+02</pdfrwt>
<totfact> 0.26987155E+08</totfact>
</mgrwt>
</event>
<event>
 4    1  0.3906087E+006  0.6825770E+01  0.7546771E-02  0.2318925E+00
         21   -1    0    0  501  502  0.00000000000E+00  0.00000000000E+00  0.34696467978E+02  0.34696467978E+02  0.00000000000E+00 0.  1.
         21   -1    0    0  502  503 -0.00000000000E+00 -0.00000000000E+00 -0.13861145369E+01  0.13861145369E+01  0.00000000000E+00 0. -1.
          5    1    1    2  501    0  0.48580119334E+01 -0.94913736080E+00  0.13466722451E+02  0.15097806305E+02  0.47000000000E+01 0. -1.
         -5    1    1    2    0  503 -0.48580119334E+01  0.94913736080E+00  0.19843630990E+02  0.20984776209E+02  0.47000000000E+01 0.  1.
<mgrwt>
<rscale>  2 0.68257704E+01</rscale>
<asrwt>0</asrwt>
<pdfrwt beam="1">  1       21 0.53379175E-02 0.68257704E+01</pdfrwt>
<pdfrwt beam="2">  1       21 0.21324842E-03 0.68257704E+01</pdfrwt>
<totfact> 0.26636651E+09</totfact>
</mgrwt>
</event>
<event>
 4    1  0.3906087E+006  0.9728474E+01  0.7546771E-02  0.2090778E+00
         21   -1    0    0  501  502  0.00000000000E+00  0.00000000000E+00  0.53258586660E+03  0.53258586660E+03  0.00000000000E+00 0.  1.
         21   -1    0    0  502  503 -0.00000000000E+00 -0.00000000000E+00 -0.25395751246E+00  0.25395751246E+00  0.00000000000E+00 0. -1.
          5    1    1    2  501    0  0.15792828301E+01  0.83701298812E+01  0.41215256635E+03  0.41226736611E+03  0.47000000000E+01 0.  1.
         -5    1    1    2    0  503 -0.15792828301E+01 -0.83701298812E+01  0.12017934274E+03  0.12057245801E+03  0.47000000000E+01 0. -1.
<mgrwt>
<rscale>  2 0.97284741E+01</rscale>
<asrwt>0</asrwt>
<pdfrwt beam="1">  1       21 0.81935393E-01 0.97284741E+01</pdfrwt>
<pdfrwt beam="2">  1       21 0.39070813E-04 0.97284741E+01</pdfrwt>
<totfact> 0.33372509E+08</totfact>
</mgrwt>
</event>
<event>
 4    1  0.3906087E+006  0.5837126E+01  0.7546771E-02  0.2437116E+00
         21   -1    0    0  501  502  0.00000000000E+00  0.00000000000E+00  0.69523532940E+03  0.69523532940E+03  0.00000000000E+00 0. -1.
         21   -1    0    0  502  503 -0.00000000000E+00 -0.00000000000E+00 -0.17138549439E+00  0.17138549439E+00  0.00000000000E+00 0. -1.
          5    1    1    2  501    0  0.76494443784E+00 -0.33759294959E+01  0.64134616253E+03  0.64137272489E+03  0.47000000000E+01 0. -1.
         -5    1    1    2    0  503 -0.76494443784E+00  0.33759294959E+01  0.53717781377E+02  0.54033990007E+02  0.47000000000E+01 0. -1.
<mgrwt>
<rscale>  2 0.58371260E+01</rscale>
<asrwt>0</asrwt>
<pdfrwt beam="1">  1       21 0.10695702E+00 0.58371260E+01</pdfrwt>
<pdfrwt beam="2">  1       21 0.26367556E-04 0.58371260E+01</pdfrwt>
<totfact> 0.24948456E+08</totfact>
</mgrwt>
</event>
<event>
 4    1  0.3906087E+006  0.1138351E+02  0.7546771E-02  0.2003864E+00
         21   -1    0    0  503  502  0.00000000000E+00  0.00000000000E+00  0.30626998240E+00  0.30626998240E+00  0.00000000000E+00 0. -1.
         21   -1    0    0  501  503 -0.00000000000E+00 -0.00000000000E+00 -0.59941504570E+03  0.59941504570E+03  0.00000000000E+00 0.  1.
          5    1    1    2  501    0 -0.30548902400E+01 -0.99076757387E+01 -0.46218191928E+03  0.46232208568E+03  0.47000000000E+01 0.  1.
         -5    1    1    2    0  502  0.30548902400E+01  0.99076757387E+01 -0.13692685643E+03  0.13739923000E+03  0.47000000000E+01 0. -1.
<mgrwt>
<rscale>  2 0.11383514E+02</rscale>
<asrwt>0</asrwt>
<pdfrwt beam="1">  1       21 0.47118395E-04 0.11383514E+02</pdfrwt>
<pdfrwt beam="2">  1       21 0.92217823E-01 0.11383514E+02</pdfrwt>
<totfact> 0.21723202E+08</totfact>
</mgrwt>
</event>
<event>
 4    1  0.3906087E+006  0.5155533E+01  0.7546771E-02  0.2540281E+00
         21   -1    0    0  503  502  0.00000000000E+00  0.00000000000E+00  0.65703086518E+01  0.65703086518E+01  0.00000000000E+00 0. -1.
         21   -1    0    0  501  503 -0.00000000000E+00 -0.00000000000E+00 -0.44682752972E+01  0.44682752972E+01  0.00000000000E+00 0. -1.
          5    1    1    2  501    0  0.82523867416E+00 -0.19515377675E+01 -0.64691495092E+00  0.51959616512E+01  0.47000000000E+01 0. -1.
         -5    1    1    2    0  502 -0.82523867416E+00  0.19515377675E+01  0.27489483055E+01  0.58426222977E+01  0.47000000000E+01 0. -1.
<mgrwt>
<rscale>  2 0.51555328E+01</rscale>
<asrwt>0</asrwt>
<pdfrwt beam="1">  1       21 0.10108167E-02 0.51555328E+01</pdfrwt>
<pdfrwt beam="2">  1       21 0.68742697E-03 0.51555328E+01</pdfrwt>
<totfact> 0.45408072E+09</totfact>
</mgrwt>
</event>
<event>
 4    1  0.3906087E+006  0.5707809E+01  0.7546771E-02  0.2455078E+00
         21   -1    0    0  501  502  0.00000000000E+00  0.00000000000E+00  0.22313524322E+02  0.22313524322E+02  0.00000000000E+00 0.  1.
         21   -1    0    0  502  503 -0.00000000000E+00 -0.00000000000E+00 -0.30612643564E+01  0.30612643564E+01  0.00000000000E+00 0.  1.
          5    1    1    2  501    0  0.81736217685E+00  0.31338483762E+01  0.18801960618E+02  0.19649244506E+02  0.47000000000E+01 0.  1.
         -5    1    1    2    0  503 -0.81736217685E+00 -0.31338483762E+01  0.45029934806E+00  0.57255441729E+01  0.47000000000E+01 0.  1.
<mgrwt>
<rscale>  2 0.57078093E+01</rscale>
<asrwt>0</asrwt>
<pdfrwt beam="1">  1       21 0.34328498E-02 0.57078093E+01</pdfrwt>
<pdfrwt beam="2">  1       21 0.47096376E-03 0.57078093E+01</pdfrwt>
<totfact> 0.14793113E+09</totfact>
</mgrwt>
</event>
<event>
 4    1  0.3906087E+006  0.4725976E+01  0.7546771E-02  0.2618189E+00
         21   -1    0    0  503  502  0.00000000000E+00  0.00000000000E+00  0.36152062625E+01  0.36152062625E+01  0.00000000000E+00 0.  1.
         21   -1    0    0  501  503 -0.00000000000E+00 -0.00000000000E+00 -0.13138229271E+02  0.13138229271E+02  0.00000000000E+00 0.  1.
          5    1    1    2  501    0  0.38053454858E+00  0.31628885963E+00 -0.10858513920E+02  0.11842388684E+02  0.47000000000E+01 0.  1.
         -5    1    1    2    0  502 -0.38053454858E+00 -0.31628885963E+00  0.13354909116E+01  0.49110468497E+01  0.47000000000E+01 0.  1.
<mgrwt>
<rscale>  2 0.47259756E+01</rscale>
<asrwt>0</asrwt>
<pdfrwt beam="1">  1       21 0.55618557E-03 0.47259756E+01</pdfrwt>
<pdfrwt beam="2">  1       21 0.20212661E-02 0.47259756E+01</pdfrwt>
<totfact> 0.20983249E+09</totfact>
</mgrwt>
</event>
<event>
 4    1  0.3906087E+006  0.6939207E+01  0.7546771E-02  0.2307167E+00
         21   -1    0    0  501  502  0.00000000000E+00  0.00000000000E+00  0.27567393369E-01  0.27567393369E-01  0.00000000000E+00 0.  1.
         21   -1    0    0  502  503 -0.00000000000E+00 -0.00000000000E+00 -0.17678870815E+04  0.17678870815E+04  0.00000000000E+00 0.  1.
          5    1    1    2  501    0  0.17660866914E+01 -0.47899405319E+01 -0.78721192371E+03  0.78724250738E+03  0.47000000000E+01 0.  1.
         -5    1    1    2    0  503 -0.17660866914E+01  0.47899405319E+01 -0.98064759040E+03  0.98067214152E+03  0.47000000000E+01 0.  1.
<mgrwt>
<rscale>  2 0.69392069E+01</rscale>
<asrwt>0</asrwt>
<pdfrwt beam="1">  1       21 0.42424682E-05 0.69392069E+01</pdfrwt>
<pdfrwt beam="2">  1       21 0.27189732E+00 0.69392069E+01</pdfrwt>
<totfact> 0.39941762E+08</totfact>
</mgrwt>
</event>
<event>
 4    1  0.3906087E+006  0.6910426E+01  0.7546771E-02  0.2310120E+00
         21   -1    0    0  503  502  0.00000000000E+00  0.00000000000E+00  0.15085367373E+03  0.15085367373E+03  0.00000000000E+00 0. -1.
         21   -1    0    0  501  503 -0.00000000000E+00 -0.00000000000E+00 -0.34163708436E+00  0.34163708436E+00  0.00000000000E+00 0.  1.
          5    1    1    2  501    0  0.57680077285E-01 -0.50656347736E+01  0.54773702650E+02  0.55207902375E+02  0.47000000000E+01 0.  1.
         -5    1    1    2    0  502 -0.57680077285E-01  0.50656347736E+01  0.95738333994E+02  0.95987408438E+02  0.47000000000E+01 0. -1.
<mgrwt>
<rscale>  2 0.69104256E+01</rscale>
<asrwt>0</asrwt>
<pdfrwt beam="1">  1       21 0.23208204E-01 0.69104256E+01</pdfrwt>
<pdfrwt beam="2">  1       21 0.52559672E-04 0.69104256E+01</pdfrwt>
<totfact> 0.17994202E+09</totfact>
</mgrwt>
</event>
<event>
 4    1  0.3906087E+006  0.5715832E+01  0.7546771E-02  0.2453944E+00
         21   -1    0    0  501  502  0.00000000000E+00  0.00000000000E+00  0.12667498564E+01  0.12667498564E+01  0.00000000000E+00 0.  1.
         21   -1    0    0  502  503 -0.00000000000E+00 -0.00000000000E+00 -0.26007142091E+02  0.26007142091E+02  0.00000000000E+00 0.  1.
          5    1    1    2  501    0  0.28167491488E+00  0.32405848931E+01 -0.13613427180E+02  0.14764692031E+02  0.47000000000E+01 0.  1.
         -5    1    1    2    0  503 -0.28167491488E+00 -0.32405848931E+01 -0.11126965055E+02  0.12509199916E+02  0.47000000000E+01 0.  1.
<mgrwt>
<rscale>  2 0.57158316E+01</rscale>
<asrwt>0</asrwt>
<pdfrwt beam="1">  1       21 0.19488460E-03 0.57158316E+01</pdfrwt>
<pdfrwt beam="2">  1       21 0.40010987E-02 0.57158316E+01</pdfrwt>
<totfact> 0.39660347E+09</totfact>
</mgrwt>
</event>
<event>
 4    1  0.3906087E+006  0.5798267E+01  0.7546771E-02  0.2442443E+00
         21   -1    0    0  503  502  0.00000000000E+00  0.00000000000E+00  0.80784543711E+02  0.80784543711E+02  0.00000000000E+00 0.  1.
         21   -1    0    0  501  503 -0.00000000000E+00 -0.00000000000E+00 -0.56987697319E+00  0.56987697319E+00  0.00000000000E+00 0. -1.
          5    1    1    2  501    0 -0.12584775628E+01  0.31537497349E+01  0.18981643678E+02  0.19847485984E+02  0.47000000000E+01 0. -1.
         -5    1    1    2    0  502  0.12584775628E+01 -0.31537497349E+01  0.61233023060E+02  0.61506934701E+02  0.47000000000E+01 0.  1.
<mgrwt>
<rscale>  2 0.57982673E+01</rscale>
<asrwt>0</asrwt>
<pdfrwt beam="1">  1       21 0.12428382E-01 0.57982673E+01</pdfrwt>
<pdfrwt beam="2">  1       21 0.87673444E-04 0.57982673E+01</pdfrwt>
<totfact> 0.21426739E+09</totfact>
</mgrwt>
</event>
<event>
 4    1  0.3906087E+006  0.5220933E+01  0.7546771E-02  0.2529392E+00
         21   -1    0    0  501  502  0.00000000000E+00  0.00000000000E+00  0.82779850675E+01  0.82779850675E+01  0.00000000000E+00 0.  1.
         21   -1    0    0  502  503 -0.00000000000E+00 -0.00000000000E+00 -0.48811461989E+01  0.48811461989E+01  0.00000000000E+00 0.  1.
          5    1    1    2  501    0 -0.32813953698E+00 -0.22495487981E+01  0.54516250506E+01  0.75484012243E+01  0.47000000000E+01 0.  1.
         -5    1    1    2    0  503  0.32813953698E+00  0.22495487981E+01 -0.20547861820E+01  0.56107300420E+01  0.47000000000E+01 0.  1.
<mgrwt>
<rscale>  2 0.52209334E+01</rscale>
<asrwt>0</asrwt>
<pdfrwt beam="1">  1       21 0.12735362E-02 0.52209334E+01</pdfrwt>
<pdfrwt beam="2">  1       21 0.75094557E-03 0.52209334E+01</pdfrwt>
<totfact> 0.29429852E+09</totfact>
</mgrwt>
</event>
<event>
 4    1  0.3906087E+006  0.1095291E+02  0.7546771E-02  0.2024495E+00
         21   -1    0    0  501  502  0.00000000000E+00  0.00000000000E+00  0.24917322641E+02  0.24917322641E+02  0.00000000000E+00 0.  1.
         21   -1    0    0  502  503 -0.00000000000E+00 -0.00000000000E+00 -0.95468677371E+01  0.95468677371E+01  0.00000000000E+00 0.  1.
          5    1    1    2  501    0  0.76475038141E+00  0.98636403012E+01  0.19817539503E+02  0.22642904299E+02  0.47000000000E+01 0.  1.
         -5    1    1    2    0  503 -0.76475038141E+00 -0.98636403012E+01 -0.44470845990E+01  0.11821286079E+02  0.47000000000E+01 0.  1.
<mgrwt>
<rscale>  2 0.10952910E+02</rscale>
<asrwt>0</asrwt>
<pdfrwt beam="1">  1       21 0.38334342E-02 0.10952910E+02</pdfrwt>
<pdfrwt beam="2">  1       21 0.14687489E-02 0.10952910E+02</pdfrwt>
<totfact> 0.38302909E+08</totfact>
</mgrwt>
</event>
<event>
 4    1  0.3906087E+006  0.5946588E+01  0.7546771E-02  0.2422427E+00
         21   -1    0    0  501  502  0.00000000000E+00  0.00000000000E+00  0.24062499953E+01  0.24062499953E+01  0.00000000000E+00 0.  1.
         21   -1    0    0  502  503 -0.00000000000E+00 -0.00000000000E+00 -0.24316992188E+02  0.24316992188E+02  0.00000000000E+00 0. -1.
          5    1    1    2  501    0  0.16195933226E+01 -0.32632539914E+01 -0.25507652352E+01  0.64705728052E+01  0.47000000000E+01 0.  1.
         -5    1    1    2    0  503 -0.16195933226E+01  0.32632539914E+01 -0.19359976958E+02  0.20252669379E+02  0.47000000000E+01 0. -1.
<mgrwt>
<rscale>  2 0.59465880E+01</rscale>
<asrwt>0</asrwt>
<pdfrwt beam="1">  1       21 0.37019232E-03 0.59465880E+01</pdfrwt>
<pdfrwt beam="2">  1       21 0.37410756E-02 0.59465880E+01</pdfrwt>
<totfact> 0.18845682E+09</totfact>
</mgrwt>
</event>
<event>
 4    1  0.3906087E+006  0.4966949E+01  0.7546771E-02  0.2573051E+00
         21   -1    0    0  501  502  0.00000000000E+00  0.00000000000E+00  0.13259813714E+04  0.13259813714E+04  0.00000000000E+00 0.  1.
         21   -1    0    0  502  503 -0.00000000000E+00 -0.00000000000E+00 -0.48732565100E-01  0.48732565100E-01  0.00000000000E+00 0.  1.
          5    1    1    2  501    0 -0.10637681098E+00 -0.16028929207E+01  0.11842714187E+04  0.11842818346E+04  0.47000000000E+01 0.  1.
         -5    1    1    2    0  503  0.10637681098E+00  0.16028929207E+01  0.14166122018E+03  0.14174826942E+03  0.47000000000E+01 0.  1.
<mgrwt>
<rscale>  2 0.49669489E+01</rscale>
<asrwt>0</asrwt>
<pdfrwt beam="1">  1       21 0.20396824E+00 0.49669489E+01</pdfrwt>
<pdfrwt beam="2">  1       21 0.74983797E-05 0.49669489E+01</pdfrwt>
<totfact> 0.30303394E+08</totfact>
</mgrwt>
</event>
<event>
 4    1  0.3906087E+006  0.5835488E+01  0.7546771E-02  0.2437340E+00
         21   -1    0    0  501  502  0.00000000000E+00  0.00000000000E+00  0.16484278360E+03  0.16484278360E+03  0.00000000000E+00 0. -1.
         21   -1    0    0  502  503 -0.00000000000E+00 -0.00000000000E+00 -0.61233070871E+00  0.61233070871E+00  0.00000000000E+00 0.  1.
          5    1    1    2  501    0 -0.99877448498E+00 -0.33113991567E+01  0.14945750732E+03  0.14957138566E+03  0.47000000000E+01 0. -1.
         -5    1    1    2    0  503  0.99877448498E+00  0.33113991567E+01  0.14772945576E+02  0.15883728650E+02  0.47000000000E+01 0.  1.
<mgrwt>
<rscale>  2 0.58354875E+01</rscale>
<asrwt>0</asrwt>
<pdfrwt beam="1">  1       21 0.25360393E-01 0.58354875E+01</pdfrwt>
<pdfrwt beam="2">  1       21 0.94204856E-04 0.58354875E+01</pdfrwt>
<totfact> 0.62629774E+08</totfact>
</mgrwt>
</event>
<event>
 4    1  0.3906087E+006  0.5308427E+01  0.7546771E-02  0.2515185E+00
         21   -1    0    0  503  502  0.00000000000E+00  0.00000000000E+00  0.55366145338E-01  0.55366145338E-01  0.00000000000E+00 0. -1.
         21   -1    0    0  501  503 -0.00000000000E+00 -0.00000000000E+00 -0.60799672184E+03  0.60799672184E+03  0.00000000000E+00 0. -1.
          5    1    1    2  501    0  0.43661789141E+00  0.24287374663E+01 -0.42667178883E+03  0.42670480989E+03  0.47000000000E+01 0. -1.
         -5    1    1    2    0  502 -0.43661789141E+00 -0.24287374663E+01 -0.18126956687E+03  0.18134727810E+03  0.47000000000E+01 0. -1.
<mgrwt>
<rscale>  2 0.53084273E+01</rscale>
<asrwt>0</asrwt>
<pdfrwt beam="1">  1       21 0.85178114E-05 0.53084273E+01</pdfrwt>
<pdfrwt beam="2">  1       21 0.93538585E-01 0.53084273E+01</pdfrwt>
<totfact> 0.13721731E+09</totfact>
</mgrwt>
</event>
<event>
 4    1  0.3906087E+006  0.4715925E+01  0.7546771E-02  0.2620158E+00
         21   -1    0    0  503  502  0.00000000000E+00  0.00000000000E+00  0.53684930736E-01  0.53684930736E-01  0.00000000000E+00 0. -1.
         21   -1    0    0  501  503 -0.00000000000E+00 -0.00000000000E+00 -0.12097120684E+04  0.12097120684E+04  0.00000000000E+00 0. -1.
          5    1    1    2  501    0 -0.22653013959E+00 -0.31405185365E+00 -0.10953248077E+04  0.10953349599E+04  0.47000000000E+01 0. -1.
         -5    1    1    2    0  502  0.22653013959E+00  0.31405185365E+00 -0.11433357570E+03  0.11443079339E+03  0.47000000000E+01 0. -1.
<mgrwt>
<rscale>  2 0.47159246E+01</rscale>
<asrwt>0</asrwt>
<pdfrwt beam="1">  1       21 0.82591865E-05 0.47159246E+01</pdfrwt>
<pdfrwt beam="2">  1       21 0.18611031E+00 0.47159246E+01</pdfrwt>
<totfact> 0.31378244E+08</totfact>
</mgrwt>
</event>
<event>
 4    1  0.3906087E+006  0.9090216E+01  0.7546771E-02  0.2130790E+00
         21   -1    0    0  501  502  0.00000000000E+00  0.00000000000E+00  0.77168895507E+01  0.77168895507E+01  0.00000000000E+00 0.  1.
         21   -1    0    0  502  503 -0.00000000000E+00 -0.00000000000E+00 -0.15098401593E+02  0.15098401593E+02  0.00000000000E+00 0. -1.
          5    1    1    2  501    0 -0.23313925446E+01  0.74233845222E+01  0.24608055677E+01  0.94174090388E+01  0.47000000000E+01 0.  1.
         -5    1    1    2    0  503  0.23313925446E+01 -0.74233845222E+01 -0.98423176102E+01  0.13397882105E+02  0.47000000000E+01 0. -1.
<mgrwt>
<rscale>  2 0.90902161E+01</rscale>
<asrwt>0</asrwt>
<pdfrwt beam="1">  1       21 0.11872138E-02 0.90902161E+01</pdfrwt>
<pdfrwt beam="2">  1       21 0.23228310E-02 0.90902161E+01</pdfrwt>
<totfact> 0.99773084E+08</totfact>
</mgrwt>
</event>
<event>
 4    1  0.3906087E+006  0.5928352E+01  0.7546771E-02  0.2424843E+00
         21   -1    0    0  503  502  0.00000000000E+00  0.00000000000E+00  0.13100113536E+03  0.13100113536E+03  0.00000000000E+00 0. -1.
         21   -1    0    0  501  503 -0.00000000000E+00 -0.00000000000E+00 -0.34492753375E+00  0.34492753375E+00  0.00000000000E+00 0.  1.
          5    1    1    2  501    0 -0.52701601414E+00 -0.35745782455E+01  0.34370723566E+02  0.34878245282E+02  0.47000000000E+01 0.  1.
         -5    1    1    2    0  502  0.52701601414E+00  0.35745782455E+01  0.96285484261E+02  0.96467817612E+02  0.47000000000E+01 0. -1.
<mgrwt>
<rscale>  2 0.59283518E+01</rscale>
<asrwt>0</asrwt>
<pdfrwt beam="1">  1       21 0.20153981E-01 0.59283518E+01</pdfrwt>
<pdfrwt beam="2">  1       21 0.53065879E-04 0.59283518E+01</pdfrwt>
<totfact> 0.19884282E+09</totfact>
</mgrwt>
</event>
<event>
 4    1  0.3906087E+006  0.5918628E+01  0.7546771E-02  0.2426136E+00
         21   -1    0    0  503  502  0.00000000000E+00  0.00000000000E+00  0.24747852078E+01  0.24747852078E+01  0.00000000000E+00 0.  1.
         21   -1    0    0  501  503 -0.00000000000E+00 -0.00000000000E+00 -0.33822470884E+02  0.33822470884E+02  0.00000000000E+00 0. -1.
          5    1    1    2  501    0  0.32204447767E+01  0.16027780239E+01 -0.29513243341E+02  0.30100858700E+02  0.47000000000E+01 0. -1.
         -5    1    1    2    0  502 -0.32204447767E+01 -0.16027780239E+01 -0.18344423345E+01  0.61963973914E+01  0.47000000000E+01 0.  1.
<mgrwt>
<rscale>  2 0.59186284E+01</rscale>
<asrwt>0</asrwt>
<pdfrwt beam="1">  1       21 0.38073616E-03 0.59186284E+01</pdfrwt>
<pdfrwt beam="2">  1       21 0.52034574E-02 0.59186284E+01</pdfrwt>
<totfact> 0.11104630E+09</totfact>
</mgrwt>
</event>
<event>
 4    1  0.3906087E+006  0.5187169E+01  0.7546771E-02  0.2534984E+00
         21   -1    0    0  501  502  0.00000000000E+00  0.00000000000E+00  0.41253215260E-01  0.41253215260E-01  0.00000000000E+00 0.  1.
         21   -1    0    0  502  503 -0.00000000000E+00 -0.00000000000E+00 -0.18149102659E+04  0.18149102659E+04  0.00000000000E+00 0.  1.
          5    1    1    2  501    0  0.94142792457E+00  0.19825338323E+01 -0.18109952549E+03  0.18117379739E+03  0.47000000000E+01 0.  1.
         -5    1    1    2    0  503 -0.94142792457E+00 -0.19825338323E+01 -0.16337694872E+04  0.16337777218E+04  0.47000000000E+01 0.  1.
<mgrwt>
<rscale>  2 0.51871695E+01</rscale>
<asrwt>0</asrwt>
<pdfrwt beam="1">  1       21 0.63445188E-05 0.51871695E+01</pdfrwt>
<pdfrwt beam="2">  1       21 0.27931069E+00 0.51871695E+01</pdfrwt>
<totfact> 0.19065542E+08</totfact>
</mgrwt>
</event>
<event>
 4    1  0.3906087E+006  0.5281395E+01  0.7546771E-02  0.2519531E+00
         21   -1    0    0  501  502  0.00000000000E+00  0.00000000000E+00  0.28006089369E+01  0.28006089369E+01  0.00000000000E+00 0.  1.
         21   -1    0    0  502  503 -0.00000000000E+00 -0.00000000000E+00 -0.13817386024E+02  0.13817386024E+02  0.00000000000E+00 0.  1.
          5    1    1    2  501    0  0.30793126013E+00 -0.23892070173E+01 -0.11180198812E+01  0.53984349850E+01  0.47000000000E+01 0. -1.
         -5    1    1    2    0  503 -0.30793126013E+00  0.23892070173E+01 -0.98987572057E+01  0.11219559976E+02  0.47000000000E+01 0. -1.
<mgrwt>
<rscale>  2 0.52813949E+01</rscale>
<asrwt>0</asrwt>
<pdfrwt beam="1">  1       21 0.43086291E-03 0.52813949E+01</pdfrwt>
<pdfrwt beam="2">  1       21 0.21257517E-02 0.52813949E+01</pdfrwt>
<totfact> 0.31051560E+09</totfact>
</mgrwt>
</event>
<event>
 4    1  0.3906087E+006  0.2115458E+02  0.7546771E-02  0.1723297E+00
         21   -1    0    0  501  502  0.00000000000E+00  0.00000000000E+00  0.21387432644E+02  0.21387432644E+02  0.00000000000E+00 0.  1.
         21   -1    0    0  502  503 -0.00000000000E+00 -0.00000000000E+00 -0.69493370738E+02  0.69493370738E+02  0.00000000000E+00 0. -1.
          5    1    1    2  501    0 -0.19461801460E+02 -0.68311487331E+01  0.13935389348E+02  0.25332022923E+02  0.47000000000E+01 0.  1.
         -5    1    1    2    0  503  0.19461801460E+02  0.68311487331E+01 -0.62041327442E+02  0.65548780460E+02  0.47000000000E+01 0. -1.
<mgrwt>
<rscale>  2 0.21154581E+02</rscale>
<asrwt>0</asrwt>
<pdfrwt beam="1">  1       21 0.32903742E-02 0.21154581E+02</pdfrwt>
<pdfrwt beam="2">  1       21 0.10691288E-01 0.21154581E+02</pdfrwt>
<totfact> 0.28300996E+07</totfact>
</mgrwt>
</event>
<event>
 4    1  0.3906087E+006  0.1668381E+02  0.7546771E-02  0.1820650E+00
         21   -1    0    0  501  502  0.00000000000E+00  0.00000000000E+00  0.11488997104E+03  0.11488997104E+03  0.00000000000E+00 0. -1.
         21   -1    0    0  502  503 -0.00000000000E+00 -0.00000000000E+00 -0.25692693839E+01  0.25692693839E+01  0.00000000000E+00 0. -1.
          5    1    1    2  501    0 -0.78920291750E+00  0.15988641077E+02  0.70185335577E+02  0.72141048058E+02  0.47000000000E+01 0. -1.
         -5    1    1    2    0  503  0.78920291750E+00 -0.15988641077E+02  0.42135366077E+02  0.45318192364E+02  0.47000000000E+01 0. -1.
<mgrwt>
<rscale>  2 0.16683809E+02</rscale>
<asrwt>0</asrwt>
<pdfrwt beam="1">  1       21 0.17675376E-01 0.16683809E+02</pdfrwt>
<pdfrwt beam="2">  1       21 0.39527230E-03 0.16683809E+02</pdfrwt>
<totfact> 0.27134574E+08</totfact>
</mgrwt>
</event>
<event>
 4    1  0.3906087E+006  0.5679801E+01  0.7546771E-02  0.2459059E+00
         21   -1    0    0  501  502  0.00000000000E+00  0.00000000000E+00  0.16870841704E+03  0.16870841704E+03  0.00000000000E+00 0. -1.
         21   -1    0    0  502  503 -0.00000000000E+00 -0.00000000000E+00 -0.12136442771E+01  0.12136442771E+01  0.00000000000E+00 0. -1.
          5    1    1    2  501    0  0.31219739393E+01  0.65070908508E+00  0.16172860092E+03  0.16182830561E+03  0.47000000000E+01 0. -1.
         -5    1    1    2    0  503 -0.31219739393E+01 -0.65070908508E+00  0.57661718412E+01  0.80937556977E+01  0.47000000000E+01 0. -1.
<mgrwt>
<rscale>  2 0.56798014E+01</rscale>
<asrwt>0</asrwt>
<pdfrwt beam="1">  1       21 0.25955122E-01 0.56798014E+01</pdfrwt>
<pdfrwt beam="2">  1       21 0.18671464E-03 0.56798014E+01</pdfrwt>
<totfact> 0.23521719E+08</totfact>
</mgrwt>
</event>
<event>
 4    1  0.3906087E+006  0.9570831E+01  0.7546771E-02  0.2100268E+00
         21   -1    0    0  503  502  0.00000000000E+00  0.00000000000E+00  0.24073734527E+01  0.24073734527E+01  0.00000000000E+00 0.  1.
         21   -1    0    0  501  503 -0.00000000000E+00 -0.00000000000E+00 -0.51433288387E+02  0.51433288387E+02  0.00000000000E+00 0. -1.
          5    1    1    2  501    0 -0.68216187817E+01 -0.47933616399E+01 -0.38245092249E+02  0.39424457888E+02  0.47000000000E+01 0. -1.
         -5    1    1    2    0  502  0.68216187817E+01  0.47933616399E+01 -0.10780822685E+02  0.14416203952E+02  0.47000000000E+01 0.  1.
<mgrwt>
<rscale>  2 0.95708306E+01</rscale>
<asrwt>0</asrwt>
<pdfrwt beam="1">  1       21 0.37036516E-03 0.95708306E+01</pdfrwt>
<pdfrwt beam="2">  1       21 0.79128133E-02 0.95708306E+01</pdfrwt>
<totfact> 0.85048289E+08</totfact>
</mgrwt>
</event>
<event>
 4    1  0.3906087E+006  0.6676350E+01  0.7546771E-02  0.2334914E+00
         21   -1    0    0  501  502  0.00000000000E+00  0.00000000000E+00  0.57821963610E+00  0.57821963610E+00  0.00000000000E+00 0. -1.
         21   -1    0    0  502  503 -0.00000000000E+00 -0.00000000000E+00 -0.97619969599E+02  0.97619969599E+02  0.00000000000E+00 0. -1.
          5    1    1    2  501    0 -0.46968603910E+01  0.65050253175E+00 -0.26003275290E+02  0.26846675341E+02  0.47000000000E+01 0. -1.
         -5    1    1    2    0  503  0.46968603910E+01 -0.65050253175E+00 -0.71038474673E+02  0.71351513893E+02  0.47000000000E+01 0. -1.
<mgrwt>
<rscale>  2 0.66763501E+01</rscale>
<asrwt>0</asrwt>
<pdfrwt beam="1">  1       21 0.88956840E-04 0.66763501E+01</pdfrwt>
<pdfrwt beam="2">  1       21 0.15018461E-01 0.66763501E+01</pdfrwt>
<totfact> 0.17480729E+09</totfact>
</mgrwt>
</event>
<event>
 4    1  0.3906087E+006  0.5267115E+01  0.7546771E-02  0.2521843E+00
         21   -1    0    0  503  502  0.00000000000E+00  0.00000000000E+00  0.17198136019E+01  0.17198136019E+01  0.00000000000E+00 0.  1.
         21   -1    0    0  501  503 -0.00000000000E+00 -0.00000000000E+00 -0.27799626818E+02  0.27799626818E+02  0.00000000000E+00 0. -1.
          5    1    1    2  501    0  0.19962107045E+01  0.12913741078E+01 -0.22602296555E+02  0.23207893352E+02  0.47000000000E+01 0. -1.
         -5    1    1    2    0  502 -0.19962107045E+01 -0.12913741078E+01 -0.34775166605E+01  0.63115470677E+01  0.47000000000E+01 0.  1.
<mgrwt>
<rscale>  2 0.52671154E+01</rscale>
<asrwt>0</asrwt>
<pdfrwt beam="1">  1       21 0.26458671E-03 0.52671154E+01</pdfrwt>
<pdfrwt beam="2">  1       21 0.42768657E-02 0.52671154E+01</pdfrwt>
<totfact> 0.22008660E+09</totfact>
</mgrwt>
</event>
<event>
 4    1  0.3906087E+006  0.4822591E+01  0.7546771E-02  0.2599622E+00
         21   -1    0    0  501  502  0.00000000000E+00  0.00000000000E+00  0.41875212791E+03  0.41875212791E+03  0.00000000000E+00 0. -1.
         21   -1    0    0  502  503 -0.00000000000E+00 -0.00000000000E+00 -0.10165488052E+00  0.10165488052E+00  0.00000000000E+00 0. -1.
          5    1    1    2  501    0 -0.84472177378E+00 -0.67366913571E+00  0.35038075767E+03  0.35041394483E+03  0.47000000000E+01 0. -1.
         -5    1    1    2    0  503  0.84472177378E+00  0.67366913571E+00  0.68269715356E+02  0.68439837958E+02  0.47000000000E+01 0. -1.
<mgrwt>
<rscale>  2 0.48225911E+01</rscale>
<asrwt>0</asrwt>
<pdfrwt beam="1">  1       21 0.64422023E-01 0.48225911E+01</pdfrwt>
<pdfrwt beam="2">  1       21 0.15639548E-04 0.48225911E+01</pdfrwt>
<totfact> 0.11571150E+09</totfact>
</mgrwt>
</event>
<event>
 4    1  0.3906087E+006  0.4863049E+01  0.7546771E-02  0.2592037E+00
         21   -1    0    0  501  502  0.00000000000E+00  0.00000000000E+00  0.10963222105E+01  0.10963222105E+01  0.00000000000E+00 0.  1.
         21   -1    0    0  502  503 -0.00000000000E+00 -0.00000000000E+00 -0.21670954650E+02  0.21670954650E+02  0.00000000000E+00 0.  1.
          5    1    1    2  501    0  0.12169607626E+01 -0.27973805629E+00 -0.95158989163E+01  0.10686513887E+02  0.47000000000E+01 0. -1.
         -5    1    1    2    0  503 -0.12169607626E+01  0.27973805629E+00 -0.11058733523E+02  0.12080762973E+02  0.47000000000E+01 0. -1.
<mgrwt>
<rscale>  2 0.48630491E+01</rscale>
<asrwt>0</asrwt>
<pdfrwt beam="1">  1       21 0.16866497E-03 0.48630491E+01</pdfrwt>
<pdfrwt beam="2">  1       21 0.33339927E-02 0.48630491E+01</pdfrwt>
<totfact> 0.53386672E+09</totfact>
</mgrwt>
</event>
<event>
 4    1  0.3906087E+006  0.5482259E+01  0.7546771E-02  0.2488110E+00
         21   -1    0    0  501  502  0.00000000000E+00  0.00000000000E+00  0.43332530812E+03  0.43332530812E+03  0.00000000000E+00 0.  1.
         21   -1    0    0  502  503 -0.00000000000E+00 -0.00000000000E+00 -0.72454432001E-01  0.72454432001E-01  0.00000000000E+00 0.  1.
          5    1    1    2  501    0  0.28194733950E+01 -0.12542934868E+00  0.26141426531E+03  0.26147174469E+03  0.47000000000E+01 0.  1.
         -5    1    1    2    0  503 -0.28194733950E+01  0.12542934868E+00  0.17183858838E+03  0.17192601787E+03  0.47000000000E+01 0.  1.
<mgrwt>
<rscale>  2 0.54822589E+01</rscale>
<asrwt>0</asrwt>
<pdfrwt beam="1">  1       21 0.66663357E-01 0.54822589E+01</pdfrwt>
<pdfrwt beam="2">  1       21 0.11147183E-04 0.54822589E+01</pdfrwt>
<totfact> 0.18888734E+09</totfact>
</mgrwt>
</event>
<event>
 4    1  0.3906087E+006  0.8772954E+01  0.7546771E-02  0.2152379E+00
         21   -1    0    0  501  502  0.00000000000E+00  0.00000000000E+00  0.92529354614E+02  0.92529354614E+02  0.00000000000E+00 0.  1.
         21   -1    0    0  502  503 -0.00000000000E+00 -0.00000000000E+00 -0.31070463661E+01  0.31070463661E+01  0.00000000000E+00 0. -1.
          5    1    1    2  501    0 -0.45700008898E+01  0.58300778789E+01  0.85631077791E+02  0.86079301808E+02  0.47000000000E+01 0.  1.
         -5    1    1    2    0  503  0.45700008898E+01 -0.58300778789E+01  0.37912304578E+01  0.95570991724E+01  0.47000000000E+01 0. -1.
<mgrwt>
<rscale>  2 0.87729537E+01</rscale>
<asrwt>0</asrwt>
<pdfrwt beam="1">  1       21 0.14235283E-01 0.87729537E+01</pdfrwt>
<pdfrwt beam="2">  1       21 0.47800720E-03 0.87729537E+01</pdfrwt>
<totfact> 0.22231317E+08</totfact>
</mgrwt>
</event>
<event>
 4    1  0.3906087E+006  0.5035586E+01  0.7546771E-02  0.2560879E+00
         21   -1    0    0  503  502  0.00000000000E+00  0.00000000000E+00  0.21601208200E+02  0.21601208200E+02  0.00000000000E+00 0. -1.
         21   -1    0    0  501  503 -0.00000000000E+00 -0.00000000000E+00 -0.12287559147E+01  0.12287559147E+01  0.00000000000E+00 0. -1.
          5    1    1    2  501    0 -0.68394054360E+00 -0.16731269005E+01  0.77738153744E+01  0.92622531690E+01  0.47000000000E+01 0. -1.
         -5    1    1    2    0  502  0.68394054360E+00  0.16731269005E+01  0.12598636911E+02  0.13567710946E+02  0.47000000000E+01 0. -1.
<mgrwt>
<rscale>  2 0.50355862E+01</rscale>
<asrwt>0</asrwt>
<pdfrwt beam="1">  1       21 0.33232625E-02 0.50355862E+01</pdfrwt>
<pdfrwt beam="2">  1       21 0.18903939E-03 0.50355862E+01</pdfrwt>
<totfact> 0.47764214E+09</totfact>
</mgrwt>
</event>
<event>
 4    1  0.3906087E+006  0.5573630E+01  0.7546771E-02  0.2474456E+00
         21   -1    0    0  501  502  0.00000000000E+00  0.00000000000E+00  0.47083629324E+00  0.47083629324E+00  0.00000000000E+00 0.  1.
         21   -1    0    0  502  503 -0.00000000000E+00 -0.00000000000E+00 -0.13698613003E+03  0.13698613003E+03  0.00000000000E+00 0. -1.
          5    1    1    2  501    0 -0.25077155578E+00  0.29853760199E+01 -0.18775432637E+02  0.19585255348E+02  0.47000000000E+01 0.  1.
         -5    1    1    2    0  503  0.25077155578E+00 -0.29853760199E+01 -0.11773986110E+03  0.11787171097E+03  0.47000000000E+01 0. -1.
<mgrwt>
<rscale>  2 0.55736304E+01</rscale>
<asrwt>0</asrwt>
<pdfrwt beam="1">  1       21 0.72436242E-04 0.55736304E+01</pdfrwt>
<pdfrwt beam="2">  1       21 0.21074822E-01 0.55736304E+01</pdfrwt>
<totfact> 0.11610711E+09</totfact>
</mgrwt>
</event>
<event>
 4    1  0.3906087E+006  0.5201580E+01  0.7546771E-02  0.2532590E+00
         21   -1    0    0  501  502  0.00000000000E+00  0.00000000000E+00  0.19104115796E+00  0.19104115796E+00  0.00000000000E+00 0.  1.
         21   -1    0    0  502  503 -0.00000000000E+00 -0.00000000000E+00 -0.28712067948E+03  0.28712067948E+03  0.00000000000E+00 0.  1.
          5    1    1    2  501    0  0.87668001440E+00  0.20488686169E+01 -0.41202793748E+02  0.41529828353E+02  0.47000000000E+01 0.  1.
         -5    1    1    2    0  503 -0.87668001440E+00 -0.20488686169E+01 -0.24572684457E+03  0.24578189228E+03  0.47000000000E+01 0.  1.
<mgrwt>
<rscale>  2 0.52015796E+01</rscale>
<asrwt>0</asrwt>
<pdfrwt beam="1">  1       21 0.29391010E-04 0.52015796E+01</pdfrwt>
<pdfrwt beam="2">  1       21 0.44172318E-01 0.52015796E+01</pdfrwt>
<totfact> 0.10529787E+09</totfact>
</mgrwt>
</event>
<event>
 4    1  0.3906087E+006  0.4820104E+01  0.7546771E-02  0.2600092E+00
         21   -1    0    0  501  502  0.00000000000E+00  0.00000000000E+00  0.21982181937E+01  0.21982181937E+01  0.00000000000E+00 0.  1.
         21   -1    0    0  502  503 -0.00000000000E+00 -0.00000000000E+00 -0.22763326217E+02  0.22763326217E+02  0.00000000000E+00 0.  1.
          5    1    1    2  501    0 -0.47749310059E-01  0.10682337788E+01 -0.11477554761E+01  0.49548709404E+01  0.47000000000E+01 0.  1.
         -5    1    1    2    0  503  0.47749310059E-01 -0.10682337788E+01 -0.19417352547E+02  0.20006673470E+02  0.47000000000E+01 0.  1.
<mgrwt>
<rscale>  2 0.48201041E+01</rscale>
<asrwt>0</asrwt>
<pdfrwt beam="1">  1       21 0.33818740E-03 0.48201041E+01</pdfrwt>
<pdfrwt beam="2">  1       21 0.35020503E-02 0.48201041E+01</pdfrwt>
<totfact> 0.19294823E+09</totfact>
</mgrwt>
</event>
<event>
 4    1  0.3906087E+006  0.5765782E+01  0.7546771E-02  0.2446942E+00
         21   -1    0    0  501  502  0.00000000000E+00  0.00000000000E+00  0.74263931101E+02  0.74263931101E+02  0.00000000000E+00 0. -1.
         21   -1    0    0  502  503 -0.00000000000E+00 -0.00000000000E+00 -0.91751385880E+00  0.91751385880E+00  0.00000000000E+00 0. -1.
          5    1    1    2  501    0 -0.32960539458E+01 -0.53876370049E+00  0.63573714312E+02  0.63834640983E+02  0.47000000000E+01 0. -1.
         -5    1    1    2    0  503  0.32960539458E+01  0.53876370049E+00  0.97727029304E+01  0.11346803978E+02  0.47000000000E+01 0. -1.
<mgrwt>
<rscale>  2 0.57657816E+01</rscale>
<asrwt>0</asrwt>
<pdfrwt beam="1">  1       21 0.11425215E-01 0.57657816E+01</pdfrwt>
<pdfrwt beam="2">  1       21 0.14115604E-03 0.57657816E+01</pdfrwt>
<totfact> 0.12812780E+09</totfact>
</mgrwt>
</event>
<event>
 4    1  0.3906087E+006  0.5069793E+01  0.7546771E-02  0.2554920E+00
         21   -1    0    0  503  502  0.00000000000E+00  0.00000000000E+00  0.53354214013E+00  0.53354214013E+00  0.00000000000E+00 0. -1.
         21   -1    0    0  501  503 -0.00000000000E+00 -0.00000000000E+00 -0.49724931028E+02  0.49724931028E+02  0.00000000000E+00 0. -1.
          5    1    1    2  501    0 -0.73403903503E+00  0.17532781124E+01 -0.29033871365E+02  0.29473182452E+02  0.47000000000E+01 0. -1.
         -5    1    1    2    0  502  0.73403903503E+00 -0.17532781124E+01 -0.20157517523E+02  0.20785290715E+02  0.47000000000E+01 0. -1.
<mgrwt>
<rscale>  2 0.50697926E+01</rscale>
<asrwt>0</asrwt>
<pdfrwt beam="1">  1       21 0.82083410E-04 0.50697926E+01</pdfrwt>
<pdfrwt beam="2">  1       21 0.76499890E-02 0.50697926E+01</pdfrwt>
<totfact> 0.43191160E+09</totfact>
</mgrwt>
</event>
<event>
 4    1  0.3906087E+006  0.6519732E+01  0.7546771E-02  0.2352319E+00
         21   -1    0    0  501  502  0.00000000000E+00  0.00000000000E+00  0.54293256458E+01  0.54293256458E+01  0.00000000000E+00 0.  1.
         21   -1    0    0  502  503 -0.00000000000E+00 -0.00000000000E+00 -0.81178513027E+01  0.81178513027E+01  0.00000000000E+00 0.  1.
          5    1    1    2  501    0 -0.43231530915E+00 -0.44977785114E+01 -0.66835962967E-01  0.65200747780E+01  0.47000000000E+01 0.  1.
         -5    1    1    2    0  503  0.43231530915E+00  0.44977785114E+01 -0.26216896939E+01  0.70271021706E+01  0.47000000000E+01 0.  1.
<mgrwt>
<rscale>  2 0.65197322E+01</rscale>
<asrwt>0</asrwt>
<pdfrwt beam="1">  1       21 0.83528088E-03 0.65197322E+01</pdfrwt>
<pdfrwt beam="2">  1       21 0.12489002E-02 0.65197322E+01</pdfrwt>
<totfact> 0.31927718E+09</totfact>
</mgrwt>
</event>
<event>
 4    1  0.3906087E+006  0.1015579E+02  0.7546771E-02  0.2066228E+00
         21   -1    0    0  501  502  0.00000000000E+00  0.00000000000E+00  0.22300974445E+00  0.22300974445E+00  0.00000000000E+00 0.  1.
         21   -1    0    0  502  503 -0.00000000000E+00 -0.00000000000E+00 -0.83839870940E+03  0.83839870940E+03  0.00000000000E+00 0.  1.
          5    1    1    2  501    0  0.51355776812E+00 -0.89881203079E+01 -0.13831746307E+03  0.13868980005E+03  0.47000000000E+01 0.  1.
         -5    1    1    2    0  503 -0.51355776812E+00  0.89881203079E+01 -0.69985823659E+03  0.69993191909E+03  0.47000000000E+01 0.  1.
<mgrwt>
<rscale>  2 0.10155789E+02</rscale>
<asrwt>0</asrwt>
<pdfrwt beam="1">  1       21 0.34308583E-04 0.10155789E+02</pdfrwt>
<pdfrwt beam="2">  1       21 0.12898671E+00 0.10155789E+02</pdfrwt>
<totfact> 0.15648722E+08</totfact>
</mgrwt>
</event>
<event>
 4    1  0.3906087E+006  0.6005564E+01  0.7546771E-02  0.2414700E+00
         21   -1    0    0  503  502  0.00000000000E+00  0.00000000000E+00  0.80188794031E+00  0.80188794031E+00  0.00000000000E+00 0. -1.
         21   -1    0    0  501  503 -0.00000000000E+00 -0.00000000000E+00 -0.12451888259E+03  0.12451888259E+03  0.00000000000E+00 0. -1.
          5    1    1    2  501    0 -0.89943683538E+00 -0.36287482958E+01 -0.11193943013E+03  0.11210041399E+03  0.47000000000E+01 0. -1.
         -5    1    1    2    0  502  0.89943683538E+00  0.36287482958E+01 -0.11777564521E+02  0.13220356533E+02  0.47000000000E+01 0. -1.
<mgrwt>
<rscale>  2 0.60055642E+01</rscale>
<asrwt>0</asrwt>
<pdfrwt beam="1">  1       21 0.12336749E-03 0.60055642E+01</pdfrwt>
<pdfrwt beam="2">  1       21 0.19156733E-01 0.60055642E+01</pdfrwt>
<totfact> 0.70323997E+08</totfact>
</mgrwt>
</event>
<event>
 4    1  0.3906087E+006  0.5921249E+01  0.7546771E-02  0.2425787E+00
         21   -1    0    0  503  502  0.00000000000E+00  0.00000000000E+00  0.83649285350E+01  0.83649285350E+01  0.00000000000E+00 0.  1.
         21   -1    0    0  501  503 -0.00000000000E+00 -0.00000000000E+00 -0.42860421611E+01  0.42860421611E+01  0.00000000000E+00 0.  1.
          5    1    1    2  501    0  0.14018479775E+01 -0.33175304593E+01  0.29791480064E+01  0.66284620346E+01  0.47000000000E+01 0.  1.
         -5    1    1    2    0  502 -0.14018479775E+01  0.33175304593E+01  0.10997383675E+01  0.60225086615E+01  0.47000000000E+01 0.  1.
<mgrwt>
<rscale>  2 0.59212487E+01</rscale>
<asrwt>0</asrwt>
<pdfrwt beam="1">  1       21 0.12869121E-02 0.59212487E+01</pdfrwt>
<pdfrwt beam="2">  1       21 0.65939110E-03 0.59212487E+01</pdfrwt>
<totfact> 0.39164322E+09</totfact>
</mgrwt>
</event>
<event>
 4    1  0.3906087E+006  0.4731478E+01  0.7546771E-02  0.2617114E+00
         21   -1    0    0  503  502  0.00000000000E+00  0.00000000000E+00  0.21334000080E+03  0.21334000080E+03  0.00000000000E+00 0. -1.
         21   -1    0    0  501  503 -0.00000000000E+00 -0.00000000000E+00 -0.11801043136E+00  0.11801043136E+00  0.00000000000E+00 0. -1.
          5    1    1    2  501    0 -0.45774497716E+00  0.29555193042E+00  0.71084979165E+02  0.71242270768E+02  0.47000000000E+01 0. -1.
         -5    1    1    2    0  502  0.45774497716E+00 -0.29555193042E+00  0.14213701120E+03  0.14221574046E+03  0.47000000000E+01 0. -1.
<mgrwt>
<rscale>  2 0.47314777E+01</rscale>
<asrwt>0</asrwt>
<pdfrwt beam="1">  1       21 0.32821230E-01 0.47314777E+01</pdfrwt>
<pdfrwt beam="2">  1       21 0.18155622E-04 0.47314777E+01</pdfrwt>
<totfact> 0.30387038E+09</totfact>
</mgrwt>
</event>
<event>
 4    1  0.3906087E+006  0.4928373E+01  0.7546771E-02  0.2580019E+00
         21   -1    0    0  501  502  0.00000000000E+00  0.00000000000E+00  0.41039538609E+01  0.41039538609E+01  0.00000000000E+00 0.  1.
         21   -1    0    0  502  503 -0.00000000000E+00 -0.00000000000E+00 -0.15023421215E+02  0.15023421215E+02  0.00000000000E+00 0.  1.
          5    1    1    2  501    0 -0.54910664296E+00 -0.13774408937E+01  0.19855511307E+01  0.53133110970E+01  0.47000000000E+01 0.  1.
         -5    1    1    2    0  503  0.54910664296E+00  0.13774408937E+01 -0.12905018485E+02  0.13814063979E+02  0.47000000000E+01 0.  1.
<mgrwt>
<rscale>  2 0.49283731E+01</rscale>
<asrwt>0</asrwt>
<pdfrwt beam="1">  1       21 0.63137754E-03 0.49283731E+01</pdfrwt>
<pdfrwt beam="2">  1       21 0.23112955E-02 0.49283731E+01</pdfrwt>
<totfact> 0.15207363E+09</totfact>
</mgrwt>
</event>
<event>
 4    1  0.3906087E+006  0.5612911E+01  0.7546771E-02  0.2468702E+00
         21   -1    0    0  503  502  0.00000000000E+00  0.00000000000E+00  0.29008770793E+02  0.29008770793E+02  0.00000000000E+00 0.  1.
         21   -1    0    0  501  503 -0.00000000000E+00 -0.00000000000E+00 -0.10908851689E+01  0.10908851689E+01  0.00000000000E+00 0.  1.
          5    1    1    2  501    0 -0.27242910501E+01 -0.14117375936E+01  0.12956236182E+02  0.14119802433E+02  0.47000000000E+01 0.  1.
         -5    1    1    2    0  502  0.27242910501E+01  0.14117375936E+01  0.14961649442E+02  0.15979853529E+02  0.47000000000E+01 0.  1.
<mgrwt>
<rscale>  2 0.56129105E+01</rscale>
<asrwt>0</asrwt>
<pdfrwt beam="1">  1       21 0.44628872E-02 0.56129105E+01</pdfrwt>
<pdfrwt beam="2">  1       21 0.16782851E-03 0.56129105E+01</pdfrwt>
<totfact> 0.40678128E+09</totfact>
</mgrwt>
</event>
<event>
 4    1  0.3906087E+006  0.4898317E+01  0.7546771E-02  0.2585514E+00
         21   -1    0    0  501  502  0.00000000000E+00  0.00000000000E+00  0.69972465314E+01  0.69972465314E+01  0.00000000000E+00 0. -1.
         21   -1    0    0  502  503 -0.00000000000E+00 -0.00000000000E+00 -0.46167476649E+01  0.46167476649E+01  0.00000000000E+00 0.  1.
          5    1    1    2  501    0 -0.13698237726E+01  0.16460630017E+00  0.41356667326E+01  0.64107138234E+01  0.47000000000E+01 0. -1.
         -5    1    1    2    0  503  0.13698237726E+01 -0.16460630017E+00 -0.17551678661E+01  0.52032803730E+01  0.47000000000E+01 0.  1.
<mgrwt>
<rscale>  2 0.48983173E+01</rscale>
<asrwt>0</asrwt>
<pdfrwt beam="1">  1       21 0.10764995E-02 0.48983173E+01</pdfrwt>
<pdfrwt beam="2">  1       21 0.71026887E-03 0.48983173E+01</pdfrwt>
<totfact> 0.37667937E+09</totfact>
</mgrwt>
</event>
<event>
 4    1  0.3906087E+006  0.6094642E+01  0.7546771E-02  0.2403266E+00
         21   -1    0    0  501  502  0.00000000000E+00  0.00000000000E+00  0.27438783274E+01  0.27438783274E+01  0.00000000000E+00 0.  1.
         21   -1    0    0  502  503 -0.00000000000E+00 -0.00000000000E+00 -0.15432027877E+02  0.15432027877E+02  0.00000000000E+00 0.  1.
          5    1    1    2  501    0 -0.11750796353E+01  0.36978168685E+01 -0.31596589864E+01  0.68649913804E+01  0.47000000000E+01 0.  1.
         -5    1    1    2    0  503  0.11750796353E+01 -0.36978168685E+01 -0.95284905637E+01  0.11310914824E+02  0.47000000000E+01 0.  1.
<mgrwt>
<rscale>  2 0.60946421E+01</rscale>
<asrwt>0</asrwt>
<pdfrwt beam="1">  1       21 0.42213513E-03 0.60946421E+01</pdfrwt>
<pdfrwt beam="2">  1       21 0.23741581E-02 0.60946421E+01</pdfrwt>
<totfact> 0.31108237E+09</totfact>
</mgrwt>
</event>
<event>
 4    1  0.3906087E+006  0.5355874E+01  0.7546771E-02  0.2507647E+00
         21   -1    0    0  503  502  0.00000000000E+00  0.00000000000E+00  0.16909792566E+00  0.16909792566E+00  0.00000000000E+00 0.  1.
         21   -1    0    0  501  503 -0.00000000000E+00 -0.00000000000E+00 -0.16964230426E+03  0.16964230426E+03  0.00000000000E+00 0. -1.
          5    1    1    2  501    0 -0.47013465194E+00  0.25247496551E+01 -0.84295472557E+02  0.84465449037E+02  0.47000000000E+01 0. -1.
         -5    1    1    2    0  502  0.47013465194E+00 -0.25247496551E+01 -0.85177733779E+02  0.85345953150E+02  0.47000000000E+01 0.  1.
<mgrwt>
<rscale>  2 0.53558741E+01</rscale>
<asrwt>0</asrwt>
<pdfrwt beam="1">  1       21 0.26015108E-04 0.53558741E+01</pdfrwt>
<pdfrwt beam="2">  1       21 0.26098773E-01 0.53558741E+01</pdfrwt>
<totfact> 0.30942424E+09</totfact>
</mgrwt>
</event>
<event>
 4    1  0.3906087E+006  0.5362598E+01  0.7546771E-02  0.2506588E+00
         21   -1    0    0  501  502  0.00000000000E+00  0.00000000000E+00  0.10761845480E+01  0.10761845480E+01  0.00000000000E+00 0.  1.
         21   -1    0    0  502  503 -0.00000000000E+00 -0.00000000000E+00 -0.36382644294E+02  0.36382644294E+02  0.00000000000E+00 0.  1.
          5    1    1    2  501    0  0.17174642409E+01 -0.19281526365E+01 -0.80018952721E+01  0.96326415876E+01  0.47000000000E+01 0.  1.
         -5    1    1    2    0  503 -0.17174642409E+01  0.19281526365E+01 -0.27304564474E+02  0.27826187255E+02  0.47000000000E+01 0.  1.
<mgrwt>
<rscale>  2 0.53625979E+01</rscale>
<asrwt>0</asrwt>
<pdfrwt beam="1">  1       21 0.16556686E-03 0.53625979E+01</pdfrwt>
<pdfrwt beam="2">  1       21 0.55973298E-02 0.53625979E+01</pdfrwt>
<totfact> 0.28437311E+09</totfact>
</mgrwt>
</event>
<event>
 4    1  0.3906087E+006  0.6556794E+01  0.7546771E-02  0.2348139E+00
         21   -1    0    0  503  502  0.00000000000E+00  0.00000000000E+00  0.21540913733E+02  0.21540913733E+02  0.00000000000E+00 0.  1.
         21   -1    0    0  501  503 -0.00000000000E+00 -0.00000000000E+00 -0.25362191268E+01  0.25362191268E+01  0.00000000000E+00 0.  1.
          5    1    1    2  501    0  0.40601093305E+01 -0.21016794834E+01  0.39453111683E+01  0.76522561798E+01  0.47000000000E+01 0.  1.
         -5    1    1    2    0  502 -0.40601093305E+01  0.21016794834E+01  0.15059383438E+02  0.16424876680E+02  0.47000000000E+01 0.  1.
<mgrwt>
<rscale>  2 0.65567938E+01</rscale>
<asrwt>0</asrwt>
<pdfrwt beam="1">  1       21 0.33139866E-02 0.65567938E+01</pdfrwt>
<pdfrwt beam="2">  1       21 0.39018757E-03 0.65567938E+01</pdfrwt>
<totfact> 0.22721414E+09</totfact>
</mgrwt>
</event>
<event>
 4    1  0.3906087E+006  0.8504173E+01  0.7546771E-02  0.2171666E+00
         21   -1    0    0  501  502  0.00000000000E+00  0.00000000000E+00  0.21896001559E+00  0.21896001559E+00  0.00000000000E+00 0.  1.
         21   -1    0    0  502  503 -0.00000000000E+00 -0.00000000000E+00 -0.68069138938E+03  0.68069138938E+03  0.00000000000E+00 0. -1.
          5    1    1    2  501    0 -0.69375013966E+01  0.14498390948E+01 -0.95968614490E+02  0.96344672536E+02  0.47000000000E+01 0.  1.
         -5    1    1    2    0  503  0.69375013966E+01 -0.14498390948E+01 -0.58450381488E+03  0.58456567686E+03  0.47000000000E+01 0. -1.
<mgrwt>
<rscale>  2 0.85041730E+01</rscale>
<asrwt>0</asrwt>
<pdfrwt beam="1">  1       21 0.33685661E-04 0.85041730E+01</pdfrwt>
<pdfrwt beam="2">  1       21 0.10472329E+00 0.85041730E+01</pdfrwt>
<totfact> 0.23142336E+08</totfact>
</mgrwt>
</event>
<event>
 4    1  0.3906087E+006  0.5530943E+01  0.7546771E-02  0.2480787E+00
         21   -1    0    0  501  502  0.00000000000E+00  0.00000000000E+00  0.14900817389E+02  0.14900817389E+02  0.00000000000E+00 0.  1.
         21   -1    0    0  502  503 -0.00000000000E+00 -0.00000000000E+00 -0.55714793596E+01  0.55714793596E+01  0.00000000000E+00 0.  1.
          5    1    1    2  501    0 -0.69170957271E-01 -0.29148837640E+01  0.12799134191E+02  0.13943068817E+02  0.47000000000E+01 0.  1.
         -5    1    1    2    0  503  0.69170957271E-01  0.29148837640E+01 -0.34697961620E+01  0.65292279318E+01  0.47000000000E+01 0.  1.
<mgrwt>
<rscale>  2 0.55309431E+01</rscale>
<asrwt>0</asrwt>
<pdfrwt beam="1">  1       21 0.22924334E-02 0.55309431E+01</pdfrwt>
<pdfrwt beam="2">  1       21 0.85715068E-03 0.55309431E+01</pdfrwt>
<totfact> 0.11216294E+09</totfact>
</mgrwt>
</event>
<event>
 4    1  0.3906087E+006  0.6765605E+01  0.7546771E-02  0.2325293E+00
         21   -1    0    0  501  502  0.00000000000E+00  0.00000000000E+00  0.10460482038E+03  0.10460482038E+03  0.00000000000E+00 0.  1.
         21   -1    0    0  502  503 -0.00000000000E+00 -0.00000000000E+00 -0.55292426445E+00  0.55292426445E+00  0.00000000000E+00 0. -1.
          5    1    1    2  501    0  0.26582419742E+01  0.40764157473E+01  0.28011724236E+02  0.28817184290E+02  0.47000000000E+01 0. -1.
         -5    1    1    2    0  503 -0.26582419742E+01 -0.40764157473E+01  0.76040171877E+02  0.76340560352E+02  0.47000000000E+01 0.  1.
<mgrwt>
<rscale>  2 0.67656053E+01</rscale>
<asrwt>0</asrwt>
<pdfrwt beam="1">  1       21 0.16093034E-01 0.67656053E+01</pdfrwt>
<pdfrwt beam="2">  1       21 0.85065355E-04 0.67656053E+01</pdfrwt>
<totfact> 0.16795924E+09</totfact>
</mgrwt>
</event>
<event>
 4    1  0.3906087E+006  0.5830009E+01  0.7546771E-02  0.2438087E+00
         21   -1    0    0  501  502  0.00000000000E+00  0.00000000000E+00  0.20327254689E+03  0.20327254689E+03  0.00000000000E+00 0.  1.
         21   -1    0    0  502  503 -0.00000000000E+00 -0.00000000000E+00 -0.70059178410E+00  0.70059178410E+00  0.00000000000E+00 0.  1.
          5    1    1    2  501    0 -0.15659003579E+01 -0.30735900244E+01  0.19027367294E+03  0.19036296807E+03  0.47000000000E+01 0.  1.
         -5    1    1    2    0  503  0.15659003579E+01  0.30735900244E+01  0.12298282172E+02  0.13610170607E+02  0.47000000000E+01 0.  1.
<mgrwt>
<rscale>  2 0.58300085E+01</rscale>
<asrwt>0</asrwt>
<pdfrwt beam="1">  1       21 0.31272652E-01 0.58300085E+01</pdfrwt>
<pdfrwt beam="2">  1       21 0.10778351E-03 0.58300085E+01</pdfrwt>
<totfact> 0.36829728E+08</totfact>
</mgrwt>
</event>
<event>
 4    1  0.3906087E+006  0.1564852E+02  0.7546771E-02  0.1848900E+00
         21   -1    0    0  503  502  0.00000000000E+00  0.00000000000E+00  0.13470780927E+01  0.13470780927E+01  0.00000000000E+00 0. -1.
         21   -1    0    0  501  503 -0.00000000000E+00 -0.00000000000E+00 -0.28393561488E+03  0.28393561488E+03  0.00000000000E+00 0.  1.
          5    1    1    2  501    0  0.13843877325E+02 -0.55797283814E+01 -0.22685206459E+03  0.22739115092E+03  0.47000000000E+01 0.  1.
         -5    1    1    2    0  502 -0.13843877325E+02  0.55797283814E+01 -0.55736472199E+02  0.57891542054E+02  0.47000000000E+01 0. -1.
<mgrwt>
<rscale>  2 0.15648524E+02</rscale>
<asrwt>0</asrwt>
<pdfrwt beam="1">  1       21 0.20724298E-03 0.15648524E+02</pdfrwt>
<pdfrwt beam="2">  1       21 0.43682361E-01 0.15648524E+02</pdfrwt>
<totfact> 0.13425293E+08</totfact>
</mgrwt>
</event>
<event>
 4    1  0.3906087E+006  0.7244512E+01  0.7546771E-02  0.2277027E+00
         21   -1    0    0  503  502  0.00000000000E+00  0.00000000000E+00  0.41775844101E+00  0.41775844101E+00  0.00000000000E+00 0. -1.
         21   -1    0    0  501  503 -0.00000000000E+00 -0.00000000000E+00 -0.17009970659E+03  0.17009970659E+03  0.00000000000E+00 0.  1.
          5    1    1    2  501    0 -0.54241210526E+01  0.98583413966E+00 -0.41247685890E+02  0.41879046664E+02  0.47000000000E+01 0. -1.
         -5    1    1    2    0  502  0.54241210526E+01 -0.98583413966E+00 -0.12843426226E+03  0.12863841836E+03  0.47000000000E+01 0.  1.
<mgrwt>
<rscale>  2 0.72445123E+01</rscale>
<asrwt>0</asrwt>
<pdfrwt beam="1">  1       21 0.64270634E-04 0.72445123E+01</pdfrwt>
<pdfrwt beam="2">  1       21 0.26169143E-01 0.72445123E+01</pdfrwt>
<totfact> 0.11605567E+09</totfact>
</mgrwt>
</event>
<event>
 4    1  0.3906087E+006  0.6397471E+01  0.7546771E-02  0.2366395E+00
         21   -1    0    0  501  502  0.00000000000E+00  0.00000000000E+00  0.40246366038E+00  0.40246366038E+00  0.00000000000E+00 0.  1.
         21   -1    0    0  502  503 -0.00000000000E+00 -0.00000000000E+00 -0.27928421155E+03  0.27928421155E+03  0.00000000000E+00 0.  1.
          5    1    1    2  501    0 -0.40159844799E+01 -0.16460569879E+01 -0.27926812563E+02  0.28650209334E+02  0.47000000000E+01 0.  1.
         -5    1    1    2    0  503  0.40159844799E+01  0.16460569879E+01 -0.25095493533E+03  0.25103646588E+03  0.47000000000E+01 0.  1.
<mgrwt>
<rscale>  2 0.63974710E+01</rscale>
<asrwt>0</asrwt>
<pdfrwt beam="1">  1       21 0.61917285E-04 0.63974710E+01</pdfrwt>
<pdfrwt beam="2">  1       21 0.42966941E-01 0.63974710E+01</pdfrwt>
<totfact> 0.47750708E+08</totfact>
</mgrwt>
</event>
<event>
 4    1  0.3906087E+006  0.5287517E+01  0.7546771E-02  0.2518544E+00
         21   -1    0    0  503  502  0.00000000000E+00  0.00000000000E+00  0.75221913633E+03  0.75221913633E+03  0.00000000000E+00 0.  1.
         21   -1    0    0  501  503 -0.00000000000E+00 -0.00000000000E+00 -0.41438300683E-01  0.41438300683E-01  0.00000000000E+00 0.  1.
          5    1    1    2  501    0 -0.21444557189E+01  0.11265624295E+01  0.25533239815E+03  0.25538714020E+03  0.47000000000E+01 0.  1.
         -5    1    1    2    0  502  0.21444557189E+01 -0.11265624295E+01  0.49684529988E+03  0.49687343443E+03  0.47000000000E+01 0.  1.
<mgrwt>
<rscale>  2 0.52875167E+01</rscale>
<asrwt>0</asrwt>
<pdfrwt beam="1">  1       21 0.11571509E+00 0.52875167E+01</pdfrwt>
<pdfrwt beam="2">  1       21 0.63757256E-05 0.52875167E+01</pdfrwt>
<totfact> 0.13108587E+09</totfact>
</mgrwt>
</event>
<event>
 4    1  0.3906087E+006  0.5462924E+01  0.7546771E-02  0.2491049E+00
         21   -1    0    0  503  502  0.00000000000E+00  0.00000000000E+00  0.57791639041E+01  0.57791639041E+01  0.00000000000E+00 0. -1.
         21   -1    0    0  501  503 -0.00000000000E+00 -0.00000000000E+00 -0.11194094415E+02  0.11194094415E+02  0.00000000000E+00 0. -1.
          5    1    1    2  501    0 -0.11859277834E+01  0.25193468811E+01 -0.89362486459E+01  0.10473780276E+02  0.47000000000E+01 0. -1.
         -5    1    1    2    0  502  0.11859277834E+01 -0.25193468811E+01  0.35213181353E+01  0.64994780425E+01  0.47000000000E+01 0. -1.
<mgrwt>
<rscale>  2 0.54629235E+01</rscale>
<asrwt>0</asrwt>
<pdfrwt beam="1">  1       21 0.88910213E-03 0.54629235E+01</pdfrwt>
<pdfrwt beam="2">  1       21 0.17221684E-02 0.54629235E+01</pdfrwt>
<totfact> 0.15857307E+09</totfact>
</mgrwt>
</event>
<event>
 4    1  0.3906087E+006  0.4729594E+01  0.7546771E-02  0.2617482E+00
         21   -1    0    0  503  502  0.00000000000E+00  0.00000000000E+00  0.43822392012E+01  0.43822392012E+01  0.00000000000E+00 0.  1.
         21   -1    0    0  501  503 -0.00000000000E+00 -0.00000000000E+00 -0.26605000600E+02  0.26605000600E+02  0.00000000000E+00 0.  1.
          5    1    1    2  501    0 -0.31241285257E+00  0.42598352684E+00 -0.25039604051E+02  0.25482363210E+02  0.47000000000E+01 0.  1.
         -5    1    1    2    0  502  0.31241285257E+00 -0.42598352684E+00  0.28168426521E+01  0.55048765910E+01  0.47000000000E+01 0.  1.
<mgrwt>
<rscale>  2 0.47295945E+01</rscale>
<asrwt>0</asrwt>
<pdfrwt beam="1">  1       21 0.67419065E-03 0.47295945E+01</pdfrwt>
<pdfrwt beam="2">  1       21 0.40930770E-02 0.47295945E+01</pdfrwt>
<totfact> 0.58884112E+08</totfact>
</mgrwt>
</event>
<event>
 4    1  0.3906087E+006  0.4947805E+01  0.7546771E-02  0.2576497E+00
         21   -1    0    0  503  502  0.00000000000E+00  0.00000000000E+00  0.20123336052E+01  0.20123336052E+01  0.00000000000E+00 0. -1.
         21   -1    0    0  501  503 -0.00000000000E+00 -0.00000000000E+00 -0.17280510023E+02  0.17280510023E+02  0.00000000000E+00 0. -1.
          5    1    1    2  501    0  0.49044169010E+00  0.14663696080E+01 -0.12882367577E+02  0.13799861132E+02  0.47000000000E+01 0. -1.
         -5    1    1    2    0  502 -0.49044169010E+00 -0.14663696080E+01 -0.23858088412E+01  0.54929824963E+01  0.47000000000E+01 0. -1.
<mgrwt>
<rscale>  2 0.49478049E+01</rscale>
<asrwt>0</asrwt>
<pdfrwt beam="1">  1       21 0.30958979E-03 0.49478049E+01</pdfrwt>
<pdfrwt beam="2">  1       21 0.26585399E-02 0.49478049E+01</pdfrwt>
<totfact> 0.33167992E+09</totfact>
</mgrwt>
</event>
<event>
 4    1  0.3906087E+006  0.4784493E+01  0.7546771E-02  0.2606866E+00
         21   -1    0    0  501  502  0.00000000000E+00  0.00000000000E+00  0.11718063963E+00  0.11718063963E+00  0.00000000000E+00 0. -1.
         21   -1    0    0  502  503 -0.00000000000E+00 -0.00000000000E+00 -0.37797494672E+03  0.37797494672E+03  0.00000000000E+00 0.  1.
          5    1    1    2  501    0 -0.34812782266E+00 -0.82473298720E+00 -0.57523012724E+02  0.57721645596E+02  0.47000000000E+01 0. -1.
         -5    1    1    2    0  503  0.34812782266E+00  0.82473298720E+00 -0.32033475335E+03  0.32037048176E+03  0.47000000000E+01 0.  1.
<mgrwt>
<rscale>  2 0.47844934E+01</rscale>
<asrwt>0</asrwt>
<pdfrwt beam="1">  1       21 0.18028166E-04 0.47844934E+01</pdfrwt>
<pdfrwt beam="2">  1       21 0.58148782E-01 0.47844934E+01</pdfrwt>
<totfact> 0.11484862E+09</totfact>
</mgrwt>
</event>
<event>
 4    1  0.3906087E+006  0.6000941E+01  0.7546771E-02  0.2415301E+00
         21   -1    0    0  503  502  0.00000000000E+00  0.00000000000E+00  0.17976715498E+04  0.17976715498E+04  0.00000000000E+00 0. -1.
         21   -1    0    0  501  503 -0.00000000000E+00 -0.00000000000E+00 -0.24851615423E-01  0.24851615423E-01  0.00000000000E+00 0.  1.
          5    1    1    2  501    0 -0.74571832617E+00 -0.36558449101E+01  0.50299519710E+03  0.50303099269E+03  0.47000000000E+01 0.  1.
         -5    1    1    2    0  502  0.74571832617E+00  0.36558449101E+01  0.12946515011E+04  0.12946654088E+04  0.47000000000E+01 0. -1.
<mgrwt>
<rscale>  2 0.60009414E+01</rscale>
<asrwt>0</asrwt>
<pdfrwt beam="1">  1       21 0.27646074E+00 0.60009414E+01</pdfrwt>
<pdfrwt beam="2">  1       21 0.38247653E-05 0.60009414E+01</pdfrwt>
<totfact> 0.41513936E+08</totfact>
</mgrwt>
</event>
<event>
 4    1  0.3906087E+006  0.6514047E+01  0.7546771E-02  0.2352964E+00
         21   -1    0    0  503  502  0.00000000000E+00  0.00000000000E+00  0.58747636610E+02  0.58747636610E+02  0.00000000000E+00 0.  1.
         21   -1    0    0  501  503 -0.00000000000E+00 -0.00000000000E+00 -0.99433045363E+01  0.99433045363E+01  0.00000000000E+00 0. -1.
          5    1    1    2  501    0  0.27597264178E+01 -0.35674525053E+01 -0.86723473488E+01  0.10846308857E+02  0.47000000000E+01 0. -1.
         -5    1    1    2    0  502 -0.27597264178E+01  0.35674525053E+01  0.57476679423E+02  0.57844632290E+02  0.47000000000E+01 0.  1.
<mgrwt>
<rscale>  2 0.65140469E+01</rscale>
<asrwt>0</asrwt>
<pdfrwt beam="1">  1       21 0.90380978E-02 0.65140469E+01</pdfrwt>
<pdfrwt beam="2">  1       21 0.15297392E-02 0.65140469E+01</pdfrwt>
<totfact> 0.73237771E+07</totfact>
</mgrwt>
</event>
<event>
 4    1  0.3906087E+006  0.6750789E+01  0.7546771E-02  0.2326876E+00
         21   -1    0    0  501  502  0.00000000000E+00  0.00000000000E+00  0.35498237151E+02  0.35498237151E+02  0.00000000000E+00 0.  1.
         21   -1    0    0  502  503 -0.00000000000E+00 -0.00000000000E+00 -0.13935738299E+01  0.13935738299E+01  0.00000000000E+00 0.  1.
          5    1    1    2  501    0  0.27357486986E+01 -0.39998541601E+01  0.22229062243E+02  0.23231538099E+02  0.47000000000E+01 0.  1.
         -5    1    1    2    0  503 -0.27357486986E+01  0.39998541601E+01  0.11875601078E+02  0.13660272882E+02  0.47000000000E+01 0.  1.
<mgrwt>
<rscale>  2 0.67507892E+01</rscale>
<asrwt>0</asrwt>
<pdfrwt beam="1">  1       21 0.54612666E-02 0.67507892E+01</pdfrwt>
<pdfrwt beam="2">  1       21 0.21439600E-03 0.67507892E+01</pdfrwt>
<totfact> 0.25329764E+09</totfact>
</mgrwt>
</event>
<event>
 4    1  0.3906087E+006  0.5181298E+01  0.7546771E-02  0.2535963E+00
         21   -1    0    0  503  502  0.00000000000E+00  0.00000000000E+00  0.15433936722E+03  0.15433936722E+03  0.00000000000E+00 0. -1.
         21   -1    0    0  501  503 -0.00000000000E+00 -0.00000000000E+00 -0.32731729824E+01  0.32731729824E+01  0.00000000000E+00 0. -1.
          5    1    1    2  501    0  0.13325690394E+01 -0.17262988041E+01 -0.11506594972E+01  0.53075290941E+01  0.47000000000E+01 0. -1.
         -5    1    1    2    0  502 -0.13325690394E+01  0.17262988041E+01  0.15221685373E+03  0.15230501111E+03  0.47000000000E+01 0. -1.
<mgrwt>
<rscale>  2 0.51812979E+01</rscale>
<asrwt>0</asrwt>
<pdfrwt beam="1">  1       21 0.23744512E-01 0.51812979E+01</pdfrwt>
<pdfrwt beam="2">  1       21 0.50356519E-03 0.51812979E+01</pdfrwt>
<totfact> 0.65813625E+07</totfact>
</mgrwt>
</event>
<event>
 4    1  0.3906087E+006  0.7355674E+01  0.7546771E-02  0.2266563E+00
         21   -1    0    0  501  502  0.00000000000E+00  0.00000000000E+00  0.71404555325E+01  0.71404555325E+01  0.00000000000E+00 0.  1.
         21   -1    0    0  502  503 -0.00000000000E+00 -0.00000000000E+00 -0.96651420247E+01  0.96651420247E+01  0.00000000000E+00 0. -1.
          5    1    1    2  501    0  0.83287545767E+00 -0.55966294126E+01  0.26430105042E+01  0.78161017672E+01  0.47000000000E+01 0. -1.
         -5    1    1    2    0  503 -0.83287545767E+00  0.55966294126E+01 -0.51676969965E+01  0.89894957900E+01  0.47000000000E+01 0. -1.
<mgrwt>
<rscale>  2 0.73556742E+01</rscale>
<asrwt>0</asrwt>
<pdfrwt beam="1">  1       21 0.10985316E-02 0.73556742E+01</pdfrwt>
<pdfrwt beam="2">  1       21 0.14869449E-02 0.73556742E+01</pdfrwt>
<totfact> 0.18522749E+09</totfact>
</mgrwt>
</event>
<event>
 4    1  0.3906087E+006  0.7173777E+01  0.7546771E-02  0.2283823E+00
         21   -1    0    0  501  502  0.00000000000E+00  0.00000000000E+00  0.86104713529E+01  0.86104713529E+01  0.00000000000E+00 0.  1.
         21   -1    0    0  502  503 -0.00000000000E+00 -0.00000000000E+00 -0.68202134841E+01  0.68202134841E+01  0.00000000000E+00 0. -1.
          5    1    1    2  501    0  0.54180469243E+01 -0.13355860024E+00  0.36082947451E+01  0.80301221249E+01  0.47000000000E+01 0.  1.
         -5    1    1    2    0  503 -0.54180469243E+01  0.13355860024E+00 -0.18180368763E+01  0.74005627122E+01  0.47000000000E+01 0. -1.
<mgrwt>
<rscale>  2 0.71737766E+01</rscale>
<asrwt>0</asrwt>
<pdfrwt beam="1">  1       21 0.13246879E-02 0.71737766E+01</pdfrwt>
<pdfrwt beam="2">  1       21 0.10492636E-02 0.71737766E+01</pdfrwt>
<totfact> 0.22916151E+09</totfact>
</mgrwt>
</event>
<event>
 4    1  0.3906087E+006  0.6936055E+01  0.7546771E-02  0.2307489E+00
         21   -1    0    0  501  502  0.00000000000E+00  0.00000000000E+00  0.46806179590E+02  0.46806179590E+02  0.00000000000E+00 0.  1.
         21   -1    0    0  502  503 -0.00000000000E+00 -0.00000000000E+00 -0.10318092502E+01  0.10318092502E+01  0.00000000000E+00 0. -1.
          5    1    1    2  501    0 -0.48833581166E+00  0.50774384318E+01  0.21402012374E+02  0.22497888491E+02  0.47000000000E+01 0. -1.
         -5    1    1    2    0  503  0.48833581166E+00 -0.50774384318E+01  0.24372357966E+02  0.25340100350E+02  0.47000000000E+01 0. -1.
<mgrwt>
<rscale>  2 0.69360546E+01</rscale>
<asrwt>0</asrwt>
<pdfrwt beam="1">  1       21 0.72009491E-02 0.69360546E+01</pdfrwt>
<pdfrwt beam="2">  1       21 0.15873992E-03 0.69360546E+01</pdfrwt>
<totfact> 0.25700633E+09</totfact>
</mgrwt>
</event>
<event>
 4    1  0.3906087E+006  0.4856950E+01  0.7546771E-02  0.2593174E+00
         21   -1    0    0  503  502  0.00000000000E+00  0.00000000000E+00  0.39425310411E+00  0.39425310411E+00  0.00000000000E+00 0.  1.
         21   -1    0    0  501  503 -0.00000000000E+00 -0.00000000000E+00 -0.59877354473E+02  0.59877354473E+02  0.00000000000E+00 0.  1.
          5    1    1    2  501    0  0.11654496249E+01 -0.37641579614E+00 -0.28935918629E+02  0.29340711453E+02  0.47000000000E+01 0.  1.
         -5    1    1    2    0  502 -0.11654496249E+01  0.37641579614E+00 -0.30547182740E+02  0.30930896124E+02  0.47000000000E+01 0.  1.
<mgrwt>
<rscale>  2 0.48569498E+01</rscale>
<asrwt>0</asrwt>
<pdfrwt beam="1">  1       21 0.60654333E-04 0.48569498E+01</pdfrwt>
<pdfrwt beam="2">  1       21 0.92118993E-02 0.48569498E+01</pdfrwt>
<totfact> 0.46720575E+09</totfact>
</mgrwt>
</event>
<event>
 4    1  0.3906087E+006  0.1061356E+02  0.7546771E-02  0.2041664E+00
         21   -1    0    0  501  502  0.00000000000E+00  0.00000000000E+00  0.16746985555E+03  0.16746985555E+03  0.00000000000E+00 0. -1.
         21   -1    0    0  502  503 -0.00000000000E+00 -0.00000000000E+00 -0.85440509316E+00  0.85440509316E+00  0.00000000000E+00 0.  1.
          5    1    1    2  501    0 -0.18370531911E+01  0.93371728080E+01  0.12212593515E+03  0.12258626186E+03  0.47000000000E+01 0. -1.
         -5    1    1    2    0  503  0.18370531911E+01 -0.93371728080E+01  0.44489515305E+02  0.45737998781E+02  0.47000000000E+01 0.  1.
<mgrwt>
<rscale>  2 0.10613556E+02</rscale>
<asrwt>0</asrwt>
<pdfrwt beam="1">  1       21 0.25764567E-01 0.10613556E+02</pdfrwt>
<pdfrwt beam="2">  1       21 0.13144707E-03 0.10613556E+02</pdfrwt>
<totfact> 0.55916011E+08</totfact>
</mgrwt>
</event>
<event>
 4    1  0.3906087E+006  0.5811298E+01  0.7546771E-02  0.2440650E+00
         21   -1    0    0  501  502  0.00000000000E+00  0.00000000000E+00  0.86359922999E+02  0.86359922999E+02  0.00000000000E+00 0.  1.
         21   -1    0    0  502  503 -0.00000000000E+00 -0.00000000000E+00 -0.44676788076E+00  0.44676788076E+00  0.00000000000E+00 0.  1.
          5    1    1    2  501    0  0.24743630357E+01  0.23576914501E+01  0.58284154437E+02  0.58573149479E+02  0.47000000000E+01 0.  1.
         -5    1    1    2    0  503 -0.24743630357E+01 -0.23576914501E+01  0.27629000681E+02  0.28233541401E+02  0.47000000000E+01 0.  1.
<mgrwt>
<rscale>  2 0.58112977E+01</rscale>
<asrwt>0</asrwt>
<pdfrwt beam="1">  1       21 0.13286129E-01 0.58112977E+01</pdfrwt>
<pdfrwt beam="2">  1       21 0.68733589E-04 0.58112977E+01</pdfrwt>
<totfact> 0.26798034E+09</totfact>
</mgrwt>
</event>
<event>
 4    1  0.3906087E+006  0.6362511E+01  0.7546771E-02  0.2370502E+00
         21   -1    0    0  501  502  0.00000000000E+00  0.00000000000E+00  0.25325114365E+02  0.25325114365E+02  0.00000000000E+00 0. -1.
         21   -1    0    0  502  503 -0.00000000000E+00 -0.00000000000E+00 -0.47527970152E+01  0.47527970152E+01  0.00000000000E+00 0. -1.
          5    1    1    2  501    0  0.42131645995E+01  0.80049089363E+00  0.22537851959E+02  0.23418717141E+02  0.47000000000E+01 0. -1.
         -5    1    1    2    0  503 -0.42131645995E+01 -0.80049089363E+00 -0.19655346092E+01  0.66591942390E+01  0.47000000000E+01 0. -1.
<mgrwt>
<rscale>  2 0.63625106E+01</rscale>
<asrwt>0</asrwt>
<pdfrwt beam="1">  1       21 0.38961714E-02 0.63625106E+01</pdfrwt>
<pdfrwt beam="2">  1       21 0.73119955E-03 0.63625106E+01</pdfrwt>
<totfact> 0.72702091E+08</totfact>
</mgrwt>
</event>
<event>
 4    1  0.3906087E+006  0.5168106E+01  0.7546771E-02  0.2538169E+00
         21   -1    0    0  503  502  0.00000000000E+00  0.00000000000E+00  0.17400078836E+03  0.17400078836E+03  0.00000000000E+00 0.  1.
         21   -1    0    0  501  503 -0.00000000000E+00 -0.00000000000E+00 -0.37856797570E+00  0.37856797570E+00  0.00000000000E+00 0.  1.
          5    1    1    2  501    0 -0.11133145410E+01 -0.18384367157E+01  0.19583311059E+02  0.20253774731E+02  0.47000000000E+01 0.  1.
         -5    1    1    2    0  502  0.11133145410E+01  0.18384367157E+01  0.15403890933E+03  0.15412558161E+03  0.47000000000E+01 0.  1.
<mgrwt>
<rscale>  2 0.51681059E+01</rscale>
<asrwt>0</asrwt>
<pdfrwt beam="1">  1       21 0.26769288E-01 0.51681059E+01</pdfrwt>
<pdfrwt beam="2">  1       21 0.58241366E-04 0.51681059E+01</pdfrwt>
<totfact> 0.98650710E+08</totfact>
</mgrwt>
</event>
<event>
 4    1  0.3906087E+006  0.6718115E+01  0.7546771E-02  0.2330386E+00
         21   -1    0    0  501  502  0.00000000000E+00  0.00000000000E+00  0.31153850704E+03  0.31153850704E+03  0.00000000000E+00 0.  1.
         21   -1    0    0  502  503 -0.00000000000E+00 -0.00000000000E+00 -0.18041698515E+00  0.18041698515E+00  0.00000000000E+00 0.  1.
          5    1    1    2  501    0 -0.36878557472E+01  0.30729122255E+01  0.22485996260E+03  0.22496029838E+03  0.47000000000E+01 0.  1.
         -5    1    1    2    0  503  0.36878557472E+01 -0.30729122255E+01  0.86498127461E+02  0.86758625645E+02  0.47000000000E+01 0.  1.
<mgrwt>
<rscale>  2 0.67181150E+01</rscale>
<asrwt>0</asrwt>
<pdfrwt beam="1">  1       21 0.47928570E-01 0.67181150E+01</pdfrwt>
<pdfrwt beam="2">  1       21 0.27756709E-04 0.67181150E+01</pdfrwt>
<totfact> 0.11913392E+09</totfact>
</mgrwt>
</event>
<event>
 4    1  0.3906087E+006  0.1078038E+02  0.7546771E-02  0.2033118E+00
         21   -1    0    0  501  502  0.00000000000E+00  0.00000000000E+00  0.37163058455E+02  0.37163058455E+02  0.00000000000E+00 0.  1.
         21   -1    0    0  502  503 -0.00000000000E+00 -0.00000000000E+00 -0.31584253142E+01  0.31584253142E+01  0.00000000000E+00 0.  1.
          5    1    1    2  501    0  0.59691862175E+01  0.76482298583E+01  0.19006653717E+02  0.21851075250E+02  0.47000000000E+01 0.  1.
         -5    1    1    2    0  503 -0.59691862175E+01 -0.76482298583E+01  0.14997979424E+02  0.18470408519E+02  0.47000000000E+01 0.  1.
<mgrwt>
<rscale>  2 0.10780381E+02</rscale>
<asrwt>0</asrwt>
<pdfrwt beam="1">  1       21 0.57173933E-02 0.10780381E+02</pdfrwt>
<pdfrwt beam="2">  1       21 0.48591161E-03 0.10780381E+02</pdfrwt>
<totfact> 0.10240900E+09</totfact>
</mgrwt>
</event>
<event>
 4    1  0.3906087E+006  0.5193710E+01  0.7546771E-02  0.2533896E+00
         21   -1    0    0  503  502  0.00000000000E+00  0.00000000000E+00  0.12560043697E+03  0.12560043697E+03  0.00000000000E+00 0. -1.
         21   -1    0    0  501  503 -0.00000000000E+00 -0.00000000000E+00 -0.21476554830E+00  0.21476554830E+00  0.00000000000E+00 0.  1.
          5    1    1    2  501    0 -0.14489541015E+01 -0.16688777980E+01  0.62754144036E+02  0.62968700278E+02  0.47000000000E+01 0.  1.
         -5    1    1    2    0  502  0.14489541015E+01  0.16688777980E+01  0.62631527390E+02  0.62846502244E+02  0.47000000000E+01 0. -1.
<mgrwt>
<rscale>  2 0.51937098E+01</rscale>
<asrwt>0</asrwt>
<pdfrwt beam="1">  1       21 0.19323086E-01 0.51937098E+01</pdfrwt>
<pdfrwt beam="2">  1       21 0.33040954E-04 0.51937098E+01</pdfrwt>
<totfact> 0.35601352E+09</totfact>
</mgrwt>
</event>
<event>
 4    1  0.3906087E+006  0.1197971E+02  0.7546771E-02  0.1977213E+00
         21   -1    0    0  503  502  0.00000000000E+00  0.00000000000E+00  0.40565237866E+02  0.40565237866E+02  0.00000000000E+00 0.  1.
         21   -1    0    0  501  503 -0.00000000000E+00 -0.00000000000E+00 -0.35839318733E+01  0.35839318733E+01  0.00000000000E+00 0. -1.
          5    1    1    2  501    0 -0.28832281896E+01  0.10635344989E+02  0.15987449254E+02  0.19977790205E+02  0.47000000000E+01 0.  1.
         -5    1    1    2    0  502  0.28832281896E+01 -0.10635344989E+02  0.20993856739E+02  0.24171379535E+02  0.47000000000E+01 0. -1.
<mgrwt>
<rscale>  2 0.11979715E+02</rscale>
<asrwt>0</asrwt>
<pdfrwt beam="1">  1       21 0.62408055E-02 0.11979715E+02</pdfrwt>
<pdfrwt beam="2">  1       21 0.55137416E-03 0.11979715E+02</pdfrwt>
<totfact> 0.78836493E+08</totfact>
</mgrwt>
</event>
<event>
 4    1  0.3906087E+006  0.1134002E+02  0.7546771E-02  0.2005892E+00
         21   -1    0    0  501  502  0.00000000000E+00  0.00000000000E+00  0.74941151317E+01  0.74941151317E+01  0.00000000000E+00 0.  1.
         21   -1    0    0  502  503 -0.00000000000E+00 -0.00000000000E+00 -0.22425161977E+02  0.22425161977E+02  0.00000000000E+00 0. -1.
          5    1    1    2  501    0 -0.37633957154E+01  0.96095187579E+01 -0.21656213619E+00  0.11342085224E+02  0.47000000000E+01 0.  1.
         -5    1    1    2    0  503  0.37633957154E+01 -0.96095187579E+01 -0.14714484709E+02  0.18577191885E+02  0.47000000000E+01 0. -1.
<mgrwt>
<rscale>  2 0.11340018E+02</rscale>
<asrwt>0</asrwt>
<pdfrwt beam="1">  1       21 0.11529408E-02 0.11340018E+02</pdfrwt>
<pdfrwt beam="2">  1       21 0.34500249E-02 0.11340018E+02</pdfrwt>
<totfact> 0.65328820E+08</totfact>
</mgrwt>
</event>
<event>
 4    1  0.3906087E+006  0.7007062E+01  0.7546771E-02  0.2300282E+00
         21   -1    0    0  503  502  0.00000000000E+00  0.00000000000E+00  0.48163147899E+03  0.48163147899E+03  0.00000000000E+00 0. -1.
         21   -1    0    0  501  503 -0.00000000000E+00 -0.00000000000E+00 -0.52127038217E+00  0.52127038217E+00  0.00000000000E+00 0.  1.
          5    1    1    2  501    0 -0.47486900557E+01 -0.21116021360E+01  0.24333154991E+02  0.25321953966E+02  0.47000000000E+01 0.  1.
         -5    1    1    2    0  502  0.47486900557E+01  0.21116021360E+01  0.45677705362E+03  0.45683079541E+03  0.47000000000E+01 0. -1.
<mgrwt>
<rscale>  2 0.70070622E+01</rscale>
<asrwt>0</asrwt>
<pdfrwt beam="1">  1       21 0.74096795E-01 0.70070622E+01</pdfrwt>
<pdfrwt beam="2">  1       21 0.80195829E-04 0.70070622E+01</pdfrwt>
<totfact> 0.12986071E+08</totfact>
</mgrwt>
</event>
<event>
 4    1  0.3906087E+006  0.5532485E+01  0.7546771E-02  0.2480557E+00
         21   -1    0    0  501  502  0.00000000000E+00  0.00000000000E+00  0.46652589120E+03  0.46652589120E+03  0.00000000000E+00 0. -1.
         21   -1    0    0  502  503 -0.00000000000E+00 -0.00000000000E+00 -0.11584745657E+00  0.11584745657E+00  0.00000000000E+00 0. -1.
          5    1    1    2  501    0 -0.29168027591E+01 -0.10321248611E+00  0.38685326828E+03  0.38689282698E+03  0.47000000000E+01 0. -1.
         -5    1    1    2    0  503  0.29168027591E+01  0.10321248611E+00  0.79556775469E+02  0.79748911680E+02  0.47000000000E+01 0. -1.
<mgrwt>
<rscale>  2 0.55324851E+01</rscale>
<asrwt>0</asrwt>
<pdfrwt beam="1">  1       21 0.71771710E-01 0.55324851E+01</pdfrwt>
<pdfrwt beam="2">  1       21 0.17823059E-04 0.55324851E+01</pdfrwt>
<totfact> 0.88764913E+08</totfact>
</mgrwt>
</event>
<event>
 4    1  0.3906087E+006  0.6179707E+01  0.7546771E-02  0.2392605E+00
         21   -1    0    0  501  502  0.00000000000E+00  0.00000000000E+00  0.11211118818E+01  0.11211118818E+01  0.00000000000E+00 0.  1.
         21   -1    0    0  502  503 -0.00000000000E+00 -0.00000000000E+00 -0.49648175058E+02  0.49648175058E+02  0.00000000000E+00 0. -1.
          5    1    1    2  501    0  0.36777843633E+00 -0.39954374384E+01 -0.10041195089E+02  0.11790435959E+02  0.47000000000E+01 0.  1.
         -5    1    1    2    0  503 -0.36777843633E+00  0.39954374384E+01 -0.38485868088E+02  0.38978850981E+02  0.47000000000E+01 0. -1.
<mgrwt>
<rscale>  2 0.61797072E+01</rscale>
<asrwt>0</asrwt>
<pdfrwt beam="1">  1       21 0.17247877E-03 0.61797072E+01</pdfrwt>
<pdfrwt beam="2">  1       21 0.76381797E-02 0.61797072E+01</pdfrwt>
<totfact> 0.19139956E+09</totfact>
</mgrwt>
</event>
<event>
 4    1  0.3906087E+006  0.6126601E+01  0.7546771E-02  0.2399232E+00
         21   -1    0    0  501  502  0.00000000000E+00  0.00000000000E+00  0.16471661849E+02  0.16471661849E+02  0.00000000000E+00 0.  1.
         21   -1    0    0  502  503 -0.00000000000E+00 -0.00000000000E+00 -0.71296039878E+01  0.71296039878E+01  0.00000000000E+00 0.  1.
          5    1    1    2  501    0  0.18866355480E+01 -0.34475858374E+01  0.14404785844E+02  0.15653533052E+02  0.47000000000E+01 0.  1.
         -5    1    1    2    0  503 -0.18866355480E+01  0.34475858374E+01 -0.50627279826E+01  0.79477327851E+01  0.47000000000E+01 0.  1.
<mgrwt>
<rscale>  2 0.61266012E+01</rscale>
<asrwt>0</asrwt>
<pdfrwt beam="1">  1       21 0.25341018E-02 0.61266012E+01</pdfrwt>
<pdfrwt beam="2">  1       21 0.10968622E-02 0.61266012E+01</pdfrwt>
<totfact> 0.74656179E+08</totfact>
</mgrwt>
</event>
<event>
 4    1  0.3906087E+006  0.8366721E+01  0.7546771E-02  0.2181911E+00
         21   -1    0    0  501  502  0.00000000000E+00  0.00000000000E+00  0.53243332869E+03  0.53243332869E+03  0.00000000000E+00 0.  1.
         21   -1    0    0  502  503 -0.00000000000E+00 -0.00000000000E+00 -0.24348961782E+00  0.24348961782E+00  0.00000000000E+00 0.  1.
          5    1    1    2  501    0  0.61537167552E+01  0.31691930515E+01  0.44674147321E+03  0.44681981369E+03  0.47000000000E+01 0.  1.
         -5    1    1    2    0  503 -0.61537167552E+01 -0.31691930515E+01  0.85448365856E+02  0.85857004618E+02  0.47000000000E+01 0.  1.
<mgrwt>
<rscale>  2 0.83667207E+01</rscale>
<asrwt>0</asrwt>
<pdfrwt beam="1">  1       21 0.81911888E-01 0.83667207E+01</pdfrwt>
<pdfrwt beam="2">  1       21 0.37460367E-04 0.83667207E+01</pdfrwt>
<totfact> 0.32821241E+08</totfact>
</mgrwt>
</event>
<event>
 4    1  0.3906087E+006  0.5288805E+01  0.7546771E-02  0.2518336E+00
         21   -1    0    0  501  502  0.00000000000E+00  0.00000000000E+00  0.10161121807E-01  0.10161121807E-01  0.00000000000E+00 0. -1.
         21   -1    0    0  502  503 -0.00000000000E+00 -0.00000000000E+00 -0.27879591813E+04  0.27879591813E+04  0.00000000000E+00 0. -1.
          5    1    1    2  501    0 -0.44687104208E+00 -0.23836456490E+01 -0.12374147172E+04  0.12374260195E+04  0.47000000000E+01 0. -1.
         -5    1    1    2    0  503  0.44687104208E+00  0.23836456490E+01 -0.15505343030E+04  0.15505433230E+04  0.47000000000E+01 0. -1.
<mgrwt>
<rscale>  2 0.52888052E+01</rscale>
<asrwt>0</asrwt>
<pdfrwt beam="1">  1       21 0.15644038E-05 0.52888052E+01</pdfrwt>
<pdfrwt beam="2">  1       21 0.42860033E+00 0.52888052E+01</pdfrwt>
<totfact> 0.32807216E+08</totfact>
</mgrwt>
</event>
<event>
 4    1  0.3906087E+006  0.5431076E+01  0.7546771E-02  0.2495929E+00
         21   -1    0    0  503  502  0.00000000000E+00  0.00000000000E+00  0.17108324717E+02  0.17108324717E+02  0.00000000000E+00 0. -1.
         21   -1    0    0  501  503 -0.00000000000E+00 -0.00000000000E+00 -0.34431745229E+01  0.34431745229E+01  0.00000000000E+00 0. -1.
          5    1    1    2  501    0 -0.21951143251E+01  0.16087453794E+01 -0.42815708298E+00  0.54479268611E+01  0.47000000000E+01 0. -1.
         -5    1    1    2    0  502  0.21951143251E+01 -0.16087453794E+01  0.14093307277E+02  0.15103572378E+02  0.47000000000E+01 0. -1.
<mgrwt>
<rscale>  2 0.54310762E+01</rscale>
<asrwt>0</asrwt>
<pdfrwt beam="1">  1       21 0.26320499E-02 0.54310762E+01</pdfrwt>
<pdfrwt beam="2">  1       21 0.52971917E-03 0.54310762E+01</pdfrwt>
<totfact> 0.17676302E+09</totfact>
</mgrwt>
</event>
<event>
 4    1  0.3906087E+006  0.8495905E+01  0.7546771E-02  0.2172275E+00
         21   -1    0    0  501  502  0.00000000000E+00  0.00000000000E+00  0.12753531725E+03  0.12753531725E+03  0.00000000000E+00 0.  1.
         21   -1    0    0  502  503 -0.00000000000E+00 -0.00000000000E+00 -0.64203732439E+00  0.64203732439E+00  0.00000000000E+00 0.  1.
          5    1    1    2  501    0  0.16660025709E+01 -0.68785776164E+01  0.85507246597E+02  0.85928281812E+02  0.47000000000E+01 0.  1.
         -5    1    1    2    0  503 -0.16660025709E+01  0.68785776164E+01  0.41386033329E+02  0.42249072763E+02  0.47000000000E+01 0.  1.
<mgrwt>
<rscale>  2 0.84959046E+01</rscale>
<asrwt>0</asrwt>
<pdfrwt beam="1">  1       21 0.19620798E-01 0.84959046E+01</pdfrwt>
<pdfrwt beam="2">  1       21 0.98775074E-04 0.84959046E+01</pdfrwt>
<totfact> 0.11592572E+09</totfact>
</mgrwt>
</event>
<event>
 4    1  0.3906087E+006  0.8512275E+01  0.7546771E-02  0.2171071E+00
         21   -1    0    0  501  502  0.00000000000E+00  0.00000000000E+00  0.17927068529E+02  0.17927068529E+02  0.00000000000E+00 0.  1.
         21   -1    0    0  502  503 -0.00000000000E+00 -0.00000000000E+00 -0.47366713446E+01  0.47366713446E+01  0.00000000000E+00 0. -1.
          5    1    1    2  501    0 -0.66894902208E+01 -0.23705578954E+01  0.10935263875E+02  0.13857807192E+02  0.47000000000E+01 0.  1.
         -5    1    1    2    0  503  0.66894902208E+01  0.23705578954E+01  0.22551333091E+01  0.88059326815E+01  0.47000000000E+01 0. -1.
<mgrwt>
<rscale>  2 0.85122749E+01</rscale>
<asrwt>0</asrwt>
<pdfrwt beam="1">  1       21 0.27580105E-02 0.85122749E+01</pdfrwt>
<pdfrwt beam="2">  1       21 0.72871868E-03 0.85122749E+01</pdfrwt>
<totfact> 0.14971232E+09</totfact>
</mgrwt>
</event>
<event>
 4    1  0.3906087E+006  0.5015838E+01  0.7546771E-02  0.2564352E+00
         21   -1    0    0  503  502  0.00000000000E+00  0.00000000000E+00  0.25859390515E+00  0.25859390515E+00  0.00000000000E+00 0. -1.
         21   -1    0    0  501  503 -0.00000000000E+00 -0.00000000000E+00 -0.97537720645E+02  0.97537720645E+02  0.00000000000E+00 0. -1.
          5    1    1    2  501    0 -0.17511310118E+01 -0.46563385056E-01 -0.46175817202E+02  0.46447440428E+02  0.47000000000E+01 0. -1.
         -5    1    1    2    0  502  0.17511310118E+01  0.46563385056E-01 -0.51103309538E+02  0.51348874123E+02  0.47000000000E+01 0. -1.
<mgrwt>
<rscale>  2 0.50158377E+01</rscale>
<asrwt>0</asrwt>
<pdfrwt beam="1">  1       21 0.39783727E-04 0.50158377E+01</pdfrwt>
<pdfrwt beam="2">  1       21 0.15005784E-01 0.50158377E+01</pdfrwt>
<totfact> 0.40050519E+09</totfact>
</mgrwt>
</event>
<event>
 4    1  0.3906087E+006  0.5796542E+01  0.7546771E-02  0.2442681E+00
         21   -1    0    0  503  502  0.00000000000E+00  0.00000000000E+00  0.94670793876E+03  0.94670793876E+03  0.00000000000E+00 0. -1.
         21   -1    0    0  501  503 -0.00000000000E+00 -0.00000000000E+00 -0.91442938270E-01  0.91442938270E-01  0.00000000000E+00 0. -1.
          5    1    1    2  501    0 -0.15300605883E+01 -0.30280045122E+01  0.10300349852E+03  0.10316647035E+03  0.47000000000E+01 0. -1.
         -5    1    1    2    0  502  0.15300605883E+01  0.30280045122E+01  0.84361299730E+03  0.84363291135E+03  0.47000000000E+01 0. -1.
<mgrwt>
<rscale>  2 0.57965418E+01</rscale>
<asrwt>0</asrwt>
<pdfrwt beam="1">  1       21 0.14563953E+00 0.57965418E+01</pdfrwt>
<pdfrwt beam="2">  1       21 0.14068903E-04 0.57965418E+01</pdfrwt>
<totfact> 0.30044641E+08</totfact>
</mgrwt>
</event>
<event>
 4    1  0.3906087E+006  0.5123432E+01  0.7546771E-02  0.2545712E+00
         21   -1    0    0  503  502  0.00000000000E+00  0.00000000000E+00  0.11427863435E+02  0.11427863435E+02  0.00000000000E+00 0.  1.
         21   -1    0    0  501  503 -0.00000000000E+00 -0.00000000000E+00 -0.24439871484E+01  0.24439871484E+01  0.00000000000E+00 0.  1.
          5    1    1    2  501    0  0.19159122402E+01  0.69916666528E+00  0.27908502198E+01  0.58342436260E+01  0.47000000000E+01 0.  1.
         -5    1    1    2    0  502 -0.19159122402E+01 -0.69916666528E+00  0.61930260671E+01  0.80376069577E+01  0.47000000000E+01 0.  1.
<mgrwt>
<rscale>  2 0.51234318E+01</rscale>
<asrwt>0</asrwt>
<pdfrwt beam="1">  1       21 0.17581328E-02 0.51234318E+01</pdfrwt>
<pdfrwt beam="2">  1       21 0.37599803E-03 0.51234318E+01</pdfrwt>
<totfact> 0.47518195E+09</totfact>
</mgrwt>
</event>
<event>
 4    1  0.3906087E+006  0.5634692E+01  0.7546771E-02  0.2465541E+00
         21   -1    0    0  501  502  0.00000000000E+00  0.00000000000E+00  0.15171729963E+02  0.15171729963E+02  0.00000000000E+00 0.  1.
         21   -1    0    0  502  503 -0.00000000000E+00 -0.00000000000E+00 -0.20935955410E+01  0.20935955410E+01  0.00000000000E+00 0.  1.
          5    1    1    2  501    0 -0.21492986707E+00 -0.31005738360E+01  0.63596967776E+01  0.84967932812E+01  0.47000000000E+01 0.  1.
         -5    1    1    2    0  503  0.21492986707E+00  0.31005738360E+01  0.67184376442E+01  0.87685322226E+01  0.47000000000E+01 0.  1.
<mgrwt>
<rscale>  2 0.56346919E+01</rscale>
<asrwt>0</asrwt>
<pdfrwt beam="1">  1       21 0.23341122E-02 0.56346919E+01</pdfrwt>
<pdfrwt beam="2">  1       21 0.32209163E-03 0.56346919E+01</pdfrwt>
<totfact> 0.43094426E+09</totfact>
</mgrwt>
</event>
<event>
 4    1  0.3906087E+006  0.4701233E+01  0.7546771E-02  0.2623050E+00
         21   -1    0    0  501  502  0.00000000000E+00  0.00000000000E+00  0.33022834248E+01  0.33022834248E+01  0.00000000000E+00 0. -1.
         21   -1    0    0  502  503 -0.00000000000E+00 -0.00000000000E+00 -0.20619968347E+02  0.20619968347E+02  0.00000000000E+00 0. -1.
          5    1    1    2  501    0 -0.52271809748E-01 -0.94114424233E-01  0.11712852153E+01  0.48449457089E+01  0.47000000000E+01 0. -1.
         -5    1    1    2    0  503  0.52271809748E-01  0.94114424233E-01 -0.18488970138E+02  0.19077306063E+02  0.47000000000E+01 0. -1.
<mgrwt>
<rscale>  2 0.47012328E+01</rscale>
<asrwt>0</asrwt>
<pdfrwt beam="1">  1       21 0.50804360E-03 0.47012328E+01</pdfrwt>
<pdfrwt beam="2">  1       21 0.31723028E-02 0.47012328E+01</pdfrwt>
<totfact> 0.12450862E+09</totfact>
</mgrwt>
</event>
<event>
 4    1  0.3906087E+006  0.7780446E+01  0.7546771E-02  0.2228835E+00
         21   -1    0    0  501  502  0.00000000000E+00  0.00000000000E+00  0.18543359089E+03  0.18543359089E+03  0.00000000000E+00 0.  1.
         21   -1    0    0  502  503 -0.00000000000E+00 -0.00000000000E+00 -0.70681579998E+00  0.70681579998E+00  0.00000000000E+00 0. -1.
          5    1    1    2  501    0 -0.39179417455E+01  0.48057324850E+01  0.16063758708E+03  0.16082589877E+03  0.47000000000E+01 0.  1.
         -5    1    1    2    0  503  0.39179417455E+01 -0.48057324850E+01  0.24089188002E+02  0.25314507912E+02  0.47000000000E+01 0. -1.
<mgrwt>
<rscale>  2 0.77804455E+01</rscale>
<asrwt>0</asrwt>
<pdfrwt beam="1">  1       21 0.28528206E-01 0.77804455E+01</pdfrwt>
<pdfrwt beam="2">  1       21 0.10874104E-03 0.77804455E+01</pdfrwt>
<totfact> 0.51413050E+08</totfact>
</mgrwt>
</event>
<event>
 4    1  0.3906087E+006  0.7459311E+01  0.7546771E-02  0.2257037E+00
         21   -1    0    0  501  502  0.00000000000E+00  0.00000000000E+00  0.21433345587E+01  0.21433345587E+01  0.00000000000E+00 0. -1.
         21   -1    0    0  502  503 -0.00000000000E+00 -0.00000000000E+00 -0.26470104239E+02  0.26470104239E+02  0.00000000000E+00 0.  1.
          5    1    1    2  501    0 -0.55930602513E+01 -0.15063211667E+01 -0.10177656054E+02  0.12618478878E+02  0.47000000000E+01 0. -1.
         -5    1    1    2    0  503  0.55930602513E+01  0.15063211667E+01 -0.14149113626E+02  0.15994959920E+02  0.47000000000E+01 0.  1.
<mgrwt>
<rscale>  2 0.74593114E+01</rscale>
<asrwt>0</asrwt>
<pdfrwt beam="1">  1       21 0.32974379E-03 0.74593114E+01</pdfrwt>
<pdfrwt beam="2">  1       21 0.40723236E-02 0.74593114E+01</pdfrwt>
<totfact> 0.23388056E+09</totfact>
</mgrwt>
</event>
<event>
 4    1  0.3906087E+006  0.9860256E+01  0.7546771E-02  0.2083029E+00
         21   -1    0    0  503  502  0.00000000000E+00  0.00000000000E+00  0.12397790361E+03  0.12397790361E+03  0.00000000000E+00 0.  1.
         21   -1    0    0  501  503 -0.00000000000E+00 -0.00000000000E+00 -0.20904795201E+02  0.20904795201E+02  0.00000000000E+00 0. -1.
          5    1    1    2  501    0 -0.60155985682E+01 -0.62407704816E+01 -0.19533047730E+02  0.21880690025E+02  0.47000000000E+01 0. -1.
         -5    1    1    2    0  502  0.60155985682E+01  0.62407704816E+01  0.12260615614E+03  0.12300200879E+03  0.47000000000E+01 0.  1.
<mgrwt>
<rscale>  2 0.98602557E+01</rscale>
<asrwt>0</asrwt>
<pdfrwt beam="1">  1       21 0.19073523E-01 0.98602557E+01</pdfrwt>
<pdfrwt beam="2">  1       21 0.32161224E-02 0.98602557E+01</pdfrwt>
<totfact> 0.90294247E+06</totfact>
</mgrwt>
</event>
<event>
 4    1  0.3906087E+006  0.9542452E+01  0.7546771E-02  0.2102002E+00
         21   -1    0    0  501  502  0.00000000000E+00  0.00000000000E+00  0.95972993347E+01  0.95972993347E+01  0.00000000000E+00 0. -1.
         21   -1    0    0  502  503 -0.00000000000E+00 -0.00000000000E+00 -0.99167957444E+01  0.99167957444E+01  0.00000000000E+00 0.  1.
          5    1    1    2  501    0 -0.16956189680E+01  0.81297766794E+01 -0.21888288625E+01  0.97902688590E+01  0.47000000000E+01 0.  1.
         -5    1    1    2    0  503  0.16956189680E+01 -0.81297766794E+01  0.18693324528E+01  0.97238262202E+01  0.47000000000E+01 0. -1.
<mgrwt>
<rscale>  2 0.95424521E+01</rscale>
<asrwt>0</asrwt>
<pdfrwt beam="1">  1       21 0.14765076E-02 0.95424521E+01</pdfrwt>
<pdfrwt beam="2">  1       21 0.15256609E-02 0.95424521E+01</pdfrwt>
<totfact> 0.13899697E+09</totfact>
</mgrwt>
</event>
<event>
 4    1  0.3906087E+006  0.9658503E+01  0.7546771E-02  0.2094960E+00
         21   -1    0    0  503  502  0.00000000000E+00  0.00000000000E+00  0.25184513666E+02  0.25184513666E+02  0.00000000000E+00 0. -1.
         21   -1    0    0  501  503 -0.00000000000E+00 -0.00000000000E+00 -0.46495997560E+01  0.46495997560E+01  0.00000000000E+00 0. -1.
          5    1    1    2  501    0 -0.41827884359E+01 -0.73280939132E+01  0.35407969306E+01  0.10287075503E+02  0.47000000000E+01 0. -1.
         -5    1    1    2    0  502  0.41827884359E+01  0.73280939132E+01  0.16994116980E+02  0.19547037919E+02  0.47000000000E+01 0. -1.
<mgrwt>
<rscale>  2 0.96585030E+01</rscale>
<asrwt>0</asrwt>
<pdfrwt beam="1">  1       21 0.38745405E-02 0.96585030E+01</pdfrwt>
<pdfrwt beam="2">  1       21 0.71532305E-03 0.96585030E+01</pdfrwt>
<totfact> 0.10015209E+09</totfact>
</mgrwt>
</event>
<event>
 4    1  0.3906087E+006  0.5765437E+01  0.7546771E-02  0.2446990E+00
         21   -1    0    0  501  502  0.00000000000E+00  0.00000000000E+00  0.11038286433E+03  0.11038286433E+03  0.00000000000E+00 0. -1.
         21   -1    0    0  502  503 -0.00000000000E+00 -0.00000000000E+00 -0.48456803898E+00  0.48456803898E+00  0.00000000000E+00 0. -1.
          5    1    1    2  501    0 -0.29956412177E+01 -0.14752631883E+01  0.89055405333E+02  0.89241837088E+02  0.47000000000E+01 0. -1.
         -5    1    1    2    0  503  0.29956412177E+01  0.14752631883E+01  0.20842890959E+02  0.21625595283E+02  0.47000000000E+01 0. -1.
<mgrwt>
<rscale>  2 0.57654373E+01</rscale>
<asrwt>0</asrwt>
<pdfrwt beam="1">  1       21 0.16981959E-01 0.57654373E+01</pdfrwt>
<pdfrwt beam="2">  1       21 0.74549017E-04 0.57654373E+01</pdfrwt>
<totfact> 0.16230923E+09</totfact>
</mgrwt>
</event>
<event>
 4    1  0.3906087E+006  0.8461635E+01  0.7546771E-02  0.2174808E+00
         21   -1    0    0  503  502  0.00000000000E+00  0.00000000000E+00  0.54935100214E+01  0.54935100214E+01  0.00000000000E+00 0.  1.
         21   -1    0    0  501  503 -0.00000000000E+00 -0.00000000000E+00 -0.26412616787E+02  0.26412616787E+02  0.00000000000E+00 0. -1.
          5    1    1    2  501    0  0.31448196643E+01  0.62943924811E+01 -0.21813667810E+02  0.23397336831E+02  0.47000000000E+01 0. -1.
         -5    1    1    2    0  502 -0.31448196643E+01 -0.62943924811E+01  0.89456104452E+00  0.85087899780E+01  0.47000000000E+01 0.  1.
<mgrwt>
<rscale>  2 0.84616350E+01</rscale>
<asrwt>0</asrwt>
<pdfrwt beam="1">  1       21 0.84515537E-03 0.84616350E+01</pdfrwt>
<pdfrwt beam="2">  1       21 0.40634796E-02 0.84616350E+01</pdfrwt>
<totfact> 0.67661106E+08</totfact>
</mgrwt>
</event>
<event>
 4    1  0.3906087E+006  0.7044117E+01  0.7546771E-02  0.2296569E+00
         21   -1    0    0  501  502  0.00000000000E+00  0.00000000000E+00  0.30483813272E+03  0.30483813272E+03  0.00000000000E+00 0.  1.
         21   -1    0    0  502  503 -0.00000000000E+00 -0.00000000000E+00 -0.19520135665E+00  0.19520135665E+00  0.00000000000E+00 0. -1.
          5    1    1    2  501    0  0.46673198676E+01  0.23970204716E+01  0.90158067567E+02  0.90432829931E+02  0.47000000000E+01 0. -1.
         -5    1    1    2    0  503 -0.46673198676E+01 -0.23970204716E+01  0.21448486380E+03  0.21460050415E+03  0.47000000000E+01 0.  1.
<mgrwt>
<rscale>  2 0.70441168E+01</rscale>
<asrwt>0</asrwt>
<pdfrwt beam="1">  1       21 0.46897794E-01 0.70441168E+01</pdfrwt>
<pdfrwt beam="2">  1       21 0.30031222E-04 0.70441168E+01</pdfrwt>
<totfact> 0.11509485E+09</totfact>
</mgrwt>
</event>
<event>
 4    1  0.3906087E+006  0.9477196E+01  0.7546771E-02  0.2106022E+00
         21   -1    0    0  501  502  0.00000000000E+00  0.00000000000E+00  0.34962533321E+03  0.34962533321E+03  0.00000000000E+00 0. -1.
         21   -1    0    0  502  503 -0.00000000000E+00 -0.00000000000E+00 -0.26846477705E+00  0.26846477705E+00  0.00000000000E+00 0.  1.
          5    1    1    2  501    0 -0.82110533046E+01 -0.55304011349E+00  0.13836129098E+03  0.13868548623E+03  0.47000000000E+01 0.  1.
         -5    1    1    2    0  503  0.82110533046E+01  0.55304011349E+00  0.21099557745E+03  0.21120831175E+03  0.47000000000E+01 0.  1.
<mgrwt>
<rscale>  2 0.94771963E+01</rscale>
<asrwt>0</asrwt>
<pdfrwt beam="1">  1       21 0.53788148E-01 0.94771963E+01</pdfrwt>
<pdfrwt beam="2">  1       21 0.41302553E-04 0.94771963E+01</pdfrwt>
<totfact> 0.69225965E+08</totfact>
</mgrwt>
</event>
<event>
 4    1  0.3906087E+006  0.6244749E+01  0.7546771E-02  0.2384618E+00
         21   -1    0    0  501  502  0.00000000000E+00  0.00000000000E+00  0.14738886067E+02  0.14738886067E+02  0.00000000000E+00 0.  1.
         21   -1    0    0  502  503 -0.00000000000E+00 -0.00000000000E+00 -0.32524319797E+01  0.32524319797E+01  0.00000000000E+00 0.  1.
          5    1    1    2  501    0 -0.23932495045E+01 -0.33435383193E+01  0.96280692514E+01  0.11475914308E+02  0.47000000000E+01 0.  1.
         -5    1    1    2    0  503  0.23932495045E+01  0.33435383193E+01  0.18583848355E+01  0.65154037389E+01  0.47000000000E+01 0.  1.
<mgrwt>
<rscale>  2 0.62447491E+01</rscale>
<asrwt>0</asrwt>
<pdfrwt beam="1">  1       21 0.22675209E-02 0.62447491E+01</pdfrwt>
<pdfrwt beam="2">  1       21 0.50037416E-03 0.62447491E+01</pdfrwt>
<totfact> 0.26814054E+09</totfact>
</mgrwt>
</event>
<event>
 4    1  0.3906087E+006  0.7648272E+01  0.7546771E-02  0.2240210E+00
         21   -1    0    0  501  502  0.00000000000E+00  0.00000000000E+00  0.29069309470E+02  0.29069309470E+02  0.00000000000E+00 0.  1.
         21   -1    0    0  502  503 -0.00000000000E+00 -0.00000000000E+00 -0.23330701327E+01  0.23330701327E+01  0.00000000000E+00 0. -1.
          5    1    1    2  501    0 -0.22339606492E+01  0.56049522251E+01  0.19190063344E+02  0.20658039616E+02  0.47000000000E+01 0.  1.
         -5    1    1    2    0  503  0.22339606492E+01 -0.56049522251E+01  0.75461759934E+01  0.10744339987E+02  0.47000000000E+01 0. -1.
<mgrwt>
<rscale>  2 0.76482723E+01</rscale>
<asrwt>0</asrwt>
<pdfrwt beam="1">  1       21 0.44722012E-02 0.76482723E+01</pdfrwt>
<pdfrwt beam="2">  1       21 0.35893389E-03 0.76482723E+01</pdfrwt>
<totfact> 0.18398042E+09</totfact>
</mgrwt>
</event>
<event>
 4    1  0.3906087E+006  0.5769216E+01  0.7546771E-02  0.2446464E+00
         21   -1    0    0  503  502  0.00000000000E+00  0.00000000000E+00  0.25246509526E+01  0.25246509526E+01  0.00000000000E+00 0. -1.
         21   -1    0    0  501  503 -0.00000000000E+00 -0.00000000000E+00 -0.54667937078E+02  0.54667937078E+02  0.00000000000E+00 0. -1.
          5    1    1    2  501    0  0.24124410436E+01 -0.23181839654E+01 -0.50982334220E+02  0.51307721166E+02  0.47000000000E+01 0. -1.
         -5    1    1    2    0  502 -0.24124410436E+01  0.23181839654E+01 -0.11609519049E+01  0.58848668644E+01  0.47000000000E+01 0. -1.
<mgrwt>
<rscale>  2 0.57692156E+01</rscale>
<asrwt>0</asrwt>
<pdfrwt beam="1">  1       21 0.38840780E-03 0.57692156E+01</pdfrwt>
<pdfrwt beam="2">  1       21 0.84104526E-02 0.57692156E+01</pdfrwt>
<totfact> 0.51548011E+08</totfact>
</mgrwt>
</event>
<event>
 4    1  0.3906087E+006  0.5462106E+01  0.7546771E-02  0.2491174E+00
         21   -1    0    0  503  502  0.00000000000E+00  0.00000000000E+00  0.37406244207E+02  0.37406244207E+02  0.00000000000E+00 0. -1.
         21   -1    0    0  501  503 -0.00000000000E+00 -0.00000000000E+00 -0.79931441606E+00  0.79931441606E+00  0.00000000000E+00 0. -1.
          5    1    1    2  501    0 -0.20870366174E+01 -0.18408897778E+01  0.17414475875E+02  0.18250988110E+02  0.47000000000E+01 0. -1.
         -5    1    1    2    0  502  0.20870366174E+01  0.18408897778E+01  0.19192453916E+02  0.19954570512E+02  0.47000000000E+01 0. -1.
<mgrwt>
<rscale>  2 0.54621055E+01</rscale>
<asrwt>0</asrwt>
<pdfrwt beam="1">  1       21 0.57548055E-02 0.54621055E+01</pdfrwt>
<pdfrwt beam="2">  1       21 0.12297148E-03 0.54621055E+01</pdfrwt>
<totfact> 0.41417818E+09</totfact>
</mgrwt>
</event>
<event>
 4    1  0.3906087E+006  0.4957454E+01  0.7546771E-02  0.2574757E+00
         21   -1    0    0  501  502  0.00000000000E+00  0.00000000000E+00  0.32190456012E+03  0.32190456012E+03  0.00000000000E+00 0. -1.
         21   -1    0    0  502  503 -0.00000000000E+00 -0.00000000000E+00 -0.13633113909E+00  0.13633113909E+00  0.00000000000E+00 0. -1.
          5    1    1    2  501    0 -0.39353982096E+00 -0.15269161356E+01  0.26769188337E+03  0.26773778360E+03  0.47000000000E+01 0. -1.
         -5    1    1    2    0  503  0.39353982096E+00  0.15269161356E+01  0.54076345610E+02  0.54303107655E+02  0.47000000000E+01 0. -1.
<mgrwt>
<rscale>  2 0.49574536E+01</rscale>
<asrwt>0</asrwt>
<pdfrwt beam="1">  1       21 0.49523170E-01 0.49574536E+01</pdfrwt>
<pdfrwt beam="2">  1       21 0.20974279E-04 0.49574536E+01</pdfrwt>
<totfact> 0.12926234E+09</totfact>
</mgrwt>
</event>
<event>
 4    1  0.3906087E+006  0.4750251E+01  0.7546771E-02  0.2613462E+00
         21   -1    0    0  501  502  0.00000000000E+00  0.00000000000E+00  0.62408453746E+00  0.62408453746E+00  0.00000000000E+00 0.  1.
         21   -1    0    0  502  503 -0.00000000000E+00 -0.00000000000E+00 -0.36332458660E+02  0.36332458660E+02  0.00000000000E+00 0.  1.
          5    1    1    2  501    0 -0.65605126423E+00 -0.21091315089E+00 -0.19139097537E+02  0.19719785550E+02  0.47000000000E+01 0.  1.
         -5    1    1    2    0  503  0.65605126423E+00  0.21091315089E+00 -0.16569276585E+02  0.17236757647E+02  0.47000000000E+01 0.  1.
<mgrwt>
<rscale>  2 0.47502513E+01</rscale>
<asrwt>0</asrwt>
<pdfrwt beam="1">  1       21 0.96012996E-04 0.47502513E+01</pdfrwt>
<pdfrwt beam="2">  1       21 0.55896096E-02 0.47502513E+01</pdfrwt>
<totfact> 0.52091755E+09</totfact>
</mgrwt>
</event>
<event>
 4    1  0.3906087E+006  0.5187668E+01  0.7546771E-02  0.2534901E+00
         21   -1    0    0  501  502  0.00000000000E+00  0.00000000000E+00  0.92232158380E+02  0.92232158380E+02  0.00000000000E+00 0.  1.
         21   -1    0    0  502  503 -0.00000000000E+00 -0.00000000000E+00 -0.40289928707E+00  0.40289928707E+00  0.00000000000E+00 0.  1.
          5    1    1    2  501    0 -0.17849041877E+01 -0.12790680097E+01  0.70238540525E+02  0.70429854984E+02  0.47000000000E+01 0.  1.
         -5    1    1    2    0  503  0.17849041877E+01  0.12790680097E+01  0.21590718567E+02  0.22205202683E+02  0.47000000000E+01 0.  1.
<mgrwt>
<rscale>  2 0.51876679E+01</rscale>
<asrwt>0</asrwt>
<pdfrwt beam="1">  1       21 0.14189546E-01 0.51876679E+01</pdfrwt>
<pdfrwt beam="2">  1       21 0.61984579E-04 0.51876679E+01</pdfrwt>
<totfact> 0.25067546E+09</totfact>
</mgrwt>
</event>
<event>
 4    1  0.3906087E+006  0.6059024E+01  0.7546771E-02  0.2407804E+00
         21   -1    0    0  501  502  0.00000000000E+00  0.00000000000E+00  0.64080274472E+01  0.64080274472E+01  0.00000000000E+00 0. -1.
         21   -1    0    0  502  503 -0.00000000000E+00 -0.00000000000E+00 -0.38624906767E+02  0.38624906767E+02  0.00000000000E+00 0. -1.
          5    1    1    2  501    0  0.36900837323E+01 -0.10025210600E+01  0.46711647786E+01  0.76505912723E+01  0.47000000000E+01 0. -1.
         -5    1    1    2    0  503 -0.36900837323E+01  0.10025210600E+01 -0.36888044098E+02  0.37382342941E+02  0.47000000000E+01 0. -1.
<mgrwt>
<rscale>  2 0.60590236E+01</rscale>
<asrwt>0</asrwt>
<pdfrwt beam="1">  1       21 0.98585037E-03 0.60590236E+01</pdfrwt>
<pdfrwt beam="2">  1       21 0.59422934E-02 0.60590236E+01</pdfrwt>
<totfact> 0.24598640E+08</totfact>
</mgrwt>
</event>
<event>
 4    1  0.3906087E+006  0.4950283E+01  0.7546771E-02  0.2576050E+00
         21   -1    0    0  501  502  0.00000000000E+00  0.00000000000E+00  0.75028115366E+01  0.75028115366E+01  0.00000000000E+00 0.  1.
         21   -1    0    0  502  503 -0.00000000000E+00 -0.00000000000E+00 -0.46579654170E+01  0.46579654170E+01  0.00000000000E+00 0. -1.
          5    1    1    2  501    0  0.10748554739E+01 -0.11224924699E+01  0.47461405885E+01  0.68579263718E+01  0.47000000000E+01 0.  1.
         -5    1    1    2    0  503 -0.10748554739E+01  0.11224924699E+01 -0.19012944690E+01  0.53028505818E+01  0.47000000000E+01 0. -1.
<mgrwt>
<rscale>  2 0.49502832E+01</rscale>
<asrwt>0</asrwt>
<pdfrwt beam="1">  1       21 0.11542787E-02 0.49502832E+01</pdfrwt>
<pdfrwt beam="2">  1       21 0.71661006E-03 0.49502832E+01</pdfrwt>
<totfact> 0.34131110E+09</totfact>
</mgrwt>
</event>
<event>
 4    1  0.3906087E+006  0.5448472E+01  0.7546771E-02  0.2493257E+00
         21   -1    0    0  503  502  0.00000000000E+00  0.00000000000E+00  0.19391874627E+00  0.19391874627E+00  0.00000000000E+00 0. -1.
         21   -1    0    0  501  503 -0.00000000000E+00 -0.00000000000E+00 -0.15339178554E+03  0.15339178554E+03  0.00000000000E+00 0. -1.
          5    1    1    2  501    0  0.22088871122E+01  0.16482302498E+01 -0.73158699589E+02  0.73361305678E+02  0.47000000000E+01 0. -1.
         -5    1    1    2    0  502 -0.22088871122E+01 -0.16482302498E+01 -0.80039167209E+02  0.80224398612E+02  0.47000000000E+01 0. -1.
<mgrwt>
<rscale>  2 0.54484718E+01</rscale>
<asrwt>0</asrwt>
<pdfrwt beam="1">  1       21 0.29833713E-04 0.54484718E+01</pdfrwt>
<pdfrwt beam="2">  1       21 0.23598689E-01 0.54484718E+01</pdfrwt>
<totfact> 0.30880150E+09</totfact>
</mgrwt>
</event>
<event>
 4    1  0.3906087E+006  0.5731881E+01  0.7546771E-02  0.2451683E+00
         21   -1    0    0  501  502  0.00000000000E+00  0.00000000000E+00  0.72077623728E+03  0.72077623728E+03  0.00000000000E+00 0. -1.
         21   -1    0    0  502  503 -0.00000000000E+00 -0.00000000000E+00 -0.97717220974E-01  0.97717220974E-01  0.00000000000E+00 0.  1.
          5    1    1    2  501    0 -0.32372005003E+01 -0.53384223179E+00  0.62361400981E+03  0.62364035124E+03  0.47000000000E+01 0. -1.
         -5    1    1    2    0  503  0.32372005003E+01  0.53384223179E+00  0.97064510252E+02  0.97233603271E+02  0.47000000000E+01 0.  1.
<mgrwt>
<rscale>  2 0.57318805E+01</rscale>
<asrwt>0</asrwt>
<pdfrwt beam="1">  1       21 0.11088439E+00 0.57318805E+01</pdfrwt>
<pdfrwt beam="2">  1       21 0.15033996E-04 0.57318805E+01</pdfrwt>
<totfact> 0.48369189E+08</totfact>
</mgrwt>
</event>
<event>
 4    1  0.3906087E+006  0.7672280E+01  0.7546771E-02  0.2238120E+00
         21   -1    0    0  503  502  0.00000000000E+00  0.00000000000E+00  0.28159604173E+02  0.28159604173E+02  0.00000000000E+00 0.  1.
         21   -1    0    0  501  503 -0.00000000000E+00 -0.00000000000E+00 -0.36590059461E+01  0.36590059461E+01  0.00000000000E+00 0. -1.
          5    1    1    2  501    0 -0.59202969560E+01 -0.13129993918E+01  0.18335725112E+01  0.78883376959E+01  0.47000000000E+01 0. -1.
         -5    1    1    2    0  502  0.59202969560E+01  0.13129993918E+01  0.22667025715E+02  0.23930272423E+02  0.47000000000E+01 0.  1.
<mgrwt>
<rscale>  2 0.76722802E+01</rscale>
<asrwt>0</asrwt>
<pdfrwt beam="1">  1       21 0.43322467E-02 0.76722802E+01</pdfrwt>
<pdfrwt beam="2">  1       21 0.56292401E-03 0.76722802E+01</pdfrwt>
<totfact> 0.10277468E+09</totfact>
</mgrwt>
</event>
<event>
 4    1  0.3906087E+006  0.5615311E+01  0.7546771E-02  0.2468353E+00
         21   -1    0    0  503  502  0.00000000000E+00  0.00000000000E+00  0.92355391525E+02  0.92355391525E+02  0.00000000000E+00 0.  1.
         21   -1    0    0  501  503 -0.00000000000E+00 -0.00000000000E+00 -0.34286951123E+00  0.34286951123E+00  0.00000000000E+00 0. -1.
          5    1    1    2  501    0 -0.30088716463E+01  0.62322301694E+00  0.49022827762E+02  0.49343382102E+02  0.47000000000E+01 0. -1.
         -5    1    1    2    0  502  0.30088716463E+01 -0.62322301694E+00  0.42989694252E+02  0.43354878934E+02  0.47000000000E+01 0.  1.
<mgrwt>
<rscale>  2 0.56153108E+01</rscale>
<asrwt>0</asrwt>
<pdfrwt beam="1">  1       21 0.14208502E-01 0.56153108E+01</pdfrwt>
<pdfrwt beam="2">  1       21 0.52749229E-04 0.56153108E+01</pdfrwt>
<totfact> 0.33341150E+09</totfact>
</mgrwt>
</event>
<event>
 4    1  0.3906087E+006  0.5554194E+01  0.7546771E-02  0.2477329E+00
         21   -1    0    0  501  502  0.00000000000E+00  0.00000000000E+00  0.54646920980E+02  0.54646920980E+02  0.00000000000E+00 0.  1.
         21   -1    0    0  502  503 -0.00000000000E+00 -0.00000000000E+00 -0.80721825965E+01  0.80721825965E+01  0.00000000000E+00 0.  1.
          5    1    1    2  501    0  0.94687871423E+00  0.28040128342E+01  0.53530506695E+02  0.53817880061E+02  0.47000000000E+01 0.  1.
         -5    1    1    2    0  503 -0.94687871423E+00 -0.28040128342E+01 -0.69557683111E+01  0.89012235154E+01  0.47000000000E+01 0.  1.
<mgrwt>
<rscale>  2 0.55541937E+01</rscale>
<asrwt>0</asrwt>
<pdfrwt beam="1">  1       21 0.84072184E-02 0.55541937E+01</pdfrwt>
<pdfrwt beam="2">  1       21 0.12418743E-02 0.55541937E+01</pdfrwt>
<totfact> 0.99204747E+07</totfact>
</mgrwt>
</event>
<event>
 4    1  0.3906087E+006  0.7161284E+01  0.7546771E-02  0.2285035E+00
         21   -1    0    0  503  502  0.00000000000E+00  0.00000000000E+00  0.16759808654E+03  0.16759808654E+03  0.00000000000E+00 0. -1.
         21   -1    0    0  501  503 -0.00000000000E+00 -0.00000000000E+00 -0.90345599128E+00  0.90345599128E+00  0.00000000000E+00 0.  1.
          5    1    1    2  501    0  0.49925836935E+01  0.20659369633E+01  0.14833907146E+02  0.16472060851E+02  0.47000000000E+01 0.  1.
         -5    1    1    2    0  502 -0.49925836935E+01 -0.20659369633E+01  0.15186072340E+03  0.15202948168E+03  0.47000000000E+01 0. -1.
<mgrwt>
<rscale>  2 0.71612839E+01</rscale>
<asrwt>0</asrwt>
<pdfrwt beam="1">  1       21 0.25784296E-01 0.71612839E+01</pdfrwt>
<pdfrwt beam="2">  1       21 0.13899336E-03 0.71612839E+01</pdfrwt>
<totfact> 0.41457182E+08</totfact>
</mgrwt>
</event>
<event>
 4    1  0.3906087E+006  0.4760297E+01  0.7546771E-02  0.2611518E+00
         21   -1    0    0  501  502  0.00000000000E+00  0.00000000000E+00  0.39204444392E+02  0.39204444392E+02  0.00000000000E+00 0.  1.
         21   -1    0    0  502  503 -0.00000000000E+00 -0.00000000000E+00 -0.11303052850E+01  0.11303052850E+01  0.00000000000E+00 0.  1.
          5    1    1    2  501    0 -0.74682367161E+00  0.11262034645E+00  0.33134452020E+02  0.33474652196E+02  0.47000000000E+01 0.  1.
         -5    1    1    2    0  503  0.74682367161E+00 -0.11262034645E+00  0.49396870872E+01  0.68600974817E+01  0.47000000000E+01 0.  1.
<mgrwt>
<rscale>  2 0.47602971E+01</rscale>
<asrwt>0</asrwt>
<pdfrwt beam="1">  1       21 0.60314520E-02 0.47602971E+01</pdfrwt>
<pdfrwt beam="2">  1       21 0.17389315E-03 0.47602971E+01</pdfrwt>
<totfact> 0.21198672E+09</totfact>
</mgrwt>
</event>
<event>
 4    1  0.3906087E+006  0.7023302E+01  0.7546771E-02  0.2298651E+00
         21   -1    0    0  501  502  0.00000000000E+00  0.00000000000E+00  0.25562927899E+00  0.25562927899E+00  0.00000000000E+00 0. -1.
         21   -1    0    0  502  503 -0.00000000000E+00 -0.00000000000E+00 -0.29112124698E+03  0.29112124698E+03  0.00000000000E+00 0.  1.
          5    1    1    2  501    0  0.52188835805E+01 -0.55532136812E-02 -0.60836112928E+02  0.61240178093E+02  0.47000000000E+01 0. -1.
         -5    1    1    2    0  503 -0.52188835805E+01  0.55532136812E-02 -0.23002950477E+03  0.23013669817E+03  0.47000000000E+01 0.  1.
<mgrwt>
<rscale>  2 0.70233024E+01</rscale>
<asrwt>0</asrwt>
<pdfrwt beam="1">  1       21 0.39327514E-04 0.70233024E+01</pdfrwt>
<pdfrwt beam="2">  1       21 0.44787961E-01 0.70233024E+01</pdfrwt>
<totfact> 0.86829349E+08</totfact>
</mgrwt>
</event>
<event>
 4    1  0.3906087E+006  0.5105572E+01  0.7546771E-02  0.2548759E+00
         21   -1    0    0  501  502  0.00000000000E+00  0.00000000000E+00  0.10751528062E+04  0.10751528062E+04  0.00000000000E+00 0.  1.
         21   -1    0    0  502  503 -0.00000000000E+00 -0.00000000000E+00 -0.25883295553E-01  0.25883295553E-01  0.00000000000E+00 0.  1.
          5    1    1    2  501    0 -0.61965101649E+00  0.18954944246E+01  0.67282156237E+03  0.67284093340E+03  0.47000000000E+01 0.  1.
         -5    1    1    2    0  503  0.61965101649E+00 -0.18954944246E+01  0.40230536053E+03  0.40233775609E+03  0.47000000000E+01 0.  1.
<mgrwt>
<rscale>  2 0.51055721E+01</rscale>
<asrwt>0</asrwt>
<pdfrwt beam="1">  1       21 0.16537236E+00 0.51055721E+01</pdfrwt>
<pdfrwt beam="2">  1       21 0.39829066E-05 0.51055721E+01</pdfrwt>
<totfact> 0.11405906E+09</totfact>
</mgrwt>
</event>
<event>
 4    1  0.3906087E+006  0.5265822E+01  0.7546771E-02  0.2522053E+00
         21   -1    0    0  501  502  0.00000000000E+00  0.00000000000E+00  0.16362065812E+02  0.16362065812E+02  0.00000000000E+00 0. -1.
         21   -1    0    0  502  503 -0.00000000000E+00 -0.00000000000E+00 -0.29493282753E+01  0.29493282753E+01  0.00000000000E+00 0.  1.
          5    1    1    2  501    0 -0.23374175966E+01  0.41876535649E+00  0.13004020364E+02  0.14029733821E+02  0.47000000000E+01 0. -1.
         -5    1    1    2    0  503  0.23374175966E+01 -0.41876535649E+00  0.40871717236E+00  0.52816602666E+01  0.47000000000E+01 0.  1.
<mgrwt>
<rscale>  2 0.52658224E+01</rscale>
<asrwt>0</asrwt>
<pdfrwt beam="1">  1       21 0.25172408E-02 0.52658224E+01</pdfrwt>
<pdfrwt beam="2">  1       21 0.45374282E-03 0.52658224E+01</pdfrwt>
<totfact> 0.22646543E+09</totfact>
</mgrwt>
</event>
<event>
 4    1  0.3906087E+006  0.6445712E+01  0.7546771E-02  0.2360788E+00
         21   -1    0    0  503  502  0.00000000000E+00  0.00000000000E+00  0.45657104155E+03  0.45657104155E+03  0.00000000000E+00 0.  1.
         21   -1    0    0  501  503 -0.00000000000E+00 -0.00000000000E+00 -0.99006882154E-01  0.99006882154E-01  0.00000000000E+00 0.  1.
          5    1    1    2  501    0 -0.43626382250E+01  0.65161096994E+00  0.16329539606E+03  0.16342256142E+03  0.47000000000E+01 0.  1.
         -5    1    1    2    0  502  0.43626382250E+01 -0.65161096994E+00  0.29317663861E+03  0.29324748701E+03  0.47000000000E+01 0.  1.
<mgrwt>
<rscale>  2 0.64457125E+01</rscale>
<asrwt>0</asrwt>
<pdfrwt beam="1">  1       21 0.70240013E-01 0.64457125E+01</pdfrwt>
<pdfrwt beam="2">  1       21 0.15232194E-04 0.64457125E+01</pdfrwt>
<totfact> 0.12712370E+09</totfact>
</mgrwt>
</event>
<event>
 4    1  0.3906087E+006  0.1138840E+02  0.7546771E-02  0.2003636E+00
         21   -1    0    0  503  502  0.00000000000E+00  0.00000000000E+00  0.33253481834E+02  0.33253481834E+02  0.00000000000E+00 0. -1.
         21   -1    0    0  501  503 -0.00000000000E+00 -0.00000000000E+00 -0.71336087439E+01  0.71336087439E+01  0.00000000000E+00 0.  1.
          5    1    1    2  501    0  0.75369414442E+01  0.71274284870E+01 -0.53531469261E+00  0.11400977370E+02  0.47000000000E+01 0.  1.
         -5    1    1    2    0  502 -0.75369414442E+01 -0.71274284870E+01  0.26655187783E+02  0.28986113208E+02  0.47000000000E+01 0. -1.
<mgrwt>
<rscale>  2 0.11388403E+02</rscale>
<asrwt>0</asrwt>
<pdfrwt beam="1">  1       21 0.51159202E-02 0.11388403E+02</pdfrwt>
<pdfrwt beam="2">  1       21 0.10974783E-02 0.11388403E+02</pdfrwt>
<totfact> 0.38514817E+08</totfact>
</mgrwt>
</event>
<event>
 4    1  0.3906087E+006  0.4904135E+01  0.7546771E-02  0.2584446E+00
         21   -1    0    0  503  502  0.00000000000E+00  0.00000000000E+00  0.12618931451E+01  0.12618931451E+01  0.00000000000E+00 0. -1.
         21   -1    0    0  501  503 -0.00000000000E+00 -0.00000000000E+00 -0.22355445500E+02  0.22355445500E+02  0.00000000000E+00 0. -1.
          5    1    1    2  501    0 -0.62079068266E+00 -0.12550527788E+01 -0.60123103433E+01  0.77587637039E+01  0.47000000000E+01 0. -1.
         -5    1    1    2    0  502  0.62079068266E+00  0.12550527788E+01 -0.15081242011E+02  0.15858574941E+02  0.47000000000E+01 0. -1.
<mgrwt>
<rscale>  2 0.49041348E+01</rscale>
<asrwt>0</asrwt>
<pdfrwt beam="1">  1       21 0.19413742E-03 0.49041348E+01</pdfrwt>
<pdfrwt beam="2">  1       21 0.34392991E-02 0.49041348E+01</pdfrwt>
<totfact> 0.42661915E+09</totfact>
</mgrwt>
</event>
<event>
 4    1  0.3906087E+006  0.5296882E+01  0.7546771E-02  0.2517037E+00
         21   -1    0    0  501  502  0.00000000000E+00  0.00000000000E+00  0.84679309540E+01  0.84679309540E+01  0.00000000000E+00 0. -1.
         21   -1    0    0  502  503 -0.00000000000E+00 -0.00000000000E+00 -0.52237125811E+01  0.52237125811E+01  0.00000000000E+00 0. -1.
          5    1    1    2  501    0  0.22348916022E+01  0.98601242247E+00  0.57620803565E+01  0.78267829282E+01  0.47000000000E+01 0. -1.
         -5    1    1    2    0  503 -0.22348916022E+01 -0.98601242247E+00 -0.25178619835E+01  0.58648606069E+01  0.47000000000E+01 0. -1.
<mgrwt>
<rscale>  2 0.52968822E+01</rscale>
<asrwt>0</asrwt>
<pdfrwt beam="1">  1       21 0.13027586E-02 0.52968822E+01</pdfrwt>
<pdfrwt beam="2">  1       21 0.80364809E-03 0.52968822E+01</pdfrwt>
<totfact> 0.26314106E+09</totfact>
</mgrwt>
</event>
<event>
 4    1  0.3906087E+006  0.6505186E+01  0.7546771E-02  0.2353971E+00
         21   -1    0    0  503  502  0.00000000000E+00  0.00000000000E+00  0.51692534216E+01  0.51692534216E+01  0.00000000000E+00 0. -1.
         21   -1    0    0  501  503 -0.00000000000E+00 -0.00000000000E+00 -0.11152337164E+02  0.11152337164E+02  0.00000000000E+00 0. -1.
          5    1    1    2  501    0 -0.32201292563E+01  0.31397796317E+01 -0.72000902075E+01  0.97035430416E+01  0.47000000000E+01 0. -1.
         -5    1    1    2    0  502  0.32201292563E+01 -0.31397796317E+01  0.12170064648E+01  0.66180475443E+01  0.47000000000E+01 0. -1.
<mgrwt>
<rscale>  2 0.65051863E+01</rscale>
<asrwt>0</asrwt>
<pdfrwt beam="1">  1       21 0.79526976E-03 0.65051863E+01</pdfrwt>
<pdfrwt beam="2">  1       21 0.17157442E-02 0.65051863E+01</pdfrwt>
<totfact> 0.21676081E+09</totfact>
</mgrwt>
</event>
<event>
 4    1  0.3906087E+006  0.5038315E+01  0.7546771E-02  0.2560401E+00
         21   -1    0    0  501  502  0.00000000000E+00  0.00000000000E+00  0.67601807617E+01  0.67601807617E+01  0.00000000000E+00 0.  1.
         21   -1    0    0  502  503 -0.00000000000E+00 -0.00000000000E+00 -0.44913007468E+01  0.44913007468E+01  0.00000000000E+00 0.  1.
          5    1    1    2  501    0  0.17882974234E+01 -0.31082537068E+00 -0.11433574375E+01  0.51664190999E+01  0.47000000000E+01 0.  1.
         -5    1    1    2    0  503 -0.17882974234E+01  0.31082537068E+00  0.34122374523E+01  0.60850624086E+01  0.47000000000E+01 0.  1.
<mgrwt>
<rscale>  2 0.50383152E+01</rscale>
<asrwt>0</asrwt>
<pdfrwt beam="1">  1       21 0.10400278E-02 0.50383152E+01</pdfrwt>
<pdfrwt beam="2">  1       21 0.69096935E-03 0.50383152E+01</pdfrwt>
<totfact> 0.42297787E+09</totfact>
</mgrwt>
</event>
<event>
 4    1  0.3906087E+006  0.8695262E+01  0.7546771E-02  0.2157856E+00
         21   -1    0    0  501  502  0.00000000000E+00  0.00000000000E+00  0.15922393630E+02  0.15922393630E+02  0.00000000000E+00 0. -1.
         21   -1    0    0  502  503 -0.00000000000E+00 -0.00000000000E+00 -0.11487208954E+02  0.11487208954E+02  0.00000000000E+00 0.  1.
          5    1    1    2  501    0  0.34876623756E+01 -0.64306918782E+01  0.12714312722E+02  0.15403289742E+02  0.47000000000E+01 0. -1.
         -5    1    1    2    0  503 -0.34876623756E+01  0.64306918782E+01 -0.82791280459E+01  0.12006312843E+02  0.47000000000E+01 0.  1.
<mgrwt>
<rscale>  2 0.86952623E+01</rscale>
<asrwt>0</asrwt>
<pdfrwt beam="1">  1       21 0.24495990E-02 0.86952623E+01</pdfrwt>
<pdfrwt beam="2">  1       21 0.17672629E-02 0.86952623E+01</pdfrwt>
<totfact> 0.50270928E+08</totfact>
</mgrwt>
</event>
<event>
 4    1  0.3906087E+006  0.8548293E+01  0.7546771E-02  0.2168434E+00
         21   -1    0    0  503  502  0.00000000000E+00  0.00000000000E+00  0.43402180505E+02  0.43402180505E+02  0.00000000000E+00 0.  1.
         21   -1    0    0  501  503 -0.00000000000E+00 -0.00000000000E+00 -0.72808521483E+01  0.72808521483E+01  0.00000000000E+00 0. -1.
          5    1    1    2  501    0  0.55868566611E+01  0.44463850879E+01 -0.41584980119E+01  0.95061250474E+01  0.47000000000E+01 0. -1.
         -5    1    1    2    0  502 -0.55868566611E+01 -0.44463850879E+01  0.40279826368E+02  0.41176907605E+02  0.47000000000E+01 0.  1.
<mgrwt>
<rscale>  2 0.85482927E+01</rscale>
<asrwt>0</asrwt>
<pdfrwt beam="1">  1       21 0.66772584E-02 0.85482927E+01</pdfrwt>
<pdfrwt beam="2">  1       21 0.11201311E-02 0.85482927E+01</pdfrwt>
<totfact> 0.21337984E+08</totfact>
</mgrwt>
</event>
<event>
 4    1  0.3906087E+006  0.1242555E+02  0.7546771E-02  0.1958583E+00
         21   -1    0    0  503  502  0.00000000000E+00  0.00000000000E+00  0.11257327622E+00  0.11257327622E+00  0.00000000000E+00 0.  1.
         21   -1    0    0  501  503 -0.00000000000E+00 -0.00000000000E+00 -0.15556410110E+04  0.15556410110E+04  0.00000000000E+00 0. -1.
          5    1    1    2  501    0  0.88225128469E+01 -0.73802202665E+01 -0.10453912410E+04  0.10454650837E+04  0.47000000000E+01 0. -1.
         -5    1    1    2    0  502 -0.88225128469E+01  0.73802202665E+01 -0.51013719668E+03  0.51028850058E+03  0.47000000000E+01 0.  1.
<mgrwt>
<rscale>  2 0.12425554E+02</rscale>
<asrwt>0</asrwt>
<pdfrwt beam="1">  1       21 0.17317140E-04 0.12425554E+02</pdfrwt>
<pdfrwt beam="2">  1       21 0.23935461E+00 0.12425554E+02</pdfrwt>
<totfact> 0.99825020E+07</totfact>
</mgrwt>
</event>
<event>
 4    1  0.3906087E+006  0.1015105E+02  0.7546771E-02  0.2066492E+00
         21   -1    0    0  503  502  0.00000000000E+00  0.00000000000E+00  0.39237172461E+03  0.39237172461E+03  0.00000000000E+00 0. -1.
         21   -1    0    0  501  503 -0.00000000000E+00 -0.00000000000E+00 -0.28286713206E+00  0.28286713206E+00  0.00000000000E+00 0. -1.
          5    1    1    2  501    0 -0.69099982771E+00  0.89708624846E+01  0.14351613683E+03  0.14387468640E+03  0.47000000000E+01 0. -1.
         -5    1    1    2    0  502  0.69099982771E+00 -0.89708624846E+01  0.24857272065E+03  0.24877990535E+03  0.47000000000E+01 0. -1.
<mgrwt>
<rscale>  2 0.10151052E+02</rscale>
<asrwt>0</asrwt>
<pdfrwt beam="1">  1       21 0.60364445E-01 0.10151052E+02</pdfrwt>
<pdfrwt beam="2">  1       21 0.43518334E-04 0.10151052E+02</pdfrwt>
<totfact> 0.53612217E+08</totfact>
</mgrwt>
</event>
<event>
 4    1  0.3906087E+006  0.5766416E+01  0.7546771E-02  0.2446854E+00
         21   -1    0    0  501  502  0.00000000000E+00  0.00000000000E+00  0.33568600480E+02  0.33568600480E+02  0.00000000000E+00 0.  1.
         21   -1    0    0  502  503 -0.00000000000E+00 -0.00000000000E+00 -0.15328249324E+01  0.15328249324E+01  0.00000000000E+00 0.  1.
          5    1    1    2  501    0 -0.23752860353E+01 -0.23493756180E+01  0.26456822641E+02  0.27077943308E+02  0.47000000000E+01 0.  1.
         -5    1    1    2    0  503  0.23752860353E+01  0.23493756180E+01  0.55789529071E+01  0.80234821047E+01  0.47000000000E+01 0.  1.
<mgrwt>
<rscale>  2 0.57664157E+01</rscale>
<asrwt>0</asrwt>
<pdfrwt beam="1">  1       21 0.51643995E-02 0.57664157E+01</pdfrwt>
<pdfrwt beam="2">  1       21 0.23581925E-03 0.57664157E+01</pdfrwt>
<totfact> 0.21187378E+09</totfact>
</mgrwt>
</event>
<event>
 4    1  0.3906087E+006  0.5681748E+01  0.7546771E-02  0.2458781E+00
         21   -1    0    0  503  502  0.00000000000E+00  0.00000000000E+00  0.46748438847E+01  0.46748438847E+01  0.00000000000E+00 0.  1.
         21   -1    0    0  501  503 -0.00000000000E+00 -0.00000000000E+00 -0.12046853485E+02  0.12046853485E+02  0.00000000000E+00 0.  1.
          5    1    1    2  501    0  0.31540237870E+01 -0.49435940157E+00 -0.91479982102E+01  0.10768849916E+02  0.47000000000E+01 0.  1.
         -5    1    1    2    0  502 -0.31540237870E+01  0.49435940157E+00  0.17759886095E+01  0.59528474538E+01  0.47000000000E+01 0.  1.
<mgrwt>
<rscale>  2 0.56817477E+01</rscale>
<asrwt>0</asrwt>
<pdfrwt beam="1">  1       21 0.71920676E-03 0.56817477E+01</pdfrwt>
<pdfrwt beam="2">  1       21 0.18533620E-02 0.56817477E+01</pdfrwt>
<totfact> 0.19891034E+09</totfact>
</mgrwt>
</event>
<event>
 4    1  0.3906087E+006  0.6734479E+01  0.7546771E-02  0.2328625E+00
         21   -1    0    0  503  502  0.00000000000E+00  0.00000000000E+00  0.18836574753E+00  0.18836574753E+00  0.00000000000E+00 0.  1.
         21   -1    0    0  501  503 -0.00000000000E+00 -0.00000000000E+00 -0.52943683121E+03  0.52943683121E+03  0.00000000000E+00 0. -1.
          5    1    1    2  501    0 -0.40615780101E+01  0.26013046824E+01 -0.46016102602E+03  0.46021030309E+03  0.47000000000E+01 0. -1.
         -5    1    1    2    0  502  0.40615780101E+01 -0.26013046824E+01 -0.69087439435E+02  0.69414893861E+02  0.47000000000E+01 0.  1.
<mgrwt>
<rscale>  2 0.67344786E+01</rscale>
<asrwt>0</asrwt>
<pdfrwt beam="1">  1       21 0.28979367E-04 0.67344786E+01</pdfrwt>
<pdfrwt beam="2">  1       21 0.81451761E-01 0.67344786E+01</pdfrwt>
<totfact> 0.41507139E+08</totfact>
</mgrwt>
</event>
<event>
 4    1  0.3906087E+006  0.5865140E+01  0.7546771E-02  0.2433313E+00
         21   -1    0    0  503  502  0.00000000000E+00  0.00000000000E+00  0.20268004546E+01  0.20268004546E+01  0.00000000000E+00 0. -1.
         21   -1    0    0  501  503 -0.00000000000E+00 -0.00000000000E+00 -0.10143558595E+03  0.10143558595E+03  0.00000000000E+00 0.  1.
          5    1    1    2  501    0 -0.34366663183E+01 -0.70653451748E+00 -0.96909697137E+02  0.97087019038E+02  0.47000000000E+01 0.  1.
         -5    1    1    2    0  502  0.34366663183E+01  0.70653451748E+00 -0.24990883541E+01  0.63753673627E+01  0.47000000000E+01 0. -1.
<mgrwt>
<rscale>  2 0.58651399E+01</rscale>
<asrwt>0</asrwt>
<pdfrwt beam="1">  1       21 0.31181548E-03 0.58651399E+01</pdfrwt>
<pdfrwt beam="2">  1       21 0.15605474E-01 0.58651399E+01</pdfrwt>
<totfact> 0.27156743E+08</totfact>
</mgrwt>
</event>
<event>
 4    1  0.3906087E+006  0.4919580E+01  0.7546771E-02  0.2581621E+00
         21   -1    0    0  501  502  0.00000000000E+00  0.00000000000E+00  0.15455987219E+03  0.15455987219E+03  0.00000000000E+00 0.  1.
         21   -1    0    0  502  503 -0.00000000000E+00 -0.00000000000E+00 -0.18625425264E+00  0.18625425264E+00  0.00000000000E+00 0.  1.
          5    1    1    2  501    0 -0.14160913335E+01 -0.32703641567E+00  0.10806599536E+03  0.10817791651E+03  0.47000000000E+01 0.  1.
         -5    1    1    2    0  503  0.14160913335E+01  0.32703641567E+00  0.46307622576E+02  0.46568209930E+02  0.47000000000E+01 0.  1.
<mgrwt>
<rscale>  2 0.49195800E+01</rscale>
<asrwt>0</asrwt>
<pdfrwt beam="1">  1       21 0.23778339E-01 0.49195800E+01</pdfrwt>
<pdfrwt beam="2">  1       21 0.28654624E-04 0.49195800E+01</pdfrwt>
<totfact> 0.29282465E+09</totfact>
</mgrwt>
</event>
<event>
 4    1  0.3906087E+006  0.6838131E+01  0.7546771E-02  0.2317628E+00
         21   -1    0    0  501  502  0.00000000000E+00  0.00000000000E+00  0.67853669757E+01  0.67853669757E+01  0.00000000000E+00 0.  1.
         21   -1    0    0  502  503 -0.00000000000E+00 -0.00000000000E+00 -0.11661033339E+02  0.11661033339E+02  0.00000000000E+00 0. -1.
          5    1    1    2  501    0  0.21153210487E+01 -0.44939350500E+01  0.34609159147E+01  0.76640703508E+01  0.47000000000E+01 0.  1.
         -5    1    1    2    0  503 -0.21153210487E+01  0.44939350500E+01 -0.83365822780E+01  0.10782329964E+02  0.47000000000E+01 0. -1.
<mgrwt>
<rscale>  2 0.68381310E+01</rscale>
<asrwt>0</asrwt>
<pdfrwt beam="1">  1       21 0.10439026E-02 0.68381310E+01</pdfrwt>
<pdfrwt beam="2">  1       21 0.17940051E-02 0.68381310E+01</pdfrwt>
<totfact> 0.14378325E+09</totfact>
</mgrwt>
</event>
<event>
 4    1  0.3906087E+006  0.5728098E+01  0.7546771E-02  0.2452215E+00
         21   -1    0    0  503  502  0.00000000000E+00  0.00000000000E+00  0.16925698536E+00  0.16925698536E+00  0.00000000000E+00 0.  1.
         21   -1    0    0  501  503 -0.00000000000E+00 -0.00000000000E+00 -0.35111417513E+03  0.35111417513E+03  0.00000000000E+00 0. -1.
          5    1    1    2  501    0  0.11064836178E+01 -0.30816880974E+01 -0.29301989552E+03  0.29307587802E+03  0.47000000000E+01 0. -1.
         -5    1    1    2    0  502 -0.11064836178E+01  0.30816880974E+01 -0.57925022629E+02  0.58207554098E+02  0.47000000000E+01 0.  1.
<mgrwt>
<rscale>  2 0.57280981E+01</rscale>
<asrwt>0</asrwt>
<pdfrwt beam="1">  1       21 0.26039276E-04 0.57280981E+01</pdfrwt>
<pdfrwt beam="2">  1       21 0.54018104E-01 0.57280981E+01</pdfrwt>
<totfact> 0.93240048E+08</totfact>
</mgrwt>
</event>
<event>
 4    1  0.3906087E+006  0.5127079E+01  0.7546771E-02  0.2545092E+00
         21   -1    0    0  503  502  0.00000000000E+00  0.00000000000E+00  0.78099123632E+01  0.78099123632E+01  0.00000000000E+00 0. -1.
         21   -1    0    0  501  503 -0.00000000000E+00 -0.00000000000E+00 -0.51845989651E+01  0.51845989651E+01  0.00000000000E+00 0.  1.
          5    1    1    2  501    0  0.11460149427E+01 -0.16981125387E+01 -0.25355609252E+01  0.57197906997E+01  0.47000000000E+01 0.  1.
         -5    1    1    2    0  502 -0.11460149427E+01  0.16981125387E+01  0.51608743233E+01  0.72747206286E+01  0.47000000000E+01 0. -1.
<mgrwt>
<rscale>  2 0.51270787E+01</rscale>
<asrwt>0</asrwt>
<pdfrwt beam="1">  1       21 0.12015250E-02 0.51270787E+01</pdfrwt>
<pdfrwt beam="2">  1       21 0.79763061E-03 0.51270787E+01</pdfrwt>
<totfact> 0.28836498E+09</totfact>
</mgrwt>
</event>
<event>
 4    1  0.3906087E+006  0.5944677E+01  0.7546771E-02  0.2422680E+00
         21   -1    0    0  501  502  0.00000000000E+00  0.00000000000E+00  0.43305462516E+00  0.43305462516E+00  0.00000000000E+00 0. -1.
         21   -1    0    0  502  503 -0.00000000000E+00 -0.00000000000E+00 -0.21211402250E+03  0.21211402250E+03  0.00000000000E+00 0.  1.
          5    1    1    2  501    0  0.35485908018E+01 -0.81036040345E+00 -0.22479726948E+02  0.23252468779E+02  0.47000000000E+01 0. -1.
         -5    1    1    2    0  503 -0.35485908018E+01  0.81036040345E+00 -0.18920124092E+03  0.18929460834E+03  0.47000000000E+01 0.  1.
<mgrwt>
<rscale>  2 0.59446767E+01</rscale>
<asrwt>0</asrwt>
<pdfrwt beam="1">  1       21 0.66623699E-04 0.59446767E+01</pdfrwt>
<pdfrwt beam="2">  1       21 0.32632970E-01 0.59446767E+01</pdfrwt>
<totfact> 0.66223926E+08</totfact>
</mgrwt>
</event>
<event>
 4    1  0.3906087E+006  0.9345896E+01  0.7546771E-02  0.2114244E+00
         21   -1    0    0  503  502  0.00000000000E+00  0.00000000000E+00  0.62713451219E+03  0.62713451219E+03  0.00000000000E+00 0. -1.
         21   -1    0    0  501  503 -0.00000000000E+00 -0.00000000000E+00 -0.16096128130E+00  0.16096128130E+00  0.00000000000E+00 0.  1.
          5    1    1    2  501    0 -0.67428516722E+01 -0.44485645188E+01  0.19836746181E+03  0.19858750132E+03  0.47000000000E+01 0.  1.
         -5    1    1    2    0  502  0.67428516722E+01  0.44485645188E+01  0.42860608910E+03  0.42870797216E+03  0.47000000000E+01 0.  1.
<mgrwt>
<rscale>  2 0.93458962E+01</rscale>
<asrwt>0</asrwt>
<pdfrwt beam="1">  1       21 0.96480277E-01 0.93458962E+01</pdfrwt>
<pdfrwt beam="2">  1       21 0.24763776E-04 0.93458962E+01</pdfrwt>
<totfact> 0.43610909E+08</totfact>
</mgrwt>
</event>
<event>
 4    1  0.3906087E+006  0.6042611E+01  0.7546771E-02  0.2409911E+00
         21   -1    0    0  501  502  0.00000000000E+00  0.00000000000E+00  0.25707901436E+03  0.25707901436E+03  0.00000000000E+00 0. -1.
         21   -1    0    0  502  503 -0.00000000000E+00 -0.00000000000E+00 -0.14378609075E+00  0.14378609075E+00  0.00000000000E+00 0. -1.
          5    1    1    2  501    0 -0.24022387776E+01  0.29414955835E+01  0.11425771269E+03  0.11441738529E+03  0.47000000000E+01 0. -1.
         -5    1    1    2    0  503  0.24022387776E+01 -0.29414955835E+01  0.14267751558E+03  0.14280541516E+03  0.47000000000E+01 0. -1.
<mgrwt>
<rscale>  2 0.60426110E+01</rscale>
<asrwt>0</asrwt>
<pdfrwt beam="1">  1       21 0.39550250E-01 0.60426110E+01</pdfrwt>
<pdfrwt beam="2">  1       21 0.22121143E-04 0.60426110E+01</pdfrwt>
<totfact> 0.21010070E+09</totfact>
</mgrwt>
</event>
<event>
 4    1  0.3906087E+006  0.6482720E+01  0.7546771E-02  0.2356534E+00
         21   -1    0    0  501  502  0.00000000000E+00  0.00000000000E+00  0.62835149838E+00  0.62835149838E+00  0.00000000000E+00 0. -1.
         21   -1    0    0  502  503 -0.00000000000E+00 -0.00000000000E+00 -0.97345861003E+02  0.97345861003E+02  0.00000000000E+00 0. -1.
          5    1    1    2  501    0  0.17572239099E+01 -0.41046105825E+01 -0.20954842076E+02  0.21934700142E+02  0.47000000000E+01 0. -1.
         -5    1    1    2    0  503 -0.17572239099E+01  0.41046105825E+01 -0.75762667429E+02  0.76039512360E+02  0.47000000000E+01 0. -1.
<mgrwt>
<rscale>  2 0.64827204E+01</rscale>
<asrwt>0</asrwt>
<pdfrwt beam="1">  1       21 0.96669532E-04 0.64827204E+01</pdfrwt>
<pdfrwt beam="2">  1       21 0.14976275E-01 0.64827204E+01</pdfrwt>
<totfact> 0.15349017E+09</totfact>
</mgrwt>
</event>
<event>
 4    1  0.3906087E+006  0.1127126E+02  0.7546771E-02  0.2009124E+00
         21   -1    0    0  501  502  0.00000000000E+00  0.00000000000E+00  0.51834191812E+00  0.51834191812E+00  0.00000000000E+00 0. -1.
         21   -1    0    0  502  503 -0.00000000000E+00 -0.00000000000E+00 -0.45994347900E+03  0.45994347900E+03  0.00000000000E+00 0. -1.
          5    1    1    2  501    0 -0.49768621255E+01  0.89544435642E+01 -0.72357389232E+02  0.73230000633E+02  0.47000000000E+01 0. -1.
         -5    1    1    2    0  503  0.49768621255E+01 -0.89544435642E+01 -0.38706774785E+03  0.38723182029E+03  0.47000000000E+01 0. -1.
<mgrwt>
<rscale>  2 0.11271256E+02</rscale>
<asrwt>0</asrwt>
<pdfrwt beam="1">  1       21 0.79744780E-04 0.11271256E+02</pdfrwt>
<pdfrwt beam="2">  1       21 0.70760651E-01 0.11271256E+02</pdfrwt>
<totfact> 0.17932188E+08</totfact>
</mgrwt>
</event>
<event>
 4    1  0.3906087E+006  0.8113336E+01  0.7546771E-02  0.2201521E+00
         21   -1    0    0  503  502  0.00000000000E+00  0.00000000000E+00  0.11154357266E+02  0.11154357266E+02  0.00000000000E+00 0.  1.
         21   -1    0    0  501  503 -0.00000000000E+00 -0.00000000000E+00 -0.66624060812E+01  0.66624060812E+01  0.00000000000E+00 0. -1.
          5    1    1    2  501    0  0.53885962676E+01 -0.38339611045E+01  0.52567609667E+01  0.96674589912E+01  0.47000000000E+01 0. -1.
         -5    1    1    2    0  502 -0.53885962676E+01  0.38339611045E+01 -0.76480978172E+00  0.81493043561E+01  0.47000000000E+01 0.  1.
<mgrwt>
<rscale>  2 0.81133364E+01</rscale>
<asrwt>0</asrwt>
<pdfrwt beam="1">  1       21 0.17160550E-02 0.81133364E+01</pdfrwt>
<pdfrwt beam="2">  1       21 0.10249855E-02 0.81133364E+01</pdfrwt>
<totfact> 0.17848764E+09</totfact>
</mgrwt>
</event>
<event>
 4    1  0.3906087E+006  0.5128996E+01  0.7546771E-02  0.2544767E+00
         21   -1    0    0  503  502  0.00000000000E+00  0.00000000000E+00  0.13015296213E+02  0.13015296213E+02  0.00000000000E+00 0.  1.
         21   -1    0    0  501  503 -0.00000000000E+00 -0.00000000000E+00 -0.58675405380E+01  0.58675405380E+01  0.00000000000E+00 0.  1.
          5    1    1    2  501    0  0.20004583112E+01 -0.46342627803E+00 -0.40703339273E+01  0.65478405333E+01  0.47000000000E+01 0.  1.
         -5    1    1    2    0  502 -0.20004583112E+01  0.46342627803E+00  0.11218089602E+02  0.12334996218E+02  0.47000000000E+01 0.  1.
<mgrwt>
<rscale>  2 0.51289957E+01</rscale>
<asrwt>0</asrwt>
<pdfrwt beam="1">  1       21 0.20023533E-02 0.51289957E+01</pdfrwt>
<pdfrwt beam="2">  1       21 0.90269854E-03 0.51289957E+01</pdfrwt>
<totfact> 0.11809014E+09</totfact>
</mgrwt>
</event>
<event>
 4    1  0.3906087E+006  0.6594291E+01  0.7546771E-02  0.2343948E+00
         21   -1    0    0  503  502  0.00000000000E+00  0.00000000000E+00  0.46966282942E+02  0.46966282942E+02  0.00000000000E+00 0. -1.
         21   -1    0    0  501  503 -0.00000000000E+00 -0.00000000000E+00 -0.26984981473E+01  0.26984981473E+01  0.00000000000E+00 0.  1.
          5    1    1    2  501    0 -0.40949226804E+01 -0.21508788264E+01  0.20074835504E+01  0.68930879648E+01  0.47000000000E+01 0.  1.
         -5    1    1    2    0  502  0.40949226804E+01  0.21508788264E+01  0.42260301244E+02  0.42771693124E+02  0.47000000000E+01 0. -1.
<mgrwt>
<rscale>  2 0.65942908E+01</rscale>
<asrwt>0</asrwt>
<pdfrwt beam="1">  1       21 0.72255814E-02 0.65942908E+01</pdfrwt>
<pdfrwt beam="2">  1       21 0.41515360E-03 0.65942908E+01</pdfrwt>
<totfact> 0.65468674E+08</totfact>
</mgrwt>
</event>
<event>
 4    1  0.3906087E+006  0.4729306E+01  0.7546771E-02  0.2617538E+00
         21   -1    0    0  503  502  0.00000000000E+00  0.00000000000E+00  0.95734888148E+02  0.95734888148E+02  0.00000000000E+00 0.  1.
         21   -1    0    0  501  503 -0.00000000000E+00 -0.00000000000E+00 -0.28996228383E+00  0.28996228383E+00  0.00000000000E+00 0.  1.
          5    1    1    2  501    0 -0.15668141888E+00  0.50178570303E+00  0.26559826084E+02  0.26977596252E+02  0.47000000000E+01 0.  1.
         -5    1    1    2    0  502  0.15668141888E+00 -0.50178570303E+00  0.68885099781E+02  0.69047254180E+02  0.47000000000E+01 0.  1.
<mgrwt>
<rscale>  2 0.47293063E+01</rscale>
<asrwt>0</asrwt>
<pdfrwt beam="1">  1       21 0.14728419E-01 0.47293063E+01</pdfrwt>
<pdfrwt beam="2">  1       21 0.44609659E-04 0.47293063E+01</pdfrwt>
<totfact> 0.33395426E+09</totfact>
</mgrwt>
</event>
<event>
 4    1  0.3906087E+006  0.5067155E+01  0.7546771E-02  0.2555377E+00
         21   -1    0    0  501  502  0.00000000000E+00  0.00000000000E+00  0.35022994676E+00  0.35022994676E+00  0.00000000000E+00 0.  1.
         21   -1    0    0  502  503 -0.00000000000E+00 -0.00000000000E+00 -0.12358369291E+03  0.12358369291E+03  0.00000000000E+00 0.  1.
          5    1    1    2  501    0 -0.14675972427E+01  0.11967527949E+01 -0.22094508990E+02  0.22668113870E+02  0.47000000000E+01 0.  1.
         -5    1    1    2    0  503  0.14675972427E+01 -0.11967527949E+01 -0.10113895398E+03  0.10126580899E+03  0.47000000000E+01 0.  1.
<mgrwt>
<rscale>  2 0.50671549E+01</rscale>
<asrwt>0</asrwt>
<pdfrwt beam="1">  1       21 0.53881488E-04 0.50671549E+01</pdfrwt>
<pdfrwt beam="2">  1       21 0.19012891E-01 0.50671549E+01</pdfrwt>
<totfact> 0.18659592E+09</totfact>
</mgrwt>
</event>
<event>
 4    1  0.3906087E+006  0.1475177E+02  0.7546771E-02  0.1875739E+00
         21   -1    0    0  503  502  0.00000000000E+00  0.00000000000E+00  0.11797460304E+02  0.11797460304E+02  0.00000000000E+00 0. -1.
         21   -1    0    0  501  503 -0.00000000000E+00 -0.00000000000E+00 -0.18716766910E+02  0.18716766910E+02  0.00000000000E+00 0.  1.
          5    1    1    2  501    0 -0.13981175830E+02  0.22664974272E+00 -0.52951070998E+01  0.15673315122E+02  0.47000000000E+01 0. -1.
         -5    1    1    2    0  502  0.13981175830E+02 -0.22664974272E+00 -0.16241995070E+01  0.14840912093E+02  0.47000000000E+01 0.  1.
<mgrwt>
<rscale>  2 0.14751768E+02</rscale>
<asrwt>0</asrwt>
<pdfrwt beam="1">  1       21 0.18149939E-02 0.14751768E+02</pdfrwt>
<pdfrwt beam="2">  1       21 0.28795026E-02 0.14751768E+02</pdfrwt>
<totfact> 0.49755664E+08</totfact>
</mgrwt>
</event>
<event>
 4    1  0.3906087E+006  0.1019808E+02  0.7546771E-02  0.2063887E+00
         21   -1    0    0  501  502  0.00000000000E+00  0.00000000000E+00  0.34955846035E+01  0.34955846035E+01  0.00000000000E+00 0.  1.
         21   -1    0    0  502  503 -0.00000000000E+00 -0.00000000000E+00 -0.30703611920E+02  0.30703611920E+02  0.00000000000E+00 0.  1.
          5    1    1    2  501    0  0.82323387583E+01 -0.37602503134E+01 -0.10593748570E+02  0.14704706478E+02  0.47000000000E+01 0.  1.
         -5    1    1    2    0  503 -0.82323387583E+01  0.37602503134E+01 -0.16614278747E+02  0.19494490045E+02  0.47000000000E+01 0.  1.
<mgrwt>
<rscale>  2 0.10198082E+02</rscale>
<asrwt>0</asrwt>
<pdfrwt beam="1">  1       21 0.53778224E-03 0.10198082E+02</pdfrwt>
<pdfrwt beam="2">  1       21 0.47236326E-02 0.10198082E+02</pdfrwt>
<totfact> 0.11512082E+09</totfact>
</mgrwt>
</event>
<event>
 4    1  0.3906087E+006  0.6994889E+01  0.7546771E-02  0.2301509E+00
         21   -1    0    0  503  502  0.00000000000E+00  0.00000000000E+00  0.13998365692E+00  0.13998365692E+00  0.00000000000E+00 0. -1.
         21   -1    0    0  501  503 -0.00000000000E+00 -0.00000000000E+00 -0.47407135799E+03  0.47407135799E+03  0.00000000000E+00 0.  1.
          5    1    1    2  501    0 -0.34530521727E+01  0.38619810792E+01 -0.35849390677E+03  0.35856214197E+03  0.47000000000E+01 0.  1.
         -5    1    1    2    0  502  0.34530521727E+01 -0.38619810792E+01 -0.11543746757E+03  0.11564919968E+03  0.47000000000E+01 0. -1.
<mgrwt>
<rscale>  2 0.69948886E+01</rscale>
<asrwt>0</asrwt>
<pdfrwt beam="1">  1       21 0.21535811E-04 0.69948886E+01</pdfrwt>
<pdfrwt beam="2">  1       21 0.72934517E-01 0.69948886E+01</pdfrwt>
<totfact> 0.78499223E+08</totfact>
</mgrwt>
</event>
<event>
 4    1  0.3906087E+006  0.6601494E+01  0.7546771E-02  0.2343148E+00
         21   -1    0    0  501  502  0.00000000000E+00  0.00000000000E+00  0.16254295123E+02  0.16254295123E+02  0.00000000000E+00 0. -1.
         21   -1    0    0  502  503 -0.00000000000E+00 -0.00000000000E+00 -0.28918640701E+01  0.28918640701E+01  0.00000000000E+00 0.  1.
          5    1    1    2  501    0 -0.11714922139E+01  0.44852342147E+01  0.40969320793E+01  0.77694641019E+01  0.47000000000E+01 0.  1.
         -5    1    1    2    0  503  0.11714922139E+01 -0.44852342147E+01  0.92654989738E+01  0.11376695091E+02  0.47000000000E+01 0. -1.
<mgrwt>
<rscale>  2 0.66014938E+01</rscale>
<asrwt>0</asrwt>
<pdfrwt beam="1">  1       21 0.25006607E-02 0.66014938E+01</pdfrwt>
<pdfrwt beam="2">  1       21 0.44490218E-03 0.66014938E+01</pdfrwt>
<totfact> 0.28723704E+09</totfact>
</mgrwt>
</event>
<event>
 4    1  0.3906087E+006  0.8939666E+01  0.7546771E-02  0.2140883E+00
         21   -1    0    0  503  502  0.00000000000E+00  0.00000000000E+00  0.28520156364E+01  0.28520156364E+01  0.00000000000E+00 0.  1.
         21   -1    0    0  501  503 -0.00000000000E+00 -0.00000000000E+00 -0.35039508644E+02  0.35039508644E+02  0.00000000000E+00 0. -1.
          5    1    1    2  501    0 -0.69290606888E+01  0.31330103199E+01 -0.24572682033E+02  0.26148314247E+02  0.47000000000E+01 0. -1.
         -5    1    1    2    0  502  0.69290606888E+01 -0.31330103199E+01 -0.76148109744E+01  0.11743210033E+02  0.47000000000E+01 0.  1.
<mgrwt>
<rscale>  2 0.89396664E+01</rscale>
<asrwt>0</asrwt>
<pdfrwt beam="1">  1       21 0.43877163E-03 0.89396664E+01</pdfrwt>
<pdfrwt beam="2">  1       21 0.53906937E-02 0.89396664E+01</pdfrwt>
<totfact> 0.11608514E+09</totfact>
</mgrwt>
</event>
<event>
 4    1  0.3906087E+006  0.5006437E+01  0.7546771E-02  0.2566013E+00
         21   -1    0    0  503  502  0.00000000000E+00  0.00000000000E+00  0.30242124858E+00  0.30242124858E+00  0.00000000000E+00 0.  1.
         21   -1    0    0  501  503 -0.00000000000E+00 -0.00000000000E+00 -0.18871224091E+03  0.18871224091E+03  0.00000000000E+00 0.  1.
          5    1    1    2  501    0 -0.83285854050E+00  0.15102187586E+01 -0.16497931309E+03  0.16505525791E+03  0.47000000000E+01 0.  1.
         -5    1    1    2    0  502  0.83285854050E+00 -0.15102187586E+01 -0.23430506569E+02  0.23959404252E+02  0.47000000000E+01 0.  1.
<mgrwt>
<rscale>  2 0.50064373E+01</rscale>
<asrwt>0</asrwt>
<pdfrwt beam="1">  1       21 0.46526353E-04 0.50064373E+01</pdfrwt>
<pdfrwt beam="2">  1       21 0.29032648E-01 0.50064373E+01</pdfrwt>
<totfact> 0.11304340E+09</totfact>
</mgrwt>
</event>
<event>
 4    1  0.3906087E+006  0.5285998E+01  0.7546771E-02  0.2518789E+00
         21   -1    0    0  501  502  0.00000000000E+00  0.00000000000E+00  0.56462726020E+02  0.56462726020E+02  0.00000000000E+00 0. -1.
         21   -1    0    0  502  503 -0.00000000000E+00 -0.00000000000E+00 -0.56319269078E+00  0.56319269078E+00  0.00000000000E+00 0. -1.
          5    1    1    2  501    0  0.10136891903E+01 -0.21964077461E+01  0.37880760097E+02  0.38247794162E+02  0.47000000000E+01 0. -1.
         -5    1    1    2    0  503 -0.10136891903E+01  0.21964077461E+01  0.18018773233E+02  0.18778124549E+02  0.47000000000E+01 0. -1.
<mgrwt>
<rscale>  2 0.52859978E+01</rscale>
<asrwt>0</asrwt>
<pdfrwt beam="1">  1       21 0.86865688E-02 0.52859978E+01</pdfrwt>
<pdfrwt beam="2">  1       21 0.86645074E-04 0.52859978E+01</pdfrwt>
<totfact> 0.34626967E+09</totfact>
</mgrwt>
</event>
<event>
 4    1  0.3906087E+006  0.5626741E+01  0.7546771E-02  0.2466693E+00
         21   -1    0    0  501  502  0.00000000000E+00  0.00000000000E+00  0.28976553923E+00  0.28976553923E+00  0.00000000000E+00 0. -1.
         21   -1    0    0  502  503 -0.00000000000E+00 -0.00000000000E+00 -0.12668615163E+03  0.12668615163E+03  0.00000000000E+00 0. -1.
          5    1    1    2  501    0  0.22725647316E+01  0.20989669117E+01 -0.39652631415E+02  0.40049861307E+02  0.47000000000E+01 0. -1.
         -5    1    1    2    0  503 -0.22725647316E+01 -0.20989669117E+01 -0.86743754671E+02  0.86926055858E+02  0.47000000000E+01 0. -1.
<mgrwt>
<rscale>  2 0.56267408E+01</rscale>
<asrwt>0</asrwt>
<pdfrwt beam="1">  1       21 0.44579374E-04 0.56267408E+01</pdfrwt>
<pdfrwt beam="2">  1       21 0.19490151E-01 0.56267408E+01</pdfrwt>
<totfact> 0.25346587E+09</totfact>
</mgrwt>
</event>
<event>
 4    1  0.3906087E+006  0.6902217E+01  0.7546771E-02  0.2310966E+00
         21   -1    0    0  501  502  0.00000000000E+00  0.00000000000E+00  0.48550866904E+01  0.48550866904E+01  0.00000000000E+00 0. -1.
         21   -1    0    0  502  503 -0.00000000000E+00 -0.00000000000E+00 -0.17062305770E+02  0.17062305770E+02  0.00000000000E+00 0.  1.
          5    1    1    2  501    0 -0.41162830677E+01 -0.29337361075E+01  0.10397559369E+01  0.69800921377E+01  0.47000000000E+01 0. -1.
         -5    1    1    2    0  503  0.41162830677E+01  0.29337361075E+01 -0.13246975016E+02  0.14937300323E+02  0.47000000000E+01 0.  1.
<mgrwt>
<rscale>  2 0.69022166E+01</rscale>
<asrwt>0</asrwt>
<pdfrwt beam="1">  1       21 0.74693643E-03 0.69022166E+01</pdfrwt>
<pdfrwt beam="2">  1       21 0.26249701E-02 0.69022166E+01</pdfrwt>
<totfact> 0.13394036E+09</totfact>
</mgrwt>
</event>
<event>
 4    1  0.3906087E+006  0.5637821E+01  0.7546771E-02  0.2465089E+00
         21   -1    0    0  503  502  0.00000000000E+00  0.00000000000E+00  0.17992125784E+01  0.17992125784E+01  0.00000000000E+00 0.  1.
         21   -1    0    0  501  503 -0.00000000000E+00 -0.00000000000E+00 -0.32648889872E+02  0.32648889872E+02  0.00000000000E+00 0.  1.
          5    1    1    2  501    0 -0.30493182271E+01  0.62982451240E+00 -0.27092876681E+02  0.27673254008E+02  0.47000000000E+01 0.  1.
         -5    1    1    2    0  502  0.30493182271E+01 -0.62982451240E+00 -0.37568006126E+01  0.67748484418E+01  0.47000000000E+01 0.  1.
<mgrwt>
<rscale>  2 0.56378206E+01</rscale>
<asrwt>0</asrwt>
<pdfrwt beam="1">  1       21 0.27680196E-03 0.56378206E+01</pdfrwt>
<pdfrwt beam="2">  1       21 0.50229056E-02 0.56378206E+01</pdfrwt>
<totfact> 0.17395749E+09</totfact>
</mgrwt>
</event>
<event>
 4    1  0.3906087E+006  0.4930975E+01  0.7546771E-02  0.2579546E+00
         21   -1    0    0  503  502  0.00000000000E+00  0.00000000000E+00  0.28322023299E+00  0.28322023299E+00  0.00000000000E+00 0. -1.
         21   -1    0    0  501  503 -0.00000000000E+00 -0.00000000000E+00 -0.90744206643E+02  0.90744206643E+02  0.00000000000E+00 0. -1.
          5    1    1    2  501    0 -0.10698358661E+01 -0.10392126856E+01 -0.34660726897E+02  0.35009720091E+02  0.47000000000E+01 0. -1.
         -5    1    1    2    0  502  0.10698358661E+01  0.10392126856E+01 -0.55800259513E+02  0.56017706785E+02  0.47000000000E+01 0. -1.
<mgrwt>
<rscale>  2 0.49309747E+01</rscale>
<asrwt>0</asrwt>
<pdfrwt beam="1">  1       21 0.43572255E-04 0.49309747E+01</pdfrwt>
<pdfrwt beam="2">  1       21 0.13960676E-01 0.49309747E+01</pdfrwt>
<totfact> 0.39037614E+09</totfact>
</mgrwt>
</event>
<event>
 4    1  0.3906087E+006  0.4833490E+01  0.7546771E-02  0.2597568E+00
         21   -1    0    0  503  502  0.00000000000E+00  0.00000000000E+00  0.26068936564E+01  0.26068936564E+01  0.00000000000E+00 0. -1.
         21   -1    0    0  501  503 -0.00000000000E+00 -0.00000000000E+00 -0.95541838501E+01  0.95541838501E+01  0.00000000000E+00 0. -1.
          5    1    1    2  501    0 -0.95739960004E+00  0.59666545352E+00 -0.49876378434E+01  0.69454413045E+01  0.47000000000E+01 0.  1.
         -5    1    1    2    0  502  0.95739960004E+00 -0.59666545352E+00 -0.19596523502E+01  0.52156362020E+01  0.47000000000E+01 0.  1.
<mgrwt>
<rscale>  2 0.48334898E+01</rscale>
<asrwt>0</asrwt>
<pdfrwt beam="1">  1       21 0.40106056E-03 0.48334898E+01</pdfrwt>
<pdfrwt beam="2">  1       21 0.14698744E-02 0.48334898E+01</pdfrwt>
<totfact> 0.52632716E+09</totfact>
</mgrwt>
</event>
<event>
 4    1  0.3906087E+006  0.5755043E+01  0.7546771E-02  0.2448439E+00
         21   -1    0    0  501  502  0.00000000000E+00  0.00000000000E+00  0.20304848416E+03  0.20304848416E+03  0.00000000000E+00 0.  1.
         21   -1    0    0  502  503 -0.00000000000E+00 -0.00000000000E+00 -0.52762419624E+00  0.52762419624E+00  0.00000000000E+00 0. -1.
          5    1    1    2  501    0  0.32932002602E+01 -0.43053155979E+00  0.18586384771E+03  0.18595292526E+03  0.47000000000E+01 0.  1.
         -5    1    1    2    0  503 -0.32932002602E+01  0.43053155979E+00  0.16657012246E+02  0.17623183094E+02  0.47000000000E+01 0. -1.
<mgrwt>
<rscale>  2 0.57550435E+01</rscale>
<asrwt>0</asrwt>
<pdfrwt beam="1">  1       21 0.31238166E-01 0.57550435E+01</pdfrwt>
<pdfrwt beam="2">  1       21 0.81173115E-04 0.57550435E+01</pdfrwt>
<totfact> 0.53449793E+08</totfact>
</mgrwt>
</event>
<event>
 4    1  0.3906087E+006  0.4816986E+01  0.7546771E-02  0.2600681E+00
         21   -1    0    0  503  502  0.00000000000E+00  0.00000000000E+00  0.14623530725E+00  0.14623530725E+00  0.00000000000E+00 0.  1.
         21   -1    0    0  501  503 -0.00000000000E+00 -0.00000000000E+00 -0.15991632884E+03  0.15991632884E+03  0.00000000000E+00 0.  1.
          5    1    1    2  501    0  0.10540400152E+01  0.48515687454E-01 -0.86946494517E+02  0.87079826957E+02  0.47000000000E+01 0. -1.
         -5    1    1    2    0  502 -0.10540400152E+01 -0.48515687454E-01 -0.72823599021E+02  0.72982737195E+02  0.47000000000E+01 0. -1.
<mgrwt>
<rscale>  2 0.48169860E+01</rscale>
<asrwt>0</asrwt>
<pdfrwt beam="1">  1       21 0.22497769E-04 0.48169860E+01</pdfrwt>
<pdfrwt beam="2">  1       21 0.24602480E-01 0.48169860E+01</pdfrwt>
<totfact> 0.37391521E+09</totfact>
</mgrwt>
</event>
<event>
 4    1  0.3906087E+006  0.5799607E+01  0.7546771E-02  0.2442258E+00
         21   -1    0    0  501  502  0.00000000000E+00  0.00000000000E+00  0.39255935356E-01  0.39255935356E-01  0.00000000000E+00 0.  1.
         21   -1    0    0  502  503 -0.00000000000E+00 -0.00000000000E+00 -0.85949345556E+03  0.85949345556E+03  0.00000000000E+00 0.  1.
          5    1    1    2  501    0 -0.12522703539E+01  0.31586806164E+01 -0.40577807551E+03  0.40581951901E+03  0.47000000000E+01 0.  1.
         -5    1    1    2    0  503  0.12522703539E+01 -0.31586806164E+01 -0.45367612412E+03  0.45371319249E+03  0.47000000000E+01 0.  1.
<mgrwt>
<rscale>  2 0.57996073E+01</rscale>
<asrwt>0</asrwt>
<pdfrwt beam="1">  1       21 0.60393819E-05 0.57996073E+01</pdfrwt>
<pdfrwt beam="2">  1       21 0.13222961E+00 0.57996073E+01</pdfrwt>
<totfact> 0.11399289E+09</totfact>
</mgrwt>
</event>
<event>
 4    1  0.3906087E+006  0.5144383E+01  0.7546771E-02  0.2542161E+00
         21   -1    0    0  501  502  0.00000000000E+00  0.00000000000E+00  0.22260207871E+01  0.22260207871E+01  0.00000000000E+00 0.  1.
         21   -1    0    0  502  503 -0.00000000000E+00 -0.00000000000E+00 -0.13508399382E+02  0.13508399382E+02  0.00000000000E+00 0.  1.
          5    1    1    2  501    0 -0.15898932852E+01  0.13590142547E+01 -0.83652999384E+01  0.98205358032E+01  0.47000000000E+01 0. -1.
         -5    1    1    2    0  503  0.15898932852E+01 -0.13590142547E+01 -0.29170786562E+01  0.59138843655E+01  0.47000000000E+01 0. -1.
<mgrwt>
<rscale>  2 0.51443834E+01</rscale>
<asrwt>0</asrwt>
<pdfrwt beam="1">  1       21 0.34246474E-03 0.51443834E+01</pdfrwt>
<pdfrwt beam="2">  1       21 0.20782153E-02 0.51443834E+01</pdfrwt>
<totfact> 0.42758428E+09</totfact>
</mgrwt>
</event>
<event>
 4    1  0.3906087E+006  0.1497038E+02  0.7546771E-02  0.1868974E+00
         21   -1    0    0  501  502  0.00000000000E+00  0.00000000000E+00  0.35452459221E+00  0.35452459221E+00  0.00000000000E+00 0.  1.
         21   -1    0    0  502  503 -0.00000000000E+00 -0.00000000000E+00 -0.18802106455E+04  0.18802106455E+04  0.00000000000E+00 0. -1.
          5    1    1    2  501    0  0.99181012300E+00  0.14178810436E+02 -0.17384975415E+03  0.17449312127E+03  0.47000000000E+01 0.  1.
         -5    1    1    2    0  503 -0.99181012300E+00 -0.14178810436E+02 -0.17060063668E+04  0.17060720489E+04  0.47000000000E+01 0. -1.
<mgrwt>
<rscale>  2 0.14970383E+02</rscale>
<asrwt>0</asrwt>
<pdfrwt beam="1">  1       21 0.54542286E-04 0.14970383E+02</pdfrwt>
<pdfrwt beam="2">  1       21 0.28926296E+00 0.14970383E+02</pdfrwt>
<totfact> 0.12528697E+07</totfact>
</mgrwt>
</event>
<event>
 4    1  0.3906087E+006  0.9720879E+01  0.7546771E-02  0.2091230E+00
         21   -1    0    0  503  502  0.00000000000E+00  0.00000000000E+00  0.84821885388E+00  0.84821885388E+00  0.00000000000E+00 0. -1.
         21   -1    0    0  501  503 -0.00000000000E+00 -0.00000000000E+00 -0.51789867484E+03  0.51789867484E+03  0.00000000000E+00 0.  1.
          5    1    1    2  501    0 -0.83884099988E+01  0.14283086561E+01 -0.48831474893E+03  0.48841149609E+03  0.47000000000E+01 0.  1.
         -5    1    1    2    0  502  0.83884099988E+01 -0.14283086561E+01 -0.28735707058E+02  0.30335397608E+02  0.47000000000E+01 0. -1.
<mgrwt>
<rscale>  2 0.97208790E+01</rscale>
<asrwt>0</asrwt>
<pdfrwt beam="1">  1       21 0.13049496E-03 0.97208790E+01</pdfrwt>
<pdfrwt beam="2">  1       21 0.79676868E-01 0.97208790E+01</pdfrwt>
<totfact> 0.67459459E+07</totfact>
</mgrwt>
</event>
<event>
 4    1  0.3906087E+006  0.1229964E+02  0.7546771E-02  0.1963739E+00
         21   -1    0    0  501  502  0.00000000000E+00  0.00000000000E+00  0.14600595467E+04  0.14600595467E+04  0.00000000000E+00 0.  1.
         21   -1    0    0  502  503 -0.00000000000E+00 -0.00000000000E+00 -0.18747549853E+00  0.18747549853E+00  0.00000000000E+00 0. -1.
          5    1    1    2  501    0  0.91305852607E+01  0.67693129497E+01  0.12182598578E+04  0.12183219453E+04  0.47000000000E+01 0.  1.
         -5    1    1    2    0  503 -0.91305852607E+01 -0.67693129497E+01  0.24161221340E+03  0.24192507693E+03  0.47000000000E+01 0. -1.
<mgrwt>
<rscale>  2 0.12299642E+02</rscale>
<asrwt>0</asrwt>
<pdfrwt beam="1">  1       21 0.22461544E+00 0.12299642E+02</pdfrwt>
<pdfrwt beam="2">  1       21 0.28843554E-04 0.12299642E+02</pdfrwt>
<totfact> 0.58226966E+07</totfact>
</mgrwt>
</event>
<event>
 4    1  0.3906087E+006  0.4977171E+01  0.7546771E-02  0.2571220E+00
         21   -1    0    0  501  502  0.00000000000E+00  0.00000000000E+00  0.25309631722E+01  0.25309631722E+01  0.00000000000E+00 0. -1.
         21   -1    0    0  502  503 -0.00000000000E+00 -0.00000000000E+00 -0.26337566954E+02  0.26337566954E+02  0.00000000000E+00 0. -1.
          5    1    1    2  501    0 -0.14698435200E+01 -0.72234932462E+00 -0.46123409924E+00  0.49984963153E+01  0.47000000000E+01 0. -1.
         -5    1    1    2    0  503  0.14698435200E+01  0.72234932462E+00 -0.23345369683E+02  0.23870033811E+02  0.47000000000E+01 0. -1.
<mgrwt>
<rscale>  2 0.49771707E+01</rscale>
<asrwt>0</asrwt>
<pdfrwt beam="1">  1       21 0.38937896E-03 0.49771707E+01</pdfrwt>
<pdfrwt beam="2">  1       21 0.40519333E-02 0.49771707E+01</pdfrwt>
<totfact> 0.13316805E+09</totfact>
</mgrwt>
</event>
<event>
 4    1  0.3906087E+006  0.5932228E+01  0.7546771E-02  0.2424328E+00
         21   -1    0    0  503  502  0.00000000000E+00  0.00000000000E+00  0.17574372296E+03  0.17574372296E+03  0.00000000000E+00 0.  1.
         21   -1    0    0  501  503 -0.00000000000E+00 -0.00000000000E+00 -0.31383395704E+00  0.31383395704E+00  0.00000000000E+00 0. -1.
          5    1    1    2  501    0 -0.31483101865E+01  0.17859102515E+01  0.34754957441E+02  0.35257600587E+02  0.47000000000E+01 0. -1.
         -5    1    1    2    0  502  0.31483101865E+01 -0.17859102515E+01  0.14067493156E+03  0.14079995633E+03  0.47000000000E+01 0.  1.
<mgrwt>
<rscale>  2 0.59322283E+01</rscale>
<asrwt>0</asrwt>
<pdfrwt beam="1">  1       21 0.27037417E-01 0.59322283E+01</pdfrwt>
<pdfrwt beam="2">  1       21 0.48282288E-04 0.59322283E+01</pdfrwt>
<totfact> 0.13949812E+09</totfact>
</mgrwt>
</event>
<event>
 4    1  0.3906087E+006  0.5433426E+01  0.7546771E-02  0.2495567E+00
         21   -1    0    0  503  502  0.00000000000E+00  0.00000000000E+00  0.70859936912E+00  0.70859936912E+00  0.00000000000E+00 0.  1.
         21   -1    0    0  501  503 -0.00000000000E+00 -0.00000000000E+00 -0.45954716012E+02  0.45954716012E+02  0.00000000000E+00 0.  1.
          5    1    1    2  501    0 -0.29619418214E+00 -0.27100537721E+01 -0.29753461888E+02  0.30245505729E+02  0.47000000000E+01 0.  1.
         -5    1    1    2    0  502  0.29619418214E+00  0.27100537721E+01 -0.15492654754E+02  0.16417809652E+02  0.47000000000E+01 0.  1.
<mgrwt>
<rscale>  2 0.54334264E+01</rscale>
<asrwt>0</asrwt>
<pdfrwt beam="1">  1       21 0.10901532E-03 0.54334264E+01</pdfrwt>
<pdfrwt beam="2">  1       21 0.70699545E-02 0.54334264E+01</pdfrwt>
<totfact> 0.35654396E+09</totfact>
</mgrwt>
</event>
<event>
 4    1  0.3906087E+006  0.5250372E+01  0.7546771E-02  0.2524567E+00
         21   -1    0    0  503  502  0.00000000000E+00  0.00000000000E+00  0.52494022996E+01  0.52494022996E+01  0.00000000000E+00 0.  1.
         21   -1    0    0  501  503 -0.00000000000E+00 -0.00000000000E+00 -0.52967036427E+01  0.52967036427E+01  0.00000000000E+00 0.  1.
          5    1    1    2  501    0  0.14564137924E+01  0.18317368591E+01  0.46433705101E+00  0.52708642510E+01  0.47000000000E+01 0.  1.
         -5    1    1    2    0  502 -0.14564137924E+01 -0.18317368591E+01 -0.51163839407E+00  0.52752416913E+01  0.47000000000E+01 0.  1.
<mgrwt>
<rscale>  2 0.52503715E+01</rscale>
<asrwt>0</asrwt>
<pdfrwt beam="1">  1       21 0.80760035E-03 0.52503715E+01</pdfrwt>
<pdfrwt beam="2">  1       21 0.81487748E-03 0.52503715E+01</pdfrwt>
<totfact> 0.49971364E+09</totfact>
</mgrwt>
</event>
<event>
 4    1  0.3906087E+006  0.5451517E+01  0.7546771E-02  0.2492791E+00
         21   -1    0    0  503  502  0.00000000000E+00  0.00000000000E+00  0.87482247354E+01  0.87482247354E+01  0.00000000000E+00 0.  1.
         21   -1    0    0  501  503 -0.00000000000E+00 -0.00000000000E+00 -0.64568295488E+01  0.64568295488E+01  0.00000000000E+00 0. -1.
          5    1    1    2  501    0  0.27418365110E+01 -0.33371650907E+00 -0.40877306031E+01  0.68138517481E+01  0.47000000000E+01 0. -1.
         -5    1    1    2    0  502 -0.27418365110E+01  0.33371650907E+00  0.63791257897E+01  0.83912025361E+01  0.47000000000E+01 0.  1.
<mgrwt>
<rscale>  2 0.54515167E+01</rscale>
<asrwt>0</asrwt>
<pdfrwt beam="1">  1       21 0.13458807E-02 0.54515167E+01</pdfrwt>
<pdfrwt beam="2">  1       21 0.99335838E-03 0.54515167E+01</pdfrwt>
<totfact> 0.19215900E+09</totfact>
</mgrwt>
</event>
<event>
 4    1  0.3906087E+006  0.6478594E+01  0.7546771E-02  0.2357006E+00
         21   -1    0    0  503  502  0.00000000000E+00  0.00000000000E+00  0.31579066465E+02  0.31579066465E+02  0.00000000000E+00 0.  1.
         21   -1    0    0  501  503 -0.00000000000E+00 -0.00000000000E+00 -0.35318224302E+01  0.35318224302E+01  0.00000000000E+00 0. -1.
          5    1    1    2  501    0  0.14551147962E+01  0.42148329705E+01  0.15954647866E+00  0.64805579327E+01  0.47000000000E+01 0. -1.
         -5    1    1    2    0  502 -0.14551147962E+01 -0.42148329705E+01  0.27887697556E+02  0.28630330962E+02  0.47000000000E+01 0.  1.
<mgrwt>
<rscale>  2 0.64785937E+01</rscale>
<asrwt>0</asrwt>
<pdfrwt beam="1">  1       21 0.48583177E-02 0.64785937E+01</pdfrwt>
<pdfrwt beam="2">  1       21 0.54335732E-03 0.64785937E+01</pdfrwt>
<totfact> 0.80615565E+08</totfact>
</mgrwt>
</event>
<event>
 4    1  0.3906087E+006  0.7732074E+01  0.7546771E-02  0.2232961E+00
         21   -1    0    0  501  502  0.00000000000E+00  0.00000000000E+00  0.26546980256E+01  0.26546980256E+01  0.00000000000E+00 0.  1.
         21   -1    0    0  502  503 -0.00000000000E+00 -0.00000000000E+00 -0.62060338209E+02  0.62060338209E+02  0.00000000000E+00 0. -1.
          5    1    1    2  501    0  0.57865975420E+01  0.20518898355E+01 -0.38751091653E+01  0.86487822295E+01  0.47000000000E+01 0.  1.
         -5    1    1    2    0  503 -0.57865975420E+01 -0.20518898355E+01 -0.55530531018E+02  0.56066254005E+02  0.47000000000E+01 0. -1.
<mgrwt>
<rscale>  2 0.77320737E+01</rscale>
<asrwt>0</asrwt>
<pdfrwt beam="1">  1       21 0.40841506E-03 0.77320737E+01</pdfrwt>
<pdfrwt beam="2">  1       21 0.95477448E-02 0.77320737E+01</pdfrwt>
<totfact> 0.48584130E+08</totfact>
</mgrwt>
</event>
<event>
 4    1  0.3906087E+006  0.5528786E+01  0.7546771E-02  0.2481110E+00
         21   -1    0    0  503  502  0.00000000000E+00  0.00000000000E+00  0.80892184158E+00  0.80892184158E+00  0.00000000000E+00 0. -1.
         21   -1    0    0  501  503 -0.00000000000E+00 -0.00000000000E+00 -0.59652034063E+02  0.59652034063E+02  0.00000000000E+00 0. -1.
          5    1    1    2  501    0  0.66992616572E+00  0.28334918371E+01 -0.47723545008E+02  0.48042733324E+02  0.47000000000E+01 0. -1.
         -5    1    1    2    0  502 -0.66992616572E+00 -0.28334918371E+01 -0.11119567213E+02  0.12418222580E+02  0.47000000000E+01 0. -1.
<mgrwt>
<rscale>  2 0.55287862E+01</rscale>
<asrwt>0</asrwt>
<pdfrwt beam="1">  1       21 0.12444950E-03 0.55287862E+01</pdfrwt>
<pdfrwt beam="2">  1       21 0.91772370E-02 0.55287862E+01</pdfrwt>
<totfact> 0.20478593E+09</totfact>
</mgrwt>
</event>
<event>
 4    1  0.3906087E+006  0.5751892E+01  0.7546771E-02  0.2448879E+00
         21   -1    0    0  501  502  0.00000000000E+00  0.00000000000E+00  0.90205038484E+00  0.90205038484E+00  0.00000000000E+00 0. -1.
         21   -1    0    0  502  503 -0.00000000000E+00 -0.00000000000E+00 -0.88308660540E+02  0.88308660540E+02  0.00000000000E+00 0.  1.
          5    1    1    2  501    0  0.28853127139E+01  0.16337794900E+01 -0.95962276076E+01  0.11188022577E+02  0.47000000000E+01 0. -1.
         -5    1    1    2    0  503 -0.28853127139E+01 -0.16337794900E+01 -0.77810382548E+02  0.78022688348E+02  0.47000000000E+01 0.  1.
<mgrwt>
<rscale>  2 0.57518923E+01</rscale>
<asrwt>0</asrwt>
<pdfrwt beam="1">  1       21 0.13877695E-03 0.57518923E+01</pdfrwt>
<pdfrwt beam="2">  1       21 0.13585951E-01 0.57518923E+01</pdfrwt>
<totfact> 0.10000207E+09</totfact>
</mgrwt>
</event>
<event>
 4    1  0.3906087E+006  0.6166127E+01  0.7546771E-02  0.2394291E+00
         21   -1    0    0  501  502  0.00000000000E+00  0.00000000000E+00  0.21169767244E+02  0.21169767244E+02  0.00000000000E+00 0. -1.
         21   -1    0    0  502  503 -0.00000000000E+00 -0.00000000000E+00 -0.40174750400E+01  0.40174750400E+01  0.00000000000E+00 0. -1.
          5    1    1    2  501    0 -0.15552580657E+01  0.36759070830E+01  0.17940843323E+02  0.18970898230E+02  0.47000000000E+01 0. -1.
         -5    1    1    2    0  503  0.15552580657E+01 -0.36759070830E+01 -0.78855111818E+00  0.62163440542E+01  0.47000000000E+01 0. -1.
<mgrwt>
<rscale>  2 0.61661269E+01</rscale>
<asrwt>0</asrwt>
<pdfrwt beam="1">  1       21 0.32568872E-02 0.61661269E+01</pdfrwt>
<pdfrwt beam="2">  1       21 0.61807309E-03 0.61661269E+01</pdfrwt>
<totfact> 0.11675688E+09</totfact>
</mgrwt>
</event>
<event>
 4    1  0.3906087E+006  0.1001076E+02  0.7546771E-02  0.2074376E+00
         21   -1    0    0  501  502  0.00000000000E+00  0.00000000000E+00  0.81773673198E+00  0.81773673198E+00  0.00000000000E+00 0. -1.
         21   -1    0    0  502  503 -0.00000000000E+00 -0.00000000000E+00 -0.12467347156E+03  0.12467347156E+03  0.00000000000E+00 0. -1.
          5    1    1    2  501    0 -0.37770404948E+00 -0.88307765418E+01 -0.70112789468E+02  0.70823855597E+02  0.47000000000E+01 0. -1.
         -5    1    1    2    0  503  0.37770404948E+00  0.88307765418E+01 -0.53742945362E+02  0.54667352697E+02  0.47000000000E+01 0. -1.
<mgrwt>
<rscale>  2 0.10010758E+02</rscale>
<asrwt>0</asrwt>
<pdfrwt beam="1">  1       21 0.12580567E-03 0.10010758E+02</pdfrwt>
<pdfrwt beam="2">  1       21 0.19180530E-01 0.10010758E+02</pdfrwt>
<totfact> 0.94966452E+08</totfact>
</mgrwt>
</event>
<event>
 4    1  0.3906087E+006  0.5840668E+01  0.7546771E-02  0.2436634E+00
         21   -1    0    0  503  502  0.00000000000E+00  0.00000000000E+00  0.34150635869E+02  0.34150635869E+02  0.00000000000E+00 0. -1.
         21   -1    0    0  501  503 -0.00000000000E+00 -0.00000000000E+00 -0.11131347034E+01  0.11131347034E+01  0.00000000000E+00 0. -1.
          5    1    1    2  501    0 -0.69348258249E-01  0.34667845180E+01  0.22166889020E+02  0.22923445921E+02  0.47000000000E+01 0. -1.
         -5    1    1    2    0  502  0.69348258249E-01 -0.34667845180E+01  0.10870612146E+02  0.12340324651E+02  0.47000000000E+01 0. -1.
<mgrwt>
<rscale>  2 0.58406681E+01</rscale>
<asrwt>0</asrwt>
<pdfrwt beam="1">  1       21 0.52539432E-02 0.58406681E+01</pdfrwt>
<pdfrwt beam="2">  1       21 0.17125152E-03 0.58406681E+01</pdfrwt>
<totfact> 0.32258910E+09</totfact>
</mgrwt>
</event>
<event>
 4    1  0.3906087E+006  0.1230248E+02  0.7546771E-02  0.1963622E+00
         21   -1    0    0  501  502  0.00000000000E+00  0.00000000000E+00  0.89829975464E+02  0.89829975464E+02  0.00000000000E+00 0.  1.
         21   -1    0    0  502  503 -0.00000000000E+00 -0.00000000000E+00 -0.17099999451E+01  0.17099999451E+01  0.00000000000E+00 0. -1.
          5    1    1    2  501    0 -0.10845741563E+02  0.34104030418E+01  0.38510379067E+02  0.40427716419E+02  0.47000000000E+01 0.  1.
         -5    1    1    2    0  503  0.10845741563E+02 -0.34104030418E+01  0.49609596452E+02  0.51112258990E+02  0.47000000000E+01 0. -1.
<mgrwt>
<rscale>  2 0.12302478E+02</rscale>
<asrwt>0</asrwt>
<pdfrwt beam="1">  1       21 0.13819993E-01 0.12302478E+02</pdfrwt>
<pdfrwt beam="2">  1       21 0.26307698E-03 0.12302478E+02</pdfrwt>
<totfact> 0.64548298E+08</totfact>
</mgrwt>
</event>
<event>
 4    1  0.3906087E+006  0.5055883E+01  0.7546771E-02  0.2557335E+00
         21   -1    0    0  503  502  0.00000000000E+00  0.00000000000E+00  0.14986841769E+03  0.14986841769E+03  0.00000000000E+00 0. -1.
         21   -1    0    0  501  503 -0.00000000000E+00 -0.00000000000E+00 -0.26802010870E+00  0.26802010870E+00  0.00000000000E+00 0. -1.
          5    1    1    2  501    0 -0.13503724933E+01 -0.12839200751E+01  0.29533384512E+02  0.29963023168E+02  0.47000000000E+01 0. -1.
         -5    1    1    2    0  502  0.13503724933E+01  0.12839200751E+01  0.12006701307E+03  0.12017341463E+03  0.47000000000E+01 0. -1.
<mgrwt>
<rscale>  2 0.50558834E+01</rscale>
<asrwt>0</asrwt>
<pdfrwt beam="1">  1       21 0.23056613E-01 0.50558834E+01</pdfrwt>
<pdfrwt beam="2">  1       21 0.41233983E-04 0.50558834E+01</pdfrwt>
<totfact> 0.19499752E+09</totfact>
</mgrwt>
</event>
<event>
 4    1  0.3906087E+006  0.8479091E+01  0.7546771E-02  0.2173516E+00
         21   -1    0    0  503  502  0.00000000000E+00  0.00000000000E+00  0.13969746723E+03  0.13969746723E+03  0.00000000000E+00 0.  1.
         21   -1    0    0  501  503 -0.00000000000E+00 -0.00000000000E+00 -0.71807394041E+00  0.71807394041E+00  0.00000000000E+00 0. -1.
          5    1    1    2  501    0 -0.57491639647E+01  0.40929329172E+01  0.32121336462E+02  0.33221608062E+02  0.47000000000E+01 0. -1.
         -5    1    1    2    0  502  0.57491639647E+01 -0.40929329172E+01  0.10685805683E+03  0.10719393311E+03  0.47000000000E+01 0.  1.
<mgrwt>
<rscale>  2 0.84790911E+01</rscale>
<asrwt>0</asrwt>
<pdfrwt beam="1">  1       21 0.21491896E-01 0.84790911E+01</pdfrwt>
<pdfrwt beam="2">  1       21 0.11047302E-03 0.84790911E+01</pdfrwt>
<totfact> 0.85391034E+08</totfact>
</mgrwt>
</event>
<event>
 4    1  0.3906087E+006  0.5490359E+01  0.7546771E-02  0.2486884E+00
         21   -1    0    0  501  502  0.00000000000E+00  0.00000000000E+00  0.11020086200E+00  0.11020086200E+00  0.00000000000E+00 0.  1.
         21   -1    0    0  502  503 -0.00000000000E+00 -0.00000000000E+00 -0.28733019992E+03  0.28733019992E+03  0.00000000000E+00 0.  1.
          5    1    1    2  501    0  0.13641887192E+01 -0.24885793018E+01 -0.11212119479E+03  0.11225554044E+03  0.47000000000E+01 0.  1.
         -5    1    1    2    0  503 -0.13641887192E+01  0.24885793018E+01 -0.17509880426E+03  0.17518486034E+03  0.47000000000E+01 0.  1.
<mgrwt>
<rscale>  2 0.54903586E+01</rscale>
<asrwt>0</asrwt>
<pdfrwt beam="1">  1       21 0.16953876E-04 0.54903586E+01</pdfrwt>
<pdfrwt beam="2">  1       21 0.44204914E-01 0.54903586E+01</pdfrwt>
<totfact> 0.22826948E+09</totfact>
</mgrwt>
</event>
<event>
 4    1  0.3906087E+006  0.5317415E+01  0.7546771E-02  0.2513748E+00
         21   -1    0    0  503  502  0.00000000000E+00  0.00000000000E+00  0.15451536694E+03  0.15451536694E+03  0.00000000000E+00 0. -1.
         21   -1    0    0  501  503 -0.00000000000E+00 -0.00000000000E+00 -0.75479872232E+00  0.75479872232E+00  0.00000000000E+00 0.  1.
          5    1    1    2  501    0 -0.11391175551E+00  0.24843352926E+01  0.93081696401E+01  0.10719930960E+02  0.47000000000E+01 0.  1.
         -5    1    1    2    0  502  0.11391175551E+00 -0.24843352926E+01  0.14445239857E+03  0.14455023470E+03  0.47000000000E+01 0. -1.
<mgrwt>
<rscale>  2 0.53174146E+01</rscale>
<asrwt>0</asrwt>
<pdfrwt beam="1">  1       21 0.23771570E-01 0.53174146E+01</pdfrwt>
<pdfrwt beam="2">  1       21 0.11612300E-03 0.53174146E+01</pdfrwt>
<totfact> 0.48966938E+08</totfact>
</mgrwt>
</event>
<event>
 4    1  0.3906087E+006  0.5611856E+01  0.7546771E-02  0.2468856E+00
         21   -1    0    0  503  502  0.00000000000E+00  0.00000000000E+00  0.11981972428E+00  0.11981972428E+00  0.00000000000E+00 0.  1.
         21   -1    0    0  501  503 -0.00000000000E+00 -0.00000000000E+00 -0.32915812465E+03  0.32915812465E+03  0.00000000000E+00 0.  1.
          5    1    1    2  501    0  0.29891998208E+01 -0.68382398932E+00 -0.23842175662E+03  0.23848779205E+03  0.47000000000E+01 0.  1.
         -5    1    1    2    0  502 -0.29891998208E+01  0.68382398932E+00 -0.90616548309E+02  0.90790152320E+02  0.47000000000E+01 0.  1.
<mgrwt>
<rscale>  2 0.56118563E+01</rscale>
<asrwt>0</asrwt>
<pdfrwt beam="1">  1       21 0.18434035E-04 0.56118563E+01</pdfrwt>
<pdfrwt beam="2">  1       21 0.50639076E-01 0.56118563E+01</pdfrwt>
<totfact> 0.16330640E+09</totfact>
</mgrwt>
</event>
<event>
 4    1  0.3906087E+006  0.6978129E+01  0.7546771E-02  0.2303204E+00
         21   -1    0    0  503  502  0.00000000000E+00  0.00000000000E+00  0.32932027661E+02  0.32932027661E+02  0.00000000000E+00 0.  1.
         21   -1    0    0  501  503 -0.00000000000E+00 -0.00000000000E+00 -0.16505822814E+01  0.16505822814E+01  0.00000000000E+00 0. -1.
          5    1    1    2  501    0  0.32753687329E+01 -0.39845009219E+01  0.21221735300E+02  0.22339568865E+02  0.47000000000E+01 0.  1.
         -5    1    1    2    0  502 -0.32753687329E+01  0.39845009219E+01  0.10059710079E+02  0.12243041077E+02  0.47000000000E+01 0. -1.
<mgrwt>
<rscale>  2 0.69781293E+01</rscale>
<asrwt>0</asrwt>
<pdfrwt beam="1">  1       21 0.50664653E-02 0.69781293E+01</pdfrwt>
<pdfrwt beam="2">  1       21 0.25393576E-03 0.69781293E+01</pdfrwt>
<totfact> 0.23041274E+09</totfact>
</mgrwt>
</event>
<event>
 4    1  0.3906087E+006  0.4901311E+01  0.7546771E-02  0.2584964E+00
         21   -1    0    0  501  502  0.00000000000E+00  0.00000000000E+00  0.48210159690E+01  0.48210159690E+01  0.00000000000E+00 0.  1.
         21   -1    0    0  502  503 -0.00000000000E+00 -0.00000000000E+00 -0.71693141962E+01  0.71693141962E+01  0.00000000000E+00 0.  1.
          5    1    1    2  501    0 -0.13122680826E+01 -0.45913288566E+00  0.21365844476E+01  0.53467601058E+01  0.47000000000E+01 0.  1.
         -5    1    1    2    0  503  0.13122680826E+01  0.45913288566E+00 -0.44848826748E+01  0.66435700594E+01  0.47000000000E+01 0.  1.
<mgrwt>
<rscale>  2 0.49013111E+01</rscale>
<asrwt>0</asrwt>
<pdfrwt beam="1">  1       21 0.74169477E-03 0.49013111E+01</pdfrwt>
<pdfrwt beam="2">  1       21 0.11029714E-02 0.49013111E+01</pdfrwt>
<totfact> 0.34318763E+09</totfact>
</mgrwt>
</event>
<event>
 4    1  0.3906087E+006  0.5332804E+01  0.7546771E-02  0.2511298E+00
         21   -1    0    0  501  502  0.00000000000E+00  0.00000000000E+00  0.31228033914E+00  0.31228033914E+00  0.00000000000E+00 0.  1.
         21   -1    0    0  502  503 -0.00000000000E+00 -0.00000000000E+00 -0.93946488031E+02  0.93946488031E+02  0.00000000000E+00 0. -1.
          5    1    1    2  501    0 -0.18265301270E+00  0.25130538293E+01 -0.55066463475E+02  0.55324083375E+02  0.47000000000E+01 0. -1.
         -5    1    1    2    0  503  0.18265301270E+00 -0.25130538293E+01 -0.38567744217E+02  0.38934684995E+02  0.47000000000E+01 0.  1.
<mgrwt>
<rscale>  2 0.53328043E+01</rscale>
<asrwt>0</asrwt>
<pdfrwt beam="1">  1       21 0.48043072E-04 0.53328043E+01</pdfrwt>
<pdfrwt beam="2">  1       21 0.14453323E-01 0.53328043E+01</pdfrwt>
<totfact> 0.35071184E+09</totfact>
</mgrwt>
</event>
<event>
 4    1  0.3906087E+006  0.7047100E+01  0.7546771E-02  0.2296271E+00
         21   -1    0    0  501  502  0.00000000000E+00  0.00000000000E+00  0.75175527843E+00  0.75175527843E+00  0.00000000000E+00 0.  1.
         21   -1    0    0  502  503 -0.00000000000E+00 -0.00000000000E+00 -0.79248568174E+02  0.79248568174E+02  0.00000000000E+00 0. -1.
          5    1    1    2  501    0 -0.42415306912E+01 -0.30953256900E+01 -0.22931035604E+02  0.23989456384E+02  0.47000000000E+01 0.  1.
         -5    1    1    2    0  503  0.42415306912E+01  0.30953256900E+01 -0.55565777292E+02  0.56010867069E+02  0.47000000000E+01 0. -1.
<mgrwt>
<rscale>  2 0.70471004E+01</rscale>
<asrwt>0</asrwt>
<pdfrwt beam="1">  1       21 0.11565469E-03 0.70471004E+01</pdfrwt>
<pdfrwt beam="2">  1       21 0.12192084E-01 0.70471004E+01</pdfrwt>
<totfact> 0.17732379E+09</totfact>
</mgrwt>
</event>
<event>
 4    1  0.3906087E+006  0.4941416E+01  0.7546771E-02  0.2577653E+00
         21   -1    0    0  501  502  0.00000000000E+00  0.00000000000E+00  0.42571375575E+03  0.42571375575E+03  0.00000000000E+00 0. -1.
         21   -1    0    0  502  503 -0.00000000000E+00 -0.00000000000E+00 -0.75744849141E-01  0.75744849141E-01  0.00000000000E+00 0. -1.
          5    1    1    2  501    0  0.21147863256E+00 -0.15109165372E+01  0.31771426462E+03  0.31775268927E+03  0.47000000000E+01 0.  1.
         -5    1    1    2    0  503 -0.21147863256E+00  0.15109165372E+01  0.10792374628E+03  0.10803681134E+03  0.47000000000E+01 0.  1.
<mgrwt>
<rscale>  2 0.49414160E+01</rscale>
<asrwt>0</asrwt>
<pdfrwt beam="1">  1       21 0.65492508E-01 0.49414160E+01</pdfrwt>
<pdfrwt beam="2">  1       21 0.11653395E-04 0.49414160E+01</pdfrwt>
<totfact> 0.16908505E+09</totfact>
</mgrwt>
</event>
<event>
 4    1  0.3906087E+006  0.7983506E+01  0.7546771E-02  0.2211955E+00
         21   -1    0    0  503  502  0.00000000000E+00  0.00000000000E+00  0.18293707692E+01  0.18293707692E+01  0.00000000000E+00 0.  1.
         21   -1    0    0  501  503 -0.00000000000E+00 -0.00000000000E+00 -0.24695072977E+03  0.24695072977E+03  0.00000000000E+00 0. -1.
          5    1    1    2  501    0  0.35851894328E+01 -0.53658915910E+01 -0.23784259682E+03  0.23797654767E+03  0.47000000000E+01 0. -1.
         -5    1    1    2    0  502 -0.35851894328E+01  0.53658915910E+01 -0.72787621790E+01  0.10803552874E+02  0.47000000000E+01 0.  1.
<mgrwt>
<rscale>  2 0.79835065E+01</rscale>
<asrwt>0</asrwt>
<pdfrwt beam="1">  1       21 0.28144168E-03 0.79835065E+01</pdfrwt>
<pdfrwt beam="2">  1       21 0.37992417E-01 0.79835065E+01</pdfrwt>
<totfact> 0.85514868E+07</totfact>
</mgrwt>
</event>
<event>
 4    1  0.3906087E+006  0.6456570E+01  0.7546771E-02  0.2359536E+00
         21   -1    0    0  503  502  0.00000000000E+00  0.00000000000E+00  0.29501957445E+00  0.29501957445E+00  0.00000000000E+00 0. -1.
         21   -1    0    0  501  503 -0.00000000000E+00 -0.00000000000E+00 -0.15827064967E+03  0.15827064967E+03  0.00000000000E+00 0.  1.
          5    1    1    2  501    0 -0.25095872908E+01  0.36468162899E+01 -0.10494654654E+03  0.10514497100E+03  0.47000000000E+01 0.  1.
         -5    1    1    2    0  502  0.25095872908E+01 -0.36468162899E+01 -0.53029083562E+02  0.53420698243E+02  0.47000000000E+01 0. -1.
<mgrwt>
<rscale>  2 0.64565701E+01</rscale>
<asrwt>0</asrwt>
<pdfrwt beam="1">  1       21 0.45387776E-04 0.64565701E+01</pdfrwt>
<pdfrwt beam="2">  1       21 0.24349251E-01 0.64565701E+01</pdfrwt>
<totfact> 0.19247903E+09</totfact>
</mgrwt>
</event>
<event>
 4    1  0.3906087E+006  0.5555336E+01  0.7546771E-02  0.2477159E+00
         21   -1    0    0  503  502  0.00000000000E+00  0.00000000000E+00  0.52187167985E+00  0.52187167985E+00  0.00000000000E+00 0.  1.
         21   -1    0    0  501  503 -0.00000000000E+00 -0.00000000000E+00 -0.64678437773E+02  0.64678437773E+02  0.00000000000E+00 0.  1.
          5    1    1    2  501    0  0.82125745737E+00 -0.28455740845E+01 -0.41620820741E+02  0.41989933018E+02  0.47000000000E+01 0.  1.
         -5    1    1    2    0  502 -0.82125745737E+00  0.28455740845E+01 -0.22535745352E+02  0.23210376435E+02  0.47000000000E+01 0.  1.
<mgrwt>
<rscale>  2 0.55553358E+01</rscale>
<asrwt>0</asrwt>
<pdfrwt beam="1">  1       21 0.80287928E-04 0.55553358E+01</pdfrwt>
<pdfrwt beam="2">  1       21 0.99505317E-02 0.55553358E+01</pdfrwt>
<totfact> 0.32683399E+09</totfact>
</mgrwt>
</event>
<event>
 4    1  0.3906087E+006  0.5066776E+01  0.7546771E-02  0.2555442E+00
         21   -1    0    0  503  502  0.00000000000E+00  0.00000000000E+00  0.88624405456E-01  0.88624405456E-01  0.00000000000E+00 0.  1.
         21   -1    0    0  501  503 -0.00000000000E+00 -0.00000000000E+00 -0.33977559135E+03  0.33977559135E+03  0.00000000000E+00 0. -1.
          5    1    1    2  501    0 -0.18906865215E+01 -0.86719108038E-01 -0.23509696136E+03  0.23515155423E+03  0.47000000000E+01 0. -1.
         -5    1    1    2    0  502  0.18906865215E+01  0.86719108038E-01 -0.10459000558E+03  0.10471266152E+03  0.47000000000E+01 0.  1.
<mgrwt>
<rscale>  2 0.50667757E+01</rscale>
<asrwt>0</asrwt>
<pdfrwt beam="1">  1       21 0.13634521E-04 0.50667757E+01</pdfrwt>
<pdfrwt beam="2">  1       21 0.52273179E-01 0.50667757E+01</pdfrwt>
<totfact> 0.21153497E+09</totfact>
</mgrwt>
</event>
<event>
 4    1  0.3906087E+006  0.6555421E+01  0.7546771E-02  0.2348293E+00
         21   -1    0    0  503  502  0.00000000000E+00  0.00000000000E+00  0.67490920538E+00  0.67490920538E+00  0.00000000000E+00 0. -1.
         21   -1    0    0  501  503 -0.00000000000E+00 -0.00000000000E+00 -0.15601805781E+03  0.15601805781E+03  0.00000000000E+00 0. -1.
          5    1    1    2  501    0  0.43838705300E+01 -0.12904374178E+01 -0.13794678115E+03  0.13810245464E+03  0.47000000000E+01 0. -1.
         -5    1    1    2    0  502 -0.43838705300E+01  0.12904374178E+01 -0.17396367457E+02  0.18590512372E+02  0.47000000000E+01 0. -1.
<mgrwt>
<rscale>  2 0.65554214E+01</rscale>
<asrwt>0</asrwt>
<pdfrwt beam="1">  1       21 0.10383234E-03 0.65554214E+01</pdfrwt>
<pdfrwt beam="2">  1       21 0.24002743E-01 0.65554214E+01</pdfrwt>
<totfact> 0.65479996E+08</totfact>
</mgrwt>
</event>
<event>
 4    1  0.3906087E+006  0.6336493E+01  0.7546771E-02  0.2373583E+00
         21   -1    0    0  501  502  0.00000000000E+00  0.00000000000E+00  0.46735990717E+02  0.46735990717E+02  0.00000000000E+00 0. -1.
         21   -1    0    0  502  503 -0.00000000000E+00 -0.00000000000E+00 -0.88355605996E+00  0.88355605996E+00  0.00000000000E+00 0. -1.
          5    1    1    2  501    0 -0.14072787876E+00 -0.42475090242E+01  0.26887030916E+02  0.27623605281E+02  0.47000000000E+01 0.  1.
         -5    1    1    2    0  503  0.14072787876E+00  0.42475090242E+01  0.18965403741E+02  0.19995941496E+02  0.47000000000E+01 0.  1.
<mgrwt>
<rscale>  2 0.63364925E+01</rscale>
<asrwt>0</asrwt>
<pdfrwt beam="1">  1       21 0.71901505E-02 0.63364925E+01</pdfrwt>
<pdfrwt beam="2">  1       21 0.13593174E-03 0.63364925E+01</pdfrwt>
<totfact> 0.29584694E+09</totfact>
</mgrwt>
</event>
<event>
 4    1  0.3906087E+006  0.6859894E+01  0.7546771E-02  0.2315354E+00
         21   -1    0    0  503  502  0.00000000000E+00  0.00000000000E+00  0.16868716698E+02  0.16868716698E+02  0.00000000000E+00 0. -1.
         21   -1    0    0  501  503 -0.00000000000E+00 -0.00000000000E+00 -0.40981841913E+01  0.40981841913E+01  0.00000000000E+00 0. -1.
          5    1    1    2  501    0  0.45236901492E+01 -0.21223519269E+01  0.46150216879E+00  0.68754006807E+01  0.47000000000E+01 0. -1.
         -5    1    1    2    0  502 -0.45236901492E+01  0.21223519269E+01  0.12309030338E+02  0.14091500208E+02  0.47000000000E+01 0. -1.
<mgrwt>
<rscale>  2 0.68598943E+01</rscale>
<asrwt>0</asrwt>
<pdfrwt beam="1">  1       21 0.25951872E-02 0.68598943E+01</pdfrwt>
<pdfrwt beam="2">  1       21 0.63048988E-03 0.68598943E+01</pdfrwt>
<totfact> 0.17215531E+09</totfact>
</mgrwt>
</event>
<event>
 4    1  0.3906087E+006  0.5483988E+01  0.7546771E-02  0.2487848E+00
         21   -1    0    0  503  502  0.00000000000E+00  0.00000000000E+00  0.46333460172E+01  0.46333460172E+01  0.00000000000E+00 0. -1.
         21   -1    0    0  501  503 -0.00000000000E+00 -0.00000000000E+00 -0.29857380857E+02  0.29857380857E+02  0.00000000000E+00 0. -1.
          5    1    1    2  501    0 -0.26034556647E+01 -0.10982432503E+01 -0.27868137099E+02  0.28402591167E+02  0.47000000000E+01 0. -1.
         -5    1    1    2    0  502  0.26034556647E+01  0.10982432503E+01  0.26441022591E+01  0.60881357074E+01  0.47000000000E+01 0. -1.
<mgrwt>
<rscale>  2 0.54839876E+01</rscale>
<asrwt>0</asrwt>
<pdfrwt beam="1">  1       21 0.71282247E-03 0.54839876E+01</pdfrwt>
<pdfrwt beam="2">  1       21 0.45934432E-02 0.54839876E+01</pdfrwt>
<totfact> 0.52598430E+08</totfact>
</mgrwt>
</event>
<event>
 4    1  0.3906087E+006  0.7406100E+01  0.7546771E-02  0.2261901E+00
         21   -1    0    0  501  502  0.00000000000E+00  0.00000000000E+00  0.61623191015E+02  0.61623191015E+02  0.00000000000E+00 0.  1.
         21   -1    0    0  502  503 -0.00000000000E+00 -0.00000000000E+00 -0.12375656353E+01  0.12375656353E+01  0.00000000000E+00 0.  1.
          5    1    1    2  501    0  0.49716269349E+01 -0.28360603759E+01  0.46847112609E+02  0.47428918105E+02  0.47000000000E+01 0.  1.
         -5    1    1    2    0  503 -0.49716269349E+01  0.28360603759E+01  0.13538512771E+02  0.15431838545E+02  0.47000000000E+01 0.  1.
<mgrwt>
<rscale>  2 0.74060997E+01</rscale>
<asrwt>0</asrwt>
<pdfrwt beam="1">  1       21 0.94804885E-02 0.74060997E+01</pdfrwt>
<pdfrwt beam="2">  1       21 0.19039476E-03 0.74060997E+01</pdfrwt>
<totfact> 0.13773982E+09</totfact>
</mgrwt>
</event>
<event>
 4    1  0.3906087E+006  0.4854023E+01  0.7546771E-02  0.2593720E+00
         21   -1    0    0  503  502  0.00000000000E+00  0.00000000000E+00  0.88022852040E+02  0.88022852040E+02  0.00000000000E+00 0.  1.
         21   -1    0    0  501  503 -0.00000000000E+00 -0.00000000000E+00 -0.43822743175E+01  0.43822743175E+01  0.00000000000E+00 0.  1.
          5    1    1    2  501    0  0.10398709530E+01  0.62466320461E+00 -0.29489853064E+01  0.56796170695E+01  0.47000000000E+01 0.  1.
         -5    1    1    2    0  502 -0.10398709530E+01 -0.62466320461E+00  0.86589563029E+02  0.86725509288E+02  0.47000000000E+01 0.  1.
<mgrwt>
<rscale>  2 0.48540226E+01</rscale>
<asrwt>0</asrwt>
<pdfrwt beam="1">  1       21 0.13541976E-01 0.48540226E+01</pdfrwt>
<pdfrwt beam="2">  1       21 0.67419611E-03 0.48540226E+01</pdfrwt>
<totfact> 0.10174926E+08</totfact>
</mgrwt>
</event>
<event>
 4    1  0.3906087E+006  0.4969529E+01  0.7546771E-02  0.2572588E+00
         21   -1    0    0  503  502  0.00000000000E+00  0.00000000000E+00  0.51215452110E+00  0.51215452110E+00  0.00000000000E+00 0.  1.
         21   -1    0    0  501  503 -0.00000000000E+00 -0.00000000000E+00 -0.11207906170E+03  0.11207906170E+03  0.00000000000E+00 0.  1.
          5    1    1    2  501    0 -0.13937549271E+01 -0.81465438823E+00 -0.98276974551E+02  0.98402540320E+02  0.47000000000E+01 0.  1.
         -5    1    1    2    0  502  0.13937549271E+01  0.81465438823E+00 -0.13289932629E+02  0.14188675902E+02  0.47000000000E+01 0.  1.
<mgrwt>
<rscale>  2 0.49695286E+01</rscale>
<asrwt>0</asrwt>
<pdfrwt beam="1">  1       21 0.78792903E-04 0.49695286E+01</pdfrwt>
<pdfrwt beam="2">  1       21 0.17242954E-01 0.49695286E+01</pdfrwt>
<totfact> 0.12919942E+09</totfact>
</mgrwt>
</event>
<event>
 4    1  0.3906087E+006  0.4854782E+01  0.7546771E-02  0.2593578E+00
         21   -1    0    0  501  502  0.00000000000E+00  0.00000000000E+00  0.44681152991E+02  0.44681152991E+02  0.00000000000E+00 0. -1.
         21   -1    0    0  502  503 -0.00000000000E+00 -0.00000000000E+00 -0.66970227588E+00  0.66970227588E+00  0.00000000000E+00 0.  1.
          5    1    1    2  501    0 -0.45163250279E+00 -0.11291324875E+01  0.32454886083E+02  0.32815979991E+02  0.47000000000E+01 0. -1.
         -5    1    1    2    0  503  0.45163250279E+00  0.11291324875E+01  0.11556564632E+02  0.12534875276E+02  0.47000000000E+01 0.  1.
<mgrwt>
<rscale>  2 0.48547824E+01</rscale>
<asrwt>0</asrwt>
<pdfrwt beam="1">  1       21 0.68740212E-02 0.48547824E+01</pdfrwt>
<pdfrwt beam="2">  1       21 0.10303115E-03 0.48547824E+01</pdfrwt>
<totfact> 0.35815441E+09</totfact>
</mgrwt>
</event>
<event>
 4    1  0.3906087E+006  0.4812062E+01  0.7546771E-02  0.2601614E+00
         21   -1    0    0  501  502  0.00000000000E+00  0.00000000000E+00  0.11279425384E+02  0.11279425384E+02  0.00000000000E+00 0.  1.
         21   -1    0    0  502  503 -0.00000000000E+00 -0.00000000000E+00 -0.22483840858E+01  0.22483840858E+01  0.00000000000E+00 0.  1.
          5    1    1    2  501    0 -0.10097480611E+01 -0.21530021295E+00  0.65097599106E+01  0.80952405414E+01  0.47000000000E+01 0.  1.
         -5    1    1    2    0  503  0.10097480611E+01  0.21530021295E+00  0.25212813878E+01  0.54325689287E+01  0.47000000000E+01 0.  1.
<mgrwt>
<rscale>  2 0.48120625E+01</rscale>
<asrwt>0</asrwt>
<pdfrwt beam="1">  1       21 0.17352962E-02 0.48120625E+01</pdfrwt>
<pdfrwt beam="2">  1       21 0.34590525E-03 0.48120625E+01</pdfrwt>
<totfact> 0.50726747E+09</totfact>
</mgrwt>
</event>
<event>
 4    1  0.3906087E+006  0.6057957E+01  0.7546771E-02  0.2407941E+00
         21   -1    0    0  501  502  0.00000000000E+00  0.00000000000E+00  0.27045158708E+03  0.27045158708E+03  0.00000000000E+00 0.  1.
         21   -1    0    0  502  503 -0.00000000000E+00 -0.00000000000E+00 -0.20034449269E+00  0.20034449269E+00  0.00000000000E+00 0. -1.
          5    1    1    2  501    0 -0.29382610204E+01 -0.24444771741E+01  0.21199900637E+03  0.21208554300E+03  0.47000000000E+01 0.  1.
         -5    1    1    2    0  503  0.29382610204E+01  0.24444771741E+01  0.58252236218E+02  0.58566388576E+02  0.47000000000E+01 0. -1.
<mgrwt>
<rscale>  2 0.60579573E+01</rscale>
<asrwt>0</asrwt>
<pdfrwt beam="1">  1       21 0.41607644E-01 0.60579573E+01</pdfrwt>
<pdfrwt beam="2">  1       21 0.30822446E-04 0.60579573E+01</pdfrwt>
<totfact> 0.12371543E+09</totfact>
</mgrwt>
</event>
<event>
 4    1  0.3906087E+006  0.4810278E+01  0.7546771E-02  0.2601952E+00
         21   -1    0    0  503  502  0.00000000000E+00  0.00000000000E+00  0.85325382113E+01  0.85325382113E+01  0.00000000000E+00 0.  1.
         21   -1    0    0  501  503 -0.00000000000E+00 -0.00000000000E+00 -0.41511774866E+01  0.41511774866E+01  0.00000000000E+00 0.  1.
          5    1    1    2  501    0  0.97278887369E+00 -0.32008998569E+00  0.59250214658E+01  0.76318186012E+01  0.47000000000E+01 0.  1.
         -5    1    1    2    0  502 -0.97278887369E+00  0.32008998569E+00 -0.15436607411E+01  0.50518970967E+01  0.47000000000E+01 0.  1.
<mgrwt>
<rscale>  2 0.48102781E+01</rscale>
<asrwt>0</asrwt>
<pdfrwt beam="1">  1       21 0.13126982E-02 0.48102781E+01</pdfrwt>
<pdfrwt beam="2">  1       21 0.63864269E-03 0.48102781E+01</pdfrwt>
<totfact> 0.32430157E+09</totfact>
</mgrwt>
</event>
<event>
 4    1  0.3906087E+006  0.5900421E+01  0.7546771E-02  0.2428567E+00
         21   -1    0    0  501  502  0.00000000000E+00  0.00000000000E+00  0.22871777596E+00  0.22871777596E+00  0.00000000000E+00 0.  1.
         21   -1    0    0  502  503 -0.00000000000E+00 -0.00000000000E+00 -0.35139159847E+03  0.35139159847E+03  0.00000000000E+00 0. -1.
          5    1    1    2  501    0 -0.35222905768E+01 -0.56429735285E+00 -0.43219183745E+02  0.43620096354E+02  0.47000000000E+01 0.  1.
         -5    1    1    2    0  503  0.35222905768E+01  0.56429735285E+00 -0.30794369695E+03  0.30800021989E+03  0.47000000000E+01 0. -1.
<mgrwt>
<rscale>  2 0.59004205E+01</rscale>
<asrwt>0</asrwt>
<pdfrwt beam="1">  1       21 0.35187312E-04 0.59004205E+01</pdfrwt>
<pdfrwt beam="2">  1       21 0.54060305E-01 0.59004205E+01</pdfrwt>
<totfact> 0.63689701E+08</totfact>
</mgrwt>
</event>
<event>
 4    1  0.3906087E+006  0.5983658E+01  0.7546771E-02  0.2417555E+00
         21   -1    0    0  503  502  0.00000000000E+00  0.00000000000E+00  0.34644448672E+02  0.34644448672E+02  0.00000000000E+00 0.  1.
         21   -1    0    0  501  503 -0.00000000000E+00 -0.00000000000E+00 -0.10502926578E+02  0.10502926578E+02  0.00000000000E+00 0. -1.
          5    1    1    2  501    0  0.72904594184E+00  0.36307921449E+01 -0.93635618072E+01  0.11112175723E+02  0.47000000000E+01 0. -1.
         -5    1    1    2    0  502 -0.72904594184E+00 -0.36307921449E+01  0.33505083901E+02  0.34035199526E+02  0.47000000000E+01 0.  1.
<mgrwt>
<rscale>  2 0.59836577E+01</rscale>
<asrwt>0</asrwt>
<pdfrwt beam="1">  1       21 0.53299151E-02 0.59836577E+01</pdfrwt>
<pdfrwt beam="2">  1       21 0.16158349E-02 0.59836577E+01</pdfrwt>
<totfact> 0.14219491E+08</totfact>
</mgrwt>
</event>
<event>
 4    1  0.3906087E+006  0.5551036E+01  0.7546771E-02  0.2477797E+00
         21   -1    0    0  503  502  0.00000000000E+00  0.00000000000E+00  0.14160337580E+02  0.14160337580E+02  0.00000000000E+00 0. -1.
         21   -1    0    0  501  503 -0.00000000000E+00 -0.00000000000E+00 -0.49093013574E+01  0.49093013574E+01  0.00000000000E+00 0. -1.
          5    1    1    2  501    0  0.13067337907E+01  0.26488585478E+01 -0.24889126667E+01  0.60834768898E+01  0.47000000000E+01 0. -1.
         -5    1    1    2    0  502 -0.13067337907E+01 -0.26488585478E+01  0.11739948889E+02  0.12986162048E+02  0.47000000000E+01 0. -1.
<mgrwt>
<rscale>  2 0.55510364E+01</rscale>
<asrwt>0</asrwt>
<pdfrwt beam="1">  1       21 0.21785135E-02 0.55510364E+01</pdfrwt>
<pdfrwt beam="2">  1       21 0.75527714E-03 0.55510364E+01</pdfrwt>
<totfact> 0.14444600E+09</totfact>
</mgrwt>
</event>
<event>
 4    1  0.3906087E+006  0.7001297E+01  0.7546771E-02  0.2300863E+00
         21   -1    0    0  501  502  0.00000000000E+00  0.00000000000E+00  0.67826337919E+02  0.67826337919E+02  0.00000000000E+00 0.  1.
         21   -1    0    0  502  503 -0.00000000000E+00 -0.00000000000E+00 -0.14634665725E+01  0.14634665725E+01  0.00000000000E+00 0. -1.
          5    1    1    2  501    0  0.51810799480E+01  0.29079944984E+00  0.57829814974E+02  0.58252087118E+02  0.47000000000E+01 0.  1.
         -5    1    1    2    0  503 -0.51810799480E+01 -0.29079944984E+00  0.85330563728E+01  0.11037717373E+02  0.47000000000E+01 0. -1.
<mgrwt>
<rscale>  2 0.70012966E+01</rscale>
<asrwt>0</asrwt>
<pdfrwt beam="1">  1       21 0.10434819E-01 0.70012966E+01</pdfrwt>
<pdfrwt beam="2">  1       21 0.22514876E-03 0.70012966E+01</pdfrwt>
<totfact> 0.90549489E+08</totfact>
</mgrwt>
</event>
<event>
 4    1  0.3906087E+006  0.6349431E+01  0.7546771E-02  0.2372048E+00
         21   -1    0    0  503  502  0.00000000000E+00  0.00000000000E+00  0.51271155991E+02  0.51271155991E+02  0.00000000000E+00 0. -1.
         21   -1    0    0  501  503 -0.00000000000E+00 -0.00000000000E+00 -0.80946561922E+00  0.80946561922E+00  0.00000000000E+00 0. -1.
          5    1    1    2  501    0 -0.31773627193E+01  0.28512534604E+01  0.20827040389E+02  0.21773398713E+02  0.47000000000E+01 0. -1.
         -5    1    1    2    0  502  0.31773627193E+01 -0.28512534604E+01  0.29634649983E+02  0.30307222898E+02  0.47000000000E+01 0. -1.
<mgrwt>
<rscale>  2 0.63494315E+01</rscale>
<asrwt>0</asrwt>
<pdfrwt beam="1">  1       21 0.78878676E-02 0.63494315E+01</pdfrwt>
<pdfrwt beam="2">  1       21 0.12453321E-03 0.63494315E+01</pdfrwt>
<totfact> 0.28991956E+09</totfact>
</mgrwt>
</event>
<event>
 4    1  0.3906087E+006  0.7549875E+01  0.7546771E-02  0.2248887E+00
         21   -1    0    0  501  502  0.00000000000E+00  0.00000000000E+00  0.16804552869E+03  0.16804552869E+03  0.00000000000E+00 0.  1.
         21   -1    0    0  502  503 -0.00000000000E+00 -0.00000000000E+00 -0.38573634422E+00  0.38573634422E+00  0.00000000000E+00 0. -1.
          5    1    1    2  501    0 -0.58966292155E+01  0.37466056053E+00  0.54577887616E+02  0.55097608145E+02  0.47000000000E+01 0. -1.
         -5    1    1    2    0  503  0.58966292155E+01 -0.37466056053E+00  0.11308190473E+03  0.11333365688E+03  0.47000000000E+01 0.  1.
<mgrwt>
<rscale>  2 0.75498746E+01</rscale>
<asrwt>0</asrwt>
<pdfrwt beam="1">  1       21 0.25853100E-01 0.75498746E+01</pdfrwt>
<pdfrwt beam="2">  1       21 0.59344187E-04 0.75498746E+01</pdfrwt>
<totfact> 0.13565950E+09</totfact>
</mgrwt>
</event>
<event>
 4    1  0.3906087E+006  0.1041439E+02  0.7546771E-02  0.2052144E+00
         21   -1    0    0  501  502  0.00000000000E+00  0.00000000000E+00  0.16744213378E+02  0.16744213378E+02  0.00000000000E+00 0. -1.
         21   -1    0    0  502  503 -0.00000000000E+00 -0.00000000000E+00 -0.72800140269E+01  0.72800140269E+01  0.00000000000E+00 0. -1.
          5    1    1    2  501    0 -0.89983906510E+01  0.23234422320E+01  0.87205062352E+01  0.13583322389E+02  0.47000000000E+01 0. -1.
         -5    1    1    2    0  503  0.89983906510E+01 -0.23234422320E+01  0.74369311600E+00  0.10440905017E+02  0.47000000000E+01 0. -1.
<mgrwt>
<rscale>  2 0.10414385E+02</rscale>
<asrwt>0</asrwt>
<pdfrwt beam="1">  1       21 0.25760328E-02 0.10414385E+02</pdfrwt>
<pdfrwt beam="2">  1       21 0.11200022E-02 0.10414385E+02</pdfrwt>
<totfact> 0.10096282E+09</totfact>
</mgrwt>
</event>
<event>
 4    1  0.3906087E+006  0.4828312E+01  0.7546771E-02  0.2598543E+00
         21   -1    0    0  501  502  0.00000000000E+00  0.00000000000E+00  0.62374763875E+00  0.62374763875E+00  0.00000000000E+00 0. -1.
         21   -1    0    0  502  503 -0.00000000000E+00 -0.00000000000E+00 -0.12460943373E+03  0.12460943373E+03  0.00000000000E+00 0. -1.
          5    1    1    2  501    0 -0.56239027033E+00 -0.95200529175E+00 -0.96017071778E+01  0.10747342817E+02  0.47000000000E+01 0. -1.
         -5    1    1    2    0  503  0.56239027033E+00  0.95200529175E+00 -0.11438397892E+03  0.11448583856E+03  0.47000000000E+01 0. -1.
<mgrwt>
<rscale>  2 0.48283120E+01</rscale>
<asrwt>0</asrwt>
<pdfrwt beam="1">  1       21 0.95961216E-04 0.48283120E+01</pdfrwt>
<pdfrwt beam="2">  1       21 0.19170674E-01 0.48283120E+01</pdfrwt>
<totfact> 0.81994322E+08</totfact>
</mgrwt>
</event>
<event>
 4    1  0.3906087E+006  0.5891783E+01  0.7546771E-02  0.2429725E+00
         21   -1    0    0  503  502  0.00000000000E+00  0.00000000000E+00  0.44332756484E+00  0.44332756484E+00  0.00000000000E+00 0. -1.
         21   -1    0    0  501  503 -0.00000000000E+00 -0.00000000000E+00 -0.11054097315E+03  0.11054097315E+03  0.00000000000E+00 0. -1.
          5    1    1    2  501    0 -0.15256144969E+01 -0.32086763839E+01 -0.85017360022E+02  0.85221268524E+02  0.47000000000E+01 0. -1.
         -5    1    1    2    0  502  0.15256144969E+01  0.32086763839E+01 -0.25080285559E+02  0.25763032186E+02  0.47000000000E+01 0. -1.
<mgrwt>
<rscale>  2 0.58917827E+01</rscale>
<asrwt>0</asrwt>
<pdfrwt beam="1">  1       21 0.68204267E-04 0.58917827E+01</pdfrwt>
<pdfrwt beam="2">  1       21 0.17006297E-01 0.58917827E+01</pdfrwt>
<totfact> 0.18568487E+09</totfact>
</mgrwt>
</event>
<event>
 4    1  0.3906087E+006  0.5188189E+01  0.7546771E-02  0.2534814E+00
         21   -1    0    0  501  502  0.00000000000E+00  0.00000000000E+00  0.31119435637E+02  0.31119435637E+02  0.00000000000E+00 0. -1.
         21   -1    0    0  502  503 -0.00000000000E+00 -0.00000000000E+00 -0.92921167896E+00  0.92921167896E+00  0.00000000000E+00 0. -1.
          5    1    1    2  501    0 -0.15208250492E+01 -0.15856852231E+01  0.19308569471E+02  0.19993452965E+02  0.47000000000E+01 0. -1.
         -5    1    1    2    0  503  0.15208250492E+01  0.15856852231E+01  0.10881654486E+02  0.12055194350E+02  0.47000000000E+01 0. -1.
<mgrwt>
<rscale>  2 0.51881891E+01</rscale>
<asrwt>0</asrwt>
<pdfrwt beam="1">  1       21 0.47876047E-02 0.51881891E+01</pdfrwt>
<pdfrwt beam="2">  1       21 0.14295567E-03 0.51881891E+01</pdfrwt>
<totfact> 0.42179232E+09</totfact>
</mgrwt>
</event>
<event>
 4    1  0.3906087E+006  0.4747407E+01  0.7546771E-02  0.2614014E+00
         21   -1    0    0  501  502  0.00000000000E+00  0.00000000000E+00  0.10007832795E+00  0.10007832795E+00  0.00000000000E+00 0.  1.
         21   -1    0    0  502  503 -0.00000000000E+00 -0.00000000000E+00 -0.24472546446E+03  0.24472546446E+03  0.00000000000E+00 0.  1.
          5    1    1    2  501    0  0.55756446006E+00  0.37012904524E+00 -0.87737723137E+02  0.87866068166E+02  0.47000000000E+01 0.  1.
         -5    1    1    2    0  503 -0.55756446006E+00 -0.37012904524E+00 -0.15688766300E+03  0.15695947462E+03  0.47000000000E+01 0.  1.
<mgrwt>
<rscale>  2 0.47474070E+01</rscale>
<asrwt>0</asrwt>
<pdfrwt beam="1">  1       21 0.15396667E-04 0.47474070E+01</pdfrwt>
<pdfrwt beam="2">  1       21 0.37650068E-01 0.47474070E+01</pdfrwt>
<totfact> 0.30082490E+09</totfact>
</mgrwt>
</event>
<event>
 4    1  0.3906087E+006  0.5700064E+01  0.7546771E-02  0.2456176E+00
         21   -1    0    0  501  502  0.00000000000E+00  0.00000000000E+00  0.10596783912E+03  0.10596783912E+03  0.00000000000E+00 0. -1.
         21   -1    0    0  502  503 -0.00000000000E+00 -0.00000000000E+00 -0.13676168362E+01  0.13676168362E+01  0.00000000000E+00 0. -1.
          5    1    1    2  501    0 -0.23137117272E+01  0.22466577950E+01  0.99570612550E+02  0.99733633328E+02  0.47000000000E+01 0. -1.
         -5    1    1    2    0  503  0.23137117272E+01 -0.22466577950E+01  0.50296097349E+01  0.76018226295E+01  0.47000000000E+01 0. -1.
<mgrwt>
<rscale>  2 0.57000643E+01</rscale>
<asrwt>0</asrwt>
<pdfrwt beam="1">  1       21 0.16302738E-01 0.57000643E+01</pdfrwt>
<pdfrwt beam="2">  1       21 0.21040267E-03 0.57000643E+01</pdfrwt>
<totfact> 0.42474113E+08</totfact>
</mgrwt>
</event>
<event>
 4    1  0.3906087E+006  0.1067938E+02  0.7546771E-02  0.2038267E+00
         21   -1    0    0  501  502  0.00000000000E+00  0.00000000000E+00  0.10450142730E+02  0.10450142730E+02  0.00000000000E+00 0. -1.
         21   -1    0    0  502  503 -0.00000000000E+00 -0.00000000000E+00 -0.62091431153E+02  0.62091431153E+02  0.00000000000E+00 0.  1.
          5    1    1    2  501    0  0.80520816623E+01 -0.52079962212E+01  0.71086067502E+01  0.12828933458E+02  0.47000000000E+01 0. -1.
         -5    1    1    2    0  503 -0.80520816623E+01  0.52079962212E+01 -0.58749895173E+02  0.59712640426E+02  0.47000000000E+01 0.  1.
<mgrwt>
<rscale>  2 0.10679384E+02</rscale>
<asrwt>0</asrwt>
<pdfrwt beam="1">  1       21 0.16077143E-02 0.10679384E+02</pdfrwt>
<pdfrwt beam="2">  1       21 0.95525276E-02 0.10679384E+02</pdfrwt>
<totfact> 0.80260393E+07</totfact>
</mgrwt>
</event>
<event>
 4    1  0.3906087E+006  0.8423953E+01  0.7546771E-02  0.2177613E+00
         21   -1    0    0  503  502  0.00000000000E+00  0.00000000000E+00  0.25526847713E+02  0.25526847713E+02  0.00000000000E+00 0. -1.
         21   -1    0    0  501  503 -0.00000000000E+00 -0.00000000000E+00 -0.27825889099E+01  0.27825889099E+01  0.00000000000E+00 0.  1.
          5    1    1    2  501    0 -0.68702783290E+01 -0.12931608137E+01  0.11809230531E+02  0.14505892421E+02  0.47000000000E+01 0. -1.
         -5    1    1    2    0  502  0.68702783290E+01  0.12931608137E+01  0.10935028272E+02  0.13803544202E+02  0.47000000000E+01 0.  1.
<mgrwt>
<rscale>  2 0.84239533E+01</rscale>
<asrwt>0</asrwt>
<pdfrwt beam="1">  1       21 0.39272072E-02 0.84239533E+01</pdfrwt>
<pdfrwt beam="2">  1       21 0.42809062E-03 0.84239533E+01</pdfrwt>
<totfact> 0.18673207E+09</totfact>
</mgrwt>
</event>
<event>
 4    1  0.3906087E+006  0.6816776E+01  0.7546771E-02  0.2319871E+00
         21   -1    0    0  501  502  0.00000000000E+00  0.00000000000E+00  0.33610135260E+02  0.33610135260E+02  0.00000000000E+00 0.  1.
         21   -1    0    0  502  503 -0.00000000000E+00 -0.00000000000E+00 -0.25848833829E+01  0.25848833829E+01  0.00000000000E+00 0.  1.
          5    1    1    2  501    0  0.49034504212E+01  0.57845904084E+00  0.27855229016E+02  0.28677207403E+02  0.47000000000E+01 0.  1.
         -5    1    1    2    0  503 -0.49034504212E+01 -0.57845904084E+00  0.31700228603E+01  0.75178112393E+01  0.47000000000E+01 0.  1.
<mgrwt>
<rscale>  2 0.68167764E+01</rscale>
<asrwt>0</asrwt>
<pdfrwt beam="1">  1       21 0.51707897E-02 0.68167764E+01</pdfrwt>
<pdfrwt beam="2">  1       21 0.39767439E-03 0.68167764E+01</pdfrwt>
<totfact> 0.11790995E+09</totfact>
</mgrwt>
</event>
<event>
 4    1  0.3906087E+006  0.5382298E+01  0.7546771E-02  0.2503498E+00
         21   -1    0    0  501  502  0.00000000000E+00  0.00000000000E+00  0.77145075410E+00  0.77145075410E+00  0.00000000000E+00 0. -1.
         21   -1    0    0  502  503 -0.00000000000E+00 -0.00000000000E+00 -0.97560384227E+02  0.97560384227E+02  0.00000000000E+00 0. -1.
          5    1    1    2  501    0  0.24668286247E+01 -0.89100444477E+00 -0.98346309498E+01  0.11211114945E+02  0.47000000000E+01 0. -1.
         -5    1    1    2    0  503 -0.24668286247E+01  0.89100444477E+00 -0.86954302523E+02  0.87120720036E+02  0.47000000000E+01 0. -1.
<mgrwt>
<rscale>  2 0.53822981E+01</rscale>
<asrwt>0</asrwt>
<pdfrwt beam="1">  1       21 0.11868472E-03 0.53822981E+01</pdfrwt>
<pdfrwt beam="2">  1       21 0.15009292E-01 0.53822981E+01</pdfrwt>
<totfact> 0.99964656E+08</totfact>
</mgrwt>
</event>
<event>
 4    1  0.3906087E+006  0.6598751E+01  0.7546771E-02  0.2343453E+00
         21   -1    0    0  503  502  0.00000000000E+00  0.00000000000E+00  0.38604071632E+02  0.38604071632E+02  0.00000000000E+00 0. -1.
         21   -1    0    0  501  503 -0.00000000000E+00 -0.00000000000E+00 -0.13300102848E+01  0.13300102848E+01  0.00000000000E+00 0.  1.
          5    1    1    2  501    0 -0.48023010743E+00  0.46068307625E+01  0.10854419157E+02  0.12702831411E+02  0.47000000000E+01 0.  1.
         -5    1    1    2    0  502  0.48023010743E+00 -0.46068307625E+01  0.26419642190E+02  0.27231250505E+02  0.47000000000E+01 0. -1.
<mgrwt>
<rscale>  2 0.65987507E+01</rscale>
<asrwt>0</asrwt>
<pdfrwt beam="1">  1       21 0.59390871E-02 0.65987507E+01</pdfrwt>
<pdfrwt beam="2">  1       21 0.20461700E-03 0.65987507E+01</pdfrwt>
<totfact> 0.23384093E+09</totfact>
</mgrwt>
</event>
<event>
 4    1  0.3906087E+006  0.5970953E+01  0.7546771E-02  0.2419219E+00
         21   -1    0    0  501  502  0.00000000000E+00  0.00000000000E+00  0.44770864268E+01  0.44770864268E+01  0.00000000000E+00 0. -1.
         21   -1    0    0  502  503 -0.00000000000E+00 -0.00000000000E+00 -0.29166676520E+02  0.29166676520E+02  0.00000000000E+00 0. -1.
          5    1    1    2  501    0  0.19302127904E+01 -0.31363291151E+01  0.19980015328E+01  0.62963713248E+01  0.47000000000E+01 0. -1.
         -5    1    1    2    0  503 -0.19302127904E+01  0.31363291151E+01 -0.26687591626E+02  0.27347391622E+02  0.47000000000E+01 0. -1.
<mgrwt>
<rscale>  2 0.59709532E+01</rscale>
<asrwt>0</asrwt>
<pdfrwt beam="1">  1       21 0.68878251E-03 0.59709532E+01</pdfrwt>
<pdfrwt beam="2">  1       21 0.44871811E-02 0.59709532E+01</pdfrwt>
<totfact> 0.61102652E+08</totfact>
</mgrwt>
</event>
<event>
 4    1  0.3906087E+006  0.6344795E+01  0.7546771E-02  0.2372598E+00
         21   -1    0    0  503  502  0.00000000000E+00  0.00000000000E+00  0.17017282168E+01  0.17017282168E+01  0.00000000000E+00 0.  1.
         21   -1    0    0  501  503 -0.00000000000E+00 -0.00000000000E+00 -0.26545731637E+02  0.26545731637E+02  0.00000000000E+00 0. -1.
          5    1    1    2  501    0 -0.42146854061E+01 -0.63470388794E+00 -0.17081786112E+02  0.18222070104E+02  0.47000000000E+01 0. -1.
         -5    1    1    2    0  502  0.42146854061E+01  0.63470388794E+00 -0.77622173086E+01  0.10025389750E+02  0.47000000000E+01 0.  1.
<mgrwt>
<rscale>  2 0.63447949E+01</rscale>
<asrwt>0</asrwt>
<pdfrwt beam="1">  1       21 0.26180436E-03 0.63447949E+01</pdfrwt>
<pdfrwt beam="2">  1       21 0.40839585E-02 0.63447949E+01</pdfrwt>
<totfact> 0.28202707E+09</totfact>
</mgrwt>
</event>
<event>
 4    1  0.3906087E+006  0.6812661E+01  0.7546771E-02  0.2320305E+00
         21   -1    0    0  501  502  0.00000000000E+00  0.00000000000E+00  0.76492532211E+00  0.76492532211E+00  0.00000000000E+00 0. -1.
         21   -1    0    0  502  503 -0.00000000000E+00 -0.00000000000E+00 -0.12165718723E+03  0.12165718723E+03  0.00000000000E+00 0.  1.
          5    1    1    2  501    0 -0.18800769058E+01 -0.45593492381E+01 -0.17109004697E+02  0.18415493378E+02  0.47000000000E+01 0. -1.
         -5    1    1    2    0  503  0.18800769058E+01  0.45593492381E+01 -0.10378325721E+03  0.10400661917E+03  0.47000000000E+01 0.  1.
<mgrwt>
<rscale>  2 0.68126613E+01</rscale>
<asrwt>0</asrwt>
<pdfrwt beam="1">  1       21 0.11768092E-03 0.68126613E+01</pdfrwt>
<pdfrwt beam="2">  1       21 0.18716475E-01 0.68126613E+01</pdfrwt>
<totfact> 0.85304254E+08</totfact>
</mgrwt>
</event>
<event>
 4    1  0.3906087E+006  0.5430880E+01  0.7546771E-02  0.2495959E+00
         21   -1    0    0  503  502  0.00000000000E+00  0.00000000000E+00  0.29298472946E+00  0.29298472946E+00  0.00000000000E+00 0. -1.
         21   -1    0    0  501  503 -0.00000000000E+00 -0.00000000000E+00 -0.10400717662E+03  0.10400717662E+03  0.00000000000E+00 0. -1.
          5    1    1    2  501    0  0.23775291303E+01 -0.13235598983E+01 -0.42514160439E+02  0.42859634779E+02  0.47000000000E+01 0. -1.
         -5    1    1    2    0  502 -0.23775291303E+01  0.13235598983E+01 -0.61200031456E+02  0.61440526575E+02  0.47000000000E+01 0. -1.
<mgrwt>
<rscale>  2 0.54308798E+01</rscale>
<asrwt>0</asrwt>
<pdfrwt beam="1">  1       21 0.45074531E-04 0.54308798E+01</pdfrwt>
<pdfrwt beam="2">  1       21 0.16001119E-01 0.54308798E+01</pdfrwt>
<totfact> 0.33112409E+09</totfact>
</mgrwt>
</event>
<event>
 4    1  0.3906087E+006  0.5376614E+01  0.7546771E-02  0.2504387E+00
         21   -1    0    0  503  502  0.00000000000E+00  0.00000000000E+00  0.15230845272E+02  0.15230845272E+02  0.00000000000E+00 0.  1.
         21   -1    0    0  501  503 -0.00000000000E+00 -0.00000000000E+00 -0.90993865327E+01  0.90993865327E+01  0.00000000000E+00 0.  1.
          5    1    1    2  501    0  0.14383224306E+01 -0.21792672758E+01 -0.77565461416E+01  0.94377955753E+01  0.47000000000E+01 0.  1.
         -5    1    1    2    0  502 -0.14383224306E+01  0.21792672758E+01  0.13888004881E+02  0.14892436229E+02  0.47000000000E+01 0.  1.
<mgrwt>
<rscale>  2 0.53766139E+01</rscale>
<asrwt>0</asrwt>
<pdfrwt beam="1">  1       21 0.23432070E-02 0.53766139E+01</pdfrwt>
<pdfrwt beam="2">  1       21 0.13999056E-02 0.53766139E+01</pdfrwt>
<totfact> 0.53238474E+08</totfact>
</mgrwt>
</event>
<event>
 4    1  0.3906087E+006  0.1135485E+02  0.7546771E-02  0.2005200E+00
         21   -1    0    0  501  502  0.00000000000E+00  0.00000000000E+00  0.29102730496E+02  0.29102730496E+02  0.00000000000E+00 0. -1.
         21   -1    0    0  502  503 -0.00000000000E+00 -0.00000000000E+00 -0.53830245158E+01  0.53830245158E+01  0.00000000000E+00 0.  1.
          5    1    1    2  501    0 -0.67773328237E+01 -0.78045038048E+01  0.46056371923E+01  0.12253342964E+02  0.47000000000E+01 0.  1.
         -5    1    1    2    0  503  0.67773328237E+01  0.78045038048E+01  0.19114068788E+02  0.22232412048E+02  0.47000000000E+01 0. -1.
<mgrwt>
<rscale>  2 0.11354846E+02</rscale>
<asrwt>0</asrwt>
<pdfrwt beam="1">  1       21 0.44773431E-02 0.11354846E+02</pdfrwt>
<pdfrwt beam="2">  1       21 0.82815763E-03 0.11354846E+02</pdfrwt>
<totfact> 0.71179423E+08</totfact>
</mgrwt>
</event>
<event>
 4    1  0.3906087E+006  0.8854733E+01  0.7546771E-02  0.2146697E+00
         21   -1    0    0  501  502  0.00000000000E+00  0.00000000000E+00  0.25018115696E+01  0.25018115696E+01  0.00000000000E+00 0.  1.
         21   -1    0    0  502  503 -0.00000000000E+00 -0.00000000000E+00 -0.39551462502E+02  0.39551462502E+02  0.00000000000E+00 0. -1.
          5    1    1    2  501    0 -0.75025356104E+01  0.16808718379E+00 -0.89439789602E+01  0.12585748032E+02  0.47000000000E+01 0.  1.
         -5    1    1    2    0  503  0.75025356104E+01 -0.16808718379E+00 -0.28105671973E+02  0.29467526040E+02  0.47000000000E+01 0. -1.
<mgrwt>
<rscale>  2 0.88547329E+01</rscale>
<asrwt>0</asrwt>
<pdfrwt beam="1">  1       21 0.38489408E-03 0.88547329E+01</pdfrwt>
<pdfrwt beam="2">  1       21 0.60848405E-02 0.88547329E+01</pdfrwt>
<totfact> 0.11535773E+09</totfact>
</mgrwt>
</event>
<event>
 4    1  0.3906087E+006  0.6402635E+01  0.7546771E-02  0.2365791E+00
         21   -1    0    0  501  502  0.00000000000E+00  0.00000000000E+00  0.21683616829E+01  0.21683616829E+01  0.00000000000E+00 0. -1.
         21   -1    0    0  502  503 -0.00000000000E+00 -0.00000000000E+00 -0.23814008562E+02  0.23814008562E+02  0.00000000000E+00 0. -1.
          5    1    1    2  501    0 -0.40420822722E+01  0.16016580786E+01 -0.49247270297E+01  0.80775413346E+01  0.47000000000E+01 0. -1.
         -5    1    1    2    0  503  0.40420822722E+01 -0.16016580786E+01 -0.16720919850E+02  0.17904828911E+02  0.47000000000E+01 0. -1.
<mgrwt>
<rscale>  2 0.64026352E+01</rscale>
<asrwt>0</asrwt>
<pdfrwt beam="1">  1       21 0.33359412E-03 0.64026352E+01</pdfrwt>
<pdfrwt beam="2">  1       21 0.36636935E-02 0.64026352E+01</pdfrwt>
<totfact> 0.23883582E+09</totfact>
</mgrwt>
</event>
<event>
 4    1  0.3906087E+006  0.6280961E+01  0.7546771E-02  0.2380230E+00
         21   -1    0    0  503  502  0.00000000000E+00  0.00000000000E+00  0.22668752646E+00  0.22668752646E+00  0.00000000000E+00 0. -1.
         21   -1    0    0  501  503 -0.00000000000E+00 -0.00000000000E+00 -0.30125727843E+03  0.30125727843E+03  0.00000000000E+00 0. -1.
          5    1    1    2  501    0  0.17621132059E+01 -0.37756368032E+01 -0.24847674936E+03  0.24855612132E+03  0.47000000000E+01 0. -1.
         -5    1    1    2    0  502 -0.17621132059E+01  0.37756368032E+01 -0.52553841544E+02  0.52927844630E+02  0.47000000000E+01 0. -1.
<mgrwt>
<rscale>  2 0.62809614E+01</rscale>
<asrwt>0</asrwt>
<pdfrwt beam="1">  1       21 0.34875115E-04 0.62809614E+01</pdfrwt>
<pdfrwt beam="2">  1       21 0.46347126E-01 0.62809614E+01</pdfrwt>
<totfact> 0.88936633E+08</totfact>
</mgrwt>
</event>
<event>
 4    1  0.3906087E+006  0.5091988E+01  0.7546771E-02  0.2551090E+00
         21   -1    0    0  503  502  0.00000000000E+00  0.00000000000E+00  0.87543246167E-01  0.87543246167E-01  0.00000000000E+00 0. -1.
         21   -1    0    0  501  503 -0.00000000000E+00 -0.00000000000E+00 -0.13193583685E+04  0.13193583685E+04  0.00000000000E+00 0. -1.
          5    1    1    2  501    0 -0.19318347055E+01  0.32611863488E+00 -0.12406090371E+04  0.12406194869E+04  0.47000000000E+01 0. -1.
         -5    1    1    2    0  502  0.19318347055E+01 -0.32611863488E+00 -0.78661788227E+02  0.78826424921E+02  0.47000000000E+01 0. -1.
<mgrwt>
<rscale>  2 0.50919877E+01</rscale>
<asrwt>0</asrwt>
<pdfrwt beam="1">  1       21 0.13468395E-04 0.50919877E+01</pdfrwt>
<pdfrwt beam="2">  1       21 0.20297515E+00 0.50919877E+01</pdfrwt>
<totfact> 0.14307921E+08</totfact>
</mgrwt>
</event>
<event>
 4    1  0.3906087E+006  0.6775657E+01  0.7546771E-02  0.2324223E+00
         21   -1    0    0  501  502  0.00000000000E+00  0.00000000000E+00  0.44257246416E+02  0.44257246416E+02  0.00000000000E+00 0. -1.
         21   -1    0    0  502  503 -0.00000000000E+00 -0.00000000000E+00 -0.49857121987E+01  0.49857121987E+01  0.00000000000E+00 0.  1.
          5    1    1    2  501    0 -0.24662165803E+01 -0.42115682229E+01  0.41546652730E+02  0.42095532829E+02  0.47000000000E+01 0. -1.
         -5    1    1    2    0  503  0.24662165803E+01  0.42115682229E+01 -0.22751185124E+01  0.71474257857E+01  0.47000000000E+01 0.  1.
<mgrwt>
<rscale>  2 0.67756572E+01</rscale>
<asrwt>0</asrwt>
<pdfrwt beam="1">  1       21 0.68088069E-02 0.67756572E+01</pdfrwt>
<pdfrwt beam="2">  1       21 0.76703268E-03 0.67756572E+01</pdfrwt>
<totfact> 0.30872764E+08</totfact>
</mgrwt>
</event>
<event>
 4    1  0.3906087E+006  0.5275005E+01  0.7546771E-02  0.2520565E+00
         21   -1    0    0  501  502  0.00000000000E+00  0.00000000000E+00  0.13647615860E+02  0.13647615860E+02  0.00000000000E+00 0. -1.
         21   -1    0    0  502  503 -0.00000000000E+00 -0.00000000000E+00 -0.59648880419E+01  0.59648880419E+01  0.00000000000E+00 0.  1.
          5    1    1    2  501    0  0.23741716322E+01  0.31461689058E+00  0.11797060390E+02  0.12922705157E+02  0.47000000000E+01 0. -1.
         -5    1    1    2    0  503 -0.23741716322E+01 -0.31461689058E+00 -0.41143325723E+01  0.66897987446E+01  0.47000000000E+01 0.  1.
<mgrwt>
<rscale>  2 0.52750047E+01</rscale>
<asrwt>0</asrwt>
<pdfrwt beam="1">  1       21 0.20996332E-02 0.52750047E+01</pdfrwt>
<pdfrwt beam="2">  1       21 0.91767508E-03 0.52750047E+01</pdfrwt>
<totfact> 0.11076857E+09</totfact>
</mgrwt>
</event>
<event>
 4    1  0.3906087E+006  0.5130761E+01  0.7546771E-02  0.2544467E+00
         21   -1    0    0  501  502  0.00000000000E+00  0.00000000000E+00  0.70888374671E+02  0.70888374671E+02  0.00000000000E+00 0.  1.
         21   -1    0    0  502  503 -0.00000000000E+00 -0.00000000000E+00 -0.72983557667E+00  0.72983557667E+00  0.00000000000E+00 0.  1.
          5    1    1    2  501    0  0.12567881414E+01  0.16294745683E+01  0.60175828764E+02  0.60394164215E+02  0.47000000000E+01 0.  1.
         -5    1    1    2    0  503 -0.12567881414E+01 -0.16294745683E+01  0.99827103298E+01  0.11224046032E+02  0.47000000000E+01 0.  1.
<mgrwt>
<rscale>  2 0.51307605E+01</rscale>
<asrwt>0</asrwt>
<pdfrwt beam="1">  1       21 0.10905898E-01 0.51307605E+01</pdfrwt>
<pdfrwt beam="2">  1       21 0.11228245E-03 0.51307605E+01</pdfrwt>
<totfact> 0.16877085E+09</totfact>
</mgrwt>
</event>
<event>
 4    1  0.3906087E+006  0.7010312E+01  0.7546771E-02  0.2299955E+00
         21   -1    0    0  501  502  0.00000000000E+00  0.00000000000E+00  0.22221655938E+02  0.22221655938E+02  0.00000000000E+00 0.  1.
         21   -1    0    0  502  503 -0.00000000000E+00 -0.00000000000E+00 -0.23121087520E+01  0.23121087520E+01  0.00000000000E+00 0.  1.
          5    1    1    2  501    0 -0.51785100598E+01 -0.48734937795E+00  0.73966399529E+01  0.10190915486E+02  0.47000000000E+01 0.  1.
         -5    1    1    2    0  503  0.51785100598E+01  0.48734937795E+00  0.12512907233E+02  0.14342849204E+02  0.47000000000E+01 0.  1.
<mgrwt>
<rscale>  2 0.70103121E+01</rscale>
<asrwt>0</asrwt>
<pdfrwt beam="1">  1       21 0.34187162E-02 0.70103121E+01</pdfrwt>
<pdfrwt beam="2">  1       21 0.35570905E-03 0.70103121E+01</pdfrwt>
<totfact> 0.26018715E+09</totfact>
</mgrwt>
</event>
<event>
 4    1  0.3906087E+006  0.9082573E+01  0.7546771E-02  0.2131296E+00
         21   -1    0    0  503  502  0.00000000000E+00  0.00000000000E+00  0.32483855655E+00  0.32483855655E+00  0.00000000000E+00 0.  1.
         21   -1    0    0  501  503 -0.00000000000E+00 -0.00000000000E+00 -0.25520768241E+03  0.25520768241E+03  0.00000000000E+00 0.  1.
          5    1    1    2  501    0  0.43796119882E+01 -0.64204463223E+01 -0.11847637929E+03  0.11882401097E+03  0.47000000000E+01 0.  1.
         -5    1    1    2    0  502 -0.43796119882E+01  0.64204463223E+01 -0.13640646456E+03  0.13670851000E+03  0.47000000000E+01 0.  1.
<mgrwt>
<rscale>  2 0.90825730E+01</rscale>
<asrwt>0</asrwt>
<pdfrwt beam="1">  1       21 0.49975007E-04 0.90825730E+01</pdfrwt>
<pdfrwt beam="2">  1       21 0.39262842E-01 0.90825730E+01</pdfrwt>
<totfact> 0.92906971E+08</totfact>
</mgrwt>
</event>
<event>
 4    1  0.3906087E+006  0.7864246E+01  0.7546771E-02  0.2221784E+00
         21   -1    0    0  503  502  0.00000000000E+00  0.00000000000E+00  0.40507647074E+00  0.40507647074E+00  0.00000000000E+00 0. -1.
         21   -1    0    0  501  503 -0.00000000000E+00 -0.00000000000E+00 -0.38768861578E+03  0.38768861578E+03  0.00000000000E+00 0.  1.
          5    1    1    2  501    0 -0.18741214770E+01  0.60203018264E+01 -0.34472232634E+03  0.34481201929E+03  0.47000000000E+01 0.  1.
         -5    1    1    2    0  502  0.18741214770E+01 -0.60203018264E+01 -0.42561212969E+02  0.43281672967E+02  0.47000000000E+01 0. -1.
<mgrwt>
<rscale>  2 0.78642460E+01</rscale>
<asrwt>0</asrwt>
<pdfrwt beam="1">  1       21 0.62319379E-04 0.78642460E+01</pdfrwt>
<pdfrwt beam="2">  1       21 0.59644477E-01 0.78642460E+01</pdfrwt>
<totfact> 0.29476692E+08</totfact>
</mgrwt>
</event>
<event>
 4    1  0.3906087E+006  0.7465683E+01  0.7546771E-02  0.2256458E+00
         21   -1    0    0  503  502  0.00000000000E+00  0.00000000000E+00  0.52720918354E+03  0.52720918354E+03  0.00000000000E+00 0. -1.
         21   -1    0    0  501  503 -0.00000000000E+00 -0.00000000000E+00 -0.43546046206E+00  0.43546046206E+00  0.00000000000E+00 0. -1.
          5    1    1    2  501    0  0.20910702021E+01  0.54105317326E+01  0.33812464057E+02  0.34626855963E+02  0.47000000000E+01 0. -1.
         -5    1    1    2    0  502 -0.20910702021E+01 -0.54105317326E+01  0.49296125902E+03  0.49301778804E+03  0.47000000000E+01 0. -1.
<mgrwt>
<rscale>  2 0.74656834E+01</rscale>
<asrwt>0</asrwt>
<pdfrwt beam="1">  1       21 0.81108595E-01 0.74656834E+01</pdfrwt>
<pdfrwt beam="2">  1       21 0.66994339E-04 0.74656834E+01</pdfrwt>
<totfact> 0.14352947E+08</totfact>
</mgrwt>
</event>
<event>
 4    1  0.3906087E+006  0.6183515E+01  0.7546771E-02  0.2392134E+00
         21   -1    0    0  501  502  0.00000000000E+00  0.00000000000E+00  0.22828428473E+03  0.22828428473E+03  0.00000000000E+00 0. -1.
         21   -1    0    0  502  503 -0.00000000000E+00 -0.00000000000E+00 -0.18876757249E+00  0.18876757249E+00  0.00000000000E+00 0.  1.
          5    1    1    2  501    0 -0.30030324369E+01  0.26697658038E+01  0.15239897602E+03  0.15252437099E+03  0.47000000000E+01 0. -1.
         -5    1    1    2    0  503  0.30030324369E+01 -0.26697658038E+01  0.75696541138E+02  0.75948681316E+02  0.47000000000E+01 0.  1.
<mgrwt>
<rscale>  2 0.61835146E+01</rscale>
<asrwt>0</asrwt>
<pdfrwt beam="1">  1       21 0.35120438E-01 0.61835146E+01</pdfrwt>
<pdfrwt beam="2">  1       21 0.29041348E-04 0.61835146E+01</pdfrwt>
<totfact> 0.18261492E+09</totfact>
</mgrwt>
</event>
<event>
 4    1  0.3906087E+006  0.5754759E+01  0.7546771E-02  0.2448478E+00
         21   -1    0    0  503  502  0.00000000000E+00  0.00000000000E+00  0.10516911203E+01  0.10516911203E+01  0.00000000000E+00 0. -1.
         21   -1    0    0  501  503 -0.00000000000E+00 -0.00000000000E+00 -0.34660275906E+02  0.34660275906E+02  0.00000000000E+00 0. -1.
          5    1    1    2  501    0  0.31459706839E+01 -0.10630721840E+01 -0.22204977040E+02  0.22938575792E+02  0.47000000000E+01 0. -1.
         -5    1    1    2    0  502 -0.31459706839E+01  0.10630721840E+01 -0.11403607746E+02  0.12773391235E+02  0.47000000000E+01 0. -1.
<mgrwt>
<rscale>  2 0.57547592E+01</rscale>
<asrwt>0</asrwt>
<pdfrwt beam="1">  1       21 0.16179866E-03 0.57547592E+01</pdfrwt>
<pdfrwt beam="2">  1       21 0.53323492E-02 0.57547592E+01</pdfrwt>
<totfact> 0.33629240E+09</totfact>
</mgrwt>
</event>
<event>
 4    1  0.3906087E+006  0.4942776E+01  0.7546771E-02  0.2577406E+00
         21   -1    0    0  501  502  0.00000000000E+00  0.00000000000E+00  0.62955073274E+01  0.62955073274E+01  0.00000000000E+00 0. -1.
         21   -1    0    0  502  503 -0.00000000000E+00 -0.00000000000E+00 -0.39244095837E+01  0.39244095837E+01  0.00000000000E+00 0. -1.
          5    1    1    2  501    0 -0.11498500871E+01  0.10093951964E+01  0.17247766948E+01  0.52350633743E+01  0.47000000000E+01 0. -1.
         -5    1    1    2    0  503  0.11498500871E+01 -0.10093951964E+01  0.64632104892E+00  0.49848535368E+01  0.47000000000E+01 0. -1.
<mgrwt>
<rscale>  2 0.49427759E+01</rscale>
<asrwt>0</asrwt>
<pdfrwt beam="1">  1       21 0.96853959E-03 0.49427759E+01</pdfrwt>
<pdfrwt beam="2">  1       21 0.60375532E-03 0.49427759E+01</pdfrwt>
<totfact> 0.55145989E+09</totfact>
</mgrwt>
</event>
<event>
 4    1  0.3906087E+006  0.5949351E+01  0.7546771E-02  0.2422063E+00
         21   -1    0    0  501  502  0.00000000000E+00  0.00000000000E+00  0.45214111657E+00  0.45214111657E+00  0.00000000000E+00 0.  1.
         21   -1    0    0  502  503 -0.00000000000E+00 -0.00000000000E+00 -0.17374412880E+03  0.17374412880E+03  0.00000000000E+00 0.  1.
          5    1    1    2  501    0  0.17400797852E+01 -0.32057597105E+01 -0.22085324327E+02  0.22872610774E+02  0.47000000000E+01 0.  1.
         -5    1    1    2    0  503 -0.17400797852E+01  0.32057597105E+01 -0.15120666336E+03  0.15132365914E+03  0.47000000000E+01 0.  1.
<mgrwt>
<rscale>  2 0.59493506E+01</rscale>
<asrwt>0</asrwt>
<pdfrwt beam="1">  1       21 0.69560147E-04 0.59493506E+01</pdfrwt>
<pdfrwt beam="2">  1       21 0.26729876E-01 0.59493506E+01</pdfrwt>
<totfact> 0.87449138E+08</totfact>
</mgrwt>
</event>
<event>
 4    1  0.3906087E+006  0.6973192E+01  0.7546771E-02  0.2303705E+00
         21   -1    0    0  503  502  0.00000000000E+00  0.00000000000E+00  0.38214831543E+02  0.38214831543E+02  0.00000000000E+00 0. -1.
         21   -1    0    0  501  503 -0.00000000000E+00 -0.00000000000E+00 -0.30926252216E+01  0.30926252216E+01  0.00000000000E+00 0. -1.
          5    1    1    2  501    0 -0.42113060606E+01 -0.29665304472E+01  0.17160126226E+01  0.71812325510E+01  0.47000000000E+01 0. -1.
         -5    1    1    2    0  502  0.42113060606E+01  0.29665304472E+01  0.33406193699E+02  0.34126224214E+02  0.47000000000E+01 0. -1.
<mgrwt>
<rscale>  2 0.69731916E+01</rscale>
<asrwt>0</asrwt>
<pdfrwt beam="1">  1       21 0.58792045E-02 0.69731916E+01</pdfrwt>
<pdfrwt beam="2">  1       21 0.47578852E-03 0.69731916E+01</pdfrwt>
<totfact> 0.76936341E+08</totfact>
</mgrwt>
</event>
<event>
 4    1  0.3906087E+006  0.5415509E+01  0.7546771E-02  0.2498332E+00
         21   -1    0    0  503  502  0.00000000000E+00  0.00000000000E+00  0.46951082288E+02  0.46951082288E+02  0.00000000000E+00 0. -1.
         21   -1    0    0  501  503 -0.00000000000E+00 -0.00000000000E+00 -0.14456382630E+01  0.14456382630E+01  0.00000000000E+00 0. -1.
          5    1    1    2  501    0 -0.24537264244E+01 -0.11031598776E+01  0.45168703266E+01  0.70519396359E+01  0.47000000000E+01 0. -1.
         -5    1    1    2    0  502  0.24537264244E+01  0.11031598776E+01  0.40988573698E+02  0.41344780915E+02  0.47000000000E+01 0. -1.
<mgrwt>
<rscale>  2 0.54155088E+01</rscale>
<asrwt>0</asrwt>
<pdfrwt beam="1">  1       21 0.72232422E-02 0.54155088E+01</pdfrwt>
<pdfrwt beam="2">  1       21 0.22240592E-03 0.54155088E+01</pdfrwt>
<totfact> 0.13187724E+09</totfact>
</mgrwt>
</event>
<event>
 4    1  0.3906087E+006  0.5931822E+01  0.7546771E-02  0.2424382E+00
         21   -1    0    0  503  502  0.00000000000E+00  0.00000000000E+00  0.20059735304E+02  0.20059735304E+02  0.00000000000E+00 0. -1.
         21   -1    0    0  501  503 -0.00000000000E+00 -0.00000000000E+00 -0.23306461343E+01  0.23306461343E+01  0.00000000000E+00 0.  1.
          5    1    1    2  501    0  0.26319194275E+01  0.24838509841E+01  0.32963377925E+01  0.67861887998E+01  0.47000000000E+01 0.  1.
         -5    1    1    2    0  502 -0.26319194275E+01 -0.24838509841E+01  0.14432751378E+02  0.15604192639E+02  0.47000000000E+01 0. -1.
<mgrwt>
<rscale>  2 0.59318223E+01</rscale>
<asrwt>0</asrwt>
<pdfrwt beam="1">  1       21 0.30861130E-02 0.59318223E+01</pdfrwt>
<pdfrwt beam="2">  1       21 0.35856096E-03 0.59318223E+01</pdfrwt>
<totfact> 0.26023784E+09</totfact>
</mgrwt>
</event>
<event>
 4    1  0.3906087E+006  0.6819145E+01  0.7546771E-02  0.2319622E+00
         21   -1    0    0  503  502  0.00000000000E+00  0.00000000000E+00  0.20150369222E+01  0.20150369222E+01  0.00000000000E+00 0.  1.
         21   -1    0    0  501  503 -0.00000000000E+00 -0.00000000000E+00 -0.29190540433E+02  0.29190540433E+02  0.00000000000E+00 0.  1.
          5    1    1    2  501    0 -0.28695395935E+00 -0.49323824935E+01 -0.20728311658E+02  0.21821174208E+02  0.47000000000E+01 0.  1.
         -5    1    1    2    0  502  0.28695395935E+00  0.49323824935E+01 -0.64471918530E+01  0.93844031471E+01  0.47000000000E+01 0.  1.
<mgrwt>
<rscale>  2 0.68191451E+01</rscale>
<asrwt>0</asrwt>
<pdfrwt beam="1">  1       21 0.31000570E-03 0.68191451E+01</pdfrwt>
<pdfrwt beam="2">  1       21 0.44908521E-02 0.68191451E+01</pdfrwt>
<totfact> 0.20570913E+09</totfact>
</mgrwt>
</event>
<event>
 4    1  0.3906087E+006  0.4775722E+01  0.7546771E-02  0.2608547E+00
         21   -1    0    0  501  502  0.00000000000E+00  0.00000000000E+00  0.97753935388E+00  0.97753935388E+00  0.00000000000E+00 0.  1.
         21   -1    0    0  502  503 -0.00000000000E+00 -0.00000000000E+00 -0.30858998364E+02  0.30858998364E+02  0.00000000000E+00 0.  1.
          5    1    1    2  501    0 -0.82234490617E+00 -0.20315973127E+00 -0.70788148979E+01  0.85391536689E+01  0.47000000000E+01 0.  1.
         -5    1    1    2    0  503  0.82234490617E+00  0.20315973127E+00 -0.22802644112E+02  0.23297384049E+02  0.47000000000E+01 0.  1.
<mgrwt>
<rscale>  2 0.47757225E+01</rscale>
<asrwt>0</asrwt>
<pdfrwt beam="1">  1       21 0.15039069E-03 0.47757225E+01</pdfrwt>
<pdfrwt beam="2">  1       21 0.47475376E-02 0.47757225E+01</pdfrwt>
<totfact> 0.36624086E+09</totfact>
</mgrwt>
</event>
<event>
 4    1  0.3906087E+006  0.4823220E+01  0.7546771E-02  0.2599503E+00
         21   -1    0    0  501  502  0.00000000000E+00  0.00000000000E+00  0.75946765445E+01  0.75946765445E+01  0.00000000000E+00 0.  1.
         21   -1    0    0  502  503 -0.00000000000E+00 -0.00000000000E+00 -0.42175050335E+01  0.42175050335E+01  0.00000000000E+00 0. -1.
          5    1    1    2  501    0 -0.10728678521E+01  0.14968364638E+00  0.47785008290E+01  0.67895155051E+01  0.47000000000E+01 0.  1.
         -5    1    1    2    0  503  0.10728678521E+01 -0.14968364638E+00 -0.14013293179E+01  0.50226660729E+01  0.47000000000E+01 0. -1.
<mgrwt>
<rscale>  2 0.48232199E+01</rscale>
<asrwt>0</asrwt>
<pdfrwt beam="1">  1       21 0.11684118E-02 0.48232199E+01</pdfrwt>
<pdfrwt beam="2">  1       21 0.64884693E-03 0.48232199E+01</pdfrwt>
<totfact> 0.37444390E+09</totfact>
</mgrwt>
</event>
<event>
 4    1  0.3906087E+006  0.4963502E+01  0.7546771E-02  0.2573670E+00
         21   -1    0    0  501  502  0.00000000000E+00  0.00000000000E+00  0.11689365847E+01  0.11689365847E+01  0.00000000000E+00 0.  1.
         21   -1    0    0  502  503 -0.00000000000E+00 -0.00000000000E+00 -0.21101351016E+02  0.21101351016E+02  0.00000000000E+00 0.  1.
          5    1    1    2  501    0  0.60554205919E+00  0.14763692520E+01 -0.10353204958E+02  0.11481515591E+02  0.47000000000E+01 0.  1.
         -5    1    1    2    0  503 -0.60554205919E+00 -0.14763692520E+01 -0.95792094732E+01  0.10788772010E+02  0.47000000000E+01 0.  1.
<mgrwt>
<rscale>  2 0.49635015E+01</rscale>
<asrwt>0</asrwt>
<pdfrwt beam="1">  1       21 0.17983642E-03 0.49635015E+01</pdfrwt>
<pdfrwt beam="2">  1       21 0.32463614E-02 0.49635015E+01</pdfrwt>
<totfact> 0.52028614E+09</totfact>
</mgrwt>
</event>
<event>
 4    1  0.3906087E+006  0.5583389E+01  0.7546771E-02  0.2473020E+00
         21   -1    0    0  503  502  0.00000000000E+00  0.00000000000E+00  0.26857631268E+02  0.26857631268E+02  0.00000000000E+00 0. -1.
         21   -1    0    0  501  503 -0.00000000000E+00 -0.00000000000E+00 -0.13702718280E+01  0.13702718280E+01  0.00000000000E+00 0. -1.
          5    1    1    2  501    0 -0.28607456616E+01 -0.94887547317E+00  0.72243108897E+01  0.91304380089E+01  0.47000000000E+01 0. -1.
         -5    1    1    2    0  502  0.28607456616E+01  0.94887547317E+00  0.18263048550E+02  0.19097465087E+02  0.47000000000E+01 0. -1.
<mgrwt>
<rscale>  2 0.55833888E+01</rscale>
<asrwt>0</asrwt>
<pdfrwt beam="1">  1       21 0.41319429E-02 0.55833888E+01</pdfrwt>
<pdfrwt beam="2">  1       21 0.21081107E-03 0.55833888E+01</pdfrwt>
<totfact> 0.33287731E+09</totfact>
</mgrwt>
</event>
<event>
 4    1  0.3906087E+006  0.4813454E+01  0.7546771E-02  0.2601350E+00
         21   -1    0    0  503  502  0.00000000000E+00  0.00000000000E+00  0.27086709031E+02  0.27086709031E+02  0.00000000000E+00 0.  1.
         21   -1    0    0  501  503 -0.00000000000E+00 -0.00000000000E+00 -0.17060111074E+02  0.17060111074E+02  0.00000000000E+00 0.  1.
          5    1    1    2  501    0 -0.10031207130E+01 -0.27033985912E+00 -0.16499626096E+02  0.17187408069E+02  0.47000000000E+01 0.  1.
         -5    1    1    2    0  502  0.10031207130E+01  0.27033985912E+00  0.26526224053E+02  0.26959412036E+02  0.47000000000E+01 0.  1.
<mgrwt>
<rscale>  2 0.48134535E+01</rscale>
<asrwt>0</asrwt>
<pdfrwt beam="1">  1       21 0.41671860E-02 0.48134535E+01</pdfrwt>
<pdfrwt beam="2">  1       21 0.26246325E-02 0.48134535E+01</pdfrwt>
<totfact> 0.86920445E+07</totfact>
</mgrwt>
</event>
<event>
 4    1  0.3906087E+006  0.6719910E+01  0.7546771E-02  0.2330192E+00
         21   -1    0    0  503  502  0.00000000000E+00  0.00000000000E+00  0.50847716162E+00  0.50847716162E+00  0.00000000000E+00 0.  1.
         21   -1    0    0  501  503 -0.00000000000E+00 -0.00000000000E+00 -0.89759526198E+02  0.89759526198E+02  0.00000000000E+00 0. -1.
          5    1    1    2  501    0  0.47653089127E+01  0.59918538523E+00 -0.49270845476E+02  0.49726988709E+02  0.47000000000E+01 0. -1.
         -5    1    1    2    0  502 -0.47653089127E+01 -0.59918538523E+00 -0.39980203560E+02  0.40541014650E+02  0.47000000000E+01 0.  1.
<mgrwt>
<rscale>  2 0.67199101E+01</rscale>
<asrwt>0</asrwt>
<pdfrwt beam="1">  1       21 0.78227384E-04 0.67199101E+01</pdfrwt>
<pdfrwt beam="2">  1       21 0.13809135E-01 0.67199101E+01</pdfrwt>
<totfact> 0.23868653E+09</totfact>
</mgrwt>
</event>
<event>
 4    1  0.3906087E+006  0.7005038E+01  0.7546771E-02  0.2300486E+00
         21   -1    0    0  501  502  0.00000000000E+00  0.00000000000E+00  0.16114978360E+02  0.16114978360E+02  0.00000000000E+00 0. -1.
         21   -1    0    0  502  503 -0.00000000000E+00 -0.00000000000E+00 -0.32820906181E+01  0.32820906181E+01  0.00000000000E+00 0. -1.
          5    1    1    2  501    0  0.98986807017E+00  0.50990895357E+01  0.90229742534E+01  0.11422986355E+02  0.47000000000E+01 0. -1.
         -5    1    1    2    0  503 -0.98986807017E+00 -0.50990895357E+01  0.38099134883E+01  0.79740826230E+01  0.47000000000E+01 0. -1.
<mgrwt>
<rscale>  2 0.70050377E+01</rscale>
<asrwt>0</asrwt>
<pdfrwt beam="1">  1       21 0.24792274E-02 0.70050377E+01</pdfrwt>
<pdfrwt beam="2">  1       21 0.50493703E-03 0.70050377E+01</pdfrwt>
<totfact> 0.25550795E+09</totfact>
</mgrwt>
</event>
<event>
 4    1  0.3906087E+006  0.4994945E+01  0.7546771E-02  0.2568051E+00
         21   -1    0    0  501  502  0.00000000000E+00  0.00000000000E+00  0.19970647484E+02  0.19970647484E+02  0.00000000000E+00 0.  1.
         21   -1    0    0  502  503 -0.00000000000E+00 -0.00000000000E+00 -0.17249826647E+01  0.17249826647E+01  0.00000000000E+00 0.  1.
          5    1    1    2  501    0  0.16485799791E+01 -0.37638310129E+00  0.14819293466E+02  0.15638444264E+02  0.47000000000E+01 0.  1.
         -5    1    1    2    0  503 -0.16485799791E+01  0.37638310129E+00  0.34263713537E+01  0.60571858846E+01  0.47000000000E+01 0.  1.
<mgrwt>
<rscale>  2 0.49949455E+01</rscale>
<asrwt>0</asrwt>
<pdfrwt beam="1">  1       21 0.30724071E-02 0.49949455E+01</pdfrwt>
<pdfrwt beam="2">  1       21 0.26538196E-03 0.49949455E+01</pdfrwt>
<totfact> 0.33552285E+09</totfact>
</mgrwt>
</event>
<event>
 4    1  0.3906087E+006  0.5978582E+01  0.7546771E-02  0.2418220E+00
         21   -1    0    0  503  502  0.00000000000E+00  0.00000000000E+00  0.19757804130E+02  0.19757804130E+02  0.00000000000E+00 0.  1.
         21   -1    0    0  501  503 -0.00000000000E+00 -0.00000000000E+00 -0.47669211781E+01  0.47669211781E+01  0.00000000000E+00 0. -1.
          5    1    1    2  501    0  0.29998133361E+01 -0.21574428166E+01 -0.21637912177E+01  0.63580997155E+01  0.47000000000E+01 0. -1.
         -5    1    1    2    0  502 -0.29998133361E+01  0.21574428166E+01  0.17154674170E+02  0.18166625593E+02  0.47000000000E+01 0.  1.
<mgrwt>
<rscale>  2 0.59785817E+01</rscale>
<asrwt>0</asrwt>
<pdfrwt beam="1">  1       21 0.30396621E-02 0.59785817E+01</pdfrwt>
<pdfrwt beam="2">  1       21 0.73337250E-03 0.59785817E+01</pdfrwt>
<totfact> 0.99102143E+08</totfact>
</mgrwt>
</event>
<event>
 4    1  0.3906087E+006  0.4899005E+01  0.7546771E-02  0.2585388E+00
         21   -1    0    0  503  502  0.00000000000E+00  0.00000000000E+00  0.47264220831E+02  0.47264220831E+02  0.00000000000E+00 0.  1.
         21   -1    0    0  501  503 -0.00000000000E+00 -0.00000000000E+00 -0.77152811165E+00  0.77152811165E+00  0.00000000000E+00 0.  1.
          5    1    1    2  501    0 -0.11432312722E+01  0.77670618362E+00  0.92037962081E+01  0.10426414287E+02  0.47000000000E+01 0.  1.
         -5    1    1    2    0  502  0.11432312722E+01 -0.77670618362E+00  0.37288896511E+02  0.37609334656E+02  0.47000000000E+01 0.  1.
<mgrwt>
<rscale>  2 0.48990050E+01</rscale>
<asrwt>0</asrwt>
<pdfrwt beam="1">  1       21 0.72714163E-02 0.48990050E+01</pdfrwt>
<pdfrwt beam="2">  1       21 0.11869667E-03 0.48990050E+01</pdfrwt>
<totfact> 0.27558312E+09</totfact>
</mgrwt>
</event>
<event>
 4    1  0.3906087E+006  0.5953743E+01  0.7546771E-02  0.2421483E+00
         21   -1    0    0  503  502  0.00000000000E+00  0.00000000000E+00  0.24797197821E+02  0.24797197821E+02  0.00000000000E+00 0.  1.
         21   -1    0    0  501  503 -0.00000000000E+00 -0.00000000000E+00 -0.17436574636E+01  0.17436574636E+01  0.00000000000E+00 0.  1.
          5    1    1    2  501    0 -0.36101939526E+01 -0.56881834990E+00  0.58937272229E+01  0.83775339611E+01  0.47000000000E+01 0.  1.
         -5    1    1    2    0  502  0.36101939526E+01  0.56881834990E+00  0.17159813135E+02  0.18163321324E+02  0.47000000000E+01 0.  1.
<mgrwt>
<rscale>  2 0.59537429E+01</rscale>
<asrwt>0</asrwt>
<pdfrwt beam="1">  1       21 0.38149533E-02 0.59537429E+01</pdfrwt>
<pdfrwt beam="2">  1       21 0.26825501E-03 0.59537429E+01</pdfrwt>
<totfact> 0.28540459E+09</totfact>
</mgrwt>
</event>
<event>
 4    1  0.3906087E+006  0.8736389E+01  0.7546771E-02  0.2154947E+00
         21   -1    0    0  501  502  0.00000000000E+00  0.00000000000E+00  0.34579480869E+01  0.34579480869E+01  0.00000000000E+00 0. -1.
         21   -1    0    0  502  503 -0.00000000000E+00 -0.00000000000E+00 -0.47681442888E+02  0.47681442888E+02  0.00000000000E+00 0.  1.
          5    1    1    2  501    0 -0.58646802623E+01  0.44542143148E+01 -0.33726234003E+01  0.93647791400E+01  0.47000000000E+01 0. -1.
         -5    1    1    2    0  503  0.58646802623E+01 -0.44542143148E+01 -0.40850871401E+02  0.41774611835E+02  0.47000000000E+01 0.  1.
<mgrwt>
<rscale>  2 0.87363894E+01</rscale>
<asrwt>0</asrwt>
<pdfrwt beam="1">  1       21 0.53199206E-03 0.87363894E+01</pdfrwt>
<pdfrwt beam="2">  1       21 0.73356060E-02 0.87363894E+01</pdfrwt>
<totfact> 0.54260908E+08</totfact>
</mgrwt>
</event>
<event>
 4    1  0.3906087E+006  0.5247865E+01  0.7546771E-02  0.2524976E+00
         21   -1    0    0  503  502  0.00000000000E+00  0.00000000000E+00  0.10556994161E+03  0.10556994161E+03  0.00000000000E+00 0.  1.
         21   -1    0    0  501  503 -0.00000000000E+00 -0.00000000000E+00 -0.57444874872E+00  0.57444874872E+00  0.00000000000E+00 0.  1.
          5    1    1    2  501    0 -0.21356810116E+00 -0.23247526105E+01  0.13286165214E+02  0.14285036651E+02  0.47000000000E+01 0.  1.
         -5    1    1    2    0  502  0.21356810116E+00  0.23247526105E+01  0.91709327647E+02  0.91859353707E+02  0.47000000000E+01 0.  1.
<mgrwt>
<rscale>  2 0.52478649E+01</rscale>
<asrwt>0</asrwt>
<pdfrwt beam="1">  1       21 0.16241514E-01 0.52478649E+01</pdfrwt>
<pdfrwt beam="2">  1       21 0.88376814E-04 0.52478649E+01</pdfrwt>
<totfact> 0.12804792E+09</totfact>
</mgrwt>
</event>
<event>
 4    1  0.3906087E+006  0.6212376E+01  0.7546771E-02  0.2388576E+00
         21   -1    0    0  503  502  0.00000000000E+00  0.00000000000E+00  0.47304113888E+01  0.47304113888E+01  0.00000000000E+00 0.  1.
         21   -1    0    0  501  503 -0.00000000000E+00 -0.00000000000E+00 -0.13726927103E+02  0.13726927103E+02  0.00000000000E+00 0.  1.
          5    1    1    2  501    0 -0.27059561863E+01 -0.30300855435E+01 -0.10376048370E+02  0.12093634568E+02  0.47000000000E+01 0.  1.
         -5    1    1    2    0  502  0.27059561863E+01  0.30300855435E+01  0.13795326559E+01  0.63637039239E+01  0.47000000000E+01 0.  1.
<mgrwt>
<rscale>  2 0.62123761E+01</rscale>
<asrwt>0</asrwt>
<pdfrwt beam="1">  1       21 0.72775561E-03 0.62123761E+01</pdfrwt>
<pdfrwt beam="2">  1       21 0.21118349E-02 0.62123761E+01</pdfrwt>
<totfact> 0.17521861E+09</totfact>
</mgrwt>
</event>
<event>
 4    1  0.3906087E+006  0.9285747E+01  0.7546771E-02  0.2118071E+00
         21   -1    0    0  501  502  0.00000000000E+00  0.00000000000E+00  0.43029747543E+02  0.43029747543E+02  0.00000000000E+00 0. -1.
         21   -1    0    0  502  503 -0.00000000000E+00 -0.00000000000E+00 -0.36577847939E+01  0.36577847939E+01  0.00000000000E+00 0.  1.
          5    1    1    2  501    0 -0.59375739928E+01 -0.53740409952E+01  0.35383146188E+02  0.36581308557E+02  0.47000000000E+01 0. -1.
         -5    1    1    2    0  503  0.59375739928E+01  0.53740409952E+01  0.39888165607E+01  0.10106223780E+02  0.47000000000E+01 0.  1.
<mgrwt>
<rscale>  2 0.92857472E+01</rscale>
<asrwt>0</asrwt>
<pdfrwt beam="1">  1       21 0.66199608E-02 0.92857472E+01</pdfrwt>
<pdfrwt beam="2">  1       21 0.56273615E-03 0.92857472E+01</pdfrwt>
<totfact> 0.60861400E+08</totfact>
</mgrwt>
</event>
<event>
 4    1  0.3906087E+006  0.9891476E+01  0.7546771E-02  0.2081217E+00
         21   -1    0    0  503  502  0.00000000000E+00  0.00000000000E+00  0.19932772300E+01  0.19932772300E+01  0.00000000000E+00 0.  1.
         21   -1    0    0  501  503 -0.00000000000E+00 -0.00000000000E+00 -0.65956085213E+02  0.65956085213E+02  0.00000000000E+00 0.  1.
          5    1    1    2  501    0 -0.14220429419E+01  0.85865640369E+01 -0.49164096967E+02  0.50149274359E+02  0.47000000000E+01 0.  1.
         -5    1    1    2    0  502  0.14220429419E+01 -0.85865640369E+01 -0.14798711016E+02  0.17800088085E+02  0.47000000000E+01 0.  1.
<mgrwt>
<rscale>  2 0.98914755E+01</rscale>
<asrwt>0</asrwt>
<pdfrwt beam="1">  1       21 0.30665806E-03 0.98914755E+01</pdfrwt>
<pdfrwt beam="2">  1       21 0.10147089E-01 0.98914755E+01</pdfrwt>
<totfact> 0.76443006E+08</totfact>
</mgrwt>
</event>
<event>
 4    1  0.3906087E+006  0.1175360E+02  0.7546771E-02  0.1987074E+00
         21   -1    0    0  501  502  0.00000000000E+00  0.00000000000E+00  0.19049616715E+02  0.19049616715E+02  0.00000000000E+00 0.  1.
         21   -1    0    0  502  503 -0.00000000000E+00 -0.00000000000E+00 -0.12065392029E+02  0.12065392029E+02  0.00000000000E+00 0. -1.
          5    1    1    2  501    0  0.16433089338E+01 -0.10646912182E+02  0.13318554266E+02  0.17763194842E+02  0.47000000000E+01 0.  1.
         -5    1    1    2    0  503 -0.16433089338E+01  0.10646912182E+02 -0.63343295800E+01  0.13351813902E+02  0.47000000000E+01 0. -1.
<mgrwt>
<rscale>  2 0.11753604E+02</rscale>
<asrwt>0</asrwt>
<pdfrwt beam="1">  1       21 0.29307103E-02 0.11753604E+02</pdfrwt>
<pdfrwt beam="2">  1       21 0.18562141E-02 0.11753604E+02</pdfrwt>
<totfact> 0.42161907E+08</totfact>
</mgrwt>
</event>
<event>
 4    1  0.3906087E+006  0.4804884E+01  0.7546771E-02  0.2602976E+00
         21   -1    0    0  503  502  0.00000000000E+00  0.00000000000E+00  0.82256994662E+01  0.82256994662E+01  0.00000000000E+00 0. -1.
         21   -1    0    0  501  503 -0.00000000000E+00 -0.00000000000E+00 -0.39832257954E+01  0.39832257954E+01  0.00000000000E+00 0. -1.
          5    1    1    2  501    0  0.65621094385E+00  0.75252675776E+00 -0.11964418610E+01  0.49516040281E+01  0.47000000000E+01 0. -1.
         -5    1    1    2    0  502 -0.65621094385E+00 -0.75252675776E+00  0.54389155318E+01  0.72573212335E+01  0.47000000000E+01 0. -1.
<mgrwt>
<rscale>  2 0.48048839E+01</rscale>
<asrwt>0</asrwt>
<pdfrwt beam="1">  1       21 0.12654922E-02 0.48048839E+01</pdfrwt>
<pdfrwt beam="2">  1       21 0.61280397E-03 0.48048839E+01</pdfrwt>
<totfact> 0.36088493E+09</totfact>
</mgrwt>
</event>
<event>
 4    1  0.3906087E+006  0.9173615E+01  0.7546771E-02  0.2125313E+00
         21   -1    0    0  501  502  0.00000000000E+00  0.00000000000E+00  0.12247187770E+01  0.12247187770E+01  0.00000000000E+00 0. -1.
         21   -1    0    0  502  503 -0.00000000000E+00 -0.00000000000E+00 -0.24516560854E+03  0.24516560854E+03  0.00000000000E+00 0.  1.
          5    1    1    2  501    0 -0.25150083205E+01 -0.74659191479E+01 -0.17455882431E+02  0.19719610722E+02  0.47000000000E+01 0. -1.
         -5    1    1    2    0  503  0.25150083205E+01  0.74659191479E+01 -0.22648500733E+03  0.22667071659E+03  0.47000000000E+01 0.  1.
<mgrwt>
<rscale>  2 0.91736152E+01</rscale>
<asrwt>0</asrwt>
<pdfrwt beam="1">  1       21 0.18841818E-03 0.91736152E+01</pdfrwt>
<pdfrwt beam="2">  1       21 0.37717804E-01 0.91736152E+01</pdfrwt>
<totfact> 0.16197433E+08</totfact>
</mgrwt>
</event>
<event>
 4    1  0.3906087E+006  0.5808710E+01  0.7546771E-02  0.2441005E+00
         21   -1    0    0  503  502  0.00000000000E+00  0.00000000000E+00  0.14377930205E+00  0.14377930205E+00  0.00000000000E+00 0.  1.
         21   -1    0    0  501  503 -0.00000000000E+00 -0.00000000000E+00 -0.23562526469E+03  0.23562526469E+03  0.00000000000E+00 0. -1.
          5    1    1    2  501    0  0.15111280755E+01 -0.30606548397E+01 -0.12523504332E+03  0.12536968211E+03  0.47000000000E+01 0. -1.
         -5    1    1    2    0  502 -0.15111280755E+01  0.30606548397E+01 -0.11024644207E+03  0.11039936189E+03  0.47000000000E+01 0.  1.
<mgrwt>
<rscale>  2 0.58087104E+01</rscale>
<asrwt>0</asrwt>
<pdfrwt beam="1">  1       21 0.22119818E-04 0.58087104E+01</pdfrwt>
<pdfrwt beam="2">  1       21 0.36250164E-01 0.58087104E+01</pdfrwt>
<totfact> 0.23683316E+09</totfact>
</mgrwt>
</event>
<event>
 4    1  0.3906087E+006  0.7446509E+01  0.7546771E-02  0.2258202E+00
         21   -1    0    0  503  502  0.00000000000E+00  0.00000000000E+00  0.81364049132E+02  0.81364049132E+02  0.00000000000E+00 0. -1.
         21   -1    0    0  501  503 -0.00000000000E+00 -0.00000000000E+00 -0.69816683333E+00  0.69816683333E+00  0.00000000000E+00 0.  1.
          5    1    1    2  501    0  0.46952774119E+01  0.33637575120E+01  0.33995458154E+02  0.34801460741E+02  0.47000000000E+01 0. -1.
         -5    1    1    2    0  502 -0.46952774119E+01 -0.33637575120E+01  0.46670424145E+02  0.47260755225E+02  0.47000000000E+01 0.  1.
<mgrwt>
<rscale>  2 0.74465089E+01</rscale>
<asrwt>0</asrwt>
<pdfrwt beam="1">  1       21 0.12517539E-01 0.74465089E+01</pdfrwt>
<pdfrwt beam="2">  1       21 0.10741035E-03 0.74465089E+01</pdfrwt>
<totfact> 0.19578317E+09</totfact>
</mgrwt>
</event>
<event>
 4    1  0.3906087E+006  0.4941783E+01  0.7546771E-02  0.2577586E+00
         21   -1    0    0  503  502  0.00000000000E+00  0.00000000000E+00  0.42093001888E+02  0.42093001888E+02  0.00000000000E+00 0. -1.
         21   -1    0    0  501  503 -0.00000000000E+00 -0.00000000000E+00 -0.53341576648E+01  0.53341576648E+01  0.00000000000E+00 0. -1.
          5    1    1    2  501    0 -0.15242707603E+01 -0.88403431063E-01 -0.40074331236E+01  0.63624473874E+01  0.47000000000E+01 0. -1.
         -5    1    1    2    0  502  0.15242707603E+01  0.88403431063E-01  0.40766277347E+02  0.41064712165E+02  0.47000000000E+01 0. -1.
<mgrwt>
<rscale>  2 0.49417827E+01</rscale>
<asrwt>0</asrwt>
<pdfrwt beam="1">  1       21 0.64758462E-02 0.49417827E+01</pdfrwt>
<pdfrwt beam="2">  1       21 0.82063967E-03 0.49417827E+01</pdfrwt>
<totfact> 0.23883470E+08</totfact>
</mgrwt>
</event>
<event>
 4    1  0.3906087E+006  0.5952705E+01  0.7546771E-02  0.2421620E+00
         21   -1    0    0  503  502  0.00000000000E+00  0.00000000000E+00  0.13286820996E+00  0.13286820996E+00  0.00000000000E+00 0. -1.
         21   -1    0    0  501  503 -0.00000000000E+00 -0.00000000000E+00 -0.26994508280E+03  0.26994508280E+03  0.00000000000E+00 0. -1.
          5    1    1    2  501    0  0.23590620209E+01  0.27891796064E+01 -0.14973352417E+03  0.14985180332E+03  0.47000000000E+01 0. -1.
         -5    1    1    2    0  502 -0.23590620209E+01 -0.27891796064E+01 -0.12007869042E+03  0.12022614769E+03  0.47000000000E+01 0. -1.
<mgrwt>
<rscale>  2 0.59527050E+01</rscale>
<asrwt>0</asrwt>
<pdfrwt beam="1">  1       21 0.20441405E-04 0.59527050E+01</pdfrwt>
<pdfrwt beam="2">  1       21 0.41529724E-01 0.59527050E+01</pdfrwt>
<totfact> 0.21185830E+09</totfact>
</mgrwt>
</event>
<event>
 4    1  0.3906087E+006  0.8725432E+01  0.7546771E-02  0.2155720E+00
         21   -1    0    0  501  502  0.00000000000E+00  0.00000000000E+00  0.48913599629E+02  0.48913599629E+02  0.00000000000E+00 0. -1.
         21   -1    0    0  502  503 -0.00000000000E+00 -0.00000000000E+00 -0.86907905939E+02  0.86907905939E+02  0.00000000000E+00 0.  1.
          5    1    1    2  501    0 -0.71789029869E+01 -0.15832004163E+01  0.48302726167E+02  0.49084483565E+02  0.47000000000E+01 0. -1.
         -5    1    1    2    0  503  0.71789029869E+01  0.15832004163E+01 -0.86297032477E+02  0.86737022003E+02  0.47000000000E+01 0.  1.
<mgrwt>
<rscale>  2 0.87254325E+01</rscale>
<asrwt>0</asrwt>
<pdfrwt beam="1">  1       21 0.75251692E-02 0.87254325E+01</pdfrwt>
<pdfrwt beam="2">  1       21 0.13370447E-01 0.87254325E+01</pdfrwt>
<totfact> 0.42420944E+06</totfact>
</mgrwt>
</event>
<event>
 4    1  0.3906087E+006  0.2433044E+02  0.7546771E-02  0.1670810E+00
         21   -1    0    0  503  502  0.00000000000E+00  0.00000000000E+00  0.21440294896E+03  0.21440294896E+03  0.00000000000E+00 0. -1.
         21   -1    0    0  501  503 -0.00000000000E+00 -0.00000000000E+00 -0.27629700234E+01  0.27629700234E+01  0.00000000000E+00 0.  1.
          5    1    1    2  501    0 -0.20853615800E+02 -0.11619248647E+02  0.10870670794E+03  0.11139622337E+03  0.47000000000E+01 0.  1.
         -5    1    1    2    0  502  0.20853615800E+02  0.11619248647E+02  0.10293327099E+03  0.10576969561E+03  0.47000000000E+01 0. -1.
<mgrwt>
<rscale>  2 0.24330438E+02</rscale>
<asrwt>0</asrwt>
<pdfrwt beam="1">  1       21 0.32985056E-01 0.24330438E+02</pdfrwt>
<pdfrwt beam="2">  1       21 0.42507248E-03 0.24330438E+02</pdfrwt>
<totfact> 0.90963554E+07</totfact>
</mgrwt>
</event>
<event>
 4    1  0.3906087E+006  0.5201980E+01  0.7546771E-02  0.2532524E+00
         21   -1    0    0  503  502  0.00000000000E+00  0.00000000000E+00  0.45172156944E+00  0.45172156944E+00  0.00000000000E+00 0.  1.
         21   -1    0    0  501  503 -0.00000000000E+00 -0.00000000000E+00 -0.60531851516E+02  0.60531851516E+02  0.00000000000E+00 0.  1.
          5    1    1    2  501    0  0.18760362262E+01  0.12046092885E+01 -0.33141826570E+02  0.33547596991E+02  0.47000000000E+01 0.  1.
         -5    1    1    2    0  502 -0.18760362262E+01 -0.12046092885E+01 -0.26938303377E+02  0.27435976095E+02  0.47000000000E+01 0.  1.
<mgrwt>
<rscale>  2 0.52019800E+01</rscale>
<asrwt>0</asrwt>
<pdfrwt beam="1">  1       21 0.69495665E-04 0.52019800E+01</pdfrwt>
<pdfrwt beam="2">  1       21 0.93125873E-02 0.52019800E+01</pdfrwt>
<totfact> 0.41148468E+09</totfact>
</mgrwt>
</event>
<event>
 4    1  0.3906087E+006  0.6653500E+01  0.7546771E-02  0.2337411E+00
         21   -1    0    0  503  502  0.00000000000E+00  0.00000000000E+00  0.29304237067E+03  0.29304237067E+03  0.00000000000E+00 0. -1.
         21   -1    0    0  501  503 -0.00000000000E+00 -0.00000000000E+00 -0.34002554610E+00  0.34002554610E+00  0.00000000000E+00 0. -1.
          5    1    1    2  501    0 -0.26367773256E+00  0.47020772000E+01  0.36997982450E+02  0.37591485224E+02  0.47000000000E+01 0. -1.
         -5    1    1    2    0  502  0.26367773256E+00 -0.47020772000E+01  0.25570436267E+03  0.25579091099E+03  0.47000000000E+01 0. -1.
<mgrwt>
<rscale>  2 0.66534995E+01</rscale>
<asrwt>0</asrwt>
<pdfrwt beam="1">  1       21 0.45083240E-01 0.66534995E+01</pdfrwt>
<pdfrwt beam="2">  1       21 0.52311857E-04 0.66534995E+01</pdfrwt>
<totfact> 0.56428941E+08</totfact>
</mgrwt>
</event>
<event>
 4    1  0.3906087E+006  0.4774987E+01  0.7546771E-02  0.2608689E+00
         21   -1    0    0  501  502  0.00000000000E+00  0.00000000000E+00  0.11326529856E+01  0.11326529856E+01  0.00000000000E+00 0.  1.
         21   -1    0    0  502  503 -0.00000000000E+00 -0.00000000000E+00 -0.20206403419E+02  0.20206403419E+02  0.00000000000E+00 0.  1.
          5    1    1    2  501    0  0.45790431643E-01 -0.84166840015E+00 -0.88815452063E+01  0.10083766544E+02  0.47000000000E+01 0. -1.
         -5    1    1    2    0  503 -0.45790431643E-01  0.84166840015E+00 -0.10192205227E+02  0.11255289861E+02  0.47000000000E+01 0. -1.
<mgrwt>
<rscale>  2 0.47749872E+01</rscale>
<asrwt>0</asrwt>
<pdfrwt beam="1">  1       21 0.17425432E-03 0.47749872E+01</pdfrwt>
<pdfrwt beam="2">  1       21 0.31086772E-02 0.47749872E+01</pdfrwt>
<totfact> 0.55393980E+09</totfact>
</mgrwt>
</event>
<event>
 4    1  0.3906087E+006  0.8796817E+01  0.7546771E-02  0.2150712E+00
         21   -1    0    0  503  502  0.00000000000E+00  0.00000000000E+00  0.13003828945E+04  0.13003828945E+04  0.00000000000E+00 0.  1.
         21   -1    0    0  501  503 -0.00000000000E+00 -0.00000000000E+00 -0.59523237991E-01  0.59523237991E-01  0.00000000000E+00 0. -1.
          5    1    1    2  501    0  0.73707494881E+01 -0.98287426316E+00  0.63997152484E+03  0.64003198092E+03  0.47000000000E+01 0.  1.
         -5    1    1    2    0  502 -0.73707494881E+01  0.98287426316E+00  0.66035184646E+03  0.66041043686E+03  0.47000000000E+01 0. -1.
<mgrwt>
<rscale>  2 0.87968170E+01</rscale>
<asrwt>0</asrwt>
<pdfrwt beam="1">  1       21 0.20003616E+00 0.87968170E+01</pdfrwt>
<pdfrwt beam="2">  1       21 0.91584627E-05 0.87968170E+01</pdfrwt>
<totfact> 0.32728245E+08</totfact>
</mgrwt>
</event>
<event>
 4    1  0.3906087E+006  0.6109891E+01  0.7546771E-02  0.2401337E+00
         21   -1    0    0  503  502  0.00000000000E+00  0.00000000000E+00  0.31789216093E+00  0.31789216093E+00  0.00000000000E+00 0.  1.
         21   -1    0    0  501  503 -0.00000000000E+00 -0.00000000000E+00 -0.21826661400E+03  0.21826661400E+03  0.00000000000E+00 0. -1.
          5    1    1    2  501    0  0.36260413694E+01  0.14465803989E+01 -0.18325919308E+03  0.18336101718E+03  0.47000000000E+01 0. -1.
         -5    1    1    2    0  502 -0.36260413694E+01 -0.14465803989E+01 -0.34689528757E+02  0.35223488985E+02  0.47000000000E+01 0.  1.
<mgrwt>
<rscale>  2 0.61098912E+01</rscale>
<asrwt>0</asrwt>
<pdfrwt beam="1">  1       21 0.48906279E-04 0.61098912E+01</pdfrwt>
<pdfrwt beam="2">  1       21 0.33579622E-01 0.61098912E+01</pdfrwt>
<totfact> 0.97341965E+08</totfact>
</mgrwt>
</event>
<event>
 4    1  0.3906087E+006  0.4819068E+01  0.7546771E-02  0.2600288E+00
         21   -1    0    0  501  502  0.00000000000E+00  0.00000000000E+00  0.31203338047E+03  0.31203338047E+03  0.00000000000E+00 0. -1.
         21   -1    0    0  502  503 -0.00000000000E+00 -0.00000000000E+00 -0.27773948459E+00  0.27773948459E+00  0.00000000000E+00 0. -1.
          5    1    1    2  501    0  0.84010939614E+00  0.65393735132E+00  0.28948249638E+03  0.28952260556E+03  0.47000000000E+01 0. -1.
         -5    1    1    2    0  503 -0.84010939614E+00 -0.65393735132E+00  0.22273144606E+02  0.22788514399E+02  0.47000000000E+01 0. -1.
<mgrwt>
<rscale>  2 0.48190682E+01</rscale>
<asrwt>0</asrwt>
<pdfrwt beam="1">  1       21 0.48004855E-01 0.48190682E+01</pdfrwt>
<pdfrwt beam="2">  1       21 0.42729401E-04 0.48190682E+01</pdfrwt>
<totfact> 0.51994542E+08</totfact>
</mgrwt>
</event>
<event>
 4    1  0.3906087E+006  0.5202347E+01  0.7546771E-02  0.2532463E+00
         21   -1    0    0  501  502  0.00000000000E+00  0.00000000000E+00  0.90874043855E-01  0.90874043855E-01  0.00000000000E+00 0.  1.
         21   -1    0    0  502  503 -0.00000000000E+00 -0.00000000000E+00 -0.35646320426E+03  0.35646320426E+03  0.00000000000E+00 0.  1.
          5    1    1    2  501    0 -0.21912960622E+01  0.41549645934E+00 -0.10587849717E+03  0.10600622896E+03  0.47000000000E+01 0.  1.
         -5    1    1    2    0  503  0.21912960622E+01 -0.41549645934E+00 -0.25049383305E+03  0.25054784934E+03  0.47000000000E+01 0.  1.
<mgrwt>
<rscale>  2 0.52023471E+01</rscale>
<asrwt>0</asrwt>
<pdfrwt beam="1">  1       21 0.13980644E-04 0.52023471E+01</pdfrwt>
<pdfrwt beam="2">  1       21 0.54840407E-01 0.52023471E+01</pdfrwt>
<totfact> 0.19198256E+09</totfact>
</mgrwt>
</event>
<event>
 4    1  0.3906087E+006  0.5983794E+01  0.7546771E-02  0.2417538E+00
         21   -1    0    0  503  502  0.00000000000E+00  0.00000000000E+00  0.20108056635E+02  0.20108056635E+02  0.00000000000E+00 0. -1.
         21   -1    0    0  501  503 -0.00000000000E+00 -0.00000000000E+00 -0.97798857284E+01  0.97798857284E+01  0.00000000000E+00 0. -1.
          5    1    1    2  501    0 -0.21080819802E+01  0.30449599799E+01 -0.83511266557E+01  0.10273612185E+02  0.47000000000E+01 0. -1.
         -5    1    1    2    0  502  0.21080819802E+01 -0.30449599799E+01  0.18679297563E+02  0.19614330179E+02  0.47000000000E+01 0. -1.
<mgrwt>
<rscale>  2 0.59837940E+01</rscale>
<asrwt>0</asrwt>
<pdfrwt beam="1">  1       21 0.30935471E-02 0.59837940E+01</pdfrwt>
<pdfrwt beam="2">  1       21 0.15045978E-02 0.59837940E+01</pdfrwt>
<totfact> 0.35025817E+08</totfact>
</mgrwt>
</event>
<event>
 4    1  0.3906087E+006  0.7537334E+01  0.7546771E-02  0.2250006E+00
         21   -1    0    0  503  502  0.00000000000E+00  0.00000000000E+00  0.26861112546E+00  0.26861112546E+00  0.00000000000E+00 0. -1.
         21   -1    0    0  501  503 -0.00000000000E+00 -0.00000000000E+00 -0.82642872363E+03  0.82642872363E+03  0.00000000000E+00 0.  1.
          5    1    1    2  501    0 -0.58634651508E+01  0.58410516936E+00 -0.76963464792E+03  0.76967155506E+03  0.47000000000E+01 0.  1.
         -5    1    1    2    0  502  0.58634651508E+01 -0.58410516936E+00 -0.56525464586E+02  0.57025779688E+02  0.47000000000E+01 0. -1.
<mgrwt>
<rscale>  2 0.75373339E+01</rscale>
<asrwt>0</asrwt>
<pdfrwt beam="1">  1       21 0.41325489E-04 0.75373339E+01</pdfrwt>
<pdfrwt beam="2">  1       21 0.12714073E+00 0.75373339E+01</pdfrwt>
<totfact> 0.10978985E+08</totfact>
</mgrwt>
</event>
<event>
 4    1  0.3906087E+006  0.5657078E+01  0.7546771E-02  0.2462313E+00
         21   -1    0    0  501  502  0.00000000000E+00  0.00000000000E+00  0.11068081567E+03  0.11068081567E+03  0.00000000000E+00 0. -1.
         21   -1    0    0  502  503 -0.00000000000E+00 -0.00000000000E+00 -0.42066401069E+00  0.42066401069E+00  0.00000000000E+00 0. -1.
          5    1    1    2  501    0 -0.14019380088E+01  0.28190598391E+01  0.86191441800E+02  0.86376890243E+02  0.47000000000E+01 0. -1.
         -5    1    1    2    0  503  0.14019380088E+01 -0.28190598391E+01  0.24068709864E+02  0.24724589442E+02  0.47000000000E+01 0. -1.
<mgrwt>
<rscale>  2 0.56570777E+01</rscale>
<asrwt>0</asrwt>
<pdfrwt beam="1">  1       21 0.17027795E-01 0.56570777E+01</pdfrwt>
<pdfrwt beam="2">  1       21 0.64717628E-04 0.56570777E+01</pdfrwt>
<totfact> 0.19214027E+09</totfact>
</mgrwt>
</event>
<event>
 4    1  0.3906087E+006  0.8489346E+01  0.7546771E-02  0.2172759E+00
         21   -1    0    0  503  502  0.00000000000E+00  0.00000000000E+00  0.22922630464E+03  0.22922630464E+03  0.00000000000E+00 0. -1.
         21   -1    0    0  501  503 -0.00000000000E+00 -0.00000000000E+00 -0.34107586432E+00  0.34107586432E+00  0.00000000000E+00 0.  1.
          5    1    1    2  501    0 -0.37408026196E+01  0.59987829445E+01  0.14654261418E+03  0.14678830597E+03  0.47000000000E+01 0. -1.
         -5    1    1    2    0  502  0.37408026196E+01 -0.59987829445E+01  0.82342614596E+02  0.82779074527E+02  0.47000000000E+01 0.  1.
<mgrwt>
<rscale>  2 0.84893463E+01</rscale>
<asrwt>0</asrwt>
<pdfrwt beam="1">  1       21 0.35265462E-01 0.84893463E+01</pdfrwt>
<pdfrwt beam="2">  1       21 0.52473393E-04 0.84893463E+01</pdfrwt>
<totfact> 0.10115795E+09</totfact>
</mgrwt>
</event>
<event>
 4    1  0.3906087E+006  0.4717174E+01  0.7546771E-02  0.2619913E+00
         21   -1    0    0  501  502  0.00000000000E+00  0.00000000000E+00  0.34769860286E+02  0.34769860286E+02  0.00000000000E+00 0.  1.
         21   -1    0    0  502  503 -0.00000000000E+00 -0.00000000000E+00 -0.12995688712E+02  0.12995688712E+02  0.00000000000E+00 0.  1.
          5    1    1    2  501    0 -0.23609614082E+00  0.32556394076E+00  0.34174383806E+02  0.34498409265E+02  0.47000000000E+01 0.  1.
         -5    1    1    2    0  503  0.23609614082E+00 -0.32556394076E+00 -0.12400212232E+02  0.13267139732E+02  0.47000000000E+01 0.  1.
<mgrwt>
<rscale>  2 0.47171743E+01</rscale>
<asrwt>0</asrwt>
<pdfrwt beam="1">  1       21 0.53492092E-02 0.47171743E+01</pdfrwt>
<pdfrwt beam="2">  1       21 0.19993367E-02 0.47171743E+01</pdfrwt>
<totfact> 0.87545425E+07</totfact>
</mgrwt>
</event>
<event>
 4    1  0.3906087E+006  0.7003659E+01  0.7546771E-02  0.2300625E+00
         21   -1    0    0  501  502  0.00000000000E+00  0.00000000000E+00  0.30117700624E+00  0.30117700624E+00  0.00000000000E+00 0.  1.
         21   -1    0    0  502  503 -0.00000000000E+00 -0.00000000000E+00 -0.16294717263E+03  0.16294717263E+03  0.00000000000E+00 0.  1.
          5    1    1    2  501    0 -0.51634394550E+01  0.54783810125E+00 -0.83154483786E+02  0.83448902973E+02  0.47000000000E+01 0.  1.
         -5    1    1    2    0  503  0.51634394550E+01 -0.54783810125E+00 -0.79491511834E+02  0.79799446660E+02  0.47000000000E+01 0.  1.
<mgrwt>
<rscale>  2 0.70036586E+01</rscale>
<asrwt>0</asrwt>
<pdfrwt beam="1">  1       21 0.46334851E-04 0.70036586E+01</pdfrwt>
<pdfrwt beam="2">  1       21 0.25068835E-01 0.70036586E+01</pdfrwt>
<totfact> 0.18938653E+09</totfact>
</mgrwt>
</event>
<event>
 4    1  0.3906087E+006  0.6964423E+01  0.7546771E-02  0.2304595E+00
         21   -1    0    0  503  502  0.00000000000E+00  0.00000000000E+00  0.53620632841E+02  0.53620632841E+02  0.00000000000E+00 0. -1.
         21   -1    0    0  501  503 -0.00000000000E+00 -0.00000000000E+00 -0.10547935810E+01  0.10547935810E+01  0.00000000000E+00 0.  1.
          5    1    1    2  501    0  0.91455852526E+00 -0.50573478202E+01  0.15965784155E+02  0.17418652300E+02  0.47000000000E+01 0.  1.
         -5    1    1    2    0  502 -0.91455852526E+00  0.50573478202E+01  0.36600055105E+02  0.37256774122E+02  0.47000000000E+01 0. -1.
<mgrwt>
<rscale>  2 0.69644228E+01</rscale>
<asrwt>0</asrwt>
<pdfrwt beam="1">  1       21 0.82493260E-02 0.69644228E+01</pdfrwt>
<pdfrwt beam="2">  1       21 0.16227598E-03 0.69644228E+01</pdfrwt>
<totfact> 0.20322733E+09</totfact>
</mgrwt>
</event>
<event>
 4    1  0.3906087E+006  0.4928722E+01  0.7546771E-02  0.2579956E+00
         21   -1    0    0  501  502  0.00000000000E+00  0.00000000000E+00  0.54939809282E+02  0.54939809282E+02  0.00000000000E+00 0.  1.
         21   -1    0    0  502  503 -0.00000000000E+00 -0.00000000000E+00 -0.10830510776E+01  0.10830510776E+01  0.00000000000E+00 0.  1.
          5    1    1    2  501    0  0.73336869593E+00 -0.12901441303E+01  0.48476143309E+02  0.48726058446E+02  0.47000000000E+01 0.  1.
         -5    1    1    2    0  503 -0.73336869593E+00  0.12901441303E+01  0.53806148955E+01  0.72968019142E+01  0.47000000000E+01 0.  1.
<mgrwt>
<rscale>  2 0.49287221E+01</rscale>
<asrwt>0</asrwt>
<pdfrwt beam="1">  1       21 0.84522762E-02 0.49287221E+01</pdfrwt>
<pdfrwt beam="2">  1       21 0.16662329E-03 0.49287221E+01</pdfrwt>
<totfact> 0.14088887E+09</totfact>
</mgrwt>
</event>
<event>
 4    1  0.3906087E+006  0.5757807E+01  0.7546771E-02  0.2448053E+00
         21   -1    0    0  503  502  0.00000000000E+00  0.00000000000E+00  0.35358273380E+02  0.35358273380E+02  0.00000000000E+00 0.  1.
         21   -1    0    0  501  503 -0.00000000000E+00 -0.00000000000E+00 -0.45070406104E+01  0.45070406104E+01  0.00000000000E+00 0.  1.
          5    1    1    2  501    0 -0.28968360492E+01  0.16342224767E+01 -0.23129618037E+01  0.62050088239E+01  0.47000000000E+01 0.  1.
         -5    1    1    2    0  502  0.28968360492E+01 -0.16342224767E+01  0.33164194574E+02  0.33660305167E+02  0.47000000000E+01 0.  1.
<mgrwt>
<rscale>  2 0.57578071E+01</rscale>
<asrwt>0</asrwt>
<pdfrwt beam="1">  1       21 0.54397342E-02 0.57578071E+01</pdfrwt>
<pdfrwt beam="2">  1       21 0.69339088E-03 0.57578071E+01</pdfrwt>
<totfact> 0.44265848E+08</totfact>
</mgrwt>
</event>
<event>
 4    1  0.3906087E+006  0.4765640E+01  0.7546771E-02  0.2610487E+00
         21   -1    0    0  501  502  0.00000000000E+00  0.00000000000E+00  0.18550555593E+02  0.18550555593E+02  0.00000000000E+00 0. -1.
         21   -1    0    0  502  503 -0.00000000000E+00 -0.00000000000E+00 -0.27698429724E+02  0.27698429724E+02  0.00000000000E+00 0. -1.
          5    1    1    2  501    0 -0.66038531495E+00  0.43036809045E+00  0.18033719030E+02  0.18652783907E+02  0.47000000000E+01 0. -1.
         -5    1    1    2    0  503  0.66038531495E+00 -0.43036809045E+00 -0.27181593161E+02  0.27596201410E+02  0.47000000000E+01 0. -1.
<mgrwt>
<rscale>  2 0.47656401E+01</rscale>
<asrwt>0</asrwt>
<pdfrwt beam="1">  1       21 0.28539316E-02 0.47656401E+01</pdfrwt>
<pdfrwt beam="2">  1       21 0.42612969E-02 0.47656401E+01</pdfrwt>
<totfact> 0.74099084E+07</totfact>
</mgrwt>
</event>
<event>
 4    1  0.3906087E+006  0.5042034E+01  0.7546771E-02  0.2559751E+00
         21   -1    0    0  503  502  0.00000000000E+00  0.00000000000E+00  0.20071276246E+00  0.20071276246E+00  0.00000000000E+00 0. -1.
         21   -1    0    0  501  503 -0.00000000000E+00 -0.00000000000E+00 -0.12865163580E+03  0.12865163580E+03  0.00000000000E+00 0.  1.
          5    1    1    2  501    0  0.98651814032E+00  0.15358658964E+01 -0.72243265807E+02  0.72418999969E+02  0.47000000000E+01 0.  1.
         -5    1    1    2    0  502 -0.98651814032E+00 -0.15358658964E+01 -0.56207657234E+02  0.56433348596E+02  0.47000000000E+01 0. -1.
<mgrwt>
<rscale>  2 0.50420335E+01</rscale>
<asrwt>0</asrwt>
<pdfrwt beam="1">  1       21 0.30878859E-04 0.50420335E+01</pdfrwt>
<pdfrwt beam="2">  1       21 0.19792577E-01 0.50420335E+01</pdfrwt>
<totfact> 0.36440244E+09</totfact>
</mgrwt>
</event>
<event>
 4    1  0.3906087E+006  0.6871183E+01  0.7546771E-02  0.2314180E+00
         21   -1    0    0  503  502  0.00000000000E+00  0.00000000000E+00  0.38871521767E+02  0.38871521767E+02  0.00000000000E+00 0.  1.
         21   -1    0    0  501  503 -0.00000000000E+00 -0.00000000000E+00 -0.12225380262E+01  0.12225380262E+01  0.00000000000E+00 0. -1.
          5    1    1    2  501    0 -0.25900841351E+01 -0.42912258179E+01  0.17208598701E+02  0.18529679547E+02  0.47000000000E+01 0. -1.
         -5    1    1    2    0  502  0.25900841351E+01  0.42912258179E+01  0.20440385040E+02  0.21564380247E+02  0.47000000000E+01 0.  1.
<mgrwt>
<rscale>  2 0.68711829E+01</rscale>
<asrwt>0</asrwt>
<pdfrwt beam="1">  1       21 0.59802332E-02 0.68711829E+01</pdfrwt>
<pdfrwt beam="2">  1       21 0.18808280E-03 0.68711829E+01</pdfrwt>
<totfact> 0.26810066E+09</totfact>
</mgrwt>
</event>
<event>
 4    1  0.3906087E+006  0.5716870E+01  0.7546771E-02  0.2453797E+00
         21   -1    0    0  501  502  0.00000000000E+00  0.00000000000E+00  0.96101245982E+02  0.96101245982E+02  0.00000000000E+00 0. -1.
         21   -1    0    0  502  503 -0.00000000000E+00 -0.00000000000E+00 -0.91193839006E+00  0.91193839006E+00  0.00000000000E+00 0.  1.
          5    1    1    2  501    0 -0.76921740580E+00 -0.31624204179E+01  0.86006071905E+02  0.86195864187E+02  0.47000000000E+01 0. -1.
         -5    1    1    2    0  503  0.76921740580E+00  0.31624204179E+01  0.91832356869E+01  0.10817320186E+02  0.47000000000E+01 0.  1.
<mgrwt>
<rscale>  2 0.57168696E+01</rscale>
<asrwt>0</asrwt>
<pdfrwt beam="1">  1       21 0.14784799E-01 0.57168696E+01</pdfrwt>
<pdfrwt beam="2">  1       21 0.14029829E-03 0.57168696E+01</pdfrwt>
<totfact> 0.85905185E+08</totfact>
</mgrwt>
</event>
<event>
 4    1  0.3906087E+006  0.1638972E+02  0.7546771E-02  0.1828402E+00
         21   -1    0    0  501  502  0.00000000000E+00  0.00000000000E+00  0.32281580772E+02  0.32281580772E+02  0.00000000000E+00 0. -1.
         21   -1    0    0  502  503 -0.00000000000E+00 -0.00000000000E+00 -0.10640241995E+02  0.10640241995E+02  0.00000000000E+00 0.  1.
          5    1    1    2  501    0  0.15270269543E+02 -0.36540079189E+01  0.20839628594E+02  0.26512506968E+02  0.47000000000E+01 0.  1.
         -5    1    1    2    0  503 -0.15270269543E+02  0.36540079189E+01  0.80171018344E+00  0.16409315799E+02  0.47000000000E+01 0.  1.
<mgrwt>
<rscale>  2 0.16389720E+02</rscale>
<asrwt>0</asrwt>
<pdfrwt beam="1">  1       21 0.49663970E-02 0.16389720E+02</pdfrwt>
<pdfrwt beam="2">  1       21 0.16369603E-02 0.16389720E+02</pdfrwt>
<totfact> 0.26123104E+08</totfact>
</mgrwt>
</event>
<event>
 4    1  0.3906087E+006  0.5949977E+01  0.7546771E-02  0.2421980E+00
         21   -1    0    0  501  502  0.00000000000E+00  0.00000000000E+00  0.38586909132E+02  0.38586909132E+02  0.00000000000E+00 0. -1.
         21   -1    0    0  502  503 -0.00000000000E+00 -0.00000000000E+00 -0.22140625303E+01  0.22140625303E+01  0.00000000000E+00 0. -1.
          5    1    1    2  501    0 -0.24781021962E-01  0.36485079131E+01  0.33798036877E+02  0.34317772667E+02  0.47000000000E+01 0. -1.
         -5    1    1    2    0  503  0.24781021962E-01 -0.36485079131E+01  0.25748097244E+01  0.64831989949E+01  0.47000000000E+01 0. -1.
<mgrwt>
<rscale>  2 0.59499768E+01</rscale>
<asrwt>0</asrwt>
<pdfrwt beam="1">  1       21 0.59364471E-02 0.59499768E+01</pdfrwt>
<pdfrwt beam="2">  1       21 0.34062503E-03 0.59499768E+01</pdfrwt>
<totfact> 0.10686808E+09</totfact>
</mgrwt>
</event>
<event>
 4    1  0.3906087E+006  0.4751685E+01  0.7546771E-02  0.2613184E+00
         21   -1    0    0  501  502  0.00000000000E+00  0.00000000000E+00  0.10219207888E+02  0.10219207888E+02  0.00000000000E+00 0.  1.
         21   -1    0    0  502  503 -0.00000000000E+00 -0.00000000000E+00 -0.88024559556E+01  0.88024559556E+01  0.00000000000E+00 0.  1.
          5    1    1    2  501    0  0.25998626396E+00 -0.64878411999E+00  0.89395034147E+01  0.10123894260E+02  0.47000000000E+01 0.  1.
         -5    1    1    2    0  503 -0.25998626396E+00  0.64878411999E+00 -0.75227514823E+01  0.88977695833E+01  0.47000000000E+01 0.  1.
<mgrwt>
<rscale>  2 0.47516854E+01</rscale>
<asrwt>0</asrwt>
<pdfrwt beam="1">  1       21 0.15721858E-02 0.47516854E+01</pdfrwt>
<pdfrwt beam="2">  1       21 0.13542240E-02 0.47516854E+01</pdfrwt>
<totfact> 0.87623788E+08</totfact>
</mgrwt>
</event>
<event>
 4    1  0.3906087E+006  0.5590229E+01  0.7546771E-02  0.2472016E+00
         21   -1    0    0  501  502  0.00000000000E+00  0.00000000000E+00  0.20120922285E+01  0.20120922285E+01  0.00000000000E+00 0.  1.
         21   -1    0    0  502  503 -0.00000000000E+00 -0.00000000000E+00 -0.72774223757E+02  0.72774223757E+02  0.00000000000E+00 0. -1.
          5    1    1    2  501    0 -0.11727044181E+01 -0.27902376753E+01 -0.22173045989E+01  0.60139090133E+01  0.47000000000E+01 0.  1.
         -5    1    1    2    0  503  0.11727044181E+01  0.27902376753E+01 -0.68544826929E+02  0.68772406972E+02  0.47000000000E+01 0. -1.
<mgrwt>
<rscale>  2 0.55902291E+01</rscale>
<asrwt>0</asrwt>
<pdfrwt beam="1">  1       21 0.30955271E-03 0.55902291E+01</pdfrwt>
<pdfrwt beam="2">  1       21 0.11196032E-01 0.55902291E+01</pdfrwt>
<totfact> 0.44402195E+08</totfact>
</mgrwt>
</event>
<event>
 4    1  0.3906087E+006  0.4981597E+01  0.7546771E-02  0.2570429E+00
         21   -1    0    0  503  502  0.00000000000E+00  0.00000000000E+00  0.28442547283E+02  0.28442547283E+02  0.00000000000E+00 0.  1.
         21   -1    0    0  501  503 -0.00000000000E+00 -0.00000000000E+00 -0.21554701641E+01  0.21554701641E+01  0.00000000000E+00 0.  1.
          5    1    1    2  501    0 -0.16208120811E+01 -0.31508379851E+00  0.13403471660E+01  0.51587634301E+01  0.47000000000E+01 0.  1.
         -5    1    1    2    0  502  0.16208120811E+01  0.31508379851E+00  0.24946729953E+02  0.25439254017E+02  0.47000000000E+01 0.  1.
<mgrwt>
<rscale>  2 0.49815971E+01</rscale>
<asrwt>0</asrwt>
<pdfrwt beam="1">  1       21 0.43757762E-02 0.49815971E+01</pdfrwt>
<pdfrwt beam="2">  1       21 0.33161081E-03 0.49815971E+01</pdfrwt>
<totfact> 0.14837772E+09</totfact>
</mgrwt>
</event>
<event>
 4    1  0.3906087E+006  0.7062298E+01  0.7546771E-02  0.2294759E+00
         21   -1    0    0  501  502  0.00000000000E+00  0.00000000000E+00  0.55911121888E+02  0.55911121888E+02  0.00000000000E+00 0. -1.
         21   -1    0    0  502  503 -0.00000000000E+00 -0.00000000000E+00 -0.89216381950E+00  0.89216381950E+00  0.00000000000E+00 0. -1.
          5    1    1    2  501    0 -0.50011719069E+01 -0.16656345227E+01  0.27816296573E+02  0.28698822516E+02  0.47000000000E+01 0. -1.
         -5    1    1    2    0  503  0.50011719069E+01  0.16656345227E+01  0.27202661496E+02  0.28104463191E+02  0.47000000000E+01 0. -1.
<mgrwt>
<rscale>  2 0.70622984E+01</rscale>
<asrwt>0</asrwt>
<pdfrwt beam="1">  1       21 0.86017083E-02 0.70622984E+01</pdfrwt>
<pdfrwt beam="2">  1       21 0.13725602E-03 0.70622984E+01</pdfrwt>
<totfact> 0.24204849E+09</totfact>
</mgrwt>
</event>
<event>
 4    1  0.3906087E+006  0.5657805E+01  0.7546771E-02  0.2462209E+00
         21   -1    0    0  501  502  0.00000000000E+00  0.00000000000E+00  0.29209135131E+02  0.29209135131E+02  0.00000000000E+00 0. -1.
         21   -1    0    0  502  503 -0.00000000000E+00 -0.00000000000E+00 -0.50872617739E+01  0.50872617739E+01  0.00000000000E+00 0. -1.
          5    1    1    2  501    0  0.29811237879E+01  0.10166906591E+01  0.27250179805E+02  0.27831332314E+02  0.47000000000E+01 0. -1.
         -5    1    1    2    0  503 -0.29811237879E+01 -0.10166906591E+01 -0.31283064482E+01  0.64650645912E+01  0.47000000000E+01 0. -1.
<mgrwt>
<rscale>  2 0.56578051E+01</rscale>
<asrwt>0</asrwt>
<pdfrwt beam="1">  1       21 0.44937130E-02 0.56578051E+01</pdfrwt>
<pdfrwt beam="2">  1       21 0.78265567E-03 0.56578051E+01</pdfrwt>
<totfact> 0.48881567E+08</totfact>
</mgrwt>
</event>
<event>
 4    1  0.3906087E+006  0.5773324E+01  0.7546771E-02  0.2445894E+00
         21   -1    0    0  503  502  0.00000000000E+00  0.00000000000E+00  0.10156380441E+03  0.10156380441E+03  0.00000000000E+00 0.  1.
         21   -1    0    0  501  503 -0.00000000000E+00 -0.00000000000E+00 -0.33280856700E+00  0.33280856700E+00  0.00000000000E+00 0.  1.
          5    1    1    2  501    0 -0.22756181037E+01 -0.24622817208E+01  0.44607521691E+02  0.44979576036E+02  0.47000000000E+01 0.  1.
         -5    1    1    2    0  502  0.22756181037E+01  0.24622817208E+01  0.56623474157E+02  0.56917036945E+02  0.47000000000E+01 0.  1.
<mgrwt>
<rscale>  2 0.57733239E+01</rscale>
<asrwt>0</asrwt>
<pdfrwt beam="1">  1       21 0.15625176E-01 0.57733239E+01</pdfrwt>
<pdfrwt beam="2">  1       21 0.51201399E-04 0.57733239E+01</pdfrwt>
<totfact> 0.30617608E+09</totfact>
</mgrwt>
</event>
<event>
 4    1  0.3906087E+006  0.5185108E+01  0.7546771E-02  0.2535328E+00
         21   -1    0    0  501  502  0.00000000000E+00  0.00000000000E+00  0.55412264626E+01  0.55412264626E+01  0.00000000000E+00 0.  1.
         21   -1    0    0  502  503 -0.00000000000E+00 -0.00000000000E+00 -0.12494122923E+02  0.12494122923E+02  0.00000000000E+00 0.  1.
          5    1    1    2  501    0 -0.21897158660E+01 -0.22010894880E-01  0.35762000949E+01  0.62987734657E+01  0.47000000000E+01 0.  1.
         -5    1    1    2    0  503  0.21897158660E+01  0.22010894880E-01 -0.10529096555E+02  0.11736575920E+02  0.47000000000E+01 0.  1.
<mgrwt>
<rscale>  2 0.51851075E+01</rscale>
<asrwt>0</asrwt>
<pdfrwt beam="1">  1       21 0.85249639E-03 0.51851075E+01</pdfrwt>
<pdfrwt beam="2">  1       21 0.19221727E-02 0.51851075E+01</pdfrwt>
<totfact> 0.13694979E+09</totfact>
</mgrwt>
</event>
<event>
 4    1  0.3906087E+006  0.6074839E+01  0.7546771E-02  0.2405784E+00
         21   -1    0    0  503  502  0.00000000000E+00  0.00000000000E+00  0.17836959570E+02  0.17836959570E+02  0.00000000000E+00 0.  1.
         21   -1    0    0  501  503 -0.00000000000E+00 -0.00000000000E+00 -0.28836742859E+01  0.28836742859E+01  0.00000000000E+00 0. -1.
          5    1    1    2  501    0 -0.69987868310E+00  0.37846855143E+01  0.19697474999E+01  0.63862023008E+01  0.47000000000E+01 0.  1.
         -5    1    1    2    0  502  0.69987868310E+00 -0.37846855143E+01  0.12983537785E+02  0.14334431555E+02  0.47000000000E+01 0.  1.
<mgrwt>
<rscale>  2 0.60748395E+01</rscale>
<asrwt>0</asrwt>
<pdfrwt beam="1">  1       21 0.27441476E-02 0.60748395E+01</pdfrwt>
<pdfrwt beam="2">  1       21 0.44364221E-03 0.60748395E+01</pdfrwt>
<totfact> 0.23477902E+09</totfact>
</mgrwt>
</event>
<event>
 4    1  0.3906087E+006  0.1652275E+02  0.7546771E-02  0.1824870E+00
         21   -1    0    0  501  502  0.00000000000E+00  0.00000000000E+00  0.10690350878E+03  0.10690350878E+03  0.00000000000E+00 0. -1.
         21   -1    0    0  502  503 -0.00000000000E+00 -0.00000000000E+00 -0.43508612959E+01  0.43508612959E+01  0.00000000000E+00 0.  1.
          5    1    1    2  501    0  0.13814844703E+02  0.77499223045E+01  0.87027556914E+02  0.88582147707E+02  0.47000000000E+01 0. -1.
         -5    1    1    2    0  503 -0.13814844703E+02 -0.77499223045E+01  0.15525090566E+02  0.22672222365E+02  0.47000000000E+01 0.  1.
<mgrwt>
<rscale>  2 0.16522749E+02</rscale>
<asrwt>0</asrwt>
<pdfrwt beam="1">  1       21 0.16446692E-01 0.16522749E+02</pdfrwt>
<pdfrwt beam="2">  1       21 0.66936335E-03 0.16522749E+02</pdfrwt>
<totfact> 0.14168531E+08</totfact>
</mgrwt>
</event>
<event>
 4    1  0.3906087E+006  0.4941615E+01  0.7546771E-02  0.2577617E+00
         21   -1    0    0  503  502  0.00000000000E+00  0.00000000000E+00  0.14488140444E+03  0.14488140444E+03  0.00000000000E+00 0. -1.
         21   -1    0    0  501  503 -0.00000000000E+00 -0.00000000000E+00 -0.76876958590E+00  0.76876958590E+00  0.00000000000E+00 0. -1.
          5    1    1    2  501    0 -0.25025933531E+00  0.15056328936E+01  0.77078070447E+01  0.91558642182E+01  0.47000000000E+01 0. -1.
         -5    1    1    2    0  502  0.25025933531E+00 -0.15056328936E+01  0.13640482781E+03  0.13649430981E+03  0.47000000000E+01 0. -1.
<mgrwt>
<rscale>  2 0.49416151E+01</rscale>
<asrwt>0</asrwt>
<pdfrwt beam="1">  1       21 0.22289425E-01 0.49416151E+01</pdfrwt>
<pdfrwt beam="2">  1       21 0.11827236E-03 0.49416151E+01</pdfrwt>
<totfact> 0.49868796E+08</totfact>
</mgrwt>
</event>
<event>
 4    1  0.3906087E+006  0.6452541E+01  0.7546771E-02  0.2360000E+00
         21   -1    0    0  501  502  0.00000000000E+00  0.00000000000E+00  0.96937072792E+01  0.96937072792E+01  0.00000000000E+00 0. -1.
         21   -1    0    0  502  503 -0.00000000000E+00 -0.00000000000E+00 -0.85406954832E+01  0.85406954832E+01  0.00000000000E+00 0. -1.
          5    1    1    2  501    0  0.31808889257E+01 -0.30703800463E+01  0.70046417791E+01  0.95236702189E+01  0.47000000000E+01 0. -1.
         -5    1    1    2    0  503 -0.31808889257E+01  0.30703800463E+01 -0.58516299830E+01  0.87107325435E+01  0.47000000000E+01 0. -1.
<mgrwt>
<rscale>  2 0.64525412E+01</rscale>
<asrwt>0</asrwt>
<pdfrwt beam="1">  1       21 0.14913396E-02 0.64525412E+01</pdfrwt>
<pdfrwt beam="2">  1       21 0.13139532E-02 0.64525412E+01</pdfrwt>
<totfact> 0.12914802E+09</totfact>
</mgrwt>
</event>
<event>
 4    1  0.3906087E+006  0.4911524E+01  0.7546771E-02  0.2583093E+00
         21   -1    0    0  503  502  0.00000000000E+00  0.00000000000E+00  0.23406642688E+02  0.23406642688E+02  0.00000000000E+00 0. -1.
         21   -1    0    0  501  503 -0.00000000000E+00 -0.00000000000E+00 -0.12680272881E+01  0.12680272881E+01  0.00000000000E+00 0. -1.
          5    1    1    2  501    0  0.59459504195E+00 -0.12959649195E+01  0.57308568738E+01  0.75475684061E+01  0.47000000000E+01 0. -1.
         -5    1    1    2    0  502 -0.59459504195E+00  0.12959649195E+01  0.16407758527E+02  0.17127101570E+02  0.47000000000E+01 0. -1.
<mgrwt>
<rscale>  2 0.49115240E+01</rscale>
<asrwt>0</asrwt>
<pdfrwt beam="1">  1       21 0.36010216E-02 0.49115240E+01</pdfrwt>
<pdfrwt beam="2">  1       21 0.19508114E-03 0.49115240E+01</pdfrwt>
<totfact> 0.39733227E+09</totfact>
</mgrwt>
</event>
<event>
 4    1  0.3906087E+006  0.6678610E+01  0.7546771E-02  0.2334668E+00
         21   -1    0    0  501  502  0.00000000000E+00  0.00000000000E+00  0.12192065602E+01  0.12192065602E+01  0.00000000000E+00 0.  1.
         21   -1    0    0  502  503 -0.00000000000E+00 -0.00000000000E+00 -0.11949335194E+03  0.11949335194E+03  0.00000000000E+00 0. -1.
          5    1    1    2  501    0 -0.32737567993E+01  0.34345810009E+01 -0.88621354919E+01  0.11096903879E+02  0.47000000000E+01 0.  1.
         -5    1    1    2    0  503  0.32737567993E+01 -0.34345810009E+01 -0.10941200989E+03  0.10961565462E+03  0.47000000000E+01 0. -1.
<mgrwt>
<rscale>  2 0.66786099E+01</rscale>
<asrwt>0</asrwt>
<pdfrwt beam="1">  1       21 0.18757030E-03 0.66786099E+01</pdfrwt>
<pdfrwt beam="2">  1       21 0.18383586E-01 0.66786099E+01</pdfrwt>
<totfact> 0.45917090E+08</totfact>
</mgrwt>
</event>
<event>
 4    1  0.3906087E+006  0.5153731E+01  0.7546771E-02  0.2540584E+00
         21   -1    0    0  503  502  0.00000000000E+00  0.00000000000E+00  0.11351615383E+00  0.11351615383E+00  0.00000000000E+00 0.  1.
         21   -1    0    0  501  503 -0.00000000000E+00 -0.00000000000E+00 -0.49565774060E+03  0.49565774060E+03  0.00000000000E+00 0.  1.
          5    1    1    2  501    0 -0.71744731577E+00 -0.19890235642E+01 -0.42788326567E+03  0.42791430215E+03  0.47000000000E+01 0.  1.
         -5    1    1    2    0  502  0.71744731577E+00  0.19890235642E+01 -0.67660958776E+02  0.67856954602E+02  0.47000000000E+01 0.  1.
<mgrwt>
<rscale>  2 0.51537312E+01</rscale>
<asrwt>0</asrwt>
<pdfrwt beam="1">  1       21 0.17463857E-04 0.51537312E+01</pdfrwt>
<pdfrwt beam="2">  1       21 0.76255766E-01 0.51537312E+01</pdfrwt>
<totfact> 0.76974586E+08</totfact>
</mgrwt>
</event>
<event>
 4    1  0.3906087E+006  0.5816783E+01  0.7546771E-02  0.2439897E+00
         21   -1    0    0  501  502  0.00000000000E+00  0.00000000000E+00  0.32587492521E+01  0.32587492521E+01  0.00000000000E+00 0. -1.
         21   -1    0    0  502  503 -0.00000000000E+00 -0.00000000000E+00 -0.19279613340E+02  0.19279613340E+02  0.00000000000E+00 0. -1.
          5    1    1    2  501    0 -0.26089571901E+00 -0.34171474688E+01 -0.15665697996E+02  0.16710746754E+02  0.47000000000E+01 0. -1.
         -5    1    1    2    0  503  0.26089571901E+00  0.34171474688E+01 -0.35516609233E+00  0.58276158378E+01  0.47000000000E+01 0. -1.
<mgrwt>
<rscale>  2 0.58167829E+01</rscale>
<asrwt>0</asrwt>
<pdfrwt beam="1">  1       21 0.50134603E-03 0.58167829E+01</pdfrwt>
<pdfrwt beam="2">  1       21 0.29660944E-02 0.58167829E+01</pdfrwt>
<totfact> 0.17051308E+09</totfact>
</mgrwt>
</event>
<event>
 4    1  0.3906087E+006  0.4847264E+01  0.7546771E-02  0.2594984E+00
         21   -1    0    0  501  502  0.00000000000E+00  0.00000000000E+00  0.10945005149E+00  0.10945005149E+00  0.00000000000E+00 0. -1.
         21   -1    0    0  502  503 -0.00000000000E+00 -0.00000000000E+00 -0.21470983693E+03  0.21470983693E+03  0.00000000000E+00 0. -1.
          5    1    1    2  501    0 -0.11839353978E+01  0.65339834399E-01 -0.10589355408E+03  0.10600443749E+03  0.47000000000E+01 0.  1.
         -5    1    1    2    0  503  0.11839353978E+01 -0.65339834399E-01 -0.10870683280E+03  0.10881484949E+03  0.47000000000E+01 0.  1.
<mgrwt>
<rscale>  2 0.48472644E+01</rscale>
<asrwt>0</asrwt>
<pdfrwt beam="1">  1       21 0.16838405E-04 0.48472644E+01</pdfrwt>
<pdfrwt beam="2">  1       21 0.33032409E-01 0.48472644E+01</pdfrwt>
<totfact> 0.33987321E+09</totfact>
</mgrwt>
</event>
<event>
 4    1  0.3906087E+006  0.5941959E+01  0.7546771E-02  0.2423039E+00
         21   -1    0    0  501  502  0.00000000000E+00  0.00000000000E+00  0.31096278242E+01  0.31096278242E+01  0.00000000000E+00 0.  1.
         21   -1    0    0  502  503 -0.00000000000E+00 -0.00000000000E+00 -0.16632424676E+02  0.16632424676E+02  0.00000000000E+00 0. -1.
          5    1    1    2  501    0  0.17016287946E+01  0.32126839387E+01 -0.12006337791E+01  0.60620458689E+01  0.47000000000E+01 0.  1.
         -5    1    1    2    0  503 -0.17016287946E+01 -0.32126839387E+01 -0.12322163073E+02  0.13680006632E+02  0.47000000000E+01 0. -1.
<mgrwt>
<rscale>  2 0.59419592E+01</rscale>
<asrwt>0</asrwt>
<pdfrwt beam="1">  1       21 0.47840428E-03 0.59419592E+01</pdfrwt>
<pdfrwt beam="2">  1       21 0.25588345E-02 0.59419592E+01</pdfrwt>
<totfact> 0.22954723E+09</totfact>
</mgrwt>
</event>
<event>
 4    1  0.3906087E+006  0.5827012E+01  0.7546771E-02  0.2438497E+00
         21   -1    0    0  501  502  0.00000000000E+00  0.00000000000E+00  0.11196542042E+03  0.11196542042E+03  0.00000000000E+00 0. -1.
         21   -1    0    0  502  503 -0.00000000000E+00 -0.00000000000E+00 -0.13639936847E+01  0.13639936847E+01  0.00000000000E+00 0. -1.
          5    1    1    2  501    0 -0.21959066402E+01 -0.26536885266E+01  0.10527086654E+03  0.10543201322E+03  0.47000000000E+01 0. -1.
         -5    1    1    2    0  503  0.21959066402E+01  0.26536885266E+01  0.53305601901E+01  0.78974008831E+01  0.47000000000E+01 0. -1.
<mgrwt>
<rscale>  2 0.58270120E+01</rscale>
<asrwt>0</asrwt>
<pdfrwt beam="1">  1       21 0.17225442E-01 0.58270120E+01</pdfrwt>
<pdfrwt beam="2">  1       21 0.20984527E-03 0.58270120E+01</pdfrwt>
<totfact> 0.39707160E+08</totfact>
</mgrwt>
</event>
<event>
 4    1  0.3906087E+006  0.7859277E+01  0.7546771E-02  0.2222198E+00
         21   -1    0    0  503  502  0.00000000000E+00  0.00000000000E+00  0.40961279210E+03  0.40961279210E+03  0.00000000000E+00 0. -1.
         21   -1    0    0  501  503 -0.00000000000E+00 -0.00000000000E+00 -0.34283145727E+00  0.34283145727E+00  0.00000000000E+00 0. -1.
          5    1    1    2  501    0 -0.55407286170E+01  0.29964234820E+01  0.35804598831E+03  0.35813223532E+03  0.47000000000E+01 0. -1.
         -5    1    1    2    0  502  0.55407286170E+01 -0.29964234820E+01  0.51223972326E+02  0.51823388235E+02  0.47000000000E+01 0. -1.
<mgrwt>
<rscale>  2 0.78592765E+01</rscale>
<asrwt>0</asrwt>
<pdfrwt beam="1">  1       21 0.63016961E-01 0.78592765E+01</pdfrwt>
<pdfrwt beam="2">  1       21 0.52743629E-04 0.78592765E+01</pdfrwt>
<totfact> 0.33284702E+08</totfact>
</mgrwt>
</event>
<event>
 4    1  0.3906087E+006  0.5093697E+01  0.7546771E-02  0.2550796E+00
         21   -1    0    0  501  502  0.00000000000E+00  0.00000000000E+00  0.13486755483E+01  0.13486755483E+01  0.00000000000E+00 0.  1.
         21   -1    0    0  502  503 -0.00000000000E+00 -0.00000000000E+00 -0.47452777946E+02  0.47452777946E+02  0.00000000000E+00 0.  1.
          5    1    1    2  501    0  0.13697792890E+01  0.14069321959E+01 -0.42367731959E+01  0.66254056946E+01  0.47000000000E+01 0.  1.
         -5    1    1    2    0  503 -0.13697792890E+01 -0.14069321959E+01 -0.41867329202E+02  0.42176047800E+02  0.47000000000E+01 0.  1.
<mgrwt>
<rscale>  2 0.50936974E+01</rscale>
<asrwt>0</asrwt>
<pdfrwt beam="1">  1       21 0.20748856E-03 0.50936974E+01</pdfrwt>
<pdfrwt beam="2">  1       21 0.73004268E-02 0.50936974E+01</pdfrwt>
<totfact> 0.13473511E+09</totfact>
</mgrwt>
</event>
<event>
 4    1  0.3906087E+006  0.5749843E+01  0.7546771E-02  0.2449165E+00
         21   -1    0    0  503  502  0.00000000000E+00  0.00000000000E+00  0.19500575223E+03  0.19500575223E+03  0.00000000000E+00 0.  1.
         21   -1    0    0  501  503 -0.00000000000E+00 -0.00000000000E+00 -0.33859447287E+00  0.33859447287E+00  0.00000000000E+00 0.  1.
          5    1    1    2  501    0 -0.20468848887E+01 -0.26040278936E+01  0.28317854975E+02  0.28895702266E+02  0.47000000000E+01 0.  1.
         -5    1    1    2    0  502  0.20468848887E+01  0.26040278936E+01  0.16634930279E+03  0.16644864444E+03  0.47000000000E+01 0.  1.
<mgrwt>
<rscale>  2 0.57498434E+01</rscale>
<asrwt>0</asrwt>
<pdfrwt beam="1">  1       21 0.30000795E-01 0.57498434E+01</pdfrwt>
<pdfrwt beam="2">  1       21 0.52091613E-04 0.57498434E+01</pdfrwt>
<totfact> 0.10338905E+09</totfact>
</mgrwt>
</event>
<event>
 4    1  0.3906087E+006  0.5538448E+01  0.7546771E-02  0.2479668E+00
         21   -1    0    0  503  502  0.00000000000E+00  0.00000000000E+00  0.60789136099E+00  0.60789136099E+00  0.00000000000E+00 0. -1.
         21   -1    0    0  501  503 -0.00000000000E+00 -0.00000000000E+00 -0.52488264754E+02  0.52488264754E+02  0.00000000000E+00 0. -1.
          5    1    1    2  501    0  0.27776813311E+00  0.29167197906E+01 -0.31158462941E+02  0.31646867497E+02  0.47000000000E+01 0. -1.
         -5    1    1    2    0  502 -0.27776813311E+00 -0.29167197906E+01 -0.20721910451E+02  0.21449288618E+02  0.47000000000E+01 0. -1.
<mgrwt>
<rscale>  2 0.55384483E+01</rscale>
<asrwt>0</asrwt>
<pdfrwt beam="1">  1       21 0.93521749E-04 0.55384483E+01</pdfrwt>
<pdfrwt beam="2">  1       21 0.80751176E-02 0.55384483E+01</pdfrwt>
<totfact> 0.36487546E+09</totfact>
</mgrwt>
</event>
<event>
 4    1  0.3906087E+006  0.1095799E+02  0.7546771E-02  0.2024244E+00
         21   -1    0    0  503  502  0.00000000000E+00  0.00000000000E+00  0.25095260413E+02  0.25095260413E+02  0.00000000000E+00 0. -1.
         21   -1    0    0  501  503 -0.00000000000E+00 -0.00000000000E+00 -0.65131928118E+01  0.65131928118E+01  0.00000000000E+00 0.  1.
          5    1    1    2  501    0 -0.80576316770E+01  0.57499757810E+01  0.11498369460E+01  0.11018156594E+02  0.47000000000E+01 0.  1.
         -5    1    1    2    0  502  0.80576316770E+01 -0.57499757810E+01  0.17432230655E+02  0.20590296630E+02  0.47000000000E+01 0. -1.
<mgrwt>
<rscale>  2 0.10957995E+02</rscale>
<asrwt>0</asrwt>
<pdfrwt beam="1">  1       21 0.38608092E-02 0.10957995E+02</pdfrwt>
<pdfrwt beam="2">  1       21 0.10020297E-02 0.10957995E+02</pdfrwt>
<totfact> 0.66361919E+08</totfact>
</mgrwt>
</event>
<event>
 4    1  0.3906087E+006  0.5424341E+01  0.7546771E-02  0.2496967E+00
         21   -1    0    0  501  502  0.00000000000E+00  0.00000000000E+00  0.18251490354E+00  0.18251490354E+00  0.00000000000E+00 0.  1.
         21   -1    0    0  502  503 -0.00000000000E+00 -0.00000000000E+00 -0.16671026623E+03  0.16671026623E+03  0.00000000000E+00 0. -1.
          5    1    1    2  501    0 -0.25544246722E+01  0.89910696945E+00 -0.98419153650E+02  0.98568520755E+02  0.47000000000E+01 0.  1.
         -5    1    1    2    0  503  0.25544246722E+01 -0.89910696945E+00 -0.68108597672E+02  0.68324260373E+02  0.47000000000E+01 0.  1.
<mgrwt>
<rscale>  2 0.54243413E+01</rscale>
<asrwt>0</asrwt>
<pdfrwt beam="1">  1       21 0.28078994E-04 0.54243413E+01</pdfrwt>
<pdfrwt beam="2">  1       21 0.25647936E-01 0.54243413E+01</pdfrwt>
<totfact> 0.29097204E+09</totfact>
</mgrwt>
</event>
<event>
 4    1  0.3906087E+006  0.6079209E+01  0.7546771E-02  0.2405227E+00
         21   -1    0    0  503  502  0.00000000000E+00  0.00000000000E+00  0.29489148989E+02  0.29489148989E+02  0.00000000000E+00 0. -1.
         21   -1    0    0  501  503 -0.00000000000E+00 -0.00000000000E+00 -0.12821962278E+01  0.12821962278E+01  0.00000000000E+00 0. -1.
          5    1    1    2  501    0 -0.19403986713E+01  0.33319110125E+01  0.11791082190E+02  0.13265986477E+02  0.47000000000E+01 0. -1.
         -5    1    1    2    0  502  0.19403986713E+01 -0.33319110125E+01  0.16415870571E+02  0.17505358740E+02  0.47000000000E+01 0. -1.
<mgrwt>
<rscale>  2 0.60792087E+01</rscale>
<asrwt>0</asrwt>
<pdfrwt beam="1">  1       21 0.45367916E-02 0.60792087E+01</pdfrwt>
<pdfrwt beam="2">  1       21 0.19726098E-03 0.60792087E+01</pdfrwt>
<totfact> 0.34273867E+09</totfact>
</mgrwt>
</event>
<event>
 4    1  0.3906087E+006  0.6677568E+01  0.7546771E-02  0.2334781E+00
         21   -1    0    0  503  502  0.00000000000E+00  0.00000000000E+00  0.26199872647E+02  0.26199872647E+02  0.00000000000E+00 0.  1.
         21   -1    0    0  501  503 -0.00000000000E+00 -0.00000000000E+00 -0.67141493343E+01  0.67141493343E+01  0.00000000000E+00 0. -1.
          5    1    1    2  501    0  0.38990993662E+01 -0.27012845643E+01 -0.44762090596E+01  0.80390522893E+01  0.47000000000E+01 0. -1.
         -5    1    1    2    0  502 -0.38990993662E+01  0.27012845643E+01  0.23961932372E+02  0.24874969692E+02  0.47000000000E+01 0.  1.
<mgrwt>
<rscale>  2 0.66775680E+01</rscale>
<asrwt>0</asrwt>
<pdfrwt beam="1">  1       21 0.40307496E-02 0.66775680E+01</pdfrwt>
<pdfrwt beam="2">  1       21 0.10329461E-02 0.66775680E+01</pdfrwt>
<totfact> 0.43966618E+08</totfact>
</mgrwt>
</event>
<event>
 4    1  0.3906087E+006  0.5845299E+01  0.7546771E-02  0.2436004E+00
         21   -1    0    0  503  502  0.00000000000E+00  0.00000000000E+00  0.92037663482E+00  0.92037663482E+00  0.00000000000E+00 0.  1.
         21   -1    0    0  501  503 -0.00000000000E+00 -0.00000000000E+00 -0.40046694675E+03  0.40046694675E+03  0.00000000000E+00 0. -1.
          5    1    1    2  501    0 -0.25888843598E+01  0.23184477394E+01 -0.39093857339E+03  0.39098227030E+03  0.47000000000E+01 0. -1.
         -5    1    1    2    0  502  0.25888843598E+01 -0.23184477394E+01 -0.86079967259E+01  0.10405053089E+02  0.47000000000E+01 0.  1.
<mgrwt>
<rscale>  2 0.58452991E+01</rscale>
<asrwt>0</asrwt>
<pdfrwt beam="1">  1       21 0.14159613E-03 0.58452991E+01</pdfrwt>
<pdfrwt beam="2">  1       21 0.61610419E-01 0.58452991E+01</pdfrwt>
<totfact> 0.77121769E+07</totfact>
</mgrwt>
</event>
<event>
 4    1  0.3906087E+006  0.5532670E+01  0.7546771E-02  0.2480530E+00
         21   -1    0    0  503  502  0.00000000000E+00  0.00000000000E+00  0.67441652354E+00  0.67441652354E+00  0.00000000000E+00 0.  1.
         21   -1    0    0  501  503 -0.00000000000E+00 -0.00000000000E+00 -0.62903309608E+02  0.62903309608E+02  0.00000000000E+00 0. -1.
          5    1    1    2  501    0  0.28982876321E+01 -0.34693290079E+00 -0.47888841102E+02  0.48207380511E+02  0.47000000000E+01 0. -1.
         -5    1    1    2    0  502 -0.28982876321E+01  0.34693290079E+00 -0.14340051982E+02  0.15370345621E+02  0.47000000000E+01 0.  1.
<mgrwt>
<rscale>  2 0.55326697E+01</rscale>
<asrwt>0</asrwt>
<pdfrwt beam="1">  1       21 0.10375639E-03 0.55326697E+01</pdfrwt>
<pdfrwt beam="2">  1       21 0.96774325E-02 0.55326697E+01</pdfrwt>
<totfact> 0.24118855E+09</totfact>
</mgrwt>
</event>
<event>
 4    1  0.3906087E+006  0.1168939E+02  0.7546771E-02  0.1989929E+00
         21   -1    0    0  501  502  0.00000000000E+00  0.00000000000E+00  0.54967144906E+01  0.54967144906E+01  0.00000000000E+00 0. -1.
         21   -1    0    0  502  503 -0.00000000000E+00 -0.00000000000E+00 -0.45396388303E+02  0.45396388303E+02  0.00000000000E+00 0. -1.
          5    1    1    2  501    0 -0.20442079140E+01  0.10505853319E+02 -0.28342034215E+01  0.12028069213E+02  0.47000000000E+01 0. -1.
         -5    1    1    2    0  503  0.20442079140E+01 -0.10505853319E+02 -0.37065470391E+02  0.38865033581E+02  0.47000000000E+01 0. -1.
<mgrwt>
<rscale>  2 0.11689386E+02</rscale>
<asrwt>0</asrwt>
<pdfrwt beam="1">  1       21 0.84564836E-03 0.11689386E+02</pdfrwt>
<pdfrwt beam="2">  1       21 0.69840600E-02 0.11689386E+02</pdfrwt>
<totfact> 0.35155524E+08</totfact>
</mgrwt>
</event>
<event>
 4    1  0.3906087E+006  0.8559877E+01  0.7546771E-02  0.2167590E+00
         21   -1    0    0  501  502  0.00000000000E+00  0.00000000000E+00  0.41353406995E+03  0.41353406995E+03  0.00000000000E+00 0. -1.
         21   -1    0    0  502  503 -0.00000000000E+00 -0.00000000000E+00 -0.54502651758E+00  0.54502651758E+00  0.00000000000E+00 0. -1.
          5    1    1    2  501    0  0.23470531109E+01 -0.67581674671E+01  0.37658329563E+03  0.37668056764E+03  0.47000000000E+01 0. -1.
         -5    1    1    2    0  503 -0.23470531109E+01  0.67581674671E+01  0.36405747795E+02  0.37398528826E+02  0.47000000000E+01 0. -1.
<mgrwt>
<rscale>  2 0.85598765E+01</rscale>
<asrwt>0</asrwt>
<pdfrwt beam="1">  1       21 0.63620375E-01 0.85598765E+01</pdfrwt>
<pdfrwt beam="2">  1       21 0.83850564E-04 0.85598765E+01</pdfrwt>
<totfact> 0.18194266E+08</totfact>
</mgrwt>
</event>
<event>
 4    1  0.3906087E+006  0.5723901E+01  0.7546771E-02  0.2452806E+00
         21   -1    0    0  501  502  0.00000000000E+00  0.00000000000E+00  0.12674576240E+02  0.12674576240E+02  0.00000000000E+00 0. -1.
         21   -1    0    0  502  503 -0.00000000000E+00 -0.00000000000E+00 -0.44131097095E+01  0.44131097095E+01  0.00000000000E+00 0. -1.
          5    1    1    2  501    0 -0.32605716877E+01  0.20425415611E+00  0.96297986604E+01  0.11202502833E+02  0.47000000000E+01 0. -1.
         -5    1    1    2    0  503  0.32605716877E+01 -0.20425415611E+00 -0.13683321300E+01  0.58851831160E+01  0.47000000000E+01 0. -1.
<mgrwt>
<rscale>  2 0.57239014E+01</rscale>
<asrwt>0</asrwt>
<pdfrwt beam="1">  1       21 0.19499348E-02 0.57239014E+01</pdfrwt>
<pdfrwt beam="2">  1       21 0.67893996E-03 0.57239014E+01</pdfrwt>
<totfact> 0.20178139E+09</totfact>
</mgrwt>
</event>
<event>
 4    1  0.3906087E+006  0.6854266E+01  0.7546771E-02  0.2315941E+00
         21   -1    0    0  503  502  0.00000000000E+00  0.00000000000E+00  0.14230791829E+00  0.14230791829E+00  0.00000000000E+00 0.  1.
         21   -1    0    0  501  503 -0.00000000000E+00 -0.00000000000E+00 -0.37303451813E+03  0.37303451813E+03  0.00000000000E+00 0.  1.
          5    1    1    2  501    0 -0.42027403332E+01  0.26884833242E+01 -0.24972097131E+03  0.24981502053E+03  0.47000000000E+01 0.  1.
         -5    1    1    2    0  502  0.42027403332E+01 -0.26884833242E+01 -0.12317123891E+03  0.12336180553E+03  0.47000000000E+01 0.  1.
<mgrwt>
<rscale>  2 0.68542665E+01</rscale>
<asrwt>0</asrwt>
<pdfrwt beam="1">  1       21 0.21893064E-04 0.68542665E+01</pdfrwt>
<pdfrwt beam="2">  1       21 0.57391138E-01 0.68542665E+01</pdfrwt>
<totfact> 0.11936206E+09</totfact>
</mgrwt>
</event>
<event>
 4    1  0.3906087E+006  0.5591148E+01  0.7546771E-02  0.2471882E+00
         21   -1    0    0  501  502  0.00000000000E+00  0.00000000000E+00  0.57642761261E+02  0.57642761261E+02  0.00000000000E+00 0. -1.
         21   -1    0    0  502  503 -0.00000000000E+00 -0.00000000000E+00 -0.55207468742E+00  0.55207468742E+00  0.00000000000E+00 0. -1.
          5    1    1    2  501    0  0.76198493988E+00 -0.29309239852E+01  0.24677951961E+02  0.25303403910E+02  0.47000000000E+01 0. -1.
         -5    1    1    2    0  503 -0.76198493988E+00  0.29309239852E+01  0.32412734613E+02  0.32891432038E+02  0.47000000000E+01 0. -1.
<mgrwt>
<rscale>  2 0.55911480E+01</rscale>
<asrwt>0</asrwt>
<pdfrwt beam="1">  1       21 0.88681124E-02 0.55911480E+01</pdfrwt>
<pdfrwt beam="2">  1       21 0.84934613E-04 0.55911480E+01</pdfrwt>
<totfact> 0.36332419E+09</totfact>
</mgrwt>
</event>
<event>
 4    1  0.3906087E+006  0.7284972E+01  0.7546771E-02  0.2273189E+00
         21   -1    0    0  501  502  0.00000000000E+00  0.00000000000E+00  0.15858579533E+00  0.15858579533E+00  0.00000000000E+00 0. -1.
         21   -1    0    0  502  503 -0.00000000000E+00 -0.00000000000E+00 -0.38406458826E+03  0.38406458826E+03  0.00000000000E+00 0. -1.
          5    1    1    2  501    0  0.51526784524E+01 -0.21049267780E+01 -0.12304384641E+03  0.12325931588E+03  0.47000000000E+01 0. -1.
         -5    1    1    2    0  503 -0.51526784524E+01  0.21049267780E+01 -0.26086215606E+03  0.26096385818E+03  0.47000000000E+01 0. -1.
<mgrwt>
<rscale>  2 0.72849717E+01</rscale>
<asrwt>0</asrwt>
<pdfrwt beam="1">  1       21 0.24398030E-04 0.72849717E+01</pdfrwt>
<pdfrwt beam="2">  1       21 0.59086339E-01 0.72849717E+01</pdfrwt>
<totfact> 0.10169708E+09</totfact>
</mgrwt>
</event>
<event>
 4    1  0.3906087E+006  0.7845337E+01  0.7546771E-02  0.2223364E+00
         21   -1    0    0  501  502  0.00000000000E+00  0.00000000000E+00  0.59658470851E+00  0.59658470851E+00  0.00000000000E+00 0. -1.
         21   -1    0    0  502  503 -0.00000000000E+00 -0.00000000000E+00 -0.14991851977E+03  0.14991851977E+03  0.00000000000E+00 0. -1.
          5    1    1    2  501    0  0.57497380342E+01 -0.25297877234E+01 -0.32635848221E+02  0.33565576153E+02  0.47000000000E+01 0. -1.
         -5    1    1    2    0  503 -0.57497380342E+01  0.25297877234E+01 -0.11668608684E+03  0.11694952833E+03  0.47000000000E+01 0. -1.
<mgrwt>
<rscale>  2 0.78453370E+01</rscale>
<asrwt>0</asrwt>
<pdfrwt beam="1">  1       21 0.91782337E-04 0.78453370E+01</pdfrwt>
<pdfrwt beam="2">  1       21 0.23064369E-01 0.78453370E+01</pdfrwt>
<totfact> 0.93212569E+08</totfact>
</mgrwt>
</event>
<event>
 4    1  0.3906087E+006  0.5097174E+01  0.7546771E-02  0.2550199E+00
         21   -1    0    0  503  502  0.00000000000E+00  0.00000000000E+00  0.16546342997E+03  0.16546342997E+03  0.00000000000E+00 0. -1.
         21   -1    0    0  501  503 -0.00000000000E+00 -0.00000000000E+00 -0.16223360537E+00  0.16223360537E+00  0.00000000000E+00 0. -1.
          5    1    1    2  501    0  0.16255985784E+01  0.11174153145E+01  0.67806079929E+02  0.67997394531E+02  0.47000000000E+01 0. -1.
         -5    1    1    2    0  502 -0.16255985784E+01 -0.11174153145E+01  0.97495116434E+02  0.97628269042E+02  0.47000000000E+01 0. -1.
<mgrwt>
<rscale>  2 0.50971745E+01</rscale>
<asrwt>0</asrwt>
<pdfrwt beam="1">  1       21 0.25455777E-01 0.50971745E+01</pdfrwt>
<pdfrwt beam="2">  1       21 0.24959149E-04 0.50971745E+01</pdfrwt>
<totfact> 0.32548029E+09</totfact>
</mgrwt>
</event>
<event>
 4    1  0.3906087E+006  0.1168847E+02  0.7546771E-02  0.1989970E+00
         21   -1    0    0  501  502  0.00000000000E+00  0.00000000000E+00  0.38977748544E+03  0.38977748544E+03  0.00000000000E+00 0. -1.
         21   -1    0    0  502  503 -0.00000000000E+00 -0.00000000000E+00 -0.35149137012E+00  0.35149137012E+00  0.00000000000E+00 0.  1.
          5    1    1    2  501    0 -0.83628843347E+01 -0.66777629860E+01  0.20502757108E+03  0.20536047638E+03  0.47000000000E+01 0. -1.
         -5    1    1    2    0  503  0.83628843347E+01  0.66777629860E+01  0.18439842299E+03  0.18476850044E+03  0.47000000000E+01 0.  1.
<mgrwt>
<rscale>  2 0.11688471E+02</rscale>
<asrwt>0</asrwt>
<pdfrwt beam="1">  1       21 0.59965421E-01 0.11688471E+02</pdfrwt>
<pdfrwt beam="2">  1       21 0.54075907E-04 0.11688471E+02</pdfrwt>
<totfact> 0.43030941E+08</totfact>
</mgrwt>
</event>
<event>
 4    1  0.3906087E+006  0.5976931E+01  0.7546771E-02  0.2418436E+00
         21   -1    0    0  501  502  0.00000000000E+00  0.00000000000E+00  0.26779782334E+02  0.26779782334E+02  0.00000000000E+00 0. -1.
         21   -1    0    0  502  503 -0.00000000000E+00 -0.00000000000E+00 -0.13681862800E+01  0.13681862800E+01  0.00000000000E+00 0. -1.
          5    1    1    2  501    0 -0.27803403024E+01  0.24296936594E+01  0.14931131667E+02  0.16082984684E+02  0.47000000000E+01 0. -1.
         -5    1    1    2    0  503  0.27803403024E+01 -0.24296936594E+01  0.10480464387E+02  0.12064983931E+02  0.47000000000E+01 0. -1.
<mgrwt>
<rscale>  2 0.59769309E+01</rscale>
<asrwt>0</asrwt>
<pdfrwt beam="1">  1       21 0.41199661E-02 0.59769309E+01</pdfrwt>
<pdfrwt beam="2">  1       21 0.21049022E-03 0.59769309E+01</pdfrwt>
<totfact> 0.35625860E+09</totfact>
</mgrwt>
</event>
<event>
 4    1  0.3906087E+006  0.5156698E+01  0.7546771E-02  0.2540084E+00
         21   -1    0    0  503  502  0.00000000000E+00  0.00000000000E+00  0.23005595860E+03  0.23005595860E+03  0.00000000000E+00 0.  1.
         21   -1    0    0  501  503 -0.00000000000E+00 -0.00000000000E+00 -0.12629547966E+00  0.12629547966E+00  0.00000000000E+00 0.  1.
          5    1    1    2  501    0 -0.40445873383E+00 -0.20827750273E+01  0.81452356287E+02  0.81615426749E+02  0.47000000000E+01 0.  1.
         -5    1    1    2    0  502  0.40445873383E+00  0.20827750273E+01  0.14847730683E+03  0.14856682733E+03  0.47000000000E+01 0.  1.
<mgrwt>
<rscale>  2 0.51566984E+01</rscale>
<asrwt>0</asrwt>
<pdfrwt beam="1">  1       21 0.35392889E-01 0.51566984E+01</pdfrwt>
<pdfrwt beam="2">  1       21 0.19430258E-04 0.51566984E+01</pdfrwt>
<totfact> 0.26499582E+09</totfact>
</mgrwt>
</event>
<event>
 4    1  0.3906087E+006  0.1052098E+02  0.7546771E-02  0.2046496E+00
         21   -1    0    0  503  502  0.00000000000E+00  0.00000000000E+00  0.19937399755E+02  0.19937399755E+02  0.00000000000E+00 0.  1.
         21   -1    0    0  501  503 -0.00000000000E+00 -0.00000000000E+00 -0.81133664692E+02  0.81133664692E+02  0.00000000000E+00 0.  1.
          5    1    1    2  501    0 -0.49264245635E+01 -0.80206846439E+01 -0.79373968950E+02  0.80068208348E+02  0.47000000000E+01 0.  1.
         -5    1    1    2    0  502  0.49264245635E+01  0.80206846439E+01  0.18177704014E+02  0.21002856100E+02  0.47000000000E+01 0.  1.
<mgrwt>
<rscale>  2 0.10520981E+02</rscale>
<asrwt>0</asrwt>
<pdfrwt beam="1">  1       21 0.30672923E-02 0.10520981E+02</pdfrwt>
<pdfrwt beam="2">  1       21 0.12482102E-01 0.10520981E+02</pdfrwt>
<totfact> 0.19860754E+07</totfact>
</mgrwt>
</event>
<event>
 4    1  0.3906087E+006  0.5033371E+01  0.7546771E-02  0.2561268E+00
         21   -1    0    0  503  502  0.00000000000E+00  0.00000000000E+00  0.43131411056E+01  0.43131411056E+01  0.00000000000E+00 0.  1.
         21   -1    0    0  501  503 -0.00000000000E+00 -0.00000000000E+00 -0.63644560052E+02  0.63644560052E+02  0.00000000000E+00 0.  1.
          5    1    1    2  501    0  0.15061563629E+01 -0.98808980114E+00 -0.62038625321E+02  0.62242476334E+02  0.47000000000E+01 0.  1.
         -5    1    1    2    0  502 -0.15061563629E+01  0.98808980114E+00  0.27072063739E+01  0.57152248246E+01  0.47000000000E+01 0.  1.
<mgrwt>
<rscale>  2 0.50333715E+01</rscale>
<asrwt>0</asrwt>
<pdfrwt beam="1">  1       21 0.66356013E-03 0.50333715E+01</pdfrwt>
<pdfrwt beam="2">  1       21 0.97914714E-02 0.50333715E+01</pdfrwt>
<totfact> 0.17549547E+08</totfact>
</mgrwt>
</event>
<event>
 4    1  0.3906087E+006  0.5964688E+01  0.7546771E-02  0.2420042E+00
         21   -1    0    0  501  502  0.00000000000E+00  0.00000000000E+00  0.95946252492E+02  0.95946252492E+02  0.00000000000E+00 0. -1.
         21   -1    0    0  502  503 -0.00000000000E+00 -0.00000000000E+00 -0.52842011822E+00  0.52842011822E+00  0.00000000000E+00 0. -1.
          5    1    1    2  501    0  0.34706821477E+00 -0.36560968714E+01  0.74053444097E+02  0.74293270781E+02  0.47000000000E+01 0. -1.
         -5    1    1    2    0  503 -0.34706821477E+00  0.36560968714E+01  0.21364388277E+02  0.22181401829E+02  0.47000000000E+01 0. -1.
<mgrwt>
<rscale>  2 0.59646878E+01</rscale>
<asrwt>0</asrwt>
<pdfrwt beam="1">  1       21 0.14760948E-01 0.59646878E+01</pdfrwt>
<pdfrwt beam="2">  1       21 0.81295479E-04 0.59646878E+01</pdfrwt>
<totfact> 0.18551805E+09</totfact>
</mgrwt>
</event>
<event>
 4    1  0.3906087E+006  0.5113323E+01  0.7546771E-02  0.2547435E+00
         21   -1    0    0  501  502  0.00000000000E+00  0.00000000000E+00  0.15926548442E+00  0.15926548442E+00  0.00000000000E+00 0. -1.
         21   -1    0    0  502  503 -0.00000000000E+00 -0.00000000000E+00 -0.24333288609E+03  0.24333288609E+03  0.00000000000E+00 0. -1.
          5    1    1    2  501    0 -0.12064866268E+01  0.16125962893E+01 -0.52144423420E+02  0.52394531877E+02  0.47000000000E+01 0. -1.
         -5    1    1    2    0  503  0.12064866268E+01 -0.16125962893E+01 -0.19102919718E+03  0.19109761970E+03  0.47000000000E+01 0. -1.
<mgrwt>
<rscale>  2 0.51133235E+01</rscale>
<asrwt>0</asrwt>
<pdfrwt beam="1">  1       21 0.24502316E-04 0.51133235E+01</pdfrwt>
<pdfrwt beam="2">  1       21 0.37435930E-01 0.51133235E+01</pdfrwt>
<totfact> 0.17580516E+09</totfact>
</mgrwt>
</event>
<event>
 4    1  0.3906087E+006  0.5042865E+01  0.7546771E-02  0.2559605E+00
         21   -1    0    0  501  502  0.00000000000E+00  0.00000000000E+00  0.53419185107E+01  0.53419185107E+01  0.00000000000E+00 0. -1.
         21   -1    0    0  502  503 -0.00000000000E+00 -0.00000000000E+00 -0.31954519630E+02  0.31954519630E+02  0.00000000000E+00 0. -1.
          5    1    1    2  501    0 -0.18115160830E+01  0.24267774942E+00  0.38968306092E+01  0.63730504317E+01  0.47000000000E+01 0. -1.
         -5    1    1    2    0  503  0.18115160830E+01 -0.24267774942E+00 -0.30509431729E+02  0.30923387709E+02  0.47000000000E+01 0. -1.
<mgrwt>
<rscale>  2 0.50428646E+01</rscale>
<asrwt>0</asrwt>
<pdfrwt beam="1">  1       21 0.82183363E-03 0.50428646E+01</pdfrwt>
<pdfrwt beam="2">  1       21 0.49160799E-02 0.50428646E+01</pdfrwt>
<totfact> 0.36358329E+08</totfact>
</mgrwt>
</event>
<event>
 4    1  0.3906087E+006  0.5214251E+01  0.7546771E-02  0.2530494E+00
         21   -1    0    0  503  502  0.00000000000E+00  0.00000000000E+00  0.14158214124E+02  0.14158214124E+02  0.00000000000E+00 0.  1.
         21   -1    0    0  501  503 -0.00000000000E+00 -0.00000000000E+00 -0.30591175683E+01  0.30591175683E+01  0.00000000000E+00 0.  1.
          5    1    1    2  501    0  0.13704185021E+01 -0.17945392383E+01  0.29712802746E+00  0.52227103130E+01  0.47000000000E+01 0.  1.
         -5    1    1    2    0  502 -0.13704185021E+01  0.17945392383E+01  0.10801968528E+02  0.11994621379E+02  0.47000000000E+01 0.  1.
<mgrwt>
<rscale>  2 0.52142514E+01</rscale>
<asrwt>0</asrwt>
<pdfrwt beam="1">  1       21 0.21781867E-02 0.52142514E+01</pdfrwt>
<pdfrwt beam="2">  1       21 0.47063348E-03 0.52142514E+01</pdfrwt>
<totfact> 0.26227787E+09</totfact>
</mgrwt>
</event>
<event>
 4    1  0.3906087E+006  0.6981159E+01  0.7546771E-02  0.2302897E+00
         21   -1    0    0  501  502  0.00000000000E+00  0.00000000000E+00  0.11569273276E+02  0.11569273276E+02  0.00000000000E+00 0.  1.
         21   -1    0    0  502  503 -0.00000000000E+00 -0.00000000000E+00 -0.55350745132E+02  0.55350745132E+02  0.00000000000E+00 0.  1.
          5    1    1    2  501    0  0.42763513862E+01 -0.28912622904E+01  0.10270805696E+02  0.12418777253E+02  0.47000000000E+01 0.  1.
         -5    1    1    2    0  503 -0.42763513862E+01  0.28912622904E+01 -0.54052277553E+02  0.54501241155E+02  0.47000000000E+01 0.  1.
<mgrwt>
<rscale>  2 0.69811588E+01</rscale>
<asrwt>0</asrwt>
<pdfrwt beam="1">  1       21 0.17798882E-02 0.69811588E+01</pdfrwt>
<pdfrwt beam="2">  1       21 0.85154994E-02 0.69811588E+01</pdfrwt>
<totfact> 0.67140868E+07</totfact>
</mgrwt>
</event>
<event>
 4    1  0.3906087E+006  0.4920780E+01  0.7546771E-02  0.2581402E+00
         21   -1    0    0  503  502  0.00000000000E+00  0.00000000000E+00  0.21610309289E+01  0.21610309289E+01  0.00000000000E+00 0.  1.
         21   -1    0    0  501  503 -0.00000000000E+00 -0.00000000000E+00 -0.13125451690E+02  0.13125451690E+02  0.00000000000E+00 0.  1.
          5    1    1    2  501    0 -0.13880869109E+01  0.44417718632E+00 -0.84059346628E+01  0.97403191016E+01  0.47000000000E+01 0. -1.
         -5    1    1    2    0  502  0.13880869109E+01 -0.44417718632E+00 -0.25584860984E+01  0.55461635173E+01  0.47000000000E+01 0. -1.
<mgrwt>
<rscale>  2 0.49207803E+01</rscale>
<asrwt>0</asrwt>
<pdfrwt beam="1">  1       21 0.33246629E-03 0.49207803E+01</pdfrwt>
<pdfrwt beam="2">  1       21 0.20193003E-02 0.49207803E+01</pdfrwt>
<totfact> 0.44265292E+09</totfact>
</mgrwt>
</event>
<event>
 4    1  0.3906087E+006  0.5356700E+01  0.7546771E-02  0.2507516E+00
         21   -1    0    0  503  502  0.00000000000E+00  0.00000000000E+00  0.18614480252E+03  0.18614480252E+03  0.00000000000E+00 0. -1.
         21   -1    0    0  501  503 -0.00000000000E+00 -0.00000000000E+00 -0.10804522795E+01  0.10804522795E+01  0.00000000000E+00 0. -1.
          5    1    1    2  501    0 -0.12433135515E+01 -0.22490893747E+01  0.58543525238E+01  0.79352173931E+01  0.47000000000E+01 0. -1.
         -5    1    1    2    0  502  0.12433135515E+01  0.22490893747E+01  0.17920999771E+03  0.17929003740E+03  0.47000000000E+01 0. -1.
<mgrwt>
<rscale>  2 0.53566997E+01</rscale>
<asrwt>0</asrwt>
<pdfrwt beam="1">  1       21 0.28637637E-01 0.53566997E+01</pdfrwt>
<pdfrwt beam="2">  1       21 0.16622358E-03 0.53566997E+01</pdfrwt>
<totfact> 0.22420681E+08</totfact>
</mgrwt>
</event>
<event>
 4    1  0.3906087E+006  0.8471686E+01  0.7546771E-02  0.2174064E+00
         21   -1    0    0  501  502  0.00000000000E+00  0.00000000000E+00  0.16471394096E+03  0.16471394096E+03  0.00000000000E+00 0. -1.
         21   -1    0    0  502  503 -0.00000000000E+00 -0.00000000000E+00 -0.82271202988E+00  0.82271202988E+00  0.00000000000E+00 0.  1.
          5    1    1    2  501    0 -0.17862489877E+01  0.68182681303E+01  0.13871186552E+03  0.13897032454E+03  0.47000000000E+01 0. -1.
         -5    1    1    2    0  503  0.17862489877E+01 -0.68182681303E+01  0.25179363406E+02  0.26566328449E+02  0.47000000000E+01 0.  1.
<mgrwt>
<rscale>  2 0.84716861E+01</rscale>
<asrwt>0</asrwt>
<pdfrwt beam="1">  1       21 0.25340580E-01 0.84716861E+01</pdfrwt>
<pdfrwt beam="2">  1       21 0.12657121E-03 0.84716861E+01</pdfrwt>
<totfact> 0.53693724E+08</totfact>
</mgrwt>
</event>
<event>
 4    1  0.3906087E+006  0.8310800E+01  0.7546771E-02  0.2186156E+00
         21   -1    0    0  503  502  0.00000000000E+00  0.00000000000E+00  0.36364265296E+03  0.36364265296E+03  0.00000000000E+00 0.  1.
         21   -1    0    0  501  503 -0.00000000000E+00 -0.00000000000E+00 -0.20545351961E+00  0.20545351961E+00  0.00000000000E+00 0.  1.
          5    1    1    2  501    0  0.58520580759E+00 -0.68291237576E+01  0.23171315304E+03  0.23186214588E+03  0.47000000000E+01 0.  1.
         -5    1    1    2    0  502 -0.58520580759E+00  0.68291237576E+01  0.13172404640E+03  0.13198596060E+03  0.47000000000E+01 0.  1.
<mgrwt>
<rscale>  2 0.83108000E+01</rscale>
<asrwt>0</asrwt>
<pdfrwt beam="1">  1       21 0.55944508E-01 0.83108000E+01</pdfrwt>
<pdfrwt beam="2">  1       21 0.31608525E-04 0.83108000E+01</pdfrwt>
<totfact> 0.86027799E+08</totfact>
</mgrwt>
</event>
<event>
 4    1  0.3906087E+006  0.6288266E+01  0.7546771E-02  0.2379350E+00
         21   -1    0    0  501  502  0.00000000000E+00  0.00000000000E+00  0.21727182651E+02  0.21727182651E+02  0.00000000000E+00 0.  1.
         21   -1    0    0  502  503 -0.00000000000E+00 -0.00000000000E+00 -0.52400649551E+01  0.52400649551E+01  0.00000000000E+00 0.  1.
          5    1    1    2  501    0  0.19936471484E+01 -0.36711932598E+01  0.19136845388E+02  0.20143513603E+02  0.47000000000E+01 0.  1.
         -5    1    1    2    0  503 -0.19936471484E+01  0.36711932598E+01 -0.26497276914E+01  0.68237340029E+01  0.47000000000E+01 0.  1.
<mgrwt>
<rscale>  2 0.62882660E+01</rscale>
<asrwt>0</asrwt>
<pdfrwt beam="1">  1       21 0.33426434E-02 0.62882660E+01</pdfrwt>
<pdfrwt beam="2">  1       21 0.80616385E-03 0.62882660E+01</pdfrwt>
<totfact> 0.78648790E+08</totfact>
</mgrwt>
</event>
<event>
 4    1  0.3906087E+006  0.6660789E+01  0.7546771E-02  0.2336613E+00
         21   -1    0    0  503  502  0.00000000000E+00  0.00000000000E+00  0.48156138331E+00  0.48156138331E+00  0.00000000000E+00 0. -1.
         21   -1    0    0  501  503 -0.00000000000E+00 -0.00000000000E+00 -0.12143605039E+03  0.12143605039E+03  0.00000000000E+00 0.  1.
          5    1    1    2  501    0 -0.87101560007E+00  0.46386898336E+01 -0.30530927726E+02  0.31249058536E+02  0.47000000000E+01 0. -1.
         -5    1    1    2    0  502  0.87101560007E+00 -0.46386898336E+01 -0.90423561284E+02  0.90668553241E+02  0.47000000000E+01 0.  1.
<mgrwt>
<rscale>  2 0.66607891E+01</rscale>
<asrwt>0</asrwt>
<pdfrwt beam="1">  1       21 0.74086394E-04 0.66607891E+01</pdfrwt>
<pdfrwt beam="2">  1       21 0.18682462E-01 0.66607891E+01</pdfrwt>
<totfact> 0.15734832E+09</totfact>
</mgrwt>
</event>
<event>
 4    1  0.3906087E+006  0.6086032E+01  0.7546771E-02  0.2404359E+00
         21   -1    0    0  503  502  0.00000000000E+00  0.00000000000E+00  0.28487584561E+01  0.28487584561E+01  0.00000000000E+00 0. -1.
         21   -1    0    0  501  503 -0.00000000000E+00 -0.00000000000E+00 -0.13117589408E+02  0.13117589408E+02  0.00000000000E+00 0. -1.
          5    1    1    2  501    0  0.38636352072E+01  0.14868435340E+00 -0.58835470610E+01  0.84649813981E+01  0.47000000000E+01 0. -1.
         -5    1    1    2    0  502 -0.38636352072E+01 -0.14868435340E+00 -0.43852838904E+01  0.75013664655E+01  0.47000000000E+01 0. -1.
<mgrwt>
<rscale>  2 0.60860319E+01</rscale>
<asrwt>0</asrwt>
<pdfrwt beam="1">  1       21 0.43827052E-03 0.60860319E+01</pdfrwt>
<pdfrwt beam="2">  1       21 0.20180907E-02 0.60860319E+01</pdfrwt>
<totfact> 0.37279974E+09</totfact>
</mgrwt>
</event>
<event>
 4    1  0.3906087E+006  0.6063310E+01  0.7546771E-02  0.2407256E+00
         21   -1    0    0  503  502  0.00000000000E+00  0.00000000000E+00  0.20649598196E+03  0.20649598196E+03  0.00000000000E+00 0. -1.
         21   -1    0    0  501  503 -0.00000000000E+00 -0.00000000000E+00 -0.18317375578E+00  0.18317375578E+00  0.00000000000E+00 0. -1.
          5    1    1    2  501    0 -0.38305776423E+01  0.20073882577E-01  0.85849480989E+02  0.86063331995E+02  0.47000000000E+01 0.  1.
         -5    1    1    2    0  502  0.38305776423E+01 -0.20073882577E-01  0.12046332722E+03  0.12061582372E+03  0.47000000000E+01 0.  1.
<mgrwt>
<rscale>  2 0.60633100E+01</rscale>
<asrwt>0</asrwt>
<pdfrwt beam="1">  1       21 0.31768426E-01 0.60633100E+01</pdfrwt>
<pdfrwt beam="2">  1       21 0.28180743E-04 0.60633100E+01</pdfrwt>
<totfact> 0.22222772E+09</totfact>
</mgrwt>
</event>
<event>
 4    1  0.3906087E+006  0.5404518E+01  0.7546771E-02  0.2500035E+00
         21   -1    0    0  503  502  0.00000000000E+00  0.00000000000E+00  0.14345964150E+03  0.14345964150E+03  0.00000000000E+00 0. -1.
         21   -1    0    0  501  503 -0.00000000000E+00 -0.00000000000E+00 -0.32823668271E+00  0.32823668271E+00  0.00000000000E+00 0.  1.
          5    1    1    2  501    0 -0.17025759958E+01 -0.20542771324E+01  0.27264413588E+02  0.27794910827E+02  0.47000000000E+01 0.  1.
         -5    1    1    2    0  502  0.17025759958E+01  0.20542771324E+01  0.11586699123E+03  0.11599296735E+03  0.47000000000E+01 0. -1.
<mgrwt>
<rscale>  2 0.54045184E+01</rscale>
<asrwt>0</asrwt>
<pdfrwt beam="1">  1       21 0.22070664E-01 0.54045184E+01</pdfrwt>
<pdfrwt beam="2">  1       21 0.50498066E-04 0.54045184E+01</pdfrwt>
<totfact> 0.16977029E+09</totfact>
</mgrwt>
</event>
<event>
 4    1  0.3906087E+006  0.6405483E+01  0.7546771E-02  0.2365459E+00
         21   -1    0    0  503  502  0.00000000000E+00  0.00000000000E+00  0.11552012627E+02  0.11552012627E+02  0.00000000000E+00 0. -1.
         21   -1    0    0  501  503 -0.00000000000E+00 -0.00000000000E+00 -0.12113695850E+02  0.12113695850E+02  0.00000000000E+00 0. -1.
          5    1    1    2  501    0  0.41733023322E+01 -0.12344043944E+01 -0.10228861882E+02  0.12068961097E+02  0.47000000000E+01 0. -1.
         -5    1    1    2    0  502 -0.41733023322E+01  0.12344043944E+01  0.96671786585E+01  0.11596747379E+02  0.47000000000E+01 0. -1.
<mgrwt>
<rscale>  2 0.64054825E+01</rscale>
<asrwt>0</asrwt>
<pdfrwt beam="1">  1       21 0.17772327E-02 0.64054825E+01</pdfrwt>
<pdfrwt beam="2">  1       21 0.18636455E-02 0.64054825E+01</pdfrwt>
<totfact> 0.60509225E+08</totfact>
</mgrwt>
</event>
<event>
 4    1  0.3906087E+006  0.1077908E+02  0.7546771E-02  0.2033184E+00
         21   -1    0    0  503  502  0.00000000000E+00  0.00000000000E+00  0.15327777515E+01  0.15327777515E+01  0.00000000000E+00 0.  1.
         21   -1    0    0  501  503 -0.00000000000E+00 -0.00000000000E+00 -0.12641864011E+03  0.12641864011E+03  0.00000000000E+00 0. -1.
          5    1    1    2  501    0 -0.96217163932E+01 -0.12333591311E+01 -0.10292413867E+03  0.10348703746E+03  0.47000000000E+01 0. -1.
         -5    1    1    2    0  502  0.96217163932E+01  0.12333591311E+01 -0.21961723687E+02  0.24464380401E+02  0.47000000000E+01 0.  1.
<mgrwt>
<rscale>  2 0.10779082E+02</rscale>
<asrwt>0</asrwt>
<pdfrwt beam="1">  1       21 0.23581190E-03 0.10779082E+02</pdfrwt>
<pdfrwt beam="2">  1       21 0.19449026E-01 0.10779082E+02</pdfrwt>
<totfact> 0.40107646E+08</totfact>
</mgrwt>
</event>
<event>
 4    1  0.3906087E+006  0.6948029E+01  0.7546771E-02  0.2306265E+00
         21   -1    0    0  503  502  0.00000000000E+00  0.00000000000E+00  0.27949191700E+01  0.27949191700E+01  0.00000000000E+00 0.  1.
         21   -1    0    0  501  503 -0.00000000000E+00 -0.00000000000E+00 -0.29090038575E+02  0.29090038575E+02  0.00000000000E+00 0.  1.
          5    1    1    2  501    0 -0.61985424192E+00 -0.50794580711E+01 -0.23308831214E+02  0.24322350342E+02  0.47000000000E+01 0.  1.
         -5    1    1    2    0  502  0.61985424192E+00  0.50794580711E+01 -0.29862881909E+01  0.75626074033E+01  0.47000000000E+01 0.  1.
<mgrwt>
<rscale>  2 0.69480295E+01</rscale>
<asrwt>0</asrwt>
<pdfrwt beam="1">  1       21 0.42998753E-03 0.69480295E+01</pdfrwt>
<pdfrwt beam="2">  1       21 0.44753909E-02 0.69480295E+01</pdfrwt>
<totfact> 0.13307578E+09</totfact>
</mgrwt>
</event>
<event>
 4    1  0.3906087E+006  0.6589847E+01  0.7546771E-02  0.2344443E+00
         21   -1    0    0  503  502  0.00000000000E+00  0.00000000000E+00  0.63500211706E+02  0.63500211706E+02  0.00000000000E+00 0. -1.
         21   -1    0    0  501  503 -0.00000000000E+00 -0.00000000000E+00 -0.71522456158E+00  0.71522456158E+00  0.00000000000E+00 0.  1.
          5    1    1    2  501    0 -0.14624308381E+01  0.43814815948E+01  0.24670202488E+02  0.25535171347E+02  0.47000000000E+01 0.  1.
         -5    1    1    2    0  502  0.14624308381E+01 -0.43814815948E+01  0.38114784656E+02  0.38680264921E+02  0.47000000000E+01 0. -1.
<mgrwt>
<rscale>  2 0.65898471E+01</rscale>
<asrwt>0</asrwt>
<pdfrwt beam="1">  1       21 0.97692589E-02 0.65898471E+01</pdfrwt>
<pdfrwt beam="2">  1       21 0.11003460E-03 0.65898471E+01</pdfrwt>
<totfact> 0.25460411E+09</totfact>
</mgrwt>
</event>
<event>
 4    1  0.3906087E+006  0.6256568E+01  0.7546771E-02  0.2383181E+00
         21   -1    0    0  501  502  0.00000000000E+00  0.00000000000E+00  0.14799882492E+02  0.14799882492E+02  0.00000000000E+00 0.  1.
         21   -1    0    0  502  503 -0.00000000000E+00 -0.00000000000E+00 -0.14998963200E+02  0.14998963200E+02  0.00000000000E+00 0. -1.
          5    1    1    2  501    0  0.11674619030E+00  0.41280768782E+01  0.13422530698E+02  0.14809084331E+02  0.47000000000E+01 0.  1.
         -5    1    1    2    0  503 -0.11674619030E+00 -0.41280768782E+01 -0.13621611405E+02  0.14989761361E+02  0.47000000000E+01 0. -1.
<mgrwt>
<rscale>  2 0.62565684E+01</rscale>
<asrwt>0</asrwt>
<pdfrwt beam="1">  1       21 0.22769050E-02 0.62565684E+01</pdfrwt>
<pdfrwt beam="2">  1       21 0.23075328E-02 0.62565684E+01</pdfrwt>
<totfact> 0.30563908E+08</totfact>
</mgrwt>
</event>
<event>
 4    1  0.3906087E+006  0.5355392E+01  0.7546771E-02  0.2507723E+00
         21   -1    0    0  501  502  0.00000000000E+00  0.00000000000E+00  0.11628553015E+00  0.11628553015E+00  0.00000000000E+00 0.  1.
         21   -1    0    0  502  503 -0.00000000000E+00 -0.00000000000E+00 -0.27353146078E+03  0.27353146078E+03  0.00000000000E+00 0. -1.
          5    1    1    2  501    0 -0.51816584431E+00 -0.25143049078E+01 -0.17961139734E+03  0.17969121926E+03  0.47000000000E+01 0. -1.
         -5    1    1    2    0  503  0.51816584431E+00  0.25143049078E+01 -0.93803777905E+02  0.93956527045E+02  0.47000000000E+01 0.  1.
<mgrwt>
<rscale>  2 0.53553921E+01</rscale>
<asrwt>0</asrwt>
<pdfrwt beam="1">  1       21 0.17889966E-04 0.53553921E+01</pdfrwt>
<pdfrwt beam="2">  1       21 0.42082035E-01 0.53553921E+01</pdfrwt>
<totfact> 0.22690211E+09</totfact>
</mgrwt>
</event>
<event>
 4    1  0.3906087E+006  0.6228136E+01  0.7546771E-02  0.2386645E+00
         21   -1    0    0  503  502  0.00000000000E+00  0.00000000000E+00  0.22456747368E+02  0.22456747368E+02  0.00000000000E+00 0.  1.
         21   -1    0    0  501  503 -0.00000000000E+00 -0.00000000000E+00 -0.27144517741E+01  0.27144517741E+01  0.00000000000E+00 0.  1.
          5    1    1    2  501    0 -0.28404773621E+01  0.29379195910E+01  0.17460826741E+02  0.18538342797E+02  0.47000000000E+01 0.  1.
         -5    1    1    2    0  502  0.28404773621E+01 -0.29379195910E+01  0.22814688523E+01  0.66328563449E+01  0.47000000000E+01 0.  1.
<mgrwt>
<rscale>  2 0.62281364E+01</rscale>
<asrwt>0</asrwt>
<pdfrwt beam="1">  1       21 0.34548841E-02 0.62281364E+01</pdfrwt>
<pdfrwt beam="2">  1       21 0.41760798E-03 0.62281364E+01</pdfrwt>
<totfact> 0.18639632E+09</totfact>
</mgrwt>
</event>
<event>
 4    1  0.3906087E+006  0.5233480E+01  0.7546771E-02  0.2527330E+00
         21   -1    0    0  503  502  0.00000000000E+00  0.00000000000E+00  0.69126208165E+00  0.69126208165E+00  0.00000000000E+00 0.  1.
         21   -1    0    0  501  503 -0.00000000000E+00 -0.00000000000E+00 -0.70806750060E+02  0.70806750060E+02  0.00000000000E+00 0.  1.
          5    1    1    2  501    0  0.19287935165E+01 -0.12566079094E+01 -0.58782215630E+02  0.59014728520E+02  0.47000000000E+01 0.  1.
         -5    1    1    2    0  502 -0.19287935165E+01  0.12566079094E+01 -0.11333272348E+02  0.12483283622E+02  0.47000000000E+01 0.  1.
<mgrwt>
<rscale>  2 0.52334795E+01</rscale>
<asrwt>0</asrwt>
<pdfrwt beam="1">  1       21 0.10634799E-03 0.52334795E+01</pdfrwt>
<pdfrwt beam="2">  1       21 0.10893349E-01 0.52334795E+01</pdfrwt>
<totfact> 0.18517162E+09</totfact>
</mgrwt>
</event>
<event>
 4    1  0.3906087E+006  0.1425139E+02  0.7546771E-02  0.1891811E+00
         21   -1    0    0  501  502  0.00000000000E+00  0.00000000000E+00  0.19609164417E+03  0.19609164417E+03  0.00000000000E+00 0. -1.
         21   -1    0    0  502  503 -0.00000000000E+00 -0.00000000000E+00 -0.17684471768E+01  0.17684471768E+01  0.00000000000E+00 0.  1.
          5    1    1    2  501    0 -0.20683066070E+01  0.13294139061E+02  0.16084030950E+03  0.16147045298E+03  0.47000000000E+01 0. -1.
         -5    1    1    2    0  503  0.20683066070E+01 -0.13294139061E+02  0.33482887499E+02  0.36389638373E+02  0.47000000000E+01 0.  1.
<mgrwt>
<rscale>  2 0.14251387E+02</rscale>
<asrwt>0</asrwt>
<pdfrwt beam="1">  1       21 0.30167928E-01 0.14251387E+02</pdfrwt>
<pdfrwt beam="2">  1       21 0.27206895E-03 0.14251387E+02</pdfrwt>
<totfact> 0.17306199E+08</totfact>
</mgrwt>
</event>
<event>
 4    1  0.3906087E+006  0.4836363E+01  0.7546771E-02  0.2597028E+00
         21   -1    0    0  501  502  0.00000000000E+00  0.00000000000E+00  0.41336783656E-01  0.41336783656E-01  0.00000000000E+00 0. -1.
         21   -1    0    0  502  503 -0.00000000000E+00 -0.00000000000E+00 -0.10440204149E+04  0.10440204149E+04  0.00000000000E+00 0. -1.
          5    1    1    2  501    0  0.10419070087E+01  0.46351005020E+00 -0.16869809035E+03  0.16876740236E+03  0.47000000000E+01 0. -1.
         -5    1    1    2    0  503 -0.10419070087E+01 -0.46351005020E+00 -0.87528098778E+03  0.87529434934E+03  0.47000000000E+01 0. -1.
<mgrwt>
<rscale>  2 0.48363635E+01</rscale>
<asrwt>0</asrwt>
<pdfrwt beam="1">  1       21 0.63597573E-05 0.48363635E+01</pdfrwt>
<pdfrwt beam="2">  1       21 0.16061216E+00 0.48363635E+01</pdfrwt>
<totfact> 0.62012193E+08</totfact>
</mgrwt>
</event>
<event>
 4    1  0.3906087E+006  0.5198761E+01  0.7546771E-02  0.2533057E+00
         21   -1    0    0  501  502  0.00000000000E+00  0.00000000000E+00  0.57508499067E+01  0.57508499067E+01  0.00000000000E+00 0. -1.
         21   -1    0    0  502  503 -0.00000000000E+00 -0.00000000000E+00 -0.10271278313E+02  0.10271278313E+02  0.00000000000E+00 0. -1.
          5    1    1    2  501    0 -0.22014465228E+01 -0.30124379007E+00  0.36400047279E+01  0.63463965392E+01  0.47000000000E+01 0. -1.
         -5    1    1    2    0  503  0.22014465228E+01  0.30124379007E+00 -0.81604331345E+01  0.96757316806E+01  0.47000000000E+01 0. -1.
<mgrwt>
<rscale>  2 0.51987609E+01</rscale>
<asrwt>0</asrwt>
<pdfrwt beam="1">  1       21 0.88474616E-03 0.51987609E+01</pdfrwt>
<pdfrwt beam="2">  1       21 0.15801966E-02 0.51987609E+01</pdfrwt>
<totfact> 0.17208122E+09</totfact>
</mgrwt>
</event>
<event>
 4    1  0.3906087E+006  0.1099815E+02  0.7546771E-02  0.2022268E+00
         21   -1    0    0  503  502  0.00000000000E+00  0.00000000000E+00  0.56757632689E+00  0.56757632689E+00  0.00000000000E+00 0.  1.
         21   -1    0    0  501  503 -0.00000000000E+00 -0.00000000000E+00 -0.30134104201E+03  0.30134104201E+03  0.00000000000E+00 0. -1.
          5    1    1    2  501    0  0.34981094598E+00  0.99371476349E+01 -0.23206635523E+03  0.23232682260E+03  0.47000000000E+01 0. -1.
         -5    1    1    2    0  502 -0.34981094598E+00 -0.99371476349E+01 -0.68707110455E+02  0.69581795736E+02  0.47000000000E+01 0.  1.
<mgrwt>
<rscale>  2 0.10998149E+02</rscale>
<asrwt>0</asrwt>
<pdfrwt beam="1">  1       21 0.87319423E-04 0.10998149E+02</pdfrwt>
<pdfrwt beam="2">  1       21 0.46360166E-01 0.10998149E+02</pdfrwt>
<totfact> 0.35180588E+08</totfact>
</mgrwt>
</event>
<event>
 4    1  0.3906087E+006  0.6700881E+01  0.7546771E-02  0.2332249E+00
         21   -1    0    0  503  502  0.00000000000E+00  0.00000000000E+00  0.14669139012E+01  0.14669139012E+01  0.00000000000E+00 0.  1.
         21   -1    0    0  501  503 -0.00000000000E+00 -0.00000000000E+00 -0.33974790863E+02  0.33974790863E+02  0.00000000000E+00 0. -1.
          5    1    1    2  501    0 -0.45547537722E+01 -0.14373663513E+01 -0.10676892937E+02  0.12605468922E+02  0.47000000000E+01 0.  1.
         -5    1    1    2    0  502  0.45547537722E+01  0.14373663513E+01 -0.21830984025E+02  0.22836235842E+02  0.47000000000E+01 0.  1.
<mgrwt>
<rscale>  2 0.67008808E+01</rscale>
<asrwt>0</asrwt>
<pdfrwt beam="1">  1       21 0.22567908E-03 0.67008808E+01</pdfrwt>
<pdfrwt beam="2">  1       21 0.52268905E-02 0.67008808E+01</pdfrwt>
<totfact> 0.25064510E+09</totfact>
</mgrwt>
</event>
<event>
 4    1  0.3906087E+006  0.6583637E+01  0.7546771E-02  0.2345135E+00
         21   -1    0    0  503  502  0.00000000000E+00  0.00000000000E+00  0.18328610570E+03  0.18328610570E+03  0.00000000000E+00 0. -1.
         21   -1    0    0  501  503 -0.00000000000E+00 -0.00000000000E+00 -0.30224934519E+00  0.30224934519E+00  0.00000000000E+00 0. -1.
          5    1    1    2  501    0 -0.17427054165E+00 -0.46069411071E+01  0.48673552432E+02  0.49116789216E+02  0.47000000000E+01 0. -1.
         -5    1    1    2    0  502  0.17427054165E+00  0.46069411071E+01  0.13431030392E+03  0.13447156583E+03  0.47000000000E+01 0. -1.
<mgrwt>
<rscale>  2 0.65836370E+01</rscale>
<asrwt>0</asrwt>
<pdfrwt beam="1">  1       21 0.28197774E-01 0.65836370E+01</pdfrwt>
<pdfrwt beam="2">  1       21 0.46500046E-04 0.65836370E+01</pdfrwt>
<totfact> 0.14798639E+09</totfact>
</mgrwt>
</event>
<event>
 4    1  0.3906087E+006  0.5485129E+01  0.7546771E-02  0.2487675E+00
         21   -1    0    0  501  502  0.00000000000E+00  0.00000000000E+00  0.81291160328E+02  0.81291160328E+02  0.00000000000E+00 0.  1.
         21   -1    0    0  502  503 -0.00000000000E+00 -0.00000000000E+00 -0.44108128739E+00  0.44108128739E+00  0.00000000000E+00 0.  1.
          5    1    1    2  501    0 -0.28103438133E+01  0.31401337162E+00  0.24032481037E+02  0.24650492522E+02  0.47000000000E+01 0.  1.
         -5    1    1    2    0  503  0.28103438133E+01 -0.31401337162E+00  0.56817598004E+02  0.57081749094E+02  0.47000000000E+01 0.  1.
<mgrwt>
<rscale>  2 0.54851287E+01</rscale>
<asrwt>0</asrwt>
<pdfrwt beam="1">  1       21 0.12506320E-01 0.54851287E+01</pdfrwt>
<pdfrwt beam="2">  1       21 0.67858724E-04 0.54851287E+01</pdfrwt>
<totfact> 0.28463964E+09</totfact>
</mgrwt>
</event>
<event>
 4    1  0.3906087E+006  0.5148800E+01  0.7546771E-02  0.2541415E+00
         21   -1    0    0  501  502  0.00000000000E+00  0.00000000000E+00  0.87972236711E+03  0.87972236711E+03  0.00000000000E+00 0.  1.
         21   -1    0    0  502  503 -0.00000000000E+00 -0.00000000000E+00 -0.31307502921E-01  0.31307502921E-01  0.00000000000E+00 0.  1.
          5    1    1    2  501    0 -0.76830656922E-01  0.21010077050E+01  0.35470694935E+03  0.35474431645E+03  0.47000000000E+01 0.  1.
         -5    1    1    2    0  503  0.76830656922E-01 -0.21010077050E+01  0.52498411026E+03  0.52500935816E+03  0.47000000000E+01 0.  1.
<mgrwt>
<rscale>  2 0.51487995E+01</rscale>
<asrwt>0</asrwt>
<pdfrwt beam="1">  1       21 0.13532211E+00 0.51487995E+01</pdfrwt>
<pdfrwt beam="2">  1       21 0.48172435E-05 0.51487995E+01</pdfrwt>
<totfact> 0.13544383E+09</totfact>
</mgrwt>
</event>
<event>
 4    1  0.3906087E+006  0.7344722E+01  0.7546771E-02  0.2267583E+00
         21   -1    0    0  501  502  0.00000000000E+00  0.00000000000E+00  0.14300386633E+01  0.14300386633E+01  0.00000000000E+00 0.  1.
         21   -1    0    0  502  503 -0.00000000000E+00 -0.00000000000E+00 -0.19753944012E+03  0.19753944012E+03  0.00000000000E+00 0. -1.
          5    1    1    2  501    0  0.20227425609E+01  0.52691034587E+01 -0.85716724592E+01  0.11287980664E+02  0.47000000000E+01 0.  1.
         -5    1    1    2    0  503 -0.20227425609E+01 -0.52691034587E+01 -0.18753772900E+03  0.18768149812E+03  0.47000000000E+01 0. -1.
<mgrwt>
<rscale>  2 0.73447218E+01</rscale>
<asrwt>0</asrwt>
<pdfrwt beam="1">  1       21 0.22000588E-03 0.73447218E+01</pdfrwt>
<pdfrwt beam="2">  1       21 0.30390693E-01 0.73447218E+01</pdfrwt>
<totfact> 0.16968104E+08</totfact>
</mgrwt>
</event>
<event>
 4    1  0.3906087E+006  0.5687706E+01  0.7546771E-02  0.2457932E+00
         21   -1    0    0  503  502  0.00000000000E+00  0.00000000000E+00  0.32253506268E+02  0.32253506268E+02  0.00000000000E+00 0. -1.
         21   -1    0    0  501  503 -0.00000000000E+00 -0.00000000000E+00 -0.10039093545E+01  0.10039093545E+01  0.00000000000E+00 0.  1.
          5    1    1    2  501    0  0.11349594999E-01 -0.32031025159E+01  0.16127585608E+02  0.17101140666E+02  0.47000000000E+01 0.  1.
         -5    1    1    2    0  502 -0.11349594999E-01  0.32031025159E+01  0.15122011306E+02  0.16156274956E+02  0.47000000000E+01 0.  1.
<mgrwt>
<rscale>  2 0.56877056E+01</rscale>
<asrwt>0</asrwt>
<pdfrwt beam="1">  1       21 0.49620771E-02 0.56877056E+01</pdfrwt>
<pdfrwt beam="2">  1       21 0.15444762E-03 0.56877056E+01</pdfrwt>
<totfact> 0.39408185E+09</totfact>
</mgrwt>
</event>
<event>
 4    1  0.3906087E+006  0.7187252E+01  0.7546771E-02  0.2282520E+00
         21   -1    0    0  503  502  0.00000000000E+00  0.00000000000E+00  0.14214605246E+01  0.14214605246E+01  0.00000000000E+00 0.  1.
         21   -1    0    0  501  503 -0.00000000000E+00 -0.00000000000E+00 -0.53026283130E+02  0.53026283130E+02  0.00000000000E+00 0.  1.
          5    1    1    2  501    0  0.54339228292E+01  0.19767801440E+00 -0.41073764613E+02  0.41697850465E+02  0.47000000000E+01 0.  1.
         -5    1    1    2    0  502 -0.54339228292E+01 -0.19767801440E+00 -0.10531057993E+02  0.12749893190E+02  0.47000000000E+01 0.  1.
<mgrwt>
<rscale>  2 0.71872522E+01</rscale>
<asrwt>0</asrwt>
<pdfrwt beam="1">  1       21 0.21868625E-03 0.71872522E+01</pdfrwt>
<pdfrwt beam="2">  1       21 0.81578893E-02 0.71872522E+01</pdfrwt>
<totfact> 0.14051843E+09</totfact>
</mgrwt>
</event>
<event>
 4    1  0.3906087E+006  0.4706141E+01  0.7546771E-02  0.2622082E+00
         21   -1    0    0  501  502  0.00000000000E+00  0.00000000000E+00  0.72651883367E-01  0.72651883367E-01  0.00000000000E+00 0.  1.
         21   -1    0    0  502  503 -0.00000000000E+00 -0.00000000000E+00 -0.44441500729E+03  0.44441500729E+03  0.00000000000E+00 0.  1.
          5    1    1    2  501    0  0.35285578247E-01  0.23774263765E+00 -0.97625961191E+02  0.97739327116E+02  0.47000000000E+01 0.  1.
         -5    1    1    2    0  503 -0.35285578247E-01 -0.23774263765E+00 -0.34671639422E+03  0.34674833206E+03  0.47000000000E+01 0.  1.
<mgrwt>
<rscale>  2 0.47061414E+01</rscale>
<asrwt>0</asrwt>
<pdfrwt beam="1">  1       21 0.11177211E-04 0.47061414E+01</pdfrwt>
<pdfrwt beam="2">  1       21 0.68371553E-01 0.47061414E+01</pdfrwt>
<totfact> 0.15812889E+09</totfact>
</mgrwt>
</event>
<event>
 4    1  0.3906087E+006  0.5329089E+01  0.7546771E-02  0.2511888E+00
         21   -1    0    0  503  502  0.00000000000E+00  0.00000000000E+00  0.19103369673E+03  0.19103369673E+03  0.00000000000E+00 0. -1.
         21   -1    0    0  501  503 -0.00000000000E+00 -0.00000000000E+00 -0.15288941934E+00  0.15288941934E+00  0.00000000000E+00 0. -1.
          5    1    1    2  501    0 -0.14889568986E+01 -0.20229191467E+01  0.79542295806E+02  0.79720612244E+02  0.47000000000E+01 0. -1.
         -5    1    1    2    0  502  0.14889568986E+01  0.20229191467E+01  0.11133851150E+03  0.11146597390E+03  0.47000000000E+01 0. -1.
<mgrwt>
<rscale>  2 0.53290895E+01</rscale>
<asrwt>0</asrwt>
<pdfrwt beam="1">  1       21 0.29389609E-01 0.53290895E+01</pdfrwt>
<pdfrwt beam="2">  1       21 0.23521602E-04 0.53290895E+01</pdfrwt>
<totfact> 0.28936863E+09</totfact>
</mgrwt>
</event>
<event>
 4    1  0.3906087E+006  0.6131591E+01  0.7546771E-02  0.2398605E+00
         21   -1    0    0  501  502  0.00000000000E+00  0.00000000000E+00  0.20229190096E+01  0.20229190096E+01  0.00000000000E+00 0.  1.
         21   -1    0    0  502  503 -0.00000000000E+00 -0.00000000000E+00 -0.25175960512E+03  0.25175960512E+03  0.00000000000E+00 0.  1.
          5    1    1    2  501    0  0.55375368231E+00  0.38986868352E+01 -0.27505043754E+01  0.67202437827E+01  0.47000000000E+01 0.  1.
         -5    1    1    2    0  503 -0.55375368231E+00 -0.38986868352E+01 -0.24698618173E+03  0.24706228034E+03  0.47000000000E+01 0.  1.
<mgrwt>
<rscale>  2 0.61315905E+01</rscale>
<asrwt>0</asrwt>
<pdfrwt beam="1">  1       21 0.31121849E-03 0.61315905E+01</pdfrwt>
<pdfrwt beam="2">  1       21 0.38732225E-01 0.61315905E+01</pdfrwt>
<totfact> 0.62443514E+07</totfact>
</mgrwt>
</event>
<event>
 4    1  0.3906087E+006  0.5298137E+01  0.7546771E-02  0.2516835E+00
         21   -1    0    0  503  502  0.00000000000E+00  0.00000000000E+00  0.37478200090E+00  0.37478200090E+00  0.00000000000E+00 0.  1.
         21   -1    0    0  501  503 -0.00000000000E+00 -0.00000000000E+00 -0.26060613430E+03  0.26060613430E+03  0.00000000000E+00 0.  1.
          5    1    1    2  501    0 -0.75577500224E+00 -0.23257378254E+01 -0.24027022415E+03  0.24032863097E+03  0.47000000000E+01 0.  1.
         -5    1    1    2    0  502  0.75577500224E+00  0.23257378254E+01 -0.19961128155E+02  0.20652285334E+02  0.47000000000E+01 0.  1.
<mgrwt>
<rscale>  2 0.52981367E+01</rscale>
<asrwt>0</asrwt>
<pdfrwt beam="1">  1       21 0.57659053E-04 0.52981367E+01</pdfrwt>
<pdfrwt beam="2">  1       21 0.40093054E-01 0.52981367E+01</pdfrwt>
<totfact> 0.51705049E+08</totfact>
</mgrwt>
</event>
<event>
 4    1  0.3906087E+006  0.5114863E+01  0.7546771E-02  0.2547172E+00
         21   -1    0    0  503  502  0.00000000000E+00  0.00000000000E+00  0.21614806231E+03  0.21614806231E+03  0.00000000000E+00 0. -1.
         21   -1    0    0  501  503 -0.00000000000E+00 -0.00000000000E+00 -0.22117563042E+01  0.22117563042E+01  0.00000000000E+00 0. -1.
          5    1    1    2  501    0  0.59842506147E+00 -0.19271001060E+01  0.81766426925E+00  0.51798071615E+01  0.47000000000E+01 0. -1.
         -5    1    1    2    0  502 -0.59842506147E+00  0.19271001060E+01  0.21311864174E+03  0.21318001146E+03  0.47000000000E+01 0. -1.
<mgrwt>
<rscale>  2 0.51148634E+01</rscale>
<asrwt>0</asrwt>
<pdfrwt beam="1">  1       21 0.33253531E-01 0.51148634E+01</pdfrwt>
<pdfrwt beam="2">  1       21 0.34027037E-03 0.51148634E+01</pdfrwt>
<totfact> 0.63997416E+07</totfact>
</mgrwt>
</event>
<event>
 4    1  0.3906087E+006  0.5609516E+01  0.7546771E-02  0.2469197E+00
         21   -1    0    0  501  502  0.00000000000E+00  0.00000000000E+00  0.80928537524E-01  0.80928537524E-01  0.00000000000E+00 0.  1.
         21   -1    0    0  502  503 -0.00000000000E+00 -0.00000000000E+00 -0.48666654600E+03  0.48666654600E+03  0.00000000000E+00 0.  1.
          5    1    1    2  501    0 -0.59633139118E+00 -0.30035071325E+01 -0.13416640843E+03  0.13428362453E+03  0.47000000000E+01 0.  1.
         -5    1    1    2    0  503  0.59633139118E+00  0.30035071325E+01 -0.35241920903E+03  0.35246385001E+03  0.47000000000E+01 0.  1.
<mgrwt>
<rscale>  2 0.56095157E+01</rscale>
<asrwt>0</asrwt>
<pdfrwt beam="1">  1       21 0.12450637E-04 0.56095157E+01</pdfrwt>
<pdfrwt beam="2">  1       21 0.74871219E-01 0.56095157E+01</pdfrwt>
<totfact> 0.13325444E+09</totfact>
</mgrwt>
</event>
<event>
 4    1  0.3906087E+006  0.4711192E+01  0.7546771E-02  0.2621088E+00
         21   -1    0    0  501  502  0.00000000000E+00  0.00000000000E+00  0.18216392764E+04  0.18216392764E+04  0.00000000000E+00 0. -1.
         21   -1    0    0  502  503 -0.00000000000E+00 -0.00000000000E+00 -0.12768236393E-01  0.12768236393E-01  0.00000000000E+00 0. -1.
          5    1    1    2  501    0 -0.27013606934E+00  0.17987619833E+00  0.11056034676E+04  0.11056135052E+04  0.47000000000E+01 0. -1.
         -5    1    1    2    0  503  0.27013606934E+00 -0.17987619833E+00  0.71602304056E+03  0.71603853943E+03  0.47000000000E+01 0. -1.
<mgrwt>
<rscale>  2 0.47111919E+01</rscale>
<asrwt>0</asrwt>
<pdfrwt beam="1">  1       21 0.28004419E+00 0.47111919E+01</pdfrwt>
<pdfrwt beam="2">  1       21 0.19658031E-05 0.47111919E+01</pdfrwt>
<totfact> 0.89872880E+08</totfact>
</mgrwt>
</event>
<event>
 4    1  0.3906087E+006  0.6162723E+01  0.7546771E-02  0.2394714E+00
         21   -1    0    0  503  502  0.00000000000E+00  0.00000000000E+00  0.79685121246E+00  0.79685121246E+00  0.00000000000E+00 0. -1.
         21   -1    0    0  501  503 -0.00000000000E+00 -0.00000000000E+00 -0.77192233717E+02  0.77192233717E+02  0.00000000000E+00 0. -1.
          5    1    1    2  501    0  0.13981899483E+01 -0.37328567391E+01 -0.62316389393E+02  0.62620376409E+02  0.47000000000E+01 0. -1.
         -5    1    1    2    0  502 -0.13981899483E+01  0.37328567391E+01 -0.14078993111E+02  0.15368708521E+02  0.47000000000E+01 0. -1.
<mgrwt>
<rscale>  2 0.61627230E+01</rscale>
<asrwt>0</asrwt>
<pdfrwt beam="1">  1       21 0.12259245E-03 0.61627230E+01</pdfrwt>
<pdfrwt beam="2">  1       21 0.11875733E-01 0.61627230E+01</pdfrwt>
<totfact> 0.15407574E+09</totfact>
</mgrwt>
</event>
<event>
 4    1  0.3906087E+006  0.1028666E+02  0.7546771E-02  0.2059031E+00
         21   -1    0    0  503  502  0.00000000000E+00  0.00000000000E+00  0.60930289174E+03  0.60930289174E+03  0.00000000000E+00 0. -1.
         21   -1    0    0  501  503 -0.00000000000E+00 -0.00000000000E+00 -0.20202465423E+00  0.20202465423E+00  0.00000000000E+00 0.  1.
          5    1    1    2  501    0 -0.67113290336E+01  0.62196005507E+01  0.19037158123E+03  0.19064929664E+03  0.47000000000E+01 0.  1.
         -5    1    1    2    0  502  0.67113290336E+01 -0.62196005507E+01  0.41872928586E+03  0.41885561976E+03  0.47000000000E+01 0. -1.
<mgrwt>
<rscale>  2 0.10286660E+02</rscale>
<asrwt>0</asrwt>
<pdfrwt beam="1">  1       21 0.93737436E-01 0.10286660E+02</pdfrwt>
<pdfrwt beam="2">  1       21 0.31081204E-04 0.10286660E+02</pdfrwt>
<totfact> 0.35544991E+08</totfact>
</mgrwt>
</event>
<event>
 4    1  0.3906087E+006  0.9535309E+01  0.7546771E-02  0.2102440E+00
         21   -1    0    0  501  502  0.00000000000E+00  0.00000000000E+00  0.10337560075E+02  0.10337560075E+02  0.00000000000E+00 0. -1.
         21   -1    0    0  502  503 -0.00000000000E+00 -0.00000000000E+00 -0.29374252726E+02  0.29374252726E+02  0.00000000000E+00 0.  1.
          5    1    1    2  501    0 -0.64071353678E+01  0.52707426223E+01  0.71011464619E+01  0.11889003006E+02  0.47000000000E+01 0. -1.
         -5    1    1    2    0  503  0.64071353678E+01 -0.52707426223E+01 -0.26137839112E+02  0.27822809795E+02  0.47000000000E+01 0.  1.
<mgrwt>
<rscale>  2 0.95353087E+01</rscale>
<asrwt>0</asrwt>
<pdfrwt beam="1">  1       21 0.15903938E-02 0.95353087E+01</pdfrwt>
<pdfrwt beam="2">  1       21 0.45191158E-02 0.95353087E+01</pdfrwt>
<totfact> 0.24710238E+08</totfact>
</mgrwt>
</event>
<event>
 4    1  0.3906087E+006  0.8665540E+01  0.7546771E-02  0.2159972E+00
         21   -1    0    0  501  502  0.00000000000E+00  0.00000000000E+00  0.75729297902E+02  0.75729297902E+02  0.00000000000E+00 0.  1.
         21   -1    0    0  502  503 -0.00000000000E+00 -0.00000000000E+00 -0.12039865029E+01  0.12039865029E+01  0.00000000000E+00 0. -1.
          5    1    1    2  501    0  0.72786773088E+01 -0.14980635939E+00  0.53419567111E+02  0.54117850435E+02  0.47000000000E+01 0.  1.
         -5    1    1    2    0  503 -0.72786773088E+01  0.14980635939E+00  0.21105744288E+02  0.22815433970E+02  0.47000000000E+01 0. -1.
<mgrwt>
<rscale>  2 0.86655401E+01</rscale>
<asrwt>0</asrwt>
<pdfrwt beam="1">  1       21 0.11650658E-01 0.86655401E+01</pdfrwt>
<pdfrwt beam="2">  1       21 0.18522875E-03 0.86655401E+01</pdfrwt>
<totfact> 0.11483995E+09</totfact>
</mgrwt>
</event>
<event>
 4    1  0.3906087E+006  0.4947825E+01  0.7546771E-02  0.2576494E+00
         21   -1    0    0  501  502  0.00000000000E+00  0.00000000000E+00  0.36800763334E+00  0.36800763334E+00  0.00000000000E+00 0.  1.
         21   -1    0    0  502  503 -0.00000000000E+00 -0.00000000000E+00 -0.67133712405E+02  0.67133712405E+02  0.00000000000E+00 0.  1.
          5    1    1    2  501    0  0.76094525566E+00 -0.13460818007E+01 -0.36601925569E+02  0.36934833549E+02  0.47000000000E+01 0.  1.
         -5    1    1    2    0  503 -0.76094525566E+00  0.13460818007E+01 -0.30163779203E+02  0.30566886490E+02  0.47000000000E+01 0.  1.
<mgrwt>
<rscale>  2 0.49478252E+01</rscale>
<asrwt>0</asrwt>
<pdfrwt beam="1">  1       21 0.56616566E-04 0.49478252E+01</pdfrwt>
<pdfrwt beam="2">  1       21 0.10328262E-01 0.49478252E+01</pdfrwt>
<totfact> 0.43903467E+09</totfact>
</mgrwt>
</event>
<event>
 4    1  0.3906087E+006  0.4925936E+01  0.7546771E-02  0.2580463E+00
         21   -1    0    0  503  502  0.00000000000E+00  0.00000000000E+00  0.39195004667E+01  0.39195004667E+01  0.00000000000E+00 0.  1.
         21   -1    0    0  501  503 -0.00000000000E+00 -0.00000000000E+00 -0.40479488833E+02  0.40479488833E+02  0.00000000000E+00 0.  1.
          5    1    1    2  501    0  0.10824293657E+01  0.10015970676E+01 -0.38711529707E+02  0.39023677201E+02  0.47000000000E+01 0.  1.
         -5    1    1    2    0  502 -0.10824293657E+01 -0.10015970676E+01  0.21515413408E+01  0.53753120987E+01  0.47000000000E+01 0.  1.
<mgrwt>
<rscale>  2 0.49259365E+01</rscale>
<asrwt>0</asrwt>
<pdfrwt beam="1">  1       21 0.60300005E-03 0.49259365E+01</pdfrwt>
<pdfrwt beam="2">  1       21 0.62276139E-02 0.49259365E+01</pdfrwt>
<totfact> 0.38634065E+08</totfact>
</mgrwt>
</event>
<event>
 4    1  0.3906087E+006  0.7312129E+01  0.7546771E-02  0.2270631E+00
         21   -1    0    0  501  502  0.00000000000E+00  0.00000000000E+00  0.14279826352E+00  0.14279826352E+00  0.00000000000E+00 0. -1.
         21   -1    0    0  502  503 -0.00000000000E+00 -0.00000000000E+00 -0.47014183047E+03  0.47014183047E+03  0.00000000000E+00 0. -1.
          5    1    1    2  501    0  0.19691027330E+01 -0.52440312013E+01 -0.12890066753E+03  0.12910789797E+03  0.47000000000E+01 0. -1.
         -5    1    1    2    0  503 -0.19691027330E+01  0.52440312013E+01 -0.34109836468E+03  0.34117673077E+03  0.47000000000E+01 0. -1.
<mgrwt>
<rscale>  2 0.73121289E+01</rscale>
<asrwt>0</asrwt>
<pdfrwt beam="1">  1       21 0.21968638E-04 0.73121289E+01</pdfrwt>
<pdfrwt beam="2">  1       21 0.72330583E-01 0.73121289E+01</pdfrwt>
<totfact> 0.79831841E+08</totfact>
</mgrwt>
</event>
<event>
 4    1  0.3906087E+006  0.1944153E+02  0.7546771E-02  0.1756668E+00
         21   -1    0    0  503  502  0.00000000000E+00  0.00000000000E+00  0.17926677475E+02  0.17926677475E+02  0.00000000000E+00 0.  1.
         21   -1    0    0  501  503 -0.00000000000E+00 -0.00000000000E+00 -0.30125867664E+02  0.30125867664E+02  0.00000000000E+00 0. -1.
          5    1    1    2  501    0 -0.18739945186E+02 -0.21673822536E+01  0.70628411790E+01  0.20684700068E+02  0.47000000000E+01 0. -1.
         -5    1    1    2    0  502  0.18739945186E+02  0.21673822536E+01 -0.19262031368E+02  0.27367845070E+02  0.47000000000E+01 0.  1.
<mgrwt>
<rscale>  2 0.19441530E+02</rscale>
<asrwt>0</asrwt>
<pdfrwt beam="1">  1       21 0.27579504E-02 0.19441530E+02</pdfrwt>
<pdfrwt beam="2">  1       21 0.46347488E-02 0.19441530E+02</pdfrwt>
<totfact> 0.13982378E+08</totfact>
</mgrwt>
</event>
<event>
 4    1  0.3906087E+006  0.5272654E+01  0.7546771E-02  0.2520945E+00
         21   -1    0    0  503  502  0.00000000000E+00  0.00000000000E+00  0.10076689932E+00  0.10076689932E+00  0.00000000000E+00 0. -1.
         21   -1    0    0  501  503 -0.00000000000E+00 -0.00000000000E+00 -0.29476766632E+03  0.29476766632E+03  0.00000000000E+00 0. -1.
          5    1    1    2  501    0 -0.22162097404E+01  0.89403312227E+00 -0.11002577713E+03  0.11015204271E+03  0.47000000000E+01 0. -1.
         -5    1    1    2    0  502  0.22162097404E+01 -0.89403312227E+00 -0.18464112229E+03  0.18471639051E+03  0.47000000000E+01 0. -1.
<mgrwt>
<rscale>  2 0.52726541E+01</rscale>
<asrwt>0</asrwt>
<pdfrwt beam="1">  1       21 0.15502475E-04 0.52726541E+01</pdfrwt>
<pdfrwt beam="2">  1       21 0.45349236E-01 0.52726541E+01</pdfrwt>
<totfact> 0.23756515E+09</totfact>
</mgrwt>
</event>
<event>
 4    1  0.3906087E+006  0.6175571E+01  0.7546771E-02  0.2393118E+00
         21   -1    0    0  501  502  0.00000000000E+00  0.00000000000E+00  0.19058114114E+01  0.19058114114E+01  0.00000000000E+00 0.  1.
         21   -1    0    0  502  503 -0.00000000000E+00 -0.00000000000E+00 -0.82899879539E+02  0.82899879539E+02  0.00000000000E+00 0. -1.
          5    1    1    2  501    0 -0.15500763604E+01 -0.36939055776E+01 -0.35649253719E+01  0.71306639275E+01  0.47000000000E+01 0.  1.
         -5    1    1    2    0  503  0.15500763604E+01  0.36939055776E+01 -0.77429142756E+02  0.77675027023E+02  0.47000000000E+01 0. -1.
<mgrwt>
<rscale>  2 0.61755708E+01</rscale>
<asrwt>0</asrwt>
<pdfrwt beam="1">  1       21 0.29320174E-03 0.61755708E+01</pdfrwt>
<pdfrwt beam="2">  1       21 0.12753828E-01 0.61755708E+01</pdfrwt>
<totfact> 0.42106854E+08</totfact>
</mgrwt>
</event>
<event>
 4    1  0.3906087E+006  0.6229055E+01  0.7546771E-02  0.2386532E+00
         21   -1    0    0  503  502  0.00000000000E+00  0.00000000000E+00  0.47891296717E-01  0.47891296717E-01  0.00000000000E+00 0.  1.
         21   -1    0    0  501  503 -0.00000000000E+00 -0.00000000000E+00 -0.14455685234E+04  0.14455685234E+04  0.00000000000E+00 0. -1.
          5    1    1    2  501    0  0.86166591112E-01  0.40870157435E+01 -0.12019632634E+04  0.12019794040E+04  0.47000000000E+01 0. -1.
         -5    1    1    2    0  502 -0.86166591112E-01 -0.40870157435E+01 -0.24355736868E+03  0.24363701065E+03  0.47000000000E+01 0.  1.
<mgrwt>
<rscale>  2 0.62290547E+01</rscale>
<asrwt>0</asrwt>
<pdfrwt beam="1">  1       21 0.73682316E-05 0.62290547E+01</pdfrwt>
<pdfrwt beam="2">  1       21 0.22238490E+00 0.62290547E+01</pdfrwt>
<totfact> 0.29163230E+08</totfact>
</mgrwt>
</event>
<event>
 4    1  0.3906087E+006  0.6602745E+01  0.7546771E-02  0.2343009E+00
         21   -1    0    0  503  502  0.00000000000E+00  0.00000000000E+00  0.71830440512E+00  0.71830440512E+00  0.00000000000E+00 0. -1.
         21   -1    0    0  501  503 -0.00000000000E+00 -0.00000000000E+00 -0.62835643686E+02  0.62835643686E+02  0.00000000000E+00 0.  1.
          5    1    1    2  501    0 -0.45871151206E+01  0.68162676836E+00 -0.25191109576E+02  0.26042047574E+02  0.47000000000E+01 0.  1.
         -5    1    1    2    0  502  0.45871151206E+01 -0.68162676836E+00 -0.36926229705E+02  0.37511900517E+02  0.47000000000E+01 0.  1.
<mgrwt>
<rscale>  2 0.66027449E+01</rscale>
<asrwt>0</asrwt>
<pdfrwt beam="1">  1       21 0.11050835E-03 0.66027449E+01</pdfrwt>
<pdfrwt beam="2">  1       21 0.96670240E-02 0.66027449E+01</pdfrwt>
<totfact> 0.25766710E+09</totfact>
</mgrwt>
</event>
<event>
 4    1  0.3906087E+006  0.4985951E+01  0.7546771E-02  0.2569652E+00
         21   -1    0    0  501  502  0.00000000000E+00  0.00000000000E+00  0.10133119999E+00  0.10133119999E+00  0.00000000000E+00 0. -1.
         21   -1    0    0  502  503 -0.00000000000E+00 -0.00000000000E+00 -0.20307197737E+04  0.20307197737E+04  0.00000000000E+00 0. -1.
          5    1    1    2  501    0 -0.14895076954E+01 -0.74234090429E+00 -0.63208155901E+02  0.63404500436E+02  0.47000000000E+01 0. -1.
         -5    1    1    2    0  503  0.14895076954E+01  0.74234090429E+00 -0.19674102866E+04  0.19674166044E+04  0.47000000000E+01 0. -1.
<mgrwt>
<rscale>  2 0.49859506E+01</rscale>
<asrwt>0</asrwt>
<pdfrwt beam="1">  1       21 0.15589576E-04 0.49859506E+01</pdfrwt>
<pdfrwt beam="2">  1       21 0.31241521E+00 0.49859506E+01</pdfrwt>
<totfact> 0.42747468E+07</totfact>
</mgrwt>
</event>
<event>
 4    1  0.3906087E+006  0.5680602E+01  0.7546771E-02  0.2458945E+00
         21   -1    0    0  503  502  0.00000000000E+00  0.00000000000E+00  0.14416494444E+03  0.14416494444E+03  0.00000000000E+00 0. -1.
         21   -1    0    0  501  503 -0.00000000000E+00 -0.00000000000E+00 -0.39189007067E+00  0.39189007067E+00  0.00000000000E+00 0. -1.
          5    1    1    2  501    0  0.29162149343E+01 -0.12941907762E+01  0.24554881311E+02  0.25203401269E+02  0.47000000000E+01 0. -1.
         -5    1    1    2    0  502 -0.29162149343E+01  0.12941907762E+01  0.11921817305E+03  0.11935343324E+03  0.47000000000E+01 0. -1.
<mgrwt>
<rscale>  2 0.56806020E+01</rscale>
<asrwt>0</asrwt>
<pdfrwt beam="1">  1       21 0.22179180E-01 0.56806020E+01</pdfrwt>
<pdfrwt beam="2">  1       21 0.60290895E-04 0.56806020E+01</pdfrwt>
<totfact> 0.13868118E+09</totfact>
</mgrwt>
</event>
<event>
 4    1  0.3906087E+006  0.5302016E+01  0.7546771E-02  0.2516212E+00
         21   -1    0    0  501  502  0.00000000000E+00  0.00000000000E+00  0.11023479695E+00  0.11023479695E+00  0.00000000000E+00 0.  1.
         21   -1    0    0  502  503 -0.00000000000E+00 -0.00000000000E+00 -0.25884395716E+03  0.25884395716E+03  0.00000000000E+00 0.  1.
          5    1    1    2  501    0 -0.12611749037E+01 -0.21049496639E+01 -0.14511728069E+03  0.14521410583E+03  0.47000000000E+01 0. -1.
         -5    1    1    2    0  503  0.12611749037E+01  0.21049496639E+01 -0.11361644167E+03  0.11374008613E+03  0.47000000000E+01 0. -1.
<mgrwt>
<rscale>  2 0.53020161E+01</rscale>
<asrwt>0</asrwt>
<pdfrwt beam="1">  1       21 0.16959270E-04 0.53020161E+01</pdfrwt>
<pdfrwt beam="2">  1       21 0.39821983E-01 0.53020161E+01</pdfrwt>
<totfact> 0.26576168E+09</totfact>
</mgrwt>
</event>
<event>
 4    1  0.3906087E+006  0.5863867E+01  0.7546771E-02  0.2433485E+00
         21   -1    0    0  501  502  0.00000000000E+00  0.00000000000E+00  0.11296472872E+03  0.11296472872E+03  0.00000000000E+00 0. -1.
         21   -1    0    0  502  503 -0.00000000000E+00 -0.00000000000E+00 -0.30837524673E+00  0.30837524673E+00  0.00000000000E+00 0. -1.
          5    1    1    2  501    0  0.30918345832E+01 -0.16539332113E+01  0.62769518766E+02  0.63042822131E+02  0.47000000000E+01 0. -1.
         -5    1    1    2    0  503 -0.30918345832E+01  0.16539332113E+01  0.49886834703E+02  0.50230281831E+02  0.47000000000E+01 0. -1.
<mgrwt>
<rscale>  2 0.58638670E+01</rscale>
<asrwt>0</asrwt>
<pdfrwt beam="1">  1       21 0.17379156E-01 0.58638670E+01</pdfrwt>
<pdfrwt beam="2">  1       21 0.47442436E-04 0.58638670E+01</pdfrwt>
<totfact> 0.29021538E+09</totfact>
</mgrwt>
</event>
<event>
 4    1  0.3906087E+006  0.8358512E+01  0.7546771E-02  0.2182531E+00
         21   -1    0    0  501  502  0.00000000000E+00  0.00000000000E+00  0.14555305317E+03  0.14555305317E+03  0.00000000000E+00 0.  1.
         21   -1    0    0  502  503 -0.00000000000E+00 -0.00000000000E+00 -0.65340656223E+00  0.65340656223E+00  0.00000000000E+00 0. -1.
          5    1    1    2  501    0  0.68878551059E+01 -0.57634674836E+00  0.11011013996E+03  0.11042693352E+03  0.47000000000E+01 0. -1.
         -5    1    1    2    0  503 -0.68878551059E+01  0.57634674836E+00  0.34789506651E+02  0.35779526220E+02  0.47000000000E+01 0.  1.
<mgrwt>
<rscale>  2 0.83585120E+01</rscale>
<asrwt>0</asrwt>
<pdfrwt beam="1">  1       21 0.22392752E-01 0.83585120E+01</pdfrwt>
<pdfrwt beam="2">  1       21 0.10052420E-03 0.83585120E+01</pdfrwt>
<totfact> 0.89955387E+08</totfact>
</mgrwt>
</event>
<event>
 4    1  0.3906087E+006  0.5249127E+01  0.7546771E-02  0.2524770E+00
         21   -1    0    0  503  502  0.00000000000E+00  0.00000000000E+00  0.66837295642E-01  0.66837295642E-01  0.00000000000E+00 0.  1.
         21   -1    0    0  501  503 -0.00000000000E+00 -0.00000000000E+00 -0.49086237155E+03  0.49086237155E+03  0.00000000000E+00 0.  1.
          5    1    1    2  501    0 -0.21052443100E+01  0.10155201874E+01 -0.34363328007E+03  0.34367336892E+03  0.47000000000E+01 0.  1.
         -5    1    1    2    0  502  0.21052443100E+01 -0.10155201874E+01 -0.14716225418E+03  0.14725583992E+03  0.47000000000E+01 0.  1.
<mgrwt>
<rscale>  2 0.52491271E+01</rscale>
<asrwt>0</asrwt>
<pdfrwt beam="1">  1       21 0.10282683E-04 0.52491271E+01</pdfrwt>
<pdfrwt beam="2">  1       21 0.75517122E-01 0.52491271E+01</pdfrwt>
<totfact> 0.16050995E+09</totfact>
</mgrwt>
</event>
<event>
 4    1  0.3906087E+006  0.5000091E+01  0.7546771E-02  0.2567138E+00
         21   -1    0    0  501  502  0.00000000000E+00  0.00000000000E+00  0.24920415201E+03  0.24920415201E+03  0.00000000000E+00 0.  1.
         21   -1    0    0  502  503 -0.00000000000E+00 -0.00000000000E+00 -0.33145475096E+00  0.33145475096E+00  0.00000000000E+00 0.  1.
          5    1    1    2  501    0 -0.83751798863E+00  0.14864304224E+01  0.22862494706E+03  0.22867961721E+03  0.47000000000E+01 0.  1.
         -5    1    1    2    0  503  0.83751798863E+00 -0.14864304224E+01  0.20247750197E+02  0.20855989543E+02  0.47000000000E+01 0.  1.
<mgrwt>
<rscale>  2 0.50000912E+01</rscale>
<asrwt>0</asrwt>
<pdfrwt beam="1">  1       21 0.38338950E-01 0.50000912E+01</pdfrwt>
<pdfrwt beam="2">  1       21 0.50993238E-04 0.50000912E+01</pdfrwt>
<totfact> 0.62683003E+08</totfact>
</mgrwt>
</event>
<event>
 4    1  0.3906087E+006  0.1141121E+02  0.7546771E-02  0.2002578E+00
         21   -1    0    0  503  502  0.00000000000E+00  0.00000000000E+00  0.37845448907E+03  0.37845448907E+03  0.00000000000E+00 0.  1.
         21   -1    0    0  501  503 -0.00000000000E+00 -0.00000000000E+00 -0.17041483919E+01  0.17041483919E+01  0.00000000000E+00 0. -1.
          5    1    1    2  501    0  0.50030895939E+01 -0.91156345589E+01  0.18565363243E+02  0.21791934546E+02  0.47000000000E+01 0. -1.
         -5    1    1    2    0  502 -0.50030895939E+01  0.91156345589E+01  0.35818497744E+03  0.35836670292E+03  0.47000000000E+01 0.  1.
<mgrwt>
<rscale>  2 0.11411209E+02</rscale>
<asrwt>0</asrwt>
<pdfrwt beam="1">  1       21 0.58223701E-01 0.11411209E+02</pdfrwt>
<pdfrwt beam="2">  1       21 0.26217698E-03 0.11411209E+02</pdfrwt>
<totfact> 0.50000565E+07</totfact>
</mgrwt>
</event>
<event>
 4    1  0.3906087E+006  0.7949478E+01  0.7546771E-02  0.2214735E+00
         21   -1    0    0  501  502  0.00000000000E+00  0.00000000000E+00  0.47332290604E+02  0.47332290604E+02  0.00000000000E+00 0.  1.
         21   -1    0    0  502  503 -0.00000000000E+00 -0.00000000000E+00 -0.19316329617E+01  0.19316329617E+01  0.00000000000E+00 0.  1.
          5    1    1    2  501    0 -0.16051022931E+01  0.62070800231E+01  0.36388560546E+02  0.37246765422E+02  0.47000000000E+01 0.  1.
         -5    1    1    2    0  503  0.16051022931E+01 -0.62070800231E+01  0.90120970966E+01  0.12017158144E+02  0.47000000000E+01 0.  1.
<mgrwt>
<rscale>  2 0.79494777E+01</rscale>
<asrwt>0</asrwt>
<pdfrwt beam="1">  1       21 0.72818900E-02 0.79494777E+01</pdfrwt>
<pdfrwt beam="2">  1       21 0.29717434E-03 0.79494777E+01</pdfrwt>
<totfact> 0.11738892E+09</totfact>
</mgrwt>
</event>
<event>
 4    1  0.3906087E+006  0.6089635E+01  0.7546771E-02  0.2403902E+00
         21   -1    0    0  503  502  0.00000000000E+00  0.00000000000E+00  0.76693589830E+01  0.76693589830E+01  0.00000000000E+00 0.  1.
         21   -1    0    0  501  503 -0.00000000000E+00 -0.00000000000E+00 -0.11615062913E+02  0.11615062913E+02  0.00000000000E+00 0.  1.
          5    1    1    2  501    0  0.38750747170E+00  0.38527250392E+01 -0.93395538547E+01  0.11149480637E+02  0.47000000000E+01 0.  1.
         -5    1    1    2    0  502 -0.38750747170E+00 -0.38527250392E+01  0.53938499250E+01  0.81349412587E+01  0.47000000000E+01 0.  1.
<mgrwt>
<rscale>  2 0.60896348E+01</rscale>
<asrwt>0</asrwt>
<pdfrwt beam="1">  1       21 0.11799014E-02 0.60896348E+01</pdfrwt>
<pdfrwt beam="2">  1       21 0.17869328E-02 0.60896348E+01</pdfrwt>
<totfact> 0.11081268E+09</totfact>
</mgrwt>
</event>
<event>
 4    1  0.3906087E+006  0.5206740E+01  0.7546771E-02  0.2531735E+00
         21   -1    0    0  503  502  0.00000000000E+00  0.00000000000E+00  0.40422020822E+00  0.40422020822E+00  0.00000000000E+00 0.  1.
         21   -1    0    0  501  503 -0.00000000000E+00 -0.00000000000E+00 -0.27501650998E+03  0.27501650998E+03  0.00000000000E+00 0.  1.
          5    1    1    2  501    0 -0.21517546041E+01  0.62457866476E+00 -0.25705335311E+03  0.25710608023E+03  0.47000000000E+01 0.  1.
         -5    1    1    2    0  502  0.21517546041E+01 -0.62457866476E+00 -0.17558936664E+02  0.18314649959E+02  0.47000000000E+01 0.  1.
<mgrwt>
<rscale>  2 0.52067405E+01</rscale>
<asrwt>0</asrwt>
<pdfrwt beam="1">  1       21 0.62187747E-04 0.52067405E+01</pdfrwt>
<pdfrwt beam="2">  1       21 0.42310217E-01 0.52067405E+01</pdfrwt>
<totfact> 0.42013917E+08</totfact>
</mgrwt>
</event>
<event>
 4    1  0.3906087E+006  0.4834483E+01  0.7546771E-02  0.2597381E+00
         21   -1    0    0  503  502  0.00000000000E+00  0.00000000000E+00  0.10395484669E+03  0.10395484669E+03  0.00000000000E+00 0. -1.
         21   -1    0    0  501  503 -0.00000000000E+00 -0.00000000000E+00 -0.50357792741E+00  0.50357792741E+00  0.00000000000E+00 0. -1.
          5    1    1    2  501    0  0.87453857177E+00  0.71930885178E+00  0.12867177859E+02  0.13745417018E+02  0.47000000000E+01 0. -1.
         -5    1    1    2    0  502 -0.87453857177E+00 -0.71930885178E+00  0.90584090906E+02  0.90713007602E+02  0.47000000000E+01 0. -1.
<mgrwt>
<rscale>  2 0.48344827E+01</rscale>
<asrwt>0</asrwt>
<pdfrwt beam="1">  1       21 0.15993036E-01 0.48344827E+01</pdfrwt>
<pdfrwt beam="2">  1       21 0.77473610E-04 0.48344827E+01</pdfrwt>
<totfact> 0.14482018E+09</totfact>
</mgrwt>
</event>
<event>
 4    1  0.3906087E+006  0.5895761E+01  0.7546771E-02  0.2429191E+00
         21   -1    0    0  503  502  0.00000000000E+00  0.00000000000E+00  0.83355873334E+00  0.83355873334E+00  0.00000000000E+00 0.  1.
         21   -1    0    0  501  503 -0.00000000000E+00 -0.00000000000E+00 -0.46648311006E+02  0.46648311006E+02  0.00000000000E+00 0.  1.
          5    1    1    2  501    0 -0.21925664043E+01  0.28040427121E+01 -0.30639103997E+02  0.31201197040E+02  0.47000000000E+01 0.  1.
         -5    1    1    2    0  502  0.21925664043E+01 -0.28040427121E+01 -0.15175648276E+02  0.16280672700E+02  0.47000000000E+01 0.  1.
<mgrwt>
<rscale>  2 0.58957614E+01</rscale>
<asrwt>0</asrwt>
<pdfrwt beam="1">  1       21 0.12823987E-03 0.58957614E+01</pdfrwt>
<pdfrwt beam="2">  1       21 0.71766598E-02 0.58957614E+01</pdfrwt>
<totfact> 0.30175011E+09</totfact>
</mgrwt>
</event>
<event>
 4    1  0.3906087E+006  0.1042086E+02  0.7546771E-02  0.2051799E+00
         21   -1    0    0  503  502  0.00000000000E+00  0.00000000000E+00  0.26728366218E+01  0.26728366218E+01  0.00000000000E+00 0.  1.
         21   -1    0    0  501  503 -0.00000000000E+00 -0.00000000000E+00 -0.57359785225E+02  0.57359785225E+02  0.00000000000E+00 0. -1.
          5    1    1    2  501    0 -0.92997135577E+01  0.13993615528E+00 -0.43554622707E+02  0.44783919140E+02  0.47000000000E+01 0. -1.
         -5    1    1    2    0  502  0.92997135577E+01 -0.13993615528E+00 -0.11132325896E+02  0.15248702707E+02  0.47000000000E+01 0.  1.
<mgrwt>
<rscale>  2 0.10420857E+02</rscale>
<asrwt>0</asrwt>
<pdfrwt beam="1">  1       21 0.41120566E-03 0.10420857E+02</pdfrwt>
<pdfrwt beam="2">  1       21 0.88245817E-02 0.10420857E+02</pdfrwt>
<totfact> 0.64744878E+08</totfact>
</mgrwt>
</event>
<event>
 4    1  0.3906087E+006  0.6718540E+01  0.7546771E-02  0.2330340E+00
         21   -1    0    0  501  502  0.00000000000E+00  0.00000000000E+00  0.16941697238E+03  0.16941697238E+03  0.00000000000E+00 0.  1.
         21   -1    0    0  502  503 -0.00000000000E+00 -0.00000000000E+00 -0.78518063087E+00  0.78518063087E+00  0.00000000000E+00 0.  1.
          5    1    1    2  501    0 -0.37143309719E+01 -0.30417974613E+01  0.15348737424E+03  0.15363434784E+03  0.47000000000E+01 0.  1.
         -5    1    1    2    0  503  0.37143309719E+01  0.30417974613E+01  0.15144417512E+02  0.16567805170E+02  0.47000000000E+01 0.  1.
<mgrwt>
<rscale>  2 0.67185405E+01</rscale>
<asrwt>0</asrwt>
<pdfrwt beam="1">  1       21 0.26064121E-01 0.67185405E+01</pdfrwt>
<pdfrwt beam="2">  1       21 0.12079715E-03 0.67185405E+01</pdfrwt>
<totfact> 0.47294822E+08</totfact>
</mgrwt>
</event>
<event>
 4    1  0.3906087E+006  0.4786787E+01  0.7546771E-02  0.2606427E+00
         21   -1    0    0  501  502  0.00000000000E+00  0.00000000000E+00  0.11576954570E+00  0.11576954570E+00  0.00000000000E+00 0.  1.
         21   -1    0    0  502  503 -0.00000000000E+00 -0.00000000000E+00 -0.20471960046E+03  0.20471960046E+03  0.00000000000E+00 0.  1.
          5    1    1    2  501    0 -0.72372600159E+00 -0.54731222590E+00 -0.83639157379E+02  0.83776022686E+02  0.47000000000E+01 0.  1.
         -5    1    1    2    0  503  0.72372600159E+00  0.54731222590E+00 -0.12096467354E+03  0.12105934732E+03  0.47000000000E+01 0.  1.
<mgrwt>
<rscale>  2 0.47867870E+01</rscale>
<asrwt>0</asrwt>
<pdfrwt beam="1">  1       21 0.17810954E-04 0.47867870E+01</pdfrwt>
<pdfrwt beam="2">  1       21 0.31494872E-01 0.47867870E+01</pdfrwt>
<totfact> 0.33758394E+09</totfact>
</mgrwt>
</event>
<event>
 4    1  0.3906087E+006  0.6907191E+01  0.7546771E-02  0.2310453E+00
         21   -1    0    0  501  502  0.00000000000E+00  0.00000000000E+00  0.22692451573E+01  0.22692451573E+01  0.00000000000E+00 0.  1.
         21   -1    0    0  502  503 -0.00000000000E+00 -0.00000000000E+00 -0.52394506604E+02  0.52394506604E+02  0.00000000000E+00 0. -1.
          5    1    1    2  501    0  0.40272597238E+01 -0.30660182658E+01 -0.39138537105E+01  0.79389885853E+01  0.47000000000E+01 0.  1.
         -5    1    1    2    0  503 -0.40272597238E+01  0.30660182658E+01 -0.46211407736E+02  0.46724763176E+02  0.47000000000E+01 0. -1.
<mgrwt>
<rscale>  2 0.69071911E+01</rscale>
<asrwt>0</asrwt>
<pdfrwt beam="1">  1       21 0.34911464E-03 0.69071911E+01</pdfrwt>
<pdfrwt beam="2">  1       21 0.80606932E-02 0.69071911E+01</pdfrwt>
<totfact> 0.72842890E+08</totfact>
</mgrwt>
</event>
<event>
 4    1  0.3906087E+006  0.9365489E+01  0.7546771E-02  0.2113005E+00
         21   -1    0    0  501  502  0.00000000000E+00  0.00000000000E+00  0.26890726453E+01  0.26890726453E+01  0.00000000000E+00 0.  1.
         21   -1    0    0  502  503 -0.00000000000E+00 -0.00000000000E+00 -0.36481677094E+02  0.36481677094E+02  0.00000000000E+00 0. -1.
          5    1    1    2  501    0 -0.31310266675E+01  0.74712155720E+01 -0.23269983385E+02  0.25083949387E+02  0.47000000000E+01 0. -1.
         -5    1    1    2    0  503  0.31310266675E+01 -0.74712155720E+01 -0.10522621064E+02  0.14086800352E+02  0.47000000000E+01 0.  1.
<mgrwt>
<rscale>  2 0.93654893E+01</rscale>
<asrwt>0</asrwt>
<pdfrwt beam="1">  1       21 0.41370347E-03 0.93654893E+01</pdfrwt>
<pdfrwt beam="2">  1       21 0.56125659E-02 0.93654893E+01</pdfrwt>
<totfact> 0.12212215E+09</totfact>
</mgrwt>
</event>
<event>
 4    1  0.3906087E+006  0.5970337E+01  0.7546771E-02  0.2419300E+00
         21   -1    0    0  503  502  0.00000000000E+00  0.00000000000E+00  0.23487535338E+03  0.23487535338E+03  0.00000000000E+00 0.  1.
         21   -1    0    0  501  503 -0.00000000000E+00 -0.00000000000E+00 -0.24499372357E+00  0.24499372357E+00  0.00000000000E+00 0. -1.
          5    1    1    2  501    0 -0.33942348974E+01 -0.14262159480E+01  0.44793661895E+02  0.45189789427E+02  0.47000000000E+01 0. -1.
         -5    1    1    2    0  502  0.33942348974E+01  0.14262159480E+01  0.18983669776E+03  0.18993055768E+03  0.47000000000E+01 0.  1.
<mgrwt>
<rscale>  2 0.59703369E+01</rscale>
<asrwt>0</asrwt>
<pdfrwt beam="1">  1       21 0.36134490E-01 0.59703369E+01</pdfrwt>
<pdfrwt beam="2">  1       21 0.37691530E-04 0.59703369E+01</pdfrwt>
<totfact> 0.11951172E+09</totfact>
</mgrwt>
</event>
<event>
 4    1  0.3906087E+006  0.5037402E+01  0.7546771E-02  0.2560561E+00
         21   -1    0    0  501  502  0.00000000000E+00  0.00000000000E+00  0.65279747816E+01  0.65279747816E+01  0.00000000000E+00 0.  1.
         21   -1    0    0  502  503 -0.00000000000E+00 -0.00000000000E+00 -0.73087502090E+01  0.73087502090E+01  0.00000000000E+00 0.  1.
          5    1    1    2  501    0 -0.16063353251E+01  0.83970788815E+00  0.43432431681E+01  0.66512542976E+01  0.47000000000E+01 0.  1.
         -5    1    1    2    0  503  0.16063353251E+01 -0.83970788815E+00 -0.51240185954E+01  0.71854706930E+01  0.47000000000E+01 0.  1.
<mgrwt>
<rscale>  2 0.50374024E+01</rscale>
<asrwt>0</asrwt>
<pdfrwt beam="1">  1       21 0.10043038E-02 0.50374024E+01</pdfrwt>
<pdfrwt beam="2">  1       21 0.11244231E-02 0.50374024E+01</pdfrwt>
<totfact> 0.22552486E+09</totfact>
</mgrwt>
</event>
<event>
 4    1  0.3906087E+006  0.5725774E+01  0.7546771E-02  0.2452542E+00
         21   -1    0    0  503  502  0.00000000000E+00  0.00000000000E+00  0.15846101589E+02  0.15846101589E+02  0.00000000000E+00 0.  1.
         21   -1    0    0  501  503 -0.00000000000E+00 -0.00000000000E+00 -0.22647241198E+01  0.22647241198E+01  0.00000000000E+00 0. -1.
          5    1    1    2  501    0  0.30812523717E+01  0.10956130370E+01  0.41281263936E+01  0.70587471712E+01  0.47000000000E+01 0.  1.
         -5    1    1    2    0  502 -0.30812523717E+01 -0.10956130370E+01  0.94532510750E+01  0.11052078537E+02  0.47000000000E+01 0. -1.
<mgrwt>
<rscale>  2 0.57257737E+01</rscale>
<asrwt>0</asrwt>
<pdfrwt beam="1">  1       21 0.24378617E-02 0.57257737E+01</pdfrwt>
<pdfrwt beam="2">  1       21 0.34841911E-03 0.57257737E+01</pdfrwt>
<totfact> 0.36889162E+09</totfact>
</mgrwt>
</event>
<event>
 4    1  0.3906087E+006  0.5485117E+01  0.7546771E-02  0.2487677E+00
         21   -1    0    0  503  502  0.00000000000E+00  0.00000000000E+00  0.38619200932E+03  0.38619200932E+03  0.00000000000E+00 0.  1.
         21   -1    0    0  501  503 -0.00000000000E+00 -0.00000000000E+00 -0.78577573396E-01  0.78577573396E-01  0.00000000000E+00 0.  1.
          5    1    1    2  501    0 -0.21473791018E+01 -0.18399093067E+01  0.17519584834E+03  0.17528169265E+03  0.47000000000E+01 0.  1.
         -5    1    1    2    0  502  0.21473791018E+01  0.18399093067E+01  0.21091758342E+03  0.21098889425E+03  0.47000000000E+01 0.  1.
<mgrwt>
<rscale>  2 0.54851165E+01</rscale>
<asrwt>0</asrwt>
<pdfrwt beam="1">  1       21 0.59412635E-01 0.54851165E+01</pdfrwt>
<pdfrwt beam="2">  1       21 0.12089167E-04 0.54851165E+01</pdfrwt>
<totfact> 0.21007563E+09</totfact>
</mgrwt>
</event>
<event>
 4    1  0.3906087E+006  0.5347236E+01  0.7546771E-02  0.2509010E+00
         21   -1    0    0  501  502  0.00000000000E+00  0.00000000000E+00  0.19087618142E+01  0.19087618142E+01  0.00000000000E+00 0.  1.
         21   -1    0    0  502  503 -0.00000000000E+00 -0.00000000000E+00 -0.32686802577E+02  0.32686802577E+02  0.00000000000E+00 0. -1.
          5    1    1    2  501    0 -0.23696845348E+01 -0.94208894710E+00 -0.26576162349E+01  0.59712528359E+01  0.47000000000E+01 0.  1.
         -5    1    1    2    0  503  0.23696845348E+01  0.94208894710E+00 -0.28120424528E+02  0.28624311555E+02  0.47000000000E+01 0.  1.
<mgrwt>
<rscale>  2 0.53472363E+01</rscale>
<asrwt>0</asrwt>
<pdfrwt beam="1">  1       21 0.29365567E-03 0.53472363E+01</pdfrwt>
<pdfrwt beam="2">  1       21 0.50287388E-02 0.53472363E+01</pdfrwt>
<totfact> 0.15283181E+09</totfact>
</mgrwt>
</event>
<event>
 4    1  0.3906087E+006  0.5248864E+01  0.7546771E-02  0.2524813E+00
         21   -1    0    0  501  502  0.00000000000E+00  0.00000000000E+00  0.51030259970E+00  0.51030259970E+00  0.00000000000E+00 0.  1.
         21   -1    0    0  502  503 -0.00000000000E+00 -0.00000000000E+00 -0.23391876729E+03  0.23391876729E+03  0.00000000000E+00 0.  1.
          5    1    1    2  501    0  0.19900869529E+01 -0.12247947549E+01 -0.13902408397E+02  0.14860266738E+02  0.47000000000E+01 0.  1.
         -5    1    1    2    0  503 -0.19900869529E+01  0.12247947549E+01 -0.21950605629E+03  0.21956880315E+03  0.47000000000E+01 0.  1.
<mgrwt>
<rscale>  2 0.52488635E+01</rscale>
<asrwt>0</asrwt>
<pdfrwt beam="1">  1       21 0.78507933E-04 0.52488635E+01</pdfrwt>
<pdfrwt beam="2">  1       21 0.35987576E-01 0.52488635E+01</pdfrwt>
<totfact> 0.40982807E+08</totfact>
</mgrwt>
</event>
<event>
 4    1  0.3906087E+006  0.5425147E+01  0.7546771E-02  0.2496843E+00
         21   -1    0    0  503  502  0.00000000000E+00  0.00000000000E+00  0.12022731241E+02  0.12022731241E+02  0.00000000000E+00 0.  1.
         21   -1    0    0  501  503 -0.00000000000E+00 -0.00000000000E+00 -0.53036347811E+01  0.53036347811E+01  0.00000000000E+00 0.  1.
          5    1    1    2  501    0 -0.19848623117E+01 -0.18445968979E+01 -0.29972497556E+01  0.61980418045E+01  0.47000000000E+01 0.  1.
         -5    1    1    2    0  502  0.19848623117E+01  0.18445968979E+01  0.97163462154E+01  0.11128324218E+02  0.47000000000E+01 0.  1.
<mgrwt>
<rscale>  2 0.54251466E+01</rscale>
<asrwt>0</asrwt>
<pdfrwt beam="1">  1       21 0.18496510E-02 0.54251466E+01</pdfrwt>
<pdfrwt beam="2">  1       21 0.81594382E-03 0.54251466E+01</pdfrwt>
<totfact> 0.16051653E+09</totfact>
</mgrwt>
</event>
<event>
 4    1  0.3906087E+006  0.5570787E+01  0.7546771E-02  0.2474875E+00
         21   -1    0    0  503  502  0.00000000000E+00  0.00000000000E+00  0.26938706913E+01  0.26938706913E+01  0.00000000000E+00 0. -1.
         21   -1    0    0  501  503 -0.00000000000E+00 -0.00000000000E+00 -0.11847138804E+02  0.11847138804E+02  0.00000000000E+00 0. -1.
          5    1    1    2  501    0 -0.17814239627E+01 -0.24021236732E+01 -0.33686670572E+01  0.65101142247E+01  0.47000000000E+01 0. -1.
         -5    1    1    2    0  502  0.17814239627E+01  0.24021236732E+01 -0.57846010555E+01  0.80308952706E+01  0.47000000000E+01 0. -1.
<mgrwt>
<rscale>  2 0.55707872E+01</rscale>
<asrwt>0</asrwt>
<pdfrwt beam="1">  1       21 0.41444165E-03 0.55707872E+01</pdfrwt>
<pdfrwt beam="2">  1       21 0.18226367E-02 0.55707872E+01</pdfrwt>
<totfact> 0.42959297E+09</totfact>
</mgrwt>
</event>
<event>
 4    1  0.3906087E+006  0.7657978E+01  0.7546771E-02  0.2239364E+00
         21   -1    0    0  501  502  0.00000000000E+00  0.00000000000E+00  0.14225913401E+02  0.14225913401E+02  0.00000000000E+00 0.  1.
         21   -1    0    0  502  503 -0.00000000000E+00 -0.00000000000E+00 -0.42278217983E+01  0.42278217983E+01  0.00000000000E+00 0. -1.
          5    1    1    2  501    0 -0.47258144909E+01 -0.37711142731E+01  0.35419044219E+01  0.84373996229E+01  0.47000000000E+01 0. -1.
         -5    1    1    2    0  503  0.47258144909E+01  0.37711142731E+01  0.64561871805E+01  0.10016335576E+02  0.47000000000E+01 0.  1.
<mgrwt>
<rscale>  2 0.76579779E+01</rscale>
<asrwt>0</asrwt>
<pdfrwt beam="1">  1       21 0.21886020E-02 0.76579779E+01</pdfrwt>
<pdfrwt beam="2">  1       21 0.65043413E-03 0.76579779E+01</pdfrwt>
<totfact> 0.22970016E+09</totfact>
</mgrwt>
</event>
<event>
 4    1  0.3906087E+006  0.6480531E+01  0.7546771E-02  0.2356785E+00
         21   -1    0    0  501  502  0.00000000000E+00  0.00000000000E+00  0.61659444215E+00  0.61659444215E+00  0.00000000000E+00 0. -1.
         21   -1    0    0  502  503 -0.00000000000E+00 -0.00000000000E+00 -0.74358027930E+02  0.74358027930E+02  0.00000000000E+00 0. -1.
          5    1    1    2  501    0 -0.28999803747E+01 -0.33907815738E+01 -0.26005627365E+02  0.26800931710E+02  0.47000000000E+01 0. -1.
         -5    1    1    2    0  503  0.28999803747E+01  0.33907815738E+01 -0.47735806123E+02  0.48173690663E+02  0.47000000000E+01 0. -1.
<mgrwt>
<rscale>  2 0.64805313E+01</rscale>
<asrwt>0</asrwt>
<pdfrwt beam="1">  1       21 0.94860644E-04 0.64805313E+01</pdfrwt>
<pdfrwt beam="2">  1       21 0.11439701E-01 0.64805313E+01</pdfrwt>
<totfact> 0.24035454E+09</totfact>
</mgrwt>
</event>
<event>
 4    1  0.3906087E+006  0.8738011E+01  0.7546771E-02  0.2154833E+00
         21   -1    0    0  501  502  0.00000000000E+00  0.00000000000E+00  0.45998671593E+02  0.45998671593E+02  0.00000000000E+00 0. -1.
         21   -1    0    0  502  503 -0.00000000000E+00 -0.00000000000E+00 -0.20793752408E+01  0.20793752408E+01  0.00000000000E+00 0. -1.
          5    1    1    2  501    0 -0.73658102925E+01  0.87606094181E-01  0.32756759795E+02  0.33902185009E+02  0.47000000000E+01 0. -1.
         -5    1    1    2    0  503  0.73658102925E+01 -0.87606094181E-01  0.11162536557E+02  0.14175861825E+02  0.47000000000E+01 0. -1.
<mgrwt>
<rscale>  2 0.87380110E+01</rscale>
<asrwt>0</asrwt>
<pdfrwt beam="1">  1       21 0.70767180E-02 0.87380110E+01</pdfrwt>
<pdfrwt beam="2">  1       21 0.31990392E-03 0.87380110E+01</pdfrwt>
<totfact> 0.11761279E+09</totfact>
</mgrwt>
</event>
<event>
 4    1  0.3906087E+006  0.8183413E+01  0.7546771E-02  0.2196000E+00
         21   -1    0    0  503  502  0.00000000000E+00  0.00000000000E+00  0.27307583411E+01  0.27307583411E+01  0.00000000000E+00 0. -1.
         21   -1    0    0  501  503 -0.00000000000E+00 -0.00000000000E+00 -0.30788760248E+02  0.30788760248E+02  0.00000000000E+00 0. -1.
          5    1    1    2  501    0 -0.23008040241E+01 -0.62916255583E+01 -0.21589229049E+02  0.23088158486E+02  0.47000000000E+01 0. -1.
         -5    1    1    2    0  502  0.23008040241E+01  0.62916255583E+01 -0.64687728581E+01  0.10431360104E+02  0.47000000000E+01 0. -1.
<mgrwt>
<rscale>  2 0.81834132E+01</rscale>
<asrwt>0</asrwt>
<pdfrwt beam="1">  1       21 0.42011666E-03 0.81834132E+01</pdfrwt>
<pdfrwt beam="2">  1       21 0.47367324E-02 0.81834132E+01</pdfrwt>
<totfact> 0.14183787E+09</totfact>
</mgrwt>
</event>
