<event>
12    1  0.1071811E-001  0.1888606E+03  0.7546771E-02  0.1159563E+00
         21   -1    0    0  503  502  0.00000000000E+00  0.00000000000E+00  0.38756775219E+03  0.38756775219E+03  0.00000000000E+00 0.  1.
         21   -1    0    0  501  503 -0.00000000000E+00 -0.00000000000E+00 -0.14680161150E+03  0.14680161150E+03  0.00000000000E+00 0.  1.
          6    2    1    2  501    0  0.35896519659E+02 -0.65387348619E+02 -0.42978251585E+02  0.19368910912E+03  0.17350583678E+03 0.  0.
         24    2    3    3    0    0  0.79487227419E+02 -0.82060098054E+02 -0.19125889717E+02  0.14106634272E+03  0.80509840237E+02 0.  0.
         -6    2    1    2    0  502 -0.35896519659E+02  0.65387348619E+02  0.28374439227E+03  0.34068025457E+03  0.17317069678E+03 0.  0.
        -24    2    5    5    0    0 -0.82129206066E+02  0.24295871111E+02  0.13261626188E+03  0.17731632766E+03  0.80737298073E+02 0.  0.
          5    1    3    3  501    0 -0.43590707760E+02  0.16672749435E+02 -0.23852361867E+02  0.52622766398E+02  0.47000000000E+01 0. -1.
        -13    1    4    4    0    0 -0.52401374475E+01 -0.26542763590E+02 -0.28549828524E+02  0.39332811344E+02  0.00000000000E+00 0.  1.
         14    1    4    4    0    0  0.84727364866E+02 -0.55517334464E+02  0.94239388069E+01  0.10173353137E+03  0.00000000000E+00 0. -1.
         -5    1    5    5    0  502  0.46232686407E+02  0.41091477508E+02  0.15112813040E+03  0.16336392691E+03  0.47000000000E+01 0.  1.
         11    1    6    6    0    0 -0.10467157793E+02 -0.10232106162E+02 -0.73088634927E+01  0.16360833546E+02  0.00000000000E+00 0. -1.
        -12    1    6    6    0    0 -0.71662048274E+02  0.34527977273E+02  0.13992512537E+03  0.16095549412E+03  0.00000000000E+00 0.  1.
<mgrwt>
<rscale>  2 0.18878363E+03</rscale>
<asrwt>0</asrwt>
<pdfrwt beam="1">  1       21 0.59625808E-01 0.18886064E+03</pdfrwt>
<pdfrwt beam="2">  1       21 0.22584863E-01 0.18886064E+03</pdfrwt>
<totfact> 0.48333029E+04</totfact>
</mgrwt>
</event>
<event>
12    1  0.1071811E-001  0.3223363E+03  0.7546771E-02  0.1074684E+00
         21   -1    0    0  501  502  0.00000000000E+00  0.00000000000E+00  0.44342327456E+03  0.44342327456E+03  0.00000000000E+00 0.  1.
         21   -1    0    0  502  503 -0.00000000000E+00 -0.00000000000E+00 -0.31220264962E+03  0.31220264962E+03  0.00000000000E+00 0. -1.
         -6    2    1    2    0  503 -0.45704838721E+02  0.26721964285E+03 -0.12383438279E+03  0.34530514954E+03  0.17437150606E+03 0.  0.
        -24    2    3    3    0    0  0.43573135893E+02  0.14342521022E+03 -0.44794451396E+02  0.17336033555E+03  0.74685031751E+02 0.  0.
          6    2    1    2  501    0  0.45704838721E+02 -0.26721964285E+03  0.25505500772E+03  0.41032077464E+03  0.17266965955E+03 0.  0.
         24    2    5    5    0    0  0.96910099496E+02 -0.18096041863E+03  0.16992821026E+03  0.27867240153E+03  0.81513619973E+02 0.  0.
          5    1    5    5  501    0 -0.51205260775E+02 -0.86259224225E+02  0.85126797467E+02  0.13164837311E+03  0.47000000000E+01 0. -1.
        -13    1    6    6    0    0  0.43696733479E+02 -0.66364117356E+02  0.18736955613E+02  0.81637455220E+02  0.00000000000E+00 0.  1.
         14    1    6    6    0    0  0.53213366018E+02 -0.11459630127E+03  0.15119125464E+03  0.19703494631E+03  0.00000000000E+00 0. -1.
         -5    1    3    3    0  503 -0.89277974614E+02  0.12379443264E+03 -0.79039931390E+02  0.17194481399E+03  0.47000000000E+01 0.  1.
         13    1    4    4    0    0  0.35767735524E+02  0.14253533055E+03 -0.21179527059E+02  0.14847297305E+03  0.00000000000E+00 0. -1.
        -14    1    4    4    0    0  0.78054003689E+01  0.88987966962E+00 -0.23614924338E+02  0.24887362500E+02  0.00000000000E+00 0.  1.
<mgrwt>
<rscale>  2 0.32210670E+03</rscale>
<asrwt>0</asrwt>
<pdfrwt beam="1">  1       21 0.68218966E-01 0.32233630E+03</pdfrwt>
<pdfrwt beam="2">  1       21 0.48031177E-01 0.32233630E+03</pdfrwt>
<totfact> 0.75468952E+03</totfact>
</mgrwt>
</event>
<event>
12    1  0.1071811E-001  0.1925742E+03  0.7546771E-02  0.1156729E+00
         21   -1    0    0  501  502  0.00000000000E+00  0.00000000000E+00  0.78014965358E+02  0.78014965358E+02  0.00000000000E+00 0.  1.
         21   -1    0    0  502  503 -0.00000000000E+00 -0.00000000000E+00 -0.15401441587E+04  0.15401441587E+04  0.00000000000E+00 0.  1.
         -6    2    1    2    0  503 -0.10039835301E+02 -0.77664310710E+02 -0.14042872416E+04  0.14170857177E+04  0.17313789567E+03 0.  0.
        -24    2    3    3    0    0  0.23226490882E+02  0.12775254577E+02 -0.87636056987E+03  0.88041577801E+03  0.80133742907E+02 0.  0.
          6    2    1    2  501    0  0.10039835301E+02  0.77664310710E+02 -0.57841951662E+02  0.20107340628E+03  0.17593260042E+03 0.  0.
         24    2    5    5    0    0 -0.59230158554E+02  0.23411858466E+02 -0.18531786048E+02  0.10459004117E+03  0.80866079532E+02 0.  0.
          5    1    5    5  501    0  0.69269993855E+02  0.54252452244E+02 -0.39310165614E+02  0.96483365114E+02  0.47000000000E+01 0. -1.
        -11    1    6    6    0    0 -0.29072628938E+02  0.52956222962E+02 -0.69356104746E+01  0.60808568446E+02  0.00000000000E+00 0.  1.
         12    1    6    6    0    0 -0.30157529616E+02 -0.29544364496E+02 -0.11596175573E+02  0.43781472725E+02  0.00000000000E+00 0. -1.
         -5    1    3    3    0  503 -0.33266326183E+02 -0.90439565287E+02 -0.52792667178E+03  0.53666993973E+03  0.47000000000E+01 0.  1.
         11    1    4    4    0    0 -0.91755212463E+01  0.36096032401E+02 -0.24719941596E+03  0.24998932977E+03  0.00000000000E+00 0. -1.
        -12    1    4    4    0    0  0.32402012128E+02 -0.23320777824E+02 -0.62916115390E+03  0.63042644825E+03  0.00000000000E+00 0.  1.
<mgrwt>
<rscale>  2 0.19193356E+03</rscale>
<asrwt>0</asrwt>
<pdfrwt beam="1">  1       21 0.12002303E-01 0.19257420E+03</pdfrwt>
<pdfrwt beam="2">  1       21 0.23694523E+00 0.19257420E+03</pdfrwt>
<totfact> 0.46610436E+03</totfact>
</mgrwt>
</event>
<event>
12    1  0.1071811E-001  0.1890688E+03  0.7546771E-02  0.1159403E+00
         21   -1    0    0  503  502  0.00000000000E+00  0.00000000000E+00  0.14484015808E+04  0.14484015808E+04  0.00000000000E+00 0. -1.
         21   -1    0    0  501  503 -0.00000000000E+00 -0.00000000000E+00 -0.35501392451E+02  0.35501392451E+02  0.00000000000E+00 0.  1.
          6    2    1    2  501    0  0.76337260408E+02 -0.36966592504E+01  0.29631517598E+03  0.35149634473E+03  0.17293338089E+03 0.  0.
         24    2    3    3    0    0  0.76469073553E+02 -0.22366429459E+02  0.92032933826E+02  0.14630886423E+03  0.81169245819E+02 0.  0.
         -6    2    1    2    0  502 -0.76337260408E+02  0.36966592504E+01  0.11165850123E+04  0.11324066285E+04  0.17245764655E+03 0.  0.
        -24    2    5    5    0    0 -0.10449821754E+02 -0.35591502056E+02  0.85547593217E+03  0.86022147838E+03  0.82255501697E+02 0.  0.
          5    1    3    3  501    0 -0.13181314543E+00  0.18669770209E+02  0.20428224216E+03  0.20518748050E+03  0.47000000000E+01 0. -1.
        -11    1    4    4    0    0 -0.11483565805E+02 -0.22088408431E+02  0.13105390486E+02  0.28133988882E+02  0.00000000000E+00 0.  1.
         12    1    4    4    0    0  0.87952639359E+02 -0.27802102820E+00  0.78927543339E+02  0.11817487535E+03  0.00000000000E+00 0. -1.
         -5    1    5    5    0  502 -0.65887438654E+02  0.39288161306E+02  0.26110908016E+03  0.27218515010E+03  0.47000000000E+01 0.  1.
         13    1    6    6    0    0 -0.16023522417E+02 -0.38955236298E+02  0.85160793352E+03  0.85264901111E+03  0.00000000000E+00 0. -1.
        -14    1    6    6    0    0  0.55737006636E+01  0.33637342418E+01  0.38679986501E+01  0.75724672792E+01  0.00000000000E+00 0.  1.
<mgrwt>
<rscale>  2 0.18895991E+03</rscale>
<asrwt>0</asrwt>
<pdfrwt beam="1">  1       21 0.22283097E+00 0.18906876E+03</pdfrwt>
<pdfrwt beam="2">  1       21 0.54617538E-02 0.18906876E+03</pdfrwt>
<totfact> 0.22441718E+04</totfact>
</mgrwt>
</event>
<event>
12    1  0.1071811E-001  0.1803335E+03  0.7546771E-02  0.1167608E+00
         21   -1    0    0  503  502  0.00000000000E+00  0.00000000000E+00  0.19823654759E+03  0.19823654759E+03  0.00000000000E+00 0. -1.
         21   -1    0    0  501  503 -0.00000000000E+00 -0.00000000000E+00 -0.35558032282E+03  0.35558032282E+03  0.00000000000E+00 0. -1.
          6    2    1    2  501    0  0.48348108830E+02 -0.10046133279E+02 -0.28220988830E+03  0.33490685883E+03  0.17344082164E+03 0.  0.
         24    2    3    3    0    0  0.55094453121E+01 -0.45497555935E+02 -0.25743643098E+03  0.27385140331E+03  0.81367644155E+02 0.  0.
         -6    2    1    2    0  502 -0.48348108830E+02  0.10046133279E+02  0.12486611308E+03  0.21891001158E+03  0.17289182327E+03 0.  0.
        -24    2    5    5    0    0 -0.82296859044E+02  0.31252054252E+02  0.44897183908E+02  0.12935930886E+03  0.83478199325E+02 0.  0.
          5    1    3    3  501    0  0.42838663517E+02  0.35451422656E+02 -0.24773457319E+02  0.61055455513E+02  0.47000000000E+01 0. -1.
        -11    1    4    4    0    0 -0.31762844842E+02 -0.40597504363E+02 -0.10671023277E+03  0.11850784553E+03  0.00000000000E+00 0.  1.
         12    1    4    4    0    0  0.37272290154E+02 -0.49000515723E+01 -0.15072619821E+03  0.15534355779E+03  0.00000000000E+00 0. -1.
         -5    1    5    5    0  502  0.33948750214E+02 -0.21205920973E+02  0.79968929168E+02  0.89550702720E+02  0.47000000000E+01 0.  1.
         11    1    6    6    0    0 -0.17747174608E+02  0.34967090426E+02  0.51093513885E+02  0.64406574048E+02  0.00000000000E+00 0. -1.
        -12    1    6    6    0    0 -0.64549684435E+02 -0.37150361746E+01 -0.61963299768E+01  0.64952734812E+02  0.00000000000E+00 0.  1.
<mgrwt>
<rscale>  2 0.18020140E+03</rscale>
<asrwt>0</asrwt>
<pdfrwt beam="1">  1       21 0.30497930E-01 0.18033353E+03</pdfrwt>
<pdfrwt beam="2">  1       21 0.54704665E-01 0.18033353E+03</pdfrwt>
<totfact> 0.32769649E+04</totfact>
</mgrwt>
</event>
<event>
12    1  0.1071811E-001  0.2592234E+03  0.7546771E-02  0.1107762E+00
         21   -1    0    0  503  502  0.00000000000E+00  0.00000000000E+00  0.91106028303E+02  0.91106028303E+02  0.00000000000E+00 0. -1.
         21   -1    0    0  501  503 -0.00000000000E+00 -0.00000000000E+00 -0.75830728011E+03  0.75830728011E+03  0.00000000000E+00 0.  1.
          6    2    1    2  501    0  0.26287096722E+02 -0.19044722265E+03 -0.40912690768E+03  0.48433621847E+03  0.17388384015E+03 0.  0.
         24    2    3    3    0    0  0.69255481193E+02 -0.15118180971E+03 -0.37072732196E+03  0.41444578350E+03  0.81696382714E+02 0.  0.
         -6    2    1    2    0  502 -0.26287096722E+02  0.19044722265E+03 -0.25807434412E+03  0.36507708994E+03  0.17238839415E+03 0.  0.
        -24    2    5    5    0    0 -0.39690160098E+02  0.74042725590E+02 -0.50010771548E+02  0.12624202284E+03  0.79864491731E+02 0.  0.
          5    1    3    3  501    0 -0.42968384471E+02 -0.39265412932E+02 -0.38399585720E+02  0.69890434970E+02  0.47000000000E+01 0. -1.
        -11    1    4    4    0    0  0.47069302439E+02 -0.28394932015E+02 -0.71068809370E+02  0.89847465526E+02  0.00000000000E+00 0.  1.
         12    1    4    4    0    0  0.22186178754E+02 -0.12278687770E+03 -0.29965851259E+03  0.32459831797E+03  0.00000000000E+00 0. -1.
         -5    1    5    5    0  502  0.13403063376E+02  0.11640449706E+03 -0.20806357257E+03  0.23883506710E+03  0.47000000000E+01 0.  1.
         11    1    6    6    0    0 -0.77687968410E+01  0.16515229808E+02  0.22077900715E+02  0.28645081950E+02  0.00000000000E+00 0. -1.
        -12    1    6    6    0    0 -0.31921363257E+02  0.57527495782E+02 -0.72088672263E+02  0.97596940894E+02  0.00000000000E+00 0.  1.
<mgrwt>
<rscale>  2 0.25897280E+03</rscale>
<asrwt>0</asrwt>
<pdfrwt beam="1">  1       21 0.14016312E-01 0.25922335E+03</pdfrwt>
<pdfrwt beam="2">  1       21 0.11666266E+00 0.25922335E+03</pdfrwt>
<totfact> 0.24221217E+04</totfact>
</mgrwt>
</event>
<event>
12    1  0.1071811E-001  0.2144833E+03  0.7546771E-02  0.1138486E+00
         21   -1    0    0  503  502  0.00000000000E+00  0.00000000000E+00  0.12921181160E+03  0.12921181160E+03  0.00000000000E+00 0. -1.
         21   -1    0    0  501  503 -0.00000000000E+00 -0.00000000000E+00 -0.55907028379E+03  0.55907028379E+03  0.00000000000E+00 0. -1.
          6    2    1    2  501    0  0.17934792128E+02 -0.12380445268E+03 -0.42484638265E+03  0.47591759214E+03  0.17422372508E+03 0.  0.
         24    2    3    3    0    0  0.44688187153E+02 -0.41118030266E+02 -0.10983124301E+03  0.14910049222E+03  0.80500486669E+02 0.  0.
         -6    2    1    2    0  502 -0.17934792128E+02  0.12380445268E+03 -0.50120895411E+01  0.21236450325E+03  0.17153530811E+03 0.  0.
        -24    2    5    5    0    0  0.58861803693E+01  0.67395701251E+02  0.63064935401E+02  0.12068049541E+03  0.77522694930E+02 0.  0.
          5    1    3    3  501    0 -0.26753395025E+02 -0.82686422413E+02 -0.31501513964E+03  0.32681709992E+03  0.47000000000E+01 0. -1.
        -13    1    4    4    0    0 -0.88899308658E+01  0.18382864931E+02 -0.27537057166E+02  0.34281921055E+02  0.00000000000E+00 0.  1.
         14    1    4    4    0    0  0.53578118019E+02 -0.59500895197E+02 -0.82294185849E+02  0.11481857116E+03  0.00000000000E+00 0. -1.
         -5    1    5    5    0  502 -0.23820972497E+02  0.56408751428E+02 -0.68077024943E+02  0.91684007839E+02  0.47000000000E+01 0.  1.
         13    1    6    6    0    0 -0.19085708786E+02  0.37482834962E+01  0.46394286077E+02  0.50306497489E+02  0.00000000000E+00 0. -1.
        -14    1    6    6    0    0  0.24971889155E+02  0.63647417755E+02  0.16670649325E+02  0.70373997923E+02  0.00000000000E+00 0.  1.
<mgrwt>
<rscale>  2 0.21393676E+03</rscale>
<asrwt>0</asrwt>
<pdfrwt beam="1">  1       21 0.19878740E-01 0.21448335E+03</pdfrwt>
<pdfrwt beam="2">  1       21 0.86010812E-01 0.21448335E+03</pdfrwt>
<totfact> 0.26893836E+04</totfact>
</mgrwt>
</event>
<event>
12    1  0.1071811E-001  0.1908639E+03  0.7546771E-02  0.1158101E+00
         21   -1    0    0  503  502  0.00000000000E+00  0.00000000000E+00  0.51147824265E+03  0.51147824265E+03  0.00000000000E+00 0.  1.
         21   -1    0    0  501  503 -0.00000000000E+00 -0.00000000000E+00 -0.75843851575E+02  0.75843851575E+02  0.00000000000E+00 0. -1.
          6    2    1    2  501    0 -0.76097389195E+02  0.74196878702E+01  0.13914206938E+03  0.23470798397E+03  0.17286254035E+03 0.  0.
         24    2    3    3    0    0 -0.11033520366E+02  0.11736415191E+01  0.14865230111E+03  0.16848974909E+03  0.78537716527E+02 0.  0.
         -6    2    1    2    0  502  0.76097389195E+02 -0.74196878702E+01  0.29649232170E+03  0.35261411026E+03  0.17488038631E+03 0.  0.
        -24    2    5    5    0    0  0.50865534444E+02  0.32212394927E+02  0.28718657336E+03  0.30448890446E+03  0.81316812769E+02 0.  0.
          5    1    3    3  501    0 -0.65063868829E+02  0.62460463511E+01 -0.95102317367E+01  0.66218234873E+02  0.47000000000E+01 0. -1.
        -13    1    4    4    0    0 -0.42955880674E+02 -0.20044924762E+01  0.57114332806E+02  0.71493165312E+02  0.00000000000E+00 0.  1.
         14    1    4    4    0    0  0.31922360308E+02  0.31781339954E+01  0.91537968307E+02  0.96996583781E+02  0.00000000000E+00 0. -1.
         -5    1    5    5    0  502  0.25231854752E+02 -0.39632082798E+02  0.93057483378E+01  0.48125205799E+02  0.47000000000E+01 0.  1.
         13    1    6    6    0    0  0.39005889709E+02  0.11452021950E+02  0.43148414734E+02  0.59282323949E+02  0.00000000000E+00 0. -1.
        -14    1    6    6    0    0  0.11859644734E+02  0.20760372977E+02  0.24403815863E+03  0.24520658051E+03  0.00000000000E+00 0.  1.
<mgrwt>
<rscale>  2 0.19040039E+03</rscale>
<asrwt>0</asrwt>
<pdfrwt beam="1">  1       21 0.78688958E-01 0.19086386E+03</pdfrwt>
<pdfrwt beam="2">  1       21 0.11668285E-01 0.19086386E+03</pdfrwt>
<totfact> 0.88146061E+04</totfact>
</mgrwt>
</event>
<event>
12    1  0.1071811E-001  0.1961319E+03  0.7546771E-02  0.1153168E+00
         21   -1    0    0  503  502  0.00000000000E+00  0.00000000000E+00  0.65789679771E+02  0.65789679771E+02  0.00000000000E+00 0.  1.
         21   -1    0    0  501  503 -0.00000000000E+00 -0.00000000000E+00 -0.59399280526E+03  0.59399280526E+03  0.00000000000E+00 0.  1.
          6    2    1    2  501    0 -0.22013979952E+02  0.88598789659E+02 -0.30935115916E+03  0.36628657385E+03  0.17358961277E+03 0.  0.
         24    2    3    3    0    0  0.50988870339E+02  0.23839912926E+02 -0.17267331659E+03  0.19828047003E+03  0.79566727903E+02 0.  0.
         -6    2    1    2    0  502  0.22013979952E+02 -0.88598789659E+02 -0.21885196633E+03  0.29349591119E+03  0.17294307120E+03 0.  0.
        -24    2    5    5    0    0 -0.49207757618E-01 -0.11243208707E+03 -0.99863440737E+02  0.17006508222E+03  0.79425743747E+02 0.  0.
          5    1    3    3  501    0 -0.73002850290E+02  0.64758876734E+02 -0.13667784258E+03  0.16800610381E+03  0.47000000000E+01 0. -1.
        -11    1    4    4    0    0  0.51062481136E+02  0.35836635531E+02 -0.65559485691E+02  0.90496892709E+02  0.00000000000E+00 0.  1.
         12    1    4    4    0    0 -0.73610797235E-01 -0.11996722606E+02 -0.10711383090E+03  0.10778357733E+03  0.00000000000E+00 0. -1.
         -5    1    5    5    0  502  0.22063187709E+02  0.23833297413E+02 -0.11898852559E+03  0.12343082897E+03  0.47000000000E+01 0.  1.
         11    1    6    6    0    0  0.37808104188E+02 -0.64498049269E+02 -0.41139803446E+02  0.85334251795E+02  0.00000000000E+00 0. -1.
        -12    1    6    6    0    0 -0.37857311945E+02 -0.47934037803E+02 -0.58723637290E+02  0.84730830425E+02  0.00000000000E+00 0.  1.
<mgrwt>
<rscale>  2 0.19598872E+03</rscale>
<asrwt>0</asrwt>
<pdfrwt beam="1">  1       21 0.10121489E-01 0.19613188E+03</pdfrwt>
<pdfrwt beam="2">  1       21 0.91383510E-01 0.19613188E+03</pdfrwt>
<totfact> 0.80425729E+04</totfact>
</mgrwt>
</event>
<event>
12    1  0.1071811E-001  0.2260667E+03  0.7546771E-02  0.1130143E+00
         21   -1    0    0  501  502  0.00000000000E+00  0.00000000000E+00  0.16915389101E+03  0.16915389101E+03  0.00000000000E+00 0. -1.
         21   -1    0    0  502  503 -0.00000000000E+00 -0.00000000000E+00 -0.53803177134E+03  0.53803177134E+03  0.00000000000E+00 0. -1.
         -6    2    1    2    0  503  0.11601195318E+03 -0.86337140934E+02 -0.42199301490E+03  0.47873192617E+03  0.17376212858E+03 0.  0.
        -24    2    3    3    0    0  0.12272225271E+03 -0.75322939285E+01 -0.29618188545E+03  0.33005185917E+03  0.78057886924E+02 0.  0.
          6    2    1    2  501    0 -0.11601195318E+03  0.86337140934E+02  0.53115134569E+02  0.22845373617E+03  0.16869207707E+03 0.  0.
         24    2    5    5    0    0 -0.14905963815E+03  0.81962225160E+02  0.42326022694E+02  0.19310144763E+03  0.80994412159E+02 0.  0.
          5    1    5    5  501    0  0.33047684971E+02  0.43749157731E+01  0.10789111875E+02  0.35352288540E+02  0.47000000000E+01 0. -1.
        -11    1    6    6    0    0 -0.44085541004E+01  0.75613443682E+01 -0.17675873926E+02  0.19724243888E+02  0.00000000000E+00 0.  1.
         12    1    6    6    0    0 -0.14465108405E+03  0.74400880792E+02  0.60001896620E+02  0.17337720374E+03  0.00000000000E+00 0. -1.
         -5    1    3    3    0  503 -0.67102995287E+01 -0.78804847005E+02 -0.12581112944E+03  0.14868006700E+03  0.47000000000E+01 0.  1.
         11    1    4    4    0    0  0.71043840977E+02 -0.15918438833E+02 -0.24950789660E+03  0.25991309029E+03  0.00000000000E+00 0. -1.
        -12    1    4    4    0    0  0.51678411733E+02  0.83861449047E+01 -0.46673988850E+02  0.70138768885E+02  0.00000000000E+00 0.  1.
<mgrwt>
<rscale>  2 0.22509208E+03</rscale>
<asrwt>0</asrwt>
<pdfrwt beam="1">  1       21 0.26023676E-01 0.22606670E+03</pdfrwt>
<pdfrwt beam="2">  1       21 0.82774118E-01 0.22606670E+03</pdfrwt>
<totfact> 0.17503284E+04</totfact>
</mgrwt>
</event>
<event>
12    1  0.1071811E-001  0.1786174E+03  0.7546771E-02  0.1171513E+00
         21   -1    0    0  501  502  0.00000000000E+00  0.00000000000E+00  0.25601958566E+03  0.25601958566E+03  0.00000000000E+00 0. -1.
         21   -1    0    0  502  503 -0.00000000000E+00 -0.00000000000E+00 -0.20598556804E+03  0.20598556804E+03  0.00000000000E+00 0. -1.
         -6    2    1    2    0  503 -0.21269105062E+02 -0.40430611915E+02 -0.12618962937E+03  0.21108890523E+03  0.16293463150E+03 0.  0.
        -24    2    3    3    0    0  0.35157844482E+02 -0.40476170167E+01 -0.11257499038E+03  0.14242179995E+03  0.79739472102E+02 0.  0.
          6    2    1    2  501    0  0.21269105062E+02  0.40430611915E+02  0.17622364699E+03  0.25091624846E+03  0.17267652062E+03 0.  0.
         24    2    5    5    0    0 -0.30572265646E+02 -0.25293163145E+02  0.11750993688E+03  0.14856131658E+03  0.81776964907E+02 0.  0.
          5    1    5    5  501    0  0.51841370708E+02  0.65723775060E+02  0.58713710107E+02  0.10235493188E+03  0.47000000000E+01 0. -1.
        -11    1    6    6    0    0 -0.20011427563E+02 -0.95961716116E+01 -0.64928591750E+01  0.23123601860E+02  0.00000000000E+00 0.  1.
         12    1    6    6    0    0 -0.10560838083E+02 -0.15696991534E+02  0.12400279606E+03  0.12543771472E+03  0.00000000000E+00 0. -1.
         -5    1    3    3    0  503 -0.56426949545E+02 -0.36382994898E+02 -0.13614638990E+02  0.68667105280E+02  0.47000000000E+01 0.  1.
         11    1    4    4    0    0 -0.11022538227E+02 -0.27743192370E+02 -0.66993285633E+02  0.73343584531E+02  0.00000000000E+00 0. -1.
        -12    1    4    4    0    0  0.46180382710E+02  0.23695575353E+02 -0.45581704746E+02  0.69078215424E+02  0.00000000000E+00 0.  1.
<mgrwt>
<rscale>  2 0.17621971E+03</rscale>
<asrwt>0</asrwt>
<pdfrwt beam="1">  1       21 0.39387629E-01 0.17861744E+03</pdfrwt>
<pdfrwt beam="2">  1       21 0.31690087E-01 0.17861744E+03</pdfrwt>
<totfact> 0.59863287E+04</totfact>
</mgrwt>
</event>
<event>
11    1  0.1071811E-001  0.1909812E+03  0.7546771E-02  0.1157819E+00
         21   -1    0    0  503  502  0.00000000000E+00  0.00000000000E+00  0.47907118643E+03  0.47907118643E+03  0.00000000000E+00 0. -1.
         21   -1    0    0  501  503 -0.00000000000E+00 -0.00000000000E+00 -0.12907013981E+03  0.12907013981E+03  0.00000000000E+00 0. -1.
          6    2    1    2  501    0  0.14310933150E+02 -0.77051602808E+02 -0.20222733594E+02  0.19204889878E+03  0.17416104118E+03 0.  0.
         24    2    3    3    0    0 -0.45029114438E+02 -0.67905159160E+02  0.24555053448E+02  0.11700198750E+03  0.80298086171E+02 0.  0.
         -6    2    1    2    0  502 -0.14310933150E+02  0.77051602808E+02  0.37022378021E+03  0.41609242746E+03  0.17298990855E+03 0.  0.
          5    1    3    3  501    0  0.59340047588E+02 -0.91464436482E+01 -0.44777787042E+02  0.75046911272E+02  0.47000000000E+01 0. -1.
        -13    1    4    4    0    0 -0.20477355452E+02  0.13525156447E+02  0.20292858869E+02  0.31844184152E+02  0.00000000000E+00 0.  1.
         14    1    4    4    0    0 -0.24551758985E+02 -0.81430315607E+02  0.42621945794E+01  0.85157803353E+02  0.00000000000E+00 0. -1.
         -5    1    5    5    0  502 -0.79439328084E+02  0.24445012223E+02  0.10581398136E+03  0.13463600604E+03  0.47000000000E+01 0.  1.
         13    1    5    5    0    0  0.16106959194E+02  0.76412657232E+01  0.13279474795E+03  0.13398607450E+03  0.00000000000E+00 0. -1.
        -14    1    5    5    0    0  0.49021435740E+02  0.44965324862E+02  0.13161505089E+03  0.14747034693E+03  0.00000000000E+00 0.  1.
<mgrwt>
<rscale>  2 0.19071380E+03</rscale>
<asrwt>0</asrwt>
<pdfrwt beam="1">  1       21 0.73703259E-01 0.19098120E+03</pdfrwt>
<pdfrwt beam="2">  1       21 0.19856945E-01 0.19098120E+03</pdfrwt>
<totfact> 0.38704554E+04</totfact>
</mgrwt>
</event>
<event>
12    1  0.1071811E-001  0.2044707E+03  0.7546771E-02  0.1148393E+00
         21   -1    0    0  503  502  0.00000000000E+00  0.00000000000E+00  0.70449956898E+02  0.70449956898E+02  0.00000000000E+00 0.  1.
         21   -1    0    0  501  503 -0.00000000000E+00 -0.00000000000E+00 -0.70796524547E+03  0.70796524547E+03  0.00000000000E+00 0.  1.
          6    2    1    2  501    0  0.44558525612E+02 -0.72657106220E+02 -0.48871205080E+03  0.52553051302E+03  0.17343106476E+03 0.  0.
         24    2    3    3    0    0  0.86978326398E+02 -0.85943385100E+02 -0.33310472435E+03  0.36363025128E+03  0.79477717356E+02 0.  0.
         -6    2    1    2    0  502 -0.44558525612E+02  0.72657106220E+02 -0.14880323777E+03  0.25288468935E+03  0.18585947715E+03 0.  0.
        -24    2    5    5    0    0  0.41396416100E+02  0.66625249551E+02 -0.48173115121E+02  0.12032094286E+03  0.77484792870E+02 0.  0.
          5    1    3    3  501    0 -0.42419800787E+02  0.13286278880E+02 -0.15560732645E+03  0.16190026174E+03  0.47000000000E+01 0. -1.
        -11    1    4    4    0    0  0.46887630602E+02  0.43037546625E+01 -0.10784805356E+03  0.11767826845E+03  0.00000000000E+00 0.  1.
         12    1    4    4    0    0  0.40090695796E+02 -0.90247139763E+02 -0.22525667078E+03  0.24595198283E+03  0.00000000000E+00 0. -1.
         -5    1    5    5    0  502 -0.85954941712E+02  0.60318566695E+01 -0.10063012265E+03  0.13256374649E+03  0.47000000000E+01 0.  1.
         11    1    6    6    0    0 -0.17409807789E+02  0.33877266935E+02 -0.95528851232E+00  0.38100960596E+02  0.00000000000E+00 0. -1.
        -12    1    6    6    0    0  0.58806223889E+02  0.32747982616E+02 -0.47217826608E+02  0.82219982262E+02  0.00000000000E+00 0.  1.
<mgrwt>
<rscale>  2 0.20160404E+03</rscale>
<asrwt>0</asrwt>
<pdfrwt beam="1">  1       21 0.10838455E-01 0.20447069E+03</pdfrwt>
<pdfrwt beam="2">  1       21 0.10891773E+00 0.20447069E+03</pdfrwt>
<totfact> 0.46771023E+04</totfact>
</mgrwt>
</event>
<event>
12    1  0.1071811E-001  0.2101991E+03  0.7546771E-02  0.1143307E+00
         21   -1    0    0  501  502  0.00000000000E+00  0.00000000000E+00  0.58057556384E+02  0.58057556384E+02  0.00000000000E+00 0.  1.
         21   -1    0    0  502  503 -0.00000000000E+00 -0.00000000000E+00 -0.75408093229E+03  0.75408093229E+03  0.00000000000E+00 0.  1.
         -6    2    1    2    0  503  0.38092952129E+02  0.92679493592E+02 -0.43191971199E+03  0.48035227973E+03  0.18477855259E+03 0.  0.
        -24    2    3    3    0    0  0.56166867150E+02  0.62647483156E+02 -0.42974721842E+03  0.44492068672E+03  0.78691305875E+02 0.  0.
          6    2    1    2  501    0 -0.38092952129E+02 -0.92679493592E+02 -0.26410366391E+03  0.33178620894E+03  0.17404247073E+03 0.  0.
         24    2    5    5    0    0 -0.11229118984E+02 -0.12805799162E+03 -0.23294917845E+03  0.27732525395E+03  0.78224257165E+02 0.  0.
          5    1    5    5  501    0 -0.26863833146E+02  0.35378498026E+02 -0.31154485458E+02  0.54460954986E+02  0.47000000000E+01 0. -1.
        -11    1    6    6    0    0  0.32194660445E+02 -0.33941608524E+02 -0.75661179759E+02  0.88955849009E+02  0.00000000000E+00 0.  1.
         12    1    6    6    0    0 -0.43423779429E+02 -0.94116383095E+02 -0.15728799869E+03  0.18836940495E+03  0.00000000000E+00 0. -1.
         -5    1    3    3    0  503 -0.18073915021E+02  0.30032010437E+02 -0.21724935755E+01  0.35431593012E+02  0.47000000000E+01 0.  1.
         13    1    4    4    0    0  0.28102655827E+02 -0.11721756993E+02 -0.18775045621E+03  0.19020355585E+03  0.00000000000E+00 0. -1.
        -14    1    4    4    0    0  0.28064211323E+02  0.74369240149E+02 -0.24199676221E+03  0.25471713086E+03  0.00000000000E+00 0.  1.
<mgrwt>
<rscale>  2 0.20781578E+03</rscale>
<asrwt>0</asrwt>
<pdfrwt beam="1">  1       21 0.89319321E-02 0.21019913E+03</pdfrwt>
<pdfrwt beam="2">  1       21 0.11601245E+00 0.21019913E+03</pdfrwt>
<totfact> 0.56302512E+04</totfact>
</mgrwt>
</event>
<event>
12    1  0.1071811E-001  0.1946031E+03  0.7546771E-02  0.1156547E+00
         21   -1    0    0  503  502  0.00000000000E+00  0.00000000000E+00  0.72560975807E+03  0.72560975807E+03  0.00000000000E+00 0. -1.
         21   -1    0    0  501  503 -0.00000000000E+00 -0.00000000000E+00 -0.18678063267E+03  0.18678063267E+03  0.00000000000E+00 0. -1.
          6    2    1    2  501    0  0.25097237651E+01  0.88024241654E+02 -0.11964463908E+03  0.22844084421E+03  0.17353908439E+03 0.  0.
         24    2    3    3    0    0  0.57122107958E+02  0.35537019043E+02 -0.22355699336E+02  0.10505264040E+03  0.77527188918E+02 0.  0.
         -6    2    1    2    0  502 -0.25097237651E+01 -0.88024241654E+02  0.65847376448E+03  0.68394954653E+03  0.16261831957E+03 0.  0.
        -24    2    5    5    0    0  0.41434273377E+02 -0.59572604414E+02  0.57944891564E+03  0.58904123667E+03  0.77089807731E+02 0.  0.
          5    1    3    3  501    0 -0.54612384193E+02  0.52487222610E+02 -0.97288939744E+02  0.12338820382E+03  0.47000000000E+01 0. -1.
        -11    1    4    4    0    0 -0.93917998697E+01  0.32840567601E+02  0.18819080661E+01  0.34208922274E+02  0.00000000000E+00 0.  1.
         12    1    4    4    0    0  0.66513907828E+02  0.26964514419E+01 -0.24237607402E+02  0.70843718123E+02  0.00000000000E+00 0. -1.
         -5    1    5    5    0  502 -0.43943997142E+02 -0.28451637240E+02  0.79024848846E+02  0.94908309865E+02  0.47000000000E+01 0.  1.
         11    1    6    6    0    0 -0.14177138493E+01 -0.59467767142E+02  0.25920237965E+03  0.26594040471E+03  0.00000000000E+00 0. -1.
        -12    1    6    6    0    0  0.42851987226E+02 -0.10483727188E+00  0.32024653599E+03  0.32310083196E+03  0.00000000000E+00 0.  1.
<mgrwt>
<rscale>  2 0.19213855E+03</rscale>
<asrwt>0</asrwt>
<pdfrwt beam="1">  1       21 0.11163227E+00 0.19460313E+03</pdfrwt>
<pdfrwt beam="2">  1       21 0.28735482E-01 0.19460313E+03</pdfrwt>
<totfact> 0.72916232E+03</totfact>
</mgrwt>
</event>
<event>
12    1  0.1071811E-001  0.3142695E+03  0.7546771E-02  0.1078437E+00
         21   -1    0    0  503  502  0.00000000000E+00  0.00000000000E+00  0.59290080823E+03  0.59290080823E+03  0.00000000000E+00 0.  1.
         21   -1    0    0  501  503 -0.00000000000E+00 -0.00000000000E+00 -0.16617989968E+03  0.16617989968E+03  0.00000000000E+00 0.  1.
          6    2    1    2  501    0  0.13473174093E+03  0.22414389238E+03  0.20203176178E+03  0.37275112117E+03  0.17243386867E+03 0.  0.
         24    2    3    3    0    0  0.19628662058E+02  0.56256250003E+02  0.26309769928E+02  0.10379891790E+03  0.80820550135E+02 0.  0.
         -6    2    1    2    0  502 -0.13473174093E+03 -0.22414389238E+03  0.22468914677E+03  0.38632958673E+03  0.17427624739E+03 0.  0.
        -24    2    5    5    0    0 -0.12974125388E+03 -0.14857271694E+03  0.89747891249E+02  0.23151634454E+03  0.81476920826E+02 0.  0.
          5    1    3    3  501    0  0.11510307887E+03  0.16788764237E+03  0.17572199185E+03  0.26895220328E+03  0.47000000000E+01 0. -1.
        -13    1    4    4    0    0  0.43713085664E+02  0.26399224354E+02 -0.87741572369E+01  0.51814464582E+02  0.00000000000E+00 0.  1.
         14    1    4    4    0    0 -0.24084423606E+02  0.29857025648E+02  0.35083927165E+02  0.51984453314E+02  0.00000000000E+00 0. -1.
         -5    1    5    5    0  502 -0.49904870543E+01 -0.75571175434E+02  0.13494125552E+03  0.15481324219E+03  0.47000000000E+01 0.  1.
         13    1    6    6    0    0 -0.29843766261E+02 -0.60326680483E+02 -0.57417689996E+01  0.67549438739E+02  0.00000000000E+00 0. -1.
        -14    1    6    6    0    0 -0.99897487615E+02 -0.88246036459E+02  0.95489660248E+02  0.16396690580E+03  0.00000000000E+00 0.  1.
<mgrwt>
<rscale>  2 0.31401474E+03</rscale>
<asrwt>0</asrwt>
<pdfrwt beam="1">  1       21 0.91215508E-01 0.31426953E+03</pdfrwt>
<pdfrwt beam="2">  1       21 0.25566139E-01 0.31426953E+03</pdfrwt>
<totfact> 0.13864029E+04</totfact>
</mgrwt>
</event>
<event>
12    1  0.1071811E-001  0.1800490E+03  0.7546771E-02  0.1168382E+00
         21   -1    0    0  501  502  0.00000000000E+00  0.00000000000E+00  0.91145443579E+03  0.91145443579E+03  0.00000000000E+00 0.  1.
         21   -1    0    0  502  503 -0.00000000000E+00 -0.00000000000E+00 -0.36294126329E+02  0.36294126329E+02  0.00000000000E+00 0. -1.
         -6    2    1    2    0  503  0.73791390738E+01 -0.32622881287E+02  0.52795939108E+03  0.55781605518E+03  0.17691503248E+03 0.  0.
        -24    2    3    3    0    0  0.41181781476E+02  0.38846826382E+02  0.33580553146E+03  0.34998022210E+03  0.80720417848E+02 0.  0.
          6    2    1    2  501    0 -0.73791390738E+01  0.32622881287E+02  0.34720091839E+03  0.38993250694E+03  0.17429910545E+03 0.  0.
         24    2    5    5    0    0 -0.19110548262E+02  0.51289449935E+02  0.35347944094E+03  0.36653215241E+03  0.80014266551E+02 0.  0.
          5    1    5    5  501    0  0.11731409189E+02 -0.18666568648E+02 -0.62785225524E+01  0.23400354529E+02  0.47000000000E+01 0. -1.
        -11    1    6    6    0    0 -0.12153442121E+02  0.70934200817E+02  0.22098051918E+03  0.23240429612E+03  0.00000000000E+00 0.  1.
         12    1    6    6    0    0 -0.69571061410E+01 -0.19644750881E+02  0.13249892176E+03  0.13412785628E+03  0.00000000000E+00 0. -1.
         -5    1    3    3    0  503 -0.33802642403E+02 -0.71469707669E+02  0.19215385962E+03  0.20783583308E+03  0.47000000000E+01 0.  1.
         13    1    4    4    0    0  0.61870027818E+02  0.22918184782E+02  0.28849167387E+03  0.29594017880E+03  0.00000000000E+00 0. -1.
        -14    1    4    4    0    0 -0.20688246342E+02  0.15928641601E+02  0.47313857587E+02  0.54040043298E+02  0.00000000000E+00 0.  1.
<mgrwt>
<rscale>  2 0.17940307E+03</rscale>
<asrwt>0</asrwt>
<pdfrwt beam="1">  1       21 0.14022374E+00 0.18004897E+03</pdfrwt>
<pdfrwt beam="2">  1       21 0.55837125E-02 0.18004897E+03</pdfrwt>
<totfact> 0.79940077E+04</totfact>
</mgrwt>
</event>
<event>
12    1  0.1071811E-001  0.2122986E+03  0.7546771E-02  0.1140137E+00
         21   -1    0    0  501  502  0.00000000000E+00  0.00000000000E+00  0.40883872694E+03  0.40883872694E+03  0.00000000000E+00 0. -1.
         21   -1    0    0  502  503 -0.00000000000E+00 -0.00000000000E+00 -0.12692338415E+03  0.12692338415E+03  0.00000000000E+00 0.  1.
         -6    2    1    2    0  503  0.11316294693E+03  0.44704165355E+02  0.40416875935E+02  0.21421555722E+03  0.17161138114E+03 0.  0.
        -24    2    3    3    0    0  0.12167528372E+03  0.20184354280E+02 -0.19091604306E+02  0.14912308275E+03  0.81614469479E+02 0.  0.
          6    2    1    2  501    0 -0.11316294693E+03 -0.44704165355E+02  0.24149846685E+03  0.32154655386E+03  0.17397230195E+03 0.  0.
         24    2    5    5    0    0 -0.99199345200E+01 -0.70552372368E+02  0.12628910938E+03  0.16463085845E+03  0.77963697041E+02 0.  0.
          5    1    5    5  501    0 -0.10324301241E+03  0.25848207012E+02  0.11520935747E+03  0.15691569541E+03  0.47000000000E+01 0. -1.
        -11    1    6    6    0    0  0.19638487356E+02 -0.17755426106E+02  0.21888510809E+01  0.26565323467E+02  0.00000000000E+00 0.  1.
         12    1    6    6    0    0 -0.29558421876E+02 -0.52796946261E+02  0.12410025830E+03  0.13806553498E+03  0.00000000000E+00 0. -1.
         -5    1    3    3    0  503 -0.85123367837E+01  0.24519811075E+02  0.59508480242E+02  0.65092474475E+02  0.47000000000E+01 0.  1.
         11    1    4    4    0    0 -0.36110891617E+01  0.11114847344E+02 -0.20390472093E+02  0.23502151999E+02  0.00000000000E+00 0. -1.
        -12    1    4    4    0    0  0.12528637288E+03  0.90695069364E+01  0.12988677862E+01  0.12562093075E+03  0.00000000000E+00 0.  1.
<mgrwt>
<rscale>  2 0.21181431E+03</rscale>
<asrwt>0</asrwt>
<pdfrwt beam="1">  1       21 0.62898265E-01 0.21229856E+03</pdfrwt>
<pdfrwt beam="2">  1       21 0.19526675E-01 0.21229856E+03</pdfrwt>
<totfact> 0.55976978E+04</totfact>
</mgrwt>
</event>
<event>
12    1  0.1071811E-001  0.2289987E+03  0.7546771E-02  0.1127514E+00
         21   -1    0    0  501  502  0.00000000000E+00  0.00000000000E+00  0.89414748772E+03  0.89414748772E+03  0.00000000000E+00 0. -1.
         21   -1    0    0  502  503 -0.00000000000E+00 -0.00000000000E+00 -0.59750498503E+02  0.59750498503E+02  0.00000000000E+00 0.  1.
         -6    2    1    2    0  503 -0.13215852051E+03 -0.71329265869E+02  0.34652985853E+03  0.41535927252E+03  0.17287753961E+03 0.  0.
        -24    2    3    3    0    0 -0.73139449762E+02 -0.87130529531E+02  0.31848410506E+03  0.34796799020E+03  0.81905364511E+02 0.  0.
          6    2    1    2  501    0  0.13215852051E+03  0.71329265869E+02  0.48786713069E+03  0.53853871371E+03  0.17162712560E+03 0.  0.
         24    2    5    5    0    0  0.57369576951E+02 -0.75854366521E+01  0.13092715390E+03  0.16537768495E+03  0.82819392913E+02 0.  0.
          5    1    5    5  501    0  0.74788943557E+02  0.78914702521E+02  0.35693997679E+03  0.37316102876E+03  0.47000000000E+01 0. -1.
        -11    1    6    6    0    0  0.71640068491E+02 -0.19819165702E+02  0.12541839401E+03  0.14579050826E+03  0.00000000000E+00 0.  1.
         12    1    6    6    0    0 -0.14270491540E+02  0.12233729049E+02  0.55087598922E+01  0.19587176693E+02  0.00000000000E+00 0. -1.
         -5    1    3    3    0  503 -0.59019070746E+02  0.15801263663E+02  0.28045753464E+02  0.67391282318E+02  0.47000000000E+01 0.  1.
         13    1    4    4    0    0 -0.77726621880E+02 -0.62028542455E+02  0.30108705336E+03  0.31708418682E+03  0.00000000000E+00 0. -1.
        -14    1    4    4    0    0  0.45871721180E+01 -0.25101987077E+02  0.17397051702E+02  0.30883803379E+02  0.00000000000E+00 0.  1.
<mgrwt>
<rscale>  2 0.22876266E+03</rscale>
<asrwt>0</asrwt>
<pdfrwt beam="1">  1       21 0.13756114E+00 0.22899865E+03</pdfrwt>
<pdfrwt beam="2">  1       21 0.91923850E-02 0.22899865E+03</pdfrwt>
<totfact> 0.34522819E+04</totfact>
</mgrwt>
</event>
<event>
12    1  0.1071811E-001  0.1914571E+03  0.7546771E-02  0.1157445E+00
         21   -1    0    0  503  502  0.00000000000E+00  0.00000000000E+00  0.84069253011E+02  0.84069253011E+02  0.00000000000E+00 0. -1.
         21   -1    0    0  501  503 -0.00000000000E+00 -0.00000000000E+00 -0.59925321408E+03  0.59925321408E+03  0.00000000000E+00 0. -1.
          6    2    1    2  501    0  0.68410171780E+02  0.41496120779E+02 -0.43815177610E+03  0.47815560784E+03  0.17393655961E+03 0.  0.
         24    2    3    3    0    0  0.40254329558E+02  0.45307237003E+01 -0.93771502877E+02  0.13062279699E+03  0.81414260650E+02 0.  0.
         -6    2    1    2    0  502 -0.68410171780E+02 -0.41496120779E+02 -0.77032184974E+02  0.20516685925E+03  0.17250392161E+03 0.  0.
        -24    2    5    5    0    0 -0.38970789296E+02  0.77950393668E+01 -0.10738030170E+03  0.14005623110E+03  0.80658128050E+02 0.  0.
          5    1    3    3  501    0  0.28155842222E+02  0.36965397079E+02 -0.34438027322E+03  0.34753281085E+03  0.47000000000E+01 0. -1.
        -13    1    4    4    0    0  0.58769025049E+02 -0.14479286570E+02 -0.81154326502E+02  0.10123967974E+03  0.00000000000E+00 0.  1.
         14    1    4    4    0    0 -0.18514695490E+02  0.19010010270E+02 -0.12617176374E+02  0.29383117248E+02  0.00000000000E+00 0. -1.
         -5    1    5    5    0  502 -0.29439382485E+02 -0.49291160146E+02  0.30348116723E+02  0.65110628151E+02  0.47000000000E+01 0.  1.
         11    1    6    6    0    0  0.17529506067E+02 -0.71654234218E+01 -0.13520676091E+01  0.18985651492E+02  0.00000000000E+00 0. -1.
        -12    1    6    6    0    0 -0.56500295363E+02  0.14960462789E+02 -0.10602823409E+03  0.12107057961E+03  0.00000000000E+00 0.  1.
<mgrwt>
<rscale>  2 0.19113108E+03</rscale>
<asrwt>0</asrwt>
<pdfrwt beam="1">  1       21 0.12933732E-01 0.19145706E+03</pdfrwt>
<pdfrwt beam="2">  1       21 0.92192799E-01 0.19145706E+03</pdfrwt>
<totfact> 0.50999673E+04</totfact>
</mgrwt>
</event>
<event>
12    1  0.1071811E-001  0.2041991E+03  0.7546771E-02  0.1146312E+00
         21   -1    0    0  501  502  0.00000000000E+00  0.00000000000E+00  0.11128976387E+04  0.11128976387E+04  0.00000000000E+00 0. -1.
         21   -1    0    0  502  503 -0.00000000000E+00 -0.00000000000E+00 -0.44169775712E+02  0.44169775712E+02  0.00000000000E+00 0.  1.
         -6    2    1    2    0  503  0.10561745314E+03 -0.25139066431E+02  0.30834480155E+03  0.36982942059E+03  0.17294584304E+03 0.  0.
        -24    2    3    3    0    0  0.58713619784E+02  0.51437687885E+02  0.14571531028E+03  0.18399505801E+03  0.80796688302E+02 0.  0.
          6    2    1    2  501    0 -0.10561745314E+03  0.25139066431E+02  0.76038306146E+03  0.78723799384E+03  0.17255213624E+03 0.  0.
         24    2    5    5    0    0 -0.10451058755E+03  0.76380203833E+02  0.56446046086E+03  0.58466792019E+03  0.80402528408E+02 0.  0.
          5    1    5    5  501    0 -0.11068655851E+01 -0.51241137402E+02  0.19592260060E+03  0.20257007365E+03  0.47000000000E+01 0. -1.
        -13    1    6    6    0    0 -0.98411338798E+02  0.65353988824E+02  0.34158177230E+03  0.36143331698E+03  0.00000000000E+00 0.  1.
         14    1    6    6    0    0 -0.60992487549E+01  0.11026215009E+02  0.22287868856E+03  0.22323460320E+03  0.00000000000E+00 0. -1.
         -5    1    3    3    0  503  0.46903833354E+02 -0.76576754315E+02  0.16262949127E+03  0.18583436258E+03  0.47000000000E+01 0.  1.
         11    1    4    4    0    0  0.71526772592E+02  0.14145362317E+02  0.94626564994E+02  0.11945860067E+03  0.00000000000E+00 0. -1.
        -12    1    4    4    0    0 -0.12813152808E+02  0.37292325567E+02  0.51088745285E+02  0.64536457339E+02  0.00000000000E+00 0.  1.
<mgrwt>
<rscale>  2 0.20411574E+03</rscale>
<asrwt>0</asrwt>
<pdfrwt beam="1">  1       21 0.17121500E+00 0.20419913E+03</pdfrwt>
<pdfrwt beam="2">  1       21 0.67953509E-02 0.20419913E+03</pdfrwt>
<totfact> 0.33064966E+04</totfact>
</mgrwt>
</event>
<event>
12    1  0.1071811E-001  0.2028549E+03  0.7546771E-02  0.1147772E+00
         21   -1    0    0  503  502  0.00000000000E+00  0.00000000000E+00  0.71384318821E+03  0.71384318821E+03  0.00000000000E+00 0.  1.
         21   -1    0    0  501  503 -0.00000000000E+00 -0.00000000000E+00 -0.57175707440E+02  0.57175707440E+02  0.00000000000E+00 0.  1.
          6    2    1    2  501    0  0.97807075596E+02 -0.35426923262E+02  0.34612613132E+03  0.40118996897E+03  0.17415166233E+03 0.  0.
         24    2    3    3    0    0  0.37527893045E+02 -0.27529573294E+02  0.63164748617E+02  0.11173326740E+03  0.79550722268E+02 0.  0.
         -6    2    1    2    0  502 -0.97807075596E+02  0.35426923262E+02  0.31054134945E+03  0.36982892668E+03  0.17180283572E+03 0.  0.
        -24    2    5    5    0    0 -0.13303455965E+03  0.13003568868E+02  0.26684157393E+03  0.30920267135E+03  0.80836746123E+02 0.  0.
          5    1    3    3  501    0  0.60279182550E+02 -0.78973499679E+01  0.28296138270E+03  0.28945670157E+03  0.47000000000E+01 0. -1.
        -11    1    4    4    0    0  0.28987338289E+02 -0.47052457822E+02  0.70153856375E+02  0.89307128116E+02  0.00000000000E+00 0.  1.
         12    1    4    4    0    0  0.85405547569E+01  0.19522884528E+02 -0.69891077575E+01  0.22426139282E+02  0.00000000000E+00 0. -1.
         -5    1    5    5    0  502  0.35227484058E+02  0.22423354394E+02  0.43699775522E+02  0.60626255335E+02  0.47000000000E+01 0.  1.
         11    1    6    6    0    0  0.96170928241E-01  0.35330132462E+01 -0.51402022476E+01  0.62380373990E+01  0.00000000000E+00 0. -1.
        -12    1    6    6    0    0 -0.13313073058E+03  0.94705556223E+01  0.27198177618E+03  0.30296463395E+03  0.00000000000E+00 0.  1.
<mgrwt>
<rscale>  2 0.20234976E+03</rscale>
<asrwt>0</asrwt>
<pdfrwt beam="1">  1       21 0.10982202E+00 0.20285486E+03</pdfrwt>
<pdfrwt beam="2">  1       21 0.87962632E-02 0.20285486E+03</pdfrwt>
<totfact> 0.66338043E+04</totfact>
</mgrwt>
</event>
<event>
12    1  0.1071811E-001  0.1879330E+03  0.7546771E-02  0.1160352E+00
         21   -1    0    0  501  502  0.00000000000E+00  0.00000000000E+00  0.16687957216E+04  0.16687957216E+04  0.00000000000E+00 0.  1.
         21   -1    0    0  502  503 -0.00000000000E+00 -0.00000000000E+00 -0.64881095037E+02  0.64881095037E+02  0.00000000000E+00 0.  1.
         -6    2    1    2    0  503 -0.53771496851E+02  0.48596681137E+02  0.90318024826E+02  0.20845765454E+03  0.17333273446E+03 0.  0.
        -24    2    3    3    0    0 -0.29094914910E+02  0.60288191811E+01  0.12206896542E+03  0.14971100531E+03  0.81422920959E+02 0.  0.
          6    2    1    2  501    0  0.53771496851E+02 -0.48596681137E+02  0.15135966018E+04  0.15252191621E+04  0.17339494903E+03 0.  0.
         24    2    5    5    0    0 -0.37102677179E+02 -0.25467627673E+02  0.63061676133E+03  0.63726164217E+03  0.79998076259E+02 0.  0.
          5    1    5    5  501    0  0.90874174029E+02 -0.23129053465E+02  0.88297984044E+03  0.88795751995E+03  0.47000000000E+01 0. -1.
        -13    1    6    6    0    0 -0.11309730845E+02  0.29187789297E+02  0.20540343437E+03  0.20777489720E+03  0.00000000000E+00 0.  1.
         14    1    6    6    0    0 -0.25792946333E+02 -0.54655416970E+02  0.42521332696E+03  0.42948674498E+03  0.00000000000E+00 0. -1.
         -5    1    3    3    0  503 -0.24676581941E+02  0.42567861956E+02 -0.31750940591E+02  0.58746649234E+02  0.47000000000E+01 0.  1.
         13    1    4    4    0    0 -0.48392134991E+02  0.29199463656E+02  0.79123650344E+02  0.97236615792E+02  0.00000000000E+00 0. -1.
        -14    1    4    4    0    0  0.19297220081E+02 -0.23170644475E+02  0.42945315073E+02  0.52474389515E+02  0.00000000000E+00 0.  1.
<mgrwt>
<rscale>  2 0.18791867E+03</rscale>
<asrwt>0</asrwt>
<pdfrwt beam="1">  1       21 0.25673777E+00 0.18793302E+03</pdfrwt>
<pdfrwt beam="2">  1       21 0.99817082E-02 0.18793302E+03</pdfrwt>
<totfact> 0.49674385E+03</totfact>
</mgrwt>
</event>
<event>
12    1  0.1071811E-001  0.1993475E+03  0.7546771E-02  0.1150337E+00
         21   -1    0    0  501  502  0.00000000000E+00  0.00000000000E+00  0.67442481805E+03  0.67442481805E+03  0.00000000000E+00 0. -1.
         21   -1    0    0  502  503 -0.00000000000E+00 -0.00000000000E+00 -0.66140324212E+02  0.66140324212E+02  0.00000000000E+00 0.  1.
         -6    2    1    2    0  503 -0.46844732096E+02 -0.86040258570E+02  0.18142691774E+03  0.26954618579E+03  0.17361470207E+03 0.  0.
        -24    2    3    3    0    0 -0.92680003698E+02 -0.59948303977E+02  0.16347416788E+03  0.21363506485E+03  0.82053367599E+02 0.  0.
          6    2    1    2  501    0  0.46844732096E+02  0.86040258570E+02  0.42685757610E+03  0.47101895647E+03  0.17336121845E+03 0.  0.
         24    2    5    5    0    0  0.95690935581E+02  0.85685822664E+02  0.32915978842E+03  0.36168906606E+03  0.77291647912E+02 0.  0.
          5    1    5    5  501    0 -0.48846203485E+02  0.35443590617E+00  0.97697787680E+02  0.10932989041E+03  0.47000000000E+01 0. -1.
        -13    1    6    6    0    0  0.84310008144E+01 -0.14488692519E+02  0.30199230698E+02  0.34539796184E+02  0.00000000000E+00 0.  1.
         14    1    6    6    0    0  0.87259934767E+02  0.10017451518E+03  0.29896055772E+03  0.32714926988E+03  0.00000000000E+00 0. -1.
         -5    1    3    3    0  503  0.45835271602E+02 -0.26091954593E+02  0.17952749856E+02  0.55911120940E+02  0.47000000000E+01 0.  1.
         11    1    4    4    0    0 -0.33050320315E+02 -0.38677880258E+01  0.11223253311E+03  0.11706162884E+03  0.00000000000E+00 0. -1.
        -12    1    4    4    0    0 -0.59629683383E+02 -0.56080515952E+02  0.51241634768E+02  0.96573436014E+02  0.00000000000E+00 0.  1.
<mgrwt>
<rscale>  2 0.19929228E+03</rscale>
<asrwt>0</asrwt>
<pdfrwt beam="1">  1       21 0.10375766E+00 0.19934749E+03</pdfrwt>
<pdfrwt beam="2">  1       21 0.10175435E-01 0.19934749E+03</pdfrwt>
<totfact> 0.58958818E+04</totfact>
</mgrwt>
</event>
<event>
12    1  0.1071811E-001  0.1814184E+03  0.7546771E-02  0.1166968E+00
         21   -1    0    0  501  502  0.00000000000E+00  0.00000000000E+00  0.13061977950E+03  0.13061977950E+03  0.00000000000E+00 0. -1.
         21   -1    0    0  502  503 -0.00000000000E+00 -0.00000000000E+00 -0.28465085908E+03  0.28465085908E+03  0.00000000000E+00 0. -1.
         -6    2    1    2    0  503 -0.28003426217E+02 -0.41299947313E+02 -0.15098697933E+03  0.23602903112E+03  0.17442120879E+03 0.  0.
        -24    2    3    3    0    0 -0.72046453932E+02  0.16095752652E+02 -0.94224005013E+02  0.14395199860E+03  0.79964054435E+02 0.  0.
          6    2    1    2  501    0  0.28003426217E+02  0.41299947313E+02 -0.30441002527E+01  0.17924160746E+03  0.17212904975E+03 0.  0.
         24    2    5    5    0    0  0.54800213979E+02 -0.29424322199E+02  0.11082367024E+02  0.10215959133E+03  0.80280190911E+02 0.  0.
          5    1    5    5  501    0 -0.26796787762E+02  0.70724269512E+02 -0.14126467276E+02  0.77082016126E+02  0.47000000000E+01 0. -1.
        -13    1    6    6    0    0  0.31585527981E+02 -0.65125687734E+01 -0.33773870765E+02  0.46698324128E+02  0.00000000000E+00 0.  1.
         14    1    6    6    0    0  0.23214685999E+02 -0.22911753425E+02  0.44856237789E+02  0.55461267202E+02  0.00000000000E+00 0. -1.
         -5    1    3    3    0  503  0.44043027715E+02 -0.57395699966E+02 -0.56762974316E+02  0.92077032522E+02  0.47000000000E+01 0.  1.
         13    1    4    4    0    0 -0.57474865913E+01 -0.22587200695E+02 -0.50486548229E+02  0.55606715327E+02  0.00000000000E+00 0. -1.
        -14    1    4    4    0    0 -0.66298967341E+02  0.38682953347E+02 -0.43737456784E+02  0.88345283270E+02  0.00000000000E+00 0.  1.
<mgrwt>
<rscale>  2 0.18086521E+03</rscale>
<asrwt>0</asrwt>
<pdfrwt beam="1">  1       21 0.20095351E-01 0.18141840E+03</pdfrwt>
<pdfrwt beam="2">  1       21 0.43792439E-01 0.18141840E+03</pdfrwt>
<totfact> 0.11509277E+05</totfact>
</mgrwt>
</event>
<event>
12    1  0.1071811E-001  0.1808771E+03  0.7546771E-02  0.1167295E+00
         21   -1    0    0  503  502  0.00000000000E+00  0.00000000000E+00  0.19213615942E+03  0.19213615942E+03  0.00000000000E+00 0.  1.
         21   -1    0    0  501  503 -0.00000000000E+00 -0.00000000000E+00 -0.45810783573E+03  0.45810783573E+03  0.00000000000E+00 0. -1.
          6    2    1    2  501    0  0.36078950086E+02  0.28470824993E+02 -0.39109282062E+03  0.43030803994E+03  0.17349102681E+03 0.  0.
         24    2    3    3    0    0  0.89487177695E+02  0.15156927239E+02 -0.30695117488E+03  0.32965216482E+03  0.78827904907E+02 0.  0.
         -6    2    1    2    0  502 -0.36078950086E+02 -0.28470824993E+02  0.12512114431E+03  0.21993595521E+03  0.17494069031E+03 0.  0.
        -24    2    5    5    0    0  0.38948827638E+02 -0.48539877032E+02  0.85418463233E+02  0.13258421130E+03  0.80057032097E+02 0.  0.
          5    1    3    3  501    0 -0.53408227609E+02  0.13313897754E+02 -0.84141645736E+02  0.10065587512E+03  0.47000000000E+01 0. -1.
        -13    1    4    4    0    0  0.12488615672E+02  0.37851108038E+02 -0.10768284456E+03  0.11482276305E+03  0.00000000000E+00 0.  1.
         14    1    4    4    0    0  0.76998562023E+02 -0.22694180799E+02 -0.19926833032E+03  0.21482940177E+03  0.00000000000E+00 0. -1.
         -5    1    5    5    0  502 -0.75027777724E+02  0.20069052039E+02  0.39702681080E+02  0.87351743914E+02  0.47000000000E+01 0.  1.
         11    1    6    6    0    0  0.30370713506E+02 -0.20266066201E+02 -0.55561212557E+01  0.36931885432E+02  0.00000000000E+00 0. -1.
        -12    1    6    6    0    0  0.85781141316E+01 -0.28273810831E+02  0.90974584489E+02  0.95652325867E+02  0.00000000000E+00 0.  1.
<mgrwt>
<rscale>  2 0.18052565E+03</rscale>
<asrwt>0</asrwt>
<pdfrwt beam="1">  1       21 0.29559409E-01 0.18087710E+03</pdfrwt>
<pdfrwt beam="2">  1       21 0.70478128E-01 0.18087710E+03</pdfrwt>
<totfact> 0.20160955E+04</totfact>
</mgrwt>
</event>
<event>
12    1  0.1071811E-001  0.2363867E+03  0.7546771E-02  0.1122291E+00
         21   -1    0    0  501  502  0.00000000000E+00  0.00000000000E+00  0.10324381920E+03  0.10324381920E+03  0.00000000000E+00 0.  1.
         21   -1    0    0  502  503 -0.00000000000E+00 -0.00000000000E+00 -0.55118157845E+03  0.55118157845E+03  0.00000000000E+00 0.  1.
         -6    2    1    2    0  503  0.16080141927E+03 -0.28571090874E+01 -0.26972263532E+03  0.35838607599E+03  0.17269921814E+03 0.  0.
        -24    2    3    3    0    0  0.35667307638E+02 -0.86593780147E+01 -0.38775126872E+02  0.95610403830E+02  0.79313915519E+02 0.  0.
          6    2    1    2  501    0 -0.16080141927E+03  0.28571090874E+01 -0.17821512393E+03  0.29603932167E+03  0.17324373022E+03 0.  0.
         24    2    5    5    0    0 -0.18814865871E+03  0.10323412315E+02 -0.17050754347E+03  0.26628845638E+03  0.79562736297E+02 0.  0.
          5    1    5    5  501    0  0.27347239432E+02 -0.74663032281E+01 -0.77075804572E+01  0.29750865281E+02  0.47000000000E+01 0. -1.
        -11    1    6    6    0    0 -0.55283370747E+02  0.12324215844E+02 -0.93400330847E+01  0.57405344658E+02  0.00000000000E+00 0.  1.
         12    1    6    6    0    0 -0.13286528796E+03 -0.20008035281E+01 -0.16116751039E+03  0.20888311173E+03  0.00000000000E+00 0. -1.
         -5    1    3    3    0  503  0.12513411164E+03  0.58022689273E+01 -0.23094750845E+03  0.26277567216E+03  0.47000000000E+01 0.  1.
         11    1    4    4    0    0  0.12022900859E+01 -0.21987695049E+02 -0.51914348848E+02  0.56391522868E+02  0.00000000000E+00 0. -1.
        -12    1    4    4    0    0  0.34465017552E+02  0.13328317034E+02  0.13139221976E+02  0.39218880962E+02  0.00000000000E+00 0.  1.
<mgrwt>
<rscale>  2 0.23628690E+03</rscale>
<asrwt>0</asrwt>
<pdfrwt beam="1">  1       21 0.15883664E-01 0.23638665E+03</pdfrwt>
<pdfrwt beam="2">  1       21 0.84797167E-01 0.23638665E+03</pdfrwt>
<totfact> 0.41669286E+04</totfact>
</mgrwt>
</event>
<event>
12    1  0.1071811E-001  0.2276225E+03  0.7546771E-02  0.1128394E+00
         21   -1    0    0  503  502  0.00000000000E+00  0.00000000000E+00  0.44136985337E+03  0.44136985337E+03  0.00000000000E+00 0.  1.
         21   -1    0    0  501  503 -0.00000000000E+00 -0.00000000000E+00 -0.53521483436E+03  0.53521483436E+03  0.00000000000E+00 0. -1.
          6    2    1    2  501    0 -0.13980566312E+03  0.47934741769E+02 -0.47845028419E+03  0.52966943070E+03  0.17260263168E+03 0.  0.
         24    2    3    3    0    0 -0.12362615218E+03  0.90002492995E+02 -0.29677662699E+03  0.34242926409E+03  0.76141712177E+02 0.  0.
         -6    2    1    2    0  502  0.13980566312E+03 -0.47934741769E+02  0.38460530319E+03  0.44691525703E+03  0.17311454247E+03 0.  0.
        -24    2    5    5    0    0  0.16178901776E+03 -0.26440391752E+02  0.25288706914E+03  0.31157473041E+03  0.79070615978E+02 0.  0.
          5    1    3    3  501    0 -0.16179510942E+02 -0.42067751227E+02 -0.18167365720E+03  0.18724016660E+03  0.47000000000E+01 0. -1.
        -13    1    4    4    0    0 -0.78038805113E+02  0.97200158982E+02 -0.21903405395E+03  0.25201952861E+03  0.00000000000E+00 0.  1.
         14    1    4    4    0    0 -0.45587347064E+02 -0.71976659869E+01 -0.77742573038E+02  0.90409735486E+02  0.00000000000E+00 0. -1.
         -5    1    5    5    0  502 -0.21983354636E+02 -0.21494350017E+02  0.13171823405E+03  0.13534052662E+03  0.47000000000E+01 0.  1.
         13    1    6    6    0    0  0.45151510806E+02  0.27547098447E+02  0.85475278263E+02  0.10051629099E+03  0.00000000000E+00 0. -1.
        -14    1    6    6    0    0  0.11663750695E+03 -0.53987490199E+02  0.16741179088E+03  0.21105843942E+03  0.00000000000E+00 0.  1.
<mgrwt>
<rscale>  2 0.22752518E+03</rscale>
<asrwt>0</asrwt>
<pdfrwt beam="1">  1       21 0.67903054E-01 0.22762251E+03</pdfrwt>
<pdfrwt beam="2">  1       21 0.82340744E-01 0.22762251E+03</pdfrwt>
<totfact> 0.24794077E+03</totfact>
</mgrwt>
</event>
<event>
12    1  0.1071811E-001  0.1901392E+03  0.7546771E-02  0.1158400E+00
         21   -1    0    0  503  502  0.00000000000E+00  0.00000000000E+00  0.42804631326E+03  0.42804631326E+03  0.00000000000E+00 0. -1.
         21   -1    0    0  501  503 -0.00000000000E+00 -0.00000000000E+00 -0.51785785231E+03  0.51785785231E+03  0.00000000000E+00 0. -1.
          6    2    1    2  501    0 -0.58044593649E+02  0.53169764954E+02 -0.47763190423E+03  0.51398109360E+03  0.17276611324E+03 0.  0.
         24    2    3    3    0    0 -0.73190606285E+02 -0.20882393196E+02 -0.23387634442E+03  0.25873222140E+03  0.80319852549E+02 0.  0.
         -6    2    1    2    0  502  0.58044593649E+02 -0.53169764954E+02  0.38782036518E+03  0.43192307197E+03  0.17308005575E+03 0.  0.
        -24    2    5    5    0    0  0.86688275986E+02 -0.84307269515E+02  0.27231978488E+03  0.30882766679E+03  0.81202768742E+02 0.  0.
          5    1    3    3  501    0  0.15146012636E+02  0.74052158150E+02 -0.24375555980E+03  0.25524887220E+03  0.47000000000E+01 0. -1.
        -13    1    4    4    0    0 -0.66937351535E+02  0.39246983714E+01 -0.88026617859E+02  0.11065576234E+03  0.00000000000E+00 0.  1.
         14    1    4    4    0    0 -0.62532547503E+01 -0.24807091567E+02 -0.14584972656E+03  0.14807645905E+03  0.00000000000E+00 0. -1.
         -5    1    5    5    0  502 -0.28643682337E+02  0.31137504561E+02  0.11550058029E+03  0.12309540518E+03  0.47000000000E+01 0.  1.
         11    1    6    6    0    0  0.17274306123E+01  0.70453054352E+01  0.75186616221E+02  0.75535737263E+02  0.00000000000E+00 0. -1.
        -12    1    6    6    0    0  0.84960845374E+02 -0.91352574951E+02  0.19713316866E+03  0.23329192953E+03  0.00000000000E+00 0.  1.
<mgrwt>
<rscale>  2 0.19006770E+03</rscale>
<asrwt>0</asrwt>
<pdfrwt beam="1">  1       21 0.65853279E-01 0.19013917E+03</pdfrwt>
<pdfrwt beam="2">  1       21 0.79670439E-01 0.19013917E+03</pdfrwt>
<totfact> 0.29473199E+03</totfact>
</mgrwt>
</event>
<event>
12    1  0.1071811E-001  0.1972317E+03  0.7546771E-02  0.1152119E+00
         21   -1    0    0  503  502  0.00000000000E+00  0.00000000000E+00  0.14770988933E+04  0.14770988933E+04  0.00000000000E+00 0. -1.
         21   -1    0    0  501  503 -0.00000000000E+00 -0.00000000000E+00 -0.34411190364E+02  0.34411190364E+02  0.00000000000E+00 0. -1.
          6    2    1    2  501    0 -0.78320813770E+02 -0.52963987388E+02  0.35505464282E+03  0.40615778720E+03  0.17309250383E+03 0.  0.
         24    2    3    3    0    0 -0.95624334339E+02 -0.37909963456E+02  0.13980280460E+03  0.18963647343E+03  0.76393646542E+02 0.  0.
         -6    2    1    2    0  502  0.78320813770E+02  0.52963987388E+02  0.10876330601E+04  0.11053522965E+04  0.17297020559E+03 0.  0.
        -24    2    5    5    0    0  0.15534099354E+02  0.86517455066E+02  0.81623869934E+03  0.82473690886E+03  0.78859218012E+02 0.  0.
          5    1    3    3  501    0  0.17303520570E+02 -0.15054023932E+02  0.21525183822E+03  0.21652131377E+03  0.47000000000E+01 0. -1.
        -13    1    4    4    0    0  0.52236787931E+01  0.11695779658E+02  0.29511325938E+02  0.32171360565E+02  0.00000000000E+00 0.  1.
         14    1    4    4    0    0 -0.10084801313E+03 -0.49605743114E+02  0.11029147867E+03  0.15746511286E+03  0.00000000000E+00 0. -1.
         -5    1    5    5    0  502  0.62786714416E+02 -0.33553467678E+02  0.27139436080E+03  0.28061538763E+03  0.47000000000E+01 0.  1.
         13    1    6    6    0    0  0.21619693193E+02  0.72158635939E+02  0.34007071385E+03  0.34831360911E+03  0.00000000000E+00 0. -1.
        -14    1    6    6    0    0 -0.60855938388E+01  0.14358819127E+02  0.47616798549E+03  0.47642329975E+03  0.00000000000E+00 0.  1.
<mgrwt>
<rscale>  2 0.19720488E+03</rscale>
<asrwt>0</asrwt>
<pdfrwt beam="1">  1       21 0.22724594E+00 0.19723171E+03</pdfrwt>
<pdfrwt beam="2">  1       21 0.52940304E-02 0.19723171E+03</pdfrwt>
<totfact> 0.22101610E+04</totfact>
</mgrwt>
</event>
<event>
12    1  0.1071811E-001  0.1983504E+03  0.7546771E-02  0.1151565E+00
         21   -1    0    0  503  502  0.00000000000E+00  0.00000000000E+00  0.78509405487E+03  0.78509405487E+03  0.00000000000E+00 0. -1.
         21   -1    0    0  501  503 -0.00000000000E+00 -0.00000000000E+00 -0.66973791177E+02  0.66973791177E+02  0.00000000000E+00 0. -1.
          6    2    1    2  501    0 -0.54153631806E+02  0.78625208648E+02  0.14079523985E+03  0.24161960989E+03  0.17158728696E+03 0.  0.
         24    2    3    3    0    0 -0.71452547065E+02  0.78407542590E+02  0.38764205082E+02  0.13802558543E+03  0.79342229745E+02 0.  0.
         -6    2    1    2    0  502  0.54153631806E+02 -0.78625208648E+02  0.57732502384E+03  0.61044823615E+03  0.17386295350E+03 0.  0.
        -24    2    5    5    0    0  0.33612453572E+02 -0.12206474286E+03  0.44138023673E+03  0.46618455993E+03  0.80510446860E+02 0.  0.
          5    1    3    3  501    0  0.17298915259E+02  0.21766605776E+00  0.10203103477E+03  0.10359402446E+03  0.47000000000E+01 0. -1.
        -11    1    4    4    0    0 -0.35012678659E+02 -0.75014489381E+01 -0.27032294080E+01  0.35909147195E+02  0.00000000000E+00 0.  1.
         12    1    4    4    0    0 -0.36439868406E+02  0.85908991528E+02  0.41467434490E+02  0.10211643824E+03  0.00000000000E+00 0. -1.
         -5    1    5    5    0  502  0.20541178234E+02  0.43439534216E+02  0.13594478710E+03  0.14426367622E+03  0.47000000000E+01 0.  1.
         11    1    6    6    0    0  0.23776092216E+02 -0.15306431229E+02  0.30688105491E+02  0.41729476592E+02  0.00000000000E+00 0. -1.
        -12    1    6    6    0    0  0.98363613561E+01 -0.10675831164E+03  0.41069213124E+03  0.42445508334E+03  0.00000000000E+00 0.  1.
<mgrwt>
<rscale>  2 0.19785056E+03</rscale>
<asrwt>0</asrwt>
<pdfrwt beam="1">  1       21 0.12078369E+00 0.19835036E+03</pdfrwt>
<pdfrwt beam="2">  1       21 0.10303661E-01 0.19835036E+03</pdfrwt>
<totfact> 0.39866066E+04</totfact>
</mgrwt>
</event>
<event>
12    1  0.1071811E-001  0.1828369E+03  0.7546771E-02  0.1165989E+00
         21   -1    0    0  503  502  0.00000000000E+00  0.00000000000E+00  0.45910794436E+03  0.45910794436E+03  0.00000000000E+00 0. -1.
         21   -1    0    0  501  503 -0.00000000000E+00 -0.00000000000E+00 -0.80668690738E+02  0.80668690738E+02  0.00000000000E+00 0. -1.
          6    2    1    2  501    0 -0.52433145220E+02 -0.19660511689E+02  0.28283469495E+03  0.33678595395E+03  0.17405040555E+03 0.  0.
         24    2    3    3    0    0  0.28171567886E+01  0.48319586685E+02  0.17343227194E+03  0.19655446744E+03  0.78817427587E+02 0.  0.
         -6    2    1    2    0  502  0.52433145220E+02  0.19660511689E+02  0.95604558678E+02  0.20299068116E+03  0.17008590347E+03 0.  0.
        -24    2    5    5    0    0  0.79625393255E+02 -0.79697244849E+01  0.18013374476E+02  0.11612682118E+03  0.82202415888E+02 0.  0.
          5    1    3    3  501    0 -0.55250302008E+02 -0.67980098374E+02  0.10940242301E+03  0.14023148651E+03  0.47000000000E+01 0. -1.
        -13    1    4    4    0    0 -0.22941017270E+01  0.59362914121E+02  0.17450357106E+03  0.18433858735E+03  0.00000000000E+00 0.  1.
         14    1    4    4    0    0  0.51112585156E+01 -0.11043327435E+02 -0.10712991214E+01  0.12215880085E+02  0.00000000000E+00 0. -1.
         -5    1    5    5    0  502 -0.27192248036E+02  0.27630236174E+02  0.77591184202E+02  0.86863859977E+02  0.47000000000E+01 0.  1.
         13    1    6    6    0    0 -0.14284681277E+02 -0.14646891225E+02  0.12373931288E+01  0.20496699332E+02  0.00000000000E+00 0. -1.
        -14    1    6    6    0    0  0.93910074533E+02  0.66771667398E+01  0.16775981347E+02  0.95630121847E+02  0.00000000000E+00 0.  1.
<mgrwt>
<rscale>  2 0.18188701E+03</rscale>
<asrwt>0</asrwt>
<pdfrwt beam="1">  1       21 0.70631990E-01 0.18283685E+03</pdfrwt>
<pdfrwt beam="2">  1       21 0.12410568E-01 0.18283685E+03</pdfrwt>
<totfact> 0.10074423E+05</totfact>
</mgrwt>
</event>
<event>
12    1  0.1071811E-001  0.3973351E+03  0.7546771E-02  0.1044834E+00
         21   -1    0    0  501  502  0.00000000000E+00  0.00000000000E+00  0.12053283294E+04  0.12053283294E+04  0.00000000000E+00 0. -1.
         21   -1    0    0  502  503 -0.00000000000E+00 -0.00000000000E+00 -0.16963212934E+03  0.16963212934E+03  0.00000000000E+00 0.  1.
         -6    2    1    2    0  503  0.49968526544E+02 -0.35334539914E+03  0.18691972572E+03  0.43778563377E+03  0.17136934539E+03 0.  0.
        -24    2    3    3    0    0 -0.23966045738E+02 -0.25884351210E+03  0.10260564084E+03  0.29106180291E+03  0.81330931875E+02 0.  0.
          6    2    1    2  501    0 -0.49968526544E+02  0.35334539914E+03  0.84877647435E+03  0.93717482497E+03  0.17471498054E+03 0.  0.
         24    2    5    5    0    0 -0.99450354241E+02  0.22338288232E+03  0.55265518159E+03  0.60999197537E+03  0.82898583869E+02 0.  0.
          5    1    5    5  501    0  0.49481827697E+02  0.12996251681E+03  0.29612129276E+03  0.32718284960E+03  0.47000000000E+01 0. -1.
        -13    1    6    6    0    0 -0.23317367393E+02  0.28618636404E+01  0.34490118412E+02  0.41730781849E+02  0.00000000000E+00 0.  1.
         14    1    6    6    0    0 -0.76132986848E+02  0.22052101868E+03  0.51816506318E+03  0.56826119352E+03  0.00000000000E+00 0. -1.
         -5    1    3    3    0  503  0.73934572282E+02 -0.94501887037E+02  0.84314084879E+02  0.14672383086E+03  0.47000000000E+01 0.  1.
         13    1    4    4    0    0 -0.18937907924E+02 -0.65653657395E+01  0.80019235930E+01  0.21581917548E+02  0.00000000000E+00 0. -1.
        -14    1    4    4    0    0 -0.50281378140E+01 -0.25227814636E+03  0.94603717243E+02  0.26947988537E+03  0.00000000000E+00 0.  1.
<mgrwt>
<rscale>  2 0.39696962E+03</rscale>
<asrwt>0</asrwt>
<pdfrwt beam="1">  1       21 0.18543512E+00 0.39733506E+03</pdfrwt>
<pdfrwt beam="2">  1       21 0.26097251E-01 0.39733506E+03</pdfrwt>
<totfact> 0.20274601E+03</totfact>
</mgrwt>
</event>
<event>
12    1  0.1071811E-001  0.1958622E+03  0.7546771E-02  0.1153461E+00
         21   -1    0    0  503  502  0.00000000000E+00  0.00000000000E+00  0.19254501649E+03  0.19254501649E+03  0.00000000000E+00 0.  1.
         21   -1    0    0  501  503 -0.00000000000E+00 -0.00000000000E+00 -0.23247014320E+03  0.23247014320E+03  0.00000000000E+00 0.  1.
          6    2    1    2  501    0 -0.83433357869E+02  0.37555825167E+02 -0.10137808109E+03  0.22054369468E+03  0.17317748332E+03 0.  0.
         24    2    3    3    0    0  0.13435184628E+02  0.29216058779E+01 -0.31307486068E+02  0.95984383679E+02  0.89687252492E+02 0.  0.
         -6    2    1    2    0  502  0.83433357869E+02 -0.37555825167E+02  0.61452954375E+02  0.20447146500E+03  0.17222238295E+03 0.  0.
        -24    2    5    5    0    0  0.44622860154E+01  0.10931622869E+02 -0.16281481759E+02  0.83425211992E+02  0.80964603208E+02 0.  0.
          5    1    3    3  501    0 -0.96868542497E+02  0.34634219289E+02 -0.70070595017E+02  0.12455931100E+03  0.47000000000E+01 0. -1.
        -11    1    4    4    0    0 -0.12050211238E+02  0.31387709521E+02 -0.44312851155E+02  0.55623957764E+02  0.00000000000E+00 0.  1.
         12    1    4    4    0    0  0.25485395866E+02 -0.28466103643E+02  0.13005365087E+02  0.40360425916E+02  0.00000000000E+00 0. -1.
         -5    1    5    5    0  502  0.78971071854E+02 -0.48487448036E+02  0.77734436134E+02  0.12104625301E+03  0.47000000000E+01 0.  1.
         13    1    6    6    0    0  0.41516495620E+02  0.15794275573E+02 -0.77209341885E+01  0.45085378718E+02  0.00000000000E+00 0. -1.
        -14    1    6    6    0    0 -0.37054209605E+02 -0.48626527040E+01 -0.85605475700E+01  0.38339833274E+02  0.00000000000E+00 0.  1.
<mgrwt>
<rscale>  2 0.19565088E+03</rscale>
<asrwt>0</asrwt>
<pdfrwt beam="1">  1       21 0.29622310E-01 0.19586221E+03</pdfrwt>
<pdfrwt beam="2">  1       21 0.35764637E-01 0.19586221E+03</pdfrwt>
<totfact> 0.82229401E+04</totfact>
</mgrwt>
</event>
<event>
12    1  0.1071811E-001  0.1860170E+03  0.7546771E-02  0.1163644E+00
         21   -1    0    0  503  502  0.00000000000E+00  0.00000000000E+00  0.29104183888E+03  0.29104183888E+03  0.00000000000E+00 0. -1.
         21   -1    0    0  501  503 -0.00000000000E+00 -0.00000000000E+00 -0.13693162848E+03  0.13693162848E+03  0.00000000000E+00 0. -1.
          6    2    1    2  501    0 -0.29368552143E+02  0.24790242242E+02 -0.78878516060E+01  0.18618418872E+03  0.18200347788E+03 0.  0.
         24    2    3    3    0    0  0.48613832080E+02  0.43067464649E+02 -0.17894772327E+02  0.10532914824E+03  0.80968484063E+02 0.  0.
         -6    2    1    2    0  502  0.29368552143E+02 -0.24790242242E+02  0.16199806200E+03  0.24178927864E+03  0.17533286973E+03 0.  0.
        -24    2    5    5    0    0  0.17697410645E+02  0.18130795809E+02  0.12018009105E+02  0.85281971087E+02  0.80539791094E+02 0.  0.
          5    1    3    3  501    0 -0.77982384223E+02 -0.18277222407E+02  0.10006920721E+02  0.80855040476E+02  0.47000000000E+01 0. -1.
        -11    1    4    4    0    0  0.94998868451E+01  0.57625422825E+02 -0.24014222821E+02  0.63147605683E+02  0.00000000000E+00 0.  1.
         12    1    4    4    0    0  0.39113945235E+02 -0.14557958176E+02  0.61194504942E+01  0.42181542557E+02  0.00000000000E+00 0. -1.
         -5    1    5    5    0  502  0.11671141498E+02 -0.42921038051E+02  0.14998005290E+03  0.15650730755E+03  0.47000000000E+01 0.  1.
         11    1    6    6    0    0  0.45157757040E+02  0.29074831432E+02  0.94855732293E+00  0.53716558012E+02  0.00000000000E+00 0. -1.
        -12    1    6    6    0    0 -0.27460346395E+02 -0.10944035622E+02  0.11069451782E+02  0.31565413075E+02  0.00000000000E+00 0.  1.
<mgrwt>
<rscale>  2 0.18436480E+03</rscale>
<asrwt>0</asrwt>
<pdfrwt beam="1">  1       21 0.44775667E-01 0.18601703E+03</pdfrwt>
<pdfrwt beam="2">  1       21 0.21066405E-01 0.18601703E+03</pdfrwt>
<totfact> 0.10051757E+05</totfact>
</mgrwt>
</event>
<event>
12    1  0.1071811E-001  0.2806880E+03  0.7546771E-02  0.1095404E+00
         21   -1    0    0  501  502  0.00000000000E+00  0.00000000000E+00  0.25928186828E+03  0.25928186828E+03  0.00000000000E+00 0. -1.
         21   -1    0    0  502  503 -0.00000000000E+00 -0.00000000000E+00 -0.30316681517E+03  0.30316681517E+03  0.00000000000E+00 0. -1.
         -6    2    1    2    0  503  0.20210022558E+03 -0.90655267937E+02 -0.24157228938E+02  0.28172560550E+03  0.17240320849E+03 0.  0.
        -24    2    3    3    0    0  0.45050247988E+02 -0.55025501214E+02 -0.49855399137E+02  0.11857946950E+03  0.80735364841E+02 0.  0.
          6    2    1    2  501    0 -0.20210022558E+03  0.90655267937E+02 -0.19727717954E+02  0.28072307796E+03  0.17132829555E+03 0.  0.
         24    2    5    5    0    0 -0.11577872871E+03 -0.18338707940E+02 -0.77979344295E+01  0.14109680058E+03  0.78143951275E+02 0.  0.
          5    1    5    5  501    0 -0.86321496868E+02  0.10899397588E+03 -0.11929783524E+02  0.13962627738E+03  0.47000000000E+01 0. -1.
        -13    1    6    6    0    0 -0.98825731208E+02 -0.14300944300E+02 -0.37496059332E+02  0.10666300494E+03  0.00000000000E+00 0.  1.
         14    1    6    6    0    0 -0.16952997506E+02 -0.40377636403E+01  0.29698124902E+02  0.34433795643E+02  0.00000000000E+00 0. -1.
         -5    1    3    3    0  503  0.15704997759E+03 -0.35629766723E+02  0.25698170199E+02  0.16314613600E+03  0.47000000000E+01 0.  1.
         13    1    4    4    0    0  0.62179932503E+02 -0.53092665878E+02 -0.20109564957E+02  0.84199583009E+02  0.00000000000E+00 0. -1.
        -14    1    4    4    0    0 -0.17129684515E+02 -0.19328353357E+01 -0.29745834180E+02  0.34379886491E+02  0.00000000000E+00 0.  1.
<mgrwt>
<rscale>  2 0.28052310E+03</rscale>
<asrwt>0</asrwt>
<pdfrwt beam="1">  1       21 0.39889519E-01 0.28068799E+03</pdfrwt>
<pdfrwt beam="2">  1       21 0.46641048E-01 0.28068799E+03</pdfrwt>
<totfact> 0.25545389E+04</totfact>
</mgrwt>
</event>
<event>
12    1  0.1071811E-001  0.2189344E+03  0.7546771E-02  0.1134944E+00
         21   -1    0    0  503  502  0.00000000000E+00  0.00000000000E+00  0.55191365101E+02  0.55191365101E+02  0.00000000000E+00 0.  1.
         21   -1    0    0  501  503 -0.00000000000E+00 -0.00000000000E+00 -0.90654306773E+03  0.90654306773E+03  0.00000000000E+00 0. -1.
          6    2    1    2  501    0  0.21973777074E+02  0.13136504060E+03 -0.31890063025E+03  0.38602929473E+03  0.17199239414E+03 0.  0.
         24    2    3    3    0    0 -0.41036033743E+02  0.36663656877E+02 -0.17810852500E+03  0.20496826844E+03  0.85212467341E+02 0.  0.
         -6    2    1    2    0  502 -0.21973777074E+02 -0.13136504060E+03 -0.53245107238E+03  0.57570513810E+03  0.17376029693E+03 0.  0.
        -24    2    5    5    0    0 -0.31168503608E+02 -0.61511429816E+02 -0.46996258288E+03  0.48141319117E+03  0.78349854565E+02 0.  0.
          5    1    3    3  501    0  0.63009810817E+02  0.94701383726E+02 -0.14079210526E+03  0.18106102629E+03  0.47000000000E+01 0. -1.
        -13    1    4    4    0    0 -0.39174862168E+02  0.54625704658E+02 -0.76800915779E+02  0.10206379427E+03  0.00000000000E+00 0.  1.
         14    1    4    4    0    0 -0.18611715757E+01 -0.17962047781E+02 -0.10130760922E+03  0.10290447418E+03  0.00000000000E+00 0. -1.
         -5    1    5    5    0  502  0.91947265338E+01 -0.69853610787E+02 -0.62488489494E+02  0.94291946928E+02  0.47000000000E+01 0.  1.
         13    1    6    6    0    0  0.24289312810E+02 -0.21968774096E+02 -0.99800506806E+02  0.10503684549E+03  0.00000000000E+00 0. -1.
        -14    1    6    6    0    0 -0.55457816418E+02 -0.39542655720E+02 -0.37016207608E+03  0.37637634568E+03  0.00000000000E+00 0.  1.
<mgrwt>
<rscale>  2 0.21858342E+03</rscale>
<asrwt>0</asrwt>
<pdfrwt beam="1">  1       21 0.84909798E-02 0.21893438E+03</pdfrwt>
<pdfrwt beam="2">  1       21 0.13946815E+00 0.21893438E+03</pdfrwt>
<totfact> 0.38507203E+04</totfact>
</mgrwt>
</event>
<event>
12    1  0.1071811E-001  0.2117585E+03  0.7546771E-02  0.1140281E+00
         21   -1    0    0  501  502  0.00000000000E+00  0.00000000000E+00  0.64215201629E+02  0.64215201629E+02  0.00000000000E+00 0. -1.
         21   -1    0    0  502  503 -0.00000000000E+00 -0.00000000000E+00 -0.87301761572E+03  0.87301761572E+03  0.00000000000E+00 0. -1.
         -6    2    1    2    0  503 -0.48157048465E+01 -0.12135161725E+03 -0.61465951031E+03  0.64994700375E+03  0.17284498270E+03 0.  0.
        -24    2    3    3    0    0  0.20807526141E+02 -0.13374903783E+03 -0.59372291553E+03  0.61430044705E+03  0.80847885296E+02 0.  0.
          6    2    1    2  501    0  0.48157048465E+01  0.12135161725E+03 -0.19414290379E+03  0.28728581361E+03  0.17347122409E+03 0.  0.
         24    2    5    5    0    0 -0.16221216051E+02  0.55051933282E+02 -0.19349709255E+03  0.21756704133E+03  0.81243150108E+02 0.  0.
          5    1    5    5  501    0  0.21036920897E+02  0.66299683968E+02 -0.64581123143E+00  0.69718772273E+02  0.47000000000E+01 0. -1.
        -13    1    6    6    0    0  0.28278101635E+01 -0.17552376147E+02 -0.76670876160E+02  0.78705181976E+02  0.00000000000E+00 0.  1.
         14    1    6    6    0    0 -0.19049026214E+02  0.72604309429E+02 -0.11682621639E+03  0.13886185936E+03  0.00000000000E+00 0. -1.
         -5    1    3    3    0  503 -0.25623230987E+02  0.12397420583E+02 -0.20936594782E+02  0.35646556698E+02  0.47000000000E+01 0.  1.
         11    1    4    4    0    0  0.20039445375E+02 -0.71101739808E+02 -0.16190839461E+03  0.17796450494E+03  0.00000000000E+00 0. -1.
        -12    1    4    4    0    0  0.76808076567E+00 -0.62647298026E+02 -0.43181452092E+03  0.43633594210E+03  0.00000000000E+00 0.  1.
<mgrwt>
<rscale>  2 0.21163023E+03</rscale>
<asrwt>0</asrwt>
<pdfrwt beam="1">  1       21 0.98792618E-02 0.21175852E+03</pdfrwt>
<pdfrwt beam="2">  1       21 0.13431040E+00 0.21175852E+03</pdfrwt>
<totfact> 0.32626094E+04</totfact>
</mgrwt>
</event>
<event>
12    1  0.1071811E-001  0.2682560E+03  0.7546771E-02  0.1102327E+00
         21   -1    0    0  501  502  0.00000000000E+00  0.00000000000E+00  0.10157236849E+04  0.10157236849E+04  0.00000000000E+00 0.  1.
         21   -1    0    0  502  503 -0.00000000000E+00 -0.00000000000E+00 -0.11092488384E+03  0.11092488384E+03  0.00000000000E+00 0.  1.
         -6    2    1    2    0  503 -0.80604398161E+02 -0.18732231891E+03  0.11361524609E+03  0.29132403907E+03  0.17428296368E+03 0.  0.
        -24    2    3    3    0    0 -0.77781388092E+02 -0.40843863750E+02  0.69346703105E+02  0.13820414777E+03  0.81075617109E+02 0.  0.
          6    2    1    2  501    0  0.80604398161E+02  0.18732231891E+03  0.79118355492E+03  0.83532452963E+03  0.17380716919E+03 0.  0.
         24    2    5    5    0    0  0.78670178577E+02  0.19877741429E+03  0.58281903470E+03  0.62658348503E+03  0.85013993403E+02 0.  0.
          5    1    5    5  501    0  0.19342195839E+01 -0.11455095372E+02  0.20836452022E+03  0.20874104460E+03  0.47000000000E+01 0. -1.
        -11    1    6    6    0    0  0.49304628069E+02  0.18204986833E+03  0.54027360221E+03  0.57224877995E+03  0.00000000000E+00 0.  1.
         12    1    6    6    0    0  0.29365550507E+02  0.16727545954E+02  0.42545432490E+02  0.54334705078E+02  0.00000000000E+00 0. -1.
         -5    1    3    3    0  503 -0.28230100690E+01 -0.14647845517E+03  0.44268542986E+02  0.15311989130E+03  0.47000000000E+01 0.  1.
         11    1    4    4    0    0 -0.28221252219E+02  0.10869315935E+01 -0.14832461703E+02  0.31900194628E+02  0.00000000000E+00 0. -1.
        -12    1    4    4    0    0 -0.49560135873E+02 -0.41930795343E+02  0.84179164808E+02  0.10630395314E+03  0.00000000000E+00 0.  1.
<mgrwt>
<rscale>  2 0.26817873E+03</rscale>
<asrwt>0</asrwt>
<pdfrwt beam="1">  1       21 0.15626518E+00 0.26825598E+03</pdfrwt>
<pdfrwt beam="2">  1       21 0.17065367E-01 0.26825598E+03</pdfrwt>
<totfact> 0.78860557E+03</totfact>
</mgrwt>
</event>
<event>
12    1  0.1071811E-001  0.1957044E+03  0.7546771E-02  0.1154819E+00
         21   -1    0    0  501  502  0.00000000000E+00  0.00000000000E+00  0.30276087586E+03  0.30276087586E+03  0.00000000000E+00 0.  1.
         21   -1    0    0  502  503 -0.00000000000E+00 -0.00000000000E+00 -0.13024266839E+03  0.13024266839E+03  0.00000000000E+00 0.  1.
         -6    2    1    2    0  503  0.76898362414E+02  0.16360021464E+02  0.34562643335E+02  0.19873296716E+03  0.17921832350E+03 0.  0.
        -24    2    3    3    0    0  0.64189296141E+02  0.98411382711E+01  0.92559917845E+02  0.13881811045E+03  0.80535803570E+02 0.  0.
          6    2    1    2  501    0 -0.76898362414E+02 -0.16360021464E+02  0.13795556414E+03  0.23427057709E+03  0.17224969426E+03 0.  0.
         24    2    5    5    0    0 -0.91864558470E+02 -0.28080540704E+02  0.35904831022E+02  0.13035811526E+03  0.80476502495E+02 0.  0.
          5    1    5    5  501    0  0.14966196056E+02  0.11720519239E+02  0.10205073311E+03  0.10391246183E+03  0.47000000000E+01 0. -1.
        -13    1    6    6    0    0 -0.79231580060E+02  0.13278961684E+02  0.33512073348E+02  0.87046155356E+02  0.00000000000E+00 0.  1.
         14    1    6    6    0    0 -0.12632978410E+02 -0.41359502388E+02  0.23927576745E+01  0.43311959902E+02  0.00000000000E+00 0. -1.
         -5    1    3    3    0  503  0.12709066273E+02  0.65188831930E+01 -0.57997274510E+02  0.59914856707E+02  0.47000000000E+01 0.  1.
         11    1    4    4    0    0  0.16856150684E+02 -0.21778726328E+02  0.73979506625E+02  0.78939281329E+02  0.00000000000E+00 0. -1.
        -12    1    4    4    0    0  0.47333145457E+02  0.31619864599E+02  0.18580411220E+02  0.59878829124E+02  0.00000000000E+00 0.  1.
<mgrwt>
<rscale>  2 0.19409443E+03</rscale>
<asrwt>0</asrwt>
<pdfrwt beam="1">  1       21 0.46578596E-01 0.19570441E+03</pdfrwt>
<pdfrwt beam="2">  1       21 0.20037334E-01 0.19570441E+03</pdfrwt>
<totfact> 0.10141285E+05</totfact>
</mgrwt>
</event>
<event>
12    1  0.1071811E-001  0.2091744E+03  0.7546771E-02  0.1142774E+00
         21   -1    0    0  503  502  0.00000000000E+00  0.00000000000E+00  0.28871114139E+03  0.28871114139E+03  0.00000000000E+00 0.  1.
         21   -1    0    0  501  503 -0.00000000000E+00 -0.00000000000E+00 -0.16582596253E+03  0.16582596253E+03  0.00000000000E+00 0.  1.
          6    2    1    2  501    0  0.89464593255E+02 -0.77391207001E+02 -0.93710152208E+01  0.20938423379E+03  0.17251269247E+03 0.  0.
         24    2    3    3    0    0  0.95027314685E+02 -0.65389806539E+02 -0.62658718061E+02  0.15427845590E+03  0.81053745563E+02 0.  0.
         -6    2    1    2    0  502 -0.89464593255E+02  0.77391207001E+02  0.13225619408E+03  0.24515287014E+03  0.16915944106E+03 0.  0.
        -24    2    5    5    0    0  0.15548882320E+02  0.29046564817E+02  0.38353008116E+02  0.96139673362E+02  0.81770489136E+02 0.  0.
          5    1    3    3  501    0 -0.55627214298E+01 -0.12001400462E+02  0.53287702840E+02  0.55105777889E+02  0.47000000000E+01 0. -1.
        -11    1    4    4    0    0  0.11166295237E+02  0.49233532003E+01 -0.40922082445E+02  0.42702955257E+02  0.00000000000E+00 0.  1.
         12    1    4    4    0    0  0.83861019448E+02 -0.70313159739E+02 -0.21736635616E+02  0.11157550064E+03  0.00000000000E+00 0. -1.
         -5    1    5    5    0  502 -0.10501347557E+03  0.48344642185E+02  0.93903185965E+02  0.14901319678E+03  0.47000000000E+01 0.  1.
         11    1    6    6    0    0  0.16346858280E+02  0.33631409252E+02 -0.16655058040E+02  0.40935100125E+02  0.00000000000E+00 0. -1.
        -12    1    6    6    0    0 -0.79797596036E+00 -0.45848444350E+01  0.55008066156E+02  0.55204573237E+02  0.00000000000E+00 0.  1.
<mgrwt>
<rscale>  2 0.20848179E+03</rscale>
<asrwt>0</asrwt>
<pdfrwt beam="1">  1       21 0.44417099E-01 0.20917443E+03</pdfrwt>
<pdfrwt beam="2">  1       21 0.25511687E-01 0.20917443E+03</pdfrwt>
<totfact> 0.70404162E+04</totfact>
</mgrwt>
</event>
<event>
12    1  0.1071811E-001  0.2010657E+03  0.7546771E-02  0.1148939E+00
         21   -1    0    0  501  502  0.00000000000E+00  0.00000000000E+00  0.18868726414E+03  0.18868726414E+03  0.00000000000E+00 0.  1.
         21   -1    0    0  502  503 -0.00000000000E+00 -0.00000000000E+00 -0.32704948558E+03  0.32704948558E+03  0.00000000000E+00 0. -1.
         -6    2    1    2    0  503 -0.55200454056E+02  0.85615705511E+02 -0.22089408583E+03  0.29839160303E+03  0.17281843782E+03 0.  0.
        -24    2    3    3    0    0 -0.49390451028E+02 -0.17320249804E+02 -0.14000726694E+03  0.16726443384E+03  0.75072953351E+02 0.  0.
          6    2    1    2  501    0  0.55200454056E+02 -0.85615705511E+02  0.82531864386E+02  0.21734514668E+03  0.17335012255E+03 0.  0.
         24    2    5    5    0    0  0.91362345993E+02 -0.68010746696E+02  0.10051484830E+03  0.17303832199E+03  0.82864263809E+02 0.  0.
          5    1    5    5  501    0 -0.36161891938E+02 -0.17604958816E+02 -0.17982983918E+02  0.44306824689E+02  0.47000000000E+01 0. -1.
        -11    1    6    6    0    0  0.47972729384E+02 -0.63744240940E+02  0.10190261818E+03  0.12941736595E+03  0.00000000000E+00 0.  1.
         12    1    6    6    0    0  0.43389616609E+02 -0.42665057561E+01 -0.13877698750E+01  0.43620956042E+02  0.00000000000E+00 0. -1.
         -5    1    3    3    0  503 -0.58100030276E+01  0.10293595532E+03 -0.80886818881E+02  0.13112716919E+03  0.47000000000E+01 0.  1.
         13    1    4    4    0    0  0.11749337740E+02 -0.25373020613E+02 -0.60463710252E+02  0.66616044387E+02  0.00000000000E+00 0. -1.
        -14    1    4    4    0    0 -0.61139788768E+02  0.80527708089E+01 -0.79543556693E+02  0.10064838945E+03  0.00000000000E+00 0.  1.
<mgrwt>
<rscale>  2 0.20095102E+03</rscale>
<asrwt>0</asrwt>
<pdfrwt beam="1">  1       21 0.29028810E-01 0.20106567E+03</pdfrwt>
<pdfrwt beam="2">  1       21 0.50315305E-01 0.20106567E+03</pdfrwt>
<totfact> 0.42542539E+04</totfact>
</mgrwt>
</event>
<event>
12    1  0.1071811E-001  0.2046973E+03  0.7546771E-02  0.1146552E+00
         21   -1    0    0  501  502  0.00000000000E+00  0.00000000000E+00  0.23695535698E+03  0.23695535698E+03  0.00000000000E+00 0. -1.
         21   -1    0    0  502  503 -0.00000000000E+00 -0.00000000000E+00 -0.17528945935E+03  0.17528945935E+03  0.00000000000E+00 0.  1.
         -6    2    1    2    0  503 -0.84137397714E+02 -0.60314227097E+02  0.49795300640E+02  0.21066688501E+03  0.17659008123E+03 0.  0.
        -24    2    3    3    0    0 -0.12368756659E+03 -0.60247865935E+02  0.19006722847E+02  0.16032558204E+03  0.80091305806E+02 0.  0.
          6    2    1    2  501    0  0.84137397714E+02  0.60314227097E+02  0.11870596996E+02  0.20157793132E+03  0.17255678381E+03 0.  0.
         24    2    5    5    0    0  0.10825729324E+03  0.79665713652E+02 -0.25065995810E+02  0.15317698835E+03  0.69055181866E+02 0.  0.
          5    1    5    5  501    0 -0.24119895530E+02 -0.19351486555E+02  0.36936592807E+02  0.48400942970E+02  0.47000000000E+01 0. -1.
        -13    1    6    6    0    0  0.76159684616E+01 -0.18070799304E+01 -0.22330480990E+02  0.23662605408E+02  0.00000000000E+00 0.  1.
         14    1    6    6    0    0  0.10064132478E+03  0.81472793582E+02 -0.27355148207E+01  0.12951438294E+03  0.00000000000E+00 0. -1.
         -5    1    3    3    0  503  0.39550168874E+02 -0.66361161587E-01  0.30788577793E+02  0.50341302966E+02  0.47000000000E+01 0.  1.
         13    1    4    4    0    0 -0.50642390058E+02 -0.60386600987E+02  0.33874166691E+02  0.85782588085E+02  0.00000000000E+00 0. -1.
        -14    1    4    4    0    0 -0.73045176531E+02  0.13873505114E+00 -0.14867443845E+02  0.74542993958E+02  0.00000000000E+00 0.  1.
<mgrwt>
<rscale>  2 0.20382440E+03</rscale>
<asrwt>0</asrwt>
<pdfrwt beam="1">  1       21 0.36454671E-01 0.20469725E+03</pdfrwt>
<pdfrwt beam="2">  1       21 0.26967609E-01 0.20469725E+03</pdfrwt>
<totfact> 0.94594362E+04</totfact>
</mgrwt>
</event>
<event>
12    1  0.1071811E-001  0.1788356E+03  0.7546771E-02  0.1170431E+00
         21   -1    0    0  503  502  0.00000000000E+00  0.00000000000E+00  0.11447421121E+04  0.11447421121E+04  0.00000000000E+00 0. -1.
         21   -1    0    0  501  503 -0.00000000000E+00 -0.00000000000E+00 -0.27008376084E+02  0.27008376084E+02  0.00000000000E+00 0. -1.
          6    2    1    2  501    0 -0.17355207811E+02  0.13865852850E+00  0.54370117310E+03  0.57050549075E+03  0.17194280120E+03 0.  0.
         24    2    3    3    0    0  0.31743896403E+02  0.33811902432E+02  0.45095767031E+03  0.46019657588E+03  0.79165322833E+02 0.  0.
         -6    2    1    2    0  502  0.17355207811E+02 -0.13865852850E+00  0.57403256289E+03  0.60124499741E+03  0.17799140761E+03 0.  0.
        -24    2    5    5    0    0 -0.11615064910E+02  0.49608622047E+02  0.17285592380E+03  0.19593171811E+03  0.76903463204E+02 0.  0.
          5    1    3    3  501    0 -0.49099104214E+02 -0.33673243903E+02  0.92743502789E+02  0.11030891487E+03  0.47000000000E+01 0. -1.
        -13    1    4    4    0    0 -0.10600282421E+02  0.28306372165E+02  0.33944295734E+03  0.34078605896E+03  0.00000000000E+00 0.  1.
         14    1    4    4    0    0  0.42344178824E+02  0.55055302663E+01  0.11151471297E+03  0.11941051693E+03  0.00000000000E+00 0. -1.
         -5    1    5    5    0  502  0.28970272720E+02 -0.49747280576E+02  0.40117663909E+03  0.40531327930E+03  0.47000000000E+01 0.  1.
         11    1    6    6    0    0 -0.15583546610E+01  0.62119712259E+02  0.16805800304E+03  0.17917806648E+03  0.00000000000E+00 0. -1.
        -12    1    6    6    0    0 -0.10056710249E+02 -0.12511090212E+02  0.47979207617E+01  0.16753651631E+02  0.00000000000E+00 0.  1.
<mgrwt>
<rscale>  2 0.17731144E+03</rscale>
<asrwt>0</asrwt>
<pdfrwt beam="1">  1       21 0.17611413E+00 0.17883558E+03</pdfrwt>
<pdfrwt beam="2">  1       21 0.41551357E-02 0.17883558E+03</pdfrwt>
<totfact> 0.71679343E+04</totfact>
</mgrwt>
</event>
<event>
12    1  0.1071811E-001  0.1794214E+03  0.7546771E-02  0.1168517E+00
         21   -1    0    0  501  502  0.00000000000E+00  0.00000000000E+00  0.37149950498E+03  0.37149950498E+03  0.00000000000E+00 0.  1.
         21   -1    0    0  502  503 -0.00000000000E+00 -0.00000000000E+00 -0.98094785927E+02  0.98094785927E+02  0.00000000000E+00 0.  1.
         -6    2    1    2    0  503 -0.25849221304E+02 -0.42194595512E+02  0.21815202756E+03  0.28245771798E+03  0.17246300817E+03 0.  0.
        -24    2    3    3    0    0 -0.27949553542E+01  0.35469613703E+02  0.65477850465E+02  0.10955681306E+03  0.80308412474E+02 0.  0.
          6    2    1    2  501    0  0.25849221304E+02  0.42194595512E+02  0.55252691497E+02  0.18713657293E+03  0.17180998480E+03 0.  0.
         24    2    5    5    0    0 -0.39855352301E+02 -0.15895551089E+01 -0.66275809299E+00  0.90271871718E+02  0.80978983586E+02 0.  0.
          5    1    5    5  501    0  0.65704573605E+02  0.43784150621E+02  0.55915449590E+02  0.96864701213E+02  0.47000000000E+01 0. -1.
        -11    1    6    6    0    0 -0.43395146236E+01  0.32609104466E+02 -0.18618208487E+02  0.37799772069E+02  0.00000000000E+00 0.  1.
         12    1    6    6    0    0 -0.35515837678E+02 -0.34198659575E+02  0.17955450394E+02  0.52472099649E+02  0.00000000000E+00 0. -1.
         -5    1    3    3    0  503 -0.23054265950E+02 -0.77664209215E+02  0.15267417709E+03  0.17290090492E+03  0.47000000000E+01 0.  1.
         13    1    4    4    0    0  0.32981764889E+02  0.34026720051E+02  0.54248705646E+02  0.72031496978E+02  0.00000000000E+00 0. -1.
        -14    1    4    4    0    0 -0.35776720244E+02  0.14428936520E+01  0.11229144819E+02  0.37525316079E+02  0.00000000000E+00 0.  1.
<mgrwt>
<rscale>  2 0.17926434E+03</rscale>
<asrwt>0</asrwt>
<pdfrwt beam="1">  1       21 0.57153769E-01 0.17942145E+03</pdfrwt>
<pdfrwt beam="2">  1       21 0.15091506E-01 0.17942145E+03</pdfrwt>
<totfact> 0.11208248E+05</totfact>
</mgrwt>
</event>
<event>
12    1  0.1071811E-001  0.2251234E+03  0.7546771E-02  0.1130800E+00
         21   -1    0    0  503  502  0.00000000000E+00  0.00000000000E+00  0.90909453844E+02  0.90909453844E+02  0.00000000000E+00 0. -1.
         21   -1    0    0  501  503 -0.00000000000E+00 -0.00000000000E+00 -0.81454391693E+03  0.81454391693E+03  0.00000000000E+00 0. -1.
          6    2    1    2  501    0 -0.11767740482E+03  0.79299809848E+02 -0.62267250402E+03  0.66211900555E+03  0.17476870086E+03 0.  0.
         24    2    3    3    0    0 -0.10749862488E+02  0.74800786018E+02 -0.22989470602E+03  0.25499466444E+03  0.80374037492E+02 0.  0.
         -6    2    1    2    0  502  0.11767740482E+03 -0.79299809848E+02 -0.10096195906E+03  0.24333436522E+03  0.16994665243E+03 0.  0.
        -24    2    5    5    0    0  0.14705384958E+03 -0.77290825646E+02 -0.63657097764E+02  0.19557712283E+03  0.81237174204E+02 0.  0.
          5    1    3    3  501    0 -0.10692754234E+03  0.44990238307E+01 -0.39277779800E+03  0.40712434111E+03  0.47000000000E+01 0. -1.
        -11    1    4    4    0    0  0.12533037694E+02  0.29982301117E+01  0.14482012344E+00  0.12887489690E+02  0.00000000000E+00 0.  1.
         12    1    4    4    0    0 -0.23282900182E+02  0.71802555906E+02 -0.23003952615E+03  0.24210717475E+03  0.00000000000E+00 0. -1.
         -5    1    5    5    0  502 -0.29376444760E+02 -0.20089842029E+01 -0.37304861296E+02  0.47757242388E+02  0.47000000000E+01 0.  1.
         13    1    6    6    0    0  0.48532416540E+02 -0.63367763584E+02 -0.47769721899E+01  0.79960542645E+02  0.00000000000E+00 0. -1.
        -14    1    6    6    0    0  0.98521433044E+02 -0.13923062062E+02 -0.58880125574E+02  0.11561658019E+03  0.00000000000E+00 0.  1.
<mgrwt>
<rscale>  2 0.22418689E+03</rscale>
<asrwt>0</asrwt>
<pdfrwt beam="1">  1       21 0.13986070E-01 0.22512337E+03</pdfrwt>
<pdfrwt beam="2">  1       21 0.12531445E+00 0.22512337E+03</pdfrwt>
<totfact> 0.20698946E+04</totfact>
</mgrwt>
</event>
<event>
12    1  0.1071811E-001  0.2073876E+03  0.7546771E-02  0.1143830E+00
         21   -1    0    0  501  502  0.00000000000E+00  0.00000000000E+00  0.18054693971E+03  0.18054693971E+03  0.00000000000E+00 0. -1.
         21   -1    0    0  502  503 -0.00000000000E+00 -0.00000000000E+00 -0.24625099908E+03  0.24625099908E+03  0.00000000000E+00 0. -1.
         -6    2    1    2    0  503  0.10755942152E+01 -0.11387842584E+03  0.79851152755E+01  0.20754125323E+03  0.17332096513E+03 0.  0.
        -24    2    3    3    0    0  0.67776603295E+02 -0.60118598470E+02 -0.35348836227E+01  0.12097368410E+03  0.80088844453E+02 0.  0.
          6    2    1    2  501    0 -0.10755942152E+01  0.11387842584E+03 -0.73689174649E+02  0.21925668557E+03  0.17226127519E+03 0.  0.
         24    2    5    5    0    0  0.64365917967E+02  0.90306646359E+02 -0.53405613609E+02  0.14664998372E+03  0.79723248732E+02 0.  0.
          5    1    5    5  501    0 -0.65441512182E+02  0.23571779477E+02 -0.20283561040E+02  0.72606701845E+02  0.47000000000E+01 0. -1.
        -13    1    6    6    0    0 -0.13632167813E+02  0.37536906693E+02 -0.29037387640E+02  0.49376363215E+02  0.00000000000E+00 0.  1.
         14    1    6    6    0    0  0.77998085780E+02  0.52769739666E+02 -0.24368225969E+02  0.97273620507E+02  0.00000000000E+00 0. -1.
         -5    1    3    3    0  503 -0.66701009080E+02 -0.53759827365E+02  0.11519998898E+02  0.86567569131E+02  0.47000000000E+01 0.  1.
         11    1    4    4    0    0 -0.11372195419E+02 -0.92946243048E+01  0.19229087704E+02  0.24196584130E+02  0.00000000000E+00 0. -1.
        -12    1    4    4    0    0  0.79148798714E+02 -0.50823974166E+02 -0.22763971327E+02  0.96777099969E+02  0.00000000000E+00 0.  1.
<mgrwt>
<rscale>  2 0.20716603E+03</rscale>
<asrwt>0</asrwt>
<pdfrwt beam="1">  1       21 0.27776452E-01 0.20738758E+03</pdfrwt>
<pdfrwt beam="2">  1       21 0.37884769E-01 0.20738758E+03</pdfrwt>
<totfact> 0.82626485E+04</totfact>
</mgrwt>
</event>
<event>
12    1  0.1071811E-001  0.2426091E+03  0.7546771E-02  0.1118235E+00
         21   -1    0    0  501  502  0.00000000000E+00  0.00000000000E+00  0.18667869333E+03  0.18667869333E+03  0.00000000000E+00 0. -1.
         21   -1    0    0  502  503 -0.00000000000E+00 -0.00000000000E+00 -0.45022271212E+03  0.45022271212E+03  0.00000000000E+00 0.  1.
         -6    2    1    2    0  503 -0.16489984166E+03  0.38228184402E+02 -0.30676557965E+03  0.39047234092E+03  0.17236640133E+03 0.  0.
        -24    2    3    3    0    0 -0.13297686091E+03  0.33199709764E+02 -0.11402584598E+03  0.19498562222E+03  0.78945760196E+02 0.  0.
          6    2    1    2  501    0  0.16489984166E+03 -0.38228184402E+02  0.43221560857E+02  0.24642906452E+03  0.17379824123E+03 0.  0.
         24    2    5    5    0    0  0.35379713581E+02  0.32735802752E+02  0.31477482925E+02  0.98201656738E+02  0.79557378915E+02 0.  0.
          5    1    5    5  501    0  0.12952012808E+03 -0.70963987154E+02  0.11744077932E+02  0.14822740778E+03  0.47000000000E+01 0. -1.
        -13    1    6    6    0    0  0.17921389330E+02 -0.23356168109E+02 -0.37897390419E+01  0.29682467995E+02  0.00000000000E+00 0.  1.
         14    1    6    6    0    0  0.17458324251E+02  0.56091970861E+02  0.35267221967E+02  0.68519188743E+02  0.00000000000E+00 0. -1.
         -5    1    3    3    0  503 -0.31922980750E+02  0.50284746378E+01 -0.19273973367E+03  0.19548671871E+03  0.47000000000E+01 0.  1.
         13    1    4    4    0    0 -0.62172966304E+01  0.29308938760E+02 -0.12214992803E+02  0.32355443403E+02  0.00000000000E+00 0. -1.
        -14    1    4    4    0    0 -0.12675956428E+03  0.38907710037E+01 -0.10181085318E+03  0.16263017881E+03  0.00000000000E+00 0.  1.
<mgrwt>
<rscale>  2 0.24235279E+03</rscale>
<asrwt>0</asrwt>
<pdfrwt beam="1">  1       21 0.28719799E-01 0.24260911E+03</pdfrwt>
<pdfrwt beam="2">  1       21 0.69265032E-01 0.24260911E+03</pdfrwt>
<totfact> 0.21401191E+04</totfact>
</mgrwt>
</event>
<event>
12    1  0.1071811E-001  0.1954195E+03  0.7546771E-02  0.1153781E+00
         21   -1    0    0  503  502  0.00000000000E+00  0.00000000000E+00  0.21083284283E+03  0.21083284283E+03  0.00000000000E+00 0. -1.
         21   -1    0    0  501  503 -0.00000000000E+00 -0.00000000000E+00 -0.20497360079E+03  0.20497360079E+03  0.00000000000E+00 0. -1.
          6    2    1    2  501    0 -0.73191964299E+02  0.54015732090E+02 -0.68717651990E+02  0.20714945468E+03  0.17295669380E+03 0.  0.
         24    2    3    3    0    0 -0.67266208655E+02 -0.20281610429E+02 -0.24097087871E+01  0.10727932393E+03  0.81036782372E+02 0.  0.
         -6    2    1    2    0  502  0.73191964299E+02 -0.54015732090E+02  0.74576894033E+02  0.20865698894E+03  0.17234054357E+03 0.  0.
        -24    2    5    5    0    0  0.48649718524E+02 -0.80036250761E+02  0.10415615507E+03  0.16200495894E+03  0.81391065438E+02 0.  0.
          5    1    3    3  501    0 -0.59257556435E+01  0.74297342519E+02 -0.66307943203E+02  0.99870130755E+02  0.47000000000E+01 0. -1.
        -11    1    4    4    0    0  0.14223938715E+02  0.70617588680E+01  0.12284279242E+02  0.20077160839E+02  0.00000000000E+00 0.  1.
         12    1    4    4    0    0 -0.81490147370E+02 -0.27343369297E+02 -0.14693988029E+02  0.87202163087E+02  0.00000000000E+00 0. -1.
         -5    1    5    5    0  502  0.24542245774E+02  0.26020518672E+02 -0.29579261037E+02  0.46652030000E+02  0.47000000000E+01 0.  1.
         13    1    6    6    0    0  0.36457872177E+02 -0.32168654691E+02  0.10149214371E+03  0.11253734501E+03  0.00000000000E+00 0. -1.
        -14    1    6    6    0    0  0.12191846347E+02 -0.47867596070E+02  0.26640113634E+01  0.49467613925E+02  0.00000000000E+00 0.  1.
<mgrwt>
<rscale>  2 0.19528308E+03</rscale>
<asrwt>0</asrwt>
<pdfrwt beam="1">  1       21 0.32435822E-01 0.19541950E+03</pdfrwt>
<pdfrwt beam="2">  1       21 0.31534400E-01 0.19541950E+03</pdfrwt>
<totfact> 0.88308502E+04</totfact>
</mgrwt>
</event>
<event>
12    1  0.1071811E-001  0.2049199E+03  0.7546771E-02  0.1145763E+00
         21   -1    0    0  501  502  0.00000000000E+00  0.00000000000E+00  0.20245365954E+03  0.20245365954E+03  0.00000000000E+00 0. -1.
         21   -1    0    0  502  503 -0.00000000000E+00 -0.00000000000E+00 -0.43142174710E+03  0.43142174710E+03  0.00000000000E+00 0.  1.
         -6    2    1    2    0  503  0.61917985653E+02  0.89289039678E+02 -0.34320864161E+03  0.39973034557E+03  0.17374063410E+03 0.  0.
        -24    2    3    3    0    0  0.15565966205E+01 -0.15783449225E+02 -0.15508350801E+03  0.17590701992E+03  0.81491379541E+02 0.  0.
          6    2    1    2  501    0 -0.61917985653E+02 -0.89289039678E+02  0.11424055405E+03  0.23414506107E+03  0.17310874005E+03 0.  0.
         24    2    5    5    0    0 -0.88445253276E+02 -0.11107776303E+03  0.11396786049E+03  0.19949525942E+03  0.81540499373E+02 0.  0.
          5    1    5    5  501    0  0.26527267623E+02  0.21788723356E+02  0.27269356169E+00  0.34649801656E+02  0.47000000000E+01 0. -1.
        -11    1    6    6    0    0 -0.67591541736E+02 -0.22918601239E+02  0.64906050653E+02  0.96471105562E+02  0.00000000000E+00 0.  1.
         12    1    6    6    0    0 -0.20853711541E+02 -0.88159161794E+02  0.49061809837E+02  0.10302415386E+03  0.00000000000E+00 0. -1.
         -5    1    3    3    0  503  0.60361389032E+02  0.10507248890E+03 -0.18812513360E+03  0.22382332565E+03  0.47000000000E+01 0.  1.
         11    1    4    4    0    0 -0.57666798512E+00 -0.37957263913E+02 -0.28737554856E+02  0.47612324968E+02  0.00000000000E+00 0. -1.
        -12    1    4    4    0    0  0.21332646056E+01  0.22173814688E+02 -0.12634595315E+03  0.12829469496E+03  0.00000000000E+00 0.  1.
<mgrwt>
<rscale>  2 0.20478593E+03</rscale>
<asrwt>0</asrwt>
<pdfrwt beam="1">  1       21 0.31146717E-01 0.20491993E+03</pdfrwt>
<pdfrwt beam="2">  1       21 0.66372576E-01 0.20491993E+03</pdfrwt>
<totfact> 0.20471751E+04</totfact>
</mgrwt>
</event>
<event>
12    1  0.1071811E-001  0.3629936E+03  0.7546771E-02  0.1057671E+00
         21   -1    0    0  501  502  0.00000000000E+00  0.00000000000E+00  0.62936256950E+03  0.62936256950E+03  0.00000000000E+00 0. -1.
         21   -1    0    0  502  503 -0.00000000000E+00 -0.00000000000E+00 -0.21926648342E+03  0.21926648342E+03  0.00000000000E+00 0. -1.
         -6    2    1    2    0  503 -0.31561502133E+03 -0.37528555205E+02  0.10730075876E+03  0.37592474803E+03  0.16966062951E+03 0.  0.
        -24    2    3    3    0    0 -0.30247217817E+03 -0.60909479454E+02  0.64300359829E+02  0.32502753540E+03  0.79429083106E+02 0.  0.
          6    2    1    2  501    0  0.31561502133E+03  0.37528555205E+02  0.30279532732E+03  0.47270430488E+03  0.17533714799E+03 0.  0.
         24    2    5    5    0    0  0.15822749636E+03  0.60602050159E+02  0.23054165368E+03  0.29793044374E+03  0.83093598650E+02 0.  0.
          5    1    5    5  501    0  0.15738752497E+03 -0.23073494954E+02  0.72253673644E+02  0.17477386115E+03  0.47000000000E+01 0. -1.
        -13    1    6    6    0    0  0.14536251256E+03  0.63874180208E+02  0.15732558093E+03  0.22352071352E+03  0.00000000000E+00 0.  1.
         14    1    6    6    0    0  0.12864983800E+02 -0.32721300489E+01  0.73216072745E+02  0.74409730220E+02  0.00000000000E+00 0. -1.
         -5    1    3    3    0  503 -0.13142843160E+02  0.23380924249E+02  0.43000398927E+02  0.50897212625E+02  0.47000000000E+01 0.  1.
         11    1    4    4    0    0 -0.18168781576E+03 -0.15500511305E+02  0.34965805071E+01  0.18238134312E+03  0.00000000000E+00 0. -1.
        -12    1    4    4    0    0 -0.12078436241E+03 -0.45408968149E+02  0.60803779322E+02  0.14264619228E+03  0.00000000000E+00 0.  1.
<mgrwt>
<rscale>  2 0.36231478E+03</rscale>
<asrwt>0</asrwt>
<pdfrwt beam="1">  1       21 0.96825010E-01 0.36299359E+03</pdfrwt>
<pdfrwt beam="2">  1       21 0.33733306E-01 0.36299359E+03</pdfrwt>
<totfact> 0.68327589E+03</totfact>
</mgrwt>
</event>
<event>
12    1  0.1071811E-001  0.2417346E+03  0.7546771E-02  0.1118762E+00
         21   -1    0    0  501  502  0.00000000000E+00  0.00000000000E+00  0.16433758837E+03  0.16433758837E+03  0.00000000000E+00 0. -1.
         21   -1    0    0  502  503 -0.00000000000E+00 -0.00000000000E+00 -0.39986393924E+03  0.39986393924E+03  0.00000000000E+00 0. -1.
         -6    2    1    2    0  503 -0.15061123925E+03  0.76738641600E+02 -0.22617195815E+02  0.24207436422E+03  0.17180190849E+03 0.  0.
        -24    2    3    3    0    0 -0.15778185598E+03  0.17311287087E+02 -0.28374670678E+02  0.18175631778E+03  0.83877543971E+02 0.  0.
          6    2    1    2  501    0  0.15061123925E+03 -0.76738641600E+02 -0.21290915505E+03  0.32212716339E+03  0.17280924912E+03 0.  0.
         24    2    5    5    0    0  0.16395954322E+03 -0.97529059099E+02 -0.14997763652E+03  0.25435633851E+03  0.76218149436E+02 0.  0.
          5    1    5    5  501    0 -0.13348303972E+02  0.20790417499E+02 -0.62931518534E+02  0.67770824871E+02  0.47000000000E+01 0. -1.
        -13    1    6    6    0    0  0.40279696182E+02 -0.63868306299E+02 -0.71929329773E+02  0.10428539186E+03  0.00000000000E+00 0.  1.
         14    1    6    6    0    0  0.12367984704E+03 -0.33660752801E+02 -0.78048306746E+02  0.15007094665E+03  0.00000000000E+00 0. -1.
         -5    1    3    3    0  503  0.71706167244E+01  0.59427354513E+02  0.57574748632E+01  0.60318046432E+02  0.47000000000E+01 0.  1.
         11    1    4    4    0    0 -0.97427799638E+02 -0.29597528984E+02 -0.26834754216E+02  0.10530096817E+03  0.00000000000E+00 0. -1.
        -12    1    4    4    0    0 -0.60354056338E+02  0.46908816071E+02 -0.15399164623E+01  0.76455349612E+02  0.00000000000E+00 0.  1.
<mgrwt>
<rscale>  2 0.24155459E+03</rscale>
<asrwt>0</asrwt>
<pdfrwt beam="1">  1       21 0.25282706E-01 0.24173457E+03</pdfrwt>
<pdfrwt beam="2">  1       21 0.61517529E-01 0.24173457E+03</pdfrwt>
<totfact> 0.35533560E+04</totfact>
</mgrwt>
</event>
<event>
12    1  0.1071811E-001  0.2207063E+03  0.7546771E-02  0.1134129E+00
         21   -1    0    0  501  502  0.00000000000E+00  0.00000000000E+00  0.19043758663E+03  0.19043758663E+03  0.00000000000E+00 0.  1.
         21   -1    0    0  502  503 -0.00000000000E+00 -0.00000000000E+00 -0.25114479151E+03  0.25114479151E+03  0.00000000000E+00 0.  1.
         -6    2    1    2    0  503  0.13068649349E+03  0.57134089934E+01 -0.25588884237E+02  0.21809954846E+03  0.17262971766E+03 0.  0.
        -24    2    3    3    0    0  0.23892466086E+02 -0.53360452613E+02 -0.49138510136E+01  0.94227709801E+02  0.73732811718E+02 0.  0.
          6    2    1    2  501    0 -0.13068649349E+03 -0.57134089934E+01 -0.35118320648E+02  0.22348282969E+03  0.17776297730E+03 0.  0.
         24    2    5    5    0    0 -0.14264811864E+03 -0.19898923385E+02 -0.73059668181E+02  0.18098641634E+03  0.81694032097E+02 0.  0.
          5    1    5    5  501    0  0.11961625154E+02  0.14185514391E+02  0.37941347533E+02  0.42496413348E+02  0.47000000000E+01 0. -1.
        -11    1    6    6    0    0 -0.11101204193E+03  0.17083737847E+02 -0.30631437221E+02  0.11642084220E+03  0.00000000000E+00 0.  1.
         12    1    6    6    0    0 -0.31636076712E+02 -0.36982661231E+02 -0.42428230959E+02  0.64565574139E+02  0.00000000000E+00 0. -1.
         -5    1    3    3    0  503  0.10679402740E+03  0.59073861606E+02 -0.20675033223E+02  0.12387183866E+03  0.47000000000E+01 0.  1.
         11    1    4    4    0    0  0.47391034293E+02 -0.50219408643E+02  0.33233209301E+01  0.69129903788E+02  0.00000000000E+00 0. -1.
        -12    1    4    4    0    0 -0.23498568207E+02 -0.31410439695E+01 -0.82371719437E+01  0.25097806012E+02  0.00000000000E+00 0.  1.
<mgrwt>
<rscale>  2 0.21967078E+03</rscale>
<asrwt>0</asrwt>
<pdfrwt beam="1">  1       21 0.29298090E-01 0.22070632E+03</pdfrwt>
<pdfrwt beam="2">  1       21 0.38637660E-01 0.22070632E+03</pdfrwt>
<totfact> 0.71210055E+04</totfact>
</mgrwt>
</event>
<event>
12    1  0.1071811E-001  0.2681664E+03  0.7546771E-02  0.1102388E+00
         21   -1    0    0  503  502  0.00000000000E+00  0.00000000000E+00  0.16564886878E+03  0.16564886878E+03  0.00000000000E+00 0.  1.
         21   -1    0    0  501  503 -0.00000000000E+00 -0.00000000000E+00 -0.13529053639E+04  0.13529053639E+04  0.00000000000E+00 0. -1.
          6    2    1    2  501    0 -0.15953551795E+03 -0.12938183073E+03 -0.12194088912E+04  0.12484671797E+04  0.17181680785E+03 0.  0.
         24    2    3    3    0    0 -0.59076846535E+02 -0.48335316170E+01 -0.33895687530E+03  0.35358055805E+03  0.81326569390E+02 0.  0.
         -6    2    1    2    0  502  0.15953551795E+03  0.12938183073E+03  0.32152396077E+02  0.27008705290E+03  0.17240069595E+03 0.  0.
        -24    2    5    5    0    0  0.28423600378E+02  0.92315341291E+02 -0.11245355292E+02  0.12701464329E+03  0.81708251107E+02 0.  0.
          5    1    3    3  501    0 -0.10045867141E+03 -0.12454829912E+03 -0.88045201585E+03  0.89488662170E+03  0.47000000000E+01 0. -1.
        -11    1    4    4    0    0 -0.35764597539E+02  0.30612871033E+02 -0.95707458101E+02  0.10665913860E+03  0.00000000000E+00 0.  1.
         12    1    4    4    0    0 -0.23312248997E+02 -0.35446402650E+02 -0.24324941720E+03  0.24692141945E+03  0.00000000000E+00 0. -1.
         -5    1    5    5    0  502  0.13111191757E+03  0.37066489443E+02  0.43397751369E+02  0.14307240961E+03  0.47000000000E+01 0.  1.
         11    1    6    6    0    0  0.80776627430E+01  0.83106480354E+02  0.22565761554E+02  0.86493637377E+02  0.00000000000E+00 0. -1.
        -12    1    6    6    0    0  0.20345937635E+02  0.92088609363E+01 -0.33811116846E+02  0.40521005915E+02  0.00000000000E+00 0.  1.
<mgrwt>
<rscale>  2 0.26807264E+03</rscale>
<asrwt>0</asrwt>
<pdfrwt beam="1">  1       21 0.25484441E-01 0.26816644E+03</pdfrwt>
<pdfrwt beam="2">  1       21 0.20813929E+00 0.26816644E+03</pdfrwt>
<totfact> 0.16231392E+03</totfact>
</mgrwt>
</event>
<event>
12    1  0.1071811E-001  0.2182466E+03  0.7546771E-02  0.1135394E+00
         21   -1    0    0  501  502  0.00000000000E+00  0.00000000000E+00  0.73870810199E+03  0.73870810199E+03  0.00000000000E+00 0. -1.
         21   -1    0    0  502  503 -0.00000000000E+00 -0.00000000000E+00 -0.10353198058E+03  0.10353198058E+03  0.00000000000E+00 0. -1.
         -6    2    1    2    0  503  0.10341872705E+03  0.80580811358E+02  0.57460689521E+02  0.22467494987E+03  0.17317159697E+03 0.  0.
        -24    2    3    3    0    0  0.87506632803E+01 -0.15334070976E+02  0.88100905178E+01  0.81319874153E+02  0.78889773715E+02 0.  0.
          6    2    1    2  501    0 -0.10341872705E+03 -0.80580811358E+02  0.57771543189E+03  0.61756513271E+03  0.17447886012E+03 0.  0.
         24    2    5    5    0    0 -0.21878670267E+02 -0.10171929728E+03  0.31685531859E+03  0.34340148603E+03  0.81864498035E+02 0.  0.
          5    1    5    5  501    0 -0.81540056782E+02  0.21138485925E+02  0.26086011330E+03  0.27416364668E+03  0.47000000000E+01 0. -1.
        -13    1    6    6    0    0  0.19695783078E+02 -0.66099185214E+02  0.11356582180E+03  0.13286919145E+03  0.00000000000E+00 0.  1.
         14    1    6    6    0    0 -0.41574453345E+02 -0.35620112069E+02  0.20328949679E+03  0.21053229458E+03  0.00000000000E+00 0. -1.
         -5    1    3    3    0  503  0.94668063769E+02  0.95914882333E+02  0.48650599003E+02  0.14335507572E+03  0.47000000000E+01 0.  1.
         13    1    4    4    0    0 -0.18316440603E+02  0.25646028392E+02  0.63337050718E+01  0.32145397626E+02  0.00000000000E+00 0. -1.
        -14    1    4    4    0    0  0.27067103883E+02 -0.40980099367E+02  0.24763854460E+01  0.49174476527E+02  0.00000000000E+00 0.  1.
<mgrwt>
<rscale>  2 0.21798520E+03</rscale>
<asrwt>0</asrwt>
<pdfrwt beam="1">  1       21 0.11364740E+00 0.21824659E+03</pdfrwt>
<pdfrwt beam="2">  1       21 0.15927997E-01 0.21824659E+03</pdfrwt>
<totfact> 0.20885027E+04</totfact>
</mgrwt>
</event>
<event>
12    1  0.1071811E-001  0.2501944E+03  0.7546771E-02  0.1113737E+00
         21   -1    0    0  503  502  0.00000000000E+00  0.00000000000E+00  0.42147373986E+03  0.42147373986E+03  0.00000000000E+00 0. -1.
         21   -1    0    0  501  503 -0.00000000000E+00 -0.00000000000E+00 -0.19066905795E+03  0.19066905795E+03  0.00000000000E+00 0.  1.
          6    2    1    2  501    0 -0.14384681339E+03 -0.10176322737E+03 -0.32605186533E+02  0.24884955655E+03  0.17267120038E+03 0.  0.
         24    2    3    3    0    0 -0.16930967113E+03 -0.62979409460E+02 -0.10185848200E+02  0.19710732634E+03  0.78200868518E+02 0.  0.
         -6    2    1    2    0  502  0.14384681339E+03  0.10176322737E+03  0.26340986844E+03  0.36329324125E+03  0.17762195861E+03 0.  0.
        -24    2    5    5    0    0  0.13524882143E+03  0.16412296157E+02  0.20803971885E+03  0.26108438454E+03  0.79516816253E+02 0.  0.
          5    1    3    3  501    0  0.25462857747E+02 -0.38783817912E+02 -0.22419338333E+02  0.51742230217E+02  0.47000000000E+01 0. -1.
        -11    1    4    4    0    0 -0.94394193397E+02 -0.71329767495E+02  0.10953239119E+02  0.11881991805E+03  0.00000000000E+00 0.  1.
         12    1    4    4    0    0 -0.74915477735E+02  0.83503580353E+01 -0.21139087319E+02  0.78287408287E+02  0.00000000000E+00 0. -1.
         -5    1    5    5    0  502  0.85979919513E+01  0.85350931214E+02  0.55370149589E+02  0.10220885671E+03  0.47000000000E+01 0.  1.
         13    1    6    6    0    0  0.70739472833E+02 -0.20034151403E+02  0.57634150991E+02  0.93419139364E+02  0.00000000000E+00 0. -1.
        -14    1    6    6    0    0  0.64509348601E+02  0.36446447560E+02  0.15040556786E+03  0.16766524518E+03  0.00000000000E+00 0.  1.
<mgrwt>
<rscale>  2 0.24931724E+03</rscale>
<asrwt>0</asrwt>
<pdfrwt beam="1">  1       21 0.64842114E-01 0.25019437E+03</pdfrwt>
<pdfrwt beam="2">  1       21 0.29333701E-01 0.25019437E+03</pdfrwt>
<totfact> 0.23660563E+04</totfact>
</mgrwt>
</event>
<event>
12    1  0.1071811E-001  0.1767740E+03  0.7546771E-02  0.1170990E+00
         21   -1    0    0  501  502  0.00000000000E+00  0.00000000000E+00  0.25199813855E+02  0.25199813855E+02  0.00000000000E+00 0.  1.
         21   -1    0    0  502  503 -0.00000000000E+00 -0.00000000000E+00 -0.18578357064E+04  0.18578357064E+04  0.00000000000E+00 0.  1.
         -6    2    1    2    0  503  0.18030664347E+02 -0.28750071167E+02 -0.14597827224E+04  0.14704470899E+04  0.17348595345E+03 0.  0.
        -24    2    3    3    0    0 -0.44543422977E+02 -0.77797881397E+01 -0.49553619019E+03  0.50393338895E+03  0.79674984054E+02 0.  0.
          6    2    1    2  501    0 -0.18030664347E+02  0.28750071167E+02 -0.37285317017E+03  0.41258843041E+03  0.17337258997E+03 0.  0.
         24    2    5    5    0    0  0.34673419509E+02  0.48716392024E+02 -0.31934620772E+03  0.33473305517E+03  0.80552374043E+02 0.  0.
          5    1    5    5  501    0 -0.52704083855E+02 -0.19966320856E+02 -0.53506962451E+02  0.77855375243E+02  0.47000000000E+01 0. -1.
        -11    1    6    6    0    0  0.11340033298E+02  0.44850948567E+02 -0.67812407839E+02  0.82089747225E+02  0.00000000000E+00 0.  1.
         12    1    6    6    0    0  0.23333386210E+02  0.38654434568E+01 -0.25153379988E+03  0.25264330794E+03  0.00000000000E+00 0. -1.
         -5    1    3    3    0  503  0.62574087324E+02 -0.20970283028E+02 -0.96424653222E+03  0.96651370093E+03  0.47000000000E+01 0.  1.
         11    1    4    4    0    0 -0.33001131861E+02 -0.14735742227E+02 -0.75742395868E+02  0.83923342015E+02  0.00000000000E+00 0. -1.
        -12    1    4    4    0    0 -0.11542291116E+02  0.69559540871E+01 -0.41979379432E+03  0.42001004694E+03  0.00000000000E+00 0.  1.
<mgrwt>
<rscale>  2 0.17674618E+03</rscale>
<asrwt>0</asrwt>
<pdfrwt beam="1">  1       21 0.38768944E-02 0.17677400E+03</pdfrwt>
<pdfrwt beam="2">  1       21 0.28582088E+00 0.17677400E+03</pdfrwt>
<totfact> 0.17286211E+04</totfact>
</mgrwt>
</event>
<event>
12    1  0.1071811E-001  0.1759673E+03  0.7546771E-02  0.1171810E+00
         21   -1    0    0  503  502  0.00000000000E+00  0.00000000000E+00  0.60268289397E+02  0.60268289397E+02  0.00000000000E+00 0.  1.
         21   -1    0    0  501  503 -0.00000000000E+00 -0.00000000000E+00 -0.18443711603E+04  0.18443711603E+04  0.00000000000E+00 0.  1.
          6    2    1    2  501    0 -0.23327301976E+02 -0.23160508958E+02 -0.17009594582E+04  0.17100184463E+04  0.17268305097E+03 0.  0.
         24    2    3    3    0    0  0.51991927791E+02  0.44808510431E+01 -0.90772186081E+03  0.91271987798E+03  0.79845854498E+02 0.  0.
         -6    2    1    2    0  502  0.23327301976E+02  0.23160508958E+02 -0.83143412752E+02  0.19462100343E+03  0.17286970730E+03 0.  0.
        -24    2    5    5    0    0 -0.28447413432E+02 -0.13615180514E+02 -0.10468020506E+03  0.12739752603E+03  0.65403026192E+02 0.  0.
          5    1    3    3  501    0 -0.75319229767E+02 -0.27641360001E+02 -0.79323759738E+03  0.79729856833E+03  0.47000000000E+01 0. -1.
        -11    1    4    4    0    0 -0.21910994352E+01 -0.12556293143E+02 -0.57808126215E+03  0.57822176287E+03  0.00000000000E+00 0.  1.
         12    1    4    4    0    0  0.54183027226E+02  0.17037144186E+02 -0.32964059867E+03  0.33449811511E+03  0.00000000000E+00 0. -1.
         -5    1    5    5    0  502  0.51774715408E+02  0.36775689472E+02  0.21536792308E+02  0.67223477407E+02  0.47000000000E+01 0.  1.
         11    1    6    6    0    0 -0.13251001567E+02 -0.25412596118E+02 -0.10428893068E+03  0.10815530567E+03  0.00000000000E+00 0. -1.
        -12    1    6    6    0    0 -0.15196411864E+02  0.11797415604E+02 -0.39127438437E+00  0.19242220353E+02  0.00000000000E+00 0.  1.
<mgrwt>
<rscale>  2 0.17592149E+03</rscale>
<asrwt>0</asrwt>
<pdfrwt beam="1">  1       21 0.92720437E-02 0.17596735E+03</pdfrwt>
<pdfrwt beam="2">  1       21 0.28374943E+00 0.17596735E+03</pdfrwt>
<totfact> 0.40043412E+03</totfact>
</mgrwt>
</event>
<event>
12    1  0.1071811E-001  0.1838757E+03  0.7546771E-02  0.1164403E+00
         21   -1    0    0  503  502  0.00000000000E+00  0.00000000000E+00  0.16671214657E+03  0.16671214657E+03  0.00000000000E+00 0. -1.
         21   -1    0    0  501  503 -0.00000000000E+00 -0.00000000000E+00 -0.21846567204E+04  0.21846567204E+04  0.00000000000E+00 0. -1.
          6    2    1    2  501    0  0.30905167691E+02 -0.53336686909E+02 -0.21288289064E+04  0.21366467373E+04  0.17189193069E+03 0.  0.
         24    2    3    3    0    0  0.59990480612E+02 -0.90323412864E+02 -0.15209121029E+04  0.15268935878E+04  0.80456368149E+02 0.  0.
         -6    2    1    2    0  502 -0.30905167691E+02  0.53336686909E+02  0.11088433261E+03  0.21472212961E+03  0.17323488727E+03 0.  0.
        -24    2    5    5    0    0 -0.26935783891E+02 -0.64775118811E+00 -0.64591421062E+01  0.85409884935E+02  0.80790914665E+02 0.  0.
          5    1    3    3  501    0 -0.29085312921E+02  0.36986725955E+02 -0.60791680352E+03  0.60975314950E+03  0.47000000000E+01 0. -1.
        -13    1    4    4    0    0  0.53932883327E+02 -0.55148678942E+02 -0.55642819144E+03  0.56174946811E+03  0.00000000000E+00 0.  1.
         14    1    4    4    0    0  0.60575972852E+01 -0.35174733922E+02 -0.96448391144E+03  0.96514411971E+03  0.00000000000E+00 0. -1.
         -5    1    5    5    0  502 -0.39693838002E+01  0.53984438097E+02  0.11734347472E+03  0.12931224468E+03  0.47000000000E+01 0.  1.
         13    1    6    6    0    0  0.25319694978E+02 -0.14895125869E+02  0.56386907848E+01  0.29912314558E+02  0.00000000000E+00 0. -1.
        -14    1    6    6    0    0 -0.52255478869E+02  0.14247374681E+02 -0.12097832891E+02  0.55497570377E+02  0.00000000000E+00 0.  1.
<mgrwt>
<rscale>  2 0.18355867E+03</rscale>
<asrwt>0</asrwt>
<pdfrwt beam="1">  1       21 0.25648025E-01 0.18387566E+03</pdfrwt>
<pdfrwt beam="2">  1       21 0.33610100E+00 0.18387566E+03</pdfrwt>
<totfact> 0.30873883E+02</totfact>
</mgrwt>
</event>
<event>
12    1  0.1071811E-001  0.1824582E+03  0.7546771E-02  0.1165460E+00
         21   -1    0    0  501  502  0.00000000000E+00  0.00000000000E+00  0.12646984654E+04  0.12646984654E+04  0.00000000000E+00 0. -1.
         21   -1    0    0  502  503 -0.00000000000E+00 -0.00000000000E+00 -0.26317146929E+02  0.26317146929E+02  0.00000000000E+00 0. -1.
         -6    2    1    2    0  503  0.46358312872E+02 -0.36289217114E+02  0.61245187190E+03  0.63903504073E+03  0.17263396953E+03 0.  0.
        -24    2    3    3    0    0  0.44420003789E+02 -0.89238441581E+02  0.44813341876E+03  0.46632134279E+03  0.81825408883E+02 0.  0.
          6    2    1    2  501    0 -0.46358312872E+02  0.36289217114E+02  0.62592944660E+03  0.65198057163E+03  0.17269914073E+03 0.  0.
         24    2    5    5    0    0 -0.10625507732E+02 -0.41057498588E+02  0.40758120469E+03  0.41755064065E+03  0.80171562832E+02 0.  0.
          5    1    5    5  501    0 -0.35732805140E+02  0.77346715701E+02  0.21834824191E+03  0.23442993098E+03  0.47000000000E+01 0. -1.
        -11    1    6    6    0    0  0.14466052903E+02 -0.29735602142E+02  0.57053703628E+02  0.65943899027E+02  0.00000000000E+00 0.  1.
         12    1    6    6    0    0 -0.25091560635E+02 -0.11321896446E+02  0.35052750106E+03  0.35160674162E+03  0.00000000000E+00 0. -1.
         -5    1    3    3    0  503  0.19383090829E+01  0.52949224467E+02  0.16431845314E+03  0.17271369794E+03  0.47000000000E+01 0.  1.
         13    1    4    4    0    0  0.65552844048E+02 -0.75007742150E+02  0.39540518401E+03  0.40776046435E+03  0.00000000000E+00 0. -1.
        -14    1    4    4    0    0 -0.21132840259E+02 -0.14230699431E+02  0.52728234751E+02  0.58560878440E+02  0.00000000000E+00 0.  1.
<mgrwt>
<rscale>  2 0.18244277E+03</rscale>
<asrwt>0</asrwt>
<pdfrwt beam="1">  1       21 0.19456895E+00 0.18245820E+03</pdfrwt>
<pdfrwt beam="2">  1       21 0.40487928E-02 0.18245820E+03</pdfrwt>
<totfact> 0.56258163E+04</totfact>
</mgrwt>
</event>
<event>
12    1  0.1071811E-001  0.2859484E+03  0.7546771E-02  0.1092517E+00
         21   -1    0    0  503  502  0.00000000000E+00  0.00000000000E+00  0.14454573976E+03  0.14454573976E+03  0.00000000000E+00 0.  1.
         21   -1    0    0  501  503 -0.00000000000E+00 -0.00000000000E+00 -0.57947099667E+03  0.57947099667E+03  0.00000000000E+00 0. -1.
          6    2    1    2  501    0 -0.93212339939E+02  0.20662111998E+03 -0.27441371791E+03  0.39631980548E+03  0.17431486482E+03 0.  0.
         24    2    3    3    0    0 -0.55555483990E+02  0.17594034842E+03 -0.28213455486E+03  0.34691282351E+03  0.81897387443E+02 0.  0.
         -6    2    1    2    0  502  0.93212339939E+02 -0.20662111998E+03 -0.16051153900E+03  0.32769693095E+03  0.17389794956E+03 0.  0.
        -24    2    5    5    0    0  0.50413134859E+02 -0.10636513148E+03 -0.16494426260E+03  0.21849631637E+03  0.81725180596E+02 0.  0.
          5    1    3    3  501    0 -0.37656855949E+02  0.30680771565E+02  0.77208369476E+01  0.49406981966E+02  0.47000000000E+01 0. -1.
        -11    1    4    4    0    0  0.18574898086E+02  0.24210883429E+02 -0.25840989724E+02  0.39986878663E+02  0.00000000000E+00 0.  1.
         12    1    4    4    0    0 -0.74130382076E+02  0.15172946499E+03 -0.25629356514E+03  0.30692594485E+03  0.00000000000E+00 0. -1.
         -5    1    5    5    0  502  0.42799205080E+02 -0.10025598850E+03  0.44327235999E+01  0.10920061457E+03  0.47000000000E+01 0.  1.
         11    1    6    6    0    0 -0.52889697081E+01 -0.43816647507E+02 -0.10947859375E+03  0.11803996903E+03  0.00000000000E+00 0. -1.
        -12    1    6    6    0    0  0.55702104567E+02 -0.62548483976E+02 -0.55465668849E+02  0.10045634734E+03  0.00000000000E+00 0.  1.
<mgrwt>
<rscale>  2 0.28588491E+03</rscale>
<asrwt>0</asrwt>
<pdfrwt beam="1">  1       21 0.22237806E-01 0.28594842E+03</pdfrwt>
<pdfrwt beam="2">  1       21 0.89149383E-01 0.28594842E+03</pdfrwt>
<totfact> 0.19349526E+04</totfact>
</mgrwt>
</event>
<event>
12    1  0.1071811E-001  0.1913353E+03  0.7546771E-02  0.1159734E+00
         21   -1    0    0  501  502  0.00000000000E+00  0.00000000000E+00  0.16068997264E+03  0.16068997264E+03  0.00000000000E+00 0.  1.
         21   -1    0    0  502  503 -0.00000000000E+00 -0.00000000000E+00 -0.70839223808E+03  0.70839223808E+03  0.00000000000E+00 0.  1.
         -6    2    1    2    0  503 -0.45430246171E+02  0.30054178923E+02 -0.63877146463E+03  0.66681193910E+03  0.18341760320E+03 0.  0.
        -24    2    3    3    0    0 -0.32285948319E+00  0.59350805060E+02 -0.18439818260E+03  0.20924212141E+03  0.79100905981E+02 0.  0.
          6    2    1    2  501    0  0.45430246171E+02 -0.30054178923E+02  0.91069199193E+02  0.20227027162E+03  0.17219902091E+03 0.  0.
         24    2    5    5    0    0 -0.37176382103E+02 -0.40123306464E+02  0.43275098264E+02  0.10618901201E+03  0.80071274713E+02 0.  0.
          5    1    5    5  501    0  0.82606628274E+02  0.10069127542E+02  0.47794100928E+02  0.96081259608E+02  0.47000000000E+01 0. -1.
        -13    1    6    6    0    0  0.45068716197E+01 -0.19361330697E+02  0.54734004515E+02  0.58232158369E+02  0.00000000000E+00 0.  1.
         14    1    6    6    0    0 -0.41683253723E+02 -0.20761975768E+02 -0.11458906250E+02  0.47956853641E+02  0.00000000000E+00 0. -1.
         -5    1    3    3    0  503 -0.45107386688E+02 -0.29296626138E+02 -0.45437328203E+03  0.45756981769E+03  0.47000000000E+01 0.  1.
         11    1    4    4    0    0 -0.25809834323E+02  0.49683173404E+02 -0.60706229462E+02  0.82582150388E+02  0.00000000000E+00 0. -1.
        -12    1    4    4    0    0  0.25486974840E+02  0.96676316564E+01 -0.12369195314E+03  0.12665997103E+03  0.00000000000E+00 0.  1.
<mgrwt>
<rscale>  2 0.18859544E+03</rscale>
<asrwt>0</asrwt>
<pdfrwt beam="1">  1       21 0.24721534E-01 0.19133525E+03</pdfrwt>
<pdfrwt beam="2">  1       21 0.10898342E+00 0.19133525E+03</pdfrwt>
<totfact> 0.10345596E+04</totfact>
</mgrwt>
</event>
<event>
12    1  0.1071811E-001  0.2620233E+03  0.7546771E-02  0.1107371E+00
         21   -1    0    0  503  502  0.00000000000E+00  0.00000000000E+00  0.22722755817E+03  0.22722755817E+03  0.00000000000E+00 0.  1.
         21   -1    0    0  501  503 -0.00000000000E+00 -0.00000000000E+00 -0.30342918231E+03  0.30342918231E+03  0.00000000000E+00 0.  1.
          6    2    1    2  501    0  0.13217593109E+03 -0.12583660001E+03 -0.90425905405E+02  0.26824759494E+03  0.17456976015E+03 0.  0.
         24    2    3    3    0    0  0.15246193825E+02 -0.98575575482E+02 -0.70833643294E+02  0.14650329877E+03  0.80599137837E+02 0.  0.
         -6    2    1    2    0  502 -0.13217593109E+03  0.12583660001E+03  0.14224281264E+02  0.26240914555E+03  0.18801835768E+03 0.  0.
        -24    2    5    5    0    0 -0.60246370551E+02  0.15424801414E+03  0.22277007211E+02  0.18451173527E+03  0.78270303257E+02 0.  0.
          5    1    3    3  501    0  0.11692973727E+03 -0.27261024533E+02 -0.19592262111E+02  0.12174429617E+03  0.47000000000E+01 0. -1.
        -11    1    4    4    0    0  0.34991200408E+02 -0.10927708379E+02 -0.99877090157E+01  0.37994121227E+02  0.00000000000E+00 0.  1.
         12    1    4    4    0    0 -0.19745006583E+02 -0.87647867103E+02 -0.60845934278E+02  0.10850917754E+03  0.00000000000E+00 0. -1.
         -5    1    5    5    0  502 -0.71929560542E+02 -0.28411414127E+02 -0.80527259468E+01  0.77897410275E+02  0.47000000000E+01 0.  1.
         11    1    6    6    0    0 -0.34290746283E+02  0.97979834815E+02 -0.24755509911E+02  0.10671803307E+03  0.00000000000E+00 0. -1.
        -12    1    6    6    0    0 -0.25955624268E+02  0.56268179327E+02  0.47032517122E+02  0.77793702205E+02  0.00000000000E+00 0.  1.
<mgrwt>
<rscale>  2 0.25962140E+03</rscale>
<asrwt>0</asrwt>
<pdfrwt beam="1">  1       21 0.34958086E-01 0.26202334E+03</pdfrwt>
<pdfrwt beam="2">  1       21 0.46681413E-01 0.26202334E+03</pdfrwt>
<totfact> 0.33534648E+04</totfact>
</mgrwt>
</event>
<event>
12    1  0.1071811E-001  0.1746394E+03  0.7546771E-02  0.1173336E+00
         21   -1    0    0  501  502  0.00000000000E+00  0.00000000000E+00  0.47010308772E+03  0.47010308772E+03  0.00000000000E+00 0. -1.
         21   -1    0    0  502  503 -0.00000000000E+00 -0.00000000000E+00 -0.12591797289E+03  0.12591797289E+03  0.00000000000E+00 0. -1.
         -6    2    1    2    0  503  0.20639335129E+02  0.49939218386E+01 -0.35757278807E+02  0.17826248431E+03  0.17334361516E+03 0.  0.
        -24    2    3    3    0    0  0.33981150541E+02 -0.58462294904E+02  0.16376361540E+01  0.10326138334E+03  0.78023540805E+02 0.  0.
          6    2    1    2  501    0 -0.20639335129E+02 -0.49939218386E+01  0.37994239364E+03  0.41775857631E+03  0.17238063750E+03 0.  0.
         24    2    5    5    0    0 -0.67879846484E+02  0.36676700591E+02  0.25378449791E+03  0.27666991148E+03  0.78656306910E+02 0.  0.
          5    1    5    5  501    0  0.47240511355E+02 -0.41670622430E+02  0.12615789573E+03  0.14108866483E+03  0.47000000000E+01 0. -1.
        -13    1    6    6    0    0 -0.20581864381E+02 -0.11168666489E+02  0.13254014647E+02  0.26907641234E+02  0.00000000000E+00 0.  1.
         14    1    6    6    0    0 -0.47297982103E+02  0.47845367080E+02  0.24053048326E+03  0.24976227025E+03  0.00000000000E+00 0. -1.
         -5    1    3    3    0  503 -0.13341815412E+02  0.63456216743E+02 -0.37394914961E+02  0.75001100970E+02  0.47000000000E+01 0.  1.
         11    1    4    4    0    0 -0.24635650755E+02 -0.17043553285E+02 -0.75736839531E+01  0.30899169654E+02  0.00000000000E+00 0. -1.
        -12    1    4    4    0    0  0.58616801296E+02 -0.41418741619E+02  0.92113201071E+01  0.72362213687E+02  0.00000000000E+00 0.  1.
<mgrwt>
<rscale>  2 0.17439999E+03</rscale>
<asrwt>0</asrwt>
<pdfrwt beam="1">  1       21 0.72323551E-01 0.17463943E+03</pdfrwt>
<pdfrwt beam="2">  1       21 0.19371996E-01 0.17463943E+03</pdfrwt>
<totfact> 0.42618046E+04</totfact>
</mgrwt>
</event>
<event>
12    1  0.1071811E-001  0.2008140E+03  0.7546771E-02  0.1149344E+00
         21   -1    0    0  503  502  0.00000000000E+00  0.00000000000E+00  0.94099465145E+03  0.94099465145E+03  0.00000000000E+00 0.  1.
         21   -1    0    0  501  503 -0.00000000000E+00 -0.00000000000E+00 -0.54628043666E+02  0.54628043666E+02  0.00000000000E+00 0.  1.
          6    2    1    2  501    0 -0.86630335489E+02  0.52568654213E+02  0.21040929615E+03  0.29085793353E+03  0.17337239446E+03 0.  0.
         24    2    3    3    0    0 -0.10590919110E+03 -0.10787699710E+02  0.15467379557E+03  0.20417322969E+03  0.80184745807E+02 0.  0.
         -6    2    1    2    0  502  0.86630335489E+02 -0.52568654213E+02  0.67595731164E+03  0.70476476159E+03  0.17177544523E+03 0.  0.
        -24    2    5    5    0    0  0.25807272506E+02 -0.36591790525E+02  0.16044301512E+03  0.18540767338E+03  0.81419099703E+02 0.  0.
          5    1    3    3  501    0  0.19278855612E+02  0.63356353923E+02  0.55735500579E+02  0.86684703847E+02  0.47000000000E+01 0. -1.
        -13    1    4    4    0    0 -0.40422480834E+01 -0.29302531794E+02  0.30301175041E+02  0.42345476122E+02  0.00000000000E+00 0.  1.
         14    1    4    4    0    0 -0.10186694302E+03  0.18514832084E+02  0.12437262053E+03  0.16182775356E+03  0.00000000000E+00 0. -1.
         -5    1    5    5    0  502  0.60823062984E+02 -0.15976863688E+02  0.51551429651E+03  0.51935708821E+03  0.47000000000E+01 0.  1.
         13    1    6    6    0    0 -0.54995643922E+00  0.47077028386E+01 -0.83754896285E+01  0.96236035152E+01  0.00000000000E+00 0. -1.
        -14    1    6    6    0    0  0.26357228945E+02 -0.41299493364E+02  0.16881850475E+03  0.17578406986E+03  0.00000000000E+00 0.  1.
<mgrwt>
<rscale>  2 0.20046884E+03</rscale>
<asrwt>0</asrwt>
<pdfrwt beam="1">  1       21 0.14476840E+00 0.20081401E+03</pdfrwt>
<pdfrwt beam="2">  1       21 0.84043151E-02 0.20081401E+03</pdfrwt>
<totfact> 0.35945801E+04</totfact>
</mgrwt>
</event>
<event>
12    1  0.1071811E-001  0.2607314E+03  0.7546771E-02  0.1106729E+00
         21   -1    0    0  501  502  0.00000000000E+00  0.00000000000E+00  0.14104983861E+03  0.14104983861E+03  0.00000000000E+00 0. -1.
         21   -1    0    0  502  503 -0.00000000000E+00 -0.00000000000E+00 -0.15938471738E+04  0.15938471738E+04  0.00000000000E+00 0. -1.
         -6    2    1    2    0  503  0.16196986690E+03  0.11034808556E+03 -0.14509477016E+04  0.14741590723E+04  0.17171138529E+03 0.  0.
        -24    2    3    3    0    0  0.17044554284E+03  0.13235457811E+03 -0.13842000850E+04  0.14032122111E+04  0.80157448191E+02 0.  0.
          6    2    1    2  501    0 -0.16196986690E+03 -0.11034808556E+03 -0.18496335530E+01  0.26073794010E+03  0.17195904888E+03 0.  0.
         24    2    5    5    0    0 -0.25394567705E+02 -0.17292779722E+02 -0.34303519744E+02  0.92252192859E+02  0.79936295392E+02 0.  0.
          5    1    5    5  501    0 -0.13657529919E+03 -0.93055305834E+02  0.32453886191E+02  0.16848574724E+03  0.47000000000E+01 0. -1.
        -13    1    6    6    0    0  0.23289373467E+02 -0.25558910380E+02 -0.52947940884E+01  0.34981247273E+02  0.00000000000E+00 0.  1.
         14    1    6    6    0    0 -0.48683941173E+02  0.82661306583E+01 -0.29008725656E+02  0.57270945586E+02  0.00000000000E+00 0. -1.
         -5    1    3    3    0  503 -0.84756759445E+01 -0.22006492551E+02 -0.66747616639E+02  0.70946861270E+02  0.47000000000E+01 0.  1.
         11    1    4    4    0    0  0.15519106952E+03  0.81700850102E+02 -0.11338572706E+04  0.11473411032E+04  0.00000000000E+00 0. -1.
        -12    1    4    4    0    0  0.15254473319E+02  0.50653728005E+02 -0.25034281440E+03  0.25587110787E+03  0.00000000000E+00 0.  1.
<mgrwt>
<rscale>  2 0.26069055E+03</rscale>
<asrwt>0</asrwt>
<pdfrwt beam="1">  1       21 0.21699974E-01 0.26073138E+03</pdfrwt>
<pdfrwt beam="2">  1       21 0.24520727E+00 0.26073138E+03</pdfrwt>
<totfact> 0.13107510E+03</totfact>
</mgrwt>
</event>
<event>
12    1  0.1071811E-001  0.2164161E+03  0.7546771E-02  0.1139198E+00
         21   -1    0    0  503  502  0.00000000000E+00  0.00000000000E+00  0.24882716925E+04  0.24882716925E+04  0.00000000000E+00 0.  1.
         21   -1    0    0  501  503 -0.00000000000E+00 -0.00000000000E+00 -0.27141085628E+02  0.27141085628E+02  0.00000000000E+00 0. -1.
          6    2    1    2  501    0  0.76579731366E+02 -0.10154808925E+03  0.46308568717E+03  0.50568159375E+03  0.15839523640E+03 0.  0.
         24    2    3    3    0    0  0.11103519042E+03 -0.80678008177E+02  0.40200553342E+03  0.43236301409E+03  0.80570295628E+02 0.  0.
         -6    2    1    2    0  502 -0.76579731366E+02  0.10154808925E+03  0.19980449197E+04  0.20097311844E+04  0.17509843692E+03 0.  0.
        -24    2    5    5    0    0  0.21047488087E+02  0.20395312882E+02  0.56661539722E+03  0.57267536955E+03  0.77750273170E+02 0.  0.
          5    1    3    3  501    0 -0.34455459050E+02 -0.20870081069E+02  0.61080153751E+02  0.73318579667E+02  0.47000000000E+01 0. -1.
        -11    1    4    4    0    0  0.42061112733E+02 -0.72700488303E+02  0.16149649193E+03  0.18203190684E+03  0.00000000000E+00 0.  1.
         12    1    4    4    0    0  0.68974077683E+02 -0.79775198737E+01  0.24050904149E+03  0.25033110724E+03  0.00000000000E+00 0. -1.
         -5    1    5    5    0  502 -0.97627219453E+02  0.81152776364E+02  0.14314295225E+04  0.14370558148E+04  0.47000000000E+01 0.  1.
         13    1    6    6    0    0  0.73268993472E+00  0.33996707437E+02  0.10407551105E+03  0.10948983949E+03  0.00000000000E+00 0. -1.
        -14    1    6    6    0    0  0.20314798153E+02 -0.13601394555E+02  0.46253988617E+03  0.46318553005E+03  0.00000000000E+00 0.  1.
<mgrwt>
<rscale>  2 0.21301766E+03</rscale>
<asrwt>0</asrwt>
<pdfrwt beam="1">  1       21 0.38281085E+00 0.21641611E+03</pdfrwt>
<pdfrwt beam="2">  1       21 0.41755536E-02 0.21641611E+03</pdfrwt>
<totfact> 0.39311983E+03</totfact>
</mgrwt>
</event>
<event>
12    1  0.1071811E-001  0.2325263E+03  0.7546771E-02  0.1125008E+00
         21   -1    0    0  503  502  0.00000000000E+00  0.00000000000E+00  0.21580843853E+03  0.21580843853E+03  0.00000000000E+00 0.  1.
         21   -1    0    0  501  503 -0.00000000000E+00 -0.00000000000E+00 -0.24971038912E+03  0.24971038912E+03  0.00000000000E+00 0.  1.
          6    2    1    2  501    0  0.13059411642E+03 -0.83208815696E+02 -0.16408478180E+02  0.23233542656E+03  0.17242964370E+03 0.  0.
         24    2    3    3    0    0  0.91849293613E+02 -0.37492170671E+02  0.55558292280E+02  0.13856720712E+03  0.79197168188E+02 0.  0.
         -6    2    1    2    0  502 -0.13059411642E+03  0.83208815696E+02 -0.17493472411E+02  0.23318340108E+03  0.17346454020E+03 0.  0.
        -24    2    5    5    0    0 -0.14555664840E+03  0.51799906010E+02  0.27164472665E+02  0.17637830422E+03  0.80631442181E+02 0.  0.
          5    1    3    3  501    0  0.38744822811E+02 -0.45716645025E+02 -0.71966770460E+02  0.93768219443E+02  0.47000000000E+01 0. -1.
        -11    1    4    4    0    0  0.77381971159E+02 -0.60393888250E+02  0.52468692028E+02  0.11130298667E+03  0.00000000000E+00 0.  1.
         12    1    4    4    0    0  0.14467322455E+02  0.22901717579E+02  0.30896002523E+01  0.27264220451E+02  0.00000000000E+00 0. -1.
         -5    1    5    5    0  502  0.14962531976E+02  0.31408909687E+02 -0.44657945076E+02  0.56805096860E+02  0.47000000000E+01 0.  1.
         13    1    6    6    0    0 -0.28263135352E+02  0.45518627282E+02  0.24426884117E+02  0.58884827564E+02  0.00000000000E+00 0. -1.
        -14    1    6    6    0    0 -0.11729351305E+03  0.62812787278E+01  0.27375885473E+01  0.11749347666E+03  0.00000000000E+00 0.  1.
<mgrwt>
<rscale>  2 0.23233330E+03</rscale>
<asrwt>0</asrwt>
<pdfrwt beam="1">  1       21 0.33201298E-01 0.23252629E+03</pdfrwt>
<pdfrwt beam="2">  1       21 0.38416983E-01 0.23252629E+03</pdfrwt>
<totfact> 0.56065719E+04</totfact>
</mgrwt>
</event>
<event>
12    1  0.1071811E-001  0.2151471E+03  0.7546771E-02  0.1137618E+00
         21   -1    0    0  501  502  0.00000000000E+00  0.00000000000E+00  0.13617255765E+03  0.13617255765E+03  0.00000000000E+00 0. -1.
         21   -1    0    0  502  503 -0.00000000000E+00 -0.00000000000E+00 -0.35847550953E+03  0.35847550953E+03  0.00000000000E+00 0. -1.
         -6    2    1    2    0  503 -0.12676412120E+03  0.11324133526E+02 -0.16813012299E+03  0.27278555129E+03  0.17305155392E+03 0.  0.
        -24    2    3    3    0    0 -0.14991698988E+03 -0.26103450163E+02 -0.12000007980E+03  0.20739846995E+03  0.73875653780E+02 0.  0.
          6    2    1    2  501    0  0.12676412120E+03 -0.11324133526E+02 -0.54172828894E+02  0.22186251589E+03  0.17346729416E+03 0.  0.
         24    2    5    5    0    0  0.75965571651E+02 -0.12768517799E+01  0.38040669255E+02  0.11600005915E+03  0.78971658069E+02 0.  0.
          5    1    5    5  501    0  0.50798549547E+02 -0.10047281746E+02 -0.92213498148E+02  0.10586245674E+03  0.47000000000E+01 0. -1.
        -13    1    6    6    0    0  0.49432812386E+02 -0.39246502695E+02  0.24885804585E+02  0.67846843582E+02  0.00000000000E+00 0.  1.
         14    1    6    6    0    0  0.26532759266E+02  0.37969650915E+02  0.13154864670E+02  0.48153215566E+02  0.00000000000E+00 0. -1.
         -5    1    3    3    0  503  0.23152868681E+02  0.37427583689E+02 -0.48130043184E+02  0.65387081337E+02  0.47000000000E+01 0.  1.
         11    1    4    4    0    0 -0.10254044564E+03  0.10590972849E+02 -0.10153495249E+03  0.14469297935E+03  0.00000000000E+00 0. -1.
        -12    1    4    4    0    0 -0.47376544242E+02 -0.36694423012E+02 -0.18465127312E+02  0.62705490598E+02  0.00000000000E+00 0.  1.
<mgrwt>
<rscale>  2 0.21506330E+03</rscale>
<asrwt>0</asrwt>
<pdfrwt beam="1">  1       21 0.20949625E-01 0.21514711E+03</pdfrwt>
<pdfrwt beam="2">  1       21 0.55150077E-01 0.21514711E+03</pdfrwt>
<totfact> 0.64971520E+04</totfact>
</mgrwt>
</event>
<event>
12    1  0.1071811E-001  0.2496285E+03  0.7546771E-02  0.1113581E+00
         21   -1    0    0  503  502  0.00000000000E+00  0.00000000000E+00  0.21345818621E+03  0.21345818621E+03  0.00000000000E+00 0. -1.
         21   -1    0    0  501  503 -0.00000000000E+00 -0.00000000000E+00 -0.38235605646E+03  0.38235605646E+03  0.00000000000E+00 0. -1.
          6    2    1    2  501    0 -0.11612955673E+03  0.13656316292E+03 -0.22960156870E+03  0.33916260917E+03  0.17372053333E+03 0.  0.
         24    2    3    3    0    0 -0.74482257775E+02  0.48301098060E+02 -0.42808717350E+02  0.12835855580E+03  0.82235818049E+02 0.  0.
         -6    2    1    2    0  502  0.11612955673E+03 -0.13656316292E+03  0.60703698450E+02  0.25665163350E+03  0.17334806189E+03 0.  0.
        -24    2    5    5    0    0  0.10523131776E+03 -0.14571121798E+03  0.67387063639E+00  0.19477975983E+03  0.75055389245E+02 0.  0.
          5    1    3    3  501    0 -0.41647298955E+02  0.88262064856E+02 -0.18679285134E+03  0.21080405337E+03  0.47000000000E+01 0. -1.
        -11    1    4    4    0    0  0.66688373281E+01  0.51056833756E+01  0.16807530748E+02  0.18789211902E+02  0.00000000000E+00 0.  1.
         12    1    4    4    0    0 -0.81151095103E+02  0.43195414684E+02 -0.59616248098E+02  0.10956934390E+03  0.00000000000E+00 0. -1.
         -5    1    5    5    0  502  0.10898238965E+02  0.91480550633E+01  0.60029827813E+02  0.61871873669E+02  0.47000000000E+01 0.  1.
         13    1    6    6    0    0  0.29368792565E+02 -0.57597439396E+02  0.35036997327E+02  0.73536264410E+02  0.00000000000E+00 0. -1.
        -14    1    6    6    0    0  0.75862525199E+02 -0.88113778583E+02 -0.34363126691E+02  0.12124349542E+03  0.00000000000E+00 0.  1.
<mgrwt>
<rscale>  2 0.24956372E+03</rscale>
<asrwt>0</asrwt>
<pdfrwt beam="1">  1       21 0.32839721E-01 0.24962851E+03</pdfrwt>
<pdfrwt beam="2">  1       21 0.58824008E-01 0.24962851E+03</pdfrwt>
<totfact> 0.23414353E+04</totfact>
</mgrwt>
</event>
<event>
12    1  0.1071811E-001  0.2051162E+03  0.7546771E-02  0.1145697E+00
         21   -1    0    0  501  502  0.00000000000E+00  0.00000000000E+00  0.62246696621E+02  0.62246696621E+02  0.00000000000E+00 0. -1.
         21   -1    0    0  502  503 -0.00000000000E+00 -0.00000000000E+00 -0.67461554016E+03  0.67461554016E+03  0.00000000000E+00 0.  1.
         -6    2    1    2    0  503  0.10477559429E+03  0.14975620108E+02 -0.32545864161E+03  0.38417241321E+03  0.17453630371E+03 0.  0.
        -24    2    3    3    0    0  0.26853851215E+02 -0.34866602662E+02 -0.56792157439E+02  0.99989699214E+02  0.69539783549E+02 0.  0.
          6    2    1    2  501    0 -0.10477559429E+03 -0.14975620108E+02 -0.28691020193E+03  0.35268982357E+03  0.17569989563E+03 0.  0.
         24    2    5    5    0    0 -0.56000226988E+02 -0.75068826895E+02 -0.14795300109E+03  0.19356275604E+03  0.82493004553E+02 0.  0.
          5    1    5    5  501    0 -0.48775367302E+02  0.60093206787E+02 -0.13895720083E+03  0.15912706753E+03  0.47000000000E+01 0. -1.
        -13    1    6    6    0    0 -0.31862327273E+02 -0.20656106391E+02 -0.12350660000E+03  0.12921208486E+03  0.00000000000E+00 0.  1.
         14    1    6    6    0    0 -0.24137899715E+02 -0.54412720505E+02 -0.24446401096E+02  0.64350671184E+02  0.00000000000E+00 0. -1.
         -5    1    3    3    0  503  0.77921743074E+02  0.49842222770E+02 -0.26866648418E+03  0.28418271400E+03  0.47000000000E+01 0.  1.
         11    1    4    4    0    0  0.25155668838E+02 -0.51142343703E+02 -0.60597513949E+02  0.83188975778E+02  0.00000000000E+00 0. -1.
        -12    1    4    4    0    0  0.16981823772E+01  0.16275741041E+02  0.38053565103E+01  0.16800723436E+02  0.00000000000E+00 0.  1.
<mgrwt>
<rscale>  2 0.20486677E+03</rscale>
<asrwt>0</asrwt>
<pdfrwt beam="1">  1       21 0.95764154E-02 0.20511618E+03</pdfrwt>
<pdfrwt beam="2">  1       21 0.10378700E+00 0.20511618E+03</pdfrwt>
<totfact> 0.65401837E+04</totfact>
</mgrwt>
</event>
<event>
12    1  0.1071811E-001  0.2028890E+03  0.7546771E-02  0.1147616E+00
         21   -1    0    0  501  502  0.00000000000E+00  0.00000000000E+00  0.83108727069E+03  0.83108727069E+03  0.00000000000E+00 0. -1.
         21   -1    0    0  502  503 -0.00000000000E+00 -0.00000000000E+00 -0.59591549608E+02  0.59591549608E+02  0.00000000000E+00 0. -1.
         -6    2    1    2    0  503 -0.95293904362E+02  0.41856544155E+02  0.20078004387E+03  0.28544103626E+03  0.17415814844E+03 0.  0.
        -24    2    3    3    0    0  0.20350973439E+02  0.12533430895E+02  0.78746124255E+02  0.11471332829E+03  0.79918374560E+02 0.  0.
          6    2    1    2  501    0  0.95293904362E+02 -0.41856544155E+02  0.57071567722E+03  0.60523778404E+03  0.17252099151E+03 0.  0.
         24    2    5    5    0    0  0.21063998582E+02 -0.80495032821E+02  0.29083412052E+03  0.31307552177E+03  0.80676231473E+02 0.  0.
          5    1    5    5  501    0  0.74229905780E+02  0.38638488666E+02  0.27988155670E+03  0.29216226227E+03  0.47000000000E+01 0. -1.
        -13    1    6    6    0    0 -0.27927866838E+02 -0.23950390947E+02  0.59619607149E+02  0.70057722838E+02  0.00000000000E+00 0.  1.
         14    1    6    6    0    0  0.48991865420E+02 -0.56544641874E+02  0.23121451337E+03  0.24301779893E+03  0.00000000000E+00 0. -1.
         -5    1    3    3    0  503 -0.11564487780E+03  0.29323113260E+02  0.12203391961E+03  0.17072770797E+03  0.47000000000E+01 0.  1.
         13    1    4    4    0    0 -0.99744429826E+01  0.25428787309E+02 -0.21134555617E+01  0.27396704751E+02  0.00000000000E+00 0. -1.
        -14    1    4    4    0    0  0.30325416421E+02 -0.12895356413E+02  0.80859579816E+02  0.87316623539E+02  0.00000000000E+00 0.  1.
<mgrwt>
<rscale>  2 0.20253723E+03</rscale>
<asrwt>0</asrwt>
<pdfrwt beam="1">  1       21 0.12785957E+00 0.20288903E+03</pdfrwt>
<pdfrwt beam="2">  1       21 0.91679313E-02 0.20288903E+03</pdfrwt>
<totfact> 0.42377505E+04</totfact>
</mgrwt>
</event>
<event>
12    1  0.1071811E-001  0.1929767E+03  0.7546771E-02  0.1156825E+00
         21   -1    0    0  501  502  0.00000000000E+00  0.00000000000E+00  0.42445269205E+02  0.42445269205E+02  0.00000000000E+00 0. -1.
         21   -1    0    0  502  503 -0.00000000000E+00 -0.00000000000E+00 -0.10667730754E+04  0.10667730754E+04  0.00000000000E+00 0. -1.
         -6    2    1    2    0  503  0.52324770919E+02 -0.53561650000E+02 -0.75332123322E+03  0.77652541825E+03  0.17289335663E+03 0.  0.
        -24    2    3    3    0    0 -0.32837802419E+02 -0.51166208575E+02 -0.35368406551E+03  0.36788088097E+03  0.80917378961E+02 0.  0.
          6    2    1    2  501    0 -0.52324770919E+02  0.53561650000E+02 -0.27100657293E+03  0.33269292631E+03  0.17785749532E+03 0.  0.
         24    2    5    5    0    0  0.10183790217E+02 -0.20258919258E+02 -0.64464458535E+02  0.10457337064E+03  0.79156743488E+02 0.  0.
          5    1    5    5  501    0 -0.62508561136E+02  0.73820569258E+02 -0.20654211440E+03  0.22811955567E+03  0.47000000000E+01 0. -1.
        -11    1    6    6    0    0 -0.10773401756E+02 -0.39676539233E+02 -0.63917243576E+02  0.75998078774E+02  0.00000000000E+00 0.  1.
         12    1    6    6    0    0  0.20957191973E+02  0.19417619976E+02 -0.54721495934E+00  0.28575291864E+02  0.00000000000E+00 0. -1.
         -5    1    3    3    0  503  0.85162573337E+02 -0.23954414251E+01 -0.39963716771E+03  0.40864453728E+03  0.47000000000E+01 0.  1.
         11    1    4    4    0    0  0.54501838090E+01 -0.59872626363E+02 -0.24666502104E+03  0.25388593599E+03  0.00000000000E+00 0. -1.
        -12    1    4    4    0    0 -0.38287986227E+02  0.87064177877E+01 -0.10701904447E+03  0.11399494497E+03  0.00000000000E+00 0.  1.
<mgrwt>
<rscale>  2 0.19182513E+03</rscale>
<asrwt>0</asrwt>
<pdfrwt beam="1">  1       21 0.65300416E-02 0.19297674E+03</pdfrwt>
<pdfrwt beam="2">  1       21 0.16411893E+00 0.19297674E+03</pdfrwt>
<totfact> 0.40057072E+04</totfact>
</mgrwt>
</event>
<event>
12    1  0.1071811E-001  0.1759745E+03  0.7546771E-02  0.1172049E+00
         21   -1    0    0  501  502  0.00000000000E+00  0.00000000000E+00  0.11642206352E+03  0.11642206352E+03  0.00000000000E+00 0. -1.
         21   -1    0    0  502  503 -0.00000000000E+00 -0.00000000000E+00 -0.28167488718E+03  0.28167488718E+03  0.00000000000E+00 0. -1.
         -6    2    1    2    0  503 -0.21801521838E+02  0.77128021947E+01 -0.13242275795E+03  0.22023354093E+03  0.17444836501E+03 0.  0.
        -24    2    3    3    0    0 -0.30799459719E+02  0.22482738060E+01 -0.16317082886E+03  0.18739518194E+03  0.86824958219E+02 0.  0.
          6    2    1    2  501    0  0.21801521838E+02 -0.77128021947E+01 -0.32830065710E+02  0.17786340978E+03  0.17327084478E+03 0.  0.
         24    2    5    5    0    0 -0.23789452248E+02 -0.23081344850E+02 -0.74589759121E+02  0.11398312318E+03  0.79560251927E+02 0.  0.
          5    1    5    5  501    0  0.45590974086E+02  0.15368542655E+02  0.41759693411E+02  0.63880286593E+02  0.47000000000E+01 0. -1.
        -13    1    6    6    0    0  0.15340689138E+02  0.21718542694E+02 -0.20348404015E+02  0.33482672921E+02  0.00000000000E+00 0.  1.
         14    1    6    6    0    0 -0.39130141386E+02 -0.44799887544E+02 -0.54241355106E+02  0.80500450263E+02  0.00000000000E+00 0. -1.
         -5    1    3    3    0  503  0.89979378809E+01  0.54645283887E+01  0.30748070908E+02  0.32838358990E+02  0.47000000000E+01 0.  1.
         13    1    4    4    0    0  0.11262715271E+02  0.36308179766E+02 -0.69012260249E+02  0.78789750208E+02  0.00000000000E+00 0. -1.
        -14    1    4    4    0    0 -0.42062174990E+02 -0.34059905960E+02 -0.94158568609E+02  0.10860543173E+03  0.00000000000E+00 0.  1.
<mgrwt>
<rscale>  2 0.17568196E+03</rscale>
<asrwt>0</asrwt>
<pdfrwt beam="1">  1       21 0.17911087E-01 0.17597450E+03</pdfrwt>
<pdfrwt beam="2">  1       21 0.43334598E-01 0.17597450E+03</pdfrwt>
<totfact> 0.14584479E+05</totfact>
</mgrwt>
</event>
<event>
12    1  0.1071811E-001  0.2386601E+03  0.7546771E-02  0.1121317E+00
         21   -1    0    0  501  502  0.00000000000E+00  0.00000000000E+00  0.45379900784E+03  0.45379900784E+03  0.00000000000E+00 0. -1.
         21   -1    0    0  502  503 -0.00000000000E+00 -0.00000000000E+00 -0.14942718791E+03  0.14942718791E+03  0.00000000000E+00 0. -1.
         -6    2    1    2    0  503 -0.15031838106E+03  0.56082101656E+02  0.27708597728E+02  0.24026321208E+03  0.17668567253E+03 0.  0.
        -24    2    3    3    0    0 -0.91523747232E+02  0.99062140088E+01 -0.50023681294E+02  0.13231221037E+03  0.80804844780E+02 0.  0.
          6    2    1    2  501    0  0.15031838106E+03 -0.56082101656E+02  0.27666322220E+03  0.36296298367E+03  0.17163557670E+03 0.  0.
         24    2    5    5    0    0  0.17637164103E+03 -0.36969254719E+02  0.21070274234E+03  0.28936306400E+03  0.82835111039E+02 0.  0.
          5    1    5    5  501    0 -0.26053259972E+02 -0.19112846937E+02  0.65960479856E+02  0.73599919674E+02  0.47000000000E+01 0. -1.
        -11    1    6    6    0    0  0.11233804727E+02  0.17165576291E+02  0.71703655546E+01  0.21731762934E+02  0.00000000000E+00 0.  1.
         12    1    6    6    0    0  0.16513783631E+03 -0.54134831010E+02  0.20353237679E+03  0.26763130106E+03  0.00000000000E+00 0. -1.
         -5    1    3    3    0  503 -0.58794633831E+02  0.46175887647E+02  0.77732279022E+02  0.10795100171E+03  0.47000000000E+01 0.  1.
         11    1    4    4    0    0 -0.60801420373E+01  0.30155812965E+02 -0.28424864768E+02  0.41884533182E+02  0.00000000000E+00 0. -1.
        -12    1    4    4    0    0 -0.85443605195E+02 -0.20249598957E+02 -0.21598816526E+02  0.90427677190E+02  0.00000000000E+00 0.  1.
<mgrwt>
<rscale>  2 0.23772609E+03</rscale>
<asrwt>0</asrwt>
<pdfrwt beam="1">  1       21 0.69815231E-01 0.23866010E+03</pdfrwt>
<pdfrwt beam="2">  1       21 0.22988798E-01 0.23866010E+03</pdfrwt>
<totfact> 0.32341531E+04</totfact>
</mgrwt>
</event>
<event>
12    1  0.1071811E-001  0.1750609E+03  0.7546771E-02  0.1173282E+00
         21   -1    0    0  501  502  0.00000000000E+00  0.00000000000E+00  0.20792641565E+03  0.20792641565E+03  0.00000000000E+00 0.  1.
         21   -1    0    0  502  503 -0.00000000000E+00 -0.00000000000E+00 -0.15993064140E+03  0.15993064140E+03  0.00000000000E+00 0.  1.
         -6    2    1    2    0  503 -0.24426580169E+01 -0.75471721747E+01 -0.31365531769E+02  0.17784852861E+03  0.17488103431E+03 0.  0.
        -24    2    3    3    0    0 -0.29103330740E+02  0.56533316900E+02 -0.46800972991E+00  0.10173120195E+03  0.79410318201E+02 0.  0.
          6    2    1    2  501    0  0.24426580169E+01  0.75471721747E+01  0.79361306023E+02  0.19000852844E+03  0.17245897367E+03 0.  0.
         24    2    5    5    0    0 -0.53505179114E+02 -0.17159765655E+02  0.12098210313E+02  0.98975527275E+02  0.80576215829E+02 0.  0.
          5    1    5    5  501    0  0.55947837131E+02  0.24706937830E+02  0.67263095709E+02  0.91033001164E+02  0.47000000000E+01 0. -1.
        -11    1    6    6    0    0 -0.86591478991E+00  0.27540726493E+02 -0.45789408821E+01  0.27932205852E+02  0.00000000000E+00 0.  1.
         12    1    6    6    0    0 -0.52639264324E+02 -0.44700492148E+02  0.16677151195E+02  0.71043321423E+02  0.00000000000E+00 0. -1.
         -5    1    3    3    0  503  0.26660672723E+02 -0.64080489075E+02 -0.30897522039E+02  0.76117326663E+02  0.47000000000E+01 0.  1.
         13    1    4    4    0    0 -0.45091954522E+02  0.44901141233E+01 -0.10138275149E+02  0.46435224888E+02  0.00000000000E+00 0. -1.
        -14    1    4    4    0    0  0.15988623782E+02  0.52043202777E+02  0.96702654187E+01  0.55295977060E+02  0.00000000000E+00 0.  1.
<mgrwt>
<rscale>  2 0.17445281E+03</rscale>
<asrwt>0</asrwt>
<pdfrwt beam="1">  1       21 0.31988679E-01 0.17506085E+03</pdfrwt>
<pdfrwt beam="2">  1       21 0.24604714E-01 0.17506085E+03</pdfrwt>
<totfact> 0.14759986E+05</totfact>
</mgrwt>
</event>
<event>
12    1  0.1071811E-001  0.2184163E+03  0.7546771E-02  0.1135255E+00
         21   -1    0    0  501  502  0.00000000000E+00  0.00000000000E+00  0.12562661844E+03  0.12562661844E+03  0.00000000000E+00 0.  1.
         21   -1    0    0  502  503 -0.00000000000E+00 -0.00000000000E+00 -0.40811824441E+03  0.40811824441E+03  0.00000000000E+00 0. -1.
         -6    2    1    2    0  503  0.12803612714E+03  0.34261536242E+02 -0.21400192207E+03  0.30578176250E+03  0.17360461086E+03 0.  0.
        -24    2    3    3    0    0  0.23130115655E+02  0.65096179143E+02 -0.14470673166E+03  0.17624427812E+03  0.73140225535E+02 0.  0.
          6    2    1    2  501    0 -0.12803612714E+03 -0.34261536242E+02 -0.68489703908E+02  0.22796310034E+03  0.17236366456E+03 0.  0.
         24    2    5    5    0    0 -0.16026551836E+03 -0.40678699435E+02 -0.57254383502E+02  0.19291690131E+03  0.81234681121E+02 0.  0.
          5    1    5    5  501    0  0.32229391226E+02  0.64171631935E+01 -0.11235320405E+02  0.35046199036E+02  0.47000000000E+01 0. -1.
        -11    1    6    6    0    0 -0.10534165861E+03 -0.61056178073E+02 -0.19724416294E+02  0.12334413046E+03  0.00000000000E+00 0.  1.
         12    1    6    6    0    0 -0.54923859750E+02  0.20377478637E+02 -0.37529967208E+02  0.69572770852E+02  0.00000000000E+00 0. -1.
         -5    1    3    3    0  503  0.10490601148E+03 -0.30834642901E+02 -0.69295190405E+02  0.12953748439E+03  0.47000000000E+01 0.  1.
         11    1    4    4    0    0  0.72109646159E+01 -0.15827560006E+02 -0.34033196914E+02  0.38219996842E+02  0.00000000000E+00 0. -1.
        -12    1    4    4    0    0  0.15919151039E+02  0.80923739149E+02 -0.11067353475E+03  0.13802428127E+03  0.00000000000E+00 0.  1.
<mgrwt>
<rscale>  2 0.21816958E+03</rscale>
<asrwt>0</asrwt>
<pdfrwt beam="1">  1       21 0.19327172E-01 0.21841626E+03</pdfrwt>
<pdfrwt beam="2">  1       21 0.62787422E-01 0.21841626E+03</pdfrwt>
<totfact> 0.57123002E+04</totfact>
</mgrwt>
</event>
<event>
12    1  0.1071811E-001  0.2400827E+03  0.7546771E-02  0.1119891E+00
         21   -1    0    0  501  502  0.00000000000E+00  0.00000000000E+00  0.11106008693E+04  0.11106008693E+04  0.00000000000E+00 0. -1.
         21   -1    0    0  502  503 -0.00000000000E+00 -0.00000000000E+00 -0.52097420431E+02  0.52097420431E+02  0.00000000000E+00 0. -1.
         -6    2    1    2    0  503 -0.17902998373E+02 -0.16462719953E+03  0.47752272276E+03  0.53406620362E+03  0.17255760462E+03 0.  0.
        -24    2    3    3    0    0 -0.71365517893E+02 -0.67174766488E+02  0.28793897404E+03  0.31424967676E+03  0.78984303342E+02 0.  0.
          6    2    1    2  501    0  0.17902998373E+02  0.16462719953E+03  0.58098072613E+03  0.62863208614E+03  0.17383055949E+03 0.  0.
         24    2    5    5    0    0 -0.42895647079E+02  0.14196364711E+03  0.33328501700E+03  0.37253568589E+03  0.75566004718E+02 0.  0.
          5    1    5    5  501    0  0.60798645452E+02  0.22663552421E+02  0.24769570913E+03  0.25609640025E+03  0.47000000000E+01 0. -1.
        -11    1    6    6    0    0  0.56029736059E+01  0.76700940972E+02  0.10462525036E+03  0.12984941537E+03  0.00000000000E+00 0.  1.
         12    1    6    6    0    0 -0.48498620685E+02  0.65262706139E+02  0.22865976664E+03  0.24268627052E+03  0.00000000000E+00 0. -1.
         -5    1    3    3    0  503  0.53462519520E+02 -0.97452433044E+02  0.18958374872E+03  0.21981652686E+03  0.47000000000E+01 0.  1.
         13    1    4    4    0    0 -0.14532939359E+01 -0.20727875256E+02  0.84532569274E+01  0.22432441431E+02  0.00000000000E+00 0. -1.
        -14    1    4    4    0    0 -0.69912223957E+02 -0.46446891233E+02  0.27948571711E+03  0.29181723533E+03  0.00000000000E+00 0.  1.
<mgrwt>
<rscale>  2 0.23985234E+03</rscale>
<asrwt>0</asrwt>
<pdfrwt beam="1">  1       21 0.17086165E+00 0.24008268E+03</pdfrwt>
<pdfrwt beam="2">  1       21 0.80149886E-02 0.24008268E+03</pdfrwt>
<totfact> 0.24424802E+04</totfact>
</mgrwt>
</event>
<event>
12    1  0.1071811E-001  0.2025411E+03  0.7546771E-02  0.1148216E+00
         21   -1    0    0  503  502  0.00000000000E+00  0.00000000000E+00  0.15459677898E+04  0.15459677898E+04  0.00000000000E+00 0.  1.
         21   -1    0    0  501  503 -0.00000000000E+00 -0.00000000000E+00 -0.57768286182E+02  0.57768286182E+02  0.00000000000E+00 0. -1.
          6    2    1    2  501    0  0.91440225922E+02  0.51057601042E+02  0.15337077071E+03  0.25405800797E+03  0.17336286963E+03 0.  0.
         24    2    3    3    0    0  0.50494677041E+02 -0.32702001535E+02  0.12075594145E+03  0.15517410592E+03  0.76667284029E+02 0.  0.
         -6    2    1    2    0  502 -0.91440225922E+02 -0.51057601042E+02  0.13348287329E+04  0.13496780680E+04  0.16998513915E+03 0.  0.
        -24    2    5    5    0    0 -0.12771456300E+03 -0.62679660541E+02  0.10872522377E+04  0.10991444160E+04  0.75903026631E+02 0.  0.
          5    1    3    3  501    0  0.40945548881E+02  0.83759602577E+02  0.32614829268E+02  0.98883902053E+02  0.47000000000E+01 0. -1.
        -13    1    4    4    0    0 -0.16932196664E+02 -0.21123409076E+02  0.49325114814E+02  0.56266016798E+02  0.00000000000E+00 0.  1.
         14    1    4    4    0    0  0.67426873705E+02 -0.11578592458E+02  0.71430826631E+02  0.98908089124E+02  0.00000000000E+00 0. -1.
         -5    1    5    5    0  502  0.36274337073E+02  0.11622059499E+02  0.24757649524E+03  0.25053365201E+03  0.47000000000E+01 0.  1.
         13    1    6    6    0    0 -0.29295304004E+02  0.10441227476E+02  0.38628218492E+03  0.38753214119E+03  0.00000000000E+00 0. -1.
        -14    1    6    6    0    0 -0.98419258991E+02 -0.73120888017E+02  0.70097005276E+03  0.71161227482E+03  0.00000000000E+00 0.  1.
<mgrwt>
<rscale>  2 0.20181630E+03</rscale>
<asrwt>0</asrwt>
<pdfrwt beam="1">  1       21 0.23784117E+00 0.20254105E+03</pdfrwt>
<pdfrwt beam="2">  1       21 0.88874298E-02 0.20254105E+03</pdfrwt>
<totfact> 0.77640624E+03</totfact>
</mgrwt>
</event>
<event>
12    1  0.1071811E-001  0.2782878E+03  0.7546771E-02  0.1097734E+00
         21   -1    0    0  501  502  0.00000000000E+00  0.00000000000E+00  0.15711662441E+04  0.15711662441E+04  0.00000000000E+00 0.  1.
         21   -1    0    0  502  503 -0.00000000000E+00 -0.00000000000E+00 -0.72142679500E+02  0.72142679500E+02  0.00000000000E+00 0.  1.
         -6    2    1    2    0  503 -0.20753898946E+03 -0.14627769523E+02  0.28040767745E+03  0.39506020976E+03  0.18481801854E+03 0.  0.
        -24    2    3    3    0    0 -0.14454328540E+03  0.58567389362E+02  0.21885300781E+03  0.28044320680E+03  0.80180126957E+02 0.  0.
          6    2    1    2  501    0  0.20753898946E+03  0.14627769523E+02  0.12186158871E+04  0.12482487138E+04  0.17266663660E+03 0.  0.
         24    2    5    5    0    0  0.16005947542E+03  0.56400680964E+02  0.58972585642E+03  0.61616957233E+03  0.55572328042E+02 0.  0.
          5    1    5    5  501    0  0.47479514040E+02 -0.41772911441E+02  0.62889003071E+03  0.63207914149E+03  0.47000000000E+01 0. -1.
        -13    1    6    6    0    0  0.90836817468E+02  0.57860208903E+02  0.31716038173E+03  0.33494751667E+03  0.00000000000E+00 0.  1.
         14    1    6    6    0    0  0.69222657953E+02 -0.14595279387E+01  0.27256547470E+03  0.28122205566E+03  0.00000000000E+00 0. -1.
         -5    1    3    3    0  503 -0.62995704058E+02 -0.73195158885E+02  0.61554669637E+02  0.11461700296E+03  0.47000000000E+01 0.  1.
         11    1    4    4    0    0 -0.14916909638E+03  0.54594204735E+02  0.22246609300E+03  0.27335527989E+03  0.00000000000E+00 0. -1.
        -12    1    4    4    0    0  0.46258109759E+01  0.39731846264E+01 -0.36130851941E+01  0.70879269099E+01  0.00000000000E+00 0.  1.
<mgrwt>
<rscale>  2 0.27628699E+03</rscale>
<asrwt>0</asrwt>
<pdfrwt beam="1">  1       21 0.24171786E+00 0.27828781E+03</pdfrwt>
<pdfrwt beam="2">  1       21 0.11098875E-01 0.27828781E+03</pdfrwt>
<totfact> 0.46630995E+03</totfact>
</mgrwt>
</event>
<event>
12    1  0.1071811E-001  0.1779548E+03  0.7546771E-02  0.1170218E+00
         21   -1    0    0  501  502  0.00000000000E+00  0.00000000000E+00  0.35617809328E+02  0.35617809328E+02  0.00000000000E+00 0.  1.
         21   -1    0    0  502  503 -0.00000000000E+00 -0.00000000000E+00 -0.88225072884E+03  0.88225072884E+03  0.00000000000E+00 0.  1.
         -6    2    1    2    0  503 -0.37004301296E+02 -0.14846357595E+02 -0.40148104289E+03  0.43846464409E+03  0.17168134339E+03 0.  0.
        -24    2    3    3    0    0 -0.39052109630E+02  0.30160574348E+02 -0.37339485823E+03  0.38516603988E+03  0.80588030206E+02 0.  0.
          6    2    1    2  501    0  0.37004301296E+02  0.14846357595E+02 -0.44515187661E+03  0.47940389407E+03  0.17343058481E+03 0.  0.
         24    2    5    5    0    0  0.50884227490E+01  0.50610854259E+02 -0.13236426015E+03  0.16292971576E+03  0.80239917108E+02 0.  0.
          5    1    5    5  501    0  0.31915878547E+02 -0.35764496664E+02 -0.31278761646E+03  0.31647417831E+03  0.47000000000E+01 0. -1.
        -11    1    6    6    0    0  0.39979853682E+02  0.27222652375E+02 -0.95467041523E+02  0.10702064063E+03  0.00000000000E+00 0.  1.
         12    1    6    6    0    0 -0.34891430933E+02  0.23388201884E+02 -0.36897218629E+02  0.55909075136E+02  0.00000000000E+00 0. -1.
         -5    1    3    3    0  503  0.20478083332E+01 -0.45006931943E+02 -0.28086184662E+02  0.53298604210E+02  0.47000000000E+01 0.  1.
         13    1    4    4    0    0 -0.10739189829E+01  0.23483512359E+02 -0.23805361349E+02  0.33456298116E+02  0.00000000000E+00 0. -1.
        -14    1    4    4    0    0 -0.37978190647E+02  0.66770619897E+01 -0.34958949688E+03  0.35170974177E+03  0.00000000000E+00 0.  1.
<mgrwt>
<rscale>  2 0.17752715E+03</rscale>
<asrwt>0</asrwt>
<pdfrwt beam="1">  1       21 0.54796630E-02 0.17795477E+03</pdfrwt>
<pdfrwt beam="2">  1       21 0.13573088E+00 0.17795477E+03</pdfrwt>
<totfact> 0.89818449E+04</totfact>
</mgrwt>
</event>
<event>
12    1  0.1071811E-001  0.1952403E+03  0.7546771E-02  0.1154194E+00
         21   -1    0    0  501  502  0.00000000000E+00  0.00000000000E+00  0.49822508453E+03  0.49822508453E+03  0.00000000000E+00 0. -1.
         21   -1    0    0  502  503 -0.00000000000E+00 -0.00000000000E+00 -0.47237965390E+03  0.47237965390E+03  0.00000000000E+00 0. -1.
         -6    2    1    2    0  503 -0.23744035451E+02 -0.87230488843E+02 -0.43171046648E+03  0.47380662021E+03  0.17304868990E+03 0.  0.
        -24    2    3    3    0    0 -0.25411401288E+02 -0.22450557960E+02 -0.87753668294E+02  0.12376721018E+03  0.80422939187E+02 0.  0.
          6    2    1    2  501    0  0.23744035451E+02  0.87230488843E+02  0.45755589711E+03  0.49679811822E+03  0.17110825192E+03 0.  0.
         24    2    5    5    0    0  0.27619113727E+01  0.11118696142E+03  0.23863328296E+03  0.27552145181E+03  0.81216119861E+02 0.  0.
          5    1    5    5  501    0  0.20982124079E+02 -0.23956472577E+02  0.21892261415E+03  0.22127666640E+03  0.47000000000E+01 0. -1.
        -13    1    6    6    0    0  0.23991003576E+02  0.61911096879E+02  0.61726235267E+02  0.90656937349E+02  0.00000000000E+00 0.  1.
         14    1    6    6    0    0 -0.21229092203E+02  0.49275864541E+02  0.17690704770E+03  0.18486451446E+03  0.00000000000E+00 0. -1.
         -5    1    3    3    0  503  0.16673658370E+01 -0.64779930883E+02 -0.34395679819E+03  0.35003941003E+03  0.47000000000E+01 0.  1.
         13    1    4    4    0    0  0.14366908223E+02 -0.40054751696E+02 -0.33072915738E+02  0.53894424023E+02  0.00000000000E+00 0. -1.
        -14    1    4    4    0    0 -0.39778309512E+02  0.17604193736E+02 -0.54680752556E+02  0.69872786153E+02  0.00000000000E+00 0.  1.
<mgrwt>
<rscale>  2 0.19480946E+03</rscale>
<asrwt>0</asrwt>
<pdfrwt beam="1">  1       21 0.76650012E-01 0.19524033E+03</pdfrwt>
<pdfrwt beam="2">  1       21 0.72673794E-01 0.19524033E+03</pdfrwt>
<totfact> 0.25769451E+03</totfact>
</mgrwt>
</event>
<event>
12    1  0.1071811E-001  0.3556763E+03  0.7546771E-02  0.1060358E+00
         21   -1    0    0  503  502  0.00000000000E+00  0.00000000000E+00  0.26151923131E+04  0.26151923131E+04  0.00000000000E+00 0. -1.
         21   -1    0    0  501  503 -0.00000000000E+00 -0.00000000000E+00 -0.52846292318E+02  0.52846292318E+02  0.00000000000E+00 0.  1.
          6    2    1    2  501    0  0.13599739661E+03 -0.27936491131E+03  0.88938053134E+03  0.95768216923E+03  0.17209695572E+03 0.  0.
         24    2    3    3    0    0  0.12498119065E+03 -0.24115687161E+03  0.57921779849E+03  0.64494550374E+03  0.81758852500E+02 0.  0.
         -6    2    1    2    0  502 -0.13599739661E+03  0.27936491131E+03  0.16729654894E+04  0.17103564362E+04  0.17310564522E+03 0.  0.
        -24    2    5    5    0    0 -0.30716431824E+02  0.20951906921E+03  0.98262955074E+03  0.10085385670E+04  0.82142970868E+02 0.  0.
          5    1    3    3  501    0  0.11016205965E+02 -0.38208039700E+02  0.31016273285E+03  0.31273666549E+03  0.47000000000E+01 0. -1.
        -13    1    4    4    0    0  0.88656229221E+02 -0.16937076202E+03  0.31229911903E+03  0.36616542949E+03  0.00000000000E+00 0.  1.
         14    1    4    4    0    0  0.36324961424E+02 -0.71786109594E+02  0.26691867946E+03  0.27878007424E+03  0.00000000000E+00 0. -1.
         -5    1    5    5    0  502 -0.10528096479E+03  0.69845842098E+02  0.69033593870E+03  0.70181786915E+03  0.47000000000E+01 0.  1.
         11    1    6    6    0    0  0.26818691950E+02  0.58018644703E+02  0.32596649078E+03  0.33217398827E+03  0.00000000000E+00 0. -1.
        -12    1    6    6    0    0 -0.57535123774E+02  0.15150042451E+03  0.65666305997E+03  0.67636457877E+03  0.00000000000E+00 0.  1.
<mgrwt>
<rscale>  2 0.35555375E+03</rscale>
<asrwt>0</asrwt>
<pdfrwt beam="1">  1       21 0.40233718E+00 0.35567627E+03</pdfrwt>
<pdfrwt beam="2">  1       21 0.81302008E-02 0.35567627E+03</pdfrwt>
<totfact> 0.82055049E+02</totfact>
</mgrwt>
</event>
<event>
12    1  0.1071811E-001  0.2399683E+03  0.7546771E-02  0.1120620E+00
         21   -1    0    0  501  502  0.00000000000E+00  0.00000000000E+00  0.23042350375E+03  0.23042350375E+03  0.00000000000E+00 0. -1.
         21   -1    0    0  502  503 -0.00000000000E+00 -0.00000000000E+00 -0.25932391283E+03  0.25932391283E+03  0.00000000000E+00 0.  1.
         -6    2    1    2    0  503  0.20072155767E+02 -0.16465580281E+03 -0.71964999099E+02  0.24594556524E+03  0.16672082992E+03 0.  0.
        -24    2    3    3    0    0  0.56403863669E+02 -0.17035041931E+03 -0.49072925371E+02  0.20237311183E+03  0.79662181694E+02 0.  0.
          6    2    1    2  501    0 -0.20072155767E+02  0.16465580281E+03  0.43064590024E+02  0.24380185134E+03  0.17340807065E+03 0.  0.
         24    2    5    5    0    0  0.48455464466E+02  0.81660936266E+02 -0.85331255187E+01  0.12435061921E+03  0.79836218092E+02 0.  0.
          5    1    5    5  501    0 -0.68527620233E+02  0.82994866542E+02  0.51597715543E+02  0.11945123213E+03  0.47000000000E+01 0. -1.
        -11    1    6    6    0    0  0.65745828302E+02  0.83604513624E+02 -0.43103755593E+01  0.10644626802E+03  0.00000000000E+00 0.  1.
         12    1    6    6    0    0 -0.17290363836E+02 -0.19435773579E+01 -0.42227499594E+01  0.17904351196E+02  0.00000000000E+00 0. -1.
         -5    1    3    3    0  503 -0.36331707902E+02  0.56946165035E+01 -0.22892073729E+02  0.43572453406E+02  0.47000000000E+01 0.  1.
         13    1    4    4    0    0  0.35662745854E+02 -0.14256790978E+02 -0.15201008670E+02  0.41305667837E+02  0.00000000000E+00 0. -1.
        -14    1    4    4    0    0  0.20741117814E+02 -0.15609362833E+03 -0.33871916701E+02  0.16106744400E+03  0.00000000000E+00 0.  1.
<mgrwt>
<rscale>  2 0.23876250E+03</rscale>
<asrwt>0</asrwt>
<pdfrwt beam="1">  1       21 0.35449770E-01 0.23996830E+03</pdfrwt>
<pdfrwt beam="2">  1       21 0.39895986E-01 0.23996830E+03</pdfrwt>
<totfact> 0.45449354E+04</totfact>
</mgrwt>
</event>
<event>
12    1  0.1071811E-001  0.1956597E+03  0.7546771E-02  0.1153881E+00
         21   -1    0    0  503  502  0.00000000000E+00  0.00000000000E+00  0.34987884328E+03  0.34987884328E+03  0.00000000000E+00 0. -1.
         21   -1    0    0  501  503 -0.00000000000E+00 -0.00000000000E+00 -0.19997134820E+03  0.19997134820E+03  0.00000000000E+00 0.  1.
          6    2    1    2  501    0  0.84604419480E+02 -0.27382030936E+02 -0.11095849892E+03  0.22493226260E+03  0.17428439650E+03 0.  0.
         24    2    3    3    0    0  0.71033669203E+02  0.81276815156E+01 -0.14002106562E+03  0.17685079294E+03  0.80984336637E+02 0.  0.
         -6    2    1    2    0  502 -0.84604419480E+02  0.27382030936E+02  0.26086599400E+03  0.32491792887E+03  0.17208402094E+03 0.  0.
        -24    2    5    5    0    0 -0.10339065571E+03  0.62005839916E+02  0.15781486950E+03  0.21449440293E+03  0.81042976151E+02 0.  0.
          5    1    3    3  501    0  0.13570750278E+02 -0.35509712452E+02  0.29062566699E+02  0.48081469660E+02  0.47000000000E+01 0. -1.
        -11    1    4    4    0    0  0.85213471843E+02 -0.51341409954E+01 -0.94429155410E+02  0.12729713500E+03  0.00000000000E+00 0.  1.
         12    1    4    4    0    0 -0.14179802641E+02  0.13261822511E+02 -0.45591910208E+02  0.49553657944E+02  0.00000000000E+00 0. -1.
         -5    1    5    5    0  502  0.18786236229E+02 -0.34623808980E+02  0.10305112450E+03  0.11042352594E+03  0.47000000000E+01 0.  1.
         13    1    6    6    0    0 -0.26793668503E+02 -0.13391781597E+02  0.68446362696E+02  0.74713754105E+02  0.00000000000E+00 0. -1.
        -14    1    6    6    0    0 -0.76596987206E+02  0.75397621513E+02  0.89368506801E+02  0.13978064883E+03  0.00000000000E+00 0.  1.
<mgrwt>
<rscale>  2 0.19516854E+03</rscale>
<asrwt>0</asrwt>
<pdfrwt beam="1">  1       21 0.53827514E-01 0.19565974E+03</pdfrwt>
<pdfrwt beam="2">  1       21 0.30764823E-01 0.19565974E+03</pdfrwt>
<totfact> 0.33065726E+04</totfact>
</mgrwt>
</event>
<event>
12    1  0.1071811E-001  0.3276815E+03  0.7546771E-02  0.1072226E+00
         21   -1    0    0  503  502  0.00000000000E+00  0.00000000000E+00  0.67605411182E+03  0.67605411182E+03  0.00000000000E+00 0.  1.
         21   -1    0    0  501  503 -0.00000000000E+00 -0.00000000000E+00 -0.19290625965E+03  0.19290625965E+03  0.00000000000E+00 0. -1.
          6    2    1    2  501    0 -0.27564012403E+03 -0.34973816849E+02  0.58116903560E+02  0.33227939118E+03  0.17271761198E+03 0.  0.
         24    2    3    3    0    0 -0.95850035231E+02 -0.75095480556E+02  0.29938534757E+02  0.14586497544E+03  0.74523249683E+02 0.  0.
         -6    2    1    2    0  502  0.27564012403E+03  0.34973816849E+02  0.42503094861E+03  0.53668098029E+03  0.17370815031E+03 0.  0.
        -24    2    5    5    0    0  0.48661703240E+02  0.11262944554E+01  0.88497593295E+02  0.12932162110E+03  0.80765263350E+02 0.  0.
          5    1    3    3  501    0 -0.17979008879E+03  0.40121663707E+02  0.28178368802E+02  0.18641441574E+03  0.47000000000E+01 0. -1.
        -13    1    4    4    0    0 -0.36328195254E+02  0.10270026308E+02  0.15459532461E+02  0.40794709886E+02  0.00000000000E+00 0.  1.
         14    1    4    4    0    0 -0.59521839978E+02 -0.85365506864E+02  0.14479002296E+02  0.10507026556E+03  0.00000000000E+00 0. -1.
         -5    1    5    5    0  502  0.22697842079E+03  0.33847522394E+02  0.33653335532E+03  0.40735935918E+03  0.47000000000E+01 0.  1.
         11    1    6    6    0    0  0.38805421771E+02 -0.29796227108E+02  0.18754428154E+02  0.52396607563E+02  0.00000000000E+00 0. -1.
        -12    1    6    6    0    0  0.98562814690E+01  0.30922521563E+02  0.69743165141E+02  0.76925013540E+02  0.00000000000E+00 0.  1.
<mgrwt>
<rscale>  2 0.32755042E+03</rscale>
<asrwt>0</asrwt>
<pdfrwt beam="1">  1       21 0.10400832E+00 0.32768150E+03</pdfrwt>
<pdfrwt beam="2">  1       21 0.29677886E-01 0.32768150E+03</pdfrwt>
<totfact> 0.75256031E+03</totfact>
</mgrwt>
</event>
<event>
12    1  0.1071811E-001  0.1760752E+03  0.7546771E-02  0.1172034E+00
         21   -1    0    0  503  502  0.00000000000E+00  0.00000000000E+00  0.34984797315E+03  0.34984797315E+03  0.00000000000E+00 0. -1.
         21   -1    0    0  501  503 -0.00000000000E+00 -0.00000000000E+00 -0.10764427888E+03  0.10764427888E+03  0.00000000000E+00 0. -1.
          6    2    1    2  501    0  0.21506808359E+01  0.25737030974E+02  0.22610023911E+02  0.17602492790E+03  0.17264571199E+03 0.  0.
         24    2    3    3    0    0 -0.81390109722E+01  0.49612376970E+02  0.72656387001E+02  0.11943307016E+03  0.80359667916E+02 0.  0.
         -6    2    1    2    0  502 -0.21506808359E+01 -0.25737030974E+02  0.21959367036E+03  0.28146732414E+03  0.17417076191E+03 0.  0.
        -24    2    5    5    0    0 -0.52198893012E+02 -0.33785584907E+02  0.72123045000E+02  0.12545681774E+03  0.81679185341E+02 0.  0.
          5    1    3    3  501    0  0.10289691808E+02 -0.23875345997E+02 -0.50046363090E+02  0.56591857741E+02  0.47000000000E+01 0. -1.
        -13    1    4    4    0    0 -0.21006766270E+02  0.67002174038E+02  0.41699597103E+02  0.81666590191E+02  0.00000000000E+00 0.  1.
         14    1    4    4    0    0  0.12867755298E+02 -0.17389797067E+02  0.30956789898E+02  0.37766479969E+02  0.00000000000E+00 0. -1.
         -5    1    5    5    0  502  0.50048212176E+02  0.80485539330E+01  0.14747062536E+03  0.15601050640E+03  0.47000000000E+01 0.  1.
         11    1    6    6    0    0  0.93239789366E+01 -0.11157835646E+02  0.56128785174E+02  0.57981673006E+02  0.00000000000E+00 0. -1.
        -12    1    6    6    0    0 -0.61522871948E+02 -0.22627749261E+02  0.15994259827E+02  0.67475144733E+02  0.00000000000E+00 0.  1.
<mgrwt>
<rscale>  2 0.17569688E+03</rscale>
<asrwt>0</asrwt>
<pdfrwt beam="1">  1       21 0.53822764E-01 0.17607520E+03</pdfrwt>
<pdfrwt beam="2">  1       21 0.16560659E-01 0.17607520E+03</pdfrwt>
<totfact> 0.10754395E+05</totfact>
</mgrwt>
</event>
<event>
12    1  0.1071811E-001  0.2198880E+03  0.7546771E-02  0.1136646E+00
         21   -1    0    0  501  502  0.00000000000E+00  0.00000000000E+00  0.22249333154E+03  0.22249333154E+03  0.00000000000E+00 0.  1.
         21   -1    0    0  502  503 -0.00000000000E+00 -0.00000000000E+00 -0.22761438448E+03  0.22761438448E+03  0.00000000000E+00 0. -1.
         -6    2    1    2    0  503  0.11836342014E+03 -0.54837641310E+02 -0.75220202841E+02  0.21931642678E+03  0.15945077613E+03 0.  0.
        -24    2    3    3    0    0  0.69692365679E+02  0.15397157912E+02 -0.79863450864E+02  0.13361083585E+03  0.79872312897E+02 0.  0.
          6    2    1    2  501    0 -0.11836342014E+03  0.54837641310E+02  0.70099149897E+02  0.23079128923E+03  0.17701316967E+03 0.  0.
         24    2    5    5    0    0 -0.45240309363E+02 -0.14472877511E+02 -0.20606173568E+02  0.95142909020E+02  0.79821106062E+02 0.  0.
          5    1    5    5  501    0 -0.73123110782E+02  0.69310518821E+02  0.90705323465E+02  0.13564838021E+03  0.47000000000E+01 0. -1.
        -13    1    6    6    0    0  0.22363602875E+02  0.36161248617E+01 -0.80590965508E+01  0.24044877413E+02  0.00000000000E+00 0.  1.
         14    1    6    6    0    0 -0.67603912238E+02 -0.18089002372E+02 -0.12547077017E+02  0.71098031607E+02  0.00000000000E+00 0. -1.
         -5    1    3    3    0  503  0.48671054465E+02 -0.70234799222E+02  0.46432480229E+01  0.85705590930E+02  0.47000000000E+01 0.  1.
         13    1    4    4    0    0  0.43139576095E+02  0.15734785613E+02 -0.93197618678E+02  0.10389611461E+03  0.00000000000E+00 0. -1.
        -14    1    4    4    0    0  0.26552789585E+02 -0.33762770131E+00  0.13334167814E+02  0.29714721242E+02  0.00000000000E+00 0.  1.
<mgrwt>
<rscale>  2 0.21633417E+03</rscale>
<asrwt>0</asrwt>
<pdfrwt beam="1">  1       21 0.34229743E-01 0.21988799E+03</pdfrwt>
<pdfrwt beam="2">  1       21 0.35017598E-01 0.21988799E+03</pdfrwt>
<totfact> 0.63877952E+04</totfact>
</mgrwt>
</event>
<event>
12    1  0.1071811E-001  0.2000769E+03  0.7546771E-02  0.1149786E+00
         21   -1    0    0  503  502  0.00000000000E+00  0.00000000000E+00  0.67793147855E+02  0.67793147855E+02  0.00000000000E+00 0.  1.
         21   -1    0    0  501  503 -0.00000000000E+00 -0.00000000000E+00 -0.62292189390E+03  0.62292189390E+03  0.00000000000E+00 0. -1.
          6    2    1    2  501    0  0.96439549541E+02  0.28789494377E+02 -0.35790722516E+03  0.40977537739E+03  0.17230454548E+03 0.  0.
         24    2    3    3    0    0  0.61884685817E+02  0.21404919548E+02 -0.35954976416E+03  0.37409122843E+03  0.79876963892E+02 0.  0.
         -6    2    1    2    0  502 -0.96439549541E+02 -0.28789494377E+02 -0.19722152089E+03  0.28093966437E+03  0.17292005382E+03 0.  0.
        -24    2    5    5    0    0 -0.34733147800E+02 -0.53122826473E+02 -0.17868822094E+03  0.21190804644E+03  0.94589183279E+02 0.  0.
          5    1    3    3  501    0  0.34554863724E+02  0.73845748290E+01  0.16425390044E+01  0.35684148957E+02  0.47000000000E+01 0. -1.
        -13    1    4    4    0    0  0.42747978373E+02 -0.15780804493E+02 -0.85651374144E+02  0.97018458750E+02  0.00000000000E+00 0.  1.
         14    1    4    4    0    0  0.19136707444E+02  0.37185724042E+02 -0.27389839002E+03  0.27707276968E+03  0.00000000000E+00 0. -1.
         -5    1    5    5    0  502 -0.61706401741E+02  0.24333332096E+02 -0.18533299941E+02  0.69031617926E+02  0.47000000000E+01 0.  1.
         13    1    6    6    0    0  0.12387945152E+02  0.52127924037E+01 -0.10806625176E+03  0.10889880238E+03  0.00000000000E+00 0. -1.
        -14    1    6    6    0    0 -0.47121092952E+02 -0.58335618877E+02 -0.70621969179E+02  0.10300924406E+03  0.00000000000E+00 0.  1.
<mgrwt>
<rscale>  2 0.19994384E+03</rscale>
<asrwt>0</asrwt>
<pdfrwt beam="1">  1       21 0.10429715E-01 0.20007690E+03</pdfrwt>
<pdfrwt beam="2">  1       21 0.95834136E-01 0.20007690E+03</pdfrwt>
<totfact> 0.68121356E+04</totfact>
</mgrwt>
</event>
<event>
12    1  0.1071811E-001  0.2060222E+03  0.7546771E-02  0.1144929E+00
         21   -1    0    0  503  502  0.00000000000E+00  0.00000000000E+00  0.82266729806E+03  0.82266729806E+03  0.00000000000E+00 0. -1.
         21   -1    0    0  501  503 -0.00000000000E+00 -0.00000000000E+00 -0.39020633310E+03  0.39020633310E+03  0.00000000000E+00 0. -1.
          6    2    1    2  501    0 -0.26778215786E+02  0.10841997267E+03 -0.34892933170E+03  0.40477960626E+03  0.17211300882E+03 0.  0.
         24    2    3    3    0    0 -0.67200649229E+02  0.21473053517E+02 -0.15847848031E+03  0.19150195466E+03  0.81120593149E+02 0.  0.
         -6    2    1    2    0  502  0.26778215786E+02 -0.10841997267E+03  0.78139029665E+03  0.80809402490E+03  0.17312768139E+03 0.  0.
        -24    2    5    5    0    0  0.33419342905E+02 -0.12746315654E+03  0.76760460479E+03  0.78321667131E+03  0.82751532739E+02 0.  0.
          5    1    3    3  501    0  0.40422433443E+02  0.86946919150E+02 -0.19045085139E+03  0.21327765160E+03  0.47000000000E+01 0. -1.
        -13    1    4    4    0    0 -0.28296872304E+01 -0.57110129616E+00  0.96790757563E+01  0.10100385835E+02  0.00000000000E+00 0.  1.
         14    1    4    4    0    0 -0.64370961998E+02  0.22044154813E+02 -0.16815755606E+03  0.18140156882E+03  0.00000000000E+00 0. -1.
         -5    1    5    5    0  502 -0.66411271190E+01  0.19043183876E+02  0.13785691867E+02  0.24877353593E+02  0.47000000000E+01 0. -1.
         13    1    6    6    0    0  0.21898417419E+02 -0.12467857274E+02  0.46310143888E+02  0.52722078653E+02  0.00000000000E+00 0. -1.
        -14    1    6    6    0    0  0.11520925485E+02 -0.11499529927E+03  0.72129446090E+03  0.73049459266E+03  0.00000000000E+00 0.  1.
<mgrwt>
<rscale>  2 0.20580891E+03</rscale>
<asrwt>0</asrwt>
<pdfrwt beam="1">  1       21 0.12656420E+00 0.20602223E+03</pdfrwt>
<pdfrwt beam="2">  1       21 0.60031744E-01 0.20602223E+03</pdfrwt>
<totfact> 0.11811192E+03</totfact>
</mgrwt>
</event>
<event>
12    1  0.1071811E-001  0.2597225E+03  0.7546771E-02  0.1107323E+00
         21   -1    0    0  503  502  0.00000000000E+00  0.00000000000E+00  0.39512313334E+03  0.39512313334E+03  0.00000000000E+00 0.  1.
         21   -1    0    0  501  503 -0.00000000000E+00 -0.00000000000E+00 -0.22028426028E+03  0.22028426028E+03  0.00000000000E+00 0.  1.
          6    2    1    2  501    0  0.19283769600E+03 -0.10050717849E+02 -0.58628255795E+02  0.26617582864E+03  0.17356527720E+03 0.  0.
         24    2    3    3    0    0  0.83836605796E+02  0.51317646641E+01 -0.95732281038E+02  0.14994096240E+03  0.79137292686E+02 0.  0.
         -6    2    1    2    0  502 -0.19283769600E+03  0.10050717849E+02  0.23346712886E+03  0.34923156498E+03  0.17369050577E+03 0.  0.
        -24    2    5    5    0    0 -0.78006630983E+02 -0.26621282785E+02  0.18760626908E+03  0.22017220816E+03  0.80535469675E+02 0.  0.
          5    1    3    3  501    0  0.10900109020E+03 -0.15182482513E+02  0.37104025243E+02  0.11623486624E+03  0.47000000000E+01 0. -1.
        -11    1    4    4    0    0  0.34366966835E+02 -0.35916927354E+02 -0.53482556336E+02  0.73017106983E+02  0.00000000000E+00 0.  1.
         12    1    4    4    0    0  0.49469638961E+02  0.41048692018E+02 -0.42249724702E+02  0.76923855420E+02  0.00000000000E+00 0. -1.
         -5    1    5    5    0  502 -0.11483106501E+03  0.36672000634E+02  0.45860859782E+02  0.12905935682E+03  0.47000000000E+01 0.  1.
         13    1    6    6    0    0  0.13016923208E+02 -0.45706412915E+01  0.61864354358E+02  0.63383983716E+02  0.00000000000E+00 0. -1.
        -14    1    6    6    0    0 -0.91023554191E+02 -0.22050641494E+02  0.12574191472E+03  0.15678822445E+03  0.00000000000E+00 0.  1.
<mgrwt>
<rscale>  2 0.25970158E+03</rscale>
<asrwt>0</asrwt>
<pdfrwt beam="1">  1       21 0.60788174E-01 0.25972252E+03</pdfrwt>
<pdfrwt beam="2">  1       21 0.33889886E-01 0.25972252E+03</pdfrwt>
<totfact> 0.20391957E+04</totfact>
</mgrwt>
</event>
<event>
12    1  0.1071811E-001  0.2217908E+03  0.7546771E-02  0.1132753E+00
         21   -1    0    0  501  502  0.00000000000E+00  0.00000000000E+00  0.96467504638E+03  0.96467504638E+03  0.00000000000E+00 0.  1.
         21   -1    0    0  502  503 -0.00000000000E+00 -0.00000000000E+00 -0.91555336214E+02  0.91555336214E+02  0.00000000000E+00 0. -1.
         -6    2    1    2    0  503 -0.80692206256E+02  0.11303833833E+03  0.83390682043E+02  0.23594806157E+03  0.17154761387E+03 0.  0.
        -24    2    3    3    0    0 -0.29233860606E+02 -0.61856376926E+01  0.83284374933E+01  0.85885580078E+02  0.80088009556E+02 0.  0.
          6    2    1    2  501    0  0.80692206256E+02 -0.11303833833E+03  0.78972902812E+03  0.82028232102E+03  0.17292267129E+03 0.  0.
         24    2    5    5    0    0 -0.23796733343E+02 -0.32077317950E+02  0.30729839230E+03  0.32004834207E+03  0.80021250353E+02 0.  0.
          5    1    5    5  501    0  0.10448893960E+03 -0.80961020375E+02  0.48243063582E+03  0.50023397895E+03  0.47000000000E+01 0. -1.
        -13    1    6    6    0    0 -0.32489890296E+02 -0.55358871080E+02  0.23441988178E+03  0.24304912786E+03  0.00000000000E+00 0.  1.
         14    1    6    6    0    0  0.86931569528E+01  0.23281553130E+02  0.72878510513E+02  0.76999214207E+02  0.00000000000E+00 0. -1.
         -5    1    3    3    0  503 -0.51458345650E+02  0.11922397602E+03  0.75062244549E+02  0.15006248149E+03  0.47000000000E+01 0.  1.
         13    1    4    4    0    0 -0.54544517236E+02 -0.12636362522E+02  0.16751346686E+02  0.58441334978E+02  0.00000000000E+00 0. -1.
        -14    1    4    4    0    0  0.25310656629E+02  0.64507248292E+01 -0.84229091925E+01  0.27444245100E+02  0.00000000000E+00 0.  1.
<mgrwt>
<rscale>  2 0.22152269E+03</rscale>
<asrwt>0</asrwt>
<pdfrwt beam="1">  1       21 0.14841154E+00 0.22179078E+03</pdfrwt>
<pdfrwt beam="2">  1       21 0.14085437E-01 0.22179078E+03</pdfrwt>
<totfact> 0.13246883E+04</totfact>
</mgrwt>
</event>
<event>
11    1  0.1071811E-001  0.1749762E+03  0.7546771E-02  0.1175885E+00
         21   -1    0    0  501  502  0.00000000000E+00  0.00000000000E+00  0.42375557105E+03  0.42375557105E+03  0.00000000000E+00 0. -1.
         21   -1    0    0  502  503 -0.00000000000E+00 -0.00000000000E+00 -0.73734348304E+02  0.73734348304E+02  0.00000000000E+00 0. -1.
         -6    2    1    2    0  503  0.24930066478E+02 -0.15133196269E+02  0.96359378898E+02  0.18933246663E+03  0.16034690884E+03 0.  0.
        -24    2    3    3    0    0  0.28947183342E+02 -0.42053345574E+02  0.46911179215E+01  0.93593280626E+02  0.78302441172E+02 0.  0.
          6    2    1    2  501    0 -0.24930066478E+02  0.15133196269E+02  0.25366184385E+03  0.30815745273E+03  0.17252873036E+03 0.  0.
          5    1    5    5  501    0 -0.13868657710E+01 -0.64332770652E+02  0.18140684484E+03  0.19253872891E+03  0.47000000000E+01 0. -1.
        -11    1    5    5    0    0 -0.19917260527E+02  0.32101983909E+02  0.13625687673E+02  0.40160851614E+02  0.00000000000E+00 0.  1.
         12    1    5    5    0    0 -0.36259401795E+01  0.47363983011E+02  0.58629311344E+02  0.75457872204E+02  0.00000000000E+00 0. -1.
         -5    1    3    3    0  503 -0.40171168646E+01  0.26920149306E+02  0.91668260977E+02  0.95739186006E+02  0.47000000000E+01 0.  1.
         13    1    4    4    0    0  0.38742355997E+02  0.77843115891E+01  0.14063675718E+02  0.41944637677E+02  0.00000000000E+00 0. -1.
        -14    1    4    4    0    0 -0.97951726550E+01 -0.49837657163E+02 -0.93725577964E+01  0.51648642949E+02  0.00000000000E+00 0.  1.
<mgrwt>
<rscale>  2 0.17189617E+03</rscale>
<asrwt>0</asrwt>
<pdfrwt beam="1">  1       21 0.65193163E-01 0.17497624E+03</pdfrwt>
<pdfrwt beam="2">  1       21 0.11343746E-01 0.17497624E+03</pdfrwt>
<totfact> 0.14135243E+05</totfact>
</mgrwt>
</event>
<event>
12    1  0.1071811E-001  0.2106205E+03  0.7546771E-02  0.1141445E+00
         21   -1    0    0  501  502  0.00000000000E+00  0.00000000000E+00  0.18450168467E+03  0.18450168467E+03  0.00000000000E+00 0.  1.
         21   -1    0    0  502  503 -0.00000000000E+00 -0.00000000000E+00 -0.27402320977E+03  0.27402320977E+03  0.00000000000E+00 0. -1.
         -6    2    1    2    0  503  0.10176939587E+03  0.61593979408E+02 -0.12769312004E+03  0.24630573917E+03  0.17381069015E+03 0.  0.
        -24    2    3    3    0    0  0.12236374570E+03  0.80172691553E+02 -0.67647362629E+02  0.17999677468E+03  0.80138171254E+02 0.  0.
          6    2    1    2  501    0 -0.10176939587E+03 -0.61593979408E+02  0.38171594933E+02  0.21221915526E+03  0.17154903371E+03 0.  0.
         24    2    5    5    0    0 -0.11863751621E+03 -0.21793887396E+02 -0.12563635275E+02  0.14540048727E+03  0.80209868394E+02 0.  0.
          5    1    5    5  501    0  0.16868120340E+02 -0.39800092012E+02  0.50735230208E+02  0.66818667992E+02  0.47000000000E+01 0. -1.
        -13    1    6    6    0    0 -0.50103212174E+02 -0.29596475462E+02  0.28845026419E+02  0.64948585658E+02  0.00000000000E+00 0.  1.
         14    1    6    6    0    0 -0.68534304031E+02  0.78025880660E+01 -0.41408661694E+02  0.80451901611E+02  0.00000000000E+00 0. -1.
         -5    1    3    3    0  503 -0.20594349830E+02 -0.18578712145E+02 -0.60045757409E+02  0.66308964497E+02  0.47000000000E+01 0.  1.
         11    1    4    4    0    0  0.78556417348E+02  0.30440457932E+02 -0.75665260177E+02  0.11323852606E+03  0.00000000000E+00 0. -1.
        -12    1    4    4    0    0  0.43807328347E+02  0.49732233621E+02  0.80178975481E+01  0.66758248621E+02  0.00000000000E+00 0.  1.
<mgrwt>
<rscale>  2 0.21015330E+03</rscale>
<asrwt>0</asrwt>
<pdfrwt beam="1">  1       21 0.28384875E-01 0.21062047E+03</pdfrwt>
<pdfrwt beam="2">  1       21 0.42157416E-01 0.21062047E+03</pdfrwt>
<totfact> 0.63730805E+04</totfact>
</mgrwt>
</event>
<event>
12    1  0.1071811E-001  0.1815666E+03  0.7546771E-02  0.1169287E+00
         21   -1    0    0  503  502  0.00000000000E+00  0.00000000000E+00  0.25416154966E+03  0.25416154966E+03  0.00000000000E+00 0. -1.
         21   -1    0    0  501  503 -0.00000000000E+00 -0.00000000000E+00 -0.34014060656E+03  0.34014060656E+03  0.00000000000E+00 0.  1.
          6    2    1    2  501    0 -0.38907641841E+02  0.13680920746E+02 -0.28184763028E+03  0.33526780614E+03  0.17682036917E+03 0.  0.
         24    2    3    3    0    0 -0.84616257208E+02  0.45742198151E+02 -0.19568390707E+03  0.23248901346E+03  0.80664057774E+02 0.  0.
         -6    2    1    2    0  502  0.38907641841E+02 -0.13680920746E+02  0.19586857338E+03  0.25903435009E+03  0.16441813860E+03 0.  0.
        -24    2    5    5    0    0  0.54531369134E+02 -0.47169209429E+02  0.19337247704E+03  0.22169955626E+03  0.80988726554E+02 0.  0.
          5    1    3    3  501    0  0.45708615367E+02 -0.32061277405E+02 -0.86163723207E+02  0.10277879268E+03  0.47000000000E+01 0. -1.
        -13    1    4    4    0    0 -0.15062774982E+02 -0.15591819794E+02 -0.86803708579E+02  0.89469971822E+02  0.00000000000E+00 0.  1.
         14    1    4    4    0    0 -0.69553482226E+02  0.61334017945E+02 -0.10888019849E+03  0.14301904164E+03  0.00000000000E+00 0. -1.
         -5    1    5    5    0  502 -0.15623727293E+02  0.33488288683E+02  0.24960963382E+01  0.37334793830E+02  0.47000000000E+01 0.  1.
         11    1    6    6    0    0  0.58516111191E+02 -0.68754237836E+01  0.15538025245E+03  0.16617589949E+03  0.00000000000E+00 0. -1.
        -12    1    6    6    0    0 -0.39847420577E+01 -0.40293785645E+02  0.37992224598E+02  0.55523656767E+02  0.00000000000E+00 0.  1.
<mgrwt>
<rscale>  2 0.17847483E+03</rscale>
<asrwt>0</asrwt>
<pdfrwt beam="1">  1       21 0.39101777E-01 0.18156656E+03</pdfrwt>
<pdfrwt beam="2">  1       21 0.52329324E-01 0.18156656E+03</pdfrwt>
<totfact> 0.21985900E+04</totfact>
</mgrwt>
</event>
<event>
12    1  0.1071811E-001  0.2192026E+03  0.7546771E-02  0.1134724E+00
         21   -1    0    0  501  502  0.00000000000E+00  0.00000000000E+00  0.13637295064E+03  0.13637295064E+03  0.00000000000E+00 0. -1.
         21   -1    0    0  502  503 -0.00000000000E+00 -0.00000000000E+00 -0.41396794451E+03  0.41396794451E+03  0.00000000000E+00 0.  1.
         -6    2    1    2    0  503  0.68852859987E+02  0.11424977366E+03 -0.30486987290E+02  0.22001961453E+03  0.17229465248E+03 0.  0.
        -24    2    3    3    0    0  0.17797246297E+02  0.13684332671E+03 -0.28399316832E+02  0.16395186358E+03  0.83850189838E+02 0.  0.
          6    2    1    2  501    0 -0.68852859987E+02 -0.11424977366E+03 -0.24710800658E+03  0.33032128062E+03  0.17394267563E+03 0.  0.
         24    2    5    5    0    0 -0.50478138270E+02 -0.12704500143E+03 -0.25945582487E+03  0.30432307168E+03  0.81281806494E+02 0.  0.
          5    1    5    5  501    0 -0.18374721717E+02  0.12795227767E+02  0.12347818287E+02  0.25998208942E+02  0.47000000000E+01 0. -1.
        -11    1    6    6    0    0 -0.50018599019E+02 -0.13615339419E+03 -0.21779628385E+03  0.26167695400E+03  0.00000000000E+00 0.  1.
         12    1    6    6    0    0 -0.45953925117E+00  0.91083927614E+01 -0.41659541017E+02  0.42646117676E+02  0.00000000000E+00 0. -1.
         -5    1    3    3    0  503  0.51055613690E+02 -0.22593553045E+02 -0.20876704579E+01  0.56067750948E+02  0.47000000000E+01 0.  1.
         11    1    4    4    0    0  0.43543917178E+02  0.36103770907E+02 -0.16504156859E+01  0.56588681455E+02  0.00000000000E+00 0. -1.
        -12    1    4    4    0    0 -0.25746670881E+02  0.10073955580E+03 -0.26748901146E+02  0.10736318213E+03  0.00000000000E+00 0.  1.
<mgrwt>
<rscale>  2 0.21887551E+03</rscale>
<asrwt>0</asrwt>
<pdfrwt beam="1">  1       21 0.20980454E-01 0.21920260E+03</pdfrwt>
<pdfrwt beam="2">  1       21 0.63687377E-01 0.21920260E+03</pdfrwt>
<totfact> 0.47467376E+04</totfact>
</mgrwt>
</event>
<event>
12    1  0.1071811E-001  0.1964714E+03  0.7546771E-02  0.1153621E+00
         21   -1    0    0  501  502  0.00000000000E+00  0.00000000000E+00  0.77258136319E+02  0.77258136319E+02  0.00000000000E+00 0. -1.
         21   -1    0    0  502  503 -0.00000000000E+00 -0.00000000000E+00 -0.84105481039E+03  0.84105481039E+03  0.00000000000E+00 0. -1.
         -6    2    1    2    0  503  0.87388392859E+02  0.13434202502E+02 -0.68099994900E+03  0.70877494498E+03  0.17545307946E+03 0.  0.
        -24    2    3    3    0    0  0.59397669044E+02  0.25083872387E+02 -0.66748936731E+03  0.67525150176E+03  0.79153341098E+02 0.  0.
          6    2    1    2  501    0 -0.87388392859E+02 -0.13434202502E+02 -0.82796725071E+02  0.20953800173E+03  0.17097855855E+03 0.  0.
         24    2    5    5    0    0 -0.12762739216E+03 -0.20672197568E+02 -0.54961153419E+02  0.15985425502E+03  0.76266398124E+02 0.  0.
          5    1    5    5  501    0  0.40238999300E+02  0.72379950668E+01 -0.27835571652E+02  0.49683746703E+02  0.47000000000E+01 0. -1.
        -11    1    6    6    0    0 -0.46517629261E+02 -0.21478358960E+02 -0.59614349942E+02  0.78607127251E+02  0.00000000000E+00 0.  1.
         12    1    6    6    0    0 -0.81109762899E+02  0.80616139140E+00  0.46531965229E+01  0.81247127774E+02  0.00000000000E+00 0. -1.
         -5    1    3    3    0  503  0.27990723815E+02 -0.11649669886E+02 -0.13510581689E+02  0.33523443225E+02  0.47000000000E+01 0.  1.
         11    1    4    4    0    0  0.35923851223E+02  0.96154226236E+01 -0.94224519589E+02  0.10129777653E+03  0.00000000000E+00 0. -1.
        -12    1    4    4    0    0  0.23473817821E+02  0.15468449764E+02 -0.57326484773E+03  0.57395372522E+03  0.00000000000E+00 0.  1.
<mgrwt>
<rscale>  2 0.19546735E+03</rscale>
<asrwt>0</asrwt>
<pdfrwt beam="1">  1       21 0.11885867E-01 0.19647135E+03</pdfrwt>
<pdfrwt beam="2">  1       21 0.12939305E+00 0.19647135E+03</pdfrwt>
<totfact> 0.26047774E+04</totfact>
</mgrwt>
</event>
<event>
11    1  0.1071811E-001  0.1959384E+03  0.7546771E-02  0.1153676E+00
         21   -1    0    0  501  502  0.00000000000E+00  0.00000000000E+00  0.72187858483E+03  0.72187858483E+03  0.00000000000E+00 0. -1.
         21   -1    0    0  502  503 -0.00000000000E+00 -0.00000000000E+00 -0.19907147974E+03  0.19907147974E+03  0.00000000000E+00 0. -1.
         -6    2    1    2    0  503 -0.93979326175E+01 -0.90636698805E+02 -0.13319082921E+03  0.23692121797E+03  0.17346046878E+03 0.  0.
          6    2    1    2  501    0  0.93979326175E+01  0.90636698805E+02  0.65599793430E+03  0.68402884660E+03  0.17105215831E+03 0.  0.
         24    2    4    4    0    0 -0.53368879634E+02  0.69240886839E+02  0.32185732441E+03  0.34333911874E+03  0.81529598656E+02 0.  0.
          5    1    4    4  501    0  0.62766812252E+02  0.21395811966E+02  0.33414060989E+03  0.34068972786E+03  0.47000000000E+01 0. -1.
        -13    1    5    5    0    0 -0.85000664813E+01  0.63033363734E+02  0.11341899685E+03  0.13003586013E+03  0.00000000000E+00 0.  1.
         14    1    5    5    0    0 -0.44868813153E+02  0.62075231049E+01  0.20843832756E+03  0.21330325861E+03  0.00000000000E+00 0. -1.
         -5    1    3    3    0  503 -0.23149592858E+02 -0.41735030308E+02  0.32682781505E+02  0.58034219312E+02  0.47000000000E+01 0.  1.
         13    1    3    3    0    0  0.20777791135E+02 -0.53677524557E+02 -0.13274976729E+03  0.14469102931E+03  0.00000000000E+00 0. -1.
        -14    1    3    3    0    0 -0.70261308938E+01  0.47758560596E+01 -0.33123843427E+02  0.34195969350E+02  0.00000000000E+00 0.  1.
<mgrwt>
<rscale>  2 0.19540404E+03</rscale>
<asrwt>0</asrwt>
<pdfrwt beam="1">  1       21 0.11105824E+00 0.19593843E+03</pdfrwt>
<pdfrwt beam="2">  1       21 0.30626382E-01 0.19593843E+03</pdfrwt>
<totfact> 0.65149964E+03</totfact>
</mgrwt>
</event>
<event>
12    1  0.1071811E-001  0.2080432E+03  0.7546771E-02  0.1143583E+00
         21   -1    0    0  503  502  0.00000000000E+00  0.00000000000E+00  0.74431110906E+03  0.74431110906E+03  0.00000000000E+00 0.  1.
         21   -1    0    0  501  503 -0.00000000000E+00 -0.00000000000E+00 -0.19545011058E+03  0.19545011058E+03  0.00000000000E+00 0. -1.
          6    2    1    2  501    0 -0.97040661801E+02  0.64494193122E+02 -0.12074533212E+03  0.23858034385E+03  0.16960175192E+03 0.  0.
         24    2    3    3    0    0 -0.20433858902E+02 -0.12302351667E+02 -0.82930903954E+02  0.12360933655E+03  0.88503349123E+02 0.  0.
         -6    2    1    2    0  502  0.97040661801E+02 -0.64494193122E+02  0.66960633059E+03  0.70118087579E+03  0.17235310154E+03 0.  0.
        -24    2    5    5    0    0  0.94862113945E+02 -0.30004269136E+02  0.64949964544E+03  0.66092333345E+03  0.71209454735E+02 0.  0.
          5    1    3    3  501    0 -0.76606802898E+02  0.76796544789E+02 -0.37814428166E+02  0.11497100730E+03  0.47000000000E+01 0. -1.
        -11    1    4    4    0    0  0.21248515703E+01  0.21935531607E+02  0.83307827614E+01  0.23560230951E+02  0.00000000000E+00 0.  1.
         12    1    4    4    0    0 -0.22558710473E+02 -0.34237883274E+02 -0.91261686716E+02  0.10004910560E+03  0.00000000000E+00 0. -1.
         -5    1    5    5    0  502  0.21785478553E+01 -0.34489923985E+02  0.20106685153E+02  0.40257542338E+02  0.47000000000E+01 0.  1.
         13    1    6    6    0    0  0.12902929533E+01  0.14800420738E+02  0.40262951951E+02  0.42916460825E+02  0.00000000000E+00 0. -1.
        -14    1    6    6    0    0  0.93571820992E+02 -0.44804689875E+02  0.60923669349E+03  0.61800687263E+03  0.00000000000E+00 0.  1.
<mgrwt>
<rscale>  2 0.20747248E+03</rscale>
<asrwt>0</asrwt>
<pdfrwt beam="1">  1       21 0.11450940E+00 0.20804322E+03</pdfrwt>
<pdfrwt beam="2">  1       21 0.30069248E-01 0.20804322E+03</pdfrwt>
<totfact> 0.62106757E+03</totfact>
</mgrwt>
</event>
<event>
12    1  0.1071811E-001  0.1823002E+03  0.7546771E-02  0.1165838E+00
         21   -1    0    0  501  502  0.00000000000E+00  0.00000000000E+00  0.16369686443E+03  0.16369686443E+03  0.00000000000E+00 0. -1.
         21   -1    0    0  502  503 -0.00000000000E+00 -0.00000000000E+00 -0.62386819894E+03  0.62386819894E+03  0.00000000000E+00 0. -1.
         -6    2    1    2    0  503 -0.40932219639E+02 -0.36129702305E+02 -0.55415284745E+03  0.58336843476E+03  0.17393260288E+03 0.  0.
        -24    2    3    3    0    0  0.12500590657E+02 -0.22618838994E+01 -0.12036001626E+03  0.14496176883E+03  0.79787217162E+02 0.  0.
          6    2    1    2  501    0  0.40932219639E+02  0.36129702305E+02  0.93981512942E+02  0.20419662862E+03  0.17286681686E+03 0.  0.
         24    2    5    5    0    0  0.58705359987E+02 -0.37090495891E+02  0.58715354844E+02  0.12087271939E+03  0.79628495040E+02 0.  0.
          5    1    5    5  501    0 -0.17773140349E+02  0.73220198196E+02  0.35266158098E+02  0.83323909226E+02  0.47000000000E+01 0. -1.
        -11    1    6    6    0    0  0.47743994413E+02  0.38632936962E+01 -0.67283910639E+00  0.47904767541E+02  0.00000000000E+00 0.  1.
         12    1    6    6    0    0  0.10961365574E+02 -0.40953789587E+02  0.59388193950E+02  0.72967951852E+02  0.00000000000E+00 0. -1.
         -5    1    3    3    0  503 -0.53432810295E+02 -0.33867818405E+02 -0.43379283119E+03  0.43840666593E+03  0.47000000000E+01 0.  1.
         13    1    4    4    0    0  0.64198586851E+01 -0.27401491282E+02 -0.11519947780E+03  0.11858741921E+03  0.00000000000E+00 0. -1.
        -14    1    4    4    0    0  0.60807319715E+01  0.25139607382E+02 -0.51605384625E+01  0.26374349620E+02  0.00000000000E+00 0.  1.
<mgrwt>
<rscale>  2 0.18204549E+03</rscale>
<asrwt>0</asrwt>
<pdfrwt beam="1">  1       21 0.25184133E-01 0.18230017E+03</pdfrwt>
<pdfrwt beam="2">  1       21 0.95979721E-01 0.18230017E+03</pdfrwt>
<totfact> 0.13600396E+04</totfact>
</mgrwt>
</event>
<event>
12    1  0.1071811E-001  0.2796891E+03  0.7546771E-02  0.1095918E+00
         21   -1    0    0  501  502  0.00000000000E+00  0.00000000000E+00  0.82549653361E+02  0.82549653361E+02  0.00000000000E+00 0.  1.
         21   -1    0    0  502  503 -0.00000000000E+00 -0.00000000000E+00 -0.13220082585E+04  0.13220082585E+04  0.00000000000E+00 0.  1.
         -6    2    1    2    0  503 -0.15836471305E+03  0.15152414967E+03 -0.99384209403E+03  0.10323302185E+04  0.17304514399E+03 0.  0.
        -24    2    3    3    0    0 -0.58070150231E+02  0.10356743788E+02 -0.26432378415E+03  0.28252605054E+03  0.80464289459E+02 0.  0.
          6    2    1    2  501    0  0.15836471305E+03 -0.15152414967E+03 -0.24561651110E+03  0.37222769337E+03  0.17374416512E+03 0.  0.
         24    2    5    5    0    0  0.11807160216E+03 -0.57549689729E+02 -0.21609888549E+03  0.26570016581E+03  0.81516745370E+02 0.  0.
          5    1    5    5  501    0  0.40293110892E+02 -0.93974459936E+02 -0.29517625606E+02  0.10652752756E+03  0.47000000000E+01 0. -1.
        -11    1    6    6    0    0  0.44658515158E+02 -0.28279009423E+02 -0.24144633471E+02  0.58112379710E+02  0.00000000000E+00 0.  1.
         12    1    6    6    0    0  0.73413087003E+02 -0.29270680306E+02 -0.19195425202E+03  0.20758778610E+03  0.00000000000E+00 0. -1.
         -5    1    3    3    0  503 -0.10029456282E+03  0.14116740588E+03 -0.72951830988E+03  0.74980416794E+03  0.47000000000E+01 0.  1.
         13    1    4    4    0    0 -0.64855167167E+02 -0.20602246889E+02 -0.17726771192E+03  0.18988019110E+03  0.00000000000E+00 0. -1.
        -14    1    4    4    0    0  0.67850169364E+01  0.30958990677E+02 -0.87056072235E+02  0.92645859441E+02  0.00000000000E+00 0.  1.
<mgrwt>
<rscale>  2 0.27958060E+03</rscale>
<asrwt>0</asrwt>
<pdfrwt beam="1">  1       21 0.12699947E-01 0.27968909E+03</pdfrwt>
<pdfrwt beam="2">  1       21 0.20338588E+00 0.27968909E+03</pdfrwt>
<totfact> 0.63375023E+03</totfact>
</mgrwt>
</event>
<event>
12    1  0.1071811E-001  0.2372510E+03  0.7546771E-02  0.1121989E+00
         21   -1    0    0  503  502  0.00000000000E+00  0.00000000000E+00  0.19367593893E+03  0.19367593893E+03  0.00000000000E+00 0.  1.
         21   -1    0    0  501  503 -0.00000000000E+00 -0.00000000000E+00 -0.69235166941E+03  0.69235166941E+03  0.00000000000E+00 0. -1.
          6    2    1    2  501    0  0.15435841301E+03 -0.39604910496E+02 -0.58739834164E+03  0.63272985097E+03  0.17296006458E+03 0.  0.
         24    2    3    3    0    0  0.56949315351E+02 -0.82169499327E+02 -0.32931255388E+03  0.35356925136E+03  0.81051873671E+02 0.  0.
         -6    2    1    2    0  502 -0.15435841301E+03  0.39604910496E+02  0.88722611158E+02  0.25329775737E+03  0.17576399960E+03 0.  0.
        -24    2    5    5    0    0 -0.10358147398E+03  0.94914944258E+02  0.47439887457E+02  0.16748487577E+03  0.77863163920E+02 0.  0.
          5    1    3    3  501    0  0.97409097663E+02  0.42564588831E+02 -0.25808578776E+03  0.27916059961E+03  0.47000000000E+01 0. -1.
        -13    1    4    4    0    0  0.38521923235E+02  0.56713425044E+01 -0.97350099199E+02  0.10484819746E+03  0.00000000000E+00 0.  1.
         14    1    4    4    0    0  0.18427392116E+02 -0.87840841832E+02 -0.23196245468E+03  0.24872105391E+03  0.00000000000E+00 0. -1.
         -5    1    5    5    0  502 -0.50776939039E+02 -0.55310033762E+02  0.41282723701E+02  0.85812881603E+02  0.47000000000E+01 0.  1.
         11    1    6    6    0    0  0.65328902050E+01  0.57504475641E+00 -0.96354582104E+01  0.11655530268E+02  0.00000000000E+00 0. -1.
        -12    1    6    6    0    0 -0.11011436418E+03  0.94339899502E+02  0.57075345668E+02  0.15582934550E+03  0.00000000000E+00 0.  1.
<mgrwt>
<rscale>  2 0.23673190E+03</rscale>
<asrwt>0</asrwt>
<pdfrwt beam="1">  1       21 0.29796299E-01 0.23725103E+03</pdfrwt>
<pdfrwt beam="2">  1       21 0.10651564E+00 0.23725103E+03</pdfrwt>
<totfact> 0.73895624E+03</totfact>
</mgrwt>
</event>
<event>
12    1  0.1071811E-001  0.2245941E+03  0.7546771E-02  0.1130543E+00
         21   -1    0    0  501  502  0.00000000000E+00  0.00000000000E+00  0.14242618660E+03  0.14242618660E+03  0.00000000000E+00 0.  1.
         21   -1    0    0  502  503 -0.00000000000E+00 -0.00000000000E+00 -0.36304572124E+03  0.36304572124E+03  0.00000000000E+00 0.  1.
         -6    2    1    2    0  503 -0.44713813501E+02  0.13525379028E+03 -0.15053036496E+03  0.27019546718E+03  0.17335883828E+03 0.  0.
        -24    2    3    3    0    0  0.21223791810E+02  0.12656079335E+02 -0.63461467776E+02  0.10593637495E+03  0.81145129016E+02 0.  0.
          6    2    1    2  501    0  0.44713813501E+02 -0.13525379028E+03 -0.70089169684E+02  0.23527644066E+03  0.17363639860E+03 0.  0.
         24    2    5    5    0    0  0.62063731075E+02 -0.95107389625E+02  0.14305752686E+02  0.14010635057E+03  0.80794879998E+02 0.  0.
          5    1    5    5  501    0 -0.17349917574E+02 -0.40146400654E+02 -0.84394922370E+02  0.95170090087E+02  0.47000000000E+01 0. -1.
        -11    1    6    6    0    0  0.36415865563E+02 -0.38465834424E+02 -0.32620524247E+02  0.62207992130E+02  0.00000000000E+00 0.  1.
         12    1    6    6    0    0  0.25647865511E+02 -0.56641555201E+02  0.46926276933E+02  0.77898358440E+02  0.00000000000E+00 0. -1.
         -5    1    3    3    0  503 -0.65937605311E+02  0.12259771094E+03 -0.87068897180E+02  0.16425909223E+03  0.47000000000E+01 0.  1.
         13    1    4    4    0    0  0.33284131076E+02 -0.15483040330E+02 -0.65678892464E+02  0.75241443597E+02  0.00000000000E+00 0. -1.
        -14    1    4    4    0    0 -0.12060339266E+02  0.28139119664E+02  0.22174246879E+01  0.30694931356E+02  0.00000000000E+00 0.  1.
<mgrwt>
<rscale>  2 0.22454046E+03</rscale>
<asrwt>0</asrwt>
<pdfrwt beam="1">  1       21 0.21911721E-01 0.22459410E+03</pdfrwt>
<pdfrwt beam="2">  1       21 0.55853187E-01 0.22459410E+03</pdfrwt>
<totfact> 0.57875223E+04</totfact>
</mgrwt>
</event>
<event>
12    1  0.1071811E-001  0.1933918E+03  0.7546771E-02  0.1155680E+00
         21   -1    0    0  501  502  0.00000000000E+00  0.00000000000E+00  0.25456268274E+03  0.25456268274E+03  0.00000000000E+00 0. -1.
         21   -1    0    0  502  503 -0.00000000000E+00 -0.00000000000E+00 -0.14621560019E+03  0.14621560019E+03  0.00000000000E+00 0. -1.
         -6    2    1    2    0  503 -0.38015433830E+02  0.73045701073E+02  0.59954632039E+02  0.20142378783E+03  0.17377035635E+03 0.  0.
        -24    2    3    3    0    0  0.29874410791E+02  0.96784051834E+01  0.17723687356E+02  0.99296475714E+02  0.92517614803E+02 0.  0.
          6    2    1    2  501    0  0.38015433830E+02 -0.73045701073E+02  0.48392450508E+02  0.19935449510E+03  0.17498439301E+03 0.  0.
         24    2    5    5    0    0 -0.29269593266E+02 -0.36620590890E+02 -0.20787579322E+02  0.96097388568E+02  0.81269969044E+02 0.  0.
          5    1    5    5  501    0  0.67285027096E+02 -0.36425110183E+02  0.69180029830E+02  0.10325710654E+03  0.47000000000E+01 0. -1.
        -11    1    6    6    0    0 -0.37352441542E+01  0.24368926115E+02  0.49501894085E+01  0.25145595720E+02  0.00000000000E+00 0.  1.
         12    1    6    6    0    0 -0.25534349112E+02 -0.60989517006E+02 -0.25737768731E+02  0.70951792848E+02  0.00000000000E+00 0. -1.
         -5    1    3    3    0  503 -0.67889844621E+02  0.63367295889E+02  0.42230944683E+02  0.10212731211E+03  0.47000000000E+01 0.  1.
         11    1    4    4    0    0 -0.15918797336E+02  0.39684212088E+02  0.10893651617E+02  0.44123876113E+02  0.00000000000E+00 0. -1.
        -12    1    4    4    0    0  0.45793208127E+02 -0.30005806905E+02  0.68300357386E+01  0.55172599601E+02  0.00000000000E+00 0.  1.
<mgrwt>
<rscale>  2 0.19311676E+03</rscale>
<asrwt>0</asrwt>
<pdfrwt beam="1">  1       21 0.39163490E-01 0.19339179E+03</pdfrwt>
<pdfrwt beam="2">  1       21 0.22494708E-01 0.19339179E+03</pdfrwt>
<totfact> 0.11632714E+05</totfact>
</mgrwt>
</event>
<event>
12    1  0.1071811E-001  0.1944036E+03  0.7546771E-02  0.1155148E+00
         21   -1    0    0  501  502  0.00000000000E+00  0.00000000000E+00  0.94140066434E+02  0.94140066434E+02  0.00000000000E+00 0.  1.
         21   -1    0    0  502  503 -0.00000000000E+00 -0.00000000000E+00 -0.62714901225E+03  0.62714901225E+03  0.00000000000E+00 0.  1.
         -6    2    1    2    0  503 -0.70567680241E+02  0.41984064801E+02 -0.48670087072E+03  0.52409014780E+03  0.17621091418E+03 0.  0.
        -24    2    3    3    0    0 -0.86932449795E+02 -0.26811401209E+02 -0.25772088248E+03  0.28439336676E+03  0.78634799753E+02 0.  0.
          6    2    1    2  501    0  0.70567680241E+02 -0.41984064801E+02 -0.46308075102E+02  0.19719893089E+03  0.17320658570E+03 0.  0.
         24    2    5    5    0    0  0.74930348364E+02 -0.56271173215E+00  0.26216276883E+02  0.11343358606E+03  0.81024758697E+02 0.  0.
          5    1    5    5  501    0 -0.43626681230E+01 -0.41421353068E+02 -0.72524351985E+02  0.83765344827E+02  0.47000000000E+01 0. -1.
        -13    1    6    6    0    0  0.15631081808E+02 -0.35805702710E+01  0.47674409849E+02  0.50299110891E+02  0.00000000000E+00 0.  1.
         14    1    6    6    0    0  0.59299266556E+02  0.30178585388E+01 -0.21458132966E+02  0.63134475167E+02  0.00000000000E+00 0. -1.
         -5    1    3    3    0  503  0.16364769553E+02  0.68795466010E+02 -0.22897998824E+03  0.23969678104E+03  0.47000000000E+01 0.  1.
         13    1    4    4    0    0 -0.10537830478E+02 -0.24293536989E+02 -0.16146826393E+02  0.31015186816E+02  0.00000000000E+00 0. -1.
        -14    1    4    4    0    0 -0.76394619317E+02 -0.25178642197E+01 -0.24157405608E+03  0.25337817995E+03  0.00000000000E+00 0.  1.
<mgrwt>
<rscale>  2 0.19372022E+03</rscale>
<asrwt>0</asrwt>
<pdfrwt beam="1">  1       21 0.14483087E-01 0.19440356E+03</pdfrwt>
<pdfrwt beam="2">  1       21 0.96484465E-01 0.19440356E+03</pdfrwt>
<totfact> 0.37314843E+04</totfact>
</mgrwt>
</event>
<event>
12    1  0.1071811E-001  0.1733106E+03  0.7546771E-02  0.1174673E+00
         21   -1    0    0  501  502  0.00000000000E+00  0.00000000000E+00  0.25391608607E+03  0.25391608607E+03  0.00000000000E+00 0. -1.
         21   -1    0    0  502  503 -0.00000000000E+00 -0.00000000000E+00 -0.12593888024E+03  0.12593888024E+03  0.00000000000E+00 0. -1.
         -6    2    1    2    0  503  0.21740598721E+02  0.40162824872E+01  0.15157813556E+02  0.17305849927E+03  0.17096988244E+03 0.  0.
        -24    2    3    3    0    0  0.61614874508E+02  0.42122578730E+02 -0.12130056776E+02  0.11134330220E+03  0.81728136327E+02 0.  0.
          6    2    1    2  501    0 -0.21740598721E+02 -0.40162824872E+01  0.11281939227E+03  0.20679646704E+03  0.17189467516E+03 0.  0.
         24    2    5    5    0    0 -0.30293719454E+02 -0.49275373589E+02  0.38494167213E+02  0.11923009060E+03  0.96892939451E+02 0.  0.
          5    1    5    5  501    0  0.85531207328E+01  0.45259091102E+02  0.74325225059E+02  0.87566376434E+02  0.47000000000E+01 0. -1.
        -13    1    6    6    0    0 -0.14006742863E+02  0.69927434847E+01  0.55956169153E+02  0.58104906620E+02  0.00000000000E+00 0.  1.
         14    1    6    6    0    0 -0.16286976591E+02 -0.56268117073E+02 -0.17462001939E+02  0.61125183985E+02  0.00000000000E+00 0. -1.
         -5    1    3    3    0  503 -0.39874275787E+02 -0.38106296243E+02  0.27287870332E+02  0.61715197076E+02  0.47000000000E+01 0.  1.
         11    1    4    4    0    0  0.38618549558E+02  0.48315221101E+02  0.25424287411E+02  0.66874115697E+02  0.00000000000E+00 0. -1.
        -12    1    4    4    0    0  0.22996324950E+02 -0.61926423704E+01 -0.37554344186E+02  0.44469186500E+02  0.00000000000E+00 0.  1.
<mgrwt>
<rscale>  2 0.17308084E+03</rscale>
<asrwt>0</asrwt>
<pdfrwt beam="1">  1       21 0.39064013E-01 0.17331060E+03</pdfrwt>
<pdfrwt beam="2">  1       21 0.19375212E-01 0.17331060E+03</pdfrwt>
<totfact> 0.15570032E+05</totfact>
</mgrwt>
</event>
<event>
12    1  0.1071811E-001  0.1918823E+03  0.7546771E-02  0.1157335E+00
         21   -1    0    0  501  502  0.00000000000E+00  0.00000000000E+00  0.97120445846E+03  0.97120445846E+03  0.00000000000E+00 0. -1.
         21   -1    0    0  502  503 -0.00000000000E+00 -0.00000000000E+00 -0.30296911854E+03  0.30296911854E+03  0.00000000000E+00 0. -1.
         -6    2    1    2    0  503  0.40146301756E+02  0.72886781001E+02 -0.26260015979E+03  0.32376653169E+03  0.17012264615E+03 0.  0.
        -24    2    3    3    0    0 -0.22536761680E+01  0.63466214118E+02 -0.26062232050E+03  0.28003431180E+03  0.80387700888E+02 0.  0.
          6    2    1    2  501    0 -0.40146301756E+02 -0.72886781001E+02  0.93083549971E+03  0.95040704531E+03  0.17290059533E+03 0.  0.
         24    2    5    5    0    0 -0.58788464598E+02 -0.98395502413E+01  0.77142358320E+03  0.77790564628E+03  0.80560222675E+02 0.  0.
          5    1    5    5  501    0  0.18642162843E+02 -0.63047230760E+02  0.15941191651E+03  0.17250139903E+03  0.47000000000E+01 0. -1.
        -11    1    6    6    0    0 -0.45116564509E+02 -0.32960956954E+02  0.68798068059E+03  0.69024585905E+03  0.00000000000E+00 0.  1.
         12    1    6    6    0    0 -0.13671900089E+02  0.23121406713E+02  0.83442902617E+02  0.87659787232E+02  0.00000000000E+00 0. -1.
         -5    1    3    3    0  503  0.42399977924E+02  0.94205668828E+01 -0.19778392907E+01  0.43732219891E+02  0.47000000000E+01 0.  1.
         13    1    4    4    0    0 -0.15296333695E+02  0.67410645241E+02 -0.11794973150E+03  0.13671251617E+03  0.00000000000E+00 0. -1.
        -14    1    4    4    0    0  0.13042657527E+02 -0.39444311224E+01 -0.14267258900E+03  0.14332179563E+03  0.00000000000E+00 0.  1.
<mgrwt>
<rscale>  2 0.19125442E+03</rscale>
<asrwt>0</asrwt>
<pdfrwt beam="1">  1       21 0.14941607E+00 0.19188232E+03</pdfrwt>
<pdfrwt beam="2">  1       21 0.46610634E-01 0.19188232E+03</pdfrwt>
<totfact> 0.13321576E+03</totfact>
</mgrwt>
</event>
<event>
12    1  0.1071811E-001  0.1916748E+03  0.7546771E-02  0.1157079E+00
         21   -1    0    0  503  502  0.00000000000E+00  0.00000000000E+00  0.63038972220E+02  0.63038972220E+02  0.00000000000E+00 0.  1.
         21   -1    0    0  501  503 -0.00000000000E+00 -0.00000000000E+00 -0.13983570009E+04  0.13983570009E+04  0.00000000000E+00 0.  1.
          6    2    1    2  501    0  0.47289672694E+02 -0.67594404829E+02 -0.12258549072E+04  0.12406667310E+04  0.17241916111E+03 0.  0.
         24    2    3    3    0    0  0.19642692096E+02  0.28086472170E+02 -0.68058163920E+03  0.68635254880E+03  0.81937588163E+02 0.  0.
         -6    2    1    2    0  502 -0.47289672694E+02  0.67594404829E+02 -0.10946312147E+03  0.22072924214E+03  0.17301418054E+03 0.  0.
        -24    2    5    5    0    0 -0.62735548210E+02  0.10684881749E+03 -0.98209734850E+02  0.17681782342E+03  0.79164208136E+02 0.  0.
          5    1    3    3  501    0  0.27646980598E+02 -0.95680876999E+02 -0.54527326799E+03  0.55431418216E+03  0.47000000000E+01 0. -1.
        -11    1    4    4    0    0  0.34514435419E+02  0.59630012445E+01 -0.60837326871E+03  0.60938070016E+03  0.00000000000E+00 0.  1.
         12    1    4    4    0    0 -0.14871743323E+02  0.22123470925E+02 -0.72208370485E+02  0.76971848642E+02  0.00000000000E+00 0. -1.
         -5    1    5    5    0  502  0.15445875515E+02 -0.39254412665E+02 -0.11253386623E+02  0.43911418727E+02  0.47000000000E+01 0.  1.
         13    1    6    6    0    0 -0.37924295087E+02  0.80990705124E+01 -0.52347022674E+02  0.65146434161E+02  0.00000000000E+00 0. -1.
        -14    1    6    6    0    0 -0.24811253123E+02  0.98749746982E+02 -0.45862712175E+02  0.11167138926E+03  0.00000000000E+00 0.  1.
<mgrwt>
<rscale>  2 0.19154041E+03</rscale>
<asrwt>0</asrwt>
<pdfrwt beam="1">  1       21 0.96983038E-02 0.19167479E+03</pdfrwt>
<pdfrwt beam="2">  1       21 0.21513184E+00 0.19167479E+03</pdfrwt>
<totfact> 0.92414448E+03</totfact>
</mgrwt>
</event>
<event>
12    1  0.1071811E-001  0.1852042E+03  0.7546771E-02  0.1163256E+00
         21   -1    0    0  503  502  0.00000000000E+00  0.00000000000E+00  0.11196351052E+03  0.11196351052E+03  0.00000000000E+00 0. -1.
         21   -1    0    0  501  503 -0.00000000000E+00 -0.00000000000E+00 -0.35306695086E+03  0.35306695086E+03  0.00000000000E+00 0. -1.
          6    2    1    2  501    0 -0.78494378597E+01  0.58939187102E+02 -0.33007846133E+02  0.18645486913E+03  0.17361007709E+03 0.  0.
         24    2    3    3    0    0 -0.20959858519E+02 -0.32518559985E+02 -0.28292857573E+02  0.93822673059E+02  0.80656281699E+02 0.  0.
         -6    2    1    2    0  502  0.78494378597E+01 -0.58939187102E+02 -0.20809559421E+03  0.27857559225E+03  0.17539995102E+03 0.  0.
        -24    2    5    5    0    0 -0.45760319542E+02 -0.76655380485E+02 -0.17858054920E+03  0.21469212429E+03  0.78940746623E+02 0.  0.
          5    1    3    3  501    0  0.13110420659E+02  0.91457747087E+02 -0.47149885598E+01  0.92632196073E+02  0.47000000000E+01 0. -1.
        -11    1    4    4    0    0 -0.26383401487E+02  0.17996987769E+02 -0.28813901744E+02  0.43014141587E+02  0.00000000000E+00 0.  1.
         12    1    4    4    0    0  0.54235429680E+01 -0.50515547754E+02  0.52104417127E+00  0.50808531471E+02  0.00000000000E+00 0. -1.
         -5    1    5    5    0  502  0.53609757402E+02  0.17716193383E+02 -0.29515045005E+02  0.63883467958E+02  0.47000000000E+01 0.  1.
         13    1    6    6    0    0 -0.31123071122E+02 -0.24482359258E+01 -0.10354785682E+03  0.10815173631E+03  0.00000000000E+00 0. -1.
        -14    1    6    6    0    0 -0.14637248421E+02 -0.74207144559E+02 -0.75032692387E+02  0.10654038798E+03  0.00000000000E+00 0.  1.
<mgrwt>
<rscale>  2 0.18477915E+03</rscale>
<asrwt>0</asrwt>
<pdfrwt beam="1">  1       21 0.17225156E-01 0.18520417E+03</pdfrwt>
<pdfrwt beam="2">  1       21 0.54317991E-01 0.18520417E+03</pdfrwt>
<totfact> 0.97796218E+04</totfact>
</mgrwt>
</event>
<event>
12    1  0.1071811E-001  0.1754041E+03  0.7546771E-02  0.1172582E+00
         21   -1    0    0  501  502  0.00000000000E+00  0.00000000000E+00  0.64339727881E+03  0.64339727881E+03  0.00000000000E+00 0.  1.
         21   -1    0    0  502  503 -0.00000000000E+00 -0.00000000000E+00 -0.52259406834E+02  0.52259406834E+02  0.00000000000E+00 0.  1.
         -6    2    1    2    0  503  0.23393821863E+02 -0.18780822419E+02  0.19028120685E+03  0.25810365471E+03  0.17178640430E+03 0.  0.
        -24    2    3    3    0    0 -0.28842541197E+02 -0.31299387872E+02  0.18626671325E+03  0.20403371606E+03  0.71574611137E+02 0.  0.
          6    2    1    2  501    0 -0.23393821863E+02  0.18780822419E+02  0.40085666513E+03  0.43755303094E+03  0.17281955535E+03 0.  0.
         24    2    5    5    0    0  0.46346739182E+02 -0.86934765125E+01  0.15990572551E+03  0.18516834784E+03  0.80584609108E+02 0.  0.
          5    1    5    5  501    0 -0.69740561045E+02  0.27474298932E+02  0.24095093963E+03  0.25238468310E+03  0.47000000000E+01 0. -1.
        -13    1    6    6    0    0 -0.83078227125E+01  0.25912046137E+02  0.63337822964E+02  0.68935722750E+02  0.00000000000E+00 0.  1.
         14    1    6    6    0    0  0.54654561894E+02 -0.34605522649E+02  0.96567902542E+02  0.11623262509E+03  0.00000000000E+00 0. -1.
         -5    1    3    3    0  503  0.52236363061E+02  0.12518565453E+02  0.40144935961E+01  0.54069938650E+02  0.47000000000E+01 0.  1.
         13    1    4    4    0    0 -0.27576586129E+02 -0.48941688980E+02  0.89540822019E+02  0.10570390641E+03  0.00000000000E+00 0. -1.
        -14    1    4    4    0    0 -0.12659550680E+01  0.17642301108E+02  0.96725891232E+02  0.98329809647E+02  0.00000000000E+00 0.  1.
<mgrwt>
<rscale>  2 0.17514906E+03</rscale>
<asrwt>0</asrwt>
<pdfrwt beam="1">  1       21 0.98984191E-01 0.17540407E+03</pdfrwt>
<pdfrwt beam="2">  1       21 0.80399092E-02 0.17540407E+03</pdfrwt>
<totfact> 0.10077070E+05</totfact>
</mgrwt>
</event>
<event>
12    1  0.1071811E-001  0.1766544E+03  0.7546771E-02  0.1171135E+00
         21   -1    0    0  503  502  0.00000000000E+00  0.00000000000E+00  0.45286922553E+03  0.45286922553E+03  0.00000000000E+00 0. -1.
         21   -1    0    0  501  503 -0.00000000000E+00 -0.00000000000E+00 -0.76511164831E+02  0.76511164831E+02  0.00000000000E+00 0. -1.
          6    2    1    2  501    0 -0.17895896100E+01  0.33701791974E+02  0.27197166494E+03  0.32418947321E+03  0.17317971763E+03 0.  0.
         24    2    3    3    0    0 -0.67985698174E+02  0.27824282654E+02  0.19092495746E+03  0.21927460917E+03  0.78947887765E+02 0.  0.
         -6    2    1    2    0  502  0.17895896100E+01 -0.33701791974E+02  0.10438639576E+03  0.20519091715E+03  0.17340063278E+03 0.  0.
        -24    2    5    5    0    0  0.56695059804E+02  0.58004987553E+00  0.23852892308E+02  0.10176176016E+03  0.81066818703E+02 0.  0.
          5    1    3    3  501    0  0.66196108564E+02  0.58775093196E+01  0.81046707476E+02  0.10491486404E+03  0.47000000000E+01 0. -1.
        -11    1    4    4    0    0 -0.49543515905E+02  0.53125622834E+02  0.10379260588E+03  0.12668779264E+03  0.00000000000E+00 0.  1.
         12    1    4    4    0    0 -0.18442182269E+02 -0.25301340180E+02  0.87132351580E+02  0.92586816522E+02  0.00000000000E+00 0. -1.
         -5    1    5    5    0  502 -0.54905470194E+02 -0.34281841849E+02  0.80533503456E+02  0.10342915700E+03  0.47000000000E+01 0.  1.
         11    1    6    6    0    0 -0.78614922060E+00  0.50272121547E+01 -0.25418551240E+02  0.25922840118E+02  0.00000000000E+00 0. -1.
        -12    1    6    6    0    0  0.57481209025E+02 -0.44471622792E+01  0.49271443548E+02  0.75838920039E+02  0.00000000000E+00 0.  1.
<mgrwt>
<rscale>  2 0.17660021E+03</rscale>
<asrwt>0</asrwt>
<pdfrwt beam="1">  1       21 0.69672187E-01 0.17665444E+03</pdfrwt>
<pdfrwt beam="2">  1       21 0.11770949E-01 0.17665444E+03</pdfrwt>
<totfact> 0.11439446E+05</totfact>
</mgrwt>
</event>
<event>
12    1  0.1071811E-001  0.1764237E+03  0.7546771E-02  0.1171819E+00
         21   -1    0    0  501  502  0.00000000000E+00  0.00000000000E+00  0.15568524578E+03  0.15568524578E+03  0.00000000000E+00 0. -1.
         21   -1    0    0  502  503 -0.00000000000E+00 -0.00000000000E+00 -0.21919633477E+03  0.21919633477E+03  0.00000000000E+00 0. -1.
         -6    2    1    2    0  503  0.34442486456E+01  0.21118522253E+02 -0.90393176270E+02  0.19642163314E+03  0.17306841658E+03 0.  0.
        -24    2    3    3    0    0 -0.40635095685E+02  0.42038149216E+02 -0.10566123614E+03  0.14508136589E+03  0.80410751239E+02 0.  0.
          6    2    1    2  501    0 -0.34442486456E+01 -0.21118522253E+02  0.26882087281E+02  0.17845994741E+03  0.17512124766E+03 0.  0.
         24    2    5    5    0    0  0.36179821383E+01 -0.71644885969E+02  0.52991690822E+02  0.12095699157E+03  0.81709210207E+02 0.  0.
          5    1    5    5  501    0 -0.70622307838E+01  0.50526363716E+02 -0.26109603541E+02  0.57502955846E+02  0.47000000000E+01 0. -1.
        -13    1    6    6    0    0 -0.36098312442E+02 -0.27560827554E+02  0.39304195771E+02  0.60062527268E+02  0.00000000000E+00 0.  1.
         14    1    6    6    0    0  0.39716294580E+02 -0.44084058415E+02  0.13687495050E+02  0.60894464299E+02  0.00000000000E+00 0. -1.
         -5    1    3    3    0  503  0.44079344331E+02 -0.20919626963E+02  0.15268059869E+02  0.51340267248E+02  0.47000000000E+01 0.  1.
         13    1    4    4    0    0 -0.19857017296E+02  0.64697648586E+02 -0.62731835052E+02  0.92278762440E+02  0.00000000000E+00 0. -1.
        -14    1    4    4    0    0 -0.20778078389E+02 -0.22659499370E+02 -0.42929401087E+02  0.52802603449E+02  0.00000000000E+00 0.  1.
<mgrwt>
<rscale>  2 0.17591206E+03</rscale>
<asrwt>0</asrwt>
<pdfrwt beam="1">  1       21 0.23951576E-01 0.17642366E+03</pdfrwt>
<pdfrwt beam="2">  1       21 0.33722513E-01 0.17642366E+03</pdfrwt>
<totfact> 0.13996702E+05</totfact>
</mgrwt>
</event>
<event>
12    1  0.1071811E-001  0.2613178E+03  0.7546771E-02  0.1106597E+00
         21   -1    0    0  501  502  0.00000000000E+00  0.00000000000E+00  0.63744424091E+03  0.63744424091E+03  0.00000000000E+00 0. -1.
         21   -1    0    0  502  503 -0.00000000000E+00 -0.00000000000E+00 -0.11697306640E+03  0.11697306640E+03  0.00000000000E+00 0. -1.
         -6    2    1    2    0  503  0.50622033243E+01 -0.19395540100E+03  0.14789631999E+03  0.30026707670E+03  0.17505048531E+03 0.  0.
        -24    2    3    3    0    0  0.18196503331E+02 -0.16097993716E+03  0.17671578807E+03  0.25430467041E+03  0.84833617960E+02 0.  0.
          6    2    1    2  501    0 -0.50622033243E+01  0.19395540100E+03  0.37257485453E+03  0.45415023061E+03  0.17261542878E+03 0.  0.
         24    2    5    5    0    0 -0.58590910332E+02  0.66510601093E+02  0.18241172680E+03  0.21900856130E+03  0.82668960414E+02 0.  0.
          5    1    5    5  501    0  0.53528707008E+02  0.12744479990E+03  0.19016312773E+03  0.23514166931E+03  0.47000000000E+01 0. -1.
        -13    1    6    6    0    0 -0.60041948993E+02  0.58885010889E+02  0.19023064915E+03  0.20799081716E+03  0.00000000000E+00 0.  1.
         14    1    6    6    0    0  0.14510386602E+01  0.76255902038E+01 -0.78189223509E+01  0.11017744138E+02  0.00000000000E+00 0. -1.
         -5    1    3    3    0  503 -0.13134300007E+02 -0.32975463834E+02 -0.28819468083E+02  0.45962406294E+02  0.47000000000E+01 0.  1.
         11    1    4    4    0    0  0.10715254509E+02 -0.95671413622E+00 -0.51645576102E+01  0.11933341377E+02  0.00000000000E+00 0. -1.
        -12    1    4    4    0    0  0.74812488224E+01 -0.16002322303E+03  0.18188034568E+03  0.24237132903E+03  0.00000000000E+00 0.  1.
<mgrwt>
<rscale>  2 0.26091063E+03</rscale>
<asrwt>0</asrwt>
<pdfrwt beam="1">  1       21 0.98068343E-01 0.26131781E+03</pdfrwt>
<pdfrwt beam="2">  1       21 0.17995857E-01 0.26131781E+03</pdfrwt>
<totfact> 0.23278077E+04</totfact>
</mgrwt>
</event>
<event>
12    1  0.1071811E-001  0.2170963E+03  0.7546771E-02  0.1136560E+00
         21   -1    0    0  501  502  0.00000000000E+00  0.00000000000E+00  0.77542601494E+02  0.77542601494E+02  0.00000000000E+00 0. -1.
         21   -1    0    0  502  503 -0.00000000000E+00 -0.00000000000E+00 -0.77058085623E+03  0.77058085623E+03  0.00000000000E+00 0. -1.
         -6    2    1    2    0  503  0.11855609500E+03 -0.44871351395E+02 -0.54407451919E+03  0.58483463143E+03  0.17304761731E+03 0.  0.
        -24    2    3    3    0    0  0.70059383888E+02 -0.36688594289E+02 -0.17410805222E+03  0.21158382409E+03  0.90552363561E+02 0.  0.
          6    2    1    2  501    0 -0.11855609500E+03  0.44871351395E+02 -0.14896373554E+03  0.26328882628E+03  0.17624365436E+03 0.  0.
         24    2    5    5    0    0 -0.11082558995E+03  0.87568886898E+02 -0.14800591518E+03  0.21963281105E+03  0.79888668906E+02 0.  0.
          5    1    5    5  501    0 -0.77305050442E+01 -0.42697535504E+02 -0.95782036047E+00  0.43656015235E+02  0.47000000000E+01 0. -1.
        -13    1    6    6    0    0 -0.35141360547E+02  0.68298946565E+02 -0.40732436236E+02  0.86941317477E+02  0.00000000000E+00 0.  1.
         14    1    6    6    0    0 -0.75684229407E+02  0.19269940333E+02 -0.10727347895E+03  0.13269149357E+03  0.00000000000E+00 0. -1.
         -5    1    3    3    0  503  0.48496711110E+02 -0.81827571059E+01 -0.36996646697E+03  0.37325080734E+03  0.47000000000E+01 0.  1.
         13    1    4    4    0    0 -0.12351190152E+02 -0.91876518871E+01 -0.87738631013E+02  0.89078797800E+02  0.00000000000E+00 0. -1.
        -14    1    4    4    0    0  0.82410574040E+02 -0.27500942402E+02 -0.86369421210E+02  0.12250502629E+03  0.00000000000E+00 0.  1.
<mgrwt>
<rscale>  2 0.21644679E+03</rscale>
<asrwt>0</asrwt>
<pdfrwt beam="1">  1       21 0.11929631E-01 0.21709632E+03</pdfrwt>
<pdfrwt beam="2">  1       21 0.11855090E+00 0.21709632E+03</pdfrwt>
<totfact> 0.31829359E+04</totfact>
</mgrwt>
</event>
<event>
12    1  0.1071811E-001  0.2811423E+03  0.7546771E-02  0.1095454E+00
         21   -1    0    0  501  502  0.00000000000E+00  0.00000000000E+00  0.20153776520E+03  0.20153776520E+03  0.00000000000E+00 0.  1.
         21   -1    0    0  502  503 -0.00000000000E+00 -0.00000000000E+00 -0.40394251462E+03  0.40394251462E+03  0.00000000000E+00 0.  1.
         -6    2    1    2    0  503  0.19642986850E+03  0.94873953921E+02 -0.16136842291E+03  0.32416163654E+03  0.17735624691E+03 0.  0.
        -24    2    3    3    0    0  0.15162328601E+03  0.33403516393E+02 -0.17215472946E+03  0.24718970052E+03  0.85790916782E+02 0.  0.
          6    2    1    2  501    0 -0.19642986850E+03 -0.94873953921E+02 -0.41036326513E+02  0.28131864328E+03  0.17283066450E+03 0.  0.
         24    2    5    5    0    0 -0.19593168677E+03 -0.10751813955E+03 -0.71248408438E+02  0.24822810824E+03  0.81187941232E+02 0.  0.
          5    1    5    5  501    0 -0.49818172819E+00  0.12644185624E+02  0.30212081925E+02  0.33090535042E+02  0.47000000000E+01 0. -1.
        -13    1    6    6    0    0 -0.87833858132E+02 -0.92613792832E+02 -0.26925759258E+02  0.13044959858E+03  0.00000000000E+00 0.  1.
         14    1    6    6    0    0 -0.10809782864E+03 -0.14904346713E+02 -0.44322649179E+02  0.11777850966E+03  0.00000000000E+00 0. -1.
         -5    1    3    3    0  503  0.44806582495E+02  0.61470437528E+02  0.10786306551E+02  0.76971936014E+02  0.47000000000E+01 0.  1.
         13    1    4    4    0    0  0.92456727744E+02 -0.10699291561E+02 -0.13655237098E+03  0.16525517047E+03  0.00000000000E+00 0. -1.
        -14    1    4    4    0    0  0.59166558263E+02  0.44102807954E+02 -0.35602358472E+02  0.81934530053E+02  0.00000000000E+00 0.  1.
<mgrwt>
<rscale>  2 0.28043143E+03</rscale>
<asrwt>0</asrwt>
<pdfrwt beam="1">  1       21 0.31005811E-01 0.28114231E+03</pdfrwt>
<pdfrwt beam="2">  1       21 0.62145001E-01 0.28114231E+03</pdfrwt>
<totfact> 0.22967033E+04</totfact>
</mgrwt>
</event>
<event>
12    1  0.1071811E-001  0.1771283E+03  0.7546771E-02  0.1170837E+00
         21   -1    0    0  501  502  0.00000000000E+00  0.00000000000E+00  0.68916613895E+03  0.68916613895E+03  0.00000000000E+00 0.  1.
         21   -1    0    0  502  503 -0.00000000000E+00 -0.00000000000E+00 -0.45451514831E+02  0.45451514831E+02  0.00000000000E+00 0.  1.
         -6    2    1    2    0  503 -0.30212289435E+02  0.10348029067E+02  0.30088814773E+03  0.34915343812E+03  0.17422566335E+03 0.  0.
        -24    2    3    3    0    0  0.46888135640E+02  0.23447588429E+02  0.13046935110E+03  0.16158816883E+03  0.79625360665E+02 0.  0.
          6    2    1    2  501    0  0.30212289435E+02 -0.10348029067E+02  0.34282647639E+03  0.38546421566E+03  0.17329975332E+03 0.  0.
         24    2    5    5    0    0  0.74944625579E+02 -0.10677562626E+02  0.31174064303E+03  0.33078780827E+03  0.80669934507E+02 0.  0.
          5    1    5    5  501    0 -0.44732336145E+02  0.32953355849E+00  0.31085833353E+02  0.54676407385E+02  0.47000000000E+01 0. -1.
        -13    1    6    6    0    0  0.37970557304E+02 -0.21786672805E+02  0.51031711552E+02  0.67235838046E+02  0.00000000000E+00 0.  1.
         14    1    6    6    0    0  0.36974068275E+02  0.11109110179E+02  0.26070893148E+03  0.26355197022E+03  0.00000000000E+00 0. -1.
         -5    1    3    3    0  503 -0.77100425074E+02 -0.13099559362E+02  0.17041879662E+03  0.18756526929E+03  0.47000000000E+01 0.  1.
         13    1    4    4    0    0  0.10851882535E+02  0.76883553379E+01  0.12020624841E+03  0.12093972184E+03  0.00000000000E+00 0. -1.
        -14    1    4    4    0    0  0.36036253105E+02  0.15759233091E+02  0.10263102692E+02  0.40648446985E+02  0.00000000000E+00 0.  1.
<mgrwt>
<rscale>  2 0.17690023E+03</rscale>
<asrwt>0</asrwt>
<pdfrwt beam="1">  1       21 0.10602555E+00 0.17712833E+03</pdfrwt>
<pdfrwt beam="2">  1       21 0.69925413E-02 0.17712833E+03</pdfrwt>
<totfact> 0.10885322E+05</totfact>
</mgrwt>
</event>
<event>
12    1  0.1071811E-001  0.1759733E+03  0.7546771E-02  0.1173724E+00
         21   -1    0    0  503  502  0.00000000000E+00  0.00000000000E+00  0.21649627631E+04  0.21649627631E+04  0.00000000000E+00 0.  1.
         21   -1    0    0  501  503 -0.00000000000E+00 -0.00000000000E+00 -0.28360162246E+02  0.28360162246E+02  0.00000000000E+00 0.  1.
          6    2    1    2  501    0 -0.14976376295E+02  0.32470919431E+02  0.26797376207E+03  0.31642646213E+03  0.16442966984E+03 0.  0.
         24    2    3    3    0    0 -0.60609138589E+02  0.63757227163E+01  0.10758955962E+03  0.14758188662E+03  0.80565392056E+02 0.  0.
         -6    2    1    2    0  502  0.14976376295E+02 -0.32470919431E+02  0.18686288388E+04  0.18768964632E+04  0.17230189794E+03 0.  0.
        -24    2    5    5    0    0  0.43618535440E+02 -0.48922439096E+01  0.55405954126E+03  0.56171758389E+03  0.81352062710E+02 0.  0.
          5    1    3    3  501    0  0.45632762294E+02  0.26095196715E+02  0.16038420244E+03  0.16884457551E+03  0.47000000000E+01 0. -1.
        -13    1    4    4    0    0 -0.34785846271E+01  0.35450510756E+02  0.27521318927E+02  0.45014022919E+02  0.00000000000E+00 0.  1.
         14    1    4    4    0    0 -0.57130553962E+02 -0.29074788040E+02  0.80068240697E+02  0.10256786370E+03  0.00000000000E+00 0. -1.
         -5    1    5    5    0  502 -0.28642159145E+02 -0.27578675522E+02  0.13145692975E+04  0.13151788793E+04  0.47000000000E+01 0.  1.
         13    1    6    6    0    0  0.38189408803E+02  0.18736187834E+02  0.50698812398E+03  0.50876952890E+03  0.00000000000E+00 0. -1.
        -14    1    6    6    0    0  0.54291266366E+01 -0.23628431744E+02  0.47071417279E+02  0.52948054991E+02  0.00000000000E+00 0.  1.
<mgrwt>
<rscale>  2 0.17401577E+03</rscale>
<asrwt>0</asrwt>
<pdfrwt beam="1">  1       21 0.33307106E+00 0.17597328E+03</pdfrwt>
<pdfrwt beam="2">  1       21 0.43631036E-02 0.17597328E+03</pdfrwt>
<totfact> 0.75976708E+03</totfact>
</mgrwt>
</event>
<event>
12    1  0.1071811E-001  0.2459773E+03  0.7546771E-02  0.1116986E+00
         21   -1    0    0  503  502  0.00000000000E+00  0.00000000000E+00  0.83083504391E+03  0.83083504391E+03  0.00000000000E+00 0. -1.
         21   -1    0    0  501  503 -0.00000000000E+00 -0.00000000000E+00 -0.73693655395E+02  0.73693655395E+02  0.00000000000E+00 0.  1.
          6    2    1    2  501    0  0.17016931672E+03  0.41331818911E+02  0.47283467173E+03  0.53298916782E+03  0.17273942982E+03 0.  0.
         24    2    3    3    0    0  0.16177195013E+03 -0.96763085270E+01  0.27665496876E+03  0.33005836511E+03  0.78337461317E+02 0.  0.
         -6    2    1    2    0  502 -0.17016931672E+03 -0.41331818911E+02  0.28430671678E+03  0.37153953149E+03  0.16292758711E+03 0.  0.
        -24    2    5    5    0    0 -0.15752120114E+03  0.96408784840E+01  0.16786482433E+03  0.24371545306E+03  0.79452800239E+02 0.  0.
          5    1    3    3  501    0  0.83973665907E+01  0.51008127438E+02  0.19617970297E+03  0.20293080271E+03  0.47000000000E+01 0. -1.
        -11    1    4    4    0    0  0.66294612939E+02  0.27040015368E+02  0.73528019600E+02  0.10262800691E+03  0.00000000000E+00 0.  1.
         12    1    4    4    0    0  0.95477337187E+02 -0.36716323895E+02  0.20312694916E+03  0.22743035820E+03  0.00000000000E+00 0. -1.
         -5    1    5    5    0  502 -0.12648115577E+02 -0.50972697395E+02  0.11644189246E+03  0.12782407843E+03  0.47000000000E+01 0.  1.
         13    1    6    6    0    0 -0.66440144758E+02  0.43579813798E+02  0.73212747734E+02  0.10804443270E+03  0.00000000000E+00 0. -1.
        -14    1    6    6    0    0 -0.91081056381E+02 -0.33938935314E+02  0.94652076595E+02  0.13567102036E+03  0.00000000000E+00 0.  1.
<mgrwt>
<rscale>  2 0.24426233E+03</rscale>
<asrwt>0</asrwt>
<pdfrwt beam="1">  1       21 0.12782077E+00 0.24597729E+03</pdfrwt>
<pdfrwt beam="2">  1       21 0.11337486E-01 0.24597729E+03</pdfrwt>
<totfact> 0.28439545E+04</totfact>
</mgrwt>
</event>
<event>
12    1  0.1071811E-001  0.1754314E+03  0.7546771E-02  0.1176963E+00
         21   -1    0    0  503  502  0.00000000000E+00  0.00000000000E+00  0.47665716372E+02  0.47665716372E+02  0.00000000000E+00 0. -1.
         21   -1    0    0  501  503 -0.00000000000E+00 -0.00000000000E+00 -0.70580003778E+03  0.70580003778E+03  0.00000000000E+00 0. -1.
          6    2    1    2  501    0 -0.18830021266E+02 -0.20251692887E+02 -0.47201410900E+03  0.49769848988E+03  0.15537621107E+03 0.  0.
         24    2    3    3    0    0  0.76735881203E+01 -0.68482270972E+01 -0.12420480408E+03  0.14859177726E+03  0.80912920750E+02 0.  0.
         -6    2    1    2    0  502  0.18830021266E+02  0.20251692887E+02 -0.18612021241E+03  0.25576726427E+03  0.17323815758E+03 0.  0.
        -24    2    5    5    0    0  0.40427329980E+02  0.71906385375E+02 -0.10607582686E+03  0.15797235307E+03  0.83055921060E+02 0.  0.
          5    1    3    3  501    0 -0.26503609386E+02 -0.13403465790E+02 -0.34780930492E+03  0.34910671262E+03  0.47000000000E+01 0. -1.
        -13    1    4    4    0    0  0.43667989278E+02 -0.11280225912E+02 -0.63691560895E+02  0.78043268214E+02  0.00000000000E+00 0.  1.
         14    1    4    4    0    0 -0.35994401158E+02  0.44319988144E+01 -0.60513243185E+02  0.70548509048E+02  0.00000000000E+00 0. -1.
         -5    1    5    5    0  502 -0.21597308714E+02 -0.51654692488E+02 -0.80044385550E+02  0.97794911206E+02  0.47000000000E+01 0.  1.
         13    1    6    6    0    0  0.45709500531E+02  0.28085675138E+02 -0.99914242243E+02  0.11340643452E+03  0.00000000000E+00 0. -1.
        -14    1    6    6    0    0 -0.52821705506E+01  0.43820710237E+02 -0.61615846161E+01  0.44565918552E+02  0.00000000000E+00 0.  1.
<mgrwt>
<rscale>  2 0.17085175E+03</rscale>
<asrwt>0</asrwt>
<pdfrwt beam="1">  1       21 0.73331877E-02 0.17543135E+03</pdfrwt>
<pdfrwt beam="2">  1       21 0.10858461E+00 0.17543135E+03</pdfrwt>
<totfact> 0.94757964E+04</totfact>
</mgrwt>
</event>
<event>
12    1  0.1071811E-001  0.1939525E+03  0.7546771E-02  0.1155082E+00
         21   -1    0    0  501  502  0.00000000000E+00  0.00000000000E+00  0.13337618024E+03  0.13337618024E+03  0.00000000000E+00 0.  1.
         21   -1    0    0  502  503 -0.00000000000E+00 -0.00000000000E+00 -0.28152488273E+03  0.28152488273E+03  0.00000000000E+00 0. -1.
         -6    2    1    2    0  503  0.72499141323E+02 -0.49955407046E+02 -0.66410046105E+02  0.20500699284E+03  0.17281754744E+03 0.  0.
        -24    2    3    3    0    0 -0.10865042054E+02 -0.30293511353E+02 -0.79567860554E+02  0.11822338094E+03  0.81301767504E+02 0.  0.
          6    2    1    2  501    0 -0.72499141323E+02  0.49955407046E+02 -0.81738656380E+02  0.20989407013E+03  0.17211230213E+03 0.  0.
         24    2    5    5    0    0 -0.69164673045E+02  0.97769288157E+02 -0.53607727219E+02  0.15412019560E+03  0.80849616997E+02 0.  0.
          5    1    5    5  501    0 -0.33344682786E+01 -0.47813881110E+02 -0.28130929161E+02  0.55773874538E+02  0.47000000000E+01 0. -1.
        -13    1    6    6    0    0 -0.19879535308E+02  0.82325625968E+02 -0.77395569003E+01  0.85044725622E+02  0.00000000000E+00 0.  1.
         14    1    6    6    0    0 -0.49285137737E+02  0.15443662188E+02 -0.45868170319E+02  0.69075469973E+02  0.00000000000E+00 0. -1.
         -5    1    3    3    0  503  0.83364183378E+02 -0.19661895694E+02  0.13157814449E+02  0.86783611895E+02  0.47000000000E+01 0.  1.
         13    1    4    4    0    0 -0.16085162365E+02 -0.27780886631E+02  0.58321894062E+01  0.32627052327E+02  0.00000000000E+00 0. -1.
        -14    1    4    4    0    0  0.52201203105E+01 -0.25126247219E+01 -0.85400049960E+02  0.85596328615E+02  0.00000000000E+00 0.  1.
<mgrwt>
<rscale>  2 0.19379528E+03</rscale>
<asrwt>0</asrwt>
<pdfrwt beam="1">  1       21 0.20519412E-01 0.19395250E+03</pdfrwt>
<pdfrwt beam="2">  1       21 0.43311520E-01 0.19395250E+03</pdfrwt>
<totfact> 0.11270721E+05</totfact>
</mgrwt>
</event>
<event>
12    1  0.1071811E-001  0.1970536E+03  0.7546771E-02  0.1152373E+00
         21   -1    0    0  501  502  0.00000000000E+00  0.00000000000E+00  0.44956790721E+02  0.44956790721E+02  0.00000000000E+00 0.  1.
         21   -1    0    0  502  503 -0.00000000000E+00 -0.00000000000E+00 -0.86786031801E+03  0.86786031801E+03  0.00000000000E+00 0.  1.
         -6    2    1    2    0  503  0.45590728094E+02  0.81727041926E+02 -0.37206492199E+03  0.42102543960E+03  0.17341364058E+03 0.  0.
        -24    2    3    3    0    0 -0.55569734126E+01  0.14735841495E+02 -0.64508829682E+02  0.10209480729E+03  0.77549568606E+02 0.  0.
          6    2    1    2  501    0 -0.45590728094E+02 -0.81727041926E+02 -0.45083860529E+03  0.49179166913E+03  0.17275929479E+03 0.  0.
         24    2    5    5    0    0 -0.31595199324E+02 -0.92054059173E+02 -0.17761528990E+03  0.21797495637E+03  0.80583397607E+02 0.  0.
          5    1    5    5  501    0 -0.13995528770E+02  0.10327017248E+02 -0.27322331539E+03  0.27381671276E+03  0.47000000000E+01 0. -1.
        -11    1    6    6    0    0 -0.38852312761E+02 -0.68554403660E+02 -0.17657344971E+03  0.19335819510E+03  0.00000000000E+00 0.  1.
         12    1    6    6    0    0  0.72571134369E+01 -0.23499655513E+02 -0.10418401840E+01  0.24616761274E+02  0.00000000000E+00 0. -1.
         -5    1    3    3    0  503  0.51147701507E+02  0.66991200430E+02 -0.30755609231E+03  0.31893063231E+03  0.47000000000E+01 0.  1.
         13    1    4    4    0    0  0.75147781140E+01 -0.28984564133E+02 -0.40978877007E+02  0.50752785232E+02  0.00000000000E+00 0. -1.
        -14    1    4    4    0    0 -0.13071751527E+02  0.43720405628E+02 -0.23529952676E+02  0.51342022060E+02  0.00000000000E+00 0.  1.
<mgrwt>
<rscale>  2 0.19690953E+03</rscale>
<asrwt>0</asrwt>
<pdfrwt beam="1">  1       21 0.69164295E-02 0.19705358E+03</pdfrwt>
<pdfrwt beam="2">  1       21 0.13351697E+00 0.19705358E+03</pdfrwt>
<totfact> 0.62252352E+04</totfact>
</mgrwt>
</event>
<event>
12    1  0.1071811E-001  0.1770667E+03  0.7546771E-02  0.1170700E+00
         21   -1    0    0  501  502  0.00000000000E+00  0.00000000000E+00  0.33487666291E+03  0.33487666291E+03  0.00000000000E+00 0. -1.
         21   -1    0    0  502  503 -0.00000000000E+00 -0.00000000000E+00 -0.10039911202E+03  0.10039911202E+03  0.00000000000E+00 0. -1.
         -6    2    1    2    0  503  0.30822258237E+02  0.23125373791E+02  0.60492982725E+02  0.18711494365E+03  0.17282305014E+03 0.  0.
        -24    2    3    3    0    0  0.23147255959E+02 -0.53526627133E+02  0.42105337019E+02  0.10777623670E+03  0.80261837264E+02 0.  0.
          6    2    1    2  501    0 -0.30822258237E+02 -0.23125373791E+02  0.17398456817E+03  0.24816083128E+03  0.17270892769E+03 0.  0.
         24    2    5    5    0    0 -0.27824912700E+02 -0.82140349988E+02  0.10833158189E+03  0.15970657133E+03  0.79051846456E+02 0.  0.
          5    1    5    5  501    0 -0.29973455362E+01  0.59014976197E+02  0.65652986282E+02  0.88454259951E+02  0.47000000000E+01 0. -1.
        -13    1    6    6    0    0 -0.18263988105E+02 -0.15826493805E+02  0.85615194965E+02  0.88960737276E+02  0.00000000000E+00 0.  1.
         14    1    6    6    0    0 -0.95609245959E+01 -0.66313856183E+02  0.22716386922E+02  0.70745834053E+02  0.00000000000E+00 0. -1.
         -5    1    3    3    0  503  0.76750022780E+01  0.76652000923E+02  0.18387645706E+02  0.79338706948E+02  0.47000000000E+01 0.  1.
         11    1    4    4    0    0  0.42362491755E+02 -0.40116204864E+02  0.55720027034E+02  0.80675969241E+02  0.00000000000E+00 0. -1.
        -12    1    4    4    0    0 -0.19215235796E+02 -0.13410422269E+02 -0.13614690015E+02  0.27100267458E+02  0.00000000000E+00 0.  1.
<mgrwt>
<rscale>  2 0.17703880E+03</rscale>
<asrwt>0</asrwt>
<pdfrwt beam="1">  1       21 0.51519486E-01 0.17706666E+03</pdfrwt>
<pdfrwt beam="2">  1       21 0.15446017E-01 0.17706666E+03</pdfrwt>
<totfact> 0.13382126E+05</totfact>
</mgrwt>
</event>
<event>
12    1  0.1071811E-001  0.2234601E+03  0.7546771E-02  0.1131511E+00
         21   -1    0    0  501  502  0.00000000000E+00  0.00000000000E+00  0.88088128954E+03  0.88088128954E+03  0.00000000000E+00 0. -1.
         21   -1    0    0  502  503 -0.00000000000E+00 -0.00000000000E+00 -0.13795347443E+03  0.13795347443E+03  0.00000000000E+00 0. -1.
         -6    2    1    2    0  503 -0.13936514970E+03  0.22087095243E+02 -0.19790544802E+02  0.22433473802E+03  0.17327413047E+03 0.  0.
        -24    2    3    3    0    0 -0.10063758923E+03 -0.49185763098E+02 -0.34761627676E+02  0.14171592903E+03  0.79547910879E+02 0.  0.
          6    2    1    2  501    0  0.13936514970E+03 -0.22087095243E+02  0.76271835992E+03  0.79450002595E+03  0.17198985420E+03 0.  0.
         24    2    5    5    0    0  0.62420837397E+02 -0.74458694308E+02  0.50566808404E+03  0.52107700952E+03  0.79878536119E+02 0.  0.
          5    1    5    5  501    0  0.76944312307E+02  0.52371599064E+02  0.25705027587E+03  0.27342301643E+03  0.47000000000E+01 0. -1.
        -13    1    6    6    0    0  0.18223509409E+02 -0.60360106504E+02  0.15468955548E+03  0.16704579410E+03  0.00000000000E+00 0.  1.
         14    1    6    6    0    0  0.44197327989E+02 -0.14098587803E+02  0.35097852856E+03  0.35403121542E+03  0.00000000000E+00 0. -1.
         -5    1    3    3    0  503 -0.38727560474E+02  0.71272858341E+02  0.14971082874E+02  0.82618808989E+02  0.47000000000E+01 0.  1.
         11    1    4    4    0    0 -0.92082126360E+02 -0.13949840507E+02 -0.24760429353E+01  0.93165695585E+02  0.00000000000E+00 0. -1.
        -12    1    4    4    0    0 -0.85554628701E+01 -0.35235922591E+02 -0.32285584741E+02  0.48550233447E+02  0.00000000000E+00 0.  1.
<mgrwt>
<rscale>  2 0.22321108E+03</rscale>
<asrwt>0</asrwt>
<pdfrwt beam="1">  1       21 0.13552019E+00 0.22346008E+03</pdfrwt>
<pdfrwt beam="2">  1       21 0.21223612E-01 0.22346008E+03</pdfrwt>
<totfact> 0.78541850E+03</totfact>
</mgrwt>
</event>
<event>
12    1  0.1071811E-001  0.1888156E+03  0.7546771E-02  0.1160900E+00
         21   -1    0    0  501  502  0.00000000000E+00  0.00000000000E+00  0.17152279842E+03  0.17152279842E+03  0.00000000000E+00 0. -1.
         21   -1    0    0  502  503 -0.00000000000E+00 -0.00000000000E+00 -0.20449596448E+03  0.20449596448E+03  0.00000000000E+00 0.  1.
         -6    2    1    2    0  503  0.72202619195E+02  0.89428701308E+01  0.63802780083E+01  0.18892336266E+03  0.17423586275E+03 0.  0.
        -24    2    3    3    0    0  0.11479894173E+03  0.26285580194E+02 -0.41821170134E+00  0.14219515119E+03  0.79684109910E+02 0.  0.
          6    2    1    2  501    0 -0.72202619195E+02 -0.89428701308E+01 -0.39353444073E+02  0.18709540024E+03  0.16781776451E+03 0.  0.
         24    2    5    5    0    0 -0.10118085799E+03 -0.21084263555E+02 -0.66820254690E+02  0.14509935943E+03  0.76855484373E+02 0.  0.
          5    1    5    5  501    0  0.28978238792E+02  0.12141393424E+02  0.27466810616E+02  0.41996040804E+02  0.47000000000E+01 0. -1.
        -11    1    6    6    0    0 -0.63589947309E+02 -0.46430531514E+02 -0.22954878144E+02  0.82014645558E+02  0.00000000000E+00 0.  1.
         12    1    6    6    0    0 -0.37590910678E+02  0.25346267959E+02 -0.43865376546E+02  0.63084713874E+02  0.00000000000E+00 0. -1.
         -5    1    3    3    0  503 -0.42596322531E+02 -0.17342710063E+02  0.67984897097E+01  0.46728211477E+02  0.47000000000E+01 0.  1.
         11    1    4    4    0    0  0.10015281660E+03  0.43292845343E+02  0.21067166009E+02  0.11112462649E+03  0.00000000000E+00 0. -1.
        -12    1    4    4    0    0  0.14646125131E+02 -0.17007265149E+02 -0.21485377711E+02  0.31070524691E+02  0.00000000000E+00 0.  1.
<mgrwt>
<rscale>  2 0.18732151E+03</rscale>
<asrwt>0</asrwt>
<pdfrwt beam="1">  1       21 0.26388123E-01 0.18881560E+03</pdfrwt>
<pdfrwt beam="2">  1       21 0.31460918E-01 0.18881560E+03</pdfrwt>
<totfact> 0.13280120E+05</totfact>
</mgrwt>
</event>
<event>
12    1  0.1071811E-001  0.2871382E+03  0.7546771E-02  0.1091956E+00
         21   -1    0    0  501  502  0.00000000000E+00  0.00000000000E+00  0.75092182238E+02  0.75092182238E+02  0.00000000000E+00 0.  1.
         21   -1    0    0  502  503 -0.00000000000E+00 -0.00000000000E+00 -0.11351251937E+04  0.11351251937E+04  0.00000000000E+00 0.  1.
         -6    2    1    2    0  503 -0.17992460334E+03  0.14213711185E+03 -0.64310351585E+03  0.70397777620E+03  0.17154228582E+03 0.  0.
        -24    2    3    3    0    0 -0.13542578428E+03  0.15543212645E+03 -0.40710089523E+03  0.46340298689E+03  0.80696346740E+02 0.  0.
          6    2    1    2  501    0  0.17992460334E+03 -0.14213711185E+03 -0.41692949561E+03  0.50623959974E+03  0.17283664711E+03 0.  0.
         24    2    5    5    0    0  0.11305279187E+03 -0.16479409299E+03 -0.29565880772E+03  0.36583358953E+03  0.80511227839E+02 0.  0.
          5    1    5    5  501    0  0.66871811466E+02  0.22656981140E+02 -0.12127068789E+03  0.14040601021E+03  0.47000000000E+01 0. -1.
        -11    1    6    6    0    0  0.73158613212E+02 -0.39391554956E+02 -0.99629579997E+02  0.12973022200E+03  0.00000000000E+00 0.  1.
         12    1    6    6    0    0  0.39894178658E+02 -0.12540253804E+03 -0.19602922772E+03  0.23610336753E+03  0.00000000000E+00 0. -1.
         -5    1    3    3    0  503 -0.44498819058E+02 -0.13295014601E+02 -0.23600262062E+03  0.24057478931E+03  0.47000000000E+01 0.  1.
         13    1    4    4    0    0 -0.10930417432E+02  0.56746642504E+02 -0.70216990585E+02  0.90939986956E+02  0.00000000000E+00 0. -1.
        -14    1    4    4    0    0 -0.12449536685E+03  0.98685483951E+02 -0.33688390465E+03  0.37246299993E+03  0.00000000000E+00 0.  1.
<mgrwt>
<rscale>  2 0.28694366E+03</rscale>
<asrwt>0</asrwt>
<pdfrwt beam="1">  1       21 0.11552644E-01 0.28713817E+03</pdfrwt>
<pdfrwt beam="2">  1       21 0.17463463E+00 0.28713817E+03</pdfrwt>
<totfact> 0.11699918E+04</totfact>
</mgrwt>
</event>
<event>
12    1  0.1071811E-001  0.2123535E+03  0.7546771E-02  0.1139861E+00
         21   -1    0    0  503  502  0.00000000000E+00  0.00000000000E+00  0.43227186577E+03  0.43227186577E+03  0.00000000000E+00 0.  1.
         21   -1    0    0  501  503 -0.00000000000E+00 -0.00000000000E+00 -0.10900969231E+03  0.10900969231E+03  0.00000000000E+00 0. -1.
          6    2    1    2  501    0 -0.10005215518E+03 -0.71526275256E+02  0.21964274616E+03  0.30499571452E+03  0.17220048818E+03 0.  0.
         24    2    3    3    0    0 -0.12292008992E+03 -0.41701917433E+02  0.21985536049E+03  0.26711999718E+03  0.78538620653E+02 0.  0.
         -6    2    1    2    0  502  0.10005215518E+03  0.71526275256E+02  0.10361942731E+03  0.23628584355E+03  0.17311144486E+03 0.  0.
        -24    2    5    5    0    0  0.11693915961E+03  0.10178245413E+03  0.99300061228E+02  0.20105298670E+03  0.80792117698E+02 0.  0.
          5    1    3    3  501    0  0.22867934748E+02 -0.29824357822E+02 -0.21261433258E+00  0.37875717340E+02  0.47000000000E+01 0. -1.
        -11    1    4    4    0    0 -0.16254517649E+02 -0.34876194391E+02  0.96568265366E+02  0.10395185499E+03  0.00000000000E+00 0.  1.
         12    1    4    4    0    0 -0.10666557227E+03 -0.68257230425E+01  0.12328709512E+03  0.16316814219E+03  0.00000000000E+00 0. -1.
         -5    1    5    5    0  502 -0.16887004435E+02 -0.30256178874E+02  0.43193660776E+01  0.35232856855E+02  0.47000000000E+01 0.  1.
         11    1    6    6    0    0  0.82110861375E+02  0.23364096189E+02  0.29110066820E+02  0.90196843275E+02  0.00000000000E+00 0. -1.
        -12    1    6    6    0    0  0.34828298235E+02  0.78418357940E+02  0.70189994408E+02  0.11085614342E+03  0.00000000000E+00 0.  1.
<mgrwt>
<rscale>  2 0.21216778E+03</rscale>
<asrwt>0</asrwt>
<pdfrwt beam="1">  1       21 0.66503363E-01 0.21235351E+03</pdfrwt>
<pdfrwt beam="2">  1       21 0.16770722E-01 0.21235351E+03</pdfrwt>
<totfact> 0.65730257E+04</totfact>
</mgrwt>
</event>
<event>
12    1  0.1071811E-001  0.1926097E+03  0.7546771E-02  0.1156385E+00
         21   -1    0    0  503  502  0.00000000000E+00  0.00000000000E+00  0.36080715438E+03  0.36080715438E+03  0.00000000000E+00 0. -1.
         21   -1    0    0  501  503 -0.00000000000E+00 -0.00000000000E+00 -0.10553636554E+03  0.10553636554E+03  0.00000000000E+00 0. -1.
          6    2    1    2  501    0 -0.83402420526E+02  0.21897519835E+02  0.85832886354E+02  0.20981337351E+03  0.17093537433E+03 0.  0.
         24    2    3    3    0    0 -0.31443611659E+02  0.74678551941E+02  0.37106519589E+02  0.12103328572E+03  0.81893684873E+02 0.  0.
         -6    2    1    2    0  502  0.83402420526E+02 -0.21897519835E+02  0.16943790249E+03  0.25653014641E+03  0.17222963768E+03 0.  0.
        -24    2    5    5    0    0  0.77896660591E+02 -0.39596296775E+01  0.29572829448E+02  0.11533379394E+03  0.79647745631E+02 0.  0.
          5    1    3    3  501    0 -0.51958808867E+02 -0.52781032107E+02  0.48726366765E+02  0.88780087786E+02  0.47000000000E+01 0. -1.
        -11    1    4    4    0    0 -0.17468069409E+02 -0.16279099786E+01 -0.18569367013E+02  0.25546133387E+02  0.00000000000E+00 0.  1.
         12    1    4    4    0    0 -0.13975542250E+02  0.76306461920E+02  0.55675886602E+02  0.95487152334E+02  0.00000000000E+00 0. -1.
         -5    1    5    5    0  502  0.55057599355E+01 -0.17937890157E+02  0.13986507304E+03  0.14119635247E+03  0.47000000000E+01 0.  1.
         13    1    6    6    0    0  0.41293271527E+02  0.10817816554E+02 -0.23859198553E+02  0.48902155208E+02  0.00000000000E+00 0. -1.
        -14    1    6    6    0    0  0.36603389064E+02 -0.14777446232E+02  0.53432028000E+02  0.66431638730E+02  0.00000000000E+00 0.  1.
<mgrwt>
<rscale>  2 0.19231998E+03</rscale>
<asrwt>0</asrwt>
<pdfrwt beam="1">  1       21 0.55508793E-01 0.19260974E+03</pdfrwt>
<pdfrwt beam="2">  1       21 0.16236364E-01 0.19260974E+03</pdfrwt>
<totfact> 0.10384167E+05</totfact>
</mgrwt>
</event>
<event>
12    1  0.1071811E-001  0.1768940E+03  0.7546771E-02  0.1170916E+00
         21   -1    0    0  503  502  0.00000000000E+00  0.00000000000E+00  0.16539696205E+02  0.16539696205E+02  0.00000000000E+00 0.  1.
         21   -1    0    0  501  503 -0.00000000000E+00 -0.00000000000E+00 -0.19209640544E+04  0.19209640544E+04  0.00000000000E+00 0.  1.
          6    2    1    2  501    0  0.31658443943E+02  0.21359407039E+02 -0.82601169635E+03  0.84467925898E+03  0.17242171180E+03 0.  0.
         24    2    3    3    0    0 -0.16196556011E+02 -0.38296128667E+02 -0.31979875765E+03  0.33270024254E+03  0.81788043732E+02 0.  0.
         -6    2    1    2    0  502 -0.31658443943E+02 -0.21359407039E+02 -0.10784126619E+04  0.10928244917E+04  0.17272237530E+03 0.  0.
        -24    2    5    5    0    0 -0.61305828971E+02  0.31916976532E+02 -0.84639904237E+03  0.85288752051E+03  0.79048628484E+02 0.  0.
          5    1    3    3  501    0  0.47854999954E+02  0.59655535706E+02 -0.50621293871E+03  0.51197901644E+03  0.47000000000E+01 0. -1.
        -13    1    4    4    0    0  0.30065674942E+02 -0.19132694431E+02 -0.77778746569E+02  0.85554299855E+02  0.00000000000E+00 0.  1.
         14    1    4    4    0    0 -0.46262230952E+02 -0.19163434237E+02 -0.24202001108E+03  0.24714594269E+03  0.00000000000E+00 0. -1.
         -5    1    5    5    0  502  0.29647385028E+02 -0.53276383571E+02 -0.23201361950E+03  0.23993697114E+03  0.47000000000E+01 0.  1.
         11    1    6    6    0    0  0.39997160912E+00  0.42376696975E+02 -0.33036616660E+03  0.33307318784E+03  0.00000000000E+00 0. -1.
        -12    1    6    6    0    0 -0.61705800581E+02 -0.10459720443E+02 -0.51603287577E+03  0.51981433267E+03  0.00000000000E+00 0.  1.
<mgrwt>
<rscale>  2 0.17682060E+03</rscale>
<asrwt>0</asrwt>
<pdfrwt beam="1">  1       21 0.25445676E-02 0.17689404E+03</pdfrwt>
<pdfrwt beam="2">  1       21 0.29553305E+00 0.17689404E+03</pdfrwt>
<totfact> 0.30529943E+04</totfact>
</mgrwt>
</event>
<event>
12    1  0.1071811E-001  0.2011916E+03  0.7546771E-02  0.1149270E+00
         21   -1    0    0  501  502  0.00000000000E+00  0.00000000000E+00  0.15968909322E+03  0.15968909322E+03  0.00000000000E+00 0. -1.
         21   -1    0    0  502  503 -0.00000000000E+00 -0.00000000000E+00 -0.25041186712E+03  0.25041186712E+03  0.00000000000E+00 0.  1.
         -6    2    1    2    0  503  0.21014636835E+02  0.96047991137E+02 -0.49857845276E+02  0.20727722022E+03  0.17553122151E+03 0.  0.
        -24    2    3    3    0    0  0.31546186146E+02 -0.12918733278E+02  0.53932262515E+01  0.84560344994E+02  0.77196564212E+02 0.  0.
          6    2    1    2  501    0 -0.21014636835E+02 -0.96047991137E+02 -0.40864928620E+02  0.20282374012E+03  0.17262877976E+03 0.  0.
         24    2    5    5    0    0 -0.50415294604E+02 -0.10211323828E+03  0.14920856884E+02  0.13929949463E+03  0.78821963131E+02 0.  0.
          5    1    5    5  501    0  0.29400657769E+02  0.60652471459E+01 -0.55785785504E+02  0.63524245485E+02  0.47000000000E+01 0. -1.
        -11    1    6    6    0    0 -0.23296133320E+02 -0.88576631439E+01  0.32134680854E+02  0.40667010434E+02  0.00000000000E+00 0.  1.
         12    1    6    6    0    0 -0.27119161284E+02 -0.93255575139E+02 -0.17213823970E+02  0.98632484197E+02  0.00000000000E+00 0. -1.
         -5    1    3    3    0  503 -0.10531549311E+02  0.10896672441E+03 -0.55251071528E+02  0.12271687523E+03  0.47000000000E+01 0.  1.
         13    1    4    4    0    0 -0.24543196185E+02  0.54927257857E+01  0.43071164813E+01  0.25516460725E+02  0.00000000000E+00 0. -1.
        -14    1    4    4    0    0  0.56089382331E+02 -0.18411459063E+02  0.10861097702E+01  0.59043884269E+02  0.00000000000E+00 0.  1.
<mgrwt>
<rscale>  2 0.20055676E+03</rscale>
<asrwt>0</asrwt>
<pdfrwt beam="1">  1       21 0.24567553E-01 0.20119155E+03</pdfrwt>
<pdfrwt beam="2">  1       21 0.38524903E-01 0.20119155E+03</pdfrwt>
<totfact> 0.10139396E+05</totfact>
</mgrwt>
</event>
<event>
12    1  0.1071811E-001  0.1731187E+03  0.7546771E-02  0.1174718E+00
         21   -1    0    0  503  502  0.00000000000E+00  0.00000000000E+00  0.64088000151E+03  0.64088000151E+03  0.00000000000E+00 0. -1.
         21   -1    0    0  501  503 -0.00000000000E+00 -0.00000000000E+00 -0.13228316688E+03  0.13228316688E+03  0.00000000000E+00 0. -1.
          6    2    1    2  501    0  0.16226402525E+02 -0.31965269490E+01 -0.56777555624E+02  0.18187787160E+03  0.17199521922E+03 0.  0.
         24    2    3    3    0    0  0.73978000704E+02  0.14151077659E+02 -0.25492211254E+02  0.11378198883E+03  0.81384830046E+02 0.  0.
         -6    2    1    2    0  502 -0.16226402525E+02  0.31965269490E+01  0.56537439025E+03  0.59128529678E+03  0.17232697731E+03 0.  0.
        -24    2    5    5    0    0 -0.20432718453E+02  0.52440830561E+02  0.49621455138E+03  0.50615088631E+03  0.82415423453E+02 0.  0.
          5    1    3    3  501    0 -0.57751598179E+02 -0.17347604608E+02 -0.31285344370E+02  0.68095882770E+02  0.47000000000E+01 0. -1.
        -13    1    4    4    0    0  0.41404569292E+02  0.48260570608E+02 -0.11833857338E+02  0.64679681610E+02  0.00000000000E+00 0.  1.
         14    1    4    4    0    0  0.32573431412E+02 -0.34109492948E+02 -0.13658353916E+02  0.49102307225E+02  0.00000000000E+00 0. -1.
         -5    1    5    5    0  502  0.42063159282E+01 -0.49244303612E+02  0.69159838876E+02  0.85134410466E+02  0.47000000000E+01 0.  1.
         13    1    6    6    0    0  0.28340664415E+02  0.21698094687E+00  0.14085953540E+03  0.14368245910E+03  0.00000000000E+00 0. -1.
        -14    1    6    6    0    0 -0.48773382868E+02  0.52223849614E+02  0.35535501598E+03  0.36246842721E+03  0.00000000000E+00 0.  1.
<mgrwt>
<rscale>  2 0.17303613E+03</rscale>
<asrwt>0</asrwt>
<pdfrwt beam="1">  1       21 0.98596921E-01 0.17311875E+03</pdfrwt>
<pdfrwt beam="2">  1       21 0.20351257E-01 0.17311875E+03</pdfrwt>
<totfact> 0.19202908E+04</totfact>
</mgrwt>
</event>
<event>
12    1  0.1071811E-001  0.2293964E+03  0.7546771E-02  0.1127264E+00
         21   -1    0    0  501  502  0.00000000000E+00  0.00000000000E+00  0.37313100041E+03  0.37313100041E+03  0.00000000000E+00 0. -1.
         21   -1    0    0  502  503 -0.00000000000E+00 -0.00000000000E+00 -0.22391458226E+03  0.22391458226E+03  0.00000000000E+00 0.  1.
         -6    2    1    2    0  503 -0.98496267906E+02 -0.11226879585E+03 -0.10788156731E+03  0.25248485845E+03  0.17263943312E+03 0.  0.
        -24    2    3    3    0    0 -0.39587312138E+02 -0.36838537678E+02  0.13026850280E+02  0.98209376399E+02  0.80939172493E+02 0.  0.
          6    2    1    2  501    0  0.98496267906E+02  0.11226879585E+03  0.25709798546E+03  0.34456072423E+03  0.17411755006E+03 0.  0.
         24    2    5    5    0    0  0.81480672272E+02  0.69119466148E+02  0.68927011151E+02  0.15070046342E+03  0.80889407545E+02 0.  0.
          5    1    5    5  501    0  0.17015595633E+02  0.43149329704E+02  0.18817097431E+03  0.19386026081E+03  0.47000000000E+01 0. -1.
        -11    1    6    6    0    0  0.95659608586E+02  0.67060120364E+02  0.50279677327E+02  0.12718437958E+03  0.00000000000E+00 0.  1.
         12    1    6    6    0    0 -0.14178936314E+02  0.20593457844E+01  0.18647333824E+02  0.23516083832E+02  0.00000000000E+00 0. -1.
         -5    1    3    3    0  503 -0.58908955768E+02 -0.75430258174E+02 -0.12090841759E+03  0.15427548205E+03  0.47000000000E+01 0.  1.
         11    1    4    4    0    0 -0.44842463309E+02 -0.31925972958E+02  0.41438988942E+02  0.68900682649E+02  0.00000000000E+00 0. -1.
        -12    1    4    4    0    0  0.52551511714E+01 -0.49125647204E+01 -0.28412138662E+02  0.29308693750E+02  0.00000000000E+00 0.  1.
<mgrwt>
<rscale>  2 0.22911593E+03</rscale>
<asrwt>0</asrwt>
<pdfrwt beam="1">  1       21 0.57404769E-01 0.22939642E+03</pdfrwt>
<pdfrwt beam="2">  1       21 0.34448397E-01 0.22939642E+03</pdfrwt>
<totfact> 0.22662813E+04</totfact>
</mgrwt>
</event>
<event>
12    1  0.1071811E-001  0.3040848E+03  0.7546771E-02  0.1083695E+00
         21   -1    0    0  501  502  0.00000000000E+00  0.00000000000E+00  0.58687948165E+03  0.58687948165E+03  0.00000000000E+00 0. -1.
         21   -1    0    0  502  503 -0.00000000000E+00 -0.00000000000E+00 -0.37285676706E+03  0.37285676706E+03  0.00000000000E+00 0.  1.
         -6    2    1    2    0  503  0.20523125200E+03  0.13407389822E+03 -0.25903416738E+03  0.39945744640E+03  0.17992185701E+03 0.  0.
        -24    2    3    3    0    0  0.17174844857E+03  0.16459943248E+03 -0.23834107822E+03  0.34942545357E+03  0.93280090471E+02 0.  0.
          6    2    1    2  501    0 -0.20523125200E+03 -0.13407389822E+03  0.47305688197E+03  0.56027880231E+03  0.17330275751E+03 0.  0.
         24    2    5    5    0    0 -0.17063571555E+03 -0.42117651621E+02  0.37091148193E+03  0.41847409442E+03  0.81576934697E+02 0.  0.
          5    1    5    5  501    0 -0.34595536445E+02 -0.91956246598E+02  0.10214540004E+03  0.14180470789E+03  0.47000000000E+01 0. -1.
        -11    1    6    6    0    0 -0.35284425602E+02 -0.17052511842E+02  0.25790016024E+02  0.46913790901E+02  0.00000000000E+00 0.  1.
         12    1    6    6    0    0 -0.13535128995E+03 -0.25065139780E+02  0.34512146591E+03  0.37156030352E+03  0.00000000000E+00 0. -1.
         -5    1    3    3    0  503  0.33482803431E+02 -0.30525534258E+02 -0.20693089164E+02  0.50031992829E+02  0.47000000000E+01 0.  1.
         11    1    4    4    0    0 -0.26150325266E+01  0.42096390423E+02 -0.33797844253E+02  0.54048485251E+02  0.00000000000E+00 0. -1.
        -12    1    4    4    0    0  0.17436348109E+03  0.12250304205E+03 -0.20454323396E+03  0.29537696832E+03  0.00000000000E+00 0.  1.
<mgrwt>
<rscale>  2 0.30311288E+03</rscale>
<asrwt>0</asrwt>
<pdfrwt beam="1">  1       21 0.90289151E-01 0.30408478E+03</pdfrwt>
<pdfrwt beam="2">  1       21 0.57362579E-01 0.30408478E+03</pdfrwt>
<totfact> 0.27538677E+03</totfact>
</mgrwt>
</event>
<event>
12    1  0.1071811E-001  0.2286219E+03  0.7546771E-02  0.1127910E+00
         21   -1    0    0  503  502  0.00000000000E+00  0.00000000000E+00  0.24922606181E+03  0.24922606181E+03  0.00000000000E+00 0. -1.
         21   -1    0    0  501  503 -0.00000000000E+00 -0.00000000000E+00 -0.25632507679E+03  0.25632507679E+03  0.00000000000E+00 0. -1.
          6    2    1    2  501    0 -0.72591286462E+02 -0.12818973218E+03 -0.11308892847E+03  0.25506287837E+03  0.17483095799E+03 0.  0.
         24    2    3    3    0    0 -0.68104969814E+02 -0.96916989184E+02 -0.59476187589E+01  0.14326188670E+03  0.80357975996E+02 0.  0.
         -6    2    1    2    0  502  0.72591286462E+02  0.12818973218E+03  0.10598991349E+03  0.25048826023E+03  0.17265110612E+03 0.  0.
        -24    2    5    5    0    0  0.64829614561E+02  0.11514909610E+03  0.14195045834E+03  0.21117474442E+03  0.83562233092E+02 0.  0.
          5    1    3    3  501    0 -0.44863166480E+01 -0.31272743000E+02 -0.10714130971E+03  0.11180099167E+03  0.47000000000E+01 0. -1.
        -11    1    4    4    0    0 -0.76721131090E+01  0.23502956682E+01 -0.24313891383E+02  0.25603720891E+02  0.00000000000E+00 0.  1.
         12    1    4    4    0    0 -0.60432856705E+02 -0.99267284852E+02  0.18366272624E+02  0.11765816581E+03  0.00000000000E+00 0. -1.
         -5    1    5    5    0  502  0.77616719010E+01  0.13040636084E+02 -0.35960544847E+02  0.39313515817E+02  0.47000000000E+01 0.  1.
         13    1    6    6    0    0  0.76596629746E+02  0.59367492109E+02  0.10673367897E+03  0.14416525599E+03  0.00000000000E+00 0. -1.
        -14    1    6    6    0    0 -0.11767015185E+02  0.55781603990E+02  0.35216779371E+02  0.67009488428E+02  0.00000000000E+00 0.  1.
<mgrwt>
<rscale>  2 0.22820509E+03</rscale>
<asrwt>0</asrwt>
<pdfrwt beam="1">  1       21 0.38342471E-01 0.22862188E+03</pdfrwt>
<pdfrwt beam="2">  1       21 0.39434627E-01 0.22862188E+03</pdfrwt>
<totfact> 0.39951782E+04</totfact>
</mgrwt>
</event>
<event>
12    1  0.1071811E-001  0.2255019E+03  0.7546771E-02  0.1129905E+00
         21   -1    0    0  503  502  0.00000000000E+00  0.00000000000E+00  0.57375187014E+03  0.57375187014E+03  0.00000000000E+00 0. -1.
         21   -1    0    0  501  503 -0.00000000000E+00 -0.00000000000E+00 -0.44485342029E+03  0.44485342029E+03  0.00000000000E+00 0. -1.
          6    2    1    2  501    0  0.39596492456E+00 -0.14319923990E+03 -0.39137540067E+03  0.45169216221E+03  0.17419795079E+03 0.  0.
         24    2    3    3    0    0  0.38543996114E+02 -0.10847725236E+03 -0.15318097409E+03  0.20793087825E+03  0.80733421780E+02 0.  0.
         -6    2    1    2    0  502 -0.39596492456E+00  0.14319923990E+03  0.52027385052E+03  0.56691312821E+03  0.17377985012E+03 0.  0.
        -24    2    5    5    0    0 -0.51544448917E+02  0.38080834779E+02  0.17777516526E+03  0.20498290577E+03  0.79416636071E+02 0.  0.
          5    1    3    3  501    0 -0.38148031190E+02 -0.34721987537E+02 -0.23819442658E+03  0.24376128396E+03  0.47000000000E+01 0. -1.
        -11    1    4    4    0    0 -0.23657998609E+02 -0.20463065250E+02 -0.22452949787E+02  0.38504193171E+02  0.00000000000E+00 0.  1.
         12    1    4    4    0    0  0.62201994723E+02 -0.88014187112E+02 -0.13072802430E+03  0.16942668508E+03  0.00000000000E+00 0. -1.
         -5    1    5    5    0  502  0.51148483993E+02  0.10511840512E+03  0.34249868526E+03  0.36193022244E+03  0.47000000000E+01 0.  1.
         13    1    6    6    0    0 -0.63889565181E+02  0.51003223138E+02  0.16053169250E+03  0.18014890953E+03  0.00000000000E+00 0. -1.
        -14    1    6    6    0    0  0.12345116264E+02 -0.12922388359E+02  0.17243472763E+02  0.24833996243E+02  0.00000000000E+00 0.  1.
<mgrwt>
<rscale>  2 0.22542115E+03</rscale>
<asrwt>0</asrwt>
<pdfrwt beam="1">  1       21 0.88269518E-01 0.22550190E+03</pdfrwt>
<pdfrwt beam="2">  1       21 0.68438988E-01 0.22550190E+03</pdfrwt>
<totfact> 0.20802236E+03</totfact>
</mgrwt>
</event>
<event>
12    1  0.1071811E-001  0.1947910E+03  0.7546771E-02  0.1154701E+00
         21   -1    0    0  503  502  0.00000000000E+00  0.00000000000E+00  0.40571404919E+03  0.40571404919E+03  0.00000000000E+00 0. -1.
         21   -1    0    0  501  503 -0.00000000000E+00 -0.00000000000E+00 -0.26781183774E+03  0.26781183774E+03  0.00000000000E+00 0. -1.
          6    2    1    2  501    0  0.88150866725E+02 -0.15378613511E+02 -0.20341442426E+03  0.28163977826E+03  0.17302155832E+03 0.  0.
         24    2    3    3    0    0 -0.16250390887E+02  0.22556511084E+02 -0.83436772457E+02  0.11806892755E+03  0.78776298843E+02 0.  0.
         -6    2    1    2    0  502 -0.88150866725E+02  0.15378613511E+02  0.34131663571E+03  0.39188610867E+03  0.17050102434E+03 0.  0.
        -24    2    5    5    0    0 -0.69151707035E+02 -0.29594814297E+02  0.11214883100E+03  0.15752836932E+03  0.81117293026E+02 0.  0.
          5    1    3    3  501    0  0.10440125761E+03 -0.37935124595E+02 -0.11997765180E+03  0.16357085071E+03  0.47000000000E+01 0. -1.
        -13    1    4    4    0    0  0.28453794829E+02  0.22517285341E+02 -0.23246854627E+02  0.43093651845E+02  0.00000000000E+00 0.  1.
         14    1    4    4    0    0 -0.44704185716E+02  0.39225743104E-01 -0.60189917830E+02  0.74975275709E+02  0.00000000000E+00 0. -1.
         -5    1    5    5    0  502 -0.18999159690E+02  0.44973427808E+02  0.22916780471E+03  0.23435773935E+03  0.47000000000E+01 0.  1.
         11    1    6    6    0    0  0.14580592732E+02  0.84397903264E+01  0.29042701020E+02  0.33575321707E+02  0.00000000000E+00 0. -1.
        -12    1    6    6    0    0 -0.83732299767E+02 -0.38034604624E+02  0.83106129978E+02  0.12395304762E+03  0.00000000000E+00 0.  1.
<mgrwt>
<rscale>  2 0.19422975E+03</rscale>
<asrwt>0</asrwt>
<pdfrwt beam="1">  1       21 0.62417546E-01 0.19479101E+03</pdfrwt>
<pdfrwt beam="2">  1       21 0.41201821E-01 0.19479101E+03</pdfrwt>
<totfact> 0.13482642E+04</totfact>
</mgrwt>
</event>
<event>
12    1  0.1071811E-001  0.1880146E+03  0.7546771E-02  0.1160491E+00
         21   -1    0    0  501  502  0.00000000000E+00  0.00000000000E+00  0.17722318055E+03  0.17722318055E+03  0.00000000000E+00 0.  1.
         21   -1    0    0  502  503 -0.00000000000E+00 -0.00000000000E+00 -0.60632453637E+03  0.60632453637E+03  0.00000000000E+00 0.  1.
         -6    2    1    2    0  503 -0.74687082417E+02  0.10039862142E+02 -0.53570468931E+03  0.56741404726E+03  0.17117309299E+03 0.  0.
        -24    2    3    3    0    0  0.10032502482E+02 -0.66825790267E+01 -0.38844155468E+03  0.39663474838E+03  0.79290442372E+02 0.  0.
          6    2    1    2  501    0  0.74687082417E+02 -0.10039862142E+02  0.10660333349E+03  0.21613366967E+03  0.17225136673E+03 0.  0.
         24    2    5    5    0    0  0.41397873214E+01 -0.64420191120E+02  0.57603385666E+02  0.11436321270E+03  0.74791012264E+02 0.  0.
          5    1    5    5  501    0  0.70547295095E+02  0.54380328977E+02  0.48999947826E+02  0.10177045697E+03  0.47000000000E+01 0. -1.
        -11    1    6    6    0    0 -0.16521491521E+02 -0.51993120642E+02  0.68779128598E+02  0.87788454861E+02  0.00000000000E+00 0.  1.
         12    1    6    6    0    0  0.20661278842E+02 -0.12427070478E+02 -0.11175742931E+02  0.26574757837E+02  0.00000000000E+00 0. -1.
         -5    1    3    3    0  503 -0.84719584899E+02  0.16722441169E+02 -0.14726313463E+03  0.17077929888E+03  0.47000000000E+01 0.  1.
         13    1    4    4    0    0 -0.92119628880E+01 -0.18035517764E+02 -0.23552354681E+02  0.31062092207E+02  0.00000000000E+00 0. -1.
        -14    1    4    4    0    0  0.19244465370E+02  0.11352938737E+02 -0.36488919999E+03  0.36557265617E+03  0.00000000000E+00 0.  1.
<mgrwt>
<rscale>  2 0.18776728E+03</rscale>
<asrwt>0</asrwt>
<pdfrwt beam="1">  1       21 0.27265105E-01 0.18801461E+03</pdfrwt>
<pdfrwt beam="2">  1       21 0.93280698E-01 0.18801461E+03</pdfrwt>
<totfact> 0.12437656E+04</totfact>
</mgrwt>
</event>
<event>
12    1  0.1071811E-001  0.1963050E+03  0.7546771E-02  0.1154380E+00
         21   -1    0    0  501  502  0.00000000000E+00  0.00000000000E+00  0.39558917918E+03  0.39558917918E+03  0.00000000000E+00 0.  1.
         21   -1    0    0  502  503 -0.00000000000E+00 -0.00000000000E+00 -0.32731872036E+03  0.32731872036E+03  0.00000000000E+00 0.  1.
         -6    2    1    2    0  503 -0.47683695438E+02 -0.63021993080E+02 -0.27113175658E+03  0.33082435752E+03  0.17229863517E+03 0.  0.
        -24    2    3    3    0    0 -0.35284323460E+02 -0.62106909626E+02 -0.28905086502E+03  0.30851368181E+03  0.80796272103E+02 0.  0.
          6    2    1    2  501    0  0.47683695438E+02  0.63021993080E+02  0.33940221540E+03  0.39208354202E+03  0.17969455664E+03 0.  0.
         24    2    5    5    0    0  0.49337105810E+02  0.10408083186E+03  0.31143018844E+03  0.34215272689E+03  0.82539424991E+02 0.  0.
          5    1    5    5  501    0 -0.16534103727E+01 -0.41058838777E+02  0.27972026956E+02  0.49930815131E+02  0.47000000000E+01 0. -1.
        -13    1    6    6    0    0  0.13206213574E+02 -0.92708155032E+01  0.83465844943E+02  0.85011172025E+02  0.00000000000E+00 0.  1.
         14    1    6    6    0    0  0.36130892237E+02  0.11335164736E+03  0.22796434350E+03  0.25714155487E+03  0.00000000000E+00 0. -1.
         -5    1    3    3    0  503 -0.12399371977E+02 -0.91508345430E+00  0.17919108448E+02  0.22310675712E+02  0.47000000000E+01 0.  1.
         13    1    4    4    0    0  0.19235683087E+02 -0.16776668020E+01 -0.21690327162E+02  0.29039565460E+02  0.00000000000E+00 0. -1.
        -14    1    4    4    0    0 -0.54520006547E+02 -0.60429242824E+02 -0.26736053786E+03  0.27947411635E+03  0.00000000000E+00 0.  1.
<mgrwt>
<rscale>  2 0.19459610E+03</rscale>
<asrwt>0</asrwt>
<pdfrwt beam="1">  1       21 0.60859874E-01 0.19630497E+03</pdfrwt>
<pdfrwt beam="2">  1       21 0.50356726E-01 0.19630497E+03</pdfrwt>
<totfact> 0.94112790E+03</totfact>
</mgrwt>
</event>
<event>
12    1  0.1071811E-001  0.2024771E+03  0.7546771E-02  0.1149072E+00
         21   -1    0    0  501  502  0.00000000000E+00  0.00000000000E+00  0.73820760143E+03  0.73820760143E+03  0.00000000000E+00 0. -1.
         21   -1    0    0  502  503 -0.00000000000E+00 -0.00000000000E+00 -0.83453779824E+02  0.83453779824E+02  0.00000000000E+00 0. -1.
         -6    2    1    2    0  503  0.89939685597E+02 -0.51782260773E+02  0.78678735532E+02  0.21103918115E+03  0.16606216600E+03 0.  0.
        -24    2    3    3    0    0  0.14238968297E+01  0.74104873734E+01  0.57664232711E+01  0.81899250940E+02  0.81346744630E+02 0.  0.
          6    2    1    2  501    0 -0.89939685597E+02  0.51782260773E+02  0.57607508607E+03  0.61062220011E+03  0.17385746143E+03 0.  0.
         24    2    5    5    0    0 -0.31922773122E+02  0.14250406574E+02  0.11939099376E+03  0.14871630884E+03  0.81487383033E+02 0.  0.
          5    1    5    5  501    0 -0.58016912475E+02  0.37531854199E+02  0.45668409231E+03  0.46190589126E+03  0.47000000000E+01 0. -1.
        -13    1    6    6    0    0 -0.78532554203E+01  0.26358838560E+02  0.12396721226E+01  0.27531777602E+02  0.00000000000E+00 0.  1.
         14    1    6    6    0    0 -0.24069517702E+02 -0.12108431986E+02  0.11815132164E+03  0.12118453124E+03  0.00000000000E+00 0. -1.
         -5    1    3    3    0  503  0.88515788767E+02 -0.59192748147E+02  0.72912312261E+02  0.12913993021E+03  0.47000000000E+01 0.  1.
         11    1    4    4    0    0  0.35632413839E+02 -0.14620622394E+02  0.12841593512E+02  0.40599729545E+02  0.00000000000E+00 0. -1.
        -12    1    4    4    0    0 -0.34208517009E+02  0.22031109768E+02 -0.70751702405E+01  0.41299521395E+02  0.00000000000E+00 0.  1.
<mgrwt>
<rscale>  2 0.20079301E+03</rscale>
<asrwt>0</asrwt>
<pdfrwt beam="1">  1       21 0.11357040E+00 0.20247708E+03</pdfrwt>
<pdfrwt beam="2">  1       21 0.12839044E-01 0.20247708E+03</pdfrwt>
<totfact> 0.31239899E+04</totfact>
</mgrwt>
</event>
<event>
12    1  0.1071811E-001  0.3810939E+03  0.7546771E-02  0.1050601E+00
         21   -1    0    0  503  502  0.00000000000E+00  0.00000000000E+00  0.48268218942E+03  0.48268218942E+03  0.00000000000E+00 0.  1.
         21   -1    0    0  501  503 -0.00000000000E+00 -0.00000000000E+00 -0.30954124624E+03  0.30954124624E+03  0.00000000000E+00 0. -1.
          6    2    1    2  501    0  0.31579869617E+03 -0.12523719526E+03  0.17986460877E+02  0.38075595776E+03  0.17099244140E+03 0.  0.
         24    2    3    3    0    0  0.31543286186E+03 -0.97736067427E+02 -0.12710278965E+02  0.33927312150E+03  0.76775455476E+02 0.  0.
         -6    2    1    2    0  502 -0.31579869617E+03  0.12523719526E+03  0.15515448230E+03  0.41146747790E+03  0.17268294766E+03 0.  0.
        -24    2    5    5    0    0 -0.20738793390E+03  0.15212867640E+03  0.10408931128E+03  0.28856187663E+03  0.79249495955E+02 0.  0.
          5    1    3    3  501    0  0.36583430530E+00 -0.27501127835E+02  0.30696739842E+02  0.41482836256E+02  0.47000000000E+01 0. -1.
        -11    1    4    4    0    0  0.54575534524E+02  0.12120871160E+02 -0.48940503710E+01  0.56119125219E+02  0.00000000000E+00 0.  1.
         12    1    4    4    0    0  0.26085732734E+03 -0.10985693859E+03 -0.78162285935E+01  0.28315399628E+03  0.00000000000E+00 0. -1.
         -5    1    5    5    0  502 -0.10841076227E+03 -0.26891481134E+02  0.51065171024E+02  0.12290560128E+03  0.47000000000E+01 0.  1.
         13    1    6    6    0    0 -0.19560056306E+03  0.11717057230E+03  0.70475952538E+02  0.23865326976E+03  0.00000000000E+00 0. -1.
        -14    1    6    6    0    0 -0.11787370846E+02  0.34958104097E+02  0.33613358740E+02  0.49908606866E+02  0.00000000000E+00 0.  1.
<mgrwt>
<rscale>  2 0.38090302E+03</rscale>
<asrwt>0</asrwt>
<pdfrwt beam="1">  1       21 0.74258798E-01 0.38109391E+03</pdfrwt>
<pdfrwt beam="2">  1       21 0.47621730E-01 0.38109391E+03</pdfrwt>
<totfact> 0.62006586E+03</totfact>
</mgrwt>
</event>
<event>
12    1  0.1071811E-001  0.1957454E+03  0.7546771E-02  0.1153709E+00
         21   -1    0    0  503  502  0.00000000000E+00  0.00000000000E+00  0.14139028489E+03  0.14139028489E+03  0.00000000000E+00 0.  1.
         21   -1    0    0  501  503 -0.00000000000E+00 -0.00000000000E+00 -0.28851427023E+03  0.28851427023E+03  0.00000000000E+00 0. -1.
          6    2    1    2  501    0 -0.70786452826E+02  0.53634775389E+02 -0.12987293886E+03  0.23491111540E+03  0.17443864496E+03 0.  0.
         24    2    3    3    0    0  0.13025346211E+02 -0.14462108503E+02 -0.27360279330E+02  0.85939512005E+02  0.79108802370E+02 0.  0.
         -6    2    1    2    0  502  0.70786452826E+02 -0.53634775389E+02 -0.17251046481E+02  0.19499343972E+03  0.17273514956E+03 0.  0.
        -24    2    5    5    0    0  0.10097955747E+03 -0.68468770766E+02  0.16425061172E+02  0.14716205658E+03  0.80635256963E+02 0.  0.
          5    1    3    3  501    0 -0.83811799037E+02  0.68096883891E+02 -0.10251265953E+03  0.14897160339E+03  0.47000000000E+01 0. -1.
        -13    1    4    4    0    0  0.33568193147E+02  0.64037150210E+01  0.12580106693E+02  0.36415521988E+02  0.00000000000E+00 0.  1.
         14    1    4    4    0    0 -0.20542846936E+02 -0.20865823524E+02 -0.39940386023E+02  0.49523990018E+02  0.00000000000E+00 0. -1.
         -5    1    5    5    0  502 -0.30193104641E+02  0.14833995377E+02 -0.33676107654E+02  0.47831383143E+02  0.47000000000E+01 0.  1.
         11    1    6    6    0    0  0.29257809856E+02 -0.17015647730E+02 -0.31917600931E+02  0.46521876084E+02  0.00000000000E+00 0. -1.
        -12    1    6    6    0    0  0.71721747611E+02 -0.51453123036E+02  0.48342662104E+02  0.10064018049E+03  0.00000000000E+00 0.  1.
<mgrwt>
<rscale>  2 0.19536514E+03</rscale>
<asrwt>0</asrwt>
<pdfrwt beam="1">  1       21 0.21752352E-01 0.19574538E+03</pdfrwt>
<pdfrwt beam="2">  1       21 0.44386811E-01 0.19574538E+03</pdfrwt>
<totfact> 0.95992453E+04</totfact>
</mgrwt>
</event>
<event>
12    1  0.1071811E-001  0.2255465E+03  0.7546771E-02  0.1130069E+00
         21   -1    0    0  501  502  0.00000000000E+00  0.00000000000E+00  0.90337436544E+03  0.90337436544E+03  0.00000000000E+00 0. -1.
         21   -1    0    0  502  503 -0.00000000000E+00 -0.00000000000E+00 -0.69880592453E+02  0.69880592453E+02  0.00000000000E+00 0. -1.
         -6    2    1    2    0  503  0.13557302191E+03 -0.43707670676E+02  0.20061460681E+03  0.30185662450E+03  0.17487365880E+03 0.  0.
        -24    2    3    3    0    0  0.76750182838E+02 -0.74559056309E+00  0.28580466601E+02  0.11497778107E+03  0.80696348102E+02 0.  0.
          6    2    1    2  501    0 -0.13557302191E+03  0.43707670676E+02  0.63287916617E+03  0.67139833339E+03  0.17305859804E+03 0.  0.
         24    2    5    5    0    0 -0.10552876960E+03  0.62373502186E+02  0.27358137732E+03  0.31033315723E+03  0.80206754515E+02 0.  0.
          5    1    5    5  501    0 -0.30044252314E+02 -0.18665831509E+02  0.35929778885E+03  0.36106517616E+03  0.47000000000E+01 0. -1.
        -11    1    6    6    0    0  0.76203547830E+01  0.24819274613E+02  0.66461711676E+02  0.71352822777E+02  0.00000000000E+00 0.  1.
         12    1    6    6    0    0 -0.11314912438E+03  0.37554227573E+02  0.20711966564E+03  0.23898033445E+03  0.00000000000E+00 0. -1.
         -5    1    3    3    0  503  0.58822839077E+02 -0.42962080113E+02  0.17203414021E+03  0.18687884343E+03  0.47000000000E+01 0.  1.
         11    1    4    4    0    0  0.18542399982E+02 -0.37579292525E+02  0.16536694769E+02  0.45049817954E+02  0.00000000000E+00 0. -1.
        -12    1    4    4    0    0  0.58207782856E+02  0.36833701962E+02  0.12043771832E+02  0.69927963113E+02  0.00000000000E+00 0.  1.
<mgrwt>
<rscale>  2 0.22519454E+03</rscale>
<asrwt>0</asrwt>
<pdfrwt beam="1">  1       21 0.13898066E+00 0.22554645E+03</pdfrwt>
<pdfrwt beam="2">  1       21 0.10750861E-01 0.22554645E+03</pdfrwt>
<totfact> 0.25515607E+04</totfact>
</mgrwt>
</event>
<event>
12    1  0.1071811E-001  0.1990835E+03  0.7546771E-02  0.1150622E+00
         21   -1    0    0  503  502  0.00000000000E+00  0.00000000000E+00  0.30520646399E+02  0.30520646399E+02  0.00000000000E+00 0. -1.
         21   -1    0    0  501  503 -0.00000000000E+00 -0.00000000000E+00 -0.17774849174E+04  0.17774849174E+04  0.00000000000E+00 0. -1.
          6    2    1    2  501    0  0.75150808721E+02  0.67579796814E+02 -0.13435100943E+04  0.13581061011E+04  0.17093313184E+03 0.  0.
         24    2    3    3    0    0  0.65856847446E+02 -0.22425534547E+02 -0.63769419709E+03  0.64649840858E+03  0.80413147858E+02 0.  0.
         -6    2    1    2    0  502 -0.75150808721E+02 -0.67579796814E+02 -0.40345417670E+03  0.44989946262E+03  0.17152137122E+03 0.  0.
        -24    2    5    5    0    0 -0.49243906938E+02 -0.33342217370E+02 -0.93816757313E+02  0.13726421047E+03  0.80642505504E+02 0.  0.
          5    1    3    3  501    0  0.92939612747E+01  0.90005331361E+02 -0.70581589717E+03  0.71160769255E+03  0.47000000000E+01 0. -1.
        -13    1    4    4    0    0  0.13188049036E+02  0.27985293701E+02 -0.13206717878E+03  0.13564232751E+03  0.00000000000E+00 0.  1.
         14    1    4    4    0    0  0.52668798410E+02 -0.50410828248E+02 -0.50562701830E+03  0.51085608107E+03  0.00000000000E+00 0. -1.
         -5    1    5    5    0  502 -0.25906901783E+02 -0.34237579444E+02 -0.30963741938E+03  0.31263525215E+03  0.47000000000E+01 0.  1.
         11    1    6    6    0    0 -0.38792870913E+02  0.21018151014E+02 -0.49861592578E+02  0.66579485730E+02  0.00000000000E+00 0. -1.
        -12    1    6    6    0    0 -0.10451036025E+02 -0.54360368384E+02 -0.43955164735E+02  0.70684724741E+02  0.00000000000E+00 0.  1.
<mgrwt>
<rscale>  2 0.19895677E+03</rscale>
<asrwt>0</asrwt>
<pdfrwt beam="1">  1       21 0.46954831E-02 0.19908353E+03</pdfrwt>
<pdfrwt beam="2">  1       21 0.27345927E+00 0.19908353E+03</pdfrwt>
<totfact> 0.14433797E+04</totfact>
</mgrwt>
</event>
<event>
12    1  0.1071811E-001  0.2198539E+03  0.7546771E-02  0.1134155E+00
         21   -1    0    0  501  502  0.00000000000E+00  0.00000000000E+00  0.53627913093E+02  0.53627913093E+02  0.00000000000E+00 0. -1.
         21   -1    0    0  502  503 -0.00000000000E+00 -0.00000000000E+00 -0.17160241473E+04  0.17160241473E+04  0.00000000000E+00 0. -1.
         -6    2    1    2    0  503 -0.12550465231E+03  0.51771214944E+02 -0.14413413344E+04  0.14578813265E+04  0.17181805315E+03 0.  0.
        -24    2    3    3    0    0 -0.12687643288E+03  0.82175217911E+02 -0.13599181801E+04  0.13708290133E+04  0.83332655037E+02 0.  0.
          6    2    1    2  501    0  0.12550465231E+03 -0.51771214944E+02 -0.22105489976E+03  0.31177073387E+03  0.17292786167E+03 0.  0.
         24    2    5    5    0    0 -0.69758814290E+01 -0.16828613260E+02 -0.10141327361E+03  0.12981390949E+03  0.78962863966E+02 0.  0.
          5    1    5    5  501    0  0.13248053374E+03 -0.34942601684E+02 -0.11964162615E+03  0.18195682438E+03  0.47000000000E+01 0. -1.
        -13    1    6    6    0    0 -0.80821165313E+01 -0.28664155283E+02 -0.11075883363E+03  0.11469295372E+03  0.00000000000E+00 0.  1.
         14    1    6    6    0    0  0.11062351023E+01  0.11835542023E+02  0.93455600225E+01  0.15120955764E+02  0.00000000000E+00 0. -1.
         -5    1    3    3    0  503  0.13717805718E+01 -0.30404002968E+02 -0.81423154303E+02  0.87052313209E+02  0.47000000000E+01 0.  1.
         11    1    4    4    0    0 -0.51444077851E+02 -0.78241858500E+00 -0.65835484578E+03  0.66036217963E+03  0.00000000000E+00 0. -1.
        -12    1    4    4    0    0 -0.75432355031E+02  0.82957636496E+02 -0.70156333434E+03  0.71046683366E+03  0.00000000000E+00 0.  1.
<mgrwt>
<rscale>  2 0.21963558E+03</rscale>
<asrwt>0</asrwt>
<pdfrwt beam="1">  1       21 0.82504487E-02 0.21985386E+03</pdfrwt>
<pdfrwt beam="2">  1       21 0.26400370E+00 0.21985386E+03</pdfrwt>
<totfact> 0.60960245E+03</totfact>
</mgrwt>
</event>
<event>
12    1  0.1071811E-001  0.2187254E+03  0.7546771E-02  0.1136601E+00
         21   -1    0    0  503  502  0.00000000000E+00  0.00000000000E+00  0.12538883400E+04  0.12538883400E+04  0.00000000000E+00 0.  1.
         21   -1    0    0  501  503 -0.00000000000E+00 -0.00000000000E+00 -0.36605530486E+02  0.36605530486E+02  0.00000000000E+00 0. -1.
          6    2    1    2  501    0 -0.87971461145E+02 -0.10002255385E+03  0.60130652444E+03  0.63985179426E+03  0.17348571418E+03 0.  0.
         24    2    3    3    0    0 -0.20216543260E+02 -0.34793878314E+02  0.46649607825E+03  0.47540893059E+03  0.82314869057E+02 0.  0.
         -6    2    1    2    0  502  0.87971461145E+02  0.10002255385E+03  0.61597628507E+03  0.65064207622E+03  0.16175548934E+03 0.  0.
        -24    2    5    5    0    0  0.10020665345E+03  0.40817297763E+02  0.29460189741E+03  0.32359689690E+03  0.78849530946E+02 0.  0.
          5    1    3    3  501    0 -0.67754917885E+02 -0.65228675540E+02  0.13481044619E+03  0.16444286367E+03  0.47000000000E+01 0. -1.
        -13    1    4    4    0    0  0.29708768716E+02  0.11702598164E+01  0.17243401290E+03  0.17497848225E+03  0.00000000000E+00 0.  1.
         14    1    4    4    0    0 -0.49925311975E+02 -0.35964138130E+02  0.29406206536E+03  0.30043044834E+03  0.00000000000E+00 0. -1.
         -5    1    5    5    0  502 -0.12235192306E+02  0.59205256091E+02  0.32137438765E+03  0.32704517932E+03  0.47000000000E+01 0.  1.
         13    1    6    6    0    0  0.96667301215E+02  0.40367126010E+01  0.22053171094E+03  0.24082171352E+03  0.00000000000E+00 0. -1.
        -14    1    6    6    0    0  0.35393522360E+01  0.36780585162E+02  0.74070186474E+02  0.82775183379E+02  0.00000000000E+00 0.  1.
<mgrwt>
<rscale>  2 0.21639275E+03</rscale>
<asrwt>0</asrwt>
<pdfrwt beam="1">  1       21 0.19290587E+00 0.21872536E+03</pdfrwt>
<pdfrwt beam="2">  1       21 0.56316210E-02 0.21872536E+03</pdfrwt>
<totfact> 0.32229589E+04</totfact>
</mgrwt>
</event>
<event>
12    1  0.1071811E-001  0.1836166E+03  0.7546771E-02  0.1164873E+00
         21   -1    0    0  501  502  0.00000000000E+00  0.00000000000E+00  0.24038298120E+03  0.24038298120E+03  0.00000000000E+00 0. -1.
         21   -1    0    0  502  503 -0.00000000000E+00 -0.00000000000E+00 -0.23768305732E+03  0.23768305732E+03  0.00000000000E+00 0. -1.
         -6    2    1    2    0  503  0.27466290024E+02 -0.49773162594E+02 -0.15299921828E+03  0.23900592227E+03  0.17459468860E+03 0.  0.
        -24    2    3    3    0    0  0.36838479220E+02 -0.46932058171E+02 -0.19706437805E+02  0.10527124042E+03  0.84463002157E+02 0.  0.
          6    2    1    2  501    0 -0.27466290024E+02  0.49773162594E+02  0.15569914216E+03  0.23906011624E+03  0.17226651301E+03 0.  0.
         24    2    5    5    0    0 -0.73472763453E+02  0.64528365073E+02  0.13788270992E+03  0.18735105654E+03  0.80787497938E+02 0.  0.
          5    1    5    5  501    0  0.46006473429E+02 -0.14755202479E+02  0.17816432238E+02  0.51709059702E+02  0.47000000000E+01 0. -1.
        -13    1    6    6    0    0 -0.34502947856E+02  0.11603855119E+02  0.20576802837E+01  0.36460072854E+02  0.00000000000E+00 0.  1.
         14    1    6    6    0    0 -0.38969815597E+02  0.52924509954E+02  0.13582502964E+03  0.15089098369E+03  0.00000000000E+00 0. -1.
         -5    1    3    3    0  503 -0.93721891961E+01 -0.28411044228E+01 -0.13329278047E+03  0.13373468185E+03  0.47000000000E+01 0.  1.
         11    1    4    4    0    0  0.13231275592E+02  0.17477039136E+02 -0.28669042013E+02  0.36089160709E+02  0.00000000000E+00 0. -1.
        -12    1    4    4    0    0  0.23607203628E+02 -0.64409097307E+02  0.89626042082E+01  0.69182079712E+02  0.00000000000E+00 0.  1.
<mgrwt>
<rscale>  2 0.18306103E+03</rscale>
<asrwt>0</asrwt>
<pdfrwt beam="1">  1       21 0.36981997E-01 0.18361664E+03</pdfrwt>
<pdfrwt beam="2">  1       21 0.36566624E-01 0.18361664E+03</pdfrwt>
<totfact> 0.51075162E+04</totfact>
</mgrwt>
</event>
<event>
12    1  0.1071811E-001  0.2040101E+03  0.7546771E-02  0.1146430E+00
         21   -1    0    0  503  502  0.00000000000E+00  0.00000000000E+00  0.22567781361E+04  0.22567781361E+04  0.00000000000E+00 0. -1.
         21   -1    0    0  501  503 -0.00000000000E+00 -0.00000000000E+00 -0.18492029383E+02  0.18492029383E+02  0.00000000000E+00 0.  1.
          6    2    1    2  501    0 -0.10098941666E+02  0.10985308027E+03  0.11853449061E+04  0.12027473049E+04  0.17143175129E+03 0.  0.
         24    2    3    3    0    0 -0.14316450215E+02  0.78686411017E+01  0.79381987100E+03  0.79810850763E+03  0.80995839976E+02 0.  0.
         -6    2    1    2    0  502  0.10098941666E+02 -0.10985308027E+03  0.10529412006E+04  0.10725228605E+04  0.17161126559E+03 0.  0.
        -24    2    5    5    0    0 -0.13909144755E+02 -0.36746918893E+01  0.66117549897E+03  0.66588703651E+03  0.77753053169E+02 0.  0.
          5    1    3    3  501    0  0.42175085486E+01  0.10198443917E+03  0.39152503506E+03  0.40463879731E+03  0.47000000000E+01 0. -1.
        -11    1    4    4    0    0  0.26569274360E+02  0.25288721997E+01  0.11579288153E+03  0.11882892303E+03  0.00000000000E+00 0.  1.
         12    1    4    4    0    0 -0.40885724575E+02  0.53397689020E+01  0.67802698947E+03  0.67927958460E+03  0.00000000000E+00 0. -1.
         -5    1    5    5    0  502  0.24008086421E+02 -0.10617838838E+03  0.39176570167E+03  0.40663582402E+03  0.47000000000E+01 0.  1.
         11    1    6    6    0    0 -0.14130496688E+02 -0.17833483639E+02  0.64005199832E+03  0.64045629408E+03  0.00000000000E+00 0. -1.
        -12    1    6    6    0    0  0.22135193335E+00  0.14158791749E+02  0.21123500656E+02  0.25430742428E+02  0.00000000000E+00 0.  1.
<mgrwt>
<rscale>  2 0.20397233E+03</rscale>
<asrwt>0</asrwt>
<pdfrwt beam="1">  1       21 0.34719642E+00 0.20401008E+03</pdfrwt>
<pdfrwt beam="2">  1       21 0.28449294E-02 0.20401008E+03</pdfrwt>
<totfact> 0.12387700E+04</totfact>
</mgrwt>
</event>
<event>
12    1  0.1071811E-001  0.1857564E+03  0.7546771E-02  0.1162511E+00
         21   -1    0    0  501  502  0.00000000000E+00  0.00000000000E+00  0.92010506239E+03  0.92010506239E+03  0.00000000000E+00 0.  1.
         21   -1    0    0  502  503 -0.00000000000E+00 -0.00000000000E+00 -0.71743316632E+02  0.71743316632E+02  0.00000000000E+00 0.  1.
         -6    2    1    2    0  503  0.38902101915E+02  0.51071434758E+02  0.81276457220E+02  0.20275926265E+03  0.17430946937E+03 0.  0.
        -24    2    3    3    0    0  0.79977043584E+02 -0.52124403970E+01  0.51736144895E+02  0.12693218643E+03  0.83735621029E+02 0.  0.
          6    2    1    2  501    0 -0.38902101915E+02 -0.51071434758E+02  0.76708528854E+03  0.78908911637E+03  0.17355151598E+03 0.  0.
         24    2    5    5    0    0 -0.92239832220E+02 -0.22223145659E+02  0.52081223715E+03  0.53541680196E+03  0.80148054281E+02 0.  0.
          5    1    5    5  501    0  0.53337730304E+02 -0.28848289099E+02  0.24627305139E+03  0.25367231441E+03  0.47000000000E+01 0. -1.
        -13    1    6    6    0    0 -0.62920999516E+02 -0.52413737676E+02  0.32846913520E+03  0.33852359572E+03  0.00000000000E+00 0.  1.
         14    1    6    6    0    0 -0.29318832704E+02  0.30190592017E+02  0.19234310195E+03  0.19689320624E+03  0.00000000000E+00 0. -1.
         -5    1    3    3    0  503 -0.41074941668E+02  0.56283875155E+02  0.29540312325E+02  0.75827076218E+02  0.47000000000E+01 0.  1.
         13    1    4    4    0    0 -0.12081084697E+02  0.57944195304E+01  0.28285621272E+02  0.31298630576E+02  0.00000000000E+00 0. -1.
        -14    1    4    4    0    0  0.92058128281E+02 -0.11006859927E+02  0.23450523623E+02  0.95633555859E+02  0.00000000000E+00 0.  1.
<mgrwt>
<rscale>  2 0.18557842E+03</rscale>
<asrwt>0</asrwt>
<pdfrwt beam="1">  1       21 0.14155462E+00 0.18575644E+03</pdfrwt>
<pdfrwt beam="2">  1       21 0.11037434E-01 0.18575644E+03</pdfrwt>
<totfact> 0.23792997E+04</totfact>
</mgrwt>
</event>
<event>
12    1  0.1071811E-001  0.1756582E+03  0.7546771E-02  0.1172141E+00
         21   -1    0    0  503  502  0.00000000000E+00  0.00000000000E+00  0.31817732816E+03  0.31817732816E+03  0.00000000000E+00 0.  1.
         21   -1    0    0  501  503 -0.00000000000E+00 -0.00000000000E+00 -0.23310596750E+03  0.23310596750E+03  0.00000000000E+00 0.  1.
          6    2    1    2  501    0 -0.22939774091E+02 -0.19219183536E+02 -0.16820896187E+03  0.24320786668E+03  0.17309015372E+03 0.  0.
         24    2    3    3    0    0 -0.97877489722E+01 -0.36506304971E+02 -0.19112730107E+03  0.21128357179E+03  0.81747123273E+02 0.  0.
         -6    2    1    2    0  502  0.22939774091E+02  0.19219183536E+02  0.25328032252E+03  0.30807542897E+03  0.17281185697E+03 0.  0.
        -24    2    5    5    0    0 -0.32229830792E+01 -0.15259881707E+01  0.35038665697E+02  0.87244356013E+02  0.79819504524E+02 0.  0.
          5    1    3    3  501    0 -0.13152025119E+02  0.17287121435E+02  0.22918339205E+02  0.31924294889E+02  0.47000000000E+01 0. -1.
        -11    1    4    4    0    0 -0.14601840855E+02  0.18712662817E+02 -0.11315457851E+03  0.11561719658E+03  0.00000000000E+00 0.  1.
         12    1    4    4    0    0  0.48140918829E+01 -0.55218967788E+02 -0.77972722557E+02  0.95666375217E+02  0.00000000000E+00 0. -1.
         -5    1    5    5    0  502  0.26162757170E+02  0.20745171707E+02  0.21824165682E+03  0.22083107296E+03  0.47000000000E+01 0.  1.
         13    1    6    6    0    0 -0.30642684385E+02  0.26555885420E+02  0.20009286581E+02  0.45216818842E+02  0.00000000000E+00 0. -1.
        -14    1    6    6    0    0  0.27419701306E+02 -0.28081873590E+02  0.15029379116E+02  0.42027537171E+02  0.00000000000E+00 0.  1.
<mgrwt>
<rscale>  2 0.17558963E+03</rscale>
<asrwt>0</asrwt>
<pdfrwt beam="1">  1       21 0.48950358E-01 0.17565822E+03</pdfrwt>
<pdfrwt beam="2">  1       21 0.35862457E-01 0.17565822E+03</pdfrwt>
<totfact> 0.30137208E+04</totfact>
</mgrwt>
</event>
<event>
12    1  0.1071811E-001  0.2140223E+03  0.7546771E-02  0.1138631E+00
         21   -1    0    0  501  502  0.00000000000E+00  0.00000000000E+00  0.95945642397E+03  0.95945642397E+03  0.00000000000E+00 0.  1.
         21   -1    0    0  502  503 -0.00000000000E+00 -0.00000000000E+00 -0.73627372370E+02  0.73627372370E+02  0.00000000000E+00 0.  1.
         -6    2    1    2    0  503  0.12039718362E+03  0.33221346539E+02  0.13447068925E+03  0.25183803450E+03  0.17245547154E+03 0.  0.
        -24    2    3    3    0    0  0.90050913095E+02  0.18068809440E+02  0.16541754863E+03  0.20568293055E+03  0.80665071144E+02 0.  0.
          6    2    1    2  501    0 -0.12039718362E+03 -0.33221346539E+02  0.75135836234E+03  0.78124576183E+03  0.17379991955E+03 0.  0.
         24    2    5    5    0    0 -0.11574287255E+03 -0.40378834921E+02  0.34516687543E+03  0.37493737367E+03  0.80068716901E+02 0.  0.
          5    1    5    5  501    0 -0.46543110651E+01  0.71574883828E+01  0.40619148691E+03  0.40630838816E+03  0.47000000000E+01 0. -1.
        -13    1    6    6    0    0 -0.85902408939E+02 -0.33040316055E+01  0.28798176416E+03  0.30053891091E+03  0.00000000000E+00 0.  1.
         14    1    6    6    0    0 -0.29840463613E+02 -0.37074803316E+02  0.57185111273E+02  0.74398462759E+02  0.00000000000E+00 0. -1.
         -5    1    3    3    0  503  0.30346270523E+02  0.15152537098E+02 -0.30946859375E+02  0.46155103947E+02  0.47000000000E+01 0.  1.
         13    1    4    4    0    0  0.68516156358E+02  0.41110011419E+02  0.15135567778E+03  0.17115209002E+03  0.00000000000E+00 0. -1.
        -14    1    4    4    0    0  0.21534756737E+02 -0.23041201979E+02  0.14061870848E+02  0.34530840535E+02  0.00000000000E+00 0.  1.
<mgrwt>
<rscale>  2 0.21374921E+03</rscale>
<asrwt>0</asrwt>
<pdfrwt beam="1">  1       21 0.14760867E+00 0.21402232E+03</pdfrwt>
<pdfrwt beam="2">  1       21 0.11327289E-01 0.21402232E+03</pdfrwt>
<totfact> 0.19998332E+04</totfact>
</mgrwt>
</event>
<event>
12    1  0.1071811E-001  0.2199527E+03  0.7546771E-02  0.1133955E+00
         21   -1    0    0  503  502  0.00000000000E+00  0.00000000000E+00  0.65798564869E+02  0.65798564869E+02  0.00000000000E+00 0.  1.
         21   -1    0    0  501  503 -0.00000000000E+00 -0.00000000000E+00 -0.36434294172E+04  0.36434294172E+04  0.00000000000E+00 0. -1.
          6    2    1    2  501    0  0.75383981579E+01 -0.13612815821E+03 -0.34457861216E+04  0.34527865276E+04  0.17235169330E+03 0.  0.
         24    2    3    3    0    0  0.51236383713E+02 -0.13763265286E+03 -0.30400267759E+04  0.30446511161E+04  0.81053726445E+02 0.  0.
         -6    2    1    2    0  502 -0.75383981579E+01  0.13612815821E+03 -0.13184473070E+03  0.25644145447E+03  0.17260209633E+03 0.  0.
        -24    2    5    5    0    0  0.11555111006E+02  0.15910571591E+03 -0.13629998771E+03  0.22587235954E+03  0.83621090215E+02 0.  0.
          5    1    3    3  501    0 -0.43697985555E+02  0.15044946558E+01 -0.40575934572E+03  0.40813541145E+03  0.47000000000E+01 0. -1.
        -13    1    4    4    0    0  0.33593167298E+02 -0.11552400773E+03 -0.16681620420E+04  0.16724948119E+04  0.00000000000E+00 0.  1.
         14    1    4    4    0    0  0.17643216415E+02 -0.22108645135E+02 -0.13718647339E+04  0.13721563042E+04  0.00000000000E+00 0. -1.
         -5    1    5    5    0  502 -0.19093509164E+02 -0.22977557702E+02  0.44552570139E+01  0.30569094936E+02  0.47000000000E+01 0.  1.
         13    1    6    6    0    0  0.57247436029E+01  0.55810327173E+02 -0.10281988416E+03  0.11713024326E+03  0.00000000000E+00 0. -1.
        -14    1    6    6    0    0  0.58303674029E+01  0.10329538873E+03 -0.33480103549E+02  0.10874211627E+03  0.00000000000E+00 0.  1.
<mgrwt>
<rscale>  2 0.21990356E+03</rscale>
<asrwt>0</asrwt>
<pdfrwt beam="1">  1       21 0.10122856E-01 0.21995269E+03</pdfrwt>
<pdfrwt beam="2">  1       21 0.56052762E+00 0.21995269E+03</pdfrwt>
<totfact> 0.51846884E+01</totfact>
</mgrwt>
</event>
<event>
12    1  0.1071811E-001  0.1798907E+03  0.7546771E-02  0.1168403E+00
         21   -1    0    0  503  502  0.00000000000E+00  0.00000000000E+00  0.31685231850E+03  0.31685231850E+03  0.00000000000E+00 0.  1.
         21   -1    0    0  501  503 -0.00000000000E+00 -0.00000000000E+00 -0.10413663829E+03  0.10413663829E+03  0.00000000000E+00 0.  1.
          6    2    1    2  501    0 -0.37455727783E+02 -0.30294205314E+02  0.70317082091E+02  0.19314542843E+03  0.17332049524E+03 0.  0.
         24    2    3    3    0    0  0.25195635652E+02 -0.79085428729E+01  0.89796454843E+02  0.12366271701E+03  0.80818928294E+02 0.  0.
         -6    2    1    2    0  502  0.37455727783E+02  0.30294205314E+02  0.14239859812E+03  0.22784352835E+03  0.17121519281E+03 0.  0.
        -24    2    5    5    0    0  0.65482602245E+01 -0.42486195211E+02  0.42907925142E+02  0.10067143134E+03  0.80285058085E+02 0.  0.
          5    1    3    3  501    0 -0.62651363435E+02 -0.22385662441E+02 -0.19479372753E+02  0.69482711418E+02  0.47000000000E+01 0. -1.
        -13    1    4    4    0    0  0.22966254321E+02 -0.28441601976E+02  0.56156650336E+01  0.36985257256E+02  0.00000000000E+00 0.  1.
         14    1    4    4    0    0  0.22293813311E+01  0.20533059103E+02  0.84180789810E+02  0.86677459759E+02  0.00000000000E+00 0. -1.
         -5    1    5    5    0  502  0.30907467558E+02  0.72780400525E+02  0.99490672974E+02  0.12717209702E+03  0.47000000000E+01 0.  1.
         13    1    6    6    0    0 -0.17917514134E+02 -0.45035417681E+02 -0.30287582071E+01  0.48563355884E+02  0.00000000000E+00 0. -1.
        -14    1    6    6    0    0  0.24465774359E+02  0.25492224693E+01  0.45936683349E+02  0.52108075452E+02  0.00000000000E+00 0.  1.
<mgrwt>
<rscale>  2 0.17938167E+03</rscale>
<asrwt>0</asrwt>
<pdfrwt beam="1">  1       21 0.48746510E-01 0.17989070E+03</pdfrwt>
<pdfrwt beam="2">  1       21 0.16021021E-01 0.17989070E+03</pdfrwt>
<totfact> 0.14033235E+05</totfact>
</mgrwt>
</event>
<event>
12    1  0.1071811E-001  0.2795511E+03  0.7546771E-02  0.1096334E+00
         21   -1    0    0  501  502  0.00000000000E+00  0.00000000000E+00  0.18838660122E+03  0.18838660122E+03  0.00000000000E+00 0. -1.
         21   -1    0    0  502  503 -0.00000000000E+00 -0.00000000000E+00 -0.41092966535E+03  0.41092966535E+03  0.00000000000E+00 0. -1.
         -6    2    1    2    0  503 -0.14004660388E+03 -0.16400674374E+03 -0.10141354655E+03  0.29465056938E+03  0.17327142685E+03 0.  0.
        -24    2    3    3    0    0 -0.55639483892E+02 -0.32047076362E+02  0.57414764806E+01  0.10480272325E+03  0.82630980740E+02 0.  0.
          6    2    1    2  501    0  0.14004660388E+03  0.16400674374E+03 -0.12112951758E+03  0.30466569719E+03  0.17786951331E+03 0.  0.
         24    2    5    5    0    0 -0.17531699451E+01  0.41932018538E+02 -0.55433840537E+02  0.10630384004E+03  0.80412859338E+02 0.  0.
          5    1    5    5  501    0  0.14179977383E+03  0.12207472520E+03 -0.65695677041E+02  0.19836185715E+03  0.47000000000E+01 0. -1.
        -11    1    6    6    0    0  0.13212069422E+02  0.61727127855E+02 -0.27260456742E+02  0.68759941778E+02  0.00000000000E+00 0.  1.
         12    1    6    6    0    0 -0.14965239367E+02 -0.19795109316E+02 -0.28173383795E+02  0.37543898261E+02  0.00000000000E+00 0. -1.
         -5    1    3    3    0  503 -0.84407119990E+02 -0.13195966738E+03 -0.10715502303E+03  0.18984784613E+03  0.47000000000E+01 0.  1.
         13    1    4    4    0    0 -0.30552603664E+02 -0.18528472906E+01 -0.36166452928E+02  0.47380449038E+02  0.00000000000E+00 0. -1.
        -14    1    4    4    0    0 -0.25086880229E+02 -0.30194229071E+02  0.41907929408E+02  0.57422274216E+02  0.00000000000E+00 0.  1.
<mgrwt>
<rscale>  2 0.27882256E+03</rscale>
<asrwt>0</asrwt>
<pdfrwt beam="1">  1       21 0.28982554E-01 0.27955112E+03</pdfrwt>
<pdfrwt beam="2">  1       21 0.63219948E-01 0.27955112E+03</pdfrwt>
<totfact> 0.25278607E+04</totfact>
</mgrwt>
</event>
<event>
12    1  0.1071811E-001  0.1820640E+03  0.7546771E-02  0.1166814E+00
         21   -1    0    0  501  502  0.00000000000E+00  0.00000000000E+00  0.24458303044E+03  0.24458303044E+03  0.00000000000E+00 0.  1.
         21   -1    0    0  502  503 -0.00000000000E+00 -0.00000000000E+00 -0.17096278032E+03  0.17096278032E+03  0.00000000000E+00 0.  1.
         -6    2    1    2    0  503 -0.20479055326E+02 -0.52858608082E+02  0.13505609631E+03  0.22339570513E+03  0.16867740738E+03 0.  0.
        -24    2    3    3    0    0  0.94694119937E+01 -0.81917148496E+02  0.67062972434E+02  0.14348034765E+03  0.96379867756E+02 0.  0.
          6    2    1    2  501    0  0.20479055326E+02  0.52858608082E+02 -0.61435846194E+02  0.19215010562E+03  0.17301409115E+03 0.  0.
         24    2    5    5    0    0  0.32431585597E+02  0.57729980838E+02 -0.10340393308E+03  0.14799126088E+03  0.82610419963E+02 0.  0.
          5    1    5    5  501    0 -0.11952530271E+02 -0.48713727560E+01  0.41968086889E+02  0.44158844749E+02  0.47000000000E+01 0. -1.
        -13    1    6    6    0    0  0.94418743714E+01  0.20694644438E+02  0.11216404351E+02  0.25361881370E+02  0.00000000000E+00 0.  1.
         14    1    6    6    0    0  0.22989711226E+02  0.37035336400E+02 -0.11462033743E+03  0.12262937951E+03  0.00000000000E+00 0. -1.
         -5    1    3    3    0  503 -0.29948467320E+02  0.29058540414E+02  0.67993123880E+02  0.79915357477E+02  0.47000000000E+01 0.  1.
         13    1    4    4    0    0 -0.36739089033E+02 -0.52879587505E+01  0.23750041504E+02  0.44065719581E+02  0.00000000000E+00 0. -1.
        -14    1    4    4    0    0  0.46208501027E+02 -0.76629189746E+02  0.43312930930E+02  0.99414628069E+02  0.00000000000E+00 0.  1.
<mgrwt>
<rscale>  2 0.18102616E+03</rscale>
<asrwt>0</asrwt>
<pdfrwt beam="1">  1       21 0.37628158E-01 0.18206400E+03</pdfrwt>
<pdfrwt beam="2">  1       21 0.26301966E-01 0.18206400E+03</pdfrwt>
<totfact> 0.93998420E+04</totfact>
</mgrwt>
</event>
<event>
12    1  0.1071811E-001  0.1854192E+03  0.7546771E-02  0.1163705E+00
         21   -1    0    0  503  502  0.00000000000E+00  0.00000000000E+00  0.23134844537E+03  0.23134844537E+03  0.00000000000E+00 0. -1.
         21   -1    0    0  501  503 -0.00000000000E+00 -0.00000000000E+00 -0.14540631339E+03  0.14540631339E+03  0.00000000000E+00 0.  1.
          6    2    1    2  501    0 -0.86783069739E+01  0.59045168332E+02  0.33438035637E+02  0.18404524969E+03  0.17085931871E+03 0.  0.
         24    2    3    3    0    0  0.10399092415E+02  0.62135453801E+02 -0.38063499798E+02  0.10982896710E+03  0.81514515611E+02 0.  0.
         -6    2    1    2    0  502  0.86783069739E+01 -0.59045168332E+02  0.52504096350E+02  0.19270950907E+03  0.17555235640E+03 0.  0.
        -24    2    5    5    0    0  0.25669265085E+02 -0.60445321116E+02  0.98048424998E+02  0.14385227872E+03  0.82264429947E+02 0.  0.
          5    1    3    3  501    0 -0.19077399389E+02 -0.30902854693E+01  0.71501535435E+02  0.74216282588E+02  0.47000000000E+01 0. -1.
        -13    1    4    4    0    0 -0.17021555317E+02 -0.72256271741E+01  0.10075434719E+02  0.21058428674E+02  0.00000000000E+00 0.  1.
         14    1    4    4    0    0  0.27420647732E+02  0.69361080975E+02 -0.48138934516E+02  0.88770538426E+02  0.00000000000E+00 0. -1.
         -5    1    5    5    0  502 -0.16990958111E+02  0.14001527844E+01 -0.45544328649E+02  0.48857230349E+02  0.47000000000E+01 0.  1.
         11    1    6    6    0    0  0.35060063071E+02  0.11721897522E+00  0.65899541586E+02  0.74645638480E+02  0.00000000000E+00 0. -1.
        -12    1    6    6    0    0 -0.93907979860E+01 -0.60562540091E+02  0.32148883412E+02  0.69206640243E+02  0.00000000000E+00 0.  1.
<mgrwt>
<rscale>  2 0.18429984E+03</rscale>
<asrwt>0</asrwt>
<pdfrwt beam="1">  1       21 0.35592068E-01 0.18541919E+03</pdfrwt>
<pdfrwt beam="2">  1       21 0.22370202E-01 0.18541919E+03</pdfrwt>
<totfact> 0.14270833E+05</totfact>
</mgrwt>
</event>
<event>
12    1  0.1071811E-001  0.1826786E+03  0.7546771E-02  0.1167349E+00
         21   -1    0    0  503  502  0.00000000000E+00  0.00000000000E+00  0.23471464247E+03  0.23471464247E+03  0.00000000000E+00 0.  1.
         21   -1    0    0  501  503 -0.00000000000E+00 -0.00000000000E+00 -0.21427407900E+03  0.21427407900E+03  0.00000000000E+00 0.  1.
          6    2    1    2  501    0  0.14327127460E+02  0.15662654011E+02  0.14646433172E+03  0.23414372907E+03  0.18144117528E+03 0.  0.
         24    2    3    3    0    0 -0.11946002040E+02 -0.35175703441E+02  0.15155426920E+03  0.17649987957E+03  0.82483173416E+02 0.  0.
         -6    2    1    2    0  502 -0.14327127460E+02 -0.15662654011E+02 -0.12602376824E+03  0.21484499240E+03  0.17270146289E+03 0.  0.
        -24    2    5    5    0    0 -0.57394138922E+02  0.93123218321E+01 -0.13155254821E+03  0.16453421520E+03  0.79903870437E+02 0.  0.
          5    1    3    3  501    0  0.26273129501E+02  0.50838357452E+02 -0.50899374847E+01  0.57643849506E+02  0.47000000000E+01 0. -1.
        -11    1    4    4    0    0  0.15457070849E+02  0.20591629106E+02  0.27010385846E+02  0.37316178422E+02  0.00000000000E+00 0.  1.
         12    1    4    4    0    0 -0.27403072889E+02 -0.55767332547E+02  0.12454388335E+03  0.13918370114E+03  0.00000000000E+00 0. -1.
         -5    1    5    5    0  502  0.43067011461E+02 -0.24974975843E+02  0.55287799641E+01  0.50310777200E+02  0.47000000000E+01 0.  1.
         11    1    6    6    0    0 -0.15837501818E+01  0.67251401204E+01  0.10113995605E+02  0.12248619570E+02  0.00000000000E+00 0. -1.
        -12    1    6    6    0    0 -0.55810388740E+02  0.25871817117E+01 -0.14166654381E+03  0.15228559563E+03  0.00000000000E+00 0.  1.
<mgrwt>
<rscale>  2 0.18046950E+03</rscale>
<asrwt>0</asrwt>
<pdfrwt beam="1">  1       21 0.36109945E-01 0.18267864E+03</pdfrwt>
<pdfrwt beam="2">  1       21 0.32965243E-01 0.18267864E+03</pdfrwt>
<totfact> 0.65799778E+04</totfact>
</mgrwt>
</event>
<event>
12    1  0.1071811E-001  0.1824569E+03  0.7546771E-02  0.1166978E+00
         21   -1    0    0  501  502  0.00000000000E+00  0.00000000000E+00  0.71699130497E+02  0.71699130497E+02  0.00000000000E+00 0. -1.
         21   -1    0    0  502  503 -0.00000000000E+00 -0.00000000000E+00 -0.72735497528E+03  0.72735497528E+03  0.00000000000E+00 0. -1.
         -6    2    1    2    0  503 -0.52809577222E+02 -0.23972011232E+02 -0.57881002102E+03  0.60688677444E+03  0.17299424204E+03 0.  0.
        -24    2    3    3    0    0 -0.71601057757E+02 -0.93077371244E+01 -0.20024504667E+03  0.22754301150E+03  0.80401479596E+02 0.  0.
          6    2    1    2  501    0  0.52809577222E+02  0.23972011232E+02 -0.76845823757E+02  0.19216733134E+03  0.16631143628E+03 0.  0.
         24    2    5    5    0    0  0.29411143348E+02  0.83483069404E+01 -0.11580901575E+03  0.14387854202E+03  0.79715727084E+02 0.  0.
          5    1    5    5  501    0  0.23398433874E+02  0.15623704292E+02  0.38963191990E+02  0.48288789316E+02  0.47000000000E+01 0. -1.
        -11    1    6    6    0    0  0.48715328028E+02 -0.15784142530E+02 -0.52009365302E+02  0.72988330707E+02  0.00000000000E+00 0.  1.
         12    1    6    6    0    0 -0.19304184680E+02  0.24132449470E+02 -0.63799650444E+02  0.70890211316E+02  0.00000000000E+00 0. -1.
         -5    1    3    3    0  503  0.18791480536E+02 -0.14664274108E+02 -0.37856497435E+03  0.37934376294E+03  0.47000000000E+01 0.  1.
         13    1    4    4    0    0 -0.50046148481E+02  0.29499345968E+02 -0.14795380604E+03  0.15895017179E+03  0.00000000000E+00 0. -1.
        -14    1    4    4    0    0 -0.21554909276E+02 -0.38807083092E+02 -0.52291240634E+02  0.68592839707E+02  0.00000000000E+00 0.  1.
<mgrwt>
<rscale>  2 0.18085507E+03</rscale>
<asrwt>0</asrwt>
<pdfrwt beam="1">  1       21 0.11030636E-01 0.18245689E+03</pdfrwt>
<pdfrwt beam="2">  1       21 0.11190076E+00 0.18245689E+03</pdfrwt>
<totfact> 0.42958079E+04</totfact>
</mgrwt>
</event>
<event>
12    1  0.1071811E-001  0.2147447E+03  0.7546771E-02  0.1138095E+00
         21   -1    0    0  503  502  0.00000000000E+00  0.00000000000E+00  0.82422553456E+03  0.82422553456E+03  0.00000000000E+00 0.  1.
         21   -1    0    0  501  503 -0.00000000000E+00 -0.00000000000E+00 -0.78731097030E+02  0.78731097030E+02  0.00000000000E+00 0.  1.
          6    2    1    2  501    0 -0.11408584138E+03 -0.53919361600E+02  0.12896609040E+03  0.25049461835E+03  0.17375967482E+03 0.  0.
         24    2    3    3    0    0 -0.76935372613E+02 -0.10379943997E+03  0.82643869404E+02  0.17280280601E+03  0.79607947562E+02 0.  0.
         -6    2    1    2    0  502  0.11408584138E+03  0.53919361600E+02  0.61652834713E+03  0.65246201324E+03  0.17226897324E+03 0.  0.
        -24    2    5    5    0    0 -0.25899212302E+01  0.52019568110E+02  0.22967450468E+03  0.24836446534E+03  0.78878301106E+02 0.  0.
          5    1    3    3  501    0 -0.37150468765E+02  0.49880078375E+02  0.46322220991E+02  0.77691812346E+02  0.47000000000E+01 0. -1.
        -13    1    4    4    0    0 -0.16767475073E+02 -0.77885117666E+02  0.70062662137E+02  0.10609437497E+03  0.00000000000E+00 0.  1.
         14    1    4    4    0    0 -0.60167897541E+02 -0.25914322308E+02  0.12581207268E+02  0.66708431037E+02  0.00000000000E+00 0. -1.
         -5    1    5    5    0  502  0.11667576261E+03  0.18997934904E+01  0.38685384245E+03  0.40409754790E+03  0.47000000000E+01 0.  1.
         13    1    6    6    0    0  0.14500887740E+01 -0.10264382433E+01 -0.62596109510E+01  0.65068473301E+01  0.00000000000E+00 0. -1.
        -14    1    6    6    0    0 -0.40400100042E+01  0.53046006353E+02  0.23593411563E+03  0.24185761801E+03  0.00000000000E+00 0.  1.
<mgrwt>
<rscale>  2 0.21444300E+03</rscale>
<asrwt>0</asrwt>
<pdfrwt beam="1">  1       21 0.12680392E+00 0.21474474E+03</pdfrwt>
<pdfrwt beam="2">  1       21 0.12112477E-01 0.21474474E+03</pdfrwt>
<totfact> 0.26207713E+04</totfact>
</mgrwt>
</event>
<event>
12    1  0.1071811E-001  0.2298300E+03  0.7546771E-02  0.1126834E+00
         21   -1    0    0  503  502  0.00000000000E+00  0.00000000000E+00  0.10724441256E+03  0.10724441256E+03  0.00000000000E+00 0.  1.
         21   -1    0    0  501  503 -0.00000000000E+00 -0.00000000000E+00 -0.49176194732E+03  0.49176194732E+03  0.00000000000E+00 0.  1.
          6    2    1    2  501    0 -0.10978485065E+03  0.10436934956E+03 -0.18758300721E+03  0.29666347374E+03  0.17284720855E+03 0.  0.
         24    2    3    3    0    0 -0.83507310717E+02  0.92371699751E+02 -0.50694984147E+02  0.15668178364E+03  0.80456187147E+02 0.  0.
         -6    2    1    2    0  502  0.10978485065E+03 -0.10436934956E+03 -0.19693452755E+03  0.30234288613E+03  0.17228562939E+03 0.  0.
        -24    2    5    5    0    0  0.10854095227E+03 -0.13151557069E+03 -0.12452248952E+03  0.22485703028E+03  0.77313323668E+02 0.  0.
          5    1    3    3  501    0 -0.26277539930E+02  0.11997649805E+02 -0.13688802306E+03  0.13998169010E+03  0.47000000000E+01 0. -1.
        -13    1    4    4    0    0 -0.63693864869E+02  0.13987709545E+02 -0.36062603791E+02  0.74518962905E+02  0.00000000000E+00 0.  1.
         14    1    4    4    0    0 -0.19813445848E+02  0.78383990205E+02 -0.14632380356E+02  0.82162820739E+02  0.00000000000E+00 0. -1.
         -5    1    5    5    0  502  0.12438983747E+01  0.27146221131E+02 -0.72412038036E+02  0.77485855854E+02  0.47000000000E+01 0.  1.
         11    1    6    6    0    0  0.15982521949E+01  0.97913174655E+01 -0.50448645371E+01  0.11129913117E+02  0.00000000000E+00 0. -1.
        -12    1    6    6    0    0  0.10694270008E+03 -0.14130688815E+03 -0.11947762498E+03  0.21372711716E+03  0.00000000000E+00 0.  1.
<mgrwt>
<rscale>  2 0.22972442E+03</rscale>
<asrwt>0</asrwt>
<pdfrwt beam="1">  1       21 0.16499140E-01 0.22983001E+03</pdfrwt>
<pdfrwt beam="2">  1       21 0.75655686E-01 0.22983001E+03</pdfrwt>
<totfact> 0.50498474E+04</totfact>
</mgrwt>
</event>
<event>
12    1  0.1071811E-001  0.2553878E+03  0.7546771E-02  0.1110039E+00
         21   -1    0    0  501  502  0.00000000000E+00  0.00000000000E+00  0.63749829780E+03  0.63749829780E+03  0.00000000000E+00 0.  1.
         21   -1    0    0  502  503 -0.00000000000E+00 -0.00000000000E+00 -0.10253251575E+03  0.10253251575E+03  0.00000000000E+00 0.  1.
         -6    2    1    2    0  503 -0.18157530054E+03 -0.45987369354E+02  0.29204871925E+03  0.38756572513E+03  0.17271453029E+03 0.  0.
        -24    2    3    3    0    0 -0.55441530692E+02 -0.31415660785E+02  0.50834681225E+02  0.11493343664E+03  0.81023595168E+02 0.  0.
          6    2    1    2  501    0  0.18157530054E+03  0.45987369354E+02  0.24291706280E+03  0.35246508842E+03  0.17360446783E+03 0.  0.
         24    2    5    5    0    0  0.17365576948E+03 -0.11985977961E+02  0.20006977217E+03  0.27979041412E+03  0.89189529391E+02 0.  0.
          5    1    5    5  501    0  0.79195310586E+01  0.57973347315E+02  0.42847290625E+02  0.72674674303E+02  0.47000000000E+01 0. -1.
        -11    1    6    6    0    0  0.32325666761E+01 -0.29212750330E+00 -0.91397008005E+01  0.96989152237E+01  0.00000000000E+00 0.  1.
         12    1    6    6    0    0  0.17042320280E+03 -0.11693850458E+02  0.20920947297E+03  0.27009149889E+03  0.00000000000E+00 0. -1.
         -5    1    3    3    0  503 -0.12613376985E+03 -0.14571708569E+02  0.24121403803E+03  0.27263228849E+03  0.47000000000E+01 0.  1.
         13    1    4    4    0    0 -0.58491627103E+02 -0.53876385719E+02  0.45601741523E+02  0.91670356218E+02  0.00000000000E+00 0. -1.
        -14    1    4    4    0    0  0.30500964110E+01  0.22460724934E+02  0.52329397023E+01  0.23263080419E+02  0.00000000000E+00 0.  1.
<mgrwt>
<rscale>  2 0.25523666E+03</rscale>
<asrwt>0</asrwt>
<pdfrwt beam="1">  1       21 0.98076659E-01 0.25538782E+03</pdfrwt>
<pdfrwt beam="2">  1       21 0.15774234E-01 0.25538782E+03</pdfrwt>
<totfact> 0.29782096E+04</totfact>
</mgrwt>
</event>
<event>
12    1  0.1071811E-001  0.2245312E+03  0.7546771E-02  0.1130648E+00
         21   -1    0    0  501  502  0.00000000000E+00  0.00000000000E+00  0.63344626292E+02  0.63344626292E+02  0.00000000000E+00 0.  1.
         21   -1    0    0  502  503 -0.00000000000E+00 -0.00000000000E+00 -0.97239795620E+03  0.97239795620E+03  0.00000000000E+00 0.  1.
         -6    2    1    2    0  503 -0.10546674239E+03  0.90607896329E+02 -0.67683282150E+03  0.71310373837E+03  0.17629874870E+03 0.  0.
        -24    2    3    3    0    0 -0.11276070840E+03  0.64760938281E+01 -0.44755955370E+03  0.46872762772E+03  0.81480781333E+02 0.  0.
          6    2    1    2  501    0  0.10546674239E+03 -0.90607896329E+02 -0.23222050841E+03  0.32263884412E+03  0.17560305971E+03 0.  0.
         24    2    5    5    0    0  0.13849843435E+03 -0.81303489069E+02 -0.15167768193E+03  0.23496386728E+03  0.80061389414E+02 0.  0.
          5    1    5    5  501    0 -0.33031691960E+02 -0.93044072594E+01 -0.80542826471E+02  0.87674976841E+02  0.47000000000E+01 0. -1.
        -13    1    6    6    0    0  0.39990316706E+02  0.10689842916E+02 -0.56156430237E+02  0.69764194461E+02  0.00000000000E+00 0.  1.
         14    1    6    6    0    0  0.98508117647E+02 -0.91993331986E+02 -0.95521251698E+02  0.16519967281E+03  0.00000000000E+00 0. -1.
         -5    1    3    3    0  503  0.72939660038E+01  0.84131802501E+02 -0.22927326780E+03  0.24437611066E+03  0.47000000000E+01 0.  1.
         11    1    4    4    0    0 -0.11840421974E+02 -0.11563775562E+02 -0.10040763352E+02  0.19358032609E+02  0.00000000000E+00 0. -1.
        -12    1    4    4    0    0 -0.10092028642E+03  0.18039869390E+02 -0.43751879035E+03  0.44936959511E+03  0.00000000000E+00 0.  1.
<mgrwt>
<rscale>  2 0.22439465E+03</rscale>
<asrwt>0</asrwt>
<pdfrwt beam="1">  1       21 0.97453271E-02 0.22453123E+03</pdfrwt>
<pdfrwt beam="2">  1       21 0.14959969E+00 0.22453123E+03</pdfrwt>
<totfact> 0.25061674E+04</totfact>
</mgrwt>
</event>
<event>
12    1  0.1071811E-001  0.2331121E+03  0.7546771E-02  0.1124590E+00
         21   -1    0    0  501  502  0.00000000000E+00  0.00000000000E+00  0.64578136493E+03  0.64578136493E+03  0.00000000000E+00 0.  1.
         21   -1    0    0  502  503 -0.00000000000E+00 -0.00000000000E+00 -0.15176794149E+03  0.15176794149E+03  0.00000000000E+00 0. -1.
         -6    2    1    2    0  503  0.15451865246E+03  0.12352627609E+02 -0.19874200911E+02  0.23326061110E+03  0.17316733947E+03 0.  0.
        -24    2    3    3    0    0  0.67998817406E+02  0.48140517703E+02 -0.61191157193E+02  0.13081240071E+03  0.80163444581E+02 0.  0.
          6    2    1    2  501    0 -0.15451865246E+03 -0.12352627609E+02  0.51388762435E+03  0.56428869533E+03  0.17410525508E+03 0.  0.
         24    2    5    5    0    0 -0.77518730316E+02 -0.14466269934E+02  0.12521350697E+03  0.16802727276E+03  0.79600977053E+02 0.  0.
          5    1    5    5  501    0 -0.76999922144E+02  0.21136423251E+01  0.38867411738E+03  0.39626142257E+03  0.47000000000E+01 0. -1.
        -13    1    6    6    0    0 -0.78251597778E+02 -0.33151120662E+02  0.12255848266E+03  0.14914050767E+03  0.00000000000E+00 0.  1.
         14    1    6    6    0    0  0.73286746237E+00  0.18684850728E+02  0.26550243083E+01  0.18886765089E+02  0.00000000000E+00 0. -1.
         -5    1    3    3    0  503  0.86519835053E+02 -0.35787890094E+02  0.41316956282E+02  0.10244821039E+03  0.47000000000E+01 0.  1.
         11    1    4    4    0    0  0.35767523360E+02 -0.16416996049E+02 -0.38790929656E+02  0.55259114272E+02  0.00000000000E+00 0. -1.
        -12    1    4    4    0    0  0.32231294046E+02  0.64557513751E+02 -0.22400227537E+02  0.75553286437E+02  0.00000000000E+00 0.  1.
<mgrwt>
<rscale>  2 0.23293696E+03</rscale>
<asrwt>0</asrwt>
<pdfrwt beam="1">  1       21 0.99350978E-01 0.23311208E+03</pdfrwt>
<pdfrwt beam="2">  1       21 0.23348914E-01 0.23311208E+03</pdfrwt>
<totfact> 0.14021686E+04</totfact>
</mgrwt>
</event>
<event>
12    1  0.1071811E-001  0.1927229E+03  0.7546771E-02  0.1157521E+00
         21   -1    0    0  503  502  0.00000000000E+00  0.00000000000E+00  0.22630776440E+03  0.22630776440E+03  0.00000000000E+00 0. -1.
         21   -1    0    0  501  503 -0.00000000000E+00 -0.00000000000E+00 -0.20487476946E+03  0.20487476946E+03  0.00000000000E+00 0. -1.
          6    2    1    2  501    0 -0.12127579425E+02  0.65298634855E+02 -0.91661891534E+02  0.21341046702E+03  0.18091748168E+03 0.  0.
         24    2    3    3    0    0  0.11181411420E+02  0.84502602177E+02 -0.12321604179E+03  0.16948034281E+03  0.79219189004E+02 0.  0.
         -6    2    1    2    0  502  0.12127579425E+02 -0.65298634855E+02  0.11309488647E+03  0.21777206683E+03  0.17384829550E+03 0.  0.
        -24    2    5    5    0    0 -0.12603940872E+02 -0.10837778659E+03  0.75107455693E+02  0.15506165057E+03  0.80612540131E+02 0.  0.
          5    1    3    3  501    0 -0.23308990844E+02 -0.19203967322E+02  0.31554150258E+02  0.43930124216E+02  0.47000000000E+01 0. -1.
        -11    1    4    4    0    0 -0.21345528876E+02  0.46714193916E+02 -0.10410288461E+03  0.11608297937E+03  0.00000000000E+00 0.  1.
         12    1    4    4    0    0  0.32526940296E+02  0.37788408262E+02 -0.19113157182E+02  0.53397363432E+02  0.00000000000E+00 0. -1.
         -5    1    5    5    0  502  0.24731520297E+02  0.43079151732E+02  0.37987430780E+02  0.62710416259E+02  0.47000000000E+01 0.  1.
         11    1    6    6    0    0 -0.21950729490E+02  0.39592673847E+01  0.18191141435E+02  0.28782424326E+02  0.00000000000E+00 0. -1.
        -12    1    6    6    0    0  0.93467886180E+01 -0.11233705397E+03  0.56916314259E+02  0.12627922625E+03  0.00000000000E+00 0.  1.
<mgrwt>
<rscale>  2 0.19104611E+03</rscale>
<asrwt>0</asrwt>
<pdfrwt beam="1">  1       21 0.34816579E-01 0.19272292E+03</pdfrwt>
<pdfrwt beam="2">  1       21 0.31519195E-01 0.19272292E+03</pdfrwt>
<totfact> 0.76940565E+04</totfact>
</mgrwt>
</event>
<event>
12    1  0.1071811E-001  0.2021513E+03  0.7546771E-02  0.1148031E+00
         21   -1    0    0  501  502  0.00000000000E+00  0.00000000000E+00  0.24704869216E+03  0.24704869216E+03  0.00000000000E+00 0.  1.
         21   -1    0    0  502  503 -0.00000000000E+00 -0.00000000000E+00 -0.21608569192E+03  0.21608569192E+03  0.00000000000E+00 0. -1.
         -6    2    1    2    0  503  0.67390211948E+02 -0.78367407220E+02 -0.97050240601E+02  0.22424071824E+03  0.17373042144E+03 0.  0.
        -24    2    3    3    0    0  0.74530336299E+02 -0.75694421686E+02 -0.13234578818E+03  0.18782654646E+03  0.80492157407E+02 0.  0.
          6    2    1    2  501    0 -0.67390211948E+02  0.78367407220E+02  0.12801324085E+03  0.23889366584E+03  0.17320479949E+03 0.  0.
         24    2    5    5    0    0 -0.64985090462E+02  0.11006447546E+02  0.33747966938E+02  0.12291386000E+03  0.98105493417E+02 0.  0.
          5    1    5    5  501    0 -0.24051214858E+01  0.67360959674E+02  0.94265273909E+02  0.11597980584E+03  0.47000000000E+01 0. -1.
        -13    1    6    6    0    0 -0.60319910201E+01 -0.55327630971E+01  0.56876188355E+02  0.57462136968E+02  0.00000000000E+00 0.  1.
         14    1    6    6    0    0 -0.58953099442E+02  0.16539210643E+02 -0.23128221416E+02  0.65451723037E+02  0.00000000000E+00 0. -1.
         -5    1    3    3    0  503 -0.71401243511E+01 -0.26729855336E+01  0.35295547578E+02  0.36414171777E+02  0.47000000000E+01 0.  1.
         13    1    4    4    0    0  0.20850052804E+02 -0.76780810964E+02 -0.80860018672E+02  0.11343879519E+03  0.00000000000E+00 0. -1.
        -14    1    4    4    0    0  0.53680283496E+02  0.10863892780E+01 -0.51485769507E+02  0.74387751274E+02  0.00000000000E+00 0.  1.
<mgrwt>
<rscale>  2 0.20203833E+03</rscale>
<asrwt>0</asrwt>
<pdfrwt beam="1">  1       21 0.38007491E-01 0.20215131E+03</pdfrwt>
<pdfrwt beam="2">  1       21 0.33243952E-01 0.20215131E+03</pdfrwt>
<totfact> 0.57909704E+04</totfact>
</mgrwt>
</event>
<event>
12    1  0.1071811E-001  0.2089172E+03  0.7546771E-02  0.1143058E+00
         21   -1    0    0  501  502  0.00000000000E+00  0.00000000000E+00  0.59073246126E+03  0.59073246126E+03  0.00000000000E+00 0. -1.
         21   -1    0    0  502  503 -0.00000000000E+00 -0.00000000000E+00 -0.76454869178E+02  0.76454869178E+02  0.00000000000E+00 0.  1.
         -6    2    1    2    0  503 -0.10181338475E+03 -0.55375370836E+02  0.32844024364E+03  0.38757702540E+03  0.17003105590E+03 0.  0.
        -24    2    3    3    0    0 -0.12103679407E+03 -0.64348955485E+02  0.19040769842E+03  0.24784464466E+03  0.79882305178E+02 0.  0.
          6    2    1    2  501    0  0.10181338475E+03  0.55375370836E+02  0.18583734845E+03  0.27961030504E+03  0.17382176387E+03 0.  0.
         24    2    5    5    0    0  0.45885893533E+01  0.29436997854E+02  0.30237398856E+02  0.94248781665E+02  0.84148324766E+02 0.  0.
          5    1    5    5  501    0  0.97224795401E+02  0.25938372982E+02  0.15559994959E+03  0.18536152337E+03  0.47000000000E+01 0. -1.
        -13    1    6    6    0    0  0.33891135353E+02  0.36880089256E+00 -0.11265145332E+02  0.35716222770E+02  0.00000000000E+00 0.  1.
         14    1    6    6    0    0 -0.29302546000E+02  0.29068196962E+02  0.41502544188E+02  0.58532558895E+02  0.00000000000E+00 0. -1.
         -5    1    3    3    0  503  0.19223409319E+02  0.89735846495E+01  0.13803254522E+03  0.13973238074E+03  0.47000000000E+01 0.  1.
         13    1    4    4    0    0 -0.10271199286E+03 -0.64768813194E+02  0.19428441924E+03  0.22910955502E+03  0.00000000000E+00 0. -1.
        -14    1    4    4    0    0 -0.18324801208E+02  0.41985770840E+00 -0.38767208209E+01  0.18735089648E+02  0.00000000000E+00 0.  1.
<mgrwt>
<rscale>  2 0.20812695E+03</rscale>
<asrwt>0</asrwt>
<pdfrwt beam="1">  1       21 0.90881914E-01 0.20891721E+03</pdfrwt>
<pdfrwt beam="2">  1       21 0.11762288E-01 0.20891721E+03</pdfrwt>
<totfact> 0.61984685E+04</totfact>
</mgrwt>
</event>
<event>
12    1  0.1071811E-001  0.2024764E+03  0.7546771E-02  0.1148612E+00
         21   -1    0    0  501  502  0.00000000000E+00  0.00000000000E+00  0.17689645792E+03  0.17689645792E+03  0.00000000000E+00 0. -1.
         21   -1    0    0  502  503 -0.00000000000E+00 -0.00000000000E+00 -0.37227216482E+03  0.37227216482E+03  0.00000000000E+00 0. -1.
         -6    2    1    2    0  503  0.97763388943E+02  0.20361997665E+02 -0.27009475359E+03  0.33756166679E+03  0.17613747984E+03 0.  0.
        -24    2    3    3    0    0  0.90633930576E+02 -0.50099768319E+02 -0.15702906419E+03  0.20406398980E+03  0.79116931033E+02 0.  0.
          6    2    1    2  501    0 -0.97763388943E+02 -0.20361997665E+02  0.74719046681E+02  0.21160695595E+03  0.17094524475E+03 0.  0.
         24    2    5    5    0    0 -0.45340116316E+02  0.45032271234E+02  0.57835452056E+01  0.10298465952E+03  0.80552834222E+02 0.  0.
          5    1    5    5  501    0 -0.52423272627E+02 -0.65394268899E+02  0.68935501475E+02  0.10862229643E+03  0.47000000000E+01 0. -1.
        -13    1    6    6    0    0 -0.85331501909E+01  0.21045300319E+02 -0.35863354949E+02  0.42448787332E+02  0.00000000000E+00 0.  1.
         14    1    6    6    0    0 -0.36806966125E+02  0.23986970915E+02  0.41646900155E+02  0.60535872188E+02  0.00000000000E+00 0. -1.
         -5    1    3    3    0  503  0.71294583677E+01  0.70461765984E+02 -0.11306568940E+03  0.13349767699E+03  0.47000000000E+01 0.  1.
         11    1    4    4    0    0  0.38178688567E+02 -0.62377240543E+02 -0.11244234502E+03  0.13413356534E+03  0.00000000000E+00 0. -1.
        -12    1    4    4    0    0  0.52455242008E+02  0.12277472225E+02 -0.44586719171E+02  0.69930424458E+02  0.00000000000E+00 0.  1.
<mgrwt>
<rscale>  2 0.20134186E+03</rscale>
<asrwt>0</asrwt>
<pdfrwt beam="1">  1       21 0.27214840E-01 0.20247643E+03</pdfrwt>
<pdfrwt beam="2">  1       21 0.57272640E-01 0.20247643E+03</pdfrwt>
<totfact> 0.36651203E+04</totfact>
</mgrwt>
</event>
<event>
12    1  0.1071811E-001  0.1828430E+03  0.7546771E-02  0.1165120E+00
         21   -1    0    0  503  502  0.00000000000E+00  0.00000000000E+00  0.41846272688E+03  0.41846272688E+03  0.00000000000E+00 0. -1.
         21   -1    0    0  501  503 -0.00000000000E+00 -0.00000000000E+00 -0.12400148047E+03  0.12400148047E+03  0.00000000000E+00 0. -1.
          6    2    1    2  501    0 -0.35189168982E+02 -0.42534195610E+02 -0.14631166944E+02  0.18342747655E+03  0.17431044919E+03 0.  0.
         24    2    3    3    0    0  0.11248126152E+02 -0.80213836913E+02 -0.36132151146E+02  0.11970495252E+03  0.80392557716E+02 0.  0.
         -6    2    1    2    0  502  0.35189168982E+02  0.42534195610E+02  0.30909241335E+03  0.35903673080E+03  0.17413161304E+03 0.  0.
        -24    2    5    5    0    0  0.41182219698E+01 -0.51249131255E+01  0.61750033627E+02  0.10519202000E+03  0.84906242006E+02 0.  0.
          5    1    3    3  501    0 -0.46437295134E+02  0.37679641302E+02  0.21500984202E+02  0.63722524037E+02  0.47000000000E+01 0. -1.
        -11    1    4    4    0    0 -0.15183744627E+02 -0.36544817402E+02  0.19572698233E+02  0.44149295532E+02  0.00000000000E+00 0.  1.
         12    1    4    4    0    0  0.26431870779E+02 -0.43669019511E+02 -0.55704849379E+02  0.75555656984E+02  0.00000000000E+00 0. -1.
         -5    1    5    5    0  502  0.31070947012E+02  0.47659108736E+02  0.24734237972E+03  0.25384471080E+03  0.47000000000E+01 0.  1.
         13    1    6    6    0    0  0.31072660092E+02 -0.18396469859E+02  0.65619808916E+02  0.74899263218E+02  0.00000000000E+00 0. -1.
        -14    1    6    6    0    0 -0.26954438122E+02  0.13271556733E+02 -0.38697752885E+01  0.30292756781E+02  0.00000000000E+00 0.  1.
<mgrwt>
<rscale>  2 0.18280038E+03</rscale>
<asrwt>0</asrwt>
<pdfrwt beam="1">  1       21 0.64378881E-01 0.18284301E+03</pdfrwt>
<pdfrwt beam="2">  1       21 0.19077151E-01 0.18284301E+03</pdfrwt>
<totfact> 0.56351813E+04</totfact>
</mgrwt>
</event>
<event>
12    1  0.1071811E-001  0.1782221E+03  0.7546771E-02  0.1169726E+00
         21   -1    0    0  503  502  0.00000000000E+00  0.00000000000E+00  0.41647305027E+02  0.41647305027E+02  0.00000000000E+00 0.  1.
         21   -1    0    0  501  503 -0.00000000000E+00 -0.00000000000E+00 -0.10934839167E+04  0.10934839167E+04  0.00000000000E+00 0.  1.
          6    2    1    2  501    0  0.42469016606E+02  0.73185813410E+00 -0.84046410657E+03  0.85915250203E+03  0.17308655151E+03 0.  0.
         24    2    3    3    0    0  0.40528703496E+02  0.41781901737E+02 -0.77709570737E+03  0.78347876211E+03  0.81073603296E+02 0.  0.
         -6    2    1    2    0  502 -0.42469016606E+02 -0.73185813410E+00 -0.21137250506E+03  0.27597871966E+03  0.17228396566E+03 0.  0.
        -24    2    5    5    0    0  0.38336249336E+02  0.13818654344E+02 -0.13762110178E+03  0.16551348575E+03  0.82428897169E+02 0.  0.
          5    1    3    3  501    0  0.19403131108E+01 -0.41050043603E+02 -0.63368399205E+02  0.75673739914E+02  0.47000000000E+01 0. -1.
        -11    1    4    4    0    0 -0.23756874295E+01 -0.13780712558E+02 -0.37783094543E+03  0.37808963917E+03  0.00000000000E+00 0.  1.
         12    1    4    4    0    0  0.42904390925E+02  0.55562614295E+02 -0.39926476194E+03  0.40538912294E+03  0.00000000000E+00 0. -1.
         -5    1    5    5    0  502 -0.80805265942E+02 -0.14550512478E+02 -0.73751403280E+02  0.11046523391E+03  0.47000000000E+01 0.  1.
         13    1    6    6    0    0  0.19386811772E+02  0.15788756818E+02 -0.14343242146E+03  0.14559530500E+03  0.00000000000E+00 0. -1.
        -14    1    6    6    0    0  0.18949437564E+02 -0.19701024745E+01  0.58113196823E+01  0.19918180745E+02  0.00000000000E+00 0.  1.
<mgrwt>
<rscale>  2 0.17802691E+03</rscale>
<asrwt>0</asrwt>
<pdfrwt beam="1">  1       21 0.64072780E-02 0.17822207E+03</pdfrwt>
<pdfrwt beam="2">  1       21 0.16822829E+00 0.17822207E+03</pdfrwt>
<totfact> 0.39040957E+04</totfact>
</mgrwt>
</event>
<event>
12    1  0.1071811E-001  0.1766691E+03  0.7546771E-02  0.1171560E+00
         21   -1    0    0  503  502  0.00000000000E+00  0.00000000000E+00  0.42855453594E+02  0.42855453594E+02  0.00000000000E+00 0. -1.
         21   -1    0    0  501  503 -0.00000000000E+00 -0.00000000000E+00 -0.72695176689E+03  0.72695176689E+03  0.00000000000E+00 0. -1.
          6    2    1    2  501    0  0.36543952503E+02  0.86185899305E-01 -0.30678542521E+03  0.35401874898E+03  0.17284822712E+03 0.  0.
         24    2    3    3    0    0  0.43337347764E+02 -0.11110711993E+02 -0.32052432580E+03  0.33446451335E+03  0.84433960161E+02 0.  0.
         -6    2    1    2    0  502 -0.36543952503E+02 -0.86185899305E-01 -0.37731088808E+03  0.41578847150E+03  0.17082470217E+03 0.  0.
        -24    2    5    5    0    0 -0.64064493244E+01 -0.63403691650E+02 -0.18548297447E+03  0.21149110472E+03  0.79142168583E+02 0.  0.
          5    1    3    3  501    0 -0.67933952610E+01  0.11196897893E+02  0.13738900594E+02  0.19554235631E+02  0.47000000000E+01 0. -1.
        -13    1    4    4    0    0  0.31176879124E+02  0.31662327776E+02 -0.22151159203E+03  0.22592451438E+03  0.00000000000E+00 0.  1.
         14    1    4    4    0    0  0.12160468640E+02 -0.42773039770E+02 -0.99012733772E+02  0.10853999898E+03  0.00000000000E+00 0. -1.
         -5    1    5    5    0  502 -0.30137503178E+02  0.63317505751E+02 -0.19182791361E+03  0.20429736678E+03  0.47000000000E+01 0.  1.
         13    1    6    6    0    0  0.18731815504E+02 -0.37882706174E+02 -0.16478728446E+03  0.17012004426E+03  0.00000000000E+00 0. -1.
        -14    1    6    6    0    0 -0.25138264829E+02 -0.25520985476E+02 -0.20695690009E+02  0.41371060456E+02  0.00000000000E+00 0.  1.
<mgrwt>
<rscale>  2 0.17617221E+03</rscale>
<asrwt>0</asrwt>
<pdfrwt beam="1">  1       21 0.65931469E-02 0.17666912E+03</pdfrwt>
<pdfrwt beam="2">  1       21 0.11183873E+00 0.17666912E+03</pdfrwt>
<totfact> 0.10593137E+05</totfact>
</mgrwt>
</event>
<event>
12    1  0.1071811E-001  0.2531424E+03  0.7546771E-02  0.1111464E+00
         21   -1    0    0  501  502  0.00000000000E+00  0.00000000000E+00  0.17622711812E+03  0.17622711812E+03  0.00000000000E+00 0. -1.
         21   -1    0    0  502  503 -0.00000000000E+00 -0.00000000000E+00 -0.45447200873E+03  0.45447200873E+03  0.00000000000E+00 0. -1.
         -6    2    1    2    0  503  0.11197636966E+03  0.14787474309E+03 -0.28084806149E+03  0.37754330757E+03  0.17104873119E+03 0.  0.
        -24    2    3    3    0    0  0.92873587312E+02  0.31788158922E+02 -0.19251046708E+03  0.23034741121E+03  0.79772549473E+02 0.  0.
          6    2    1    2  501    0 -0.11197636966E+03 -0.14787474309E+03  0.26031708764E+01  0.25315581928E+03  0.17226562435E+03 0.  0.
         24    2    5    5    0    0  0.42173770666E+01 -0.62353913798E+02  0.26289085261E+02  0.10687556921E+03  0.82616429691E+02 0.  0.
          5    1    5    5  501    0 -0.11619374672E+03 -0.85520829291E+02 -0.23685914384E+02  0.14628025007E+03  0.47000000000E+01 0. -1.
        -11    1    6    6    0    0  0.10847577223E+02  0.18713985291E+02  0.10394604066E+02  0.23998561848E+02  0.00000000000E+00 0.  1.
         12    1    6    6    0    0 -0.66302001563E+01 -0.81067899089E+02  0.15894481195E+02  0.82877007362E+02  0.00000000000E+00 0. -1.
         -5    1    3    3    0  503  0.19102782345E+02  0.11608658417E+03 -0.88337594406E+02  0.14719589635E+03  0.47000000000E+01 0.  1.
         11    1    4    4    0    0  0.74385812299E+02  0.57627021246E+02 -0.13352563864E+03  0.16334998875E+03  0.00000000000E+00 0. -1.
        -12    1    4    4    0    0  0.18487775013E+02 -0.25838862324E+02 -0.58984828443E+02  0.66997422470E+02  0.00000000000E+00 0.  1.
<mgrwt>
<rscale>  2 0.25293555E+03</rscale>
<asrwt>0</asrwt>
<pdfrwt beam="1">  1       21 0.27111865E-01 0.25314243E+03</pdfrwt>
<pdfrwt beam="2">  1       21 0.69918769E-01 0.25314243E+03</pdfrwt>
<totfact> 0.23327828E+04</totfact>
</mgrwt>
</event>
<event>
12    1  0.1071811E-001  0.2096937E+03  0.7546771E-02  0.1141884E+00
         21   -1    0    0  501  502  0.00000000000E+00  0.00000000000E+00  0.78799857336E+02  0.78799857336E+02  0.00000000000E+00 0.  1.
         21   -1    0    0  502  503 -0.00000000000E+00 -0.00000000000E+00 -0.59248428528E+03  0.59248428528E+03  0.00000000000E+00 0.  1.
         -6    2    1    2    0  503  0.26975140561E+02  0.11538111999E+03 -0.33876093743E+03  0.39820963926E+03  0.17254414802E+03 0.  0.
        -24    2    3    3    0    0  0.31146392044E+02  0.25214453431E+02 -0.26291365291E+03  0.28021672564E+03  0.88272068280E+02 0.  0.
          6    2    1    2  501    0 -0.26975140561E+02 -0.11538111999E+03 -0.17492349051E+03  0.27307450335E+03  0.17300576808E+03 0.  0.
         24    2    5    5    0    0 -0.14258456432E+01 -0.33891144628E+02 -0.16579341361E+03  0.18705804644E+03  0.79703287386E+02 0.  0.
          5    1    5    5  501    0 -0.25549294918E+02 -0.81489975366E+02 -0.91300769035E+01  0.86016456915E+02  0.47000000000E+01 0. -1.
        -11    1    6    6    0    0  0.34160781753E+01 -0.28152594296E+02 -0.85281333414E+01  0.29613632232E+02  0.00000000000E+00 0.  1.
         12    1    6    6    0    0 -0.48419238186E+01 -0.57385503320E+01 -0.15726528027E+03  0.15744441420E+03  0.00000000000E+00 0. -1.
         -5    1    3    3    0  503 -0.41712514831E+01  0.90166666562E+02 -0.75847284513E+02  0.11799291363E+03  0.47000000000E+01 0.  1.
         13    1    4    4    0    0  0.38020388579E+02 -0.19298485022E+02 -0.68757368474E+02  0.80904617861E+02  0.00000000000E+00 0. -1.
        -14    1    4    4    0    0 -0.68739965342E+01  0.44512938453E+02 -0.19415628444E+03  0.19931210778E+03  0.00000000000E+00 0.  1.
<mgrwt>
<rscale>  2 0.20959848E+03</rscale>
<asrwt>0</asrwt>
<pdfrwt beam="1">  1       21 0.12123055E-01 0.20969372E+03</pdfrwt>
<pdfrwt beam="2">  1       21 0.91151428E-01 0.20969372E+03</pdfrwt>
<totfact> 0.58294361E+04</totfact>
</mgrwt>
</event>
<event>
12    1  0.1071811E-001  0.2051884E+03  0.7546771E-02  0.1145635E+00
         21   -1    0    0  503  502  0.00000000000E+00  0.00000000000E+00  0.71663972751E+03  0.71663972751E+03  0.00000000000E+00 0.  1.
         21   -1    0    0  501  503 -0.00000000000E+00 -0.00000000000E+00 -0.62481794374E+02  0.62481794374E+02  0.00000000000E+00 0.  1.
          6    2    1    2  501    0 -0.95156773269E+02  0.51685639001E+02  0.22760648143E+03  0.30578399635E+03  0.17312690507E+03 0.  0.
         24    2    3    3    0    0 -0.46107574088E+02 -0.37759727792E+02  0.91369806872E+02  0.13552296418E+03  0.80413473885E+02 0.  0.
         -6    2    1    2    0  502  0.95156773269E+02 -0.51685639001E+02  0.42655145171E+03  0.47333752553E+03  0.17428727820E+03 0.  0.
        -24    2    5    5    0    0  0.44342995843E+02  0.42727332786E+01  0.36362698153E+03  0.37487454593E+03  0.79509659544E+02 0.  0.
          5    1    3    3  501    0 -0.49049199181E+02  0.89445366794E+02  0.13623667456E+03  0.17026103217E+03  0.47000000000E+01 0. -1.
        -11    1    4    4    0    0 -0.68586573227E+02 -0.20630645360E+02  0.69355978201E+02  0.99699514880E+02  0.00000000000E+00 0.  1.
         12    1    4    4    0    0  0.22478999140E+02 -0.17129082433E+02  0.22013828670E+02  0.35823449304E+02  0.00000000000E+00 0. -1.
         -5    1    5    5    0  502  0.50813777426E+02 -0.55958372280E+02  0.62924470178E+02  0.98462979600E+02  0.47000000000E+01 0.  1.
         11    1    6    6    0    0 -0.10011397161E+02  0.66092914721E+01  0.65327249736E+01  0.13659696280E+02  0.00000000000E+00 0. -1.
        -12    1    6    6    0    0  0.54354393005E+02 -0.23365581935E+01  0.35709425656E+03  0.36121484965E+03  0.00000000000E+00 0.  1.
<mgrwt>
<rscale>  2 0.20494176E+03</rscale>
<asrwt>0</asrwt>
<pdfrwt beam="1">  1       21 0.11025226E+00 0.20518838E+03</pdfrwt>
<pdfrwt beam="2">  1       21 0.96125842E-02 0.20518838E+03</pdfrwt>
<totfact> 0.56149787E+04</totfact>
</mgrwt>
</event>
<event>
12    1  0.1071811E-001  0.2557311E+03  0.7546771E-02  0.1109816E+00
         21   -1    0    0  503  502  0.00000000000E+00  0.00000000000E+00  0.54504033685E+03  0.54504033685E+03  0.00000000000E+00 0.  1.
         21   -1    0    0  501  503 -0.00000000000E+00 -0.00000000000E+00 -0.14319360123E+03  0.14319360123E+03  0.00000000000E+00 0.  1.
          6    2    1    2  501    0  0.61548972632E+02  0.17762043129E+03  0.61496294724E+02  0.26251473084E+03  0.17261198105E+03 0.  0.
         24    2    3    3    0    0  0.92169737472E+02  0.17772066706E+03  0.28136389385E+02  0.21698875396E+03  0.78819838445E+02 0.  0.
         -6    2    1    2    0  502 -0.61548972632E+02 -0.17762043129E+03  0.34035044090E+03  0.42571920724E+03  0.17338144984E+03 0.  0.
        -24    2    5    5    0    0 -0.91259895673E+02 -0.11161648047E+03  0.30034253919E+03  0.34288212212E+03  0.81091932724E+02 0.  0.
          5    1    3    3  501    0 -0.30620764840E+02 -0.10023577648E+00  0.33359905339E+02  0.45525976879E+02  0.47000000000E+01 0. -1.
        -11    1    4    4    0    0  0.36255073322E+02  0.12012261500E+03 -0.14128838786E+02  0.12626756140E+03  0.00000000000E+00 0.  1.
         12    1    4    4    0    0  0.55914664150E+02  0.57598052066E+02  0.42265228171E+02  0.90721192569E+02  0.00000000000E+00 0. -1.
         -5    1    5    5    0  502  0.29710923041E+02 -0.66003950816E+02  0.40007901703E+02  0.82837085113E+02  0.47000000000E+01 0.  1.
         13    1    6    6    0    0 -0.11064361287E+02 -0.76190928010E+02  0.15684078281E+03  0.17471836982E+03  0.00000000000E+00 0. -1.
        -14    1    6    6    0    0 -0.80195534386E+02 -0.35425552461E+02  0.14350175638E+03  0.16816375230E+03  0.00000000000E+00 0.  1.
<mgrwt>
<rscale>  2 0.25560078E+03</rscale>
<asrwt>0</asrwt>
<pdfrwt beam="1">  1       21 0.83852358E-01 0.25573115E+03</pdfrwt>
<pdfrwt beam="2">  1       21 0.22029785E-01 0.25573115E+03</pdfrwt>
<totfact> 0.23012388E+04</totfact>
</mgrwt>
</event>
<event>
12    1  0.1071811E-001  0.1829020E+03  0.7546771E-02  0.1165202E+00
         21   -1    0    0  501  502  0.00000000000E+00  0.00000000000E+00  0.36676890329E+03  0.36676890329E+03  0.00000000000E+00 0. -1.
         21   -1    0    0  502  503 -0.00000000000E+00 -0.00000000000E+00 -0.16870149204E+03  0.16870149204E+03  0.00000000000E+00 0. -1.
         -6    2    1    2    0  503  0.25324568436E+02 -0.51934140579E+02 -0.82749485733E+02  0.20075010125E+03  0.17353569385E+03 0.  0.
        -24    2    3    3    0    0  0.74423098592E+02 -0.90192439785E+01 -0.24609056318E+02  0.11325865283E+03  0.81251291819E+02 0.  0.
          6    2    1    2  501    0 -0.25324568436E+02  0.51934140579E+02  0.28081689698E+03  0.33472029408E+03  0.17274564225E+03 0.  0.
         24    2    5    5    0    0  0.32950219696E+02  0.78801820120E+02  0.18245545388E+03  0.21718354824E+03  0.81137273432E+02 0.  0.
          5    1    5    5  501    0 -0.58274788132E+02 -0.26867679541E+02  0.98361443099E+02  0.11753674585E+03  0.47000000000E+01 0. -1.
        -13    1    6    6    0    0  0.53965091586E+02  0.25371946579E+02  0.80606097026E+02  0.10026619401E+03  0.00000000000E+00 0.  1.
         14    1    6    6    0    0 -0.21014871891E+02  0.53429873542E+02  0.10184935686E+03  0.11691735423E+03  0.00000000000E+00 0. -1.
         -5    1    3    3    0  503 -0.49098530156E+02 -0.42914896600E+02 -0.58140429416E+02  0.87491448418E+02  0.47000000000E+01 0.  1.
         13    1    4    4    0    0  0.61054094157E+02  0.21245367871E+02 -0.40779515548E+02  0.76432564772E+02  0.00000000000E+00 0. -1.
        -14    1    4    4    0    0  0.13369004435E+02 -0.30264611850E+02  0.16170459230E+02  0.36826088059E+02  0.00000000000E+00 0.  1.
<mgrwt>
<rscale>  2 0.18271431E+03</rscale>
<asrwt>0</asrwt>
<pdfrwt beam="1">  1       21 0.56425985E-01 0.18290196E+03</pdfrwt>
<pdfrwt beam="2">  1       21 0.25954076E-01 0.18290196E+03</pdfrwt>
<totfact> 0.41857672E+04</totfact>
</mgrwt>
</event>
<event>
12    1  0.1071811E-001  0.1952012E+03  0.7546771E-02  0.1154377E+00
         21   -1    0    0  503  502  0.00000000000E+00  0.00000000000E+00  0.83388529191E+02  0.83388529191E+02  0.00000000000E+00 0.  1.
         21   -1    0    0  501  503 -0.00000000000E+00 -0.00000000000E+00 -0.14389826913E+04  0.14389826913E+04  0.00000000000E+00 0.  1.
          6    2    1    2  501    0  0.61646644017E+02  0.62003752077E+02 -0.13070901807E+04  0.13212340539E+04  0.17184269156E+03 0.  0.
         24    2    3    3    0    0  0.81099549513E+02  0.89367414379E+02 -0.12027097422E+04  0.12114863820E+04  0.81393230889E+02 0.  0.
         -6    2    1    2    0  502 -0.61646644017E+02 -0.62003752077E+02 -0.48503981363E+02  0.20113716657E+03  0.17452435239E+03 0.  0.
        -24    2    5    5    0    0 -0.35584683370E+02 -0.18628102794E+02 -0.96133437546E+02  0.13148569250E+03  0.80209560617E+02 0.  0.
          5    1    3    3  501    0 -0.19452905496E+02 -0.27363662302E+02 -0.10438043851E+03  0.10974767192E+03  0.47000000000E+01 0. -1.
        -11    1    4    4    0    0  0.53360517572E+02  0.27557255232E+02 -0.28391958469E+03  0.29020178794E+03  0.00000000000E+00 0.  1.
         12    1    4    4    0    0  0.27739031941E+02  0.61810159147E+02 -0.91879015750E+03  0.92128459402E+03  0.00000000000E+00 0. -1.
         -5    1    5    5    0  502 -0.26061960647E+02 -0.43375649284E+02  0.47629456183E+02  0.69651474068E+02  0.47000000000E+01 0.  1.
         13    1    6    6    0    0  0.12519682465E+02 -0.35682695507E+02 -0.49983207148E+02  0.62676296991E+02  0.00000000000E+00 0. -1.
        -14    1    6    6    0    0 -0.48104365835E+02  0.17054592713E+02 -0.46150230397E+02  0.68809395512E+02  0.00000000000E+00 0.  1.
<mgrwt>
<rscale>  2 0.19460000E+03</rscale>
<asrwt>0</asrwt>
<pdfrwt beam="1">  1       21 0.12829005E-01 0.19520124E+03</pdfrwt>
<pdfrwt beam="2">  1       21 0.22138195E+00 0.19520124E+03</pdfrwt>
<totfact> 0.51230078E+03</totfact>
</mgrwt>
</event>
<event>
12    1  0.1071811E-001  0.1802814E+03  0.7546771E-02  0.1167963E+00
         21   -1    0    0  501  502  0.00000000000E+00  0.00000000000E+00  0.56451688456E+02  0.56451688456E+02  0.00000000000E+00 0.  1.
         21   -1    0    0  502  503 -0.00000000000E+00 -0.00000000000E+00 -0.74422072908E+03  0.74422072908E+03  0.00000000000E+00 0.  1.
         -6    2    1    2    0  503 -0.42529494671E+02 -0.25902665657E+02 -0.14892415357E+03  0.23246893610E+03  0.17141673411E+03 0.  0.
        -24    2    3    3    0    0  0.12460337363E+02  0.21973077291E+01 -0.12522104686E+02  0.82665401196E+02  0.80725939329E+02 0.  0.
          6    2    1    2  501    0  0.42529494671E+02  0.25902665657E+02 -0.53884488706E+03  0.56820348144E+03  0.17326764846E+03 0.  0.
         24    2    5    5    0    0 -0.36484209952E+02  0.21247781756E+02 -0.19071568406E+03  0.21115885476E+03  0.80206134360E+02 0.  0.
          5    1    5    5  501    0  0.79013704623E+02  0.46548839004E+01 -0.34812920300E+03  0.35704462668E+03  0.47000000000E+01 0. -1.
        -11    1    6    6    0    0 -0.46640939592E+00 -0.20940278791E+02 -0.12236257825E+02  0.24257757916E+02  0.00000000000E+00 0.  1.
         12    1    6    6    0    0 -0.36017800556E+02  0.42188060547E+02 -0.17847942624E+03  0.18690109684E+03  0.00000000000E+00 0. -1.
         -5    1    3    3    0  503 -0.54989832034E+02 -0.28099973386E+02 -0.13640204888E+03  0.14980353491E+03  0.47000000000E+01 0.  1.
         13    1    4    4    0    0 -0.23312868285E+02 -0.25677788562E+02  0.28021791812E+01  0.34794983278E+02  0.00000000000E+00 0. -1.
        -14    1    4    4    0    0  0.35773205648E+02  0.27875096292E+02 -0.15324283868E+02  0.47870417918E+02  0.00000000000E+00 0.  1.
<mgrwt>
<rscale>  2 0.17983521E+03</rscale>
<asrwt>0</asrwt>
<pdfrwt beam="1">  1       21 0.86848762E-02 0.18028140E+03</pdfrwt>
<pdfrwt beam="2">  1       21 0.11449548E+00 0.18028140E+03</pdfrwt>
<totfact> 0.61985608E+04</totfact>
</mgrwt>
</event>
<event>
12    1  0.1071811E-001  0.1772313E+03  0.7546771E-02  0.1171286E+00
         21   -1    0    0  503  502  0.00000000000E+00  0.00000000000E+00  0.14513152012E+04  0.14513152012E+04  0.00000000000E+00 0. -1.
         21   -1    0    0  501  503 -0.00000000000E+00 -0.00000000000E+00 -0.21542432108E+02  0.21542432108E+02  0.00000000000E+00 0. -1.
          6    2    1    2  501    0 -0.76261358279E-01  0.25853124431E+02  0.62499768191E+03  0.64879824675E+03  0.17218789948E+03 0.  0.
         24    2    3    3    0    0  0.36848864799E+01 -0.22947501761E+02  0.12651582826E+03  0.14789716293E+03  0.72987326136E+02 0.  0.
         -6    2    1    2    0  502  0.76261358279E-01 -0.25853124431E+02  0.80477508717E+03  0.82405938655E+03  0.17533551202E+03 0.  0.
        -24    2    5    5    0    0  0.51951573660E+02  0.22859437993E+02  0.57139954416E+03  0.58003029845E+03  0.81952352882E+02 0.  0.
          5    1    3    3  501    0 -0.37611478381E+01  0.48800626191E+02  0.49848185365E+03  0.50090108382E+03  0.47000000000E+01 0. -1.
        -13    1    4    4    0    0  0.29021841573E+02  0.11746023606E+00  0.18117993360E+02  0.34213195826E+02  0.00000000000E+00 0.  1.
         14    1    4    4    0    0 -0.25336955093E+02 -0.23064961997E+02  0.10839783490E+03  0.11368396710E+03  0.00000000000E+00 0. -1.
         -5    1    5    5    0  502 -0.51875312302E+02 -0.48712562423E+02  0.23337554301E+03  0.24402908810E+03  0.47000000000E+01 0.  1.
         11    1    6    6    0    0 -0.39408978646E+01 -0.52856025827E+01  0.15733614011E+01  0.67781809315E+01  0.00000000000E+00 0. -1.
        -12    1    6    6    0    0  0.55892471525E+02  0.28145040575E+02  0.56982618276E+03  0.57325211752E+03  0.00000000000E+00 0.  1.
<mgrwt>
<rscale>  2 0.17644778E+03</rscale>
<asrwt>0</asrwt>
<pdfrwt beam="1">  1       21 0.22327918E+00 0.17723129E+03</pdfrwt>
<pdfrwt beam="2">  1       21 0.33142215E-02 0.17723129E+03</pdfrwt>
<totfact> 0.52093391E+04</totfact>
</mgrwt>
</event>
<event>
12    1  0.1071811E-001  0.2030168E+03  0.7546771E-02  0.1147350E+00
         21   -1    0    0  503  502  0.00000000000E+00  0.00000000000E+00  0.13225134676E+04  0.13225134676E+04  0.00000000000E+00 0. -1.
         21   -1    0    0  501  503 -0.00000000000E+00 -0.00000000000E+00 -0.31886568524E+02  0.31886568524E+02  0.00000000000E+00 0. -1.
          6    2    1    2  501    0 -0.73303968439E+02  0.72112854797E+02  0.53773669498E+03  0.57478392310E+03  0.17504876324E+03 0.  0.
         24    2    3    3    0    0 -0.12534135159E+02  0.10457932173E+03  0.38690250861E+03  0.40889213340E+03  0.80033033865E+02 0.  0.
         -6    2    1    2    0  502  0.73303968439E+02 -0.72112854797E+02  0.75289020411E+03  0.77961611304E+03  0.17430974914E+03 0.  0.
        -24    2    5    5    0    0  0.61005502055E+02 -0.11662492394E+03  0.61564733159E+03  0.63473591207E+03  0.80901155825E+02 0.  0.
          5    1    3    3  501    0 -0.60769833280E+02 -0.32466466937E+02  0.15083418637E+03  0.16589178970E+03  0.47000000000E+01 0. -1.
        -11    1    4    4    0    0  0.20715397779E+02  0.50974082087E+02  0.91005095041E+02  0.10634571958E+03  0.00000000000E+00 0.  1.
         12    1    4    4    0    0 -0.33249532939E+02  0.53605239647E+02  0.29589741357E+03  0.30254641382E+03  0.00000000000E+00 0. -1.
         -5    1    5    5    0  502  0.12298466384E+02  0.44512069141E+02  0.13724287252E+03  0.14488020097E+03  0.47000000000E+01 0.  1.
         11    1    6    6    0    0  0.57150100254E+02 -0.11094568000E+03  0.40083590908E+03  0.41981484476E+03  0.00000000000E+00 0. -1.
        -12    1    6    6    0    0  0.38554018011E+01 -0.56792439362E+01  0.21481142250E+03  0.21492106731E+03  0.00000000000E+00 0.  1.
<mgrwt>
<rscale>  2 0.20285736E+03</rscale>
<asrwt>0</asrwt>
<pdfrwt beam="1">  1       21 0.20346357E+00 0.20301676E+03</pdfrwt>
<pdfrwt beam="2">  1       21 0.49056270E-02 0.20301676E+03</pdfrwt>
<totfact> 0.35192902E+04</totfact>
</mgrwt>
</event>
<event>
12    1  0.1071811E-001  0.3087849E+03  0.7546771E-02  0.1080964E+00
         21   -1    0    0  501  502  0.00000000000E+00  0.00000000000E+00  0.59807086215E+03  0.59807086215E+03  0.00000000000E+00 0. -1.
         21   -1    0    0  502  503 -0.00000000000E+00 -0.00000000000E+00 -0.16166289992E+03  0.16166289992E+03  0.00000000000E+00 0.  1.
         -6    2    1    2    0  503  0.19529417883E+03 -0.15804101257E+03  0.17195945719E+03  0.35318592268E+03  0.17903480979E+03 0.  0.
        -24    2    3    3    0    0  0.13927564867E+03 -0.43798391279E+02  0.41389901189E+02  0.17081281282E+03  0.78408467104E+02 0.  0.
          6    2    1    2  501    0 -0.19529417883E+03  0.15804101257E+03  0.26444850503E+03  0.40654783939E+03  0.17953093315E+03 0.  0.
         24    2    5    5    0    0 -0.19706228089E+03  0.75628604765E+02  0.19283943282E+03  0.29725520300E+03  0.81365720391E+02 0.  0.
          5    1    5    5  501    0  0.17681020546E+01  0.82412407806E+02  0.71609072214E+02  0.10929263639E+03  0.47000000000E+01 0. -1.
        -11    1    6    6    0    0 -0.18028424402E+02  0.33648924130E+02  0.13770382431E+02  0.40581986322E+02  0.00000000000E+00 0.  1.
         12    1    6    6    0    0 -0.17903385649E+03  0.41979680635E+02  0.17906905039E+03  0.25667321668E+03  0.00000000000E+00 0. -1.
         -5    1    3    3    0  503  0.56018530166E+02 -0.11424262129E+03  0.13056955601E+03  0.18237310985E+03  0.47000000000E+01 0.  1.
         11    1    4    4    0    0  0.73269159789E+02  0.12183787818E+02  0.39760053574E+02  0.84247708111E+02  0.00000000000E+00 0. -1.
        -12    1    4    4    0    0  0.66006488879E+02 -0.55982179097E+02  0.16298476153E+01  0.86565104712E+02  0.00000000000E+00 0.  1.
<mgrwt>
<rscale>  2 0.30871286E+03</rscale>
<asrwt>0</asrwt>
<pdfrwt beam="1">  1       21 0.92010901E-01 0.30878493E+03</pdfrwt>
<pdfrwt beam="2">  1       21 0.24871216E-01 0.30878493E+03</pdfrwt>
<totfact> 0.14359176E+04</totfact>
</mgrwt>
</event>
<event>
12    1  0.1071811E-001  0.1914737E+03  0.7546771E-02  0.1157152E+00
         21   -1    0    0  503  502  0.00000000000E+00  0.00000000000E+00  0.16096382804E+03  0.16096382804E+03  0.00000000000E+00 0. -1.
         21   -1    0    0  501  503 -0.00000000000E+00 -0.00000000000E+00 -0.27559519179E+03  0.27559519179E+03  0.00000000000E+00 0. -1.
          6    2    1    2  501    0 -0.42263687434E+02  0.71075847405E+02 -0.14830888334E+03  0.24214620208E+03  0.17263042299E+03 0.  0.
         24    2    3    3    0    0  0.92979038923E+01 -0.22941047932E+02 -0.61834779645E+02  0.10431429388E+03  0.80281935925E+02 0.  0.
         -6    2    1    2    0  502  0.42263687434E+02 -0.71075847405E+02  0.33677519591E+02  0.19441281775E+03  0.17269676610E+03 0.  0.
        -24    2    5    5    0    0  0.25062648447E+02 -0.21725847928E+02 -0.46838575433E+02  0.98307512236E+02  0.79814572592E+02 0.  0.
          5    1    3    3  501    0 -0.51561591326E+02  0.94016895337E+02 -0.86474103693E+02  0.13783190820E+03  0.47000000000E+01 0. -1.
        -11    1    4    4    0    0  0.38245747927E+02  0.10617782334E+02 -0.29084563851E+02  0.49207584686E+02  0.00000000000E+00 0.  1.
         12    1    4    4    0    0 -0.28947844035E+02 -0.33558830266E+02 -0.32750215795E+02  0.55106709189E+02  0.00000000000E+00 0. -1.
         -5    1    5    5    0  502  0.17201038987E+02 -0.49349999477E+02  0.80516095024E+02  0.96105305517E+02  0.47000000000E+01 0.  1.
         11    1    6    6    0    0 -0.12409155977E+02 -0.26349378793E+02  0.93701520435E+01  0.30595369979E+02  0.00000000000E+00 0. -1.
        -12    1    6    6    0    0  0.37471804424E+02  0.46235308647E+01 -0.56208727477E+02  0.67712142257E+02  0.00000000000E+00 0.  1.
<mgrwt>
<rscale>  2 0.19145871E+03</rscale>
<asrwt>0</asrwt>
<pdfrwt beam="1">  1       21 0.24763666E-01 0.19147368E+03</pdfrwt>
<pdfrwt beam="2">  1       21 0.42399260E-01 0.19147368E+03</pdfrwt>
<totfact> 0.82593504E+04</totfact>
</mgrwt>
</event>
<event>
12    1  0.1071811E-001  0.1835827E+03  0.7546771E-02  0.1164624E+00
         21   -1    0    0  501  502  0.00000000000E+00  0.00000000000E+00  0.19620178378E+03  0.19620178378E+03  0.00000000000E+00 0.  1.
         21   -1    0    0  502  503 -0.00000000000E+00 -0.00000000000E+00 -0.32517884721E+03  0.32517884721E+03  0.00000000000E+00 0.  1.
         -6    2    1    2    0  503 -0.18819311532E+02  0.54797379438E+02 -0.24419776152E+03  0.30550803938E+03  0.17420016106E+03 0.  0.
        -24    2    3    3    0    0 -0.30160747729E+02  0.24873572510E+02 -0.36970551091E+02  0.95771849993E+02  0.79227900957E+02 0.  0.
          6    2    1    2  501    0  0.18819311532E+02 -0.54797379438E+02  0.11522069809E+03  0.21587259161E+03  0.17311339423E+03 0.  0.
         24    2    5    5    0    0 -0.32729784523E+02 -0.37126534218E+02  0.12942741496E+03  0.15936162914E+03  0.78708670172E+02 0.  0.
          5    1    5    5  501    0  0.51549096055E+02 -0.17670845221E+02 -0.14206716878E+02  0.56510962470E+02  0.47000000000E+01 0. -1.
        -13    1    6    6    0    0 -0.49566111791E+02 -0.11085213585E+01  0.49328990575E+02  0.69938384088E+02  0.00000000000E+00 0.  1.
         14    1    6    6    0    0  0.16836327268E+02 -0.36018012859E+02  0.80098424390E+02  0.89423245054E+02  0.00000000000E+00 0. -1.
         -5    1    3    3    0  503  0.11341436197E+02  0.29923806928E+02 -0.20722721043E+03  0.20973618938E+03  0.47000000000E+01 0.  1.
         11    1    4    4    0    0 -0.14438102561E+00  0.47225042831E+02 -0.68239137186E+01  0.47715734457E+02  0.00000000000E+00 0. -1.
        -12    1    4    4    0    0 -0.30016366703E+02 -0.22351470321E+02 -0.30146637373E+02  0.48056115536E+02  0.00000000000E+00 0.  1.
<mgrwt>
<rscale>  2 0.18332445E+03</rscale>
<asrwt>0</asrwt>
<pdfrwt beam="1">  1       21 0.30184890E-01 0.18358272E+03</pdfrwt>
<pdfrwt beam="2">  1       21 0.50027514E-01 0.18358272E+03</pdfrwt>
<totfact> 0.40256492E+04</totfact>
</mgrwt>
</event>
<event>
12    1  0.1071811E-001  0.1867718E+03  0.7546771E-02  0.1163076E+00
         21   -1    0    0  503  502  0.00000000000E+00  0.00000000000E+00  0.16006653478E+03  0.16006653478E+03  0.00000000000E+00 0. -1.
         21   -1    0    0  501  503 -0.00000000000E+00 -0.00000000000E+00 -0.28062573683E+03  0.28062573683E+03  0.00000000000E+00 0. -1.
          6    2    1    2  501    0  0.47826814203E+02  0.23672147547E+02  0.49583729157E+02  0.19324138896E+03  0.17898579129E+03 0.  0.
         24    2    3    3    0    0 -0.36001331338E+02 -0.21780812642E+02  0.36246599831E+02  0.96840670116E+02  0.79333471698E+02 0.  0.
         -6    2    1    2    0  502 -0.47826814203E+02 -0.23672147547E+02 -0.17014293121E+03  0.24745088265E+03  0.17156790947E+03 0.  0.
        -24    2    5    5    0    0 -0.11271747031E+02 -0.25523356364E+02 -0.18798129512E+03  0.20646311451E+03  0.80694215009E+02 0.  0.
          5    1    3    3  501    0  0.83828145541E+02  0.45452960189E+02  0.13337129326E+02  0.96400718843E+02  0.47000000000E+01 0. -1.
        -13    1    4    4    0    0  0.17576805880E+02 -0.22390863181E+02  0.32389420334E+02  0.43120405941E+02  0.00000000000E+00 0.  1.
         14    1    4    4    0    0 -0.53578137218E+02  0.61005053873E+00  0.38571794968E+01  0.53720264175E+02  0.00000000000E+00 0. -1.
         -5    1    5    5    0  502 -0.36555067172E+02  0.18512088164E+01  0.17838363915E+02  0.40987768141E+02  0.47000000000E+01 0.  1.
         11    1    6    6    0    0 -0.30472386004E+02 -0.46389421704E+02 -0.14174661629E+03  0.15222564825E+03  0.00000000000E+00 0. -1.
        -12    1    6    6    0    0  0.19200638973E+02  0.20866065341E+02 -0.46234678834E+02  0.54237466263E+02  0.00000000000E+00 0.  1.
<mgrwt>
<rscale>  2 0.18497187E+03</rscale>
<asrwt>0</asrwt>
<pdfrwt beam="1">  1       21 0.24625621E-01 0.18677175E+03</pdfrwt>
<pdfrwt beam="2">  1       21 0.43173190E-01 0.18677175E+03</pdfrwt>
<totfact> 0.80605037E+04</totfact>
</mgrwt>
</event>
<event>
12    1  0.1071811E-001  0.1771279E+03  0.7546771E-02  0.1171443E+00
         21   -1    0    0  503  502  0.00000000000E+00  0.00000000000E+00  0.10977829622E+04  0.10977829622E+04  0.00000000000E+00 0.  1.
         21   -1    0    0  501  503 -0.00000000000E+00 -0.00000000000E+00 -0.37602080062E+02  0.37602080062E+02  0.00000000000E+00 0.  1.
          6    2    1    2  501    0  0.99586419969E+01 -0.22916368585E+01  0.24765260539E+03  0.30447679614E+03  0.17683291628E+03 0.  0.
         24    2    3    3    0    0 -0.42511669628E+02 -0.12298299180E+02  0.60426770201E+02  0.10972343864E+03  0.80183216534E+02 0.  0.
         -6    2    1    2    0  502 -0.99586419969E+01  0.22916368585E+01  0.81252827679E+03  0.83090824617E+03  0.17349895335E+03 0.  0.
        -24    2    5    5    0    0 -0.43513121053E+02  0.43235427172E+02  0.69673825900E+03  0.70350449720E+03  0.75575671769E+02 0.  0.
          5    1    3    3  501    0  0.52470311625E+02  0.10006662321E+02  0.18722583519E+03  0.19475335749E+03  0.47000000000E+01 0. -1.
        -11    1    4    4    0    0 -0.29338724221E+02 -0.26010117731E+01 -0.14642524317E+02  0.32892697055E+02  0.00000000000E+00 0.  1.
         12    1    4    4    0    0 -0.13172945407E+02 -0.96972874064E+01  0.75069294518E+02  0.76830741590E+02  0.00000000000E+00 0. -1.
         -5    1    5    5    0  502  0.33554479057E+02 -0.40943790313E+02  0.11579001779E+03  0.12740374896E+03  0.47000000000E+01 0.  1.
         13    1    6    6    0    0 -0.61157170932E+02  0.15774839464E+02  0.39674503848E+03  0.40174080036E+03  0.00000000000E+00 0. -1.
        -14    1    6    6    0    0  0.17644049878E+02  0.27460587708E+02  0.29999322052E+03  0.30176369684E+03  0.00000000000E+00 0.  1.
<mgrwt>
<rscale>  2 0.17628993E+03</rscale>
<asrwt>0</asrwt>
<pdfrwt beam="1">  1       21 0.16888966E+00 0.17712794E+03</pdfrwt>
<pdfrwt beam="2">  1       21 0.57849362E-02 0.17712794E+03</pdfrwt>
<totfact> 0.46030841E+04</totfact>
</mgrwt>
</event>
<event>
12    1  0.1071811E-001  0.2023037E+03  0.7546771E-02  0.1151335E+00
         21   -1    0    0  503  502  0.00000000000E+00  0.00000000000E+00  0.51060476052E+02  0.51060476052E+02  0.00000000000E+00 0. -1.
         21   -1    0    0  501  503 -0.00000000000E+00 -0.00000000000E+00 -0.82770663707E+03  0.82770663707E+03  0.00000000000E+00 0.  1.
          6    2    1    2  501    0  0.10393595592E+03 -0.79686883036E+01 -0.51794554732E+03  0.55035759934E+03  0.15414186401E+03 0.  0.
         24    2    3    3    0    0  0.35061677902E+02  0.21257330438E+02 -0.12982972377E+03  0.15506807402E+03  0.74223682546E+02 0.  0.
         -6    2    1    2    0  502 -0.10393595592E+03  0.79686883036E+01 -0.25870061370E+03  0.32840951378E+03  0.17337998237E+03 0.  0.
        -24    2    5    5    0    0  0.15395697788E+02 -0.73726635367E+01 -0.99144162493E+02  0.12852016495E+03  0.79978023012E+02 0.  0.
          5    1    3    3  501    0  0.68874278019E+02 -0.29226018741E+02 -0.38811582354E+03  0.39528952532E+03  0.47000000000E+01 0. -1.
        -13    1    4    4    0    0 -0.58058781348E+00 -0.35702101054E+00 -0.10802205264E+03  0.10802420286E+03  0.00000000000E+00 0.  1.
         14    1    4    4    0    0  0.35642265715E+02  0.21614351448E+02 -0.21807671134E+02  0.47043871164E+02  0.00000000000E+00 0. -1.
         -5    1    5    5    0  502 -0.11933165371E+03  0.15341351840E+02 -0.15955645121E+03  0.19988934883E+03  0.47000000000E+01 0.  1.
         13    1    6    6    0    0  0.81424589990E+01 -0.38938761931E+02 -0.23427004199E+02  0.46166560897E+02  0.00000000000E+00 0. -1.
        -14    1    6    6    0    0  0.72532387892E+01  0.31566098395E+02 -0.75717158294E+02  0.82353604055E+02  0.00000000000E+00 0.  1.
<mgrwt>
<rscale>  2 0.19811988E+03</rscale>
<asrwt>0</asrwt>
<pdfrwt beam="1">  1       21 0.78554582E-02 0.20230374E+03</pdfrwt>
<pdfrwt beam="2">  1       21 0.12733948E+00 0.20230374E+03</pdfrwt>
<totfact> 0.56118548E+04</totfact>
</mgrwt>
</event>
<event>
12    1  0.1071811E-001  0.1911883E+03  0.7546771E-02  0.1157631E+00
         21   -1    0    0  501  502  0.00000000000E+00  0.00000000000E+00  0.20022303123E+03  0.20022303123E+03  0.00000000000E+00 0. -1.
         21   -1    0    0  502  503 -0.00000000000E+00 -0.00000000000E+00 -0.27273745963E+03  0.27273745963E+03  0.00000000000E+00 0. -1.
         -6    2    1    2    0  503 -0.29470258920E+02  0.74466813455E+02 -0.17305935173E+03  0.25788078202E+03  0.17360632490E+03 0.  0.
        -24    2    3    3    0    0 -0.80600154423E+02  0.80068155696E+02 -0.12296096908E+03  0.18592538477E+03  0.80879875953E+02 0.  0.
          6    2    1    2  501    0  0.29470258920E+02 -0.74466813455E+02  0.10054492334E+03  0.21507970884E+03  0.17244186580E+03 0.  0.
         24    2    5    5    0    0  0.57899798760E+02 -0.37151252120E+01  0.95547827084E+02  0.13852188040E+03  0.81809139085E+02 0.  0.
          5    1    5    5  501    0 -0.28429539840E+02 -0.70751688243E+02  0.49970962509E+01  0.76557828442E+02  0.47000000000E+01 0. -1.
        -11    1    6    6    0    0  0.70416293077E+02 -0.24105604172E+02  0.59650436696E+02  0.95381911709E+02  0.00000000000E+00 0.  1.
         12    1    6    6    0    0 -0.12516494317E+02  0.20390478960E+02  0.35897390388E+02  0.43139968693E+02  0.00000000000E+00 0. -1.
         -5    1    3    3    0  503  0.51129895503E+02 -0.56013422410E+01 -0.50098382658E+02  0.71955397254E+02  0.47000000000E+01 0.  1.
         11    1    4    4    0    0  0.12557364550E+02  0.28424166358E+02 -0.41428766891E+02  0.51787675790E+02  0.00000000000E+00 0. -1.
        -12    1    4    4    0    0 -0.93157518973E+02  0.51643989338E+02 -0.81532202186E+02  0.13413770898E+03  0.00000000000E+00 0.  1.
<mgrwt>
<rscale>  2 0.19092354E+03</rscale>
<asrwt>0</asrwt>
<pdfrwt beam="1">  1       21 0.30803543E-01 0.19118828E+03</pdfrwt>
<pdfrwt beam="2">  1       21 0.41959609E-01 0.19118828E+03</pdfrwt>
<totfact> 0.55366187E+04</totfact>
</mgrwt>
</event>
<event>
12    1  0.1071811E-001  0.3094316E+03  0.7546771E-02  0.1080636E+00
         21   -1    0    0  503  502  0.00000000000E+00  0.00000000000E+00  0.30554741362E+03  0.30554741362E+03  0.00000000000E+00 0. -1.
         21   -1    0    0  501  503 -0.00000000000E+00 -0.00000000000E+00 -0.84738705347E+03  0.84738705347E+03  0.00000000000E+00 0. -1.
          6    2    1    2  501    0  0.21486151002E+03  0.14041745658E+03 -0.72863417896E+03  0.79161585581E+03  0.17281598832E+03 0.  0.
         24    2    3    3    0    0  0.30509353389E+02  0.28542403015E+02 -0.25722743109E+03  0.27320659933E+03  0.82039046795E+02 0.  0.
         -6    2    1    2    0  502 -0.21486151002E+03 -0.14041745658E+03  0.18679453911E+03  0.36131861128E+03  0.17255842029E+03 0.  0.
        -24    2    5    5    0    0 -0.94338696245E+02 -0.74071569494E+02  0.16983675707E+03  0.22262044350E+03  0.79554703158E+02 0.  0.
          5    1    3    3  501    0  0.18435215663E+03  0.11187505356E+03 -0.47140674787E+03  0.51840925648E+03  0.47000000000E+01 0. -1.
        -11    1    4    4    0    0  0.20969047293E+02  0.13721141955E+02 -0.12790195172E+02  0.28134672087E+02  0.00000000000E+00 0.  1.
         12    1    4    4    0    0  0.95403060963E+01  0.14821261060E+02 -0.24443723592E+03  0.24507192725E+03  0.00000000000E+00 0. -1.
         -5    1    5    5    0  502 -0.12052281378E+03 -0.66345887081E+02  0.16957782042E+02  0.13869816778E+03  0.47000000000E+01 0.  1.
         11    1    6    6    0    0 -0.82737184561E+02 -0.37601155099E+02  0.15849876070E+03  0.18270507852E+03  0.00000000000E+00 0. -1.
        -12    1    6    6    0    0 -0.11601511684E+02 -0.36470414395E+02  0.11337996368E+02  0.39915364976E+02  0.00000000000E+00 0.  1.
<mgrwt>
<rscale>  2 0.30939562E+03</rscale>
<asrwt>0</asrwt>
<pdfrwt beam="1">  1       21 0.47007295E-01 0.30943157E+03</pdfrwt>
<pdfrwt beam="2">  1       21 0.13036724E+00 0.30943157E+03</pdfrwt>
<totfact> 0.17019753E+03</totfact>
</mgrwt>
</event>
<event>
12    1  0.1071811E-001  0.2724788E+03  0.7546771E-02  0.1100250E+00
         21   -1    0    0  503  502  0.00000000000E+00  0.00000000000E+00  0.46820063278E+03  0.46820063278E+03  0.00000000000E+00 0. -1.
         21   -1    0    0  501  503 -0.00000000000E+00 -0.00000000000E+00 -0.32300254899E+03  0.32300254899E+03  0.00000000000E+00 0. -1.
          6    2    1    2  501    0  0.20596352486E+03 -0.33338928617E+02 -0.21116167779E+03  0.34260874558E+03  0.17105274231E+03 0.  0.
         24    2    3    3    0    0  0.77287010044E+02 -0.69321807380E+02 -0.13271916841E+03  0.18759993839E+03  0.82465534150E+02 0.  0.
         -6    2    1    2    0  502 -0.20596352486E+03  0.33338928617E+02  0.35635976158E+03  0.44859443619E+03  0.17524905355E+03 0.  0.
        -24    2    5    5    0    0 -0.19466732421E+02 -0.57497736131E+01  0.12043007788E+03  0.14528949742E+03  0.78699560566E+02 0.  0.
          5    1    3    3  501    0  0.12867651481E+03  0.35982878763E+02 -0.78442509384E+02  0.15500880719E+03  0.47000000000E+01 0. -1.
        -13    1    4    4    0    0 -0.13921203599E+02 -0.28191453397E+02 -0.42585588776E+02  0.52934774257E+02  0.00000000000E+00 0.  1.
         14    1    4    4    0    0  0.91208213643E+02 -0.41130353983E+02 -0.90133579629E+02  0.13466516414E+03  0.00000000000E+00 0. -1.
         -5    1    5    5    0  502 -0.18649679244E+03  0.39088702231E+02  0.23592968370E+03  0.30330493877E+03  0.47000000000E+01 0.  1.
         11    1    6    6    0    0 -0.40600988506E+02 -0.16695643363E+02  0.11156526487E+03  0.11989158895E+03  0.00000000000E+00 0. -1.
        -12    1    6    6    0    0  0.21134256085E+02  0.10945869750E+02  0.88648130127E+01  0.25397908469E+02  0.00000000000E+00 0.  1.
<mgrwt>
<rscale>  2 0.27180635E+03</rscale>
<asrwt>0</asrwt>
<pdfrwt beam="1">  1       21 0.72030867E-01 0.27247879E+03</pdfrwt>
<pdfrwt beam="2">  1       21 0.49692699E-01 0.27247879E+03</pdfrwt>
<totfact> 0.63772672E+03</totfact>
</mgrwt>
</event>
<event>
12    1  0.1071811E-001  0.2547890E+03  0.7546771E-02  0.1110575E+00
         21   -1    0    0  503  502  0.00000000000E+00  0.00000000000E+00  0.31487419827E+03  0.31487419827E+03  0.00000000000E+00 0. -1.
         21   -1    0    0  501  503 -0.00000000000E+00 -0.00000000000E+00 -0.22611796392E+03  0.22611796392E+03  0.00000000000E+00 0. -1.
          6    2    1    2  501    0 -0.13249861758E+03 -0.12922686433E+03  0.12727248407E+03  0.28330837349E+03  0.17265538845E+03 0.  0.
         24    2    3    3    0    0 -0.45510519149E+02 -0.33171384569E+00  0.20920423956E+02  0.94857478611E+02  0.80554079492E+02 0.  0.
         -6    2    1    2    0  502  0.13249861758E+03  0.12922686433E+03 -0.38516249720E+02  0.25768378870E+03  0.17510558912E+03 0.  0.
        -24    2    5    5    0    0  0.70059623174E+02  0.42557571827E+02 -0.83199037949E+02  0.14180093471E+03  0.80410990847E+02 0.  0.
          5    1    3    3  501    0 -0.86988098435E+02 -0.12889515049E+03  0.10635206012E+03  0.18845089488E+03  0.47000000000E+01 0. -1.
        -11    1    4    4    0    0  0.21645344389E+02 -0.27537693630E+01  0.16788510778E+02  0.27531041999E+02  0.00000000000E+00 0.  1.
         12    1    4    4    0    0 -0.67155863538E+02  0.24220555173E+01  0.41319131782E+01  0.67326436612E+02  0.00000000000E+00 0. -1.
         -5    1    5    5    0  502  0.62438994410E+02  0.86669292507E+02  0.44682788229E+02  0.11588285400E+03  0.47000000000E+01 0.  1.
         11    1    6    6    0    0  0.86132522710E+02  0.22554150797E+02 -0.67351239393E+02  0.11164090037E+03  0.00000000000E+00 0. -1.
        -12    1    6    6    0    0 -0.16072899536E+02  0.20003421029E+02 -0.15847798556E+02  0.30160034341E+02  0.00000000000E+00 0.  1.
<mgrwt>
<rscale>  2 0.25436854E+03</rscale>
<asrwt>0</asrwt>
<pdfrwt beam="1">  1       21 0.48442184E-01 0.25478900E+03</pdfrwt>
<pdfrwt beam="2">  1       21 0.34787379E-01 0.25478900E+03</pdfrwt>
<totfact> 0.31443937E+04</totfact>
</mgrwt>
</event>
<event>
12    1  0.1071811E-001  0.1912604E+03  0.7546771E-02  0.1157681E+00
         21   -1    0    0  503  502  0.00000000000E+00  0.00000000000E+00  0.48364938888E+03  0.48364938888E+03  0.00000000000E+00 0. -1.
         21   -1    0    0  501  503 -0.00000000000E+00 -0.00000000000E+00 -0.11741897281E+03  0.11741897281E+03  0.00000000000E+00 0. -1.
          6    2    1    2  501    0  0.36092492991E+02  0.89359634688E+02  0.29961856720E+01  0.19128388478E+03  0.16520513032E+03 0.  0.
         24    2    3    3    0    0  0.10887532460E+02  0.12001877254E+02  0.51092435198E+02  0.96653805580E+02  0.80429707062E+02 0.  0.
         -6    2    1    2    0  502 -0.36092492991E+02 -0.89359634688E+02  0.36323423039E+03  0.40978447691E+03  0.16339032722E+03 0.  0.
        -24    2    5    5    0    0 -0.18114250904E+02  0.10721812630E+02  0.21061405476E+03  0.22633279037E+03  0.80157149285E+02 0.  0.
          5    1    3    3  501    0  0.25204960531E+02  0.77357757434E+02 -0.48096249526E+02  0.94630079198E+02  0.47000000000E+01 0. -1.
        -11    1    4    4    0    0 -0.71236354739E+01  0.37658331839E+02  0.52818892390E+02  0.65258957489E+02  0.00000000000E+00 0.  1.
         12    1    4    4    0    0  0.18011167934E+02 -0.25656454585E+02 -0.17264571924E+01  0.31394848091E+02  0.00000000000E+00 0. -1.
         -5    1    5    5    0  502 -0.17978242088E+02 -0.10008144732E+03  0.15262017563E+03  0.18345168654E+03  0.47000000000E+01 0.  1.
         11    1    6    6    0    0  0.31737594510E+02 -0.64196739078E+00  0.80911416572E+02  0.86915731367E+02  0.00000000000E+00 0. -1.
        -12    1    6    6    0    0 -0.49851845413E+02  0.11363780021E+02  0.12970263819E+03  0.13941705900E+03  0.00000000000E+00 0.  1.
<mgrwt>
<rscale>  2 0.19086787E+03</rscale>
<asrwt>0</asrwt>
<pdfrwt beam="1">  1       21 0.74407597E-01 0.19126042E+03</pdfrwt>
<pdfrwt beam="2">  1       21 0.18064458E-01 0.19126042E+03</pdfrwt>
<totfact> 0.45168320E+04</totfact>
</mgrwt>
</event>
<event>
12    1  0.1071811E-001  0.2589638E+03  0.7546771E-02  0.1107773E+00
         21   -1    0    0  503  502  0.00000000000E+00  0.00000000000E+00  0.58504708454E+02  0.58504708454E+02  0.00000000000E+00 0. -1.
         21   -1    0    0  501  503 -0.00000000000E+00 -0.00000000000E+00 -0.22478039108E+04  0.22478039108E+04  0.00000000000E+00 0.  1.
          6    2    1    2  501    0  0.14821589834E+03  0.12291011641E+03 -0.19019193718E+04  0.19194631448E+04  0.17310868850E+03 0.  0.
         24    2    3    3    0    0  0.18478114236E+02  0.91100241961E+02 -0.10348233595E+04  0.10421254986E+04  0.80780410880E+02 0.  0.
         -6    2    1    2    0  502 -0.14821589834E+03 -0.12291011641E+03 -0.28737983056E+03  0.38684547451E+03  0.17316871801E+03 0.  0.
        -24    2    5    5    0    0 -0.39463646538E+01 -0.57131142748E+02 -0.13099628352E+03  0.16409342511E+03  0.80542439764E+02 0.  0.
          5    1    3    3  501    0  0.12973778410E+03  0.31809874451E+02 -0.86709601229E+03  0.87733764610E+03  0.47000000000E+01 0. -1.
        -13    1    4    4    0    0  0.46601632808E+02  0.80619025990E+02 -0.79034858272E+03  0.79581531887E+03  0.00000000000E+00 0.  1.
         14    1    4    4    0    0 -0.28123518572E+02  0.10481215971E+02 -0.24447477677E+03  0.24631017978E+03  0.00000000000E+00 0. -1.
         -5    1    5    5    0  502 -0.14426953368E+03 -0.65778973664E+02 -0.15638354705E+03  0.22275204940E+03  0.47000000000E+01 0.  1.
         13    1    6    6    0    0 -0.42000993458E+02 -0.32995007325E+02 -0.64120137388E+02  0.83451458816E+02  0.00000000000E+00 0. -1.
        -14    1    6    6    0    0  0.38054628804E+02 -0.24136135423E+02 -0.66876146131E+02  0.80641966295E+02  0.00000000000E+00 0.  1.
<mgrwt>
<rscale>  2 0.25895377E+03</rscale>
<asrwt>0</asrwt>
<pdfrwt beam="1">  1       21 0.90007251E-02 0.25896381E+03</pdfrwt>
<pdfrwt beam="2">  1       21 0.34581596E+00 0.25896381E+03</pdfrwt>
<totfact> 0.16700097E+03</totfact>
</mgrwt>
</event>
<event>
12    1  0.1071811E-001  0.1932480E+03  0.7546771E-02  0.1155767E+00
         21   -1    0    0  501  502  0.00000000000E+00  0.00000000000E+00  0.11259437717E+04  0.11259437717E+04  0.00000000000E+00 0.  1.
         21   -1    0    0  502  503 -0.00000000000E+00 -0.00000000000E+00 -0.48176654988E+02  0.48176654988E+02  0.00000000000E+00 0.  1.
         -6    2    1    2    0  503 -0.99020009919E+01  0.83806714105E+02  0.20862240988E+03  0.28375123195E+03  0.17282892343E+03 0.  0.
        -24    2    3    3    0    0  0.61032215281E+02  0.52713021828E+02  0.14772789779E+03  0.18511699681E+03  0.77079029264E+02 0.  0.
          6    2    1    2  501    0  0.99020009919E+01 -0.83806714105E+02  0.86914470680E+03  0.89036919471E+03  0.17384811352E+03 0.  0.
         24    2    5    5    0    0  0.28165765011E+02 -0.65363322840E+02  0.28573509265E+03  0.30636355121E+03  0.84548258678E+02 0.  0.
          5    1    5    5  501    0 -0.18263764020E+02 -0.18443391265E+02  0.58340961415E+03  0.58400564350E+03  0.47000000000E+01 0. -1.
        -11    1    6    6    0    0  0.10925158786E+02  0.79799019415E+01  0.15409399087E+03  0.15468676721E+03  0.00000000000E+00 0.  1.
         12    1    6    6    0    0  0.17240606225E+02 -0.73343224781E+02  0.13164110178E+03  0.15167678400E+03  0.00000000000E+00 0. -1.
         -5    1    3    3    0  503 -0.70934216273E+02  0.31093692277E+02  0.60894512093E+02  0.98634235136E+02  0.47000000000E+01 0.  1.
         13    1    4    4    0    0  0.16313811326E+02 -0.18020122465E+02  0.55457439456E+02  0.60550746028E+02  0.00000000000E+00 0. -1.
        -14    1    4    4    0    0  0.44718403956E+02  0.70733144293E+02  0.92270458331E+02  0.12456625078E+03  0.00000000000E+00 0.  1.
<mgrwt>
<rscale>  2 0.19301848E+03</rscale>
<asrwt>0</asrwt>
<pdfrwt beam="1">  1       21 0.17322210E+00 0.19324798E+03</pdfrwt>
<pdfrwt beam="2">  1       21 0.74117940E-02 0.19324798E+03</pdfrwt>
<totfact> 0.27751108E+04</totfact>
</mgrwt>
</event>
<event>
12    1  0.1071811E-001  0.2098049E+03  0.7546771E-02  0.1142517E+00
         21   -1    0    0  503  502  0.00000000000E+00  0.00000000000E+00  0.25877642142E+03  0.25877642142E+03  0.00000000000E+00 0. -1.
         21   -1    0    0  501  503 -0.00000000000E+00 -0.00000000000E+00 -0.21241144595E+03  0.21241144595E+03  0.00000000000E+00 0. -1.
          6    2    1    2  501    0 -0.85054731924E+02 -0.72803548493E+02  0.13206688618E+03  0.24455400191E+03  0.17271460079E+03 0.  0.
         24    2    3    3    0    0 -0.10687759217E+03 -0.25985136146E+02  0.13548796055E+03  0.19257328708E+03  0.81421351216E+02 0.  0.
         -6    2    1    2    0  502  0.85054731924E+02  0.72803548493E+02 -0.85701910707E+02  0.22663386547E+03  0.17743569929E+03 0.  0.
        -24    2    5    5    0    0  0.78230513797E+02  0.78325735445E+02 -0.12546026405E+03  0.18564751210E+03  0.80434984754E+02 0.  0.
          5    1    3    3  501    0  0.21822860245E+02 -0.46818412347E+02 -0.34210743700E+01  0.51980714826E+02  0.47000000000E+01 0. -1.
        -13    1    4    4    0    0 -0.81178050827E+02 -0.18047389723E+02  0.37978063070E+02  0.91421646706E+02  0.00000000000E+00 0.  1.
         14    1    4    4    0    0 -0.25699541342E+02 -0.79377464234E+01  0.97509897481E+02  0.10115164037E+03  0.00000000000E+00 0. -1.
         -5    1    5    5    0  502  0.68242181266E+01 -0.55221869522E+01  0.39758353342E+02  0.40986353366E+02  0.47000000000E+01 0.  1.
         13    1    6    6    0    0  0.27115888618E+02  0.45107424512E+02 -0.78975119167E+01  0.53219562720E+02  0.00000000000E+00 0. -1.
        -14    1    6    6    0    0  0.51114625179E+02  0.33218310933E+02 -0.11756275213E+03  0.13242794938E+03  0.00000000000E+00 0.  1.
<mgrwt>
<rscale>  2 0.20880342E+03</rscale>
<asrwt>0</asrwt>
<pdfrwt beam="1">  1       21 0.39811757E-01 0.20980489E+03</pdfrwt>
<pdfrwt beam="2">  1       21 0.32678684E-01 0.20980489E+03</pdfrwt>
<totfact> 0.54365039E+04</totfact>
</mgrwt>
</event>
<event>
12    1  0.1071811E-001  0.2196751E+03  0.7546771E-02  0.1134130E+00
         21   -1    0    0  503  502  0.00000000000E+00  0.00000000000E+00  0.39280448211E+03  0.39280448211E+03  0.00000000000E+00 0.  1.
         21   -1    0    0  501  503 -0.00000000000E+00 -0.00000000000E+00 -0.21049065779E+03  0.21049065779E+03  0.00000000000E+00 0.  1.
          6    2    1    2  501    0 -0.36384628797E+02  0.13051733700E+03 -0.10350109051E+03  0.24281307239E+03  0.17287884750E+03 0.  0.
         24    2    3    3    0    0 -0.73544321124E+02  0.13807869944E+03 -0.10515733739E+03  0.20456584909E+03  0.79464624830E+02 0.  0.
         -6    2    1    2    0  502  0.36384628797E+02 -0.13051733700E+03  0.28581491483E+03  0.36048206751E+03  0.17291193997E+03 0.  0.
        -24    2    5    5    0    0  0.24570612192E+02 -0.25211097618E+02  0.50218932547E+02  0.10210921307E+03  0.81639670387E+02 0.  0.
          5    1    3    3  501    0  0.37159692327E+02 -0.75613624418E+01  0.16562468734E+01  0.38247223291E+02  0.47000000000E+01 0. -1.
        -11    1    4    4    0    0 -0.28362615996E+02  0.87439313169E+02 -0.10100611519E+03  0.13657344830E+03  0.00000000000E+00 0.  1.
         12    1    4    4    0    0 -0.45181705127E+02  0.50639386275E+02 -0.41512221969E+01  0.67992400798E+02  0.00000000000E+00 0. -1.
         -5    1    5    5    0  502  0.11814016605E+02 -0.10530623938E+03  0.23559598229E+03  0.25837285444E+03  0.47000000000E+01 0.  1.
         13    1    6    6    0    0  0.36549333386E+02 -0.32686865995E+02 -0.93483295652E+00  0.49042419314E+02  0.00000000000E+00 0. -1.
        -14    1    6    6    0    0 -0.11978721193E+02  0.74757683771E+01  0.51153765504E+02  0.53066793755E+02  0.00000000000E+00 0.  1.
<mgrwt>
<rscale>  2 0.21966860E+03</rscale>
<asrwt>0</asrwt>
<pdfrwt beam="1">  1       21 0.60431459E-01 0.21967511E+03</pdfrwt>
<pdfrwt beam="2">  1       21 0.32383178E-01 0.21967511E+03</pdfrwt>
<totfact> 0.23055147E+04</totfact>
</mgrwt>
</event>
<event>
12    1  0.1071811E-001  0.2299130E+03  0.7546771E-02  0.1126903E+00
         21   -1    0    0  503  502  0.00000000000E+00  0.00000000000E+00  0.16107314284E+03  0.16107314284E+03  0.00000000000E+00 0.  1.
         21   -1    0    0  501  503 -0.00000000000E+00 -0.00000000000E+00 -0.39584057692E+03  0.39584057692E+03  0.00000000000E+00 0. -1.
          6    2    1    2  501    0 -0.12819766263E+03  0.79942287080E+02 -0.23413347161E+03  0.32814396674E+03  0.17330484821E+03 0.  0.
         24    2    3    3    0    0 -0.47124545467E+02  0.14123545709E+00 -0.35778279112E+02  0.99434695923E+02  0.79915147276E+02 0.  0.
         -6    2    1    2    0  502  0.12819766263E+03 -0.79942287080E+02 -0.63396247641E+00  0.22876975302E+03  0.17178413205E+03 0.  0.
        -24    2    5    5    0    0  0.14179698798E+03 -0.77427629836E+02  0.40413837067E+02  0.18520053226E+03  0.81021819640E+02 0.  0.
          5    1    3    3  501    0 -0.81073117164E+02  0.79801051622E+02 -0.19835519249E+03  0.22870927081E+03  0.47000000000E+01 0. -1.
        -13    1    4    4    0    0  0.42729586519E+01  0.23904925838E+02  0.10351354650E+02  0.26397996099E+02  0.00000000000E+00 0.  1.
         14    1    4    4    0    0 -0.51397504119E+02 -0.23763690381E+02 -0.46129633761E+02  0.73036699824E+02  0.00000000000E+00 0. -1.
         -5    1    5    5    0  502 -0.13599325353E+02 -0.25146572438E+01 -0.41047799543E+02  0.43569220769E+02  0.47000000000E+01 0.  1.
         13    1    6    6    0    0  0.84165793224E+02 -0.58293741264E+02 -0.14407688747E+02  0.10339063069E+03  0.00000000000E+00 0. -1.
        -14    1    6    6    0    0  0.57631194760E+02 -0.19133888572E+02  0.54821525814E+02  0.81809901564E+02  0.00000000000E+00 0.  1.
<mgrwt>
<rscale>  2 0.22962642E+03</rscale>
<asrwt>0</asrwt>
<pdfrwt beam="1">  1       21 0.24780484E-01 0.22991298E+03</pdfrwt>
<pdfrwt beam="2">  1       21 0.60898549E-01 0.22991298E+03</pdfrwt>
<totfact> 0.37947292E+04</totfact>
</mgrwt>
</event>
<event>
12    1  0.1071811E-001  0.2104057E+03  0.7546771E-02  0.1141309E+00
         21   -1    0    0  501  502  0.00000000000E+00  0.00000000000E+00  0.97608798109E+03  0.97608798109E+03  0.00000000000E+00 0. -1.
         21   -1    0    0  502  503 -0.00000000000E+00 -0.00000000000E+00 -0.46697086273E+02  0.46697086273E+02  0.00000000000E+00 0. -1.
         -6    2    1    2    0  503  0.10697761501E+03  0.50855974735E+02  0.55397646384E+03  0.59258796646E+03  0.17389662223E+03 0.  0.
        -24    2    3    3    0    0  0.10209583605E+03  0.80766743746E+02  0.30283595179E+03  0.33958177551E+03  0.81604791063E+02 0.  0.
          6    2    1    2  501    0 -0.10697761501E+03 -0.50855974735E+02  0.37541443097E+03  0.43019710090E+03  0.17350219123E+03 0.  0.
         24    2    5    5    0    0 -0.61575940013E+02  0.29291601561E+01  0.87767889326E+02  0.13402692052E+03  0.80373109050E+02 0.  0.
          5    1    5    5  501    0 -0.45401674994E+02 -0.53785134891E+02  0.28764654165E+03  0.29617018039E+03  0.47000000000E+01 0. -1.
        -11    1    6    6    0    0 -0.56945457497E+01  0.22014615883E+02  0.68085559136E+02  0.71782410984E+02  0.00000000000E+00 0.  1.
         12    1    6    6    0    0 -0.55881394264E+02 -0.19085455727E+02  0.19682330190E+02  0.62244509532E+02  0.00000000000E+00 0. -1.
         -5    1    3    3    0  503  0.48817789597E+01 -0.29910769011E+02  0.25114051205E+03  0.25300619095E+03  0.47000000000E+01 0.  1.
         13    1    4    4    0    0  0.42037974778E+02 -0.27927682863E+01  0.14634792071E+03  0.15229151248E+03  0.00000000000E+00 0. -1.
        -14    1    4    4    0    0  0.60057861270E+02  0.83559512032E+02  0.15648803108E+03  0.18729026302E+03  0.00000000000E+00 0.  1.
<mgrwt>
<rscale>  2 0.21032422E+03</rscale>
<asrwt>0</asrwt>
<pdfrwt beam="1">  1       21 0.15016737E+00 0.21040574E+03</pdfrwt>
<pdfrwt beam="2">  1       21 0.71841678E-02 0.21040574E+03</pdfrwt>
<totfact> 0.42660783E+04</totfact>
</mgrwt>
</event>
<event>
12    1  0.1071811E-001  0.2729964E+03  0.7546771E-02  0.1099731E+00
         21   -1    0    0  501  502  0.00000000000E+00  0.00000000000E+00  0.21080010668E+03  0.21080010668E+03  0.00000000000E+00 0. -1.
         21   -1    0    0  502  503 -0.00000000000E+00 -0.00000000000E+00 -0.38813126249E+03  0.38813126249E+03  0.00000000000E+00 0. -1.
         -6    2    1    2    0  503  0.17590435182E+02 -0.21034353107E+03 -0.17970970695E+03  0.32592456671E+03  0.17139842455E+03 0.  0.
        -24    2    3    3    0    0 -0.23673434098E+01 -0.17051423015E+03 -0.59325653771E+02  0.19747575824E+03  0.79977714996E+02 0.  0.
          6    2    1    2  501    0 -0.17590435182E+02  0.21034353107E+03  0.23785511425E+01  0.27300680247E+03  0.17312779157E+03 0.  0.
         24    2    5    5    0    0 -0.72332060347E+02  0.92635663410E+02  0.53044721293E+01  0.14307436368E+03  0.81417707092E+02 0.  0.
          5    1    5    5  501    0  0.54741625165E+02  0.11770786766E+03 -0.29259209868E+01  0.12993243879E+03  0.47000000000E+01 0. -1.
        -11    1    6    6    0    0  0.12076815976E+02  0.32165769248E+01 -0.13816764634E+02  0.18630588723E+02  0.00000000000E+00 0.  1.
         12    1    6    6    0    0 -0.84408876323E+02  0.89419086485E+02  0.19121236763E+02  0.12444377496E+03  0.00000000000E+00 0. -1.
         -5    1    3    3    0  503  0.19957778592E+02 -0.39829300921E+02 -0.12038405318E+03  0.12844880847E+03  0.47000000000E+01 0.  1.
         11    1    4    4    0    0 -0.15708584750E+01 -0.16130313116E+03 -0.76070810027E+02  0.17834779465E+03  0.00000000000E+00 0. -1.
        -12    1    4    4    0    0 -0.79648493482E+00 -0.92110989956E+01  0.16745156257E+02  0.19127963588E+02  0.00000000000E+00 0.  1.
<mgrwt>
<rscale>  2 0.27272267E+03</rscale>
<asrwt>0</asrwt>
<pdfrwt beam="1">  1       21 0.32430786E-01 0.27299644E+03</pdfrwt>
<pdfrwt beam="2">  1       21 0.59712502E-01 0.27299644E+03</pdfrwt>
<totfact> 0.22996870E+04</totfact>
</mgrwt>
</event>
<event>
12    1  0.1071811E-001  0.1918421E+03  0.7546771E-02  0.1156927E+00
         21   -1    0    0  503  502  0.00000000000E+00  0.00000000000E+00  0.86171084099E+02  0.86171084099E+02  0.00000000000E+00 0.  1.
         21   -1    0    0  501  503 -0.00000000000E+00 -0.00000000000E+00 -0.50134410798E+03  0.50134410798E+03  0.00000000000E+00 0.  1.
          6    2    1    2  501    0 -0.71779954145E+02  0.36317064018E+02 -0.32175967785E+03  0.37461004189E+03  0.17416113873E+03 0.  0.
         24    2    3    3    0    0 -0.11249024135E+03  0.15834767441E+02 -0.27862925787E+03  0.31168806573E+03  0.81304321634E+02 0.  0.
         -6    2    1    2    0  502  0.71779954145E+02 -0.36317064018E+02 -0.93413346027E+02  0.21290515018E+03  0.17358357872E+03 0.  0.
        -24    2    5    5    0    0  0.59252744392E+02 -0.20380101806E+02  0.10858105152E+02  0.10657762186E+03  0.85525754983E+02 0.  0.
          5    1    3    3  501    0  0.40710287204E+02  0.20482296577E+02 -0.43130419980E+02  0.62921976168E+02  0.47000000000E+01 0. -1.
        -11    1    4    4    0    0 -0.18247024345E+02 -0.25863371636E+02 -0.10612519144E+03  0.11074486060E+03  0.00000000000E+00 0.  1.
         12    1    4    4    0    0 -0.94243217003E+02  0.41698139077E+02 -0.17250406643E+03  0.20094320513E+03  0.00000000000E+00 0. -1.
         -5    1    5    5    0  502  0.12527209752E+02 -0.15936962212E+02 -0.10427145118E+03  0.10632752832E+03  0.47000000000E+01 0.  1.
         11    1    6    6    0    0 -0.14428759846E+02  0.16865603660E+02  0.91281340871E+01  0.23999177682E+02  0.00000000000E+00 0. -1.
        -12    1    6    6    0    0  0.73681504238E+02 -0.37245705466E+02  0.17299710647E+01  0.82578444175E+02  0.00000000000E+00 0.  1.
<mgrwt>
<rscale>  2 0.19171093E+03</rscale>
<asrwt>0</asrwt>
<pdfrwt beam="1">  1       21 0.13257090E-01 0.19184210E+03</pdfrwt>
<pdfrwt beam="2">  1       21 0.77129863E-01 0.19184210E+03</pdfrwt>
<totfact> 0.73303881E+04</totfact>
</mgrwt>
</event>
<event>
11    1  0.1071811E-001  0.1943424E+03  0.7546771E-02  0.1154844E+00
         21   -1    0    0  503  502  0.00000000000E+00  0.00000000000E+00  0.17237158577E+03  0.17237158577E+03  0.00000000000E+00 0. -1.
         21   -1    0    0  501  503 -0.00000000000E+00 -0.00000000000E+00 -0.55854265173E+03  0.55854265173E+03  0.00000000000E+00 0. -1.
          6    2    1    2  501    0  0.23003508308E+02 -0.84563219791E+02 -0.47828526785E+03  0.51584684637E+03  0.17222390060E+03 0.  0.
         -6    2    1    2    0  502 -0.23003508308E+02  0.84563219791E+02  0.92114201879E+02  0.21506739113E+03  0.17346139917E+03 0.  0.
        -24    2    4    4    0    0  0.34923938409E+02  0.36723439595E+01  0.65622878380E+02  0.11200040759E+03  0.83693258678E+02 0.  0.
          5    1    3    3  501    0  0.45641878097E+02 -0.10201696450E+03 -0.42740274359E+03  0.44179841252E+03  0.47000000000E+01 0. -1.
        -11    1    3    3    0    0  0.65564773395E+00  0.37956639719E+01  0.82154568295E+01  0.90736249567E+01  0.00000000000E+00 0.  1.
         12    1    3    3    0    0 -0.23294017524E+02  0.13658080736E+02 -0.59097981087E+02  0.64974808891E+02  0.00000000000E+00 0. -1.
         -5    1    4    4    0  502 -0.57927446717E+02  0.80890875832E+02  0.26491323499E+02  0.10306698354E+03  0.47000000000E+01 0.  1.
         11    1    5    5    0    0 -0.15213607810E+02  0.30134267822E+02  0.29043371885E+02  0.44531398027E+02  0.00000000000E+00 0. -1.
        -12    1    5    5    0    0  0.50137546219E+02 -0.26461923863E+02  0.36579506495E+02  0.67469009558E+02  0.00000000000E+00 0.  1.
<mgrwt>
<rscale>  2 0.19406585E+03</rscale>
<asrwt>0</asrwt>
<pdfrwt beam="1">  1       21 0.26518705E-01 0.19434237E+03</pdfrwt>
<pdfrwt beam="2">  1       21 0.85929639E-01 0.19434237E+03</pdfrwt>
<totfact> 0.15796165E+04</totfact>
</mgrwt>
</event>
<event>
12    1  0.1071811E-001  0.1888617E+03  0.7546771E-02  0.1159599E+00
         21   -1    0    0  503  502  0.00000000000E+00  0.00000000000E+00  0.17711400478E+04  0.17711400478E+04  0.00000000000E+00 0.  1.
         21   -1    0    0  501  503 -0.00000000000E+00 -0.00000000000E+00 -0.20277651920E+02  0.20277651920E+02  0.00000000000E+00 0.  1.
          6    2    1    2  501    0  0.46418642170E+02  0.57233158756E+02  0.96298329480E+03  0.98132846319E+03  0.17389192566E+03 0.  0.
         24    2    3    3    0    0 -0.19132331788E+02  0.29916332159E+02  0.24494518429E+03  0.25977184217E+03  0.78881136065E+02 0.  0.
         -6    2    1    2    0  502 -0.46418642170E+02 -0.57233158756E+02  0.78787910110E+03  0.81008923654E+03  0.17338041531E+03 0.  0.
        -24    2    5    5    0    0 -0.64786415276E+00 -0.54415530289E+02  0.23036746460E+03  0.25067506262E+03  0.82506657978E+02 0.  0.
          5    1    3    3  501    0  0.65550973958E+02  0.27316826596E+02  0.71803811051E+03  0.72155662102E+03  0.47000000000E+01 0. -1.
        -13    1    4    4    0    0 -0.59699793506E+01  0.26486306921E+02  0.24466515860E+03  0.24616702651E+03  0.00000000000E+00 0.  1.
         14    1    4    4    0    0 -0.13162352437E+02  0.34300252390E+01  0.28002569414E+00  0.13604815662E+02  0.00000000000E+00 0. -1.
         -5    1    5    5    0  502 -0.45770778017E+02 -0.28176284665E+01  0.55751163650E+03  0.55941417392E+03  0.47000000000E+01 0.  1.
         11    1    6    6    0    0 -0.14208571728E+02 -0.10343914166E+02  0.19879313699E+01  0.17687055774E+02  0.00000000000E+00 0. -1.
        -12    1    6    6    0    0  0.13560707575E+02 -0.44071616123E+02  0.22837953323E+03  0.23298800685E+03  0.00000000000E+00 0.  1.
<mgrwt>
<rscale>  2 0.18874383E+03</rscale>
<asrwt>0</asrwt>
<pdfrwt beam="1">  1       21 0.27248296E+00 0.18886166E+03</pdfrwt>
<pdfrwt beam="2">  1       21 0.31196402E-02 0.18886166E+03</pdfrwt>
<totfact> 0.29264734E+04</totfact>
</mgrwt>
</event>
<event>
12    1  0.1071811E-001  0.1743928E+03  0.7546771E-02  0.1173380E+00
         21   -1    0    0  503  502  0.00000000000E+00  0.00000000000E+00  0.42505213632E+02  0.42505213632E+02  0.00000000000E+00 0.  1.
         21   -1    0    0  501  503 -0.00000000000E+00 -0.00000000000E+00 -0.11279892831E+04  0.11279892831E+04  0.00000000000E+00 0.  1.
          6    2    1    2  501    0  0.20352376160E+02 -0.52604347760E+01 -0.89676288344E+03  0.91353432994E+03  0.17297228528E+03 0.  0.
         24    2    3    3    0    0  0.50454449104E+02 -0.46294379661E+02 -0.39323495201E+03  0.40741933594E+03  0.81657619292E+02 0.  0.
         -6    2    1    2    0  502 -0.20352376160E+02  0.52604347760E+01 -0.18872118602E+03  0.25696016678E+03  0.17312119995E+03 0.  0.
        -24    2    5    5    0    0  0.18682499260E+02  0.65552152622E+02 -0.10807084291E+03  0.14886122792E+03  0.76382181156E+02 0.  0.
          5    1    3    3  501    0 -0.30102072944E+02  0.41033944885E+02 -0.50352793143E+03  0.50611499401E+03  0.47000000000E+01 0. -1.
        -11    1    4    4    0    0  0.44747405350E+02 -0.65049792827E-01 -0.88756153337E+02  0.99398135154E+02  0.00000000000E+00 0.  1.
         12    1    4    4    0    0  0.57070437541E+01 -0.46229329868E+02 -0.30447879868E+03  0.30802120078E+03  0.00000000000E+00 0. -1.
         -5    1    5    5    0  502 -0.39034875420E+02 -0.60291717846E+02 -0.80650343112E+02  0.10809893887E+03  0.47000000000E+01 0.  1.
         11    1    6    6    0    0 -0.66794681357E+01  0.67970480822E+02 -0.47617628408E+02  0.83258873959E+02  0.00000000000E+00 0. -1.
        -12    1    6    6    0    0  0.25361967395E+02 -0.24183281998E+01 -0.60453214500E+02  0.65602353958E+02  0.00000000000E+00 0.  1.
<mgrwt>
<rscale>  2 0.17435581E+03</rscale>
<asrwt>0</asrwt>
<pdfrwt beam="1">  1       21 0.65392635E-02 0.17439278E+03</pdfrwt>
<pdfrwt beam="2">  1       21 0.17353682E+00 0.17439278E+03</pdfrwt>
<totfact> 0.34704020E+04</totfact>
</mgrwt>
</event>
<event>
12    1  0.1071811E-001  0.1882377E+03  0.7546771E-02  0.1160156E+00
         21   -1    0    0  503  502  0.00000000000E+00  0.00000000000E+00  0.41466004488E+03  0.41466004488E+03  0.00000000000E+00 0. -1.
         21   -1    0    0  501  503 -0.00000000000E+00 -0.00000000000E+00 -0.87652198381E+02  0.87652198381E+02  0.00000000000E+00 0. -1.
          6    2    1    2  501    0  0.10516714873E+01  0.74068804331E+02  0.12220171904E+03  0.22442526434E+03  0.17304954594E+03 0.  0.
         24    2    3    3    0    0 -0.22303697009E+02  0.11432488226E+03  0.85916683948E+02  0.16522459864E+03  0.79685995069E+02 0.  0.
         -6    2    1    2    0  502 -0.10516714873E+01 -0.74068804331E+02  0.20480612746E+03  0.27788697892E+03  0.17259295878E+03 0.  0.
        -24    2    5    5    0    0  0.18526190951E+02  0.60930521074E+01  0.42834014356E+02  0.96045643275E+02  0.83723758702E+02 0.  0.
          5    1    3    3  501    0  0.23355368497E+02 -0.40256077931E+02  0.36285035087E+02  0.59200665700E+02  0.47000000000E+01 0. -1.
        -11    1    4    4    0    0 -0.17799105032E+02  0.15130888345E+02  0.57311971252E+02  0.61890338267E+02  0.00000000000E+00 0.  1.
         12    1    4    4    0    0 -0.45045919778E+01  0.99193993918E+02  0.28604712697E+02  0.10333426037E+03  0.00000000000E+00 0. -1.
         -5    1    5    5    0  502 -0.19577862438E+02 -0.80161856439E+02  0.16197211311E+03  0.18184133565E+03  0.47000000000E+01 0.  1.
         13    1    6    6    0    0 -0.62723013218E+01 -0.36295119977E+02  0.19453779089E+02  0.41654855886E+02  0.00000000000E+00 0. -1.
        -14    1    6    6    0    0  0.24798492273E+02  0.42388172085E+02  0.23380235267E+02  0.54390787389E+02  0.00000000000E+00 0.  1.
<mgrwt>
<rscale>  2 0.18813272E+03</rscale>
<asrwt>0</asrwt>
<pdfrwt beam="1">  1       21 0.63793852E-01 0.18823772E+03</pdfrwt>
<pdfrwt beam="2">  1       21 0.13484954E-01 0.18823772E+03</pdfrwt>
<totfact> 0.10819273E+05</totfact>
</mgrwt>
</event>
<event>
12    1  0.1071811E-001  0.2063776E+03  0.7546771E-02  0.1144546E+00
         21   -1    0    0  501  502  0.00000000000E+00  0.00000000000E+00  0.40186500018E+03  0.40186500018E+03  0.00000000000E+00 0. -1.
         21   -1    0    0  502  503 -0.00000000000E+00 -0.00000000000E+00 -0.10578859492E+03  0.10578859492E+03  0.00000000000E+00 0. -1.
         -6    2    1    2    0  503  0.81019710022E+02 -0.76510713904E+02  0.14684841522E+03  0.25329070488E+03  0.17370561699E+03 0.  0.
        -24    2    3    3    0    0  0.45498969110E+02 -0.57259258894E+02  0.17344952142E+03  0.20468977479E+03  0.80401421023E+02 0.  0.
          6    2    1    2  501    0 -0.81019710022E+02  0.76510713904E+02  0.14922799004E+03  0.25436289022E+03  0.17324377090E+03 0.  0.
         24    2    5    5    0    0  0.18351176668E+02  0.17637264591E+02  0.95003260413E+02  0.12667942434E+03  0.79838701613E+02 0.  0.
          5    1    5    5  501    0 -0.99370886690E+02  0.58873449313E+02  0.54224729623E+02  0.12768346588E+03  0.47000000000E+01 0. -1.
        -11    1    6    6    0    0  0.64049913870E+00 -0.29247643546E+02  0.16629204125E+02  0.33650636279E+02  0.00000000000E+00 0.  1.
         12    1    6    6    0    0  0.17710677529E+02  0.46884908137E+02  0.78374056289E+02  0.93028788064E+02  0.00000000000E+00 0. -1.
         -5    1    3    3    0  503  0.35520740912E+02 -0.19251455010E+02 -0.26601106203E+02  0.48600930096E+02  0.47000000000E+01 0.  1.
         11    1    4    4    0    0  0.39378416732E+02 -0.84751195980E+00  0.12162001114E+03  0.12783898110E+03  0.00000000000E+00 0. -1.
        -12    1    4    4    0    0  0.61205523775E+01 -0.56411746934E+02  0.51829510285E+02  0.76850793685E+02  0.00000000000E+00 0.  1.
<mgrwt>
<rscale>  2 0.20628041E+03</rscale>
<asrwt>0</asrwt>
<pdfrwt beam="1">  1       21 0.61825384E-01 0.20637763E+03</pdfrwt>
<pdfrwt beam="2">  1       21 0.16275169E-01 0.20637763E+03</pdfrwt>
<totfact> 0.81615381E+04</totfact>
</mgrwt>
</event>
<event>
12    1  0.1071811E-001  0.1839825E+03  0.7546771E-02  0.1164162E+00
         21   -1    0    0  503  502  0.00000000000E+00  0.00000000000E+00  0.22889133647E+03  0.22889133647E+03  0.00000000000E+00 0.  1.
         21   -1    0    0  501  503 -0.00000000000E+00 -0.00000000000E+00 -0.17410223528E+03  0.17410223528E+03  0.00000000000E+00 0. -1.
          6    2    1    2  501    0 -0.28856937690E+02 -0.52501929295E+02 -0.51558215713E+02  0.19107016950E+03  0.17395512247E+03 0.  0.
         24    2    3    3    0    0 -0.74376280442E+02 -0.72148248132E+02 -0.21844016809E+02  0.13307868715E+03  0.80595130761E+02 0.  0.
         -6    2    1    2    0  502  0.28856937690E+02  0.52501929295E+02  0.10634731691E+03  0.21192340225E+03  0.17324145340E+03 0.  0.
        -24    2    5    5    0    0  0.54894727820E+02 -0.14372533988E+02  0.99621136957E+02  0.13969119440E+03  0.79807631141E+02 0.  0.
          5    1    3    3  501    0  0.45519342752E+02  0.19646318837E+02 -0.29714198904E+02  0.57991482348E+02  0.47000000000E+01 0. -1.
        -11    1    4    4    0    0  0.34736136591E+01 -0.38193068551E+02  0.14090021582E+02  0.40857131389E+02  0.00000000000E+00 0.  1.
         12    1    4    4    0    0 -0.77849894101E+02 -0.33955179581E+02 -0.35934038391E+02  0.92221555761E+02  0.00000000000E+00 0. -1.
         -5    1    5    5    0  502 -0.26037790130E+02  0.66874463283E+02  0.67261799513E+01  0.72232207851E+02  0.47000000000E+01 0.  1.
         11    1    6    6    0    0  0.53852290358E+02  0.22870002223E+02  0.46138837533E+02  0.74511062987E+02  0.00000000000E+00 0. -1.
        -12    1    6    6    0    0  0.10424374618E+01 -0.37242536211E+02  0.53482299424E+02  0.65180131412E+02  0.00000000000E+00 0.  1.
<mgrwt>
<rscale>  2 0.18381361E+03</rscale>
<asrwt>0</asrwt>
<pdfrwt beam="1">  1       21 0.35214052E-01 0.18398250E+03</pdfrwt>
<pdfrwt beam="2">  1       21 0.26784959E-01 0.18398250E+03</pdfrwt>
<totfact> 0.10351559E+05</totfact>
</mgrwt>
</event>
<event>
12    1  0.1071811E-001  0.2324310E+03  0.7546771E-02  0.1124980E+00
         21   -1    0    0  503  502  0.00000000000E+00  0.00000000000E+00  0.62074609681E+02  0.62074609681E+02  0.00000000000E+00 0. -1.
         21   -1    0    0  501  503 -0.00000000000E+00 -0.00000000000E+00 -0.87512381009E+03  0.87512381009E+03  0.00000000000E+00 0. -1.
          6    2    1    2  501    0 -0.15352162955E+03  0.25380564005E+01 -0.36898776028E+03  0.43609191117E+03  0.17449600363E+03 0.  0.
         24    2    3    3    0    0 -0.41742712230E+02 -0.51683040482E+02 -0.19957144364E+03  0.22595283330E+03  0.82536846700E+02 0.  0.
         -6    2    1    2    0  502  0.15352162955E+03 -0.25380564005E+01 -0.44406144013E+03  0.50110650860E+03  0.17418908658E+03 0.  0.
        -24    2    5    5    0    0  0.15443128018E+03  0.19949024659E+02 -0.25166167641E+03  0.30733794727E+03  0.82921834147E+02 0.  0.
          5    1    3    3  501    0 -0.11177891732E+03  0.54221096883E+02 -0.16941631664E+03  0.21013907787E+03  0.47000000000E+01 0. -1.
        -11    1    4    4    0    0 -0.99211024608E+00 -0.12505432083E+01  0.81718304845E+01  0.83262809539E+01  0.00000000000E+00 0.  1.
         12    1    4    4    0    0 -0.40750601984E+02 -0.50432497274E+02 -0.20774327412E+03  0.21762655234E+03  0.00000000000E+00 0. -1.
         -5    1    5    5    0  502 -0.90965063099E+00 -0.22487081060E+02 -0.19239976373E+03  0.19376856133E+03  0.47000000000E+01 0.  1.
         11    1    6    6    0    0  0.68986151112E+02  0.15568533708E+02 -0.18750345493E+03  0.20039714044E+03  0.00000000000E+00 0. -1.
        -12    1    6    6    0    0  0.85445129067E+02  0.43804909518E+01 -0.64158221481E+02  0.10694080683E+03  0.00000000000E+00 0.  1.
<mgrwt>
<rscale>  2 0.23237344E+03</rscale>
<asrwt>0</asrwt>
<pdfrwt beam="1">  1       21 0.95499408E-02 0.23243104E+03</pdfrwt>
<pdfrwt beam="2">  1       21 0.13463442E+00 0.23243104E+03</pdfrwt>
<totfact> 0.34045475E+04</totfact>
</mgrwt>
</event>
<event>
12    1  0.1071811E-001  0.1956224E+03  0.7546771E-02  0.1154246E+00
         21   -1    0    0  501  502  0.00000000000E+00  0.00000000000E+00  0.71600764950E+03  0.71600764950E+03  0.00000000000E+00 0. -1.
         21   -1    0    0  502  503 -0.00000000000E+00 -0.00000000000E+00 -0.80210588111E+02  0.80210588111E+02  0.00000000000E+00 0. -1.
         -6    2    1    2    0  503 -0.63777893576E+02 -0.64819586075E+02  0.82060023987E+02  0.20894246954E+03  0.16927465727E+03 0.  0.
        -24    2    3    3    0    0 -0.40667763096E+01 -0.89534958737E+02  0.25605131540E+02  0.12300346762E+03  0.80256979625E+02 0.  0.
          6    2    1    2  501    0  0.63777893576E+02  0.64819586075E+02  0.55373703740E+03  0.58727576807E+03  0.17320197090E+03 0.  0.
         24    2    5    5    0    0 -0.26019132690E+02  0.24449989990E+02  0.35099061556E+03  0.36183971997E+03  0.80366494624E+02 0.  0.
          5    1    5    5  501    0  0.89797026266E+02  0.40369596086E+02  0.20274642184E+03  0.22543604810E+03  0.47000000000E+01 0. -1.
        -11    1    6    6    0    0 -0.87105859306E+00  0.31048968393E+02  0.31948562185E+03  0.32099199329E+03  0.00000000000E+00 0.  1.
         12    1    6    6    0    0 -0.25148074097E+02 -0.65989784030E+01  0.31504993708E+02  0.40847726685E+02  0.00000000000E+00 0. -1.
         -5    1    3    3    0  503 -0.59711117266E+02  0.24715372662E+02  0.56454892447E+02  0.85939001927E+02  0.47000000000E+01 0.  1.
         13    1    4    4    0    0 -0.26478403347E+02  0.41503641863E+00  0.12834702966E+02  0.29428008755E+02  0.00000000000E+00 0. -1.
        -14    1    4    4    0    0  0.22411627037E+02 -0.89949995156E+02  0.12770428575E+02  0.93575458860E+02  0.00000000000E+00 0.  1.
<mgrwt>
<rscale>  2 0.19474944E+03</rscale>
<asrwt>0</asrwt>
<pdfrwt beam="1">  1       21 0.11015502E+00 0.19562239E+03</pdfrwt>
<pdfrwt beam="2">  1       21 0.12340091E-01 0.19562239E+03</pdfrwt>
<totfact> 0.36271083E+04</totfact>
</mgrwt>
</event>
<event>
12    1  0.1071811E-001  0.2380374E+03  0.7546771E-02  0.1121201E+00
         21   -1    0    0  503  502  0.00000000000E+00  0.00000000000E+00  0.92565720893E+03  0.92565720893E+03  0.00000000000E+00 0.  1.
         21   -1    0    0  501  503 -0.00000000000E+00 -0.00000000000E+00 -0.79542691954E+02  0.79542691954E+02  0.00000000000E+00 0. -1.
          6    2    1    2  501    0 -0.44383321124E+02 -0.15608225641E+03  0.18122418585E+03  0.29917220759E+03  0.17415583338E+03 0.  0.
         24    2    3    3    0    0  0.38421985536E+01 -0.60842646646E+02  0.16277166791E+03  0.19073388672E+03  0.78537949590E+02 0.  0.
         -6    2    1    2    0  502  0.44383321124E+02  0.15608225641E+03  0.66489033113E+03  0.70602769329E+03  0.17339089165E+03 0.  0.
        -24    2    5    5    0    0 -0.10414719573E+02  0.15687239557E+03  0.42991883863E+03  0.46470396493E+03  0.80013450973E+02 0.  0.
          5    1    3    3  501    0 -0.48225519678E+02 -0.95239609763E+02  0.18452517933E+02  0.10843832087E+03  0.47000000000E+01 0. -1.
        -11    1    4    4    0    0  0.35104350401E+02 -0.44590360239E+02  0.62347208911E+02  0.84307710811E+02  0.00000000000E+00 0.  1.
         12    1    4    4    0    0 -0.31262151848E+02 -0.16252286407E+02  0.10042445900E+03  0.10642617590E+03  0.00000000000E+00 0. -1.
         -5    1    5    5    0  502  0.54798040698E+02 -0.79013916059E+00  0.23497149250E+03  0.24132372836E+03  0.47000000000E+01 0.  1.
         11    1    6    6    0    0  0.23528370967E+02  0.65391666541E+02  0.10891618790E+03  0.12919903359E+03  0.00000000000E+00 0. -1.
        -12    1    6    6    0    0 -0.33943090541E+02  0.91480729028E+02  0.32100265073E+03  0.33550493134E+03  0.00000000000E+00 0.  1.
<mgrwt>
<rscale>  2 0.23789751E+03</rscale>
<asrwt>0</asrwt>
<pdfrwt beam="1">  1       21 0.14240879E+00 0.23803740E+03</pdfrwt>
<pdfrwt beam="2">  1       21 0.12237338E-01 0.23803740E+03</pdfrwt>
<totfact> 0.18855525E+04</totfact>
</mgrwt>
</event>
<event>
12    1  0.1071811E-001  0.2265700E+03  0.7546771E-02  0.1129499E+00
         21   -1    0    0  503  502  0.00000000000E+00  0.00000000000E+00  0.23956899444E+02  0.23956899444E+02  0.00000000000E+00 0.  1.
         21   -1    0    0  501  503 -0.00000000000E+00 -0.00000000000E+00 -0.21437049227E+04  0.21437049227E+04  0.00000000000E+00 0.  1.
          6    2    1    2  501    0 -0.14015911614E+02  0.14373589855E+03 -0.11666591454E+04  0.11880127209E+04  0.17153486327E+03 0.  0.
         24    2    3    3    0    0  0.52367853541E+02  0.10907733319E+03 -0.84890723399E+03  0.86152169867E+03  0.83281982868E+02 0.  0.
         -6    2    1    2    0  502  0.14015911614E+02 -0.14373589855E+03 -0.95308887786E+03  0.97964910118E+03  0.17457805715E+03 0.  0.
        -24    2    5    5    0    0 -0.45690618298E+02 -0.28646266208E+02 -0.43291588902E+03  0.44354041677E+03  0.80023079002E+02 0.  0.
          5    1    3    3  501    0 -0.66383765155E+02  0.34658565366E+02 -0.31775191139E+03  0.32649102226E+03  0.47000000000E+01 0. -1.
        -11    1    4    4    0    0  0.18322172892E+02  0.72251654042E+02 -0.25973990168E+03  0.27022364822E+03  0.00000000000E+00 0.  1.
         12    1    4    4    0    0  0.34045680650E+02  0.36825679145E+02 -0.58916733231E+03  0.59129805046E+03  0.00000000000E+00 0. -1.
         -5    1    5    5    0  502  0.59706529911E+02 -0.11508963234E+03 -0.52017298883E+03  0.53610868441E+03  0.47000000000E+01 0.  1.
         13    1    6    6    0    0 -0.61037293104E+02 -0.31418025259E+02 -0.41069697913E+03  0.41639482721E+03  0.00000000000E+00 0. -1.
        -14    1    6    6    0    0  0.15346674806E+02  0.27717590504E+01 -0.22218909898E+02  0.27145589566E+02  0.00000000000E+00 0.  1.
<mgrwt>
<rscale>  2 0.22598358E+03</rscale>
<asrwt>0</asrwt>
<pdfrwt beam="1">  1       21 0.36856759E-02 0.22656997E+03</pdfrwt>
<pdfrwt beam="2">  1       21 0.32980084E+00 0.22656997E+03</pdfrwt>
<totfact> 0.99490279E+03</totfact>
</mgrwt>
</event>
<event>
12    1  0.1071811E-001  0.1864551E+03  0.7546771E-02  0.1161833E+00
         21   -1    0    0  501  502  0.00000000000E+00  0.00000000000E+00  0.18280402862E+03  0.18280402862E+03  0.00000000000E+00 0.  1.
         21   -1    0    0  502  503 -0.00000000000E+00 -0.00000000000E+00 -0.24048482521E+03  0.24048482521E+03  0.00000000000E+00 0.  1.
         -6    2    1    2    0  503 -0.34539639642E+02  0.59101088645E+02 -0.12624302890E+03  0.22517282275E+03  0.17343463430E+03 0.  0.
        -24    2    3    3    0    0 -0.72195840683E+02  0.57818807202E+01 -0.39116396578E+02  0.11620462799E+03  0.82022884169E+02 0.  0.
          6    2    1    2  501    0  0.34539639642E+02 -0.59101088645E+02  0.68562232304E+02  0.19811603108E+03  0.17280988596E+03 0.  0.
         24    2    5    5    0    0  0.63998044266E+02  0.17471430853E+02  0.28915169912E+02  0.10687389223E+03  0.78644397283E+02 0.  0.
          5    1    5    5  501    0 -0.29458404624E+02 -0.76572519498E+02  0.39647062391E+02  0.91242138847E+02  0.47000000000E+01 0. -1.
        -11    1    6    6    0    0  0.43505958156E+02  0.13652017949E+01  0.54905377340E+02  0.70065916334E+02  0.00000000000E+00 0.  1.
         12    1    6    6    0    0  0.20492086110E+02  0.16106229058E+02 -0.25990207427E+02  0.36807975898E+02  0.00000000000E+00 0. -1.
         -5    1    3    3    0  503  0.37656201040E+02  0.53319207925E+02 -0.87126632318E+02  0.10896819476E+03  0.47000000000E+01 0.  1.
         11    1    4    4    0    0 -0.19595432127E+02 -0.23025038512E+02 -0.46826371826E+02  0.55739056838E+02  0.00000000000E+00 0. -1.
        -12    1    4    4    0    0 -0.52600408556E+02  0.28806919232E+02  0.77099752484E+01  0.60465571148E+02  0.00000000000E+00 0.  1.
<mgrwt>
<rscale>  2 0.18630967E+03</rscale>
<asrwt>0</asrwt>
<pdfrwt beam="1">  1       21 0.28123697E-01 0.18645508E+03</pdfrwt>
<pdfrwt beam="2">  1       21 0.36997665E-01 0.18645508E+03</pdfrwt>
<totfact> 0.85322198E+04</totfact>
</mgrwt>
</event>
<event>
12    1  0.1071811E-001  0.2328231E+03  0.7546771E-02  0.1124698E+00
         21   -1    0    0  501  502  0.00000000000E+00  0.00000000000E+00  0.63150190228E+03  0.63150190228E+03  0.00000000000E+00 0. -1.
         21   -1    0    0  502  503 -0.00000000000E+00 -0.00000000000E+00 -0.86343110887E+02  0.86343110887E+02  0.00000000000E+00 0. -1.
         -6    2    1    2    0  503 -0.14623225266E+03  0.53644247520E+02  0.24335251500E+03  0.33667102885E+03  0.17281596598E+03 0.  0.
        -24    2    3    3    0    0 -0.11109170952E+03 -0.55979817805E+01  0.76867753734E+02  0.15643849783E+03  0.78687017445E+02 0.  0.
          6    2    1    2  501    0  0.14623225266E+03 -0.53644247520E+02  0.30180627639E+03  0.38117398432E+03  0.17304623903E+03 0.  0.
         24    2    5    5    0    0  0.12378054878E+03 -0.13778371426E+02  0.11390572696E+03  0.18772612684E+03  0.82189514482E+02 0.  0.
          5    1    5    5  501    0  0.22451703882E+02 -0.39865876094E+02  0.18790054943E+03  0.19344785747E+03  0.47000000000E+01 0. -1.
        -11    1    6    6    0    0 -0.32428276327E+01 -0.76735225288E+01 -0.80099790412E+01  0.11556757473E+02  0.00000000000E+00 0.  1.
         12    1    6    6    0    0  0.12702337641E+03 -0.61048488974E+01  0.12191570600E+03  0.17616936937E+03  0.00000000000E+00 0. -1.
         -5    1    3    3    0  503 -0.35140543144E+02  0.59242229300E+02  0.16648476127E+03  0.18023253103E+03  0.47000000000E+01 0.  1.
         11    1    4    4    0    0 -0.67881804819E+02  0.82747858383E+01  0.86276599068E+02  0.11009115792E+03  0.00000000000E+00 0. -1.
        -12    1    4    4    0    0 -0.43209904699E+02 -0.13872767619E+02 -0.94088453347E+01  0.46347339902E+02  0.00000000000E+00 0.  1.
<mgrwt>
<rscale>  2 0.23278027E+03</rscale>
<asrwt>0</asrwt>
<pdfrwt beam="1">  1       21 0.97154136E-01 0.23282306E+03</pdfrwt>
<pdfrwt beam="2">  1       21 0.13283556E-01 0.23282306E+03</pdfrwt>
<totfact> 0.42110940E+04</totfact>
</mgrwt>
</event>
<event>
12    1  0.1071811E-001  0.1791585E+03  0.7546771E-02  0.1169860E+00
         21   -1    0    0  501  502  0.00000000000E+00  0.00000000000E+00  0.57989832612E+02  0.57989832612E+02  0.00000000000E+00 0. -1.
         21   -1    0    0  502  503 -0.00000000000E+00 -0.00000000000E+00 -0.55200408399E+03  0.55200408399E+03  0.00000000000E+00 0. -1.
         -6    2    1    2    0  503  0.28548302498E+02  0.19401859634E+02 -0.19520341126E+03  0.26158943215E+03  0.17068456729E+03 0.  0.
        -24    2    3    3    0    0  0.43746204829E+02  0.57862624890E+02 -0.67651779237E+02  0.12741896024E+03  0.79981337819E+02 0.  0.
          6    2    1    2  501    0 -0.28548302498E+02 -0.19401859634E+02 -0.29881084011E+03  0.34840448445E+03  0.17580195927E+03 0.  0.
         24    2    5    5    0    0  0.30170623782E+02 -0.33329518305E+02 -0.63079409210E+02  0.10502558336E+03  0.70924170523E+02 0.  0.
          5    1    5    5  501    0 -0.58718926279E+02  0.13927658671E+02 -0.23573143090E+03  0.24337890109E+03  0.47000000000E+01 0. -1.
        -11    1    6    6    0    0  0.43173503278E+02 -0.21929067692E+02 -0.71051585283E+02  0.85983505199E+02  0.00000000000E+00 0.  1.
         12    1    6    6    0    0 -0.13002879497E+02 -0.11400450613E+02  0.79721760731E+01  0.19042078162E+02  0.00000000000E+00 0. -1.
         -5    1    3    3    0  503 -0.15197902331E+02 -0.38460765256E+02 -0.12755163203E+03  0.13417047191E+03  0.47000000000E+01 0.  1.
         13    1    4    4    0    0 -0.16646248324E+02  0.61879498427E+01  0.63101547508E+01  0.18846919098E+02  0.00000000000E+00 0. -1.
        -14    1    4    4    0    0  0.60392453153E+02  0.51674675047E+02 -0.73961933988E+02  0.10857204114E+03  0.00000000000E+00 0.  1.
<mgrwt>
<rscale>  2 0.17789041E+03</rscale>
<asrwt>0</asrwt>
<pdfrwt beam="1">  1       21 0.89215130E-02 0.17915850E+03</pdfrwt>
<pdfrwt beam="2">  1       21 0.84923702E-01 0.17915850E+03</pdfrwt>
<totfact> 0.11971002E+05</totfact>
</mgrwt>
</event>
<event>
12    1  0.1071811E-001  0.2179909E+03  0.7546771E-02  0.1135550E+00
         21   -1    0    0  503  502  0.00000000000E+00  0.00000000000E+00  0.78514674621E+02  0.78514674621E+02  0.00000000000E+00 0.  1.
         21   -1    0    0  501  503 -0.00000000000E+00 -0.00000000000E+00 -0.61672722236E+03  0.61672722236E+03  0.00000000000E+00 0.  1.
          6    2    1    2  501    0  0.13258635776E+03  0.76721333212E+01 -0.32167858487E+03  0.38858349232E+03  0.17286415084E+03 0.  0.
         24    2    3    3    0    0  0.75277925014E+02 -0.36140935042E+02 -0.28455600216E+03  0.30731838560E+03  0.80619715835E+02 0.  0.
         -6    2    1    2    0  502 -0.13258635776E+03 -0.76721333212E+01 -0.21653396288E+03  0.30665840467E+03  0.17179760237E+03 0.  0.
        -24    2    5    5    0    0 -0.35501317015E+02  0.54918329179E+02 -0.10266449468E+03  0.14438882366E+03  0.77664454809E+02 0.  0.
          5    1    3    3  501    0  0.57308432747E+02  0.43813068363E+02 -0.37122582706E+02  0.81265106720E+02  0.47000000000E+01 0. -1.
        -11    1    4    4    0    0  0.74289326881E+02 -0.14537916585E+02 -0.12376329048E+03  0.14507793484E+03  0.00000000000E+00 0.  1.
         12    1    4    4    0    0  0.98859813304E+00 -0.21603018457E+02 -0.16079271168E+03  0.16224045076E+03  0.00000000000E+00 0. -1.
         -5    1    5    5    0  502 -0.97085040746E+02 -0.62590462500E+02 -0.11386946820E+03  0.16226958101E+03  0.47000000000E+01 0.  1.
         13    1    6    6    0    0  0.79529402110E+01  0.76988600920E+01 -0.72750427863E+02  0.73587678717E+02  0.00000000000E+00 0. -1.
        -14    1    6    6    0    0 -0.43454257226E+02  0.47219469087E+02 -0.29914066816E+02  0.70801144944E+02  0.00000000000E+00 0.  1.
<mgrwt>
<rscale>  2 0.21777936E+03</rscale>
<asrwt>0</asrwt>
<pdfrwt beam="1">  1       21 0.12079180E-01 0.21799087E+03</pdfrwt>
<pdfrwt beam="2">  1       21 0.94881115E-01 0.21799087E+03</pdfrwt>
<totfact> 0.53217186E+04</totfact>
</mgrwt>
</event>
<event>
12    1  0.1071811E-001  0.1842152E+03  0.7546771E-02  0.1164210E+00
         21   -1    0    0  503  502  0.00000000000E+00  0.00000000000E+00  0.52006598955E+02  0.52006598955E+02  0.00000000000E+00 0. -1.
         21   -1    0    0  501  503 -0.00000000000E+00 -0.00000000000E+00 -0.65129472894E+03  0.65129472894E+03  0.00000000000E+00 0. -1.
          6    2    1    2  501    0 -0.31369085321E+02  0.47872982563E+02 -0.33234314624E+03  0.37998314410E+03  0.17509820380E+03 0.  0.
         24    2    3    3    0    0 -0.64116791881E+01 -0.38869860643E+02 -0.80073316794E+02  0.11201047792E+03  0.67695165308E+02 0.  0.
         -6    2    1    2    0  502  0.31369085321E+02 -0.47872982563E+02 -0.26694498375E+03  0.32331818380E+03  0.17320271838E+03 0.  0.
        -24    2    5    5    0    0 -0.73983793659E+01 -0.77885645551E+02 -0.10681499231E+03  0.15578496197E+03  0.82088988263E+02 0.  0.
          5    1    3    3  501    0 -0.24957406133E+02  0.86742843206E+02 -0.25226982944E+03  0.26797266617E+03  0.47000000000E+01 0. -1.
        -13    1    4    4    0    0  0.26829438833E+02 -0.22963679075E+02 -0.17550061516E+02  0.39435440963E+02  0.00000000000E+00 0.  1.
         14    1    4    4    0    0 -0.33241118021E+02 -0.15906181569E+02 -0.62523255278E+02  0.72575036962E+02  0.00000000000E+00 0. -1.
         -5    1    5    5    0  502  0.38767464687E+02  0.30012662988E+02 -0.16012999144E+03  0.16753322183E+03  0.47000000000E+01 0.  1.
         11    1    6    6    0    0  0.11478531329E+02 -0.90120371658E+02 -0.87542330905E+02  0.12616298098E+03  0.00000000000E+00 0. -1.
        -12    1    6    6    0    0 -0.18876910695E+02  0.12234726107E+02 -0.19272661406E+02  0.29621980993E+02  0.00000000000E+00 0.  1.
<mgrwt>
<rscale>  2 0.18376331E+03</rscale>
<asrwt>0</asrwt>
<pdfrwt beam="1">  1       21 0.80010144E-02 0.18421515E+03</pdfrwt>
<pdfrwt beam="2">  1       21 0.10019920E+00 0.18421515E+03</pdfrwt>
<totfact> 0.98372501E+04</totfact>
</mgrwt>
</event>
<event>
12    1  0.1071811E-001  0.1839589E+03  0.7546771E-02  0.1164529E+00
         21   -1    0    0  501  502  0.00000000000E+00  0.00000000000E+00  0.29850227445E+03  0.29850227445E+03  0.00000000000E+00 0. -1.
         21   -1    0    0  502  503 -0.00000000000E+00 -0.00000000000E+00 -0.31271311341E+03  0.31271311341E+03  0.00000000000E+00 0. -1.
         -6    2    1    2    0  503 -0.29585571370E+02  0.52748197628E+02 -0.25191960133E+03  0.31193646736E+03  0.17373311645E+03 0.  0.
        -24    2    3    3    0    0 -0.65837144292E+01  0.73758279437E+02 -0.25762232072E+03  0.27991897263E+03  0.80633380331E+02 0.  0.
          6    2    1    2  501    0  0.29585571370E+02 -0.52748197628E+02  0.23770876238E+03  0.29927892050E+03  0.17147809818E+03 0.  0.
         24    2    5    5    0    0 -0.43643363389E+02 -0.42288163985E+02  0.66703562127E+02  0.11290092367E+03  0.67854413144E+02 0.  0.
          5    1    5    5  501    0  0.73228934758E+02 -0.10460033644E+02  0.17100520025E+03  0.18637799683E+03  0.47000000000E+01 0. -1.
        -11    1    6    6    0    0  0.30097969586E-01 -0.24212740567E+02 -0.71240250667E+01  0.25239046036E+02  0.00000000000E+00 0.  1.
         12    1    6    6    0    0 -0.43673461358E+02 -0.18075423418E+02  0.73827587194E+02  0.87661877630E+02  0.00000000000E+00 0. -1.
         -5    1    3    3    0  503 -0.23001856940E+02 -0.21010081809E+02  0.57027193944E+01  0.32017494730E+02  0.47000000000E+01 0.  1.
         13    1    4    4    0    0 -0.20263622697E+02  0.52151716123E+01 -0.11112543763E+02  0.23691792854E+02  0.00000000000E+00 0. -1.
        -14    1    4    4    0    0  0.13679908268E+02  0.68543107825E+02 -0.24650977696E+03  0.25622717978E+03  0.00000000000E+00 0.  1.
<mgrwt>
<rscale>  2 0.18342453E+03</rscale>
<asrwt>0</asrwt>
<pdfrwt beam="1">  1       21 0.45923427E-01 0.18395889E+03</pdfrwt>
<pdfrwt beam="2">  1       21 0.48109710E-01 0.18395889E+03</pdfrwt>
<totfact> 0.18860455E+04</totfact>
</mgrwt>
</event>
<event>
12    1  0.1071811E-001  0.2676514E+03  0.7546771E-02  0.1102658E+00
         21   -1    0    0  501  502  0.00000000000E+00  0.00000000000E+00  0.97075789070E+03  0.97075789070E+03  0.00000000000E+00 0.  1.
         21   -1    0    0  502  503 -0.00000000000E+00 -0.00000000000E+00 -0.79867378845E+02  0.79867378845E+02  0.00000000000E+00 0.  1.
         -6    2    1    2    0  503 -0.10124332027E+03  0.17706620137E+03  0.59104758538E+03  0.64882550527E+03  0.17330504473E+03 0.  0.
        -24    2    3    3    0    0 -0.61676405278E+02  0.15278783900E+03  0.56773890612E+03  0.59666839481E+03  0.80855458287E+02 0.  0.
          6    2    1    2  501    0  0.10124332027E+03 -0.17706620137E+03  0.29984292648E+03  0.40179976428E+03  0.17301624331E+03 0.  0.
         24    2    5    5    0    0  0.12923927697E+03 -0.16949464271E+03  0.29178361408E+03  0.37133429845E+03  0.85558512937E+02 0.  0.
          5    1    5    5  501    0 -0.27995956700E+02 -0.75715586614E+01  0.80593123924E+01  0.30465465831E+02  0.47000000000E+01 0. -1.
        -13    1    6    6    0    0  0.45102787507E+02 -0.10067299745E+03  0.90954733602E+02  0.14297579313E+03  0.00000000000E+00 0.  1.
         14    1    6    6    0    0  0.84136489467E+02 -0.68821645264E+02  0.20082888048E+03  0.22835850532E+03  0.00000000000E+00 0. -1.
         -5    1    3    3    0  503 -0.39566914996E+02  0.24278362373E+02  0.23308679264E+02  0.52157110454E+02  0.47000000000E+01 0.  1.
         13    1    4    4    0    0 -0.44363445310E+02  0.31810601016E+02  0.10866738343E+03  0.12160851055E+03  0.00000000000E+00 0. -1.
        -14    1    4    4    0    0 -0.17312959968E+02  0.12097723799E+03  0.45907152268E+03  0.47505988426E+03  0.00000000000E+00 0.  1.
<mgrwt>
<rscale>  2 0.26760469E+03</rscale>
<asrwt>0</asrwt>
<pdfrwt beam="1">  1       21 0.14934736E+00 0.26765143E+03</pdfrwt>
<pdfrwt beam="2">  1       21 0.12287290E-01 0.26765143E+03</pdfrwt>
<totfact> 0.16247220E+04</totfact>
</mgrwt>
</event>
<event>
12    1  0.1071811E-001  0.2628320E+03  0.7546771E-02  0.1105594E+00
         21   -1    0    0  501  502  0.00000000000E+00  0.00000000000E+00  0.38383232947E+03  0.38383232947E+03  0.00000000000E+00 0. -1.
         21   -1    0    0  502  503 -0.00000000000E+00 -0.00000000000E+00 -0.18304925253E+03  0.18304925253E+03  0.00000000000E+00 0.  1.
         -6    2    1    2    0  503  0.11361693641E+03  0.16176045295E+03  0.60158240263E+02  0.26962877614E+03  0.17322069932E+03 0.  0.
        -24    2    3    3    0    0  0.83288715918E+02  0.18834589807E+03  0.60323862990E+02  0.22902453645E+03  0.80013013500E+02 0.  0.
          6    2    1    2  501    0 -0.11361693641E+03 -0.16176045295E+03  0.14062483667E+03  0.29725280586E+03  0.17178077169E+03 0.  0.
         24    2    5    5    0    0 -0.94881678918E+02 -0.58380722877E+02  0.22446112477E+02  0.13905457794E+03  0.80134299042E+02 0.  0.
          5    1    5    5  501    0 -0.18735257492E+02 -0.10337973007E+03  0.11817872420E+03  0.15819822792E+03  0.47000000000E+01 0. -1.
        -11    1    6    6    0    0 -0.18655162427E+02  0.86053145090E+01 -0.20354914520E+02  0.28920391908E+02  0.00000000000E+00 0.  1.
         12    1    6    6    0    0 -0.76226516491E+02 -0.66986037386E+02  0.42801026997E+02  0.11013418603E+03  0.00000000000E+00 0. -1.
         -5    1    3    3    0  503  0.30328220492E+02 -0.26585445119E+02 -0.16562272704E+00  0.40604239696E+02  0.47000000000E+01 0.  1.
         13    1    4    4    0    0  0.12113078462E+02  0.91129627317E+02  0.57643013351E+02  0.10850830675E+03  0.00000000000E+00 0. -1.
        -14    1    4    4    0    0  0.71175637455E+02  0.97216270754E+02  0.26808496385E+01  0.12051622970E+03  0.00000000000E+00 0.  1.
<mgrwt>
<rscale>  2 0.26259500E+03</rscale>
<asrwt>0</asrwt>
<pdfrwt beam="1">  1       21 0.59051127E-01 0.26283201E+03</pdfrwt>
<pdfrwt beam="2">  1       21 0.28161424E-01 0.26283201E+03</pdfrwt>
<totfact> 0.31226619E+04</totfact>
</mgrwt>
</event>
<event>
12    1  0.1071811E-001  0.2918398E+03  0.7546771E-02  0.1089394E+00
         21   -1    0    0  501  502  0.00000000000E+00  0.00000000000E+00  0.18062572911E+04  0.18062572911E+04  0.00000000000E+00 0. -1.
         21   -1    0    0  502  503 -0.00000000000E+00 -0.00000000000E+00 -0.47262524159E+02  0.47262524159E+02  0.00000000000E+00 0.  1.
         -6    2    1    2    0  503 -0.23170823408E+03 -0.39931292907E+02  0.83442264592E+03  0.88398622082E+03  0.17287935876E+03 0.  0.
        -24    2    3    3    0    0 -0.11115593438E+03  0.15120849725E+02  0.58941407247E+03  0.60539173697E+03  0.80659311397E+02 0.  0.
          6    2    1    2  501    0  0.23170823408E+03  0.39931292907E+02  0.92457212100E+03  0.96953359442E+03  0.17285418675E+03 0.  0.
         24    2    5    5    0    0  0.34445872182E+02  0.34053306934E+02  0.26767923149E+03  0.28362008060E+03  0.80262278357E+02 0.  0.
          5    1    5    5  501    0  0.19726236190E+03  0.58779859736E+01  0.65689288951E+03  0.68591351382E+03  0.47000000000E+01 0. -1.
        -11    1    6    6    0    0 -0.11852519569E+02  0.44104796870E+02  0.14869925517E+03  0.15555444004E+03  0.00000000000E+00 0.  1.
         12    1    6    6    0    0  0.46298391751E+02 -0.10051489936E+02  0.11897997631E+03  0.12806564056E+03  0.00000000000E+00 0. -1.
         -5    1    3    3    0  503 -0.12055229970E+03 -0.55052142632E+02  0.24500857345E+03  0.27859448386E+03  0.47000000000E+01 0.  1.
         13    1    4    4    0    0 -0.10001836109E+03  0.42440399717E+02  0.45990935014E+03  0.47256901129E+03  0.00000000000E+00 0. -1.
        -14    1    4    4    0    0 -0.11137573293E+02 -0.27319549992E+02  0.12950472233E+03  0.13282272568E+03  0.00000000000E+00 0.  1.
<mgrwt>
<rscale>  2 0.29183610E+03</rscale>
<asrwt>0</asrwt>
<pdfrwt beam="1">  1       21 0.27788568E+00 0.29183983E+03</pdfrwt>
<pdfrwt beam="2">  1       21 0.72711590E-02 0.29183983E+03</pdfrwt>
<totfact> 0.59413823E+03</totfact>
</mgrwt>
</event>
<event>
12    1  0.1071811E-001  0.2584492E+03  0.7546771E-02  0.1108120E+00
         21   -1    0    0  501  502  0.00000000000E+00  0.00000000000E+00  0.78771647885E+03  0.78771647885E+03  0.00000000000E+00 0. -1.
         21   -1    0    0  502  503 -0.00000000000E+00 -0.00000000000E+00 -0.12174234689E+03  0.12174234689E+03  0.00000000000E+00 0.  1.
         -6    2    1    2    0  503  0.18198797358E+03  0.62947937585E+02  0.82303446086E+02  0.27123758156E+03  0.17237721148E+03 0.  0.
        -24    2    3    3    0    0  0.13355748176E+03  0.10937501474E+03  0.60237876282E+02  0.20045647248E+03  0.82180903117E+02 0.  0.
          6    2    1    2  501    0 -0.18198797358E+03 -0.62947937585E+02  0.58367068587E+03  0.63822124419E+03  0.17196750164E+03 0.  0.
         24    2    5    5    0    0 -0.13973121323E+03 -0.95405729221E+02  0.53073603025E+03  0.56296627892E+03  0.81383243189E+02 0.  0.
          5    1    5    5  501    0 -0.42256760350E+02  0.32457791636E+02  0.52934655623E+02  0.75254965279E+02  0.47000000000E+01 0. -1.
        -11    1    6    6    0    0 -0.60119979393E+02 -0.79125687524E+02  0.21359223093E+03  0.23557785860E+03  0.00000000000E+00 0.  1.
         12    1    6    6    0    0 -0.79611233833E+02 -0.16280041698E+02  0.31714379932E+03  0.32738842031E+03  0.00000000000E+00 0. -1.
         -5    1    3    3    0  503  0.48430491818E+02 -0.46427077156E+02  0.22065569804E+02  0.70781109074E+02  0.47000000000E+01 0.  1.
         11    1    4    4    0    0  0.64944248085E+02  0.49288183766E+02  0.71652130853E+02  0.10854081386E+03  0.00000000000E+00 0. -1.
        -12    1    4    4    0    0  0.68613233673E+02  0.60086830976E+02 -0.11414254571E+02  0.91915658618E+02  0.00000000000E+00 0.  1.
<mgrwt>
<rscale>  2 0.25838086E+03</rscale>
<asrwt>0</asrwt>
<pdfrwt beam="1">  1       21 0.12118715E+00 0.25844916E+03</pdfrwt>
<pdfrwt beam="2">  1       21 0.18729592E-01 0.25844916E+03</pdfrwt>
<totfact> 0.12909151E+04</totfact>
</mgrwt>
</event>
<event>
12    1  0.1071811E-001  0.1846534E+03  0.7546771E-02  0.1163490E+00
         21   -1    0    0  501  502  0.00000000000E+00  0.00000000000E+00  0.53680997628E+02  0.53680997628E+02  0.00000000000E+00 0.  1.
         21   -1    0    0  502  503 -0.00000000000E+00 -0.00000000000E+00 -0.78763270275E+03  0.78763270275E+03  0.00000000000E+00 0. -1.
         -6    2    1    2    0  503  0.41110955654E+00  0.62861581014E+02 -0.55268238266E+03  0.58255616210E+03  0.17309569181E+03 0.  0.
        -24    2    3    3    0    0 -0.37243656372E+02  0.77020848520E+02 -0.22909480499E+03  0.25644364061E+03  0.77198510921E+02 0.  0.
          6    2    1    2  501    0 -0.41110955654E+00 -0.62861581014E+02 -0.18126932246E+03  0.25875753827E+03  0.17362358414E+03 0.  0.
         24    2    5    5    0    0 -0.90721397548E+01  0.26721882470E+02 -0.44766629319E+02  0.95187108155E+02  0.79121247057E+02 0.  0.
          5    1    5    5  501    0  0.86610301982E+01 -0.89583463485E+02 -0.13650269314E+03  0.16357043012E+03  0.47000000000E+01 0. -1.
        -13    1    6    6    0    0 -0.34469843818E+02  0.19695479351E+02 -0.54211840809E+02  0.67193792300E+02  0.00000000000E+00 0.  1.
         14    1    6    6    0    0  0.25397704064E+02  0.70264031190E+01  0.94452114895E+01  0.27993315855E+02  0.00000000000E+00 0. -1.
         -5    1    3    3    0  503  0.37654765928E+02 -0.14159267506E+02 -0.32358757767E+03  0.32611252149E+03  0.47000000000E+01 0.  1.
         13    1    4    4    0    0 -0.56179517058E+02  0.53263941927E+02 -0.19965819334E+03  0.21414149484E+03  0.00000000000E+00 0. -1.
        -14    1    4    4    0    0  0.18935860687E+02  0.23756906593E+02 -0.29436611652E+02  0.42302145765E+02  0.00000000000E+00 0.  1.
<mgrwt>
<rscale>  2 0.18452926E+03</rscale>
<asrwt>0</asrwt>
<pdfrwt beam="1">  1       21 0.82586147E-02 0.18465345E+03</pdfrwt>
<pdfrwt beam="2">  1       21 0.12117427E+00 0.18465345E+03</pdfrwt>
<totfact> 0.58756561E+04</totfact>
</mgrwt>
</event>
<event>
12    1  0.1071811E-001  0.2024047E+03  0.7546771E-02  0.1147879E+00
         21   -1    0    0  503  502  0.00000000000E+00  0.00000000000E+00  0.42410328435E+03  0.42410328435E+03  0.00000000000E+00 0. -1.
         21   -1    0    0  501  503 -0.00000000000E+00 -0.00000000000E+00 -0.19114528110E+03  0.19114528110E+03  0.00000000000E+00 0. -1.
          6    2    1    2  501    0  0.10024102440E+03  0.20649195906E+02 -0.10016807309E+03  0.22583466597E+03  0.17462245337E+03 0.  0.
         24    2    3    3    0    0  0.10355780548E+03 -0.12715851361E+02 -0.12854490175E+02  0.13218649899E+03  0.80138134778E+02 0.  0.
         -6    2    1    2    0  502 -0.10024102440E+03 -0.20649195906E+02  0.33312607635E+03  0.38941389949E+03  0.17376866836E+03 0.  0.
        -24    2    5    5    0    0 -0.12328875296E+03 -0.48350216961E+02  0.30937833589E+03  0.34600204009E+03  0.80402717261E+02 0.  0.
          5    1    3    3  501    0 -0.33167810822E+01  0.33365047267E+02 -0.87313582920E+02  0.93648166977E+02  0.47000000000E+01 0. -1.
        -11    1    4    4    0    0 -0.13545573805E+02 -0.40408500641E+01 -0.12964384970E+01  0.14194780440E+02  0.00000000000E+00 0.  1.
         12    1    4    4    0    0  0.11710337929E+03 -0.86750012967E+01 -0.11558051678E+02  0.11799171855E+03  0.00000000000E+00 0. -1.
         -5    1    5    5    0  502  0.23047728560E+02  0.27701021054E+02  0.23747740463E+02  0.43411859397E+02  0.47000000000E+01 0.  1.
         11    1    6    6    0    0 -0.13920458640E+02 -0.42815210829E+02  0.10172975423E+03  0.11124686217E+03  0.00000000000E+00 0. -1.
        -12    1    6    6    0    0 -0.10936829432E+03 -0.55350061316E+01  0.20764858166E+03  0.23475517792E+03  0.00000000000E+00 0.  1.
<mgrwt>
<rscale>  2 0.20222039E+03</rscale>
<asrwt>0</asrwt>
<pdfrwt beam="1">  1       21 0.65246659E-01 0.20240468E+03</pdfrwt>
<pdfrwt beam="2">  1       21 0.29406966E-01 0.20240468E+03</pdfrwt>
<totfact> 0.23811569E+04</totfact>
</mgrwt>
</event>
<event>
12    1  0.1071811E-001  0.2077018E+03  0.7546771E-02  0.1144686E+00
         21   -1    0    0  501  502  0.00000000000E+00  0.00000000000E+00  0.27543747502E+03  0.27543747502E+03  0.00000000000E+00 0. -1.
         21   -1    0    0  502  503 -0.00000000000E+00 -0.00000000000E+00 -0.20363417647E+03  0.20363417647E+03  0.00000000000E+00 0.  1.
         -6    2    1    2    0  503 -0.10070639524E+03  0.33356395601E+02 -0.85227559855E+02  0.21868972537E+03  0.17119296672E+03 0.  0.
        -24    2    3    3    0    0 -0.54910401480E+02 -0.18817226857E+02  0.12762660040E+02  0.98508474252E+02  0.78560764959E+02 0.  0.
          6    2    1    2  501    0  0.10070639524E+03 -0.33356395601E+02  0.15703085841E+03  0.26038192613E+03  0.17856547760E+03 0.  0.
         24    2    5    5    0    0  0.40122237068E+02 -0.24410948981E+02  0.17386427660E+03  0.19669585854E+03  0.79087203451E+02 0.  0.
          5    1    5    5  501    0  0.60584158172E+02 -0.89454466200E+01 -0.16833418194E+02  0.63686067587E+02  0.47000000000E+01 0. -1.
        -11    1    6    6    0    0 -0.14287205068E+02 -0.81643854039E+01  0.31088287346E+01  0.16746529007E+02  0.00000000000E+00 0.  1.
         12    1    6    6    0    0  0.54409442137E+02 -0.16246563577E+02  0.17075544787E+03  0.17994932953E+03  0.00000000000E+00 0. -1.
         -5    1    3    3    0  503 -0.45795993760E+02  0.52173622459E+02 -0.97990219895E+02  0.12018125112E+03  0.47000000000E+01 0.  1.
         11    1    4    4    0    0 -0.40192675662E+02 -0.49251144602E+02  0.46305187944E+01  0.63738278340E+02  0.00000000000E+00 0. -1.
        -12    1    4    4    0    0 -0.14717725818E+02  0.30433917745E+02  0.81321412455E+01  0.34770195912E+02  0.00000000000E+00 0.  1.
<mgrwt>
<rscale>  2 0.20610782E+03</rscale>
<asrwt>0</asrwt>
<pdfrwt beam="1">  1       21 0.42374996E-01 0.20770185E+03</pdfrwt>
<pdfrwt beam="2">  1       21 0.31328335E-01 0.20770185E+03</pdfrwt>
<totfact> 0.52088152E+04</totfact>
</mgrwt>
</event>
<event>
12    1  0.1071811E-001  0.2207796E+03  0.7546771E-02  0.1133347E+00
         21   -1    0    0  503  502  0.00000000000E+00  0.00000000000E+00  0.10901447169E+04  0.10901447169E+04  0.00000000000E+00 0.  1.
         21   -1    0    0  501  503 -0.00000000000E+00 -0.00000000000E+00 -0.44816154874E+02  0.44816154874E+02  0.00000000000E+00 0. -1.
          6    2    1    2  501    0 -0.64417269196E+02 -0.12140904175E+03  0.48996107296E+03  0.53740624651E+03  0.17278275603E+03 0.  0.
         24    2    3    3    0    0  0.20241597098E+00 -0.76201226969E+02  0.13955209626E+03  0.17820158176E+03  0.80463334544E+02 0.  0.
         -6    2    1    2    0  502  0.64417269196E+02  0.12140904175E+03  0.55536748909E+03  0.59755462529E+03  0.17247823711E+03 0.  0.
        -24    2    5    5    0    0  0.84104041249E+02  0.14513876180E+03  0.44737664362E+03  0.48515008218E+03  0.84178328846E+02 0.  0.
          5    1    3    3  501    0 -0.64619685167E+02 -0.45207814784E+02  0.35040897670E+03  0.35920466475E+03  0.47000000000E+01 0. -1.
        -13    1    4    4    0    0 -0.13595600100E+02  0.10820814080E+01  0.75951394243E+02  0.77166220134E+02  0.00000000000E+00 0.  1.
         14    1    4    4    0    0  0.13798016071E+02 -0.77283308377E+02  0.63600702020E+02  0.10103536162E+03  0.00000000000E+00 0. -1.
         -5    1    5    5    0  502 -0.19686772054E+02 -0.23729720048E+02  0.10799084547E+03  0.11240454312E+03  0.47000000000E+01 0.  1.
         11    1    6    6    0    0  0.73302107597E+02  0.59240908206E+02  0.29743022199E+03  0.31200548254E+03  0.00000000000E+00 0. -1.
        -12    1    6    6    0    0  0.10801933652E+02  0.85897853594E+02  0.14994642163E+03  0.17314459963E+03  0.00000000000E+00 0.  1.
<mgrwt>
<rscale>  2 0.22071999E+03</rscale>
<asrwt>0</asrwt>
<pdfrwt beam="1">  1       21 0.16771455E+00 0.22077958E+03</pdfrwt>
<pdfrwt beam="2">  1       21 0.68947938E-02 0.22077958E+03</pdfrwt>
<totfact> 0.33791905E+04</totfact>
</mgrwt>
</event>
<event>
12    1  0.1071811E-001  0.1958595E+03  0.7546771E-02  0.1154321E+00
         21   -1    0    0  501  502  0.00000000000E+00  0.00000000000E+00  0.36789107771E+02  0.36789107771E+02  0.00000000000E+00 0.  1.
         21   -1    0    0  502  503 -0.00000000000E+00 -0.00000000000E+00 -0.10203053570E+04  0.10203053570E+04  0.00000000000E+00 0.  1.
         -6    2    1    2    0  503  0.11271496688E+02 -0.86823487656E+02 -0.52470429717E+03  0.56006745627E+03  0.17520157378E+03 0.  0.
        -24    2    3    3    0    0  0.87761817711E+01  0.11737849203E+01 -0.11256904397E+03  0.13860891322E+03  0.80388071419E+02 0.  0.
          6    2    1    2  501    0 -0.11271496688E+02  0.86823487656E+02 -0.45881195202E+03  0.49702700847E+03  0.16988841979E+03 0.  0.
         24    2    5    5    0    0 -0.43706854568E+02  0.52422797424E+02 -0.14451212415E+03  0.17915607282E+03  0.80961136203E+02 0.  0.
          5    1    5    5  501    0  0.32435357880E+02  0.34400690232E+02 -0.31429982787E+03  0.31787093565E+03  0.47000000000E+01 0. -1.
        -13    1    6    6    0    0  0.77516290613E+01  0.51962125867E+02 -0.56109925328E+02  0.76866598716E+02  0.00000000000E+00 0.  1.
         14    1    6    6    0    0 -0.51458483629E+02  0.46067155732E+00 -0.88402198826E+02  0.10228947411E+03  0.00000000000E+00 0. -1.
         -5    1    3    3    0  503  0.24953149167E+01 -0.87997272577E+02 -0.41213525320E+03  0.42145854305E+03  0.47000000000E+01 0.  1.
         11    1    4    4    0    0  0.58580403895E+00  0.95102575840E+01 -0.12274411918E+03  0.12311339066E+03  0.00000000000E+00 0. -1.
        -12    1    4    4    0    0  0.81903777322E+01 -0.83364726637E+01  0.10175075213E+02  0.15495522562E+02  0.00000000000E+00 0.  1.
<mgrwt>
<rscale>  2 0.19466413E+03</rscale>
<asrwt>0</asrwt>
<pdfrwt beam="1">  1       21 0.56598643E-02 0.19585953E+03</pdfrwt>
<pdfrwt beam="2">  1       21 0.15697001E+00 0.19585953E+03</pdfrwt>
<totfact> 0.57622992E+04</totfact>
</mgrwt>
</event>
<event>
12    1  0.1071811E-001  0.2300358E+03  0.7546771E-02  0.1126904E+00
         21   -1    0    0  501  502  0.00000000000E+00  0.00000000000E+00  0.15485589403E+04  0.15485589403E+04  0.00000000000E+00 0.  1.
         21   -1    0    0  502  503 -0.00000000000E+00 -0.00000000000E+00 -0.43502227735E+02  0.43502227735E+02  0.00000000000E+00 0.  1.
         -6    2    1    2    0  503 -0.14121793897E+03 -0.54225208665E+02  0.11280575422E+04  0.11512733356E+04  0.17330203469E+03 0.  0.
        -24    2    3    3    0    0 -0.45718747391E+01 -0.24662060136E+02  0.30218667861E+03  0.31363922697E+03  0.80147718114E+02 0.  0.
          6    2    1    2  501    0  0.14121793897E+03  0.54225208665E+02  0.37699917040E+03  0.44078783246E+03  0.17112176723E+03 0.  0.
         24    2    5    5    0    0  0.19937921600E+02 -0.20179185539E+02  0.11559137640E+03  0.14312866284E+03  0.79496714296E+02 0.  0.
          5    1    5    5  501    0  0.12128001737E+03  0.74404394204E+02  0.26140779400E+03  0.29765916962E+03  0.47000000000E+01 0. -1.
        -13    1    6    6    0    0  0.47143912031E+02  0.42296956363E+01  0.73017642519E+02  0.87017325204E+02  0.00000000000E+00 0.  1.
         14    1    6    6    0    0 -0.27205990430E+02 -0.24408881176E+02  0.42573733876E+02  0.56111337640E+02  0.00000000000E+00 0. -1.
         -5    1    3    3    0  503 -0.13664606423E+03 -0.29563148529E+02  0.82587086360E+03  0.83763410865E+03  0.47000000000E+01 0.  1.
         13    1    4    4    0    0  0.73307750721E+01  0.26323021740E+02  0.61078961446E+02  0.66912489626E+02  0.00000000000E+00 0. -1.
        -14    1    4    4    0    0 -0.11902649811E+02 -0.50985081875E+02  0.24110771716E+03  0.24672673735E+03  0.00000000000E+00 0.  1.
<mgrwt>
<rscale>  2 0.22962520E+03</rscale>
<asrwt>0</asrwt>
<pdfrwt beam="1">  1       21 0.23823979E+00 0.23003581E+03</pdfrwt>
<pdfrwt beam="2">  1       21 0.66926516E-02 0.23003581E+03</pdfrwt>
<totfact> 0.12359233E+04</totfact>
</mgrwt>
</event>
<event>
12    1  0.1071811E-001  0.1882429E+03  0.7546771E-02  0.1160538E+00
         21   -1    0    0  501  502  0.00000000000E+00  0.00000000000E+00  0.16537332346E+03  0.16537332346E+03  0.00000000000E+00 0. -1.
         21   -1    0    0  502  503 -0.00000000000E+00 -0.00000000000E+00 -0.36004731168E+03  0.36004731168E+03  0.00000000000E+00 0. -1.
         -6    2    1    2    0  503 -0.82011211244E+01 -0.69435338691E+02 -0.26553740697E+03  0.32428137129E+03  0.17251019858E+03 0.  0.
        -24    2    3    3    0    0 -0.65119610531E+02 -0.62861788924E+02 -0.22245133589E+03  0.25243830959E+03  0.77771042982E+02 0.  0.
          6    2    1    2  501    0  0.82011211244E+01  0.69435338691E+02  0.70863418757E+02  0.20113926385E+03  0.17477658510E+03 0.  0.
         24    2    5    5    0    0 -0.57813121238E+02  0.32392787870E+02  0.69019039901E+02  0.12527410387E+03  0.80859900680E+02 0.  0.
          5    1    5    5  501    0  0.66014242362E+02  0.37042550821E+02  0.18443788552E+01  0.75865159983E+02  0.47000000000E+01 0. -1.
        -13    1    6    6    0    0 -0.62015225846E+02  0.40939503831E+02  0.22284743645E+02  0.77579256312E+02  0.00000000000E+00 0.  1.
         14    1    6    6    0    0  0.42021046082E+01 -0.85467159602E+01  0.46734296257E+02  0.47694847557E+02  0.00000000000E+00 0. -1.
         -5    1    3    3    0  503  0.56918489407E+02 -0.65735497671E+01 -0.43086071082E+02  0.71843061698E+02  0.47000000000E+01 0.  1.
         13    1    4    4    0    0  0.12046003997E+02 -0.33647321331E+02 -0.83645286738E+02  0.90960334424E+02  0.00000000000E+00 0. -1.
        -14    1    4    4    0    0 -0.77165614528E+02 -0.29214467593E+02 -0.13880604915E+03  0.16147797516E+03  0.00000000000E+00 0.  1.
<mgrwt>
<rscale>  2 0.18771507E+03</rscale>
<asrwt>0</asrwt>
<pdfrwt beam="1">  1       21 0.25442050E-01 0.18824287E+03</pdfrwt>
<pdfrwt beam="2">  1       21 0.55391894E-01 0.18824287E+03</pdfrwt>
<totfact> 0.45104218E+04</totfact>
</mgrwt>
</event>
<event>
12    1  0.1071811E-001  0.1726512E+03  0.7546771E-02  0.1175332E+00
         21   -1    0    0  503  502  0.00000000000E+00  0.00000000000E+00  0.24568567090E+02  0.24568567090E+02  0.00000000000E+00 0. -1.
         21   -1    0    0  501  503 -0.00000000000E+00 -0.00000000000E+00 -0.12368171910E+04  0.12368171910E+04  0.00000000000E+00 0. -1.
          6    2    1    2  501    0 -0.15099403094E+02  0.80220059988E+01 -0.70222156648E+03  0.72292866678E+03  0.17093385931E+03 0.  0.
         24    2    3    3    0    0  0.10470838762E+02 -0.36338873092E+02 -0.62170859654E+03  0.62739776502E+03  0.75340721868E+02 0.  0.
         -6    2    1    2    0  502  0.15099403094E+02 -0.80220059988E+01 -0.51002705740E+03  0.53845709129E+03  0.17180248928E+03 0.  0.
        -24    2    5    5    0    0  0.40701767115E+02  0.53576470502E+02 -0.33230924485E+03  0.34857406348E+03  0.80915829608E+02 0.  0.
          5    1    3    3  501    0 -0.25570241856E+02  0.44360879091E+02 -0.80512969939E+02  0.95530901758E+02  0.47000000000E+01 0. -1.
        -13    1    4    4    0    0 -0.27765947389E+02  0.10713242734E+00 -0.13464902348E+03  0.13748206732E+03  0.00000000000E+00 0.  1.
         14    1    4    4    0    0  0.38236786151E+02 -0.36446005519E+02 -0.48705957307E+03  0.48991569770E+03  0.00000000000E+00 0. -1.
         -5    1    5    5    0  502 -0.25602364021E+02 -0.61598476501E+02 -0.17771781256E+03  0.18988302781E+03  0.47000000000E+01 0.  1.
         11    1    6    6    0    0 -0.76360420317E+01 -0.62613127563E+01 -0.15479712012E+03  0.15511177123E+03  0.00000000000E+00 0. -1.
        -12    1    6    6    0    0  0.48337809147E+02  0.59837783259E+02 -0.17751212473E+03  0.19346229225E+03  0.00000000000E+00 0.  1.
<mgrwt>
<rscale>  2 0.17243472E+03</rscale>
<asrwt>0</asrwt>
<pdfrwt beam="1">  1       21 0.37797798E-02 0.17265121E+03</pdfrwt>
<pdfrwt beam="2">  1       21 0.19027956E+00 0.17265121E+03</pdfrwt>
<totfact> 0.67733208E+04</totfact>
</mgrwt>
</event>
<event>
12    1  0.1071811E-001  0.1869230E+03  0.7546771E-02  0.1161534E+00
         21   -1    0    0  501  502  0.00000000000E+00  0.00000000000E+00  0.44647148192E+02  0.44647148192E+02  0.00000000000E+00 0. -1.
         21   -1    0    0  502  503 -0.00000000000E+00 -0.00000000000E+00 -0.11139654122E+04  0.11139654122E+04  0.00000000000E+00 0. -1.
         -6    2    1    2    0  503 -0.46455834561E+02  0.53886638535E+02 -0.85407699196E+03  0.87429270108E+03  0.17285341940E+03 0.  0.
        -24    2    3    3    0    0  0.25893260559E+02  0.72372936688E+02 -0.54420064379E+03  0.55551130900E+03  0.80809472340E+02 0.  0.
          6    2    1    2  501    0  0.46455834561E+02 -0.53886638535E+02 -0.21524127203E+03  0.28431985929E+03  0.17160146510E+03 0.  0.
         24    2    5    5    0    0  0.29685942719E+01  0.81803093303E+01 -0.18544759086E+03  0.20275271196E+03  0.81499222334E+02 0.  0.
          5    1    5    5  501    0  0.43487240289E+02 -0.62066947865E+02 -0.29793681176E+02  0.81567147328E+02  0.47000000000E+01 0. -1.
        -13    1    6    6    0    0 -0.34275148004E+02 -0.14988925934E+02 -0.72391124175E+02  0.81485756612E+02  0.00000000000E+00 0.  1.
         14    1    6    6    0    0  0.37243742276E+02  0.23169235264E+02 -0.11305646668E+03  0.12126695535E+03  0.00000000000E+00 0. -1.
         -5    1    3    3    0  503 -0.72349095120E+02 -0.18486298153E+02 -0.30987634817E+03  0.31878139208E+03  0.47000000000E+01 0.  1.
         13    1    4    4    0    0 -0.28430411622E+02  0.15235349765E+02 -0.18108890631E+03  0.18393910997E+03  0.00000000000E+00 0. -1.
        -14    1    4    4    0    0  0.54323672180E+02  0.57137586923E+02 -0.36311173748E+03  0.37157219903E+03  0.00000000000E+00 0.  1.
<mgrwt>
<rscale>  2 0.18663308E+03</rscale>
<asrwt>0</asrwt>
<pdfrwt beam="1">  1       21 0.68687921E-02 0.18692303E+03</pdfrwt>
<pdfrwt beam="2">  1       21 0.17137929E+00 0.18692303E+03</pdfrwt>
<totfact> 0.32735484E+04</totfact>
</mgrwt>
</event>
<event>
11    1  0.1071811E-001  0.2001561E+03  0.7546771E-02  0.1149984E+00
         21   -1    0    0  501  502  0.00000000000E+00  0.00000000000E+00  0.62122862611E+02  0.62122862611E+02  0.00000000000E+00 0. -1.
         21   -1    0    0  502  503 -0.00000000000E+00 -0.00000000000E+00 -0.70539863229E+03  0.70539863229E+03  0.00000000000E+00 0.  1.
         -6    2    1    2    0  503  0.68218261715E+01  0.96244438188E+02 -0.43791948048E+03  0.48075738208E+03  0.17333395470E+03 0.  0.
        -24    2    3    3    0    0  0.53675682184E+02  0.85612571405E+01 -0.24634633926E+03  0.26487319438E+03  0.80727419475E+02 0.  0.
          6    2    1    2  501    0 -0.68218261715E+01 -0.96244438188E+02 -0.20535628921E+03  0.28676411282E+03  0.17536510968E+03 0.  0.
          5    1    5    5  501    0 -0.39604230333E+02 -0.11083806688E+03 -0.61046188595E+02  0.13267365704E+03  0.47000000000E+01 0. -1.
        -13    1    5    5    0    0  0.13212646844E+02 -0.13879781789E+02 -0.59617244390E+02  0.62621387782E+02  0.00000000000E+00 0.  1.
         14    1    5    5    0    0  0.19569757317E+02  0.28473410483E+02 -0.84692856224E+02  0.91469068003E+02  0.00000000000E+00 0. -1.
         -5    1    3    3    0  503 -0.46853856012E+02  0.87683181048E+02 -0.19157314122E+03  0.21588418770E+03  0.47000000000E+01 0.  1.
         11    1    4    4    0    0 -0.20604163542E+01 -0.25752962830E+02 -0.34211646714E+02  0.42870703061E+02  0.00000000000E+00 0. -1.
        -12    1    4    4    0    0  0.55736098538E+02  0.34314219970E+02 -0.21213469255E+03  0.22200249132E+03  0.00000000000E+00 0.  1.
<mgrwt>
<rscale>  2 0.19971029E+03</rscale>
<asrwt>0</asrwt>
<pdfrwt beam="1">  1       21 0.95573635E-02 0.20015607E+03</pdfrwt>
<pdfrwt beam="2">  1       21 0.10852287E+00 0.20015607E+03</pdfrwt>
<totfact> 0.59086065E+04</totfact>
</mgrwt>
</event>
<event>
12    1  0.1071811E-001  0.2520017E+03  0.7546771E-02  0.1112157E+00
         21   -1    0    0  501  502  0.00000000000E+00  0.00000000000E+00  0.40445946844E+03  0.40445946844E+03  0.00000000000E+00 0. -1.
         21   -1    0    0  502  503 -0.00000000000E+00 -0.00000000000E+00 -0.17420074246E+03  0.17420074246E+03  0.00000000000E+00 0.  1.
         -6    2    1    2    0  503  0.15280422567E+03  0.99996330559E+02  0.22939196102E+02  0.25233790489E+03  0.17262622633E+03 0.  0.
        -24    2    3    3    0    0  0.76695180420E+02  0.12727731174E+03  0.24285860563E+02  0.17133949620E+03  0.81766467167E+02 0.  0.
          6    2    1    2  501    0 -0.15280422567E+03 -0.99996330559E+02  0.20731952988E+03  0.32632230602E+03  0.17365616150E+03 0.  0.
         24    2    5    5    0    0 -0.16652274653E+03 -0.67628182798E+02  0.21436426847E+03  0.29016137205E+03  0.77059626322E+02 0.  0.
          5    1    5    5  501    0  0.13718520858E+02 -0.32368147761E+02 -0.70447385935E+01  0.36160933974E+02  0.47000000000E+01 0. -1.
        -13    1    6    6    0    0 -0.81882028728E+01  0.84347368198E+01 -0.15079559629E+01  0.11851809258E+02  0.00000000000E+00 0.  1.
         14    1    6    6    0    0 -0.15833454366E+03 -0.76062919618E+02  0.21587222444E+03  0.27830956279E+03  0.00000000000E+00 0. -1.
         -5    1    3    3    0  503  0.76109045254E+02 -0.27280981181E+02 -0.13466644608E+01  0.80998408681E+02  0.47000000000E+01 0.  1.
         11    1    4    4    0    0  0.66614300237E+02  0.10399340445E+03  0.51790616164E+02  0.13391923345E+03  0.00000000000E+00 0. -1.
        -12    1    4    4    0    0  0.10080880183E+02  0.23283907293E+02 -0.27504755602E+02  0.37420262757E+02  0.00000000000E+00 0.  1.
<mgrwt>
<rscale>  2 0.25182436E+03</rscale>
<asrwt>0</asrwt>
<pdfrwt beam="1">  1       21 0.62224533E-01 0.25200171E+03</pdfrwt>
<pdfrwt beam="2">  1       21 0.26800114E-01 0.25200171E+03</pdfrwt>
<totfact> 0.30837739E+04</totfact>
</mgrwt>
</event>
<event>
12    1  0.1071811E-001  0.1738616E+03  0.7546771E-02  0.1174153E+00
         21   -1    0    0  501  502  0.00000000000E+00  0.00000000000E+00  0.49862641682E+02  0.49862641682E+02  0.00000000000E+00 0.  1.
         21   -1    0    0  502  503 -0.00000000000E+00 -0.00000000000E+00 -0.11307828070E+04  0.11307828070E+04  0.00000000000E+00 0. -1.
         -6    2    1    2    0  503  0.12153169681E+02  0.90602997922E+01 -0.94484946414E+03  0.96071242919E+03  0.17319951833E+03 0.  0.
        -24    2    3    3    0    0  0.20432481689E+02  0.28834108747E+02 -0.93009306461E+03  0.93426641144E+03  0.80819097794E+02 0.  0.
          6    2    1    2  501    0 -0.12153169681E+02 -0.90602997922E+01 -0.13607070122E+03  0.21993301953E+03  0.17212062277E+03 0.  0.
         24    2    5    5    0    0  0.45995383242E+02 -0.39513711295E+02 -0.10899230877E+03  0.14877127547E+03  0.81096611374E+02 0.  0.
          5    1    5    5  501    0 -0.58148552923E+02  0.30453411503E+02 -0.27078392452E+02  0.71161744055E+02  0.47000000000E+01 0. -1.
        -11    1    6    6    0    0  0.10732750441E+02  0.13336838544E+02  0.53733839918E+01  0.17942587603E+02  0.00000000000E+00 0.  1.
         12    1    6    6    0    0  0.35262632801E+02 -0.52850549839E+02 -0.11436569276E+03  0.13082868787E+03  0.00000000000E+00 0. -1.
         -5    1    3    3    0  503 -0.82793120085E+01 -0.19773808955E+02 -0.14756399528E+02  0.26446017752E+02  0.47000000000E+01 0.  1.
         11    1    4    4    0    0 -0.30622954973E+01  0.42834251264E+02 -0.80831488936E+03  0.80945482338E+03  0.00000000000E+00 0. -1.
        -12    1    4    4    0    0  0.23494777187E+02 -0.14000142517E+02 -0.12177817525E+03  0.12481158805E+03  0.00000000000E+00 0.  1.
<mgrwt>
<rscale>  2 0.17359230E+03</rscale>
<asrwt>0</asrwt>
<pdfrwt beam="1">  1       21 0.76711763E-02 0.17386162E+03</pdfrwt>
<pdfrwt beam="2">  1       21 0.17396657E+00 0.17386162E+03</pdfrwt>
<totfact> 0.26182718E+04</totfact>
</mgrwt>
</event>
<event>
12    1  0.1071811E-001  0.2308898E+03  0.7546771E-02  0.1126024E+00
         21   -1    0    0  503  502  0.00000000000E+00  0.00000000000E+00  0.15189858937E+03  0.15189858937E+03  0.00000000000E+00 0. -1.
         21   -1    0    0  501  503 -0.00000000000E+00 -0.00000000000E+00 -0.37867589157E+03  0.37867589157E+03  0.00000000000E+00 0. -1.
          6    2    1    2  501    0 -0.10178570814E+03 -0.11420567768E+03 -0.18524732872E+03  0.29597939084E+03  0.17286977701E+03 0.  0.
         24    2    3    3    0    0 -0.74295803792E+02 -0.14387592793E+03 -0.11323842282E+03  0.21325459939E+03  0.80214927900E+02 0.  0.
         -6    2    1    2    0  502  0.10178570814E+03  0.11420567768E+03 -0.41529973478E+02  0.23459509010E+03  0.17293597199E+03 0.  0.
        -24    2    5    5    0    0  0.49580842114E+02 -0.84258477430E+01 -0.31926998398E+02  0.10088590495E+03  0.81420990997E+02 0.  0.
          5    1    3    3  501    0 -0.27489904344E+02  0.29670250248E+02 -0.72008905905E+02  0.82724791448E+02  0.47000000000E+01 0. -1.
        -13    1    4    4    0    0  0.10768589270E+02 -0.60869081727E+02 -0.36669103046E+02  0.71872322512E+02  0.00000000000E+00 0.  1.
         14    1    4    4    0    0 -0.85064393062E+02 -0.83006846204E+02 -0.76569319775E+02  0.14138227688E+03  0.00000000000E+00 0. -1.
         -5    1    5    5    0  502  0.52204866022E+02  0.12263152543E+03 -0.96029750806E+01  0.13370918516E+03  0.47000000000E+01 0.  1.
         13    1    6    6    0    0  0.22209215649E+02  0.60524978223E+01  0.26291657278E+02  0.34944716797E+02  0.00000000000E+00 0. -1.
        -14    1    6    6    0    0  0.27371626466E+02 -0.14478345565E+02 -0.58218655676E+02  0.65941188148E+02  0.00000000000E+00 0.  1.
<mgrwt>
<rscale>  2 0.23087744E+03</rscale>
<asrwt>0</asrwt>
<pdfrwt beam="1">  1       21 0.23369014E-01 0.23088984E+03</pdfrwt>
<pdfrwt beam="2">  1       21 0.58257829E-01 0.23088984E+03</pdfrwt>
<totfact> 0.46678140E+04</totfact>
</mgrwt>
</event>
<event>
12    1  0.1071811E-001  0.2706968E+03  0.7546771E-02  0.1101241E+00
         21   -1    0    0  501  502  0.00000000000E+00  0.00000000000E+00  0.70695243075E+03  0.70695243075E+03  0.00000000000E+00 0.  1.
         21   -1    0    0  502  503 -0.00000000000E+00 -0.00000000000E+00 -0.10777310686E+03  0.10777310686E+03  0.00000000000E+00 0.  1.
         -6    2    1    2    0  503 -0.18513571661E+03  0.95250959180E+02  0.21247138657E+03  0.34412333611E+03  0.17299942645E+03 0.  0.
        -24    2    3    3    0    0 -0.30260522650E+02 -0.32895077427E+01  0.57951830661E+02  0.10413389366E+03  0.80987239983E+02 0.  0.
          6    2    1    2  501    0  0.18513571661E+03 -0.95250959180E+02  0.38670793732E+03  0.47060220151E+03  0.16904267062E+03 0.  0.
         24    2    5    5    0    0  0.78645218185E+02  0.15583082207E+02  0.15093531684E+03  0.18911467150E+03  0.80962869953E+02 0.  0.
          5    1    5    5  501    0  0.10649049843E+03 -0.11083404139E+03  0.23577262048E+03  0.28148753002E+03  0.47000000000E+01 0. -1.
        -13    1    6    6    0    0  0.32768352319E+02 -0.22255784737E+02  0.11001195960E+03  0.11692611394E+03  0.00000000000E+00 0.  1.
         14    1    6    6    0    0  0.45876865866E+02  0.37838866944E+02  0.40923357244E+02  0.72188557552E+02  0.00000000000E+00 0. -1.
         -5    1    3    3    0  503 -0.15487519396E+03  0.98540466923E+02  0.15451955591E+03  0.23998944244E+03  0.47000000000E+01 0.  1.
         11    1    4    4    0    0 -0.17038636253E+02  0.10851564860E+02 -0.17198293020E+02  0.26530225556E+02  0.00000000000E+00 0. -1.
        -12    1    4    4    0    0 -0.13221886396E+02 -0.14141072602E+02  0.75150123681E+02  0.77603668106E+02  0.00000000000E+00 0.  1.
<mgrwt>
<rscale>  2 0.27006678E+03</rscale>
<asrwt>0</asrwt>
<pdfrwt beam="1">  1       21 0.10876191E+00 0.27069684E+03</pdfrwt>
<pdfrwt beam="2">  1       21 0.16580478E-01 0.27069684E+03</pdfrwt>
<totfact> 0.21017299E+04</totfact>
</mgrwt>
</event>
<event>
12    1  0.1071811E-001  0.1879332E+03  0.7546771E-02  0.1162205E+00
         21   -1    0    0  503  502  0.00000000000E+00  0.00000000000E+00  0.74673067027E+03  0.74673067027E+03  0.00000000000E+00 0.  1.
         21   -1    0    0  501  503 -0.00000000000E+00 -0.00000000000E+00 -0.89202120799E+02  0.89202120799E+02  0.00000000000E+00 0. -1.
          6    2    1    2  501    0 -0.60940825585E+02  0.64580336433E+01  0.31998955604E+02  0.18278184524E+03  0.16920336689E+03 0.  0.
         24    2    3    3    0    0 -0.58888778831E+02 -0.61838518513E+02  0.27145860134E+02  0.11412128547E+03  0.70674460945E+02 0.  0.
         -6    2    1    2    0  502  0.60940825585E+02 -0.64580336433E+01  0.62552959387E+03  0.65315094583E+03  0.17766089839E+03 0.  0.
        -24    2    5    5    0    0  0.60126322577E+01 -0.66488334611E+02  0.39373964602E+03  0.40744906676E+03  0.80789744212E+02 0.  0.
          5    1    3    3  501    0 -0.20520467546E+01  0.68296552157E+02  0.48530954696E+01  0.68660559770E+02  0.47000000000E+01 0. -1.
        -11    1    4    4    0    0 -0.42222089406E+01 -0.38027409098E+02  0.37532007735E+02  0.53596291809E+02  0.00000000000E+00 0.  1.
         12    1    4    4    0    0 -0.54666569890E+02 -0.23811109415E+02 -0.10386147601E+02  0.60524993656E+02  0.00000000000E+00 0. -1.
         -5    1    5    5    0  502  0.54928193328E+02  0.60030300967E+02  0.23178994784E+03  0.24570187907E+03  0.47000000000E+01 0.  1.
         13    1    6    6    0    0 -0.28860044592E+02 -0.88428684119E+00  0.80585330053E+02  0.85601866550E+02  0.00000000000E+00 0. -1.
        -14    1    6    6    0    0  0.34872676850E+02 -0.65604047770E+02  0.31315431597E+03  0.32184720021E+03  0.00000000000E+00 0.  1.
<mgrwt>
<rscale>  2 0.18590714E+03</rscale>
<asrwt>0</asrwt>
<pdfrwt beam="1">  1       21 0.11488164E+00 0.18793319E+03</pdfrwt>
<pdfrwt beam="2">  1       21 0.13723404E-01 0.18793319E+03</pdfrwt>
<totfact> 0.27169328E+04</totfact>
</mgrwt>
</event>
<event>
12    1  0.1071811E-001  0.2125871E+03  0.7546771E-02  0.1140127E+00
         21   -1    0    0  503  502  0.00000000000E+00  0.00000000000E+00  0.21149070198E+03  0.21149070198E+03  0.00000000000E+00 0.  1.
         21   -1    0    0  501  503 -0.00000000000E+00 -0.00000000000E+00 -0.23386039400E+03  0.23386039400E+03  0.00000000000E+00 0.  1.
          6    2    1    2  501    0  0.73169292592E+02  0.97719924119E+02 -0.81388655392E+02  0.22763430727E+03  0.17404118959E+03 0.  0.
         24    2    3    3    0    0  0.30724911600E+02  0.51586666777E+02 -0.11766950914E+03  0.15505198670E+03  0.81177588156E+02 0.  0.
         -6    2    1    2    0  502 -0.73169292592E+02 -0.97719924119E+02  0.59018963366E+02  0.21771678871E+03  0.17033623543E+03 0.  0.
        -24    2    5    5    0    0 -0.82304752684E+02 -0.12080086473E+03  0.78597687898E+02  0.18575426526E+03  0.83427389301E+02 0.  0.
          5    1    3    3  501    0  0.42444380993E+02  0.46133257342E+02  0.36280853744E+02  0.72582320569E+02  0.47000000000E+01 0. -1.
        -11    1    4    4    0    0 -0.18086687002E+02 -0.11323484528E+02 -0.24203481680E+02  0.32266981172E+02  0.00000000000E+00 0.  1.
         12    1    4    4    0    0  0.48811598602E+02  0.62910151305E+02 -0.93466027456E+02  0.12278500553E+03  0.00000000000E+00 0. -1.
         -5    1    5    5    0  502  0.91354600917E+01  0.23080940615E+02 -0.19578724532E+02  0.31962523446E+02  0.47000000000E+01 0.  1.
         11    1    6    6    0    0  0.12763030336E+02 -0.40655595328E+02  0.30637427120E+02  0.52482609647E+02  0.00000000000E+00 0. -1.
        -12    1    6    6    0    0 -0.95067783021E+02 -0.80145269405E+02  0.47960260778E+02  0.13327165562E+03  0.00000000000E+00 0.  1.
<mgrwt>
<rscale>  2 0.21182742E+03</rscale>
<asrwt>0</asrwt>
<pdfrwt beam="1">  1       21 0.32537031E-01 0.21258708E+03</pdfrwt>
<pdfrwt beam="2">  1       21 0.35978522E-01 0.21258708E+03</pdfrwt>
<totfact> 0.67118754E+04</totfact>
</mgrwt>
</event>
<event>
12    1  0.1071811E-001  0.2099061E+03  0.7546771E-02  0.1142036E+00
         21   -1    0    0  503  502  0.00000000000E+00  0.00000000000E+00  0.42467472694E+03  0.42467472694E+03  0.00000000000E+00 0. -1.
         21   -1    0    0  501  503 -0.00000000000E+00 -0.00000000000E+00 -0.10592092244E+03  0.10592092244E+03  0.00000000000E+00 0.  1.
          6    2    1    2  501    0 -0.47333828435E+02 -0.10842178716E+03  0.11289285925E+03  0.23659004923E+03  0.17098034530E+03 0.  0.
         24    2    3    3    0    0 -0.38885295991E+02 -0.16628568151E+02  0.11148736420E+03  0.14427841305E+03  0.81229628670E+02 0.  0.
         -6    2    1    2    0  502  0.47333828435E+02  0.10842178716E+03  0.20586094524E+03  0.29400560016E+03  0.17339200933E+03 0.  0.
        -24    2    5    5    0    0 -0.40715868993E+02  0.49873460184E+02  0.12619424283E+03  0.16153096378E+03  0.77602328048E+02 0.  0.
          5    1    3    3  501    0 -0.84485324439E+01 -0.91793219011E+02  0.14054950543E+01  0.92311636174E+02  0.47000000000E+01 0. -1.
        -13    1    4    4    0    0  0.23403659206E+02 -0.15497327564E+02  0.24339109687E+02  0.37152263541E+02  0.00000000000E+00 0.  1.
         14    1    4    4    0    0 -0.62288955197E+02 -0.11312405874E+01  0.87148254513E+02  0.10712614951E+03  0.00000000000E+00 0. -1.
         -5    1    5    5    0  502  0.88049697428E+02  0.58548326978E+02  0.79666702417E+02  0.13247463638E+03  0.47000000000E+01 0.  1.
         11    1    6    6    0    0  0.26349342643E+01  0.47073872410E+02  0.10062659660E+03  0.11112427406E+03  0.00000000000E+00 0. -1.
        -12    1    6    6    0    0 -0.43350803257E+02  0.27995877741E+01  0.25567646224E+02  0.50406689717E+02  0.00000000000E+00 0.  1.
<mgrwt>
<rscale>  2 0.20940738E+03</rscale>
<asrwt>0</asrwt>
<pdfrwt beam="1">  1       21 0.65334573E-01 0.20990608E+03</pdfrwt>
<pdfrwt beam="2">  1       21 0.16295527E-01 0.20990608E+03</pdfrwt>
<totfact> 0.72115867E+04</totfact>
</mgrwt>
</event>
<event>
12    1  0.1071811E-001  0.2087173E+03  0.7546771E-02  0.1143007E+00
         21   -1    0    0  501  502  0.00000000000E+00  0.00000000000E+00  0.39285993431E+03  0.39285993431E+03  0.00000000000E+00 0.  1.
         21   -1    0    0  502  503 -0.00000000000E+00 -0.00000000000E+00 -0.15866681334E+03  0.15866681334E+03  0.00000000000E+00 0.  1.
         -6    2    1    2    0  503 -0.23140554242E+02  0.11334387231E+03 -0.35572167891E+02  0.21172692718E+03  0.17372562829E+03 0.  0.
        -24    2    3    3    0    0  0.80328344665E+01 -0.28183226175E+01 -0.38963372170E+02  0.91315025942E+02  0.82145116836E+02 0.  0.
          6    2    1    2  501    0  0.23140554242E+02 -0.11334387231E+03  0.26976528886E+03  0.33979982047E+03  0.17119663630E+03 0.  0.
         24    2    5    5    0    0  0.66332318037E+02 -0.49104473582E+02  0.88915963396E+02  0.14302381246E+03  0.75753129589E+02 0.  0.
          5    1    5    5  501    0 -0.43191763796E+02 -0.64239398728E+02  0.18084932546E+03  0.19677600801E+03  0.47000000000E+01 0. -1.
        -11    1    6    6    0    0  0.29555200155E+02  0.10500091357E+02  0.20387017139E+01  0.31431164144E+02  0.00000000000E+00 0.  1.
         12    1    6    6    0    0  0.36777117882E+02 -0.59604564939E+02  0.86877261682E+02  0.11159264832E+03  0.00000000000E+00 0. -1.
         -5    1    3    3    0  503 -0.31173388708E+02  0.11616219493E+03  0.33912042791E+01  0.12041190124E+03  0.47000000000E+01 0.  1.
         13    1    4    4    0    0  0.41507144767E+02 -0.17945886860E+02 -0.15866341638E+02  0.47923258642E+02  0.00000000000E+00 0. -1.
        -14    1    4    4    0    0 -0.33474310300E+02  0.15127564243E+02 -0.23097030532E+02  0.43391767300E+02  0.00000000000E+00 0.  1.
<mgrwt>
<rscale>  2 0.20819025E+03</rscale>
<asrwt>0</asrwt>
<pdfrwt beam="1">  1       21 0.60439990E-01 0.20871730E+03</pdfrwt>
<pdfrwt beam="2">  1       21 0.24410279E-01 0.20871730E+03</pdfrwt>
<totfact> 0.40103853E+04</totfact>
</mgrwt>
</event>
<event>
12    1  0.1071811E-001  0.2190570E+03  0.7546771E-02  0.1138135E+00
         21   -1    0    0  501  502  0.00000000000E+00  0.00000000000E+00  0.52173688888E+02  0.52173688888E+02  0.00000000000E+00 0. -1.
         21   -1    0    0  502  503 -0.00000000000E+00 -0.00000000000E+00 -0.94609090250E+03  0.94609090250E+03  0.00000000000E+00 0. -1.
         -6    2    1    2    0  503 -0.10079183172E+03 -0.12234919427E+02 -0.59246367639E+03  0.62562508550E+03  0.17344985782E+03 0.  0.
        -24    2    3    3    0    0 -0.70690973244E+02 -0.35364582319E+02 -0.57036666275E+03  0.58145030766E+03  0.80736998417E+02 0.  0.
          6    2    1    2  501    0  0.10079183172E+03  0.12234919427E+02 -0.30145353723E+03  0.37263950588E+03  0.19410636168E+03 0.  0.
         24    2    5    5    0    0  0.84095139930E+01  0.51742454487E+02 -0.62415771201E+02  0.11330095969E+03  0.78698014276E+02 0.  0.
          5    1    5    5  501    0  0.92382317723E+02 -0.39507535059E+02 -0.23903776602E+03  0.25933854619E+03  0.47000000000E+01 0. -1.
        -11    1    6    6    0    0  0.17891821581E+02  0.30415754294E+02 -0.77744088288E+02  0.85377858093E+02  0.00000000000E+00 0.  1.
         12    1    6    6    0    0 -0.94823075881E+01  0.21326700192E+02  0.15328317087E+02  0.27923101601E+02  0.00000000000E+00 0. -1.
         -5    1    3    3    0  503 -0.30100858472E+02  0.23129662892E+02 -0.22097013634E+02  0.44174777847E+02  0.47000000000E+01 0.  1.
         11    1    4    4    0    0 -0.69710688825E+02  0.44729710130E+00 -0.46411926201E+03  0.46932554754E+03  0.00000000000E+00 0. -1.
        -12    1    4    4    0    0 -0.98028441927E+00 -0.35811879421E+02 -0.10624740075E+03  0.11212476011E+03  0.00000000000E+00 0.  1.
<mgrwt>
<rscale>  2 0.21439114E+03</rscale>
<asrwt>0</asrwt>
<pdfrwt beam="1">  1       21 0.80267220E-02 0.21905699E+03</pdfrwt>
<pdfrwt beam="2">  1       21 0.14555243E+00 0.21905699E+03</pdfrwt>
<totfact> 0.38005421E+04</totfact>
</mgrwt>
</event>
<event>
12    1  0.1071811E-001  0.2807517E+03  0.7546771E-02  0.1095515E+00
         21   -1    0    0  501  502  0.00000000000E+00  0.00000000000E+00  0.11195361856E+03  0.11195361856E+03  0.00000000000E+00 0. -1.
         21   -1    0    0  502  503 -0.00000000000E+00 -0.00000000000E+00 -0.92499251785E+03  0.92499251785E+03  0.00000000000E+00 0. -1.
         -6    2    1    2    0  503 -0.11474704629E+03 -0.18872765864E+03 -0.66142994172E+03  0.71787441051E+03  0.17049659144E+03 0.  0.
        -24    2    3    3    0    0 -0.26087609246E+02 -0.15593203001E+03 -0.34787706161E+03  0.39034800294E+03  0.79735513179E+02 0.  0.
          6    2    1    2  501    0  0.11474704629E+03  0.18872765864E+03 -0.15160895757E+03  0.31907172590E+03  0.17331034731E+03 0.  0.
         24    2    5    5    0    0 -0.73189468152E+01  0.10277634695E+03 -0.83490046753E+02  0.15490714182E+03  0.80056793626E+02 0.  0.
          5    1    5    5  501    0  0.12206599311E+03  0.85951311689E+02 -0.68118910819E+02  0.16416458408E+03  0.47000000000E+01 0. -1.
        -13    1    6    6    0    0 -0.38270303679E+01 -0.11322957722E+01  0.12672681531E+02  0.13286275337E+02  0.00000000000E+00 0.  1.
         14    1    6    6    0    0 -0.34919164474E+01  0.10390864272E+03 -0.96162728283E+02  0.14162086648E+03  0.00000000000E+00 0. -1.
         -5    1    3    3    0  503 -0.88659437046E+02 -0.32795628631E+02 -0.31355288011E+03  0.32752640757E+03  0.47000000000E+01 0.  1.
         13    1    4    4    0    0 -0.45386177723E+02 -0.10951469144E+03 -0.29221716741E+03  0.31534781702E+03  0.00000000000E+00 0. -1.
        -14    1    4    4    0    0  0.19298568476E+02 -0.46417338570E+02 -0.55659894202E+02  0.75000185918E+02  0.00000000000E+00 0.  1.
<mgrwt>
<rscale>  2 0.28031861E+03</rscale>
<asrwt>0</asrwt>
<pdfrwt beam="1">  1       21 0.17223634E-01 0.28075165E+03</pdfrwt>
<pdfrwt beam="2">  1       21 0.14230654E+00 0.28075165E+03</pdfrwt>
<totfact> 0.98782228E+03</totfact>
</mgrwt>
</event>
<event>
12    1  0.1071811E-001  0.4835023E+03  0.7546771E-02  0.1018177E+00
         21   -1    0    0  503  502  0.00000000000E+00  0.00000000000E+00  0.29365132107E+03  0.29365132107E+03  0.00000000000E+00 0. -1.
         21   -1    0    0  501  503 -0.00000000000E+00 -0.00000000000E+00 -0.11086353259E+04  0.11086353259E+04  0.00000000000E+00 0.  1.
          6    2    1    2  501    0 -0.45148011895E+03  0.67537823458E+01 -0.77977075848E+03  0.91750581215E+03  0.17290045736E+03 0.  0.
         24    2    3    3    0    0 -0.44550235116E+03 -0.22513996570E+02 -0.73324250352E+03  0.86201432541E+03  0.80280155182E+02 0.  0.
         -6    2    1    2    0  502  0.45148011895E+03 -0.67537823458E+01 -0.35213246397E+02  0.48478083487E+03  0.17289468978E+03 0.  0.
        -24    2    5    5    0    0  0.24001320477E+03 -0.18488948828E+02  0.45899127853E+02  0.25793886966E+03  0.80483233349E+02 0.  0.
          5    1    3    3  501    0 -0.59777677950E+01  0.29267778916E+02 -0.46528254964E+02  0.55491486739E+02  0.47000000000E+01 0. -1.
        -13    1    4    4    0    0 -0.35630613004E+03  0.10839139132E+02 -0.60621546313E+03  0.70325580906E+03  0.00000000000E+00 0.  1.
         14    1    4    4    0    0 -0.89196221119E+02 -0.33353135702E+02 -0.12702704038E+03  0.15875851634E+03  0.00000000000E+00 0. -1.
         -5    1    5    5    0  502  0.21146691419E+03  0.11735166483E+02 -0.81112374250E+02  0.22684196522E+03  0.47000000000E+01 0.  1.
         11    1    6    6    0    0  0.45088498895E+02  0.28456467838E+02  0.10405709529E+02  0.54323310698E+02  0.00000000000E+00 0. -1.
        -12    1    6    6    0    0  0.19492470587E+03 -0.46945416666E+02  0.35493418325E+02  0.20361555896E+03  0.00000000000E+00 0.  1.
<mgrwt>
<rscale>  2 0.48350179E+03</rscale>
<asrwt>0</asrwt>
<pdfrwt beam="1">  1       21 0.45177126E-01 0.48350231E+03</pdfrwt>
<pdfrwt beam="2">  1       21 0.17055928E+00 0.48350231E+03</pdfrwt>
<totfact> 0.82081124E+02</totfact>
</mgrwt>
</event>
<event>
12    1  0.1071811E-001  0.2375348E+03  0.7546771E-02  0.1122465E+00
         21   -1    0    0  501  502  0.00000000000E+00  0.00000000000E+00  0.16086273399E+04  0.16086273399E+04  0.00000000000E+00 0.  1.
         21   -1    0    0  502  503 -0.00000000000E+00 -0.00000000000E+00 -0.62860029547E+03  0.62860029547E+03  0.00000000000E+00 0. -1.
         -6    2    1    2    0  503  0.13473988674E+03  0.87990719622E+02 -0.59740029456E+03  0.64289181867E+03  0.17471569691E+03 0.  0.
        -24    2    3    3    0    0  0.12818330005E+03  0.61481256874E+02 -0.27849919238E+03  0.32278911106E+03  0.80125568343E+02 0.  0.
          6    2    1    2  501    0 -0.13473988674E+03 -0.87990719622E+02  0.15774273390E+04  0.15943358167E+04  0.16653072624E+03 0.  0.
         24    2    5    5    0    0 -0.10749404914E+03 -0.93133279100E+02  0.15340748860E+04  0.15426608057E+04  0.78662743494E+02 0.  0.
          5    1    5    5  501    0 -0.27245837596E+02  0.51425594773E+01  0.43352452996E+02  0.51675011031E+02  0.47000000000E+01 0. -1.
        -13    1    6    6    0    0 -0.97475982912E+01 -0.33396601939E+02  0.68631611718E+03  0.68719732348E+03  0.00000000000E+00 0.  1.
         14    1    6    6    0    0 -0.97746450849E+02 -0.59736677161E+02  0.84775876885E+03  0.85546348222E+03  0.00000000000E+00 0. -1.
         -5    1    3    3    0  503  0.65565866810E+01  0.26509462748E+02 -0.31890110219E+03  0.32010270761E+03  0.47000000000E+01 0.  1.
         13    1    4    4    0    0  0.10882846244E+03  0.61198637344E+02 -0.27643356315E+03  0.30332230759E+03  0.00000000000E+00 0. -1.
        -14    1    4    4    0    0  0.19354837617E+02  0.28261953056E+00 -0.20656292299E+01  0.19466803464E+02  0.00000000000E+00 0.  1.
<mgrwt>
<rscale>  2 0.23603211E+03</rscale>
<asrwt>0</asrwt>
<pdfrwt beam="1">  1       21 0.24748113E+00 0.23753479E+03</pdfrwt>
<pdfrwt beam="2">  1       21 0.96707738E-01 0.23753479E+03</pdfrwt>
<totfact> 0.57250099E+01</totfact>
</mgrwt>
</event>
<event>
12    1  0.1071811E-001  0.2879304E+03  0.7546771E-02  0.1091666E+00
         21   -1    0    0  503  502  0.00000000000E+00  0.00000000000E+00  0.90178895359E+02  0.90178895359E+02  0.00000000000E+00 0. -1.
         21   -1    0    0  501  503 -0.00000000000E+00 -0.00000000000E+00 -0.96509263337E+03  0.96509263337E+03  0.00000000000E+00 0. -1.
          6    2    1    2  501    0 -0.21678180305E+03 -0.72302789976E+02 -0.55789978328E+03  0.62701719647E+03  0.17226825860E+03 0.  0.
         24    2    3    3    0    0 -0.87477980489E+02 -0.74143274477E+02 -0.18533646058E+03  0.23262096762E+03  0.81322129441E+02 0.  0.
         -6    2    1    2    0  502  0.21678180305E+03  0.72302789976E+02 -0.31701395474E+03  0.42825433226E+03  0.17516244468E+03 0.  0.
        -24    2    5    5    0    0  0.13592153186E+03  0.40204476435E+02 -0.92590005470E+02  0.18751197164E+03  0.80602528793E+02 0.  0.
          5    1    3    3  501    0 -0.12930382256E+03  0.18404845005E+01 -0.37256332270E+03  0.39439622885E+03  0.47000000000E+01 0. -1.
        -13    1    4    4    0    0  0.15328445416E+02 -0.11044894211E+02 -0.35961487012E+02  0.40622401149E+02  0.00000000000E+00 0.  1.
         14    1    4    4    0    0 -0.10280642590E+03 -0.63098380265E+02 -0.14937497356E+03  0.19199856647E+03  0.00000000000E+00 0. -1.
         -5    1    5    5    0  502  0.80860271192E+02  0.32098313541E+02 -0.22442394927E+03  0.24074236062E+03  0.47000000000E+01 0.  1.
         11    1    6    6    0    0  0.14202356239E+03  0.23686379749E+02 -0.89773053283E+02  0.16967892608E+03  0.00000000000E+00 0. -1.
        -12    1    6    6    0    0 -0.61020305241E+01  0.16518096686E+02 -0.28169521877E+01  0.17833045569E+02  0.00000000000E+00 0.  1.
<mgrwt>
<rscale>  2 0.28749155E+03</rscale>
<asrwt>0</asrwt>
<pdfrwt beam="1">  1       21 0.13873676E-01 0.28793042E+03</pdfrwt>
<pdfrwt beam="2">  1       21 0.14847579E+00 0.28793042E+03</pdfrwt>
<totfact> 0.13100950E+04</totfact>
</mgrwt>
</event>
<event>
12    1  0.1071811E-001  0.1912479E+03  0.7546771E-02  0.1157580E+00
         21   -1    0    0  503  502  0.00000000000E+00  0.00000000000E+00  0.36132269039E+02  0.36132269039E+02  0.00000000000E+00 0. -1.
         21   -1    0    0  501  503 -0.00000000000E+00 -0.00000000000E+00 -0.10141770571E+04  0.10141770571E+04  0.00000000000E+00 0. -1.
          6    2    1    2  501    0 -0.19073373675E+02 -0.77865905703E+02 -0.53570176928E+03  0.56881642880E+03  0.17363424552E+03 0.  0.
         24    2    3    3    0    0 -0.24037246473E+02  0.26850016090E+02 -0.24367044249E+03  0.25850295805E+03  0.78420547007E+02 0.  0.
         -6    2    1    2    0  502  0.19073373675E+02  0.77865905703E+02 -0.44234301874E+03  0.48149289729E+03  0.17245628738E+03 0.  0.
        -24    2    5    5    0    0  0.60145103576E+02  0.30266755064E+02 -0.14980082508E+03  0.18223449521E+03  0.78965904711E+02 0.  0.
          5    1    3    3  501    0  0.49638727973E+01 -0.10471592179E+03 -0.29203132678E+03  0.31031347076E+03  0.47000000000E+01 0. -1.
        -13    1    4    4    0    0 -0.34537635951E+02  0.87752728002E+01 -0.23168041333E+03  0.23440492237E+03  0.00000000000E+00 0.  1.
         14    1    4    4    0    0  0.10500389479E+02  0.18074743290E+02 -0.11990029160E+02  0.24098035676E+02  0.00000000000E+00 0. -1.
         -5    1    5    5    0  502 -0.41071729900E+02  0.47599150639E+02 -0.29254219366E+03  0.29925840207E+03  0.47000000000E+01 0.  1.
         13    1    6    6    0    0  0.67680327277E+01 -0.15764182284E+02 -0.53488824981E+00  0.17163968525E+02  0.00000000000E+00 0. -1.
        -14    1    6    6    0    0  0.53377070848E+02  0.46030937348E+02 -0.14926593683E+03  0.16507052669E+03  0.00000000000E+00 0.  1.
<mgrwt>
<rscale>  2 0.19098009E+03</rscale>
<asrwt>0</asrwt>
<pdfrwt beam="1">  1       21 0.55588101E-02 0.19124786E+03</pdfrwt>
<pdfrwt beam="2">  1       21 0.15602725E+00 0.19124786E+03</pdfrwt>
<totfact> 0.60543356E+04</totfact>
</mgrwt>
</event>
<event>
12    1  0.1071811E-001  0.1959229E+03  0.7546771E-02  0.1154031E+00
         21   -1    0    0  501  502  0.00000000000E+00  0.00000000000E+00  0.18841806637E+03  0.18841806637E+03  0.00000000000E+00 0.  1.
         21   -1    0    0  502  503 -0.00000000000E+00 -0.00000000000E+00 -0.24079354172E+03  0.24079354172E+03  0.00000000000E+00 0.  1.
         -6    2    1    2    0  503  0.17930565869E+02 -0.89129559868E+02 -0.11481262669E+03  0.22708531221E+03  0.17355176790E+03 0.  0.
        -24    2    3    3    0    0  0.64259586898E+02 -0.13746408058E+02 -0.54499614058E+02  0.11989973828E+03  0.84187178745E+02 0.  0.
          6    2    1    2  501    0 -0.17930565869E+02  0.89129559868E+02  0.62437151340E+02  0.20212629588E+03  0.16938434989E+03 0.  0.
         24    2    5    5    0    0 -0.71337797642E+02  0.20517214462E+02  0.19273333331E+02  0.10493992064E+03  0.71630217820E+02 0.  0.
          5    1    5    5  501    0  0.53407231773E+02  0.68612345406E+02  0.43163818009E+02  0.97186375243E+02  0.47000000000E+01 0. -1.
        -13    1    6    6    0    0 -0.28153052241E+02  0.38347642195E+02  0.30985196969E+02  0.56773395562E+02  0.00000000000E+00 0.  1.
         14    1    6    6    0    0 -0.43184745401E+02 -0.17830427733E+02 -0.11711863638E+02  0.48166525080E+02  0.00000000000E+00 0. -1.
         -5    1    3    3    0  503 -0.46329021028E+02 -0.75383151810E+02 -0.60313012632E+02  0.10718557393E+03  0.47000000000E+01 0.  1.
         13    1    4    4    0    0  0.49958229801E+01  0.76263252028E+01  0.20211064106E+02  0.22172194200E+02  0.00000000000E+00 0. -1.
        -14    1    4    4    0    0  0.59263763918E+02 -0.21372733261E+02 -0.74710678164E+02  0.97727544083E+02  0.00000000000E+00 0.  1.
<mgrwt>
<rscale>  2 0.19499592E+03</rscale>
<asrwt>0</asrwt>
<pdfrwt beam="1">  1       21 0.28987395E-01 0.19592294E+03</pdfrwt>
<pdfrwt beam="2">  1       21 0.37045160E-01 0.19592294E+03</pdfrwt>
<totfact> 0.79951883E+04</totfact>
</mgrwt>
</event>
<event>
12    1  0.1071811E-001  0.3006721E+03  0.7546771E-02  0.1085021E+00
         21   -1    0    0  503  502  0.00000000000E+00  0.00000000000E+00  0.27186491190E+03  0.27186491190E+03  0.00000000000E+00 0.  1.
         21   -1    0    0  501  503 -0.00000000000E+00 -0.00000000000E+00 -0.38118274146E+03  0.38118274146E+03  0.00000000000E+00 0. -1.
          6    2    1    2  501    0 -0.10302771369E+03  0.22203241894E+03 -0.17261228544E+03  0.34669688116E+03  0.17461563925E+03 0.  0.
         24    2    3    3    0    0 -0.20084854614E+01  0.14912366215E+03 -0.62889200511E+02  0.18061913835E+03  0.80164337276E+02 0.  0.
         -6    2    1    2    0  502  0.10302771369E+03 -0.22203241894E+03  0.63294455876E+02  0.30635077221E+03  0.17300723290E+03 0.  0.
        -24    2    5    5    0    0  0.13292389748E+03 -0.17738594895E+03  0.18548037117E+02  0.23626924054E+03  0.79652915446E+02 0.  0.
          5    1    3    3  501    0 -0.10101922823E+03  0.72908756789E+02 -0.10972308493E+03  0.16607774280E+03  0.47000000000E+01 0. -1.
        -13    1    4    4    0    0  0.19501534007E+02  0.76843325559E+02  0.46056997776E+01  0.79412964824E+02  0.00000000000E+00 0.  1.
         14    1    4    4    0    0 -0.21510019468E+02  0.72280336595E+02 -0.67494900289E+02  0.10120617353E+03  0.00000000000E+00 0. -1.
         -5    1    5    5    0  502 -0.29896183795E+02 -0.44646469996E+02  0.44746418758E+02  0.70081531663E+02  0.47000000000E+01 0.  1.
         13    1    6    6    0    0  0.13890722595E+02  0.71715901617E+01 -0.16934328758E+01  0.15724235897E+02  0.00000000000E+00 0. -1.
        -14    1    6    6    0    0  0.11903317489E+03 -0.18455753911E+03  0.20241469993E+02  0.22054500465E+03  0.00000000000E+00 0.  1.
<mgrwt>
<rscale>  2 0.30043905E+03</rscale>
<asrwt>0</asrwt>
<pdfrwt beam="1">  1       21 0.41825371E-01 0.30067212E+03</pdfrwt>
<pdfrwt beam="2">  1       21 0.58643499E-01 0.30067212E+03</pdfrwt>
<totfact> 0.14146311E+04</totfact>
</mgrwt>
</event>
<event>
12    1  0.1071811E-001  0.1777327E+03  0.7546771E-02  0.1170796E+00
         21   -1    0    0  503  502  0.00000000000E+00  0.00000000000E+00  0.11477248283E+03  0.11477248283E+03  0.00000000000E+00 0. -1.
         21   -1    0    0  501  503 -0.00000000000E+00 -0.00000000000E+00 -0.27371038466E+03  0.27371038466E+03  0.00000000000E+00 0. -1.
          6    2    1    2  501    0 -0.34792972390E+02  0.35370748210E+01 -0.10157555535E+03  0.20471082971E+03  0.17425805155E+03 0.  0.
         24    2    3    3    0    0 -0.43645028525E+02 -0.57283876458E+02 -0.92782618332E+02  0.14244564880E+03  0.80596635042E+02 0.  0.
         -6    2    1    2    0  502  0.34792972390E+02 -0.35370748210E+01 -0.57362346476E+02  0.18377203778E+03  0.17105163329E+03 0.  0.
        -24    2    5    5    0    0 -0.36774998973E+02 -0.35975406227E+02 -0.32505552758E+02  0.10122405135E+03  0.80889228015E+02 0.  0.
          5    1    3    3  501    0  0.88520561344E+01  0.60820951279E+02 -0.87929370208E+01  0.62265180910E+02  0.47000000000E+01 0. -1.
        -13    1    4    4    0    0 -0.47466856457E+02 -0.34688734943E+01 -0.68184579671E+02  0.83152104304E+02  0.00000000000E+00 0.  1.
         14    1    4    4    0    0  0.38218279326E+01 -0.53815002964E+02 -0.24598038661E+02  0.59293544495E+02  0.00000000000E+00 0. -1.
         -5    1    5    5    0  502  0.71567971363E+02  0.32438331406E+02 -0.24856793718E+02  0.82547986428E+02  0.47000000000E+01 0.  1.
         13    1    6    6    0    0 -0.32694569011E+02  0.20484064426E+02 -0.19105505884E+02  0.43052898779E+02  0.00000000000E+00 0. -1.
        -14    1    6    6    0    0 -0.40804299617E+01 -0.56459470653E+02 -0.13400046874E+02  0.58171152570E+02  0.00000000000E+00 0.  1.
<mgrwt>
<rscale>  2 0.17694184E+03</rscale>
<asrwt>0</asrwt>
<pdfrwt beam="1">  1       21 0.17657305E-01 0.17773275E+03</pdfrwt>
<pdfrwt beam="2">  1       21 0.42109289E-01 0.17773275E+03</pdfrwt>
<totfact> 0.15863558E+05</totfact>
</mgrwt>
</event>
<event>
12    1  0.1071811E-001  0.1734396E+03  0.7546771E-02  0.1174575E+00
         21   -1    0    0  503  502  0.00000000000E+00  0.00000000000E+00  0.13048219395E+03  0.13048219395E+03  0.00000000000E+00 0.  1.
         21   -1    0    0  501  503 -0.00000000000E+00 -0.00000000000E+00 -0.74981103878E+03  0.74981103878E+03  0.00000000000E+00 0.  1.
          6    2    1    2  501    0  0.15009294847E+01 -0.46049259675E+01 -0.67672711572E+03  0.69859922024E+03  0.17337192174E+03 0.  0.
         24    2    3    3    0    0  0.55840141975E+02  0.29892821577E+02 -0.31631498479E+03  0.33245466038E+03  0.80369331019E+02 0.  0.
         -6    2    1    2    0  502 -0.15009294847E+01  0.46049259675E+01  0.57398270892E+02  0.18169401248E+03  0.17232148600E+03 0.  0.
        -24    2    5    5    0    0 -0.45738251349E+00  0.69222058442E+02  0.28304964660E+02  0.11066603724E+03  0.81571430052E+02 0.  0.
          5    1    3    3  501    0 -0.54339212490E+02 -0.34497747544E+02 -0.36041213092E+03  0.36614455986E+03  0.47000000000E+01 0. -1.
        -11    1    4    4    0    0 -0.16880919850E+02  0.23123901444E+02 -0.72959877381E+02  0.78376169723E+02  0.00000000000E+00 0.  1.
         12    1    4    4    0    0  0.72721061826E+02  0.67689201328E+01 -0.24335510741E+03  0.25407849066E+03  0.00000000000E+00 0. -1.
         -5    1    5    5    0  502 -0.10435469712E+01 -0.64617132474E+02  0.29093306232E+02  0.71027975242E+02  0.47000000000E+01 0.  1.
         13    1    6    6    0    0  0.11307339339E+02  0.43126955938E+02  0.55494920746E+02  0.71186209901E+02  0.00000000000E+00 0. -1.
        -14    1    6    6    0    0 -0.11764721852E+02  0.26095102504E+02 -0.27189956086E+02  0.39479827341E+02  0.00000000000E+00 0.  1.
<mgrwt>
<rscale>  2 0.17317646E+03</rscale>
<asrwt>0</asrwt>
<pdfrwt beam="1">  1       21 0.20074183E-01 0.17343956E+03</pdfrwt>
<pdfrwt beam="2">  1       21 0.11535555E+00 0.17343956E+03</pdfrwt>
<totfact> 0.13518007E+04</totfact>
</mgrwt>
</event>
<event>
12    1  0.1071811E-001  0.1902131E+03  0.7546771E-02  0.1159194E+00
         21   -1    0    0  501  502  0.00000000000E+00  0.00000000000E+00  0.55410230634E+03  0.55410230634E+03  0.00000000000E+00 0.  1.
         21   -1    0    0  502  503 -0.00000000000E+00 -0.00000000000E+00 -0.10109676566E+03  0.10109676566E+03  0.00000000000E+00 0.  1.
         -6    2    1    2    0  503 -0.30399303536E+02 -0.68261167978E+02  0.26277970570E+02  0.18799736917E+03  0.17049567258E+03 0.  0.
        -24    2    3    3    0    0  0.16406580048E+02  0.46039347223E+01  0.54536329116E+02  0.96779285675E+02  0.78113038978E+02 0.  0.
          6    2    1    2  501    0  0.30399303536E+02  0.68261167978E+02  0.42672757010E+03  0.46720170283E+03  0.17492086019E+03 0.  0.
         24    2    5    5    0    0 -0.47860975818E+01  0.28561243232E+02  0.39603324890E+03  0.40573359865E+03  0.83299264695E+02 0.  0.
          5    1    5    5  501    0  0.35185401118E+02  0.39699924746E+02  0.30694321207E+02  0.61468104176E+02  0.47000000000E+01 0. -1.
        -13    1    6    6    0    0 -0.11189950153E+02  0.48476937560E+02  0.36457760367E+03  0.36795659738E+03  0.00000000000E+00 0.  1.
         14    1    6    6    0    0  0.64038525715E+01 -0.19915694328E+02  0.31455645227E+02  0.37777001270E+02  0.00000000000E+00 0. -1.
         -5    1    3    3    0  503 -0.46805883583E+02 -0.72865102700E+02 -0.28258358547E+02  0.91218083499E+02  0.47000000000E+01 0.  1.
         13    1    4    4    0    0  0.16855937777E+02 -0.25226117141E+02  0.59259263391E+02  0.66574318787E+02  0.00000000000E+00 0. -1.
        -14    1    4    4    0    0 -0.44935772964E+00  0.29830051863E+02 -0.47229342744E+01  0.30204966888E+02  0.00000000000E+00 0.  1.
<mgrwt>
<rscale>  2 0.18918951E+03</rscale>
<asrwt>0</asrwt>
<pdfrwt beam="1">  1       21 0.85246507E-01 0.19021307E+03</pdfrwt>
<pdfrwt beam="2">  1       21 0.15553349E-01 0.19021307E+03</pdfrwt>
<totfact> 0.43764676E+04</totfact>
</mgrwt>
</event>
<event>
12    1  0.1071811E-001  0.1845231E+03  0.7546771E-02  0.1164263E+00
         21   -1    0    0  501  502  0.00000000000E+00  0.00000000000E+00  0.79285665202E+02  0.79285665202E+02  0.00000000000E+00 0.  1.
         21   -1    0    0  502  503 -0.00000000000E+00 -0.00000000000E+00 -0.49114368502E+03  0.49114368502E+03  0.00000000000E+00 0.  1.
         -6    2    1    2    0  503  0.47253278227E+01  0.66165567195E+02 -0.31456246334E+03  0.36468933806E+03  0.17218756908E+03 0.  0.
        -24    2    3    3    0    0 -0.45375215863E+02  0.56846078212E+02 -0.28494212427E+03  0.30555921173E+03  0.82970060095E+02 0.  0.
          6    2    1    2  501    0 -0.47253278227E+01 -0.66165567195E+02 -0.97295556476E+02  0.20574001216E+03  0.16870778372E+03 0.  0.
         24    2    5    5    0    0 -0.60177772412E+02 -0.78674977661E+02 -0.67255732232E+02  0.14127343166E+03  0.74991550005E+02 0.  0.
          5    1    5    5  501    0  0.55452444589E+02  0.12509410466E+02 -0.30039824244E+02  0.64466580503E+02  0.47000000000E+01 0. -1.
        -13    1    6    6    0    0 -0.10339276374E+02 -0.24491876978E+02  0.15290150583E+02  0.30668247076E+02  0.00000000000E+00 0.  1.
         14    1    6    6    0    0 -0.49838496038E+02 -0.54183100682E+02 -0.82545882815E+02  0.11060518458E+03  0.00000000000E+00 0. -1.
         -5    1    3    3    0  503  0.50100543686E+02  0.93194889835E+01 -0.29620339079E+02  0.59130126329E+02  0.47000000000E+01 0.  1.
         13    1    4    4    0    0 -0.47149078734E+02 -0.46561806390E+01 -0.14876547339E+03  0.15612777368E+03  0.00000000000E+00 0. -1.
        -14    1    4    4    0    0  0.17738628706E+01  0.61502258851E+02 -0.13617665088E+03  0.14943143805E+03  0.00000000000E+00 0.  1.
<mgrwt>
<rscale>  2 0.18370698E+03</rscale>
<asrwt>0</asrwt>
<pdfrwt beam="1">  1       21 0.12197795E-01 0.18452309E+03</pdfrwt>
<pdfrwt beam="2">  1       21 0.75560565E-01 0.18452309E+03</pdfrwt>
<totfact> 0.89406824E+04</totfact>
</mgrwt>
</event>
<event>
12    1  0.1071811E-001  0.1729303E+03  0.7546771E-02  0.1175254E+00
         21   -1    0    0  501  502  0.00000000000E+00  0.00000000000E+00  0.58795576984E+03  0.58795576984E+03  0.00000000000E+00 0.  1.
         21   -1    0    0  502  503 -0.00000000000E+00 -0.00000000000E+00 -0.11608393713E+03  0.11608393713E+03  0.00000000000E+00 0.  1.
         -6    2    1    2    0  503 -0.79279977487E+01 -0.12581902400E+02 -0.28416702578E+02  0.17524954793E+03  0.17228969107E+03 0.  0.
        -24    2    3    3    0    0 -0.31763202732E+02  0.44608971036E+02  0.16902859462E+02  0.98341383837E+02  0.79915328769E+02 0.  0.
          6    2    1    2  501    0  0.79279977487E+01  0.12581902400E+02  0.50028853529E+03  0.52879015904E+03  0.17061434973E+03 0.  0.
         24    2    5    5    0    0  0.28292490361E+02 -0.19216926232E+02  0.47752421797E+03  0.48444850588E+03  0.74102772115E+02 0.  0.
          5    1    5    5  501    0 -0.20364492613E+02  0.31798828633E+02  0.22764317323E+02  0.44341653160E+02  0.47000000000E+01 0. -1.
        -11    1    6    6    0    0  0.38072121865E+02  0.17117309235E+02  0.19412973151E+03  0.19856696955E+03  0.00000000000E+00 0.  1.
         12    1    6    6    0    0 -0.97796315042E+01 -0.36334235468E+02  0.28339448646E+03  0.28588153633E+03  0.00000000000E+00 0. -1.
         -5    1    3    3    0  503  0.23835204984E+02 -0.57190873436E+02 -0.45319562040E+02  0.76908164095E+02  0.47000000000E+01 0.  1.
         13    1    4    4    0    0 -0.35645592806E+02 -0.11198616262E+02  0.19873893494E+02  0.42320077212E+02  0.00000000000E+00 0. -1.
        -14    1    4    4    0    0  0.38823900734E+01  0.55807587298E+02 -0.29710340318E+01  0.56021306624E+02  0.00000000000E+00 0.  1.
<mgrwt>
<rscale>  2 0.17251153E+03</rscale>
<asrwt>0</asrwt>
<pdfrwt beam="1">  1       21 0.90454732E-01 0.17293032E+03</pdfrwt>
<pdfrwt beam="2">  1       21 0.17859068E-01 0.17293032E+03</pdfrwt>
<totfact> 0.29913248E+04</totfact>
</mgrwt>
</event>
<event>
12    1  0.1071811E-001  0.1870669E+03  0.7546771E-02  0.1161741E+00
         21   -1    0    0  501  502  0.00000000000E+00  0.00000000000E+00  0.19099227637E+03  0.19099227637E+03  0.00000000000E+00 0.  1.
         21   -1    0    0  502  503 -0.00000000000E+00 -0.00000000000E+00 -0.18627657738E+03  0.18627657738E+03  0.00000000000E+00 0.  1.
         -6    2    1    2    0  503 -0.36041281179E+02 -0.53601091803E+02 -0.30359279804E+02  0.18951438357E+03  0.17556185439E+03 0.  0.
        -24    2    3    3    0    0  0.39549223970E+02  0.96567158816E+00  0.75787356781E+01  0.88753085666E+02  0.79086024951E+02 0.  0.
          6    2    1    2  501    0  0.36041281179E+02  0.53601091803E+02  0.35074978794E+02  0.18775447018E+03  0.17276989304E+03 0.  0.
         24    2    5    5    0    0  0.45692373986E+02  0.39082566602E+02 -0.43842371393E+02  0.10679788103E+03  0.76605442428E+02 0.  0.
          5    1    5    5  501    0 -0.96510928074E+01  0.14518525202E+02  0.78917350187E+02  0.80956589151E+02  0.47000000000E+01 0.  1.
        -13    1    6    6    0    0  0.60634246227E+02  0.11571259627E+02 -0.43452182696E+02  0.75488396763E+02  0.00000000000E+00 0.  1.
         14    1    6    6    0    0 -0.14941872241E+02  0.27511306975E+02 -0.39018869703E+00  0.31309484262E+02  0.00000000000E+00 0. -1.
         -5    1    3    3    0  503 -0.75590505148E+02 -0.54566763391E+02 -0.37938015482E+02  0.10076129790E+03  0.47000000000E+01 0.  1.
         13    1    4    4    0    0 -0.68082552122E+01 -0.30849412452E+02 -0.22664298995E+01  0.31672942588E+02  0.00000000000E+00 0. -1.
        -14    1    4    4    0    0  0.46357479182E+02  0.31815084041E+02  0.98451655776E+01  0.57080143078E+02  0.00000000000E+00 0.  1.
<mgrwt>
<rscale>  2 0.18640898E+03</rscale>
<asrwt>0</asrwt>
<pdfrwt beam="1">  1       21 0.29383427E-01 0.18706687E+03</pdfrwt>
<pdfrwt beam="2">  1       21 0.28657935E-01 0.18706687E+03</pdfrwt>
<totfact> 0.12948670E+05</totfact>
</mgrwt>
</event>
<event>
12    1  0.1071811E-001  0.2414875E+03  0.7546771E-02  0.1118819E+00
         21   -1    0    0  503  502  0.00000000000E+00  0.00000000000E+00  0.46187411598E+03  0.46187411598E+03  0.00000000000E+00 0. -1.
         21   -1    0    0  501  503 -0.00000000000E+00 -0.00000000000E+00 -0.12628762572E+03  0.12628762572E+03  0.00000000000E+00 0.  1.
          6    2    1    2  501    0  0.58475616257E+02  0.15886884887E+03  0.16093616982E+03  0.29020105803E+03  0.17221351424E+03 0.  0.
         24    2    3    3    0    0  0.25279486523E+02  0.14764998188E+03  0.18093514968E+03  0.24958215601E+03  0.84345448134E+02 0.  0.
         -6    2    1    2    0  502 -0.58475616257E+02 -0.15886884887E+03  0.17465032045E+03  0.29796068367E+03  0.17210207943E+03 0.  0.
        -24    2    5    5    0    0 -0.35191388755E+02 -0.19811765691E+02  0.66039617529E+02  0.11992304040E+03  0.91593474844E+02 0.  0.
          5    1    3    3  501    0  0.33196129734E+02  0.11218866993E+02 -0.19998979862E+02  0.40618902022E+02  0.47000000000E+01 0. -1.
        -11    1    4    4    0    0 -0.16750504659E+02  0.29217372554E+02  0.85157576662E+02  0.91575363108E+02  0.00000000000E+00 0.  1.
         12    1    4    4    0    0  0.42029991182E+02  0.11843260932E+03  0.95777573021E+02  0.15800679290E+03  0.00000000000E+00 0. -1.
         -5    1    5    5    0  502 -0.23284227502E+02 -0.13905708318E+03  0.10861070292E+03  0.17803764327E+03  0.47000000000E+01 0.  1.
         11    1    6    6    0    0 -0.21933338761E+02 -0.91271684919E+01 -0.20711067751E+02  0.31517056989E+02  0.00000000000E+00 0. -1.
        -12    1    6    6    0    0 -0.13258049995E+02 -0.10684597199E+02  0.86750685280E+02  0.88405983414E+02  0.00000000000E+00 0.  1.
<mgrwt>
<rscale>  2 0.24146761E+03</rscale>
<asrwt>0</asrwt>
<pdfrwt beam="1">  1       21 0.71057556E-01 0.24148748E+03</pdfrwt>
<pdfrwt beam="2">  1       21 0.19428866E-01 0.24148748E+03</pdfrwt>
<totfact> 0.42670815E+04</totfact>
</mgrwt>
</event>
<event>
12    1  0.1071811E-001  0.1903181E+03  0.7546771E-02  0.1158275E+00
         21   -1    0    0  501  502  0.00000000000E+00  0.00000000000E+00  0.76545082399E+03  0.76545082399E+03  0.00000000000E+00 0. -1.
         21   -1    0    0  502  503 -0.00000000000E+00 -0.00000000000E+00 -0.11452365829E+03  0.11452365829E+03  0.00000000000E+00 0.  1.
         -6    2    1    2    0  503  0.76211933042E+02 -0.22378535284E+02 -0.11702891686E+02  0.19067754791E+03  0.17295060574E+03 0.  0.
        -24    2    3    3    0    0  0.64532459487E+02  0.12024741958E+02  0.60945098591E+02  0.10931529574E+03  0.62661759418E+02 0.  0.
          6    2    1    2  501    0 -0.76211933042E+02  0.22378535284E+02  0.66263005739E+03  0.68929693437E+03  0.17246046847E+03 0.  0.
         24    2    5    5    0    0 -0.11440411899E+03  0.10240452249E+02  0.43356864487E+03  0.45670889333E+03  0.86070169774E+02 0.  0.
          5    1    5    5  501    0  0.38192185950E+02  0.12138083035E+02  0.22906141252E+03  0.23258804104E+03  0.47000000000E+01 0. -1.
        -13    1    6    6    0    0 -0.34371151372E+02 -0.35210948665E+02  0.11436849441E+03  0.12450437529E+03  0.00000000000E+00 0.  1.
         14    1    6    6    0    0 -0.80032967620E+02  0.45451400914E+02  0.31920015046E+03  0.33220451804E+03  0.00000000000E+00 0. -1.
         -5    1    3    3    0  503  0.11679473555E+02 -0.34403277242E+02 -0.72647990277E+02  0.81362252174E+02  0.47000000000E+01 0.  1.
         11    1    4    4    0    0  0.37528219402E+02 -0.23510406112E+02  0.41290837939E+02  0.60547830223E+02  0.00000000000E+00 0. -1.
        -12    1    4    4    0    0  0.27004240085E+02  0.35535148070E+02  0.19654260652E+02  0.48767465515E+02  0.00000000000E+00 0.  1.
<mgrwt>
<rscale>  2 0.19020665E+03</rscale>
<asrwt>0</asrwt>
<pdfrwt beam="1">  1       21 0.11776166E+00 0.19031807E+03</pdfrwt>
<pdfrwt beam="2">  1       21 0.17619025E-01 0.19031807E+03</pdfrwt>
<totfact> 0.16183627E+04</totfact>
</mgrwt>
</event>
<event>
12    1  0.1071811E-001  0.1758795E+03  0.7546771E-02  0.1171971E+00
         21   -1    0    0  501  502  0.00000000000E+00  0.00000000000E+00  0.48824827495E+02  0.48824827495E+02  0.00000000000E+00 0. -1.
         21   -1    0    0  502  503 -0.00000000000E+00 -0.00000000000E+00 -0.76241939515E+03  0.76241939515E+03  0.00000000000E+00 0. -1.
         -6    2    1    2    0  503 -0.29336772785E+02  0.17060882713E+02 -0.52426212897E+03  0.55282526348E+03  0.17208507232E+03 0.  0.
        -24    2    3    3    0    0  0.42463951604E+02  0.29238752043E+02 -0.27511016603E+03  0.29320547386E+03  0.87325566961E+02 0.  0.
          6    2    1    2  501    0  0.29336772785E+02 -0.17060882713E+02 -0.18933243869E+03  0.25841895917E+03  0.17257423377E+03 0.  0.
         24    2    5    5    0    0 -0.33018802570E+02  0.31943474910E+02 -0.12299783158E+03  0.15492009471E+03  0.82226165293E+02 0.  0.
          5    1    5    5  501    0  0.62355575354E+02 -0.49004357623E+02 -0.66334607114E+02  0.10349886446E+03  0.47000000000E+01 0. -1.
        -13    1    6    6    0    0  0.24060506169E+02  0.20745251927E+02 -0.67133691855E+02  0.74271165446E+02  0.00000000000E+00 0.  1.
         14    1    6    6    0    0 -0.57079308739E+02  0.11198222983E+02 -0.55864139725E+02  0.80648929264E+02  0.00000000000E+00 0. -1.
         -5    1    3    3    0  503 -0.71800724389E+02 -0.12177869330E+02 -0.24915196294E+03  0.25961978962E+03  0.47000000000E+01 0.  1.
         13    1    4    4    0    0  0.24827151999E+02  0.59517444881E+02 -0.20364811750E+03  0.21361476888E+03  0.00000000000E+00 0. -1.
        -14    1    4    4    0    0  0.17636799605E+02 -0.30278692839E+02 -0.71462048529E+02  0.79590704987E+02  0.00000000000E+00 0.  1.
<mgrwt>
<rscale>  2 0.17575936E+03</rscale>
<asrwt>0</asrwt>
<pdfrwt beam="1">  1       21 0.75115118E-02 0.17587946E+03</pdfrwt>
<pdfrwt beam="2">  1       21 0.11729529E+00 0.17587946E+03</pdfrwt>
<totfact> 0.75382972E+04</totfact>
</mgrwt>
</event>
<event>
12    1  0.1071811E-001  0.2238544E+03  0.7546771E-02  0.1131965E+00
         21   -1    0    0  501  502  0.00000000000E+00  0.00000000000E+00  0.32664314311E+03  0.32664314311E+03  0.00000000000E+00 0.  1.
         21   -1    0    0  502  503 -0.00000000000E+00 -0.00000000000E+00 -0.34509735960E+03  0.34509735960E+03  0.00000000000E+00 0. -1.
         -6    2    1    2    0  503 -0.85476132270E+02  0.10785376651E+03 -0.26180337615E+03  0.34445870195E+03  0.17655646532E+03 0.  0.
        -24    2    3    3    0    0 -0.28331505638E+02  0.21405491912E+02 -0.21159097195E+03  0.22921032639E+03  0.80658322676E+02 0.  0.
          6    2    1    2  501    0  0.85476132270E+02 -0.10785376651E+03  0.24334915966E+03  0.32728180075E+03  0.17016450705E+03 0.  0.
         24    2    5    5    0    0  0.19422608242E+02 -0.66394483608E+02  0.22065557527E+03  0.24592438593E+03  0.83692625301E+02 0.  0.
          5    1    5    5  501    0  0.66053524028E+02 -0.41459282898E+02  0.22693584386E+02  0.81357414826E+02  0.47000000000E+01 0. -1.
        -11    1    6    6    0    0  0.40371043400E+02 -0.75305474228E+02  0.16549156652E+03  0.18624766894E+03  0.00000000000E+00 0.  1.
         12    1    6    6    0    0 -0.20948435158E+02  0.89109906203E+01  0.55164008751E+02  0.59676716991E+02  0.00000000000E+00 0. -1.
         -5    1    3    3    0  503 -0.57144626632E+02  0.86448274594E+02 -0.50212404200E+02  0.11524837556E+03  0.47000000000E+01 0.  1.
         11    1    4    4    0    0  0.11356405541E+02  0.41915110780E+02 -0.10140421870E+03  0.11031164956E+03  0.00000000000E+00 0. -1.
        -12    1    4    4    0    0 -0.39687911179E+02 -0.20509618868E+02 -0.11018675325E+03  0.11889867683E+03  0.00000000000E+00 0.  1.
<mgrwt>
<rscale>  2 0.22259223E+03</rscale>
<asrwt>0</asrwt>
<pdfrwt beam="1">  1       21 0.50252792E-01 0.22385439E+03</pdfrwt>
<pdfrwt beam="2">  1       21 0.53091901E-01 0.22385439E+03</pdfrwt>
<totfact> 0.12422213E+04</totfact>
</mgrwt>
</event>
<event>
12    1  0.1071811E-001  0.2378932E+03  0.7546771E-02  0.1121281E+00
         21   -1    0    0  501  502  0.00000000000E+00  0.00000000000E+00  0.35607547951E+03  0.35607547951E+03  0.00000000000E+00 0. -1.
         21   -1    0    0  502  503 -0.00000000000E+00 -0.00000000000E+00 -0.15914765395E+03  0.15914765395E+03  0.00000000000E+00 0. -1.
         -6    2    1    2    0  503  0.70355125457E+02 -0.14674658967E+03  0.83737650162E+02  0.25177447888E+03  0.17289878225E+03 0.  0.
        -24    2    3    3    0    0  0.35920368766E+02 -0.96912004510E+02 -0.17819626047E+02  0.13343087450E+03  0.82486663698E+02 0.  0.
          6    2    1    2  501    0 -0.70355125457E+02  0.14674658967E+03  0.11319017540E+03  0.26344865458E+03  0.17351879591E+03 0.  0.
         24    2    5    5    0    0 -0.89826736181E+02  0.13720909042E+03  0.41465839426E+02  0.18837150834E+03  0.82880831864E+02 0.  0.
          5    1    5    5  501    0  0.19471610724E+02  0.95374992498E+01  0.71724335972E+02  0.75077146235E+02  0.47000000000E+01 0. -1.
        -13    1    6    6    0    0 -0.12800467948E+02  0.39226408804E+02 -0.23850675756E+02  0.47659394262E+02  0.00000000000E+00 0.  1.
         14    1    6    6    0    0 -0.77026268232E+02  0.97982681611E+02  0.65316515183E+02  0.14071211408E+03  0.00000000000E+00 0. -1.
         -5    1    3    3    0  503  0.34434756691E+02 -0.49834585156E+02  0.10155727621E+03  0.11834360438E+03  0.47000000000E+01 0.  1.
         13    1    4    4    0    0  0.15436912940E+02 -0.70085133116E+02 -0.49467022952E+02  0.87161978664E+02  0.00000000000E+00 0. -1.
        -14    1    4    4    0    0  0.20483455826E+02 -0.26826871394E+02  0.31647396905E+02  0.46268895839E+02  0.00000000000E+00 0.  1.
<mgrwt>
<rscale>  2 0.23778016E+03</rscale>
<asrwt>0</asrwt>
<pdfrwt beam="1">  1       21 0.54780843E-01 0.23789321E+03</pdfrwt>
<pdfrwt beam="2">  1       21 0.24484255E-01 0.23789321E+03</pdfrwt>
<totfact> 0.48555052E+04</totfact>
</mgrwt>
</event>
<event>
12    1  0.1071811E-001  0.2060472E+03  0.7546771E-02  0.1147482E+00
         21   -1    0    0  501  502  0.00000000000E+00  0.00000000000E+00  0.40771008294E+02  0.40771008294E+02  0.00000000000E+00 0. -1.
         21   -1    0    0  502  503 -0.00000000000E+00 -0.00000000000E+00 -0.10068693227E+04  0.10068693227E+04  0.00000000000E+00 0. -1.
         -6    2    1    2    0  503 -0.28098831718E+02 -0.10823354591E+03 -0.55892936546E+03  0.59130491649E+03  0.15727499447E+03 0.  0.
        -24    2    3    3    0    0 -0.28057910338E+02 -0.10349071001E+03 -0.56590086412E+03  0.58165152535E+03  0.81099540993E+02 0.  0.
          6    2    1    2  501    0  0.28098831718E+02  0.10823354591E+03 -0.40716894894E+03  0.45633541450E+03  0.17306476459E+03 0.  0.
         24    2    5    5    0    0  0.30086988315E+02 -0.10541994724E+02 -0.19121056847E+03  0.20981625923E+03  0.80280885796E+02 0.  0.
          5    1    5    5  501    0 -0.19881565971E+01  0.11877554064E+03 -0.21595838047E+03  0.24651915527E+03  0.47000000000E+01 0. -1.
        -13    1    6    6    0    0  0.53785921319E+02  0.67673124141E+00 -0.16133836373E+03  0.17006895927E+03  0.00000000000E+00 0.  1.
         14    1    6    6    0    0 -0.23698933005E+02 -0.11218725966E+02 -0.29872204742E+02  0.39747299959E+02  0.00000000000E+00 0. -1.
         -5    1    3    3    0  503 -0.40921379456E-01 -0.47428359054E+01  0.69714986523E+01  0.96533911370E+01  0.47000000000E+01 0.  1.
         11    1    4    4    0    0  0.24361033757E+02 -0.33004283334E+02 -0.11077696509E+03  0.11812822981E+03  0.00000000000E+00 0. -1.
        -12    1    4    4    0    0 -0.52418944095E+02 -0.70486426673E+02 -0.45512389903E+03  0.46352329554E+03  0.00000000000E+00 0.  1.
<mgrwt>
<rscale>  2 0.20269849E+03</rscale>
<asrwt>0</asrwt>
<pdfrwt beam="1">  1       21 0.62724622E-02 0.20604722E+03</pdfrwt>
<pdfrwt beam="2">  1       21 0.15490299E+00 0.20604722E+03</pdfrwt>
<totfact> 0.49780457E+04</totfact>
</mgrwt>
</event>
<event>
12    1  0.1071811E-001  0.1853141E+03  0.7546771E-02  0.1162763E+00
         21   -1    0    0  503  502  0.00000000000E+00  0.00000000000E+00  0.61843718171E+02  0.61843718171E+02  0.00000000000E+00 0.  1.
         21   -1    0    0  501  503 -0.00000000000E+00 -0.00000000000E+00 -0.55991730870E+03  0.55991730870E+03  0.00000000000E+00 0.  1.
          6    2    1    2  501    0  0.61246714297E+02  0.22249046044E+02 -0.22050898083E+03  0.28801946763E+03  0.17344977095E+03 0.  0.
         24    2    3    3    0    0  0.37185219847E+02  0.74843828611E+02 -0.96086320478E+02  0.15073052023E+03  0.80639751297E+02 0.  0.
         -6    2    1    2    0  502 -0.61246714297E+02 -0.22249046044E+02 -0.27756460969E+03  0.33374155924E+03  0.17347949662E+03 0.  0.
        -24    2    5    5    0    0  0.29483142088E+01 -0.29716600286E+02 -0.24789640548E+03  0.26247404636E+03  0.80921123763E+02 0.  0.
          5    1    3    3  501    0  0.24061494450E+02 -0.52594782567E+02 -0.12442266035E+03  0.13728894740E+03  0.47000000000E+01 0. -1.
        -13    1    4    4    0    0  0.23725423476E+01  0.13743782353E+01  0.13782535428E+02  0.14052620950E+02  0.00000000000E+00 0.  1.
         14    1    4    4    0    0  0.34812677499E+02  0.73469450375E+02 -0.10986885591E+03  0.13667789928E+03  0.00000000000E+00 0. -1.
         -5    1    5    5    0  502 -0.64195028506E+02  0.74675542417E+01 -0.29668204209E+02  0.71267512880E+02  0.47000000000E+01 0.  1.
         11    1    6    6    0    0  0.19864603945E+02  0.11165690417E+02 -0.17998429928E+03  0.18142112093E+03  0.00000000000E+00 0. -1.
        -12    1    6    6    0    0 -0.16916289736E+02 -0.40882290703E+02 -0.67912106208E+02  0.81052925433E+02  0.00000000000E+00 0.  1.
<mgrwt>
<rscale>  2 0.18530714E+03</rscale>
<asrwt>0</asrwt>
<pdfrwt beam="1">  1       21 0.95144185E-02 0.18531410E+03</pdfrwt>
<pdfrwt beam="2">  1       21 0.86141121E-01 0.18531410E+03</pdfrwt>
<totfact> 0.10325782E+05</totfact>
</mgrwt>
</event>
<event>
12    1  0.1071811E-001  0.1774167E+03  0.7546771E-02  0.1171321E+00
         21   -1    0    0  503  502  0.00000000000E+00  0.00000000000E+00  0.53417863523E+02  0.53417863523E+02  0.00000000000E+00 0.  1.
         21   -1    0    0  501  503 -0.00000000000E+00 -0.00000000000E+00 -0.10117281949E+04  0.10117281949E+04  0.00000000000E+00 0.  1.
          6    2    1    2  501    0  0.26287235391E+02 -0.24843893849E+02 -0.83170660783E+03  0.85041905561E+03  0.17369067571E+03 0.  0.
         24    2    3    3    0    0  0.55239912160E+02  0.29749276288E+02 -0.65846882840E+03  0.66642968108E+03  0.81307161519E+02 0.  0.
         -6    2    1    2    0  502 -0.26287235391E+02  0.24843893849E+02 -0.12660372360E+03  0.21472700286E+03  0.16962000213E+03 0.  0.
        -24    2    5    5    0    0 -0.27353105991E+02 -0.35302756727E+02 -0.24580389656E+02  0.96195967586E+02  0.81578131777E+02 0.  0.
          5    1    3    3  501    0 -0.28952676769E+02 -0.54593170138E+02 -0.17323777943E+03  0.18398937453E+03  0.47000000000E+01 0. -1.
        -13    1    4    4    0    0  0.17943655382E+01 -0.13080381761E+02 -0.35843123621E+03  0.35867431916E+03  0.00000000000E+00 0.  1.
         14    1    4    4    0    0  0.53445546622E+02  0.42829658050E+02 -0.30003759219E+03  0.30775536191E+03  0.00000000000E+00 0. -1.
         -5    1    5    5    0  502  0.10658705998E+01  0.60146650576E+02 -0.10202333394E+03  0.11853103528E+03  0.47000000000E+01 0.  1.
         13    1    6    6    0    0  0.24499953763E+02 -0.32820441600E+02 -0.13404118628E+02  0.43094077522E+02  0.00000000000E+00 0. -1.
        -14    1    6    6    0    0 -0.51853059755E+02 -0.24823151266E+01 -0.11176271028E+02  0.53101890065E+02  0.00000000000E+00 0.  1.
<mgrwt>
<rscale>  2 0.17641241E+03</rscale>
<asrwt>0</asrwt>
<pdfrwt beam="1">  1       21 0.82181331E-02 0.17741671E+03</pdfrwt>
<pdfrwt beam="2">  1       21 0.15565049E+00 0.17741671E+03</pdfrwt>
<totfact> 0.31335855E+04</totfact>
</mgrwt>
</event>
<event>
12    1  0.1071811E-001  0.1895611E+03  0.7546771E-02  0.1158980E+00
         21   -1    0    0  501  502  0.00000000000E+00  0.00000000000E+00  0.58561831411E+02  0.58561831411E+02  0.00000000000E+00 0.  1.
         21   -1    0    0  502  503 -0.00000000000E+00 -0.00000000000E+00 -0.61233362025E+03  0.61233362025E+03  0.00000000000E+00 0.  1.
         -6    2    1    2    0  503 -0.39772251724E+02 -0.65115355522E+02 -0.26785569181E+03  0.32814641900E+03  0.17352682542E+03 0.  0.
        -24    2    3    3    0    0 -0.41757492085E+02 -0.10230923422E+03 -0.25380958405E+03  0.28806264504E+03  0.79686353652E+02 0.  0.
          6    2    1    2  501    0  0.39772251724E+02  0.65115355522E+02 -0.28591609704E+03  0.34274903266E+03  0.17293652973E+03 0.  0.
         24    2    5    5    0    0  0.12866665698E+02 -0.32248155855E+02 -0.11342458505E+03  0.14280160053E+03  0.79508905031E+02 0.  0.
          5    1    5    5  501    0  0.26905586026E+02  0.97363511377E+02 -0.17249151199E+03  0.19994743213E+03  0.47000000000E+01 0. -1.
        -13    1    6    6    0    0 -0.20613538627E+02 -0.43681667049E+02 -0.46216000086E+02  0.66850016267E+02  0.00000000000E+00 0.  1.
         14    1    6    6    0    0  0.33480204326E+02  0.11433511194E+02 -0.67208584961E+02  0.75951584265E+02  0.00000000000E+00 0. -1.
         -5    1    3    3    0  503  0.19852403613E+01  0.37193878700E+02 -0.14046107753E+02  0.40083773962E+02  0.47000000000E+01 0.  1.
         13    1    4    4    0    0 -0.17224068749E+02 -0.44754901398E+02 -0.19959841817E+03  0.20527834343E+03  0.00000000000E+00 0. -1.
        -14    1    4    4    0    0 -0.24533423336E+02 -0.57554332824E+02 -0.54211165880E+02  0.82784301613E+02  0.00000000000E+00 0.  1.
<mgrwt>
<rscale>  2 0.18942588E+03</rscale>
<asrwt>0</asrwt>
<pdfrwt beam="1">  1       21 0.90095120E-02 0.18956107E+03</pdfrwt>
<pdfrwt beam="2">  1       21 0.94205178E-01 0.18956107E+03</pdfrwt>
<totfact> 0.92232611E+04</totfact>
</mgrwt>
</event>
<event>
12    1  0.1071811E-001  0.1787520E+03  0.7546771E-02  0.1169061E+00
         21   -1    0    0  503  502  0.00000000000E+00  0.00000000000E+00  0.10418864135E+04  0.10418864135E+04  0.00000000000E+00 0.  1.
         21   -1    0    0  501  503 -0.00000000000E+00 -0.00000000000E+00 -0.31051610770E+02  0.31051610770E+02  0.00000000000E+00 0.  1.
          6    2    1    2  501    0  0.38655587442E+02 -0.22037216658E+02  0.56721237390E+03  0.59465657189E+03  0.17293544469E+03 0.  0.
         24    2    3    3    0    0  0.35314793456E+02 -0.64920802318E+02  0.51841834958E+03  0.52944070241E+03  0.78025809651E+02 0.  0.
         -6    2    1    2    0  502 -0.38655587442E+02  0.22037216658E+02  0.44362242883E+03  0.47828145238E+03  0.17312537356E+03 0.  0.
        -24    2    5    5    0    0 -0.22233961495E+02 -0.52203051886E+02  0.29854200595E+03  0.31441654956E+03  0.80690331832E+02 0.  0.
          5    1    3    3  501    0  0.33407939853E+01  0.42883585661E+02  0.48794024320E+02  0.65215869487E+02  0.47000000000E+01 0. -1.
        -13    1    4    4    0    0  0.94676947834E+01 -0.74485396869E+02  0.29833946232E+03  0.30764288773E+03  0.00000000000E+00 0.  1.
         14    1    4    4    0    0  0.25847098673E+02  0.95645945508E+01  0.22007888726E+03  0.22179781468E+03  0.00000000000E+00 0. -1.
         -5    1    5    5    0  502 -0.16421625946E+02  0.74240268544E+02  0.14508042288E+03  0.16386490282E+03  0.47000000000E+01 0.  1.
         11    1    6    6    0    0 -0.28599822162E+01 -0.90717408531E+01  0.23510291704E+03  0.23529525618E+03  0.00000000000E+00 0. -1.
        -12    1    6    6    0    0 -0.19373979279E+02 -0.43131311033E+02  0.63439088912E+02  0.79121293382E+02  0.00000000000E+00 0.  1.
<mgrwt>
<rscale>  2 0.17870603E+03</rscale>
<asrwt>0</asrwt>
<pdfrwt beam="1">  1       21 0.16029019E+00 0.17875203E+03</pdfrwt>
<pdfrwt beam="2">  1       21 0.47771717E-02 0.17875203E+03</pdfrwt>
<totfact> 0.73322956E+04</totfact>
</mgrwt>
</event>
<event>
12    1  0.1071811E-001  0.2007674E+03  0.7546771E-02  0.1149216E+00
         21   -1    0    0  501  502  0.00000000000E+00  0.00000000000E+00  0.35468284099E+03  0.35468284099E+03  0.00000000000E+00 0. -1.
         21   -1    0    0  502  503 -0.00000000000E+00 -0.00000000000E+00 -0.11378303482E+03  0.11378303482E+03  0.00000000000E+00 0. -1.
         -6    2    1    2    0  503 -0.10238999936E+03 -0.23049985641E+01  0.10555596276E+03  0.22682505653E+03  0.17268039844E+03 0.  0.
        -24    2    3    3    0    0 -0.47741138193E+02  0.33158245025E+02  0.12375468756E+03  0.15902075535E+03  0.81201554491E+02 0.  0.
          6    2    1    2  501    0  0.10238999936E+03  0.23049985641E+01  0.13534384341E+03  0.24164081929E+03  0.17199797850E+03 0.  0.
         24    2    5    5    0    0  0.66066022629E+02  0.52638023254E+02  0.33008748506E+02  0.12186016013E+03  0.81393122010E+02 0.  0.
          5    1    5    5  501    0  0.36323976733E+02 -0.50333024690E+02  0.10233509490E+03  0.11978065916E+03  0.47000000000E+01 0. -1.
        -11    1    6    6    0    0  0.28706118943E+02  0.12300918411E+02  0.54511864973E+02  0.62824336697E+02  0.00000000000E+00 0.  1.
         12    1    6    6    0    0  0.37359903686E+02  0.40337104843E+02 -0.21503116467E+02  0.59035823433E+02  0.00000000000E+00 0. -1.
         -5    1    3    3    0  503 -0.54648861170E+02 -0.35463243589E+02 -0.18198724799E+02  0.67804301171E+02  0.47000000000E+01 0.  1.
         13    1    4    4    0    0 -0.55430293797E+02  0.22277233890E+02  0.34928974393E+02  0.69201342995E+02  0.00000000000E+00 0. -1.
        -14    1    4    4    0    0  0.76891556040E+01  0.10881011135E+02  0.88825713165E+02  0.89819412359E+02  0.00000000000E+00 0.  1.
<mgrwt>
<rscale>  2 0.20062057E+03</rscale>
<asrwt>0</asrwt>
<pdfrwt beam="1">  1       21 0.54566590E-01 0.20076739E+03</pdfrwt>
<pdfrwt beam="2">  1       21 0.17505082E-01 0.20076739E+03</pdfrwt>
<totfact> 0.93440017E+04</totfact>
</mgrwt>
</event>
<event>
12    1  0.1071811E-001  0.2684438E+03  0.7546771E-02  0.1102438E+00
         21   -1    0    0  503  502  0.00000000000E+00  0.00000000000E+00  0.11810788946E+04  0.11810788946E+04  0.00000000000E+00 0.  1.
         21   -1    0    0  501  503 -0.00000000000E+00 -0.00000000000E+00 -0.13034548974E+03  0.13034548974E+03  0.00000000000E+00 0.  1.
          6    2    1    2  501    0 -0.14051220305E+03 -0.14861929795E+03  0.46549280058E+02  0.27244981995E+03  0.17386976157E+03 0.  0.
         24    2    3    3    0    0 -0.26642704519E+02 -0.12583257798E+03  0.24069944688E+02  0.15407369135E+03  0.81336761339E+02 0.  0.
         -6    2    1    2    0  502  0.14051220305E+03  0.14861929795E+03  0.10041841248E+04  0.10389745644E+04  0.17102927830E+03 0.  0.
        -24    2    5    5    0    0  0.10106343529E+03  0.35524430244E+02  0.37410025548E+03  0.39758979161E+03  0.81552671014E+02 0.  0.
          5    1    3    3  501    0 -0.11386949853E+03 -0.22786719969E+02  0.22479335370E+02  0.11837612860E+03  0.47000000000E+01 0. -1.
        -11    1    4    4    0    0 -0.31108262733E+02 -0.10879687527E+02  0.20833070683E+02  0.38988568133E+02  0.00000000000E+00 0.  1.
         12    1    4    4    0    0  0.44655582141E+01 -0.11495289045E+03  0.32368740055E+01  0.11508512322E+03  0.00000000000E+00 0. -1.
         -5    1    5    5    0  502  0.39448767758E+02  0.11309486770E+03  0.63008386930E+03  0.64138477276E+03  0.47000000000E+01 0.  1.
         11    1    6    6    0    0  0.17091229545E+02  0.33933894077E+02  0.50082302830E+02  0.62863792053E+02  0.00000000000E+00 0. -1.
        -12    1    6    6    0    0  0.83972205747E+02  0.15905361672E+01  0.32401795265E+03  0.33472599956E+03  0.00000000000E+00 0.  1.
<mgrwt>
<rscale>  2 0.26798487E+03</rscale>
<asrwt>0</asrwt>
<pdfrwt beam="1">  1       21 0.18170444E+00 0.26844379E+03</pdfrwt>
<pdfrwt beam="2">  1       21 0.20053153E-01 0.26844379E+03</pdfrwt>
<totfact> 0.38314269E+03</totfact>
</mgrwt>
</event>
<event>
12    1  0.1071811E-001  0.1792040E+03  0.7546771E-02  0.1168621E+00
         21   -1    0    0  501  502  0.00000000000E+00  0.00000000000E+00  0.30912758631E+02  0.30912758631E+02  0.00000000000E+00 0.  1.
         21   -1    0    0  502  503 -0.00000000000E+00 -0.00000000000E+00 -0.18256921127E+04  0.18256921127E+04  0.00000000000E+00 0.  1.
         -6    2    1    2    0  503 -0.16191499905E+02 -0.41982165185E+02 -0.15069631159E+04  0.15175587843E+04  0.17326905212E+03 0.  0.
        -24    2    3    3    0    0  0.39528027904E+02 -0.27393346837E+02 -0.49178611636E+03  0.50073828407E+03  0.81070243915E+02 0.  0.
          6    2    1    2  501    0  0.16191499905E+02  0.41982165185E+02 -0.28781623822E+03  0.33904608703E+03  0.17346295075E+03 0.  0.
         24    2    5    5    0    0  0.53642204883E+02  0.20061158055E-01 -0.82452038857E+02  0.12606740768E+03  0.78849007731E+02 0.  0.
          5    1    5    5  501    0 -0.37450704977E+02  0.41962104027E+02 -0.20536419937E+03  0.21297867935E+03  0.47000000000E+01 0. -1.
        -13    1    6    6    0    0  0.32090398489E+02  0.39188107224E+02 -0.44670650046E+02  0.67534942056E+02  0.00000000000E+00 0.  1.
         14    1    6    6    0    0  0.21551806393E+02 -0.39168046066E+02 -0.37781388811E+02  0.58532465623E+02  0.00000000000E+00 0. -1.
         -5    1    3    3    0  503 -0.55719527810E+02 -0.14588818348E+02 -0.10151769995E+04  0.10168205003E+04  0.47000000000E+01 0.  1.
         11    1    4    4    0    0  0.25934648399E+02  0.26255030870E+02 -0.24929660628E+03  0.25201335389E+03  0.00000000000E+00 0. -1.
        -12    1    4    4    0    0  0.13593379505E+02 -0.53648377707E+02 -0.24248951007E+03  0.24872493018E+03  0.00000000000E+00 0.  1.
<mgrwt>
<rscale>  2 0.17915703E+03</rscale>
<asrwt>0</asrwt>
<pdfrwt beam="1">  1       21 0.47558079E-02 0.17920397E+03</pdfrwt>
<pdfrwt beam="2">  1       21 0.28087578E+00 0.17920397E+03</pdfrwt>
<totfact> 0.13058849E+04</totfact>
</mgrwt>
</event>
<event>
12    1  0.1071811E-001  0.1781154E+03  0.7546771E-02  0.1169728E+00
         21   -1    0    0  501  502  0.00000000000E+00  0.00000000000E+00  0.49068738948E+02  0.49068738948E+02  0.00000000000E+00 0.  1.
         21   -1    0    0  502  503 -0.00000000000E+00 -0.00000000000E+00 -0.64641513577E+03  0.64641513577E+03  0.00000000000E+00 0. -1.
         -6    2    1    2    0  503 -0.35169008381E+01  0.37522410904E+02 -0.31320943636E+03  0.36013494095E+03  0.17371449207E+03 0.  0.
        -24    2    3    3    0    0  0.23228764725E+01  0.51657067357E+01 -0.31648643523E+03  0.32675997989E+03  0.81094639117E+02 0.  0.
          6    2    1    2  501    0  0.35169008381E+01 -0.37522410904E+02 -0.28413696046E+03  0.33534893377E+03  0.17408272507E+03 0.  0.
         24    2    5    5    0    0 -0.18308122320E+02  0.18555841159E+02 -0.57057351571E+02  0.10038438162E+03  0.78370760630E+02 0.  0.
          5    1    5    5  501    0  0.21825023158E+02 -0.56078252063E+02 -0.22707960889E+03  0.23496455214E+03  0.47000000000E+01 0. -1.
        -13    1    6    6    0    0  0.18856641512E+02 -0.17680585472E+01 -0.54782978703E+02  0.57964417669E+02  0.00000000000E+00 0.  1.
         14    1    6    6    0    0 -0.37164763833E+02  0.20323899706E+02 -0.22743728681E+01  0.42419963955E+02  0.00000000000E+00 0. -1.
         -5    1    3    3    0  503 -0.58397773106E+01  0.32356704168E+02  0.32769988744E+01  0.33374961053E+02  0.47000000000E+01 0.  1.
         11    1    4    4    0    0  0.37057485147E+02 -0.15131328101E+02 -0.18383461456E+03  0.18814191401E+03  0.00000000000E+00 0. -1.
        -12    1    4    4    0    0 -0.34734608674E+02  0.20297034837E+02 -0.13265182067E+03  0.13861806589E+03  0.00000000000E+00 0.  1.
<mgrwt>
<rscale>  2 0.17802536E+03</rscale>
<asrwt>0</asrwt>
<pdfrwt beam="1">  1       21 0.75490371E-02 0.17811540E+03</pdfrwt>
<pdfrwt beam="2">  1       21 0.99448478E-01 0.17811540E+03</pdfrwt>
<totfact> 0.11104720E+05</totfact>
</mgrwt>
</event>
<event>
12    1  0.1071811E-001  0.2098250E+03  0.7546771E-02  0.1142171E+00
         21   -1    0    0  501  502  0.00000000000E+00  0.00000000000E+00  0.36022660477E+03  0.36022660477E+03  0.00000000000E+00 0. -1.
         21   -1    0    0  502  503 -0.00000000000E+00 -0.00000000000E+00 -0.19908952830E+03  0.19908952830E+03  0.00000000000E+00 0.  1.
         -6    2    1    2    0  503  0.11667564809E+03  0.17588352708E+02 -0.95006366296E+02  0.22820289488E+03  0.17066866902E+03 0.  0.
        -24    2    3    3    0    0  0.78258857539E+02  0.19147507605E+01  0.13148299832E+02  0.11226742404E+03  0.79391319790E+02 0.  0.
          6    2    1    2  501    0 -0.11667564809E+03 -0.17588352708E+02  0.25614344277E+03  0.33111323819E+03  0.17350491700E+03 0.  0.
         24    2    5    5    0    0 -0.12480310130E+02  0.11628661366E+01  0.41768278899E+02  0.91975040603E+02  0.80979680001E+02 0.  0.
          5    1    5    5  501    0 -0.10419533796E+03 -0.18751218845E+02  0.21437516387E+03  0.23913819759E+03  0.47000000000E+01 0. -1.
        -11    1    6    6    0    0 -0.24366999811E+02 -0.35618396108E+02  0.19405291596E+02  0.47317926444E+02  0.00000000000E+00 0.  1.
         12    1    6    6    0    0  0.11886689680E+02  0.36781262244E+02  0.22362987303E+02  0.44657114158E+02  0.00000000000E+00 0. -1.
         -5    1    3    3    0  503  0.38416790556E+02  0.15673601948E+02 -0.10815466613E+03  0.11593547084E+03  0.47000000000E+01 0.  1.
         11    1    4    4    0    0  0.93001995524E+01  0.29153337983E+02  0.21870359263E+02  0.37612809540E+02  0.00000000000E+00 0. -1.
        -12    1    4    4    0    0  0.68958657986E+02 -0.27238587222E+02 -0.87220594310E+01  0.74654614498E+02  0.00000000000E+00 0.  1.
<mgrwt>
<rscale>  2 0.20923770E+03</rscale>
<asrwt>0</asrwt>
<pdfrwt beam="1">  1       21 0.55419478E-01 0.20982496E+03</pdfrwt>
<pdfrwt beam="2">  1       21 0.30629158E-01 0.20982496E+03</pdfrwt>
<totfact> 0.31119182E+04</totfact>
</mgrwt>
</event>
<event>
12    1  0.1071811E-001  0.1850724E+03  0.7546771E-02  0.1163315E+00
         21   -1    0    0  503  502  0.00000000000E+00  0.00000000000E+00  0.11257258741E+03  0.11257258741E+03  0.00000000000E+00 0. -1.
         21   -1    0    0  501  503 -0.00000000000E+00 -0.00000000000E+00 -0.33975348201E+03  0.33975348201E+03  0.00000000000E+00 0. -1.
          6    2    1    2  501    0  0.66256862317E+02 -0.65527395002E+01 -0.18943150471E+03  0.26483220459E+03  0.17268147386E+03 0.  0.
         24    2    3    3    0    0  0.80576200414E+02  0.10978002546E+02 -0.44901872997E+02  0.11846528619E+03  0.73517380395E+02 0.  0.
         -6    2    1    2    0  502 -0.66256862317E+02  0.65527395002E+01 -0.37749389903E+02  0.18749386483E+03  0.17116080951E+03 0.  0.
        -24    2    5    5    0    0  0.19723520542E+02  0.18347292550E+02 -0.53307317932E+02  0.99199602035E+02  0.79203854024E+02 0.  0.
          5    1    3    3  501    0 -0.14319338097E+02 -0.17530742046E+02 -0.14452963171E+03  0.14636691840E+03  0.47000000000E+01 0. -1.
        -13    1    4    4    0    0  0.65647911204E+00 -0.19273208426E+02  0.44407577002E+01  0.19789084284E+02  0.00000000000E+00 0.  1.
         14    1    4    4    0    0  0.79919721302E+02  0.30251210972E+02 -0.49342630697E+02  0.98676201905E+02  0.00000000000E+00 0. -1.
         -5    1    5    5    0  502 -0.85980382859E+02 -0.11794553050E+02  0.15557928029E+02  0.88294262797E+02  0.47000000000E+01 0.  1.
         11    1    6    6    0    0  0.16964051042E+02 -0.24875225362E+02  0.51728125785E+00  0.30113509335E+02  0.00000000000E+00 0. -1.
        -12    1    6    6    0    0  0.27594695004E+01  0.43222517912E+02 -0.53824599190E+02  0.69086092700E+02  0.00000000000E+00 0.  1.
<mgrwt>
<rscale>  2 0.18471689E+03</rscale>
<asrwt>0</asrwt>
<pdfrwt beam="1">  1       21 0.17318860E-01 0.18507242E+03</pdfrwt>
<pdfrwt beam="2">  1       21 0.52269766E-01 0.18507242E+03</pdfrwt>
<totfact> 0.10498174E+05</totfact>
</mgrwt>
</event>
<event>
12    1  0.1071811E-001  0.3043477E+03  0.7546771E-02  0.1083148E+00
         21   -1    0    0  501  502  0.00000000000E+00  0.00000000000E+00  0.10161166638E+04  0.10161166638E+04  0.00000000000E+00 0.  1.
         21   -1    0    0  502  503 -0.00000000000E+00 -0.00000000000E+00 -0.11675590587E+03  0.11675590587E+03  0.00000000000E+00 0. -1.
         -6    2    1    2    0  503 -0.14300060866E+03  0.20476446834E+03  0.71538410015E+03  0.77723943645E+03  0.17305799391E+03 0.  0.
        -24    2    3    3    0    0 -0.95200543615E+02  0.19607286420E+03  0.42313541078E+03  0.48094266522E+03  0.68953316071E+02 0.  0.
          6    2    1    2  501    0  0.14300060866E+03 -0.20476446834E+03  0.18397665783E+03  0.35563313327E+03  0.17392484952E+03 0.  0.
         24    2    5    5    0    0  0.10127575912E+03 -0.22402333877E+03  0.14946881786E+03  0.29797250391E+03  0.77481932557E+02 0.  0.
          5    1    5    5  501    0  0.41724849537E+02  0.19258870429E+02  0.34507839964E+02  0.57660629359E+02  0.47000000000E+01 0.  1.
        -11    1    6    6    0    0 -0.12687201917E+02 -0.14698370141E+02  0.10315641841E+02  0.21986806132E+02  0.00000000000E+00 0.  1.
         12    1    6    6    0    0  0.11396296104E+03 -0.20932496863E+03  0.13915317602E+03  0.27598569777E+03  0.00000000000E+00 0. -1.
         -5    1    3    3    0  503 -0.47800065046E+02  0.86916041384E+01  0.29224868937E+03  0.29629677123E+03  0.47000000000E+01 0.  1.
         11    1    4    4    0    0 -0.29794171237E+01  0.25906764153E+02  0.17236174632E+02  0.31258967853E+02  0.00000000000E+00 0. -1.
        -12    1    4    4    0    0 -0.92221126491E+02  0.17016610005E+03  0.40589923615E+03  0.44968369737E+03  0.00000000000E+00 0.  1.
<mgrwt>
<rscale>  2 0.30422398E+03</rscale>
<asrwt>0</asrwt>
<pdfrwt beam="1">  1       21 0.15632563E+00 0.30434769E+03</pdfrwt>
<pdfrwt beam="2">  1       21 0.17962448E-01 0.30434769E+03</pdfrwt>
<totfact> 0.70205416E+03</totfact>
</mgrwt>
</event>
<event>
12    1  0.1071811E-001  0.2207948E+03  0.7546771E-02  0.1133476E+00
         21   -1    0    0  503  502  0.00000000000E+00  0.00000000000E+00  0.67159980142E+03  0.67159980142E+03  0.00000000000E+00 0.  1.
         21   -1    0    0  501  503 -0.00000000000E+00 -0.00000000000E+00 -0.25013495352E+03  0.25013495352E+03  0.00000000000E+00 0.  1.
          6    2    1    2  501    0 -0.45447444273E+02  0.12883370193E+03 -0.17804022423E+03  0.28286333734E+03  0.17219103701E+03 0.  0.
         24    2    3    3    0    0  0.16939755938E+02  0.98005204313E+01 -0.10046894656E+03  0.12762012762E+03  0.76222583380E+02 0.  0.
         -6    2    1    2    0  502  0.45447444273E+02 -0.12883370193E+03  0.59950507213E+03  0.63887141759E+03  0.17345536535E+03 0.  0.
        -24    2    5    5    0    0  0.70637127116E+02 -0.43606962112E+02  0.22109429933E+03  0.25013639181E+03  0.82427874172E+02 0.  0.
          5    1    3    3  501    0 -0.62387200211E+02  0.11903318150E+03 -0.77571277662E+02  0.15524320972E+03  0.47000000000E+01 0. -1.
        -13    1    4    4    0    0 -0.21710229548E+02  0.28444594314E+02 -0.45642378151E+02  0.57997031786E+02  0.00000000000E+00 0.  1.
         14    1    4    4    0    0  0.38649985487E+02 -0.18644073883E+02 -0.54826568413E+02  0.69623095830E+02  0.00000000000E+00 0. -1.
         -5    1    5    5    0  502 -0.25189682843E+02 -0.85226739815E+02  0.37841077280E+03  0.38873502578E+03  0.47000000000E+01 0.  1.
         11    1    6    6    0    0  0.36033137205E+02 -0.54610209004E+02  0.74678432732E+02  0.99285095657E+02  0.00000000000E+00 0. -1.
        -12    1    6    6    0    0  0.34603989911E+02  0.11003246892E+02  0.14641586660E+03  0.15085129616E+03  0.00000000000E+00 0.  1.
<mgrwt>
<rscale>  2 0.22054645E+03</rscale>
<asrwt>0</asrwt>
<pdfrwt beam="1">  1       21 0.10332305E+00 0.22079483E+03</pdfrwt>
<pdfrwt beam="2">  1       21 0.38482301E-01 0.22079483E+03</pdfrwt>
<totfact> 0.48389114E+03</totfact>
</mgrwt>
</event>
<event>
12    1  0.1071811E-001  0.2249352E+03  0.7546771E-02  0.1130601E+00
         21   -1    0    0  501  502  0.00000000000E+00  0.00000000000E+00  0.46667433029E+03  0.46667433029E+03  0.00000000000E+00 0. -1.
         21   -1    0    0  502  503 -0.00000000000E+00 -0.00000000000E+00 -0.32651510344E+03  0.32651510344E+03  0.00000000000E+00 0.  1.
         -6    2    1    2    0  503 -0.61843612310E+02 -0.12963885936E+03 -0.25482510147E+03  0.33864737595E+03  0.17063219702E+03 0.  0.
        -24    2    3    3    0    0 -0.71605513821E+02 -0.72076110017E+02 -0.79538888585E+02  0.15383365552E+03  0.83761826194E+02 0.  0.
          6    2    1    2  501    0  0.61843612310E+02  0.12963885936E+03  0.39498432832E+03  0.45454205778E+03  0.17310400468E+03 0.  0.
         24    2    5    5    0    0  0.14914132963E+02  0.28051908033E+02  0.58944003582E+02  0.10032817528E+03  0.74712825468E+02 0.  0.
          5    1    5    5  501    0  0.46929479347E+02  0.10158695133E+03  0.33604032473E+03  0.35421388251E+03  0.47000000000E+01 0. -1.
        -13    1    6    6    0    0  0.40541287914E+02  0.53707636024E+01  0.12747068701E+02  0.42836069939E+02  0.00000000000E+00 0.  1.
         14    1    6    6    0    0 -0.25627154951E+02  0.22681144431E+02  0.46196934881E+02  0.57492105336E+02  0.00000000000E+00 0. -1.
         -5    1    3    3    0  503  0.97619015111E+01 -0.57562749345E+02 -0.17528621289E+03  0.18481372043E+03  0.47000000000E+01 0.  1.
         13    1    4    4    0    0 -0.73147460166E+02 -0.80811549563E+02 -0.44575589838E+02  0.11776264552E+03  0.00000000000E+00 0. -1.
        -14    1    4    4    0    0  0.15419463447E+01  0.87354395457E+01 -0.34963298747E+02  0.36071009992E+02  0.00000000000E+00 0.  1.
<mgrwt>
<rscale>  2 0.22445957E+03</rscale>
<asrwt>0</asrwt>
<pdfrwt beam="1">  1       21 0.71796051E-01 0.22493524E+03</pdfrwt>
<pdfrwt beam="2">  1       21 0.50233092E-01 0.22493524E+03</pdfrwt>
<totfact> 0.64609023E+03</totfact>
</mgrwt>
</event>
<event>
12    1  0.1071811E-001  0.2166111E+03  0.7546771E-02  0.1136493E+00
         21   -1    0    0  503  502  0.00000000000E+00  0.00000000000E+00  0.87938751415E+03  0.87938751415E+03  0.00000000000E+00 0.  1.
         21   -1    0    0  501  503 -0.00000000000E+00 -0.00000000000E+00 -0.55436153855E+02  0.55436153855E+02  0.00000000000E+00 0.  1.
          6    2    1    2  501    0  0.65207569822E+02  0.11254761080E+03  0.32009084831E+03  0.38649516742E+03  0.17320903963E+03 0.  0.
         24    2    3    3    0    0  0.88770442856E+02  0.13244055937E+03  0.23420188625E+03  0.29511714932E+03  0.82600938314E+02 0.  0.
         -6    2    1    2    0  502 -0.65207569822E+02 -0.11254761080E+03  0.50386051199E+03  0.54832850059E+03  0.17282863523E+03 0.  0.
        -24    2    5    5    0    0 -0.43805752061E+02  0.22020380144E+01  0.13137555031E+03  0.15795348041E+03  0.75934009953E+02 0.  0.
          5    1    3    3  501    0 -0.23562873034E+02 -0.19892948570E+02  0.85888962061E+02  0.91378018102E+02  0.47000000000E+01 0. -1.
        -13    1    4    4    0    0  0.54953323571E+01  0.53804123232E+02  0.32312799430E+02  0.63001582214E+02  0.00000000000E+00 0.  1.
         14    1    4    4    0    0  0.83275110499E+02  0.78636436133E+02  0.20188908682E+03  0.23211556710E+03  0.00000000000E+00 0. -1.
         -5    1    5    5    0  502 -0.21401817761E+02 -0.11474964881E+03  0.37248496168E+03  0.39037502018E+03  0.47000000000E+01 0.  1.
         11    1    6    6    0    0  0.37404650335E+01  0.72535012548E+01  0.10095158907E+03  0.10128093451E+03  0.00000000000E+00 0. -1.
        -12    1    6    6    0    0 -0.47546217095E+02 -0.50514632404E+01  0.30423961241E+02  0.56672545897E+02  0.00000000000E+00 0.  1.
<mgrwt>
<rscale>  2 0.21653503E+03</rscale>
<asrwt>0</asrwt>
<pdfrwt beam="1">  1       21 0.13529038E+00 0.21661109E+03</pdfrwt>
<pdfrwt beam="2">  1       21 0.85286397E-02 0.21661109E+03</pdfrwt>
<totfact> 0.41376812E+04</totfact>
</mgrwt>
</event>
<event>
12    1  0.1071811E-001  0.1841343E+03  0.7546771E-02  0.1164388E+00
         21   -1    0    0  503  502  0.00000000000E+00  0.00000000000E+00  0.21507088390E+03  0.21507088390E+03  0.00000000000E+00 0.  1.
         21   -1    0    0  501  503 -0.00000000000E+00 -0.00000000000E+00 -0.29962653575E+03  0.29962653575E+03  0.00000000000E+00 0.  1.
          6    2    1    2  501    0 -0.40598495225E+02 -0.44297566357E+02 -0.22047737481E+03  0.28583032132E+03  0.17169213023E+03 0.  0.
         24    2    3    3    0    0  0.34040201701E+01 -0.15544450421E+02 -0.34335672455E+02  0.92352192341E+02  0.84242339326E+02 0.  0.
         -6    2    1    2    0  502  0.40598495225E+02  0.44297566357E+02  0.13592172295E+03  0.22886709834E+03  0.17405436430E+03 0.  0.
        -24    2    5    5    0    0 -0.28475247875E+01  0.84267995200E+02  0.11980358222E+03  0.16749058575E+03  0.81184940653E+02 0.  0.
          5    1    3    3  501    0 -0.44002515395E+02 -0.28753115936E+02 -0.18614170235E+03  0.19347812898E+03  0.47000000000E+01 0. -1.
        -13    1    4    4    0    0  0.28741041582E+02  0.23640069386E+02 -0.24813011337E+02  0.44727909446E+02  0.00000000000E+00 0.  1.
         14    1    4    4    0    0 -0.25337021412E+02 -0.39184519807E+02 -0.95226611179E+01  0.47624282895E+02  0.00000000000E+00 0. -1.
         -5    1    5    5    0  502  0.43446020012E+02 -0.39970428843E+02  0.16118140729E+02  0.61376512587E+02  0.47000000000E+01 0.  1.
         13    1    6    6    0    0 -0.13566447103E+02  0.55851172528E+02  0.12415116106E+03  0.13680976848E+03  0.00000000000E+00 0. -1.
        -14    1    6    6    0    0  0.10718922315E+02  0.28416822673E+02 -0.43475788369E+01  0.30680817267E+02  0.00000000000E+00 0.  1.
<mgrwt>
<rscale>  2 0.18357391E+03</rscale>
<asrwt>0</asrwt>
<pdfrwt beam="1">  1       21 0.33087829E-01 0.18413428E+03</pdfrwt>
<pdfrwt beam="2">  1       21 0.46096390E-01 0.18413428E+03</pdfrwt>
<totfact> 0.39828922E+04</totfact>
</mgrwt>
</event>
<event>
12    1  0.1071811E-001  0.1892327E+03  0.7546771E-02  0.1159450E+00
         21   -1    0    0  501  502  0.00000000000E+00  0.00000000000E+00  0.37447088317E+03  0.37447088317E+03  0.00000000000E+00 0. -1.
         21   -1    0    0  502  503 -0.00000000000E+00 -0.00000000000E+00 -0.20958422117E+03  0.20958422117E+03  0.00000000000E+00 0. -1.
         -6    2    1    2    0  503  0.65086018879E+02 -0.35392900996E+02 -0.13363856747E+03  0.23060594400E+03  0.17271649429E+03 0.  0.
        -24    2    3    3    0    0  0.84779113841E+02  0.21739387428E+02 -0.11840650154E+03  0.16810776641E+03  0.81117337296E+02 0.  0.
          6    2    1    2  501    0 -0.65086018879E+02  0.35392900996E+02  0.29852522947E+03  0.35344916034E+03  0.17412681878E+03 0.  0.
         24    2    5    5    0    0 -0.10149363051E+03 -0.97662090364E+01  0.22096257150E+03  0.25648052977E+03  0.81002890509E+02 0.  0.
          5    1    5    5  501    0  0.36407611634E+02  0.45159110033E+02  0.77562657966E+02  0.96968630569E+02  0.47000000000E+01 0. -1.
        -11    1    6    6    0    0 -0.28247834356E+02 -0.85187199209E+01  0.69982648685E+01  0.30323001930E+02  0.00000000000E+00 0.  1.
         12    1    6    6    0    0 -0.73245796157E+02 -0.12474891155E+01  0.21396430663E+03  0.22615752784E+03  0.00000000000E+00 0. -1.
         -5    1    3    3    0  503 -0.19693094963E+02 -0.57132288425E+02 -0.15232065927E+02  0.62498177591E+02  0.47000000000E+01 0.  1.
         13    1    4    4    0    0  0.11676103066E+01  0.26952183891E+02 -0.55265713936E+01  0.27537729059E+02  0.00000000000E+00 0. -1.
        -14    1    4    4    0    0  0.83611503535E+02 -0.52127964629E+01 -0.11287993015E+03  0.14057003735E+03  0.00000000000E+00 0.  1.
<mgrwt>
<rscale>  2 0.18890758E+03</rscale>
<asrwt>0</asrwt>
<pdfrwt beam="1">  1       21 0.57610905E-01 0.18923265E+03</pdfrwt>
<pdfrwt beam="2">  1       21 0.32243726E-01 0.18923265E+03</pdfrwt>
<totfact> 0.26205756E+04</totfact>
</mgrwt>
</event>
<event>
12    1  0.1071811E-001  0.2249936E+03  0.7546771E-02  0.1130748E+00
         21   -1    0    0  501  502  0.00000000000E+00  0.00000000000E+00  0.11052108134E+04  0.11052108134E+04  0.00000000000E+00 0. -1.
         21   -1    0    0  502  503 -0.00000000000E+00 -0.00000000000E+00 -0.80814486754E+02  0.80814486754E+02  0.00000000000E+00 0.  1.
         -6    2    1    2    0  503  0.82672450440E+02 -0.10967488531E+03  0.12045762733E+03  0.25521003497E+03  0.17821000936E+03 0.  0.
        -24    2    3    3    0    0  0.66222116611E+02  0.55708490878E+01  0.81469395137E+02  0.13235090820E+03  0.80393391947E+02 0.  0.
          6    2    1    2  501    0 -0.82672450440E+02  0.10967488531E+03  0.90393869933E+03  0.93081526520E+03  0.17449518980E+03 0.  0.
         24    2    5    5    0    0 -0.93765325511E+02  0.18434117317E+02  0.38857399682E+03  0.40729755184E+03  0.75959145433E+02 0.  0.
          5    1    5    5  501    0  0.11092875070E+02  0.91240767995E+02  0.51536470250E+03  0.52351771336E+03  0.47000000000E+01 0. -1.
        -11    1    6    6    0    0 -0.59025516900E+01  0.61634247971E+01 -0.19359441031E+00  0.85361232699E+01  0.00000000000E+00 0.  1.
         12    1    6    6    0    0 -0.87862773821E+02  0.12270692520E+02  0.38876759123E+03  0.39876142857E+03  0.00000000000E+00 0. -1.
         -5    1    3    3    0  503  0.16450333829E+02 -0.11524573440E+03  0.38988232198E+02  0.12285912677E+03  0.47000000000E+01 0.  1.
         11    1    4    4    0    0 -0.78106968320E+01  0.26110011665E+02  0.25215516691E+02  0.37128991047E+02  0.00000000000E+00 0. -1.
        -12    1    4    4    0    0  0.74032813443E+02 -0.20539162577E+02  0.56253878446E+02  0.95221917151E+02  0.00000000000E+00 0.  1.
<mgrwt>
<rscale>  2 0.22425730E+03</rscale>
<asrwt>0</asrwt>
<pdfrwt beam="1">  1       21 0.17003242E+00 0.22499360E+03</pdfrwt>
<pdfrwt beam="2">  1       21 0.12432999E-01 0.22499360E+03</pdfrwt>
<totfact> 0.11468544E+04</totfact>
</mgrwt>
</event>
<event>
12    1  0.1071811E-001  0.1875259E+03  0.7546771E-02  0.1160857E+00
         21   -1    0    0  501  502  0.00000000000E+00  0.00000000000E+00  0.82718276937E+03  0.82718276937E+03  0.00000000000E+00 0.  1.
         21   -1    0    0  502  503 -0.00000000000E+00 -0.00000000000E+00 -0.10605342599E+03  0.10605342599E+03  0.00000000000E+00 0. -1.
         -6    2    1    2    0  503 -0.47361947329E+02  0.51214274445E+02 -0.12631541623E+01  0.18690055836E+03  0.17339021655E+03 0.  0.
        -24    2    3    3    0    0  0.22415690613E+02  0.76168801276E+01  0.41354956030E+02  0.94121008539E+02  0.81166814718E+02 0.  0.
          6    2    1    2  501    0  0.47361947329E+02 -0.51214274445E+02  0.72239249754E+03  0.74633563701E+03  0.17406868357E+03 0.  0.
         24    2    5    5    0    0  0.48732921284E+02  0.22662137793E+02  0.49338474866E+03  0.50565692398E+03  0.96808803603E+02 0.  0.
          5    1    5    5  501    0 -0.13709739552E+01 -0.73876412238E+02  0.22900774889E+03  0.24067871303E+03  0.47000000000E+01 0. -1.
        -13    1    6    6    0    0  0.58507749464E+02 -0.17444011849E+02  0.19239619514E+03  0.20185080183E+03  0.00000000000E+00 0.  1.
         14    1    6    6    0    0 -0.97748281792E+01  0.40106149642E+02  0.30098855352E+03  0.30380612215E+03  0.00000000000E+00 0. -1.
         -5    1    3    3    0  503 -0.69777637942E+02  0.43597394318E+02 -0.42618110193E+02  0.92779549818E+02  0.47000000000E+01 0.  1.
         11    1    4    4    0    0  0.31485638907E+02 -0.16580859482E+02 -0.97134540551E+01  0.36886603912E+02  0.00000000000E+00 0. -1.
        -12    1    4    4    0    0 -0.90699482940E+01  0.24197739609E+02  0.51068410085E+02  0.57234404626E+02  0.00000000000E+00 0.  1.
<mgrwt>
<rscale>  2 0.18736830E+03</rscale>
<asrwt>0</asrwt>
<pdfrwt beam="1">  1       21 0.12725888E+00 0.18752590E+03</pdfrwt>
<pdfrwt beam="2">  1       21 0.16315912E-01 0.18752590E+03</pdfrwt>
<totfact> 0.15396187E+04</totfact>
</mgrwt>
</event>
<event>
12    1  0.1071811E-001  0.1838922E+03  0.7546771E-02  0.1164671E+00
         21   -1    0    0  501  502  0.00000000000E+00  0.00000000000E+00  0.11513157503E+04  0.11513157503E+04  0.00000000000E+00 0. -1.
         21   -1    0    0  502  503 -0.00000000000E+00 -0.00000000000E+00 -0.66556909068E+02  0.66556909068E+02  0.00000000000E+00 0. -1.
         -6    2    1    2    0  503  0.48953692224E+02  0.32310380887E+02  0.83253261135E+02  0.19962427270E+03  0.17169251604E+03 0.  0.
        -24    2    3    3    0    0  0.36353183320E+02 -0.46472555394E+02  0.29577655195E+02  0.10335026506E+03  0.79531045880E+02 0.  0.
          6    2    1    2  501    0 -0.48953692224E+02 -0.32310380887E+02  0.10015055801E+04  0.10182483867E+04  0.17428690511E+03 0.  0.
         24    2    5    5    0    0 -0.70528832431E+02  0.31933703985E+02  0.66622130667E+03  0.67615129062E+03  0.85648471651E+02 0.  0.
          5    1    5    5  501    0  0.21575140207E+02 -0.64244084872E+02  0.33528427347E+03  0.34209709609E+03  0.47000000000E+01 0. -1.
        -13    1    6    6    0    0 -0.10483342730E+02  0.30983614138E+02  0.46527750080E+03  0.46642581144E+03  0.00000000000E+00 0.  1.
         14    1    6    6    0    0 -0.60045489701E+02  0.95008984739E+00  0.20094380587E+03  0.20972547919E+03  0.00000000000E+00 0. -1.
         -5    1    3    3    0  503  0.12600508904E+02  0.78782936281E+02  0.53675605940E+02  0.96274007638E+02  0.47000000000E+01 0.  1.
         11    1    4    4    0    0 -0.10683506999E+02  0.15836331209E+02 -0.18499596937E+01  0.19192421911E+02  0.00000000000E+00 0. -1.
        -12    1    4    4    0    0  0.47036690318E+02 -0.62308886604E+02  0.31427614888E+02  0.84157843149E+02  0.00000000000E+00 0.  1.
<mgrwt>
<rscale>  2 0.18327487E+03</rscale>
<asrwt>0</asrwt>
<pdfrwt beam="1">  1       21 0.17712549E+00 0.18389222E+03</pdfrwt>
<pdfrwt beam="2">  1       21 0.10239525E-01 0.18389222E+03</pdfrwt>
<totfact> 0.14914289E+04</totfact>
</mgrwt>
</event>
<event>
12    1  0.1071811E-001  0.1938887E+03  0.7546771E-02  0.1155272E+00
         21   -1    0    0  503  502  0.00000000000E+00  0.00000000000E+00  0.46243268259E+02  0.46243268259E+02  0.00000000000E+00 0.  1.
         21   -1    0    0  501  503 -0.00000000000E+00 -0.00000000000E+00 -0.83507676778E+03  0.83507676778E+03  0.00000000000E+00 0.  1.
          6    2    1    2  501    0  0.40388277296E+02 -0.76752234521E+02 -0.31594112552E+03  0.37069076136E+03  0.17340913273E+03 0.  0.
         24    2    3    3    0    0  0.60468425712E+02 -0.10990461095E+03 -0.27955469158E+03  0.31732077917E+03  0.82499680573E+02 0.  0.
         -6    2    1    2    0  502 -0.40388277296E+02  0.76752234521E+02 -0.47289237400E+03  0.51062927469E+03  0.17202598736E+03 0.  0.
        -24    2    5    5    0    0  0.43413584096E+01  0.88187325709E+02 -0.16451821708E+03  0.19878281843E+03  0.68209334716E+02 0.  0.
          5    1    3    3  501    0 -0.20080148416E+02  0.33152376431E+02 -0.36386433939E+02  0.53369982183E+02  0.47000000000E+01 0. -1.
        -11    1    4    4    0    0  0.12973998366E+02 -0.82381954593E+02 -0.10356655673E+03  0.13297045818E+03  0.00000000000E+00 0.  1.
         12    1    4    4    0    0  0.47494427346E+02 -0.27522656360E+02 -0.17598813485E+03  0.18435032099E+03  0.00000000000E+00 0. -1.
         -5    1    5    5    0  502 -0.44729635706E+02 -0.11435091188E+02 -0.30837415693E+03  0.31184645626E+03  0.47000000000E+01 0.  1.
         13    1    6    6    0    0  0.34271146207E+02  0.47891810638E+02 -0.10933057205E+03  0.12418257113E+03  0.00000000000E+00 0. -1.
        -14    1    6    6    0    0 -0.29929787797E+02  0.40295515071E+02 -0.55187645027E+02  0.74600247292E+02  0.00000000000E+00 0.  1.
<mgrwt>
<rscale>  2 0.19357899E+03</rscale>
<asrwt>0</asrwt>
<pdfrwt beam="1">  1       21 0.71143502E-02 0.19388875E+03</pdfrwt>
<pdfrwt beam="2">  1       21 0.12847333E+00 0.19388875E+03</pdfrwt>
<totfact> 0.65462857E+04</totfact>
</mgrwt>
</event>
<event>
12    1  0.1071811E-001  0.2343432E+03  0.7546771E-02  0.1123644E+00
         21   -1    0    0  501  502  0.00000000000E+00  0.00000000000E+00  0.52144294161E+02  0.52144294161E+02  0.00000000000E+00 0.  1.
         21   -1    0    0  502  503 -0.00000000000E+00 -0.00000000000E+00 -0.11252015179E+04  0.11252015179E+04  0.00000000000E+00 0. -1.
         -6    2    1    2    0  503  0.15589190564E+03  0.22169848875E+02 -0.68598644943E+03  0.72486319323E+03  0.17336508199E+03 0.  0.
        -24    2    3    3    0    0  0.35348877962E+02  0.10911777200E+02 -0.46179064585E+03  0.47002360831E+03  0.79391320172E+02 0.  0.
          6    2    1    2  501    0 -0.15589190564E+03 -0.22169848875E+02 -0.38707077433E+03  0.45248261886E+03  0.17355963696E+03 0.  0.
         24    2    5    5    0    0 -0.31074690589E+02 -0.65767562768E+02 -0.18746808919E+03  0.21301775767E+03  0.70294181186E+02 0.  0.
          5    1    5    5  501    0 -0.12481721505E+03  0.43597713893E+02 -0.19960268514E+03  0.23946486119E+03  0.47000000000E+01 0. -1.
        -13    1    6    6    0    0 -0.41195815003E+02 -0.12883900738E+02 -0.54225415178E+02  0.69307183778E+02  0.00000000000E+00 0.  1.
         14    1    6    6    0    0  0.10121124415E+02 -0.52883662031E+02 -0.13324267401E+03  0.14371057389E+03  0.00000000000E+00 0. -1.
         -5    1    3    3    0  503  0.12054302767E+03  0.11258071674E+02 -0.22419580358E+03  0.25483958492E+03  0.47000000000E+01 0.  1.
         13    1    4    4    0    0  0.23300237942E+00  0.22363402703E+02 -0.34343224323E+02  0.40983327433E+02  0.00000000000E+00 0. -1.
        -14    1    4    4    0    0  0.35115875583E+02 -0.11451625502E+02 -0.42744742153E+03  0.42904028088E+03  0.00000000000E+00 0.  1.
<mgrwt>
<rscale>  2 0.23430718E+03</rscale>
<asrwt>0</asrwt>
<pdfrwt beam="1">  1       21 0.80221985E-02 0.23434320E+03</pdfrwt>
<pdfrwt beam="2">  1       21 0.17310794E+00 0.23434320E+03</pdfrwt>
<totfact> 0.23591836E+04</totfact>
</mgrwt>
</event>
<event>
12    1  0.1071811E-001  0.1775795E+03  0.7546771E-02  0.1171512E+00
         21   -1    0    0  501  502  0.00000000000E+00  0.00000000000E+00  0.19265860157E+03  0.19265860157E+03  0.00000000000E+00 0. -1.
         21   -1    0    0  502  503 -0.00000000000E+00 -0.00000000000E+00 -0.16484681750E+03  0.16484681750E+03  0.00000000000E+00 0. -1.
         -6    2    1    2    0  503 -0.28815291556E+01  0.16834092571E+01 -0.20631332893E+02  0.17343688375E+03  0.17217306314E+03 0.  0.
        -24    2    3    3    0    0 -0.47224151183E+02  0.15673195994E+02  0.34288215104E+02  0.10132427034E+03  0.81333612594E+02 0.  0.
          6    2    1    2  501    0  0.28815291556E+01 -0.16834092571E+01  0.48443116961E+02  0.18406853531E+03  0.17754817102E+03 0.  0.
         24    2    5    5    0    0  0.29542696071E+02  0.14676865842E+02  0.96447687875E+02  0.12657936023E+03  0.75046629894E+02 0.  0.
          5    1    5    5  501    0 -0.26661166915E+02 -0.16360275099E+02 -0.48004570915E+02  0.57489175080E+02  0.47000000000E+01 0. -1.
        -13    1    6    6    0    0  0.36249095007E+02 -0.18234227348E+02  0.25077333036E+02  0.47700697773E+02  0.00000000000E+00 0.  1.
         14    1    6    6    0    0 -0.67063989365E+01  0.32911093190E+02  0.71370354839E+02  0.78878662460E+02  0.00000000000E+00 0. -1.
         -5    1    3    3    0  503  0.44342622027E+02 -0.13989786737E+02 -0.54919547997E+02  0.72112613414E+02  0.47000000000E+01 0.  1.
         11    1    4    4    0    0 -0.39011444537E+02 -0.28975470594E+02  0.26212663922E+02  0.55213897263E+02  0.00000000000E+00 0. -1.
        -12    1    4    4    0    0 -0.82127066457E+01  0.44648666588E+02  0.80755511820E+01  0.46110373079E+02  0.00000000000E+00 0.  1.
<mgrwt>
<rscale>  2 0.17622048E+03</rscale>
<asrwt>0</asrwt>
<pdfrwt beam="1">  1       21 0.29639785E-01 0.17757953E+03</pdfrwt>
<pdfrwt beam="2">  1       21 0.25361049E-01 0.17757953E+03</pdfrwt>
<totfact> 0.16154129E+05</totfact>
</mgrwt>
</event>
<event>
12    1  0.1071811E-001  0.2478068E+03  0.7546771E-02  0.1115147E+00
         21   -1    0    0  503  502  0.00000000000E+00  0.00000000000E+00  0.45462083277E+03  0.45462083277E+03  0.00000000000E+00 0. -1.
         21   -1    0    0  501  503 -0.00000000000E+00 -0.00000000000E+00 -0.15831741529E+03  0.15831741529E+03  0.00000000000E+00 0.  1.
          6    2    1    2  501    0 -0.17251725343E+03 -0.33406140540E+02  0.27004940434E+03  0.36651725182E+03  0.17472848120E+03 0.  0.
         24    2    3    3    0    0 -0.49803434280E+02 -0.66962933295E+02  0.16262769708E+03  0.19994518651E+03  0.81030199619E+02 0.  0.
         -6    2    1    2    0  502  0.17251725343E+03  0.33406140540E+02  0.26254013141E+02  0.24642099625E+03  0.17075087475E+03 0.  0.
        -24    2    5    5    0    0  0.12884200354E+03  0.68610290865E+02  0.62975283788E+02  0.17920937991E+03  0.82719293931E+02 0.  0.
          5    1    3    3  501    0 -0.12271381915E+03  0.33556792755E+02  0.10742170726E+03  0.16657206531E+03  0.47000000000E+01 0. -1.
        -11    1    4    4    0    0 -0.16507067936E+02 -0.34837463224E+02  0.91172962450E+01  0.39613851448E+02  0.00000000000E+00 0.  1.
         12    1    4    4    0    0 -0.33296366344E+02 -0.32125470071E+02  0.15351040083E+03  0.16033133506E+03  0.00000000000E+00 0. -1.
         -5    1    5    5    0  502  0.43675249889E+02 -0.35204150325E+02 -0.36721270647E+02  0.67211616340E+02  0.47000000000E+01 0.  1.
         11    1    6    6    0    0  0.63539193072E+02  0.15622542675E+02  0.68756929783E+02  0.94914742211E+02  0.00000000000E+00 0. -1.
        -12    1    6    6    0    0  0.65302810471E+02  0.52987748190E+02 -0.57816459945E+01  0.84294637694E+02  0.00000000000E+00 0.  1.
<mgrwt>
<rscale>  2 0.24710676E+03</rscale>
<asrwt>0</asrwt>
<pdfrwt beam="1">  1       21 0.69941666E-01 0.24780681E+03</pdfrwt>
<pdfrwt beam="2">  1       21 0.24356526E-01 0.24780681E+03</pdfrwt>
<totfact> 0.28727134E+04</totfact>
</mgrwt>
</event>
<event>
12    1  0.1071811E-001  0.2126359E+03  0.7546771E-02  0.1139816E+00
         21   -1    0    0  501  502  0.00000000000E+00  0.00000000000E+00  0.17895179369E+03  0.17895179369E+03  0.00000000000E+00 0. -1.
         21   -1    0    0  502  503 -0.00000000000E+00 -0.00000000000E+00 -0.66537009180E+03  0.66537009180E+03  0.00000000000E+00 0. -1.
         -6    2    1    2    0  503 -0.38514052075E+02 -0.11589194836E+03 -0.57682798123E+03  0.61477194141E+03  0.17406821683E+03 0.  0.
        -24    2    3    3    0    0 -0.46867888154E+02 -0.15086172603E+03 -0.48355720338E+03  0.51470096695E+03  0.78317668013E+02 0.  0.
          6    2    1    2  501    0  0.38514052075E+02  0.11589194836E+03  0.90409683133E+02  0.22954994408E+03  0.17206100697E+03 0.  0.
         24    2    5    5    0    0  0.14952311890E+02  0.14025913785E+03  0.10522585258E+03  0.19226020821E+03  0.77429388642E+02 0.  0.
          5    1    5    5  501    0  0.23561740184E+02 -0.24367189491E+02 -0.14816169452E+02  0.37289735872E+02  0.47000000000E+01 0. -1.
        -13    1    6    6    0    0  0.12724357666E+02 -0.20139613471E+01 -0.33090316271E+01  0.13300940141E+02  0.00000000000E+00 0.  1.
         14    1    6    6    0    0  0.22279542248E+01  0.14227309920E+03  0.10853488421E+03  0.17895926807E+03  0.00000000000E+00 0. -1.
         -5    1    3    3    0  503  0.83538360795E+01  0.34969777667E+02 -0.93270777855E+02  0.10007097446E+03  0.47000000000E+01 0.  1.
         13    1    4    4    0    0 -0.30940711629E+02 -0.26916151575E+02 -0.20979839579E+03  0.21376897279E+03  0.00000000000E+00 0. -1.
        -14    1    4    4    0    0 -0.15927176525E+02 -0.12394557445E+03 -0.27375880759E+03  0.30093199416E+03  0.00000000000E+00 0.  1.
<mgrwt>
<rscale>  2 0.21222470E+03</rscale>
<asrwt>0</asrwt>
<pdfrwt beam="1">  1       21 0.27531045E-01 0.21263589E+03</pdfrwt>
<pdfrwt beam="2">  1       21 0.10236463E+00 0.21263589E+03</pdfrwt>
<totfact> 0.96385311E+03</totfact>
</mgrwt>
</event>
<event>
12    1  0.1071811E-001  0.2412807E+03  0.7546771E-02  0.1119507E+00
         21   -1    0    0  501  502  0.00000000000E+00  0.00000000000E+00  0.85249467882E+02  0.85249467882E+02  0.00000000000E+00 0.  1.
         21   -1    0    0  502  503 -0.00000000000E+00 -0.00000000000E+00 -0.11039540512E+04  0.11039540512E+04  0.00000000000E+00 0. -1.
         -6    2    1    2    0  503  0.14824582960E+03 -0.67956693640E+02 -0.88290009207E+03  0.91527534840E+03  0.17782421826E+03 0.  0.
        -24    2    3    3    0    0  0.66838529540E+02 -0.11749449400E+02 -0.20565501939E+03  0.23082711713E+03  0.79885745985E+02 0.  0.
          6    2    1    2  501    0 -0.14824582960E+03  0.67956693640E+02 -0.13580449128E+03  0.27392817072E+03  0.17320174554E+03 0.  0.
         24    2    5    5    0    0 -0.86385322919E+02  0.22735118525E+02 -0.15291188906E+03  0.19527407864E+03  0.82283718575E+02 0.  0.
          5    1    5    5  501    0 -0.61860506678E+02  0.45221575115E+02  0.17107397778E+02  0.78654092081E+02  0.47000000000E+01 0. -1.
        -13    1    6    6    0    0 -0.27821486612E+02  0.32131508940E+02 -0.14869498361E+02  0.45028557223E+02  0.00000000000E+00 0.  1.
         14    1    6    6    0    0 -0.58563836306E+02 -0.93963904157E+01 -0.13804239070E+03  0.15024552141E+03  0.00000000000E+00 0. -1.
         -5    1    3    3    0  503  0.81407300057E+02 -0.56207244240E+02 -0.67724507268E+03  0.68444823126E+03  0.47000000000E+01 0.  1.
         11    1    4    4    0    0  0.74972539583E+02 -0.23171920366E+02 -0.20143970184E+03  0.21618458100E+03  0.00000000000E+00 0. -1.
        -12    1    4    4    0    0 -0.81340100425E+01  0.11422470966E+02 -0.42153175489E+01  0.14642536132E+02  0.00000000000E+00 0.  1.
<mgrwt>
<rscale>  2 0.24042968E+03</rscale>
<asrwt>0</asrwt>
<pdfrwt beam="1">  1       21 0.13115304E-01 0.24128073E+03</pdfrwt>
<pdfrwt beam="2">  1       21 0.16983907E+00 0.24128073E+03</pdfrwt>
<totfact> 0.10334442E+04</totfact>
</mgrwt>
</event>
<event>
12    1  0.1071811E-001  0.2052618E+03  0.7546771E-02  0.1146902E+00
         21   -1    0    0  501  502  0.00000000000E+00  0.00000000000E+00  0.68531469996E+03  0.68531469996E+03  0.00000000000E+00 0.  1.
         21   -1    0    0  502  503 -0.00000000000E+00 -0.00000000000E+00 -0.87998909070E+02  0.87998909070E+02  0.00000000000E+00 0. -1.
         -6    2    1    2    0  503 -0.14636052281E+02 -0.94759821375E+02  0.52312280842E+03  0.56195184206E+03  0.18149039186E+03 0.  0.
        -24    2    3    3    0    0  0.42965606798E+02  0.87486965118E+00  0.27633253216E+03  0.29104323070E+03  0.80620624158E+02 0.  0.
          6    2    1    2  501    0  0.14636052281E+02  0.94759821375E+02  0.74192982476E+02  0.21136176697E+03  0.17313451451E+03 0.  0.
         24    2    5    5    0    0 -0.55645312539E+00  0.87269688292E+02 -0.22001313417E+02  0.11357451383E+03  0.69273402296E+02 0.  0.
          5    1    5    5  501    0  0.15192505406E+02  0.74901330831E+01  0.96194295892E+02  0.97787253138E+02  0.47000000000E+01 0. -1.
        -11    1    6    6    0    0 -0.31402604845E+01  0.50053661246E+02  0.22954763888E+02  0.55155701656E+02  0.00000000000E+00 0.  1.
         12    1    6    6    0    0  0.25838073591E+01  0.37216027046E+02 -0.44956077304E+02  0.58418812177E+02  0.00000000000E+00 0. -1.
         -5    1    3    3    0  503 -0.57601659079E+02 -0.95634691027E+02  0.24679027625E+03  0.27090861136E+03  0.47000000000E+01 0.  1.
         13    1    4    4    0    0  0.26057693342E+02 -0.24329772436E+02  0.43506259117E+02  0.56247095849E+02  0.00000000000E+00 0. -1.
        -14    1    4    4    0    0  0.16907913457E+02  0.25204642087E+02  0.23282627305E+03  0.23479613485E+03  0.00000000000E+00 0.  1.
<mgrwt>
<rscale>  2 0.20339916E+03</rscale>
<asrwt>0</asrwt>
<pdfrwt beam="1">  1       21 0.10543303E+00 0.20526178E+03</pdfrwt>
<pdfrwt beam="2">  1       21 0.13538294E-01 0.20526178E+03</pdfrwt>
<totfact> 0.33936625E+04</totfact>
</mgrwt>
</event>
<event>
12    1  0.1071811E-001  0.1774695E+03  0.7546771E-02  0.1170277E+00
         21   -1    0    0  503  502  0.00000000000E+00  0.00000000000E+00  0.28189799261E+03  0.28189799261E+03  0.00000000000E+00 0.  1.
         21   -1    0    0  501  503 -0.00000000000E+00 -0.00000000000E+00 -0.43875841056E+03  0.43875841056E+03  0.00000000000E+00 0.  1.
          6    2    1    2  501    0 -0.24774597672E+02  0.30047638781E+02 -0.38951812596E+03  0.42803887471E+03  0.17313655456E+03 0.  0.
         24    2    3    3    0    0 -0.16348063067E+02  0.46347460645E+02 -0.39696957963E+03  0.40768439511E+03  0.78780534313E+02 0.  0.
         -6    2    1    2    0  502  0.24774597672E+02 -0.30047638781E+02  0.23265770801E+03  0.29261752845E+03  0.17314377718E+03 0.  0.
        -24    2    5    5    0    0  0.16455717050E+02  0.49267909125E+02  0.99433195617E+02  0.13727590294E+03  0.79117606417E+02 0.  0.
          5    1    3    3  501    0 -0.84265346057E+01 -0.16299821864E+02  0.74514536691E+01  0.20354479606E+02  0.47000000000E+01 0. -1.
        -13    1    4    4    0    0 -0.28321978511E+02  0.42161998183E+02 -0.11850413154E+03  0.12893020496E+03  0.00000000000E+00 0.  1.
         14    1    4    4    0    0  0.11973915444E+02  0.41854624625E+01 -0.27846544809E+03  0.27875419015E+03  0.00000000000E+00 0. -1.
         -5    1    5    5    0  502  0.83188806222E+01 -0.79315547906E+02  0.13322451239E+03  0.15534162551E+03  0.47000000000E+01 0.  1.
         13    1    6    6    0    0  0.32420533029E+02  0.12201051503E+02  0.55456513810E+01  0.35081488978E+02  0.00000000000E+00 0. -1.
        -14    1    6    6    0    0 -0.15964815979E+02  0.37066857622E+02  0.93887544236E+02  0.10219441397E+03  0.00000000000E+00 0.  1.
<mgrwt>
<rscale>  2 0.17746770E+03</rscale>
<asrwt>0</asrwt>
<pdfrwt beam="1">  1       21 0.43368922E-01 0.17746946E+03</pdfrwt>
<pdfrwt beam="2">  1       21 0.67501294E-01 0.17746946E+03</pdfrwt>
<totfact> 0.10366242E+04</totfact>
</mgrwt>
</event>
<event>
12    1  0.1071811E-001  0.1833141E+03  0.7546771E-02  0.1164662E+00
         21   -1    0    0  501  502  0.00000000000E+00  0.00000000000E+00  0.55512892020E+02  0.55512892020E+02  0.00000000000E+00 0.  1.
         21   -1    0    0  502  503 -0.00000000000E+00 -0.00000000000E+00 -0.65474826991E+03  0.65474826991E+03  0.00000000000E+00 0.  1.
         -6    2    1    2    0  503 -0.46030732323E+02  0.38769466944E+02 -0.20157746269E+03  0.27238461376E+03  0.17302602250E+03 0.  0.
        -24    2    3    3    0    0  0.27096202837E+02  0.62985821065E+02 -0.12237062599E+03  0.16179621729E+03  0.80635153388E+02 0.  0.
          6    2    1    2  501    0  0.46030732323E+02 -0.38769466944E+02 -0.39765791520E+03  0.43787654817E+03  0.17315355622E+03 0.  0.
         24    2    5    5    0    0 -0.28957460898E+02 -0.17447841733E+02 -0.11588843099E+03  0.14548302386E+03  0.81192487783E+02 0.  0.
          5    1    5    5  501    0  0.74988193221E+02 -0.21321625211E+02 -0.28176948421E+03  0.29239352431E+03  0.47000000000E+01 0. -1.
        -11    1    6    6    0    0  0.28484226679E+02 -0.90498126728E+01 -0.38338408240E+02  0.48611560614E+02  0.00000000000E+00 0.  1.
         12    1    6    6    0    0 -0.57441687576E+02 -0.83980290602E+01 -0.77550022747E+02  0.96871463248E+02  0.00000000000E+00 0. -1.
         -5    1    3    3    0  503 -0.73126935160E+02 -0.24216354121E+02 -0.79206836700E+02  0.11058839647E+03  0.47000000000E+01 0.  1.
         11    1    4    4    0    0  0.98776556763E+01  0.24769084919E+02  0.55029029946E+01  0.27227882598E+02  0.00000000000E+00 0. -1.
        -12    1    4    4    0    0  0.17218547161E+02  0.38216736146E+02 -0.12787352898E+03  0.13456833469E+03  0.00000000000E+00 0.  1.
<mgrwt>
<rscale>  2 0.18328396E+03</rscale>
<asrwt>0</asrwt>
<pdfrwt beam="1">  1       21 0.85404452E-02 0.18331409E+03</pdfrwt>
<pdfrwt beam="2">  1       21 0.10073050E+00 0.18331409E+03</pdfrwt>
<totfact> 0.86738097E+04</totfact>
</mgrwt>
</event>
<event>
12    1  0.1071811E-001  0.2042521E+03  0.7546771E-02  0.1146434E+00
         21   -1    0    0  501  502  0.00000000000E+00  0.00000000000E+00  0.36892173595E+02  0.36892173595E+02  0.00000000000E+00 0.  1.
         21   -1    0    0  502  503 -0.00000000000E+00 -0.00000000000E+00 -0.16271155905E+04  0.16271155905E+04  0.00000000000E+00 0. -1.
         -6    2    1    2    0  503 -0.82715915770E+02  0.69563373207E+02 -0.12559719738E+04  0.12722898348E+04  0.17197336741E+03 0.  0.
        -24    2    3    3    0    0 -0.31246114498E+01  0.64732191563E+02 -0.97370917480E+03  0.97894278138E+03  0.77584742724E+02 0.  0.
          6    2    1    2  501    0  0.82715915770E+02 -0.69563373207E+02 -0.33425144311E+03  0.39171792932E+03  0.17331452137E+03 0.  0.
         24    2    5    5    0    0  0.18893270794E+01 -0.36136768929E+02 -0.68486660428E+02  0.11189068792E+03  0.80744459638E+02 0.  0.
          5    1    5    5  501    0  0.80826588691E+02 -0.33426604278E+02 -0.26576478268E+03  0.27982724140E+03  0.47000000000E+01 0. -1.
        -11    1    6    6    0    0 -0.10880576539E+02 -0.58137456274E+02 -0.61896656232E+02  0.85612772532E+02  0.00000000000E+00 0.  1.
         12    1    6    6    0    0  0.12769903619E+02  0.22000687345E+02 -0.65900041955E+01  0.26277915393E+02  0.00000000000E+00 0. -1.
         -5    1    3    3    0  503 -0.79591304321E+02  0.48311816441E+01 -0.28226279900E+03  0.29334705340E+03  0.47000000000E+01 0.  1.
         13    1    4    4    0    0 -0.24762508353E+02 -0.73203749777E+01 -0.26065978550E+03  0.26193566670E+03  0.00000000000E+00 0. -1.
        -14    1    4    4    0    0  0.21637896903E+02  0.72052566541E+02 -0.71304938930E+03  0.71700711469E+03  0.00000000000E+00 0.  1.
<mgrwt>
<rscale>  2 0.20396728E+03</rscale>
<asrwt>0</asrwt>
<pdfrwt beam="1">  1       21 0.56757178E-02 0.20425207E+03</pdfrwt>
<pdfrwt beam="2">  1       21 0.25032553E+00 0.20425207E+03</pdfrwt>
<totfact> 0.14204624E+04</totfact>
</mgrwt>
</event>
<event>
12    1  0.1071811E-001  0.1752565E+03  0.7546771E-02  0.1172484E+00
         21   -1    0    0  503  502  0.00000000000E+00  0.00000000000E+00  0.47898635566E+02  0.47898635566E+02  0.00000000000E+00 0. -1.
         21   -1    0    0  501  503 -0.00000000000E+00 -0.00000000000E+00 -0.64163172570E+03  0.64163172570E+03  0.00000000000E+00 0. -1.
          6    2    1    2  501    0  0.26415414165E+01 -0.32763399019E+02 -0.30678349254E+03  0.35331423433E+03  0.17214650397E+03 0.  0.
         24    2    3    3    0    0 -0.37726561692E+01 -0.71874944321E+02 -0.29113372784E+03  0.31044396443E+03  0.80226971800E+02 0.  0.
         -6    2    1    2    0  502 -0.26415414165E+01  0.32763399019E+02 -0.28694959760E+03  0.33621612694E+03  0.17210692721E+03 0.  0.
        -24    2    5    5    0    0 -0.10090497564E+02  0.71849982190E+01 -0.40920516018E+02  0.88704227187E+02  0.77720711198E+02 0.  0.
          5    1    3    3  501    0  0.64141975857E+01  0.39111545302E+02 -0.15649764693E+02  0.42870269903E+02  0.47000000000E+01 0. -1.
        -13    1    4    4    0    0  0.35792782413E+02 -0.15736304811E+02 -0.10501597970E+03  0.11205851397E+03  0.00000000000E+00 0.  1.
         14    1    4    4    0    0 -0.39565438582E+02 -0.56138639510E+02 -0.18611774815E+03  0.19838545045E+03  0.00000000000E+00 0. -1.
         -5    1    5    5    0  502  0.74489561473E+01  0.25578400800E+02 -0.24602908158E+03  0.24751189975E+03  0.47000000000E+01 0.  1.
         13    1    6    6    0    0  0.10935098090E+02  0.38705403024E+02 -0.15635489711E+02  0.43152672362E+02  0.00000000000E+00 0. -1.
        -14    1    6    6    0    0 -0.21025595654E+02 -0.31520404805E+02 -0.25285026307E+02  0.45551554825E+02  0.00000000000E+00 0.  1.
<mgrwt>
<rscale>  2 0.17524677E+03</rscale>
<asrwt>0</asrwt>
<pdfrwt beam="1">  1       21 0.73690203E-02 0.17525649E+03</pdfrwt>
<pdfrwt beam="2">  1       21 0.98712581E-01 0.17525649E+03</pdfrwt>
<totfact> 0.11796364E+05</totfact>
</mgrwt>
</event>
<event>
12    1  0.1071811E-001  0.1975419E+03  0.7546771E-02  0.1152663E+00
         21   -1    0    0  501  502  0.00000000000E+00  0.00000000000E+00  0.14660930921E+03  0.14660930921E+03  0.00000000000E+00 0. -1.
         21   -1    0    0  502  503 -0.00000000000E+00 -0.00000000000E+00 -0.45965822051E+03  0.45965822051E+03  0.00000000000E+00 0. -1.
         -6    2    1    2    0  503 -0.80993756467E+02  0.32485041010E+02 -0.35667124602E+03  0.40772192037E+03  0.17722166947E+03 0.  0.
        -24    2    3    3    0    0 -0.85659194500E+02 -0.37097122113E+02 -0.26489449332E+03  0.29235942180E+03  0.81186481986E+02 0.  0.
          6    2    1    2  501    0  0.80993756467E+02 -0.32485041010E+02  0.43622334714E+02  0.19854560935E+03  0.17292248099E+03 0.  0.
         24    2    5    5    0    0  0.44852836887E+02  0.35098868282E+02  0.48744699041E+02  0.12159056092E+03  0.95731454020E+02 0.  0.
          5    1    5    5  501    0  0.36140919580E+02 -0.67583909292E+02 -0.51223643273E+01  0.76955048434E+02  0.47000000000E+01 0. -1.
        -13    1    6    6    0    0 -0.15246687030E+02 -0.69755748133E+01 -0.16417875404E+02  0.23466289483E+02  0.00000000000E+00 0.  1.
         14    1    6    6    0    0  0.60099523917E+02  0.42074443095E+02  0.65162574445E+02  0.98124271437E+02  0.00000000000E+00 0. -1.
         -5    1    3    3    0  503  0.46654380330E+01  0.69582163123E+02 -0.91776752707E+02  0.11536249856E+03  0.47000000000E+01 0.  1.
         13    1    4    4    0    0 -0.14799227725E+02 -0.35854081112E+02 -0.36646791126E+02  0.53362154880E+02  0.00000000000E+00 0. -1.
        -14    1    4    4    0    0 -0.70859966775E+02 -0.12430410016E+01 -0.22824770219E+03  0.23899726692E+03  0.00000000000E+00 0.  1.
<mgrwt>
<rscale>  2 0.19657284E+03</rscale>
<asrwt>0</asrwt>
<pdfrwt beam="1">  1       21 0.22555278E-01 0.19754186E+03</pdfrwt>
<pdfrwt beam="2">  1       21 0.70716649E-01 0.19754186E+03</pdfrwt>
<totfact> 0.33276582E+04</totfact>
</mgrwt>
</event>
<event>
12    1  0.1071811E-001  0.2115068E+03  0.7546771E-02  0.1141148E+00
         21   -1    0    0  501  502  0.00000000000E+00  0.00000000000E+00  0.17982768668E+04  0.17982768668E+04  0.00000000000E+00 0.  1.
         21   -1    0    0  502  503 -0.00000000000E+00 -0.00000000000E+00 -0.57909004606E+02  0.57909004606E+02  0.00000000000E+00 0.  1.
         -6    2    1    2    0  503 -0.12788547817E+02  0.12572310277E+03  0.16103197149E+03  0.26275028031E+03  0.16473180761E+03 0.  0.
        -24    2    3    3    0    0  0.32570564109E+02  0.39422947543E+02  0.30534658413E+02  0.99787693971E+02  0.80063774982E+02 0.  0.
          6    2    1    2  501    0  0.12788547817E+02 -0.12572310277E+03  0.15793358908E+04  0.15934355911E+04  0.16960330707E+03 0.  0.
         24    2    5    5    0    0  0.58151346521E+02 -0.38984586150E+02  0.10402914860E+04  0.10455557557E+04  0.77968489806E+02 0.  0.
          5    1    5    5  501    0 -0.45362798704E+02 -0.86738516621E+02  0.53904440472E+03  0.54787983540E+03  0.47000000000E+01 0. -1.
        -11    1    6    6    0    0  0.54027233715E+02 -0.57488583867E+02  0.95139171107E+03  0.95465704164E+03  0.00000000000E+00 0.  1.
         12    1    6    6    0    0  0.41241128062E+01  0.18503997717E+02  0.88899774957E+02  0.90898714102E+02  0.00000000000E+00 0. -1.
         -5    1    3    3    0  503 -0.45359111925E+02  0.86300155228E+02  0.13049731308E+03  0.16296258634E+03  0.47000000000E+01 0.  1.
         11    1    4    4    0    0 -0.58391685660E+01  0.49219159603E+01 -0.23704526757E+02  0.24904331652E+02  0.00000000000E+00 0. -1.
        -12    1    4    4    0    0  0.38409732675E+02  0.34501031582E+02  0.54239185170E+02  0.74883362319E+02  0.00000000000E+00 0.  1.
<mgrwt>
<rscale>  2 0.21052855E+03</rscale>
<asrwt>0</asrwt>
<pdfrwt beam="1">  1       21 0.27665794E+00 0.21150680E+03</pdfrwt>
<pdfrwt beam="2">  1       21 0.89090790E-02 0.21150680E+03</pdfrwt>
<totfact> 0.45333335E+03</totfact>
</mgrwt>
</event>
<event>
12    1  0.1071811E-001  0.2047605E+03  0.7546771E-02  0.1146211E+00
         21   -1    0    0  503  502  0.00000000000E+00  0.00000000000E+00  0.47694694202E+03  0.47694694202E+03  0.00000000000E+00 0.  1.
         21   -1    0    0  501  503 -0.00000000000E+00 -0.00000000000E+00 -0.87016057764E+02  0.87016057764E+02  0.00000000000E+00 0.  1.
          6    2    1    2  501    0  0.25817516610E+02 -0.10545076351E+03  0.19396292304E+03  0.28053695199E+03  0.17115185722E+03 0.  0.
         24    2    3    3    0    0  0.36714328758E+00 -0.13798259354E+03  0.16509960663E+03  0.22992842997E+03  0.81054746221E+02 0.  0.
         -6    2    1    2    0  502 -0.25817516610E+02  0.10545076351E+03  0.19596796122E+03  0.28342604779E+03  0.17361012371E+03 0.  0.
        -24    2    5    5    0    0 -0.47719504737E+02  0.56667941767E+02  0.20033098123E+03  0.22956895240E+03  0.84148648873E+02 0.  0.
          5    1    3    3  501    0  0.25450373322E+02  0.32531830027E+02  0.28863316407E+02  0.50608522021E+02  0.47000000000E+01 0. -1.
        -13    1    4    4    0    0  0.54529597645E+01 -0.59677654599E+02  0.13160973264E+03  0.14461078437E+03  0.00000000000E+00 0.  1.
         14    1    4    4    0    0 -0.50858164769E+01 -0.78304938938E+02  0.33489873985E+02  0.85317645600E+02  0.00000000000E+00 0. -1.
         -5    1    5    5    0  502  0.21901988127E+02  0.48782821743E+02 -0.43630200117E+01  0.53857095398E+02  0.47000000000E+01 0.  1.
         11    1    6    6    0    0 -0.41060890038E+01 -0.18580914126E+02  0.13039727451E+02  0.23068264535E+02  0.00000000000E+00 0. -1.
        -12    1    6    6    0    0 -0.43613415733E+02  0.75248855893E+02  0.18729125378E+03  0.20650068786E+03  0.00000000000E+00 0.  1.
<mgrwt>
<rscale>  2 0.20423853E+03</rscale>
<asrwt>0</asrwt>
<pdfrwt beam="1">  1       21 0.73376452E-01 0.20476055E+03</pdfrwt>
<pdfrwt beam="2">  1       21 0.13387086E-01 0.20476055E+03</pdfrwt>
<totfact> 0.80056485E+04</totfact>
</mgrwt>
</event>
<event>
12    1  0.1071811E-001  0.2168866E+03  0.7546771E-02  0.1136357E+00
         21   -1    0    0  503  502  0.00000000000E+00  0.00000000000E+00  0.10900118215E+03  0.10900118215E+03  0.00000000000E+00 0. -1.
         21   -1    0    0  501  503 -0.00000000000E+00 -0.00000000000E+00 -0.58834501280E+03  0.58834501280E+03  0.00000000000E+00 0. -1.
          6    2    1    2  501    0 -0.54061424918E+02  0.11581221176E+03 -0.42073129399E+03  0.47334409819E+03  0.17522758772E+03 0.  0.
         24    2    3    3    0    0  0.32074015230E+01  0.21766051327E+02 -0.82573301425E+02  0.11767948552E+03  0.80907742455E+02 0.  0.
         -6    2    1    2    0  502  0.54061424918E+02 -0.11581221176E+03 -0.58612536662E+02  0.22400209676E+03  0.17437432105E+03 0.  0.
        -24    2    5    5    0    0  0.42545857372E+02 -0.98510826450E+01  0.16881577181E+02  0.93304658357E+02  0.80706739583E+02 0.  0.
          5    1    3    3  501    0 -0.57268826441E+02  0.94046160433E+02 -0.33815799256E+03  0.35566461267E+03  0.47000000000E+01 0. -1.
        -13    1    4    4    0    0 -0.20901664187E+02 -0.18095651203E+02 -0.63800256926E+01  0.28373171942E+02  0.00000000000E+00 0.  1.
         14    1    4    4    0    0  0.24109065710E+02  0.39861702530E+02 -0.76193275733E+02  0.89306313578E+02  0.00000000000E+00 0. -1.
         -5    1    5    5    0  502  0.11515567546E+02 -0.10596112911E+03 -0.75494113843E+02  0.13069743840E+03  0.47000000000E+01 0.  1.
         13    1    6    6    0    0  0.15603085686E+02 -0.32029296911E+02  0.38340002182E+02  0.52338206989E+02  0.00000000000E+00 0. -1.
        -14    1    6    6    0    0  0.26942771687E+02  0.22178214266E+02 -0.21458425001E+02  0.40966451368E+02  0.00000000000E+00 0.  1.
<mgrwt>
<rscale>  2 0.21671423E+03</rscale>
<asrwt>0</asrwt>
<pdfrwt beam="1">  1       21 0.16769413E-01 0.21688664E+03</pdfrwt>
<pdfrwt beam="2">  1       21 0.90514615E-01 0.21688664E+03</pdfrwt>
<totfact> 0.32733988E+04</totfact>
</mgrwt>
</event>
<event>
12    1  0.1071811E-001  0.1880380E+03  0.7546771E-02  0.1160511E+00
         21   -1    0    0  503  502  0.00000000000E+00  0.00000000000E+00  0.21751230496E+03  0.21751230496E+03  0.00000000000E+00 0. -1.
         21   -1    0    0  501  503 -0.00000000000E+00 -0.00000000000E+00 -0.19828545610E+03  0.19828545610E+03  0.00000000000E+00 0. -1.
          6    2    1    2  501    0  0.63436422319E+02  0.29423704731E+02 -0.79850006041E+02  0.20428979461E+03  0.17455189096E+03 0.  0.
         24    2    3    3    0    0  0.19885930384E+00 -0.43973842400E+02 -0.40191317567E+02  0.99499094291E+02  0.79693095037E+02 0.  0.
         -6    2    1    2    0  502 -0.63436422319E+02 -0.29423704731E+02  0.99076854901E+02  0.21150796645E+03  0.17329011114E+03 0.  0.
        -24    2    5    5    0    0 -0.84736099762E+02 -0.38238065198E+01  0.12220181682E+03  0.17069271304E+03  0.83713142039E+02 0.  0.
          5    1    3    3  501    0  0.63237563015E+02  0.73397547131E+02 -0.39658688474E+02  0.10479070031E+03  0.47000000000E+01 0. -1.
        -11    1    4    4    0    0 -0.35900891436E+02 -0.66153290649E+01 -0.52251549160E+01  0.36877348446E+02  0.00000000000E+00 0.  1.
         12    1    4    4    0    0  0.36099750740E+02 -0.37358513335E+02 -0.34966162651E+02  0.62621745844E+02  0.00000000000E+00 0. -1.
         -5    1    5    5    0  502  0.21299677443E+02 -0.25599898211E+02 -0.23124961919E+02  0.40815253416E+02  0.47000000000E+01 0.  1.
         11    1    6    6    0    0 -0.92649741421E+02 -0.23935292490E+02  0.86684331359E+02  0.12911640529E+03  0.00000000000E+00 0. -1.
        -12    1    6    6    0    0  0.79136416583E+01  0.20111485970E+02  0.35517485461E+02  0.41576307745E+02  0.00000000000E+00 0.  1.
<mgrwt>
<rscale>  2 0.18774466E+03</rscale>
<asrwt>0</asrwt>
<pdfrwt beam="1">  1       21 0.33463432E-01 0.18803802E+03</pdfrwt>
<pdfrwt beam="2">  1       21 0.30505455E-01 0.18803802E+03</pdfrwt>
<totfact> 0.88872489E+04</totfact>
</mgrwt>
</event>
<event>
12    1  0.1071811E-001  0.2615429E+03  0.7546771E-02  0.1106273E+00
         21   -1    0    0  501  502  0.00000000000E+00  0.00000000000E+00  0.88323390571E+02  0.88323390571E+02  0.00000000000E+00 0.  1.
         21   -1    0    0  502  503 -0.00000000000E+00 -0.00000000000E+00 -0.21250418642E+04  0.21250418642E+04  0.00000000000E+00 0.  1.
         -6    2    1    2    0  503 -0.15912885045E+03  0.11423874776E+03 -0.19012216691E+04  0.19191270223E+04  0.17329803872E+03 0.  0.
        -24    2    3    3    0    0 -0.64631488718E+02  0.12016644669E+03 -0.14063734566E+04  0.14152800888E+04  0.80710756001E+02 0.  0.
          6    2    1    2  501    0  0.15912885045E+03 -0.11423874776E+03 -0.13549680455E+03  0.29423823247E+03  0.17275494455E+03 0.  0.
         24    2    5    5    0    0  0.25904988366E+02 -0.67345905716E+02 -0.96101720278E+02  0.14753581692E+03  0.85584678504E+02 0.  0.
          5    1    5    5  501    0  0.13322386208E+03 -0.46892842047E+02 -0.39395084270E+02  0.14670241555E+03  0.47000000000E+01 0. -1.
        -13    1    6    6    0    0  0.39860989013E+02 -0.32768126530E+01 -0.13805937459E+02  0.42311226115E+02  0.00000000000E+00 0.  1.
         14    1    6    6    0    0 -0.13956000647E+02 -0.64069093063E+02 -0.82295782819E+02  0.10522459080E+03  0.00000000000E+00 0. -1.
         -5    1    3    3    0  503 -0.94497361727E+02 -0.59276989255E+01 -0.49484821250E+03  0.50384693351E+03  0.47000000000E+01 0.  1.
         13    1    4    4    0    0  0.21677896038E+01  0.77364706497E+02 -0.58840010053E+03  0.59346834409E+03  0.00000000000E+00 0. -1.
        -14    1    4    4    0    0 -0.66799278322E+02  0.42801740192E+02 -0.81797335608E+03  0.82181174474E+03  0.00000000000E+00 0.  1.
<mgrwt>
<rscale>  2 0.26145298E+03</rscale>
<asrwt>0</asrwt>
<pdfrwt beam="1">  1       21 0.13588214E-01 0.26154291E+03</pdfrwt>
<pdfrwt beam="2">  1       21 0.32692952E+00 0.26154291E+03</pdfrwt>
<totfact> 0.10307054E+03</totfact>
</mgrwt>
</event>
<event>
12    1  0.1071811E-001  0.1737717E+03  0.7546771E-02  0.1174005E+00
         21   -1    0    0  503  502  0.00000000000E+00  0.00000000000E+00  0.10215456014E+03  0.10215456014E+03  0.00000000000E+00 0.  1.
         21   -1    0    0  501  503 -0.00000000000E+00 -0.00000000000E+00 -0.29904622869E+03  0.29904622869E+03  0.00000000000E+00 0.  1.
          6    2    1    2  501    0  0.11951395717E+02 -0.54133092893E+01 -0.12073879904E+03  0.21159978896E+03  0.17327571474E+03 0.  0.
         24    2    3    3    0    0 -0.79818611856E+01  0.65515553189E+01 -0.15221310809E+03  0.17218894216E+03  0.79834632478E+02 0.  0.
         -6    2    1    2    0  502 -0.11951395717E+02  0.54133092893E+01 -0.76152869503E+02  0.18960099987E+03  0.17313907658E+03 0.  0.
        -24    2    5    5    0    0 -0.15092783355E+02 -0.43598200050E+02 -0.98522749381E+02  0.13542999388E+03  0.80659506193E+02 0.  0.
          5    1    3    3  501    0  0.19933256903E+02 -0.11964864608E+02  0.31474309048E+02  0.39410846805E+02  0.47000000000E+01 0. -1.
        -13    1    4    4    0    0 -0.80530161966E+00  0.42634918013E+02 -0.67631642263E+02  0.79952634602E+02  0.00000000000E+00 0.  1.
         14    1    4    4    0    0 -0.71765595660E+01 -0.36083362694E+02 -0.84581465827E+02  0.92236307558E+02  0.00000000000E+00 0. -1.
         -5    1    5    5    0  502  0.31413876381E+01  0.49011509340E+02  0.22369879878E+02  0.54171005989E+02  0.47000000000E+01 0.  1.
         11    1    6    6    0    0  0.22383723142E+02  0.71829585450E+01 -0.51863221024E+02  0.56942248376E+02  0.00000000000E+00 0. -1.
        -12    1    6    6    0    0 -0.37476506497E+02 -0.50781158595E+02 -0.46659528357E+02  0.78487745502E+02  0.00000000000E+00 0.  1.
<mgrwt>
<rscale>  2 0.17373765E+03</rscale>
<asrwt>0</asrwt>
<pdfrwt beam="1">  1       21 0.15716086E-01 0.17377173E+03</pdfrwt>
<pdfrwt beam="2">  1       21 0.46007111E-01 0.17377173E+03</pdfrwt>
<totfact> 0.16410689E+05</totfact>
</mgrwt>
</event>
<event>
12    1  0.1071811E-001  0.2070077E+03  0.7546771E-02  0.1144220E+00
         21   -1    0    0  503  502  0.00000000000E+00  0.00000000000E+00  0.40320706085E+03  0.40320706085E+03  0.00000000000E+00 0.  1.
         21   -1    0    0  501  503 -0.00000000000E+00 -0.00000000000E+00 -0.12446885802E+03  0.12446885802E+03  0.00000000000E+00 0. -1.
          6    2    1    2  501    0 -0.61898609142E+02 -0.97579619883E+02  0.37051845670E+02  0.21029746539E+03  0.17175262634E+03 0.  0.
         24    2    3    3    0    0 -0.10723542111E+03 -0.58227585025E+02  0.30496573488E+02  0.14972461041E+03  0.81225185559E+02 0.  0.
         -6    2    1    2    0  502  0.61898609142E+02  0.97579619883E+02  0.24168635717E+03  0.31737845348E+03  0.17018686042E+03 0.  0.
        -24    2    5    5    0    0  0.82858095667E+02  0.11175097284E+03  0.24369551327E+03  0.29156655644E+03  0.79182129940E+02 0.  0.
          5    1    3    3  501    0  0.45336811973E+02 -0.39352034858E+02  0.65552721827E+01  0.60572854983E+02  0.47000000000E+01 0. -1.
        -11    1    4    4    0    0 -0.23436753784E+02 -0.52045653456E+01  0.43525535343E+02  0.49707556319E+02  0.00000000000E+00 0.  1.
         12    1    4    4    0    0 -0.83798667331E+02 -0.53023019679E+02 -0.13028961855E+02  0.10001705409E+03  0.00000000000E+00 0. -1.
         -5    1    5    5    0  502 -0.20959486525E+02 -0.14171352960E+02 -0.20091561004E+01  0.25811897031E+02  0.47000000000E+01 0.  1.
         11    1    6    6    0    0  0.93962948212E+00  0.24416640339E+02  0.56168833989E+01  0.25071988516E+02  0.00000000000E+00 0. -1.
        -12    1    6    6    0    0  0.81918466185E+02  0.87334332504E+02  0.23807862987E+03  0.26649456793E+03  0.00000000000E+00 0.  1.
<mgrwt>
<rscale>  2 0.20668262E+03</rscale>
<asrwt>0</asrwt>
<pdfrwt beam="1">  1       21 0.62031855E-01 0.20700769E+03</pdfrwt>
<pdfrwt beam="2">  1       21 0.19149055E-01 0.20700769E+03</pdfrwt>
<totfact> 0.59969983E+04</totfact>
</mgrwt>
</event>
<event>
12    1  0.1071811E-001  0.1755212E+03  0.7546771E-02  0.1172691E+00
         21   -1    0    0  503  502  0.00000000000E+00  0.00000000000E+00  0.99948815110E+02  0.99948815110E+02  0.00000000000E+00 0.  1.
         21   -1    0    0  501  503 -0.00000000000E+00 -0.00000000000E+00 -0.34498111916E+03  0.34498111916E+03  0.00000000000E+00 0.  1.
          6    2    1    2  501    0 -0.15485634371E+02  0.70538797153E+01 -0.19895850034E+03  0.26531523265E+03  0.17469437806E+03 0.  0.
         24    2    3    3    0    0 -0.41457127082E+02 -0.48434091369E+02 -0.75144976110E+02  0.12709326568E+03  0.80258184345E+02 0.  0.
         -6    2    1    2    0  502  0.15485634371E+02 -0.70538797153E+01 -0.46073803708E+02  0.17961470163E+03  0.17276887324E+03 0.  0.
        -24    2    5    5    0    0 -0.22444291832E+02  0.54001845665E+01 -0.97522752295E+02  0.11432406424E+03  0.55012691455E+02 0.  0.
          5    1    3    3  501    0  0.25971492711E+02  0.55487971084E+02 -0.12381352423E+03  0.13822196697E+03  0.47000000000E+01 0. -1.
        -13    1    4    4    0    0 -0.18957573825E+02  0.13032109349E+02 -0.53361048455E+02  0.58108751248E+02  0.00000000000E+00 0.  1.
         14    1    4    4    0    0 -0.22499553257E+02 -0.61466200718E+02 -0.21783927655E+02  0.68984514433E+02  0.00000000000E+00 0. -1.
         -5    1    5    5    0  502  0.37929926203E+02 -0.12454064282E+02  0.51448948586E+02  0.65290637381E+02  0.47000000000E+01 0.  1.
         11    1    6    6    0    0 -0.26744489802E+02 -0.17293985776E+02 -0.77375813439E+02  0.83674166768E+02  0.00000000000E+00 0. -1.
        -12    1    6    6    0    0  0.43001979703E+01  0.22694170343E+02 -0.20146938855E+02  0.30649897477E+02  0.00000000000E+00 0.  1.
<mgrwt>
<rscale>  2 0.17504013E+03</rscale>
<asrwt>0</asrwt>
<pdfrwt beam="1">  1       21 0.15376740E-01 0.17552119E+03</pdfrwt>
<pdfrwt beam="2">  1       21 0.53074020E-01 0.17552119E+03</pdfrwt>
<totfact> 0.12684738E+05</totfact>
</mgrwt>
</event>
<event>
12    1  0.1071811E-001  0.2274316E+03  0.7546771E-02  0.1128865E+00
         21   -1    0    0  503  502  0.00000000000E+00  0.00000000000E+00  0.27441713976E+03  0.27441713976E+03  0.00000000000E+00 0.  1.
         21   -1    0    0  501  503 -0.00000000000E+00 -0.00000000000E+00 -0.32693918735E+03  0.32693918735E+03  0.00000000000E+00 0.  1.
          6    2    1    2  501    0 -0.12105321145E+03  0.79704261203E+02 -0.22331137317E+03  0.31873675559E+03  0.17526694133E+03 0.  0.
         24    2    3    3    0    0 -0.14821397240E+03  0.65100551313E+02 -0.12358377991E+03  0.21424437245E+03  0.66499902788E+02 0.  0.
         -6    2    1    2    0  502  0.12105321145E+03 -0.79704261203E+02  0.17078932558E+03  0.28261957151E+03  0.17233159669E+03 0.  0.
        -24    2    5    5    0    0  0.10149993365E+03 -0.97071042174E+02  0.18997561064E+03  0.24984550725E+03  0.81283584424E+02 0.  0.
          5    1    3    3  501    0  0.27160760958E+02  0.14603709890E+02 -0.99727593261E+02  0.10449238315E+03  0.47000000000E+01 0. -1.
        -11    1    4    4    0    0 -0.10250489931E+03  0.19995147596E+02 -0.47640048763E+02  0.11478952285E+03  0.00000000000E+00 0.  1.
         12    1    4    4    0    0 -0.45709073094E+02  0.45105403717E+02 -0.75943731147E+02  0.99454849595E+02  0.00000000000E+00 0. -1.
         -5    1    5    5    0  502  0.19553277799E+02  0.17366780972E+02 -0.19186285059E+02  0.32774064264E+02  0.47000000000E+01 0.  1.
         13    1    6    6    0    0  0.36008985538E+02 -0.68006898849E+02  0.14798659494E+03  0.16679813432E+03  0.00000000000E+00 0. -1.
        -14    1    6    6    0    0  0.65490948109E+02 -0.29064143325E+02  0.41989015697E+02  0.83047372931E+02  0.00000000000E+00 0.  1.
<mgrwt>
<rscale>  2 0.22686595E+03</rscale>
<asrwt>0</asrwt>
<pdfrwt beam="1">  1       21 0.42218021E-01 0.22743164E+03</pdfrwt>
<pdfrwt beam="2">  1       21 0.50298337E-01 0.22743164E+03</pdfrwt>
<totfact> 0.19917513E+04</totfact>
</mgrwt>
</event>
<event>
12    1  0.1071811E-001  0.2017352E+03  0.7546771E-02  0.1148299E+00
         21   -1    0    0  503  502  0.00000000000E+00  0.00000000000E+00  0.69193642732E+02  0.69193642732E+02  0.00000000000E+00 0. -1.
         21   -1    0    0  501  503 -0.00000000000E+00 -0.00000000000E+00 -0.87200111146E+03  0.87200111146E+03  0.00000000000E+00 0. -1.
          6    2    1    2  501    0 -0.33337622688E+02  0.98032897151E+02 -0.67004388544E+03  0.69975417573E+03  0.17313362476E+03 0.  0.
         24    2    3    3    0    0  0.40366956517E+02  0.22782842590E+02 -0.37988518311E+03  0.39103245922E+03  0.80281272538E+02 0.  0.
         -6    2    1    2    0  502  0.33337622688E+02 -0.98032897151E+02 -0.13276358329E+03  0.24144057847E+03  0.17304779072E+03 0.  0.
        -24    2    5    5    0    0 -0.37260778008E+02 -0.53942120659E+02 -0.12908912032E+02  0.95442760075E+02  0.68151027006E+02 0.  0.
          5    1    3    3  501    0 -0.73704579205E+02  0.75250054561E+02 -0.29015870233E+03  0.30872171651E+03  0.47000000000E+01 0. -1.
        -11    1    4    4    0    0  0.41157855113E+02  0.83977866592E+01 -0.76243566153E+02  0.87049257539E+02  0.00000000000E+00 0.  1.
         12    1    4    4    0    0 -0.79089859621E+00  0.14385055930E+02 -0.30364161696E+03  0.30398320168E+03  0.00000000000E+00 0. -1.
         -5    1    5    5    0  502  0.70598400696E+02 -0.44090776492E+02 -0.11985467126E+03  0.14599781839E+03  0.47000000000E+01 0.  1.
         13    1    6    6    0    0 -0.31725346027E+01 -0.73137680563E+01  0.25075471165E+02  0.26312267731E+02  0.00000000000E+00 0. -1.
        -14    1    6    6    0    0 -0.34088243405E+02 -0.46628352602E+02 -0.37984383197E+02  0.69130492344E+02  0.00000000000E+00 0.  1.
<mgrwt>
<rscale>  2 0.20171680E+03</rscale>
<asrwt>0</asrwt>
<pdfrwt beam="1">  1       21 0.10645176E-01 0.20173522E+03</pdfrwt>
<pdfrwt beam="2">  1       21 0.13415402E+00 0.20173522E+03</pdfrwt>
<totfact> 0.28835845E+04</totfact>
</mgrwt>
</event>
<event>
12    1  0.1071811E-001  0.1782323E+03  0.7546771E-02  0.1169778E+00
         21   -1    0    0  501  502  0.00000000000E+00  0.00000000000E+00  0.11951666833E+03  0.11951666833E+03  0.00000000000E+00 0.  1.
         21   -1    0    0  502  503 -0.00000000000E+00 -0.00000000000E+00 -0.30483191580E+03  0.30483191580E+03  0.00000000000E+00 0.  1.
         -6    2    1    2    0  503  0.28197593434E+02 -0.20034830310E+02 -0.15486700626E+02  0.17890388669E+03  0.17484354170E+03 0.  0.
        -24    2    3    3    0    0 -0.60276629612E+02 -0.17644219437E+02 -0.92576903703E+01  0.90054048575E+02  0.63870464824E+02 0.  0.
          6    2    1    2  501    0 -0.28197593434E+02  0.20034830310E+02 -0.16982854684E+03  0.24544469745E+03  0.17379547026E+03 0.  0.
         24    2    5    5    0    0  0.38061648701E+02  0.40621997989E+02 -0.61597819576E+02  0.11679750950E+03  0.82149443258E+02 0.  0.
          5    1    5    5  501    0 -0.66259242135E+02 -0.20587167679E+02 -0.10823072727E+03  0.12864718794E+03  0.47000000000E+01 0. -1.
        -11    1    6    6    0    0  0.73021128540E+01  0.33486484952E+02 -0.75026612009E+02  0.82484289632E+02  0.00000000000E+00 0.  1.
         12    1    6    6    0    0  0.30759535847E+02  0.71355130369E+01  0.13428792433E+02  0.34313219873E+02  0.00000000000E+00 0. -1.
         -5    1    3    3    0  503  0.88474223046E+02 -0.23906108723E+01 -0.62290102556E+01  0.88849838113E+02  0.47000000000E+01 0.  1.
         11    1    4    4    0    0 -0.64028279217E+01 -0.51210624632E+01 -0.29910431579E+02  0.31013793760E+02  0.00000000000E+00 0. -1.
        -12    1    4    4    0    0 -0.53873801690E+02 -0.12523156974E+02  0.20652741209E+02  0.59040254815E+02  0.00000000000E+00 0.  1.
<mgrwt>
<rscale>  2 0.17797476E+03</rscale>
<asrwt>0</asrwt>
<pdfrwt beam="1">  1       21 0.18387180E-01 0.17823233E+03</pdfrwt>
<pdfrwt beam="2">  1       21 0.46897217E-01 0.17823233E+03</pdfrwt>
<totfact> 0.11808034E+05</totfact>
</mgrwt>
</event>
<event>
12    1  0.1071811E-001  0.2271072E+03  0.7546771E-02  0.1128703E+00
         21   -1    0    0  503  502  0.00000000000E+00  0.00000000000E+00  0.70257139427E+02  0.70257139427E+02  0.00000000000E+00 0. -1.
         21   -1    0    0  501  503 -0.00000000000E+00 -0.00000000000E+00 -0.10376577238E+04  0.10376577238E+04  0.00000000000E+00 0.  1.
          6    2    1    2  501    0 -0.21112961393E+02 -0.14579386840E+03 -0.78335356111E+03  0.81559488387E+03  0.17277327248E+03 0.  0.
         24    2    3    3    0    0 -0.74540316865E+02 -0.63876232024E+02 -0.48803923222E+03  0.50447171805E+03  0.81688372900E+02 0.  0.
         -6    2    1    2    0  502  0.21112961393E+02  0.14579386840E+03 -0.18404702329E+03  0.29231997939E+03  0.17284691020E+03 0.  0.
        -24    2    5    5    0    0  0.51554920941E+02  0.79076342238E+02 -0.41051683222E+02  0.13154778503E+03  0.81906051521E+02 0.  0.
          5    1    3    3  501    0  0.53427355473E+02 -0.81917636373E+02 -0.29531432889E+03  0.31112316582E+03  0.47000000000E+01 0. -1.
        -13    1    4    4    0    0  0.12865273071E+02  0.74732111426E+01 -0.56360574216E+02  0.58291324071E+02  0.00000000000E+00 0.  1.
         14    1    4    4    0    0 -0.87405589936E+02 -0.71349443167E+02 -0.43167865801E+03  0.44618039398E+03  0.00000000000E+00 0. -1.
         -5    1    5    5    0  502 -0.30441959549E+02  0.66717526160E+02 -0.14299534007E+03  0.16077219436E+03  0.47000000000E+01 0.  1.
         13    1    6    6    0    0  0.44438097627E+01  0.72599318766E+02 -0.41987560047E+02  0.83984306446E+02  0.00000000000E+00 0. -1.
        -14    1    6    6    0    0  0.47111111179E+02  0.64770234720E+01  0.93587682508E+00  0.47563478584E+02  0.00000000000E+00 0.  1.
<mgrwt>
<rscale>  2 0.22709315E+03</rscale>
<asrwt>0</asrwt>
<pdfrwt beam="1">  1       21 0.10808791E-01 0.22710716E+03</pdfrwt>
<pdfrwt beam="2">  1       21 0.15963965E+00 0.22710716E+03</pdfrwt>
<totfact> 0.17494283E+04</totfact>
</mgrwt>
</event>
<event>
12    1  0.1071811E-001  0.2484054E+03  0.7546771E-02  0.1114486E+00
         21   -1    0    0  501  502  0.00000000000E+00  0.00000000000E+00  0.19701331008E+03  0.19701331008E+03  0.00000000000E+00 0. -1.
         21   -1    0    0  502  503 -0.00000000000E+00 -0.00000000000E+00 -0.53858892794E+03  0.53858892794E+03  0.00000000000E+00 0.  1.
         -6    2    1    2    0  503  0.16391235635E+03 -0.65333939126E+02 -0.40920917698E+03  0.47815409318E+03  0.17333032663E+03 0.  0.
        -24    2    3    3    0    0  0.60138818057E+02 -0.87378888889E+02 -0.16923335632E+03  0.21573189220E+03  0.81538780723E+02 0.  0.
          6    2    1    2  501    0 -0.16391235635E+03  0.65333939126E+02  0.67633559124E+02  0.25744814484E+03  0.17484125599E+03 0.  0.
         24    2    5    5    0    0 -0.26927123297E+02  0.69150820950E+02  0.27829071380E+02  0.11466855980E+03  0.82870473539E+02 0.  0.
          5    1    5    5  501    0 -0.13698523305E+03 -0.38168818235E+01  0.39804487744E+02  0.14277958505E+03  0.47000000000E+01 0. -1.
        -13    1    6    6    0    0 -0.30316897912E+02  0.52603143006E+02 -0.20016728579E+02  0.63928666310E+02  0.00000000000E+00 0.  1.
         14    1    6    6    0    0  0.33897746146E+01  0.16547677943E+02  0.47845799959E+02  0.50739893486E+02  0.00000000000E+00 0. -1.
         -5    1    3    3    0  503  0.10377353829E+03  0.22044949762E+02 -0.23997582067E+03  0.26242220098E+03  0.47000000000E+01 0.  1.
         13    1    4    4    0    0  0.67824670409E+01 -0.40463463656E+02 -0.11303989355E+02  0.42556714224E+02  0.00000000000E+00 0. -1.
        -14    1    4    4    0    0  0.53356351016E+02 -0.46915425233E+02 -0.15792936696E+03  0.17317517798E+03  0.00000000000E+00 0.  1.
<mgrwt>
<rscale>  2 0.24813970E+03</rscale>
<asrwt>0</asrwt>
<pdfrwt beam="1">  1       21 0.30309740E-01 0.24840541E+03</pdfrwt>
<pdfrwt beam="2">  1       21 0.82859834E-01 0.24840541E+03</pdfrwt>
<totfact> 0.12826327E+04</totfact>
</mgrwt>
</event>
<event>
12    1  0.1071811E-001  0.1926228E+03  0.7546771E-02  0.1156231E+00
         21   -1    0    0  501  502  0.00000000000E+00  0.00000000000E+00  0.29799370310E+02  0.29799370310E+02  0.00000000000E+00 0. -1.
         21   -1    0    0  502  503 -0.00000000000E+00 -0.00000000000E+00 -0.19563399324E+04  0.19563399324E+04  0.00000000000E+00 0. -1.
         -6    2    1    2    0  503  0.85567462671E+02 -0.14200109114E+02 -0.15626244144E+04  0.15743887865E+04  0.17141049285E+03 0.  0.
        -24    2    3    3    0    0  0.75082713393E+02 -0.60244539930E+02 -0.82308285172E+03  0.83332614921E+03  0.87751192105E+02 0.  0.
          6    2    1    2  501    0 -0.85567462671E+02  0.14200109114E+02 -0.36391614769E+03  0.41175051613E+03  0.17198863689E+03 0.  0.
         24    2    5    5    0    0  0.66655673247E+00  0.16000940333E+02 -0.72123780582E+02  0.10744076506E+03  0.78007716806E+02 0.  0.
          5    1    5    5  501    0 -0.86234019404E+02 -0.18008312190E+01 -0.29179236711E+03  0.30430975107E+03  0.47000000000E+01 0. -1.
        -13    1    6    6    0    0 -0.40305613930E+01 -0.15053858951E+02 -0.74338807618E+02  0.75954739236E+02  0.00000000000E+00 0.  1.
         14    1    6    6    0    0  0.46971181254E+01  0.31054799284E+02  0.22150270359E+01  0.31486025821E+02  0.00000000000E+00 0. -1.
         -5    1    3    3    0  503  0.10484749278E+02  0.46044430816E+02 -0.73954156264E+03  0.74106263733E+03  0.47000000000E+01 0.  1.
         11    1    4    4    0    0  0.76737865253E+02 -0.22807859776E+02 -0.70270574356E+03  0.70725120039E+03  0.00000000000E+00 0. -1.
        -12    1    4    4    0    0 -0.16551518595E+01 -0.37436680154E+02 -0.12037710817E+03  0.12607494882E+03  0.00000000000E+00 0.  1.
<mgrwt>
<rscale>  2 0.19249361E+03</rscale>
<asrwt>0</asrwt>
<pdfrwt beam="1">  1       21 0.45845192E-02 0.19262275E+03</pdfrwt>
<pdfrwt beam="2">  1       21 0.30097533E+00 0.19262275E+03</pdfrwt>
<totfact> 0.10497211E+04</totfact>
</mgrwt>
</event>
<event>
12    1  0.1071811E-001  0.2207554E+03  0.7546771E-02  0.1133426E+00
         21   -1    0    0  503  502  0.00000000000E+00  0.00000000000E+00  0.54728461954E+03  0.54728461954E+03  0.00000000000E+00 0. -1.
         21   -1    0    0  501  503 -0.00000000000E+00 -0.00000000000E+00 -0.10650910758E+03  0.10650910758E+03  0.00000000000E+00 0. -1.
          6    2    1    2  501    0  0.12516327612E+03  0.53013911211E+02  0.86925526620E+02  0.23672925136E+03  0.17322924349E+03 0.  0.
         24    2    3    3    0    0  0.24609654086E+02  0.38898800338E+02 -0.73924616184E+01  0.98063321283E+02  0.86272908554E+02 0.  0.
         -6    2    1    2    0  502 -0.12516327612E+03 -0.53013911211E+02  0.35384998534E+03  0.41706447576E+03  0.17394437143E+03 0.  0.
        -24    2    5    5    0    0 -0.13192142353E+02 -0.16145882923E+02  0.66540807037E+02  0.10647561530E+03  0.80465244038E+02 0.  0.
          5    1    3    3  501    0  0.10055362203E+03  0.14115110873E+02  0.94317988238E+02  0.13866593007E+03  0.47000000000E+01 0. -1.
        -13    1    4    4    0    0  0.27427347499E+02  0.11224615681E+01 -0.39706840299E+02  0.48271652938E+02  0.00000000000E+00 0.  1.
         14    1    4    4    0    0 -0.28176934131E+01  0.37776338770E+02  0.32314378681E+02  0.49791668345E+02  0.00000000000E+00 0. -1.
         -5    1    5    5    0  502 -0.11197113376E+03 -0.36868028288E+02  0.28730917830E+03  0.31058886046E+03  0.47000000000E+01 0.  1.
         13    1    6    6    0    0 -0.26840314878E+02 -0.86054336665E+01  0.80658409339E+02  0.85441412608E+02  0.00000000000E+00 0. -1.
        -14    1    6    6    0    0  0.13648172525E+02 -0.75404492568E+01 -0.14117602303E+02  0.21034202696E+02  0.00000000000E+00 0.  1.
<mgrwt>
<rscale>  2 0.22061455E+03</rscale>
<asrwt>0</asrwt>
<pdfrwt beam="1">  1       21 0.84197632E-01 0.22075544E+03</pdfrwt>
<pdfrwt beam="2">  1       21 0.16386017E-01 0.22075544E+03</pdfrwt>
<totfact> 0.40288477E+04</totfact>
</mgrwt>
</event>
<event>
12    1  0.1071811E-001  0.1790449E+03  0.7546771E-02  0.1168895E+00
         21   -1    0    0  503  502  0.00000000000E+00  0.00000000000E+00  0.10460904707E+03  0.10460904707E+03  0.00000000000E+00 0.  1.
         21   -1    0    0  501  503 -0.00000000000E+00 -0.00000000000E+00 -0.30531307814E+03  0.30531307814E+03  0.00000000000E+00 0.  1.
          6    2    1    2  501    0 -0.46744973385E+01  0.43377352168E+02 -0.98940540451E+02  0.20456369196E+03  0.17364800003E+03 0.  0.
         24    2    3    3    0    0 -0.12133854754E+02  0.71120032100E+02 -0.64056131481E+01  0.10755801649E+03  0.79513556287E+02 0.  0.
         -6    2    1    2    0  502  0.46744973385E+01 -0.43377352168E+02 -0.10176349062E+03  0.20535843325E+03  0.17295326674E+03 0.  0.
        -24    2    5    5    0    0  0.44321629730E+02 -0.46572347668E+02 -0.12328455642E+03  0.15989031941E+03  0.78945816594E+02 0.  0.
          5    1    3    3  501    0  0.74593574151E+01 -0.27742679932E+02 -0.92534927302E+02  0.97005675472E+02  0.47000000000E+01 0. -1.
        -13    1    4    4    0    0 -0.11099870353E+02  0.88278909205E+02 -0.11290284140E+02  0.89687476540E+02  0.00000000000E+00 0.  1.
         14    1    4    4    0    0 -0.10339844003E+01 -0.17158877105E+02  0.48846709922E+01  0.17870539945E+02  0.00000000000E+00 0. -1.
         -5    1    5    5    0  502 -0.39647132391E+02  0.31949955006E+01  0.21521065804E+02  0.45468113843E+02  0.47000000000E+01 0.  1.
         11    1    6    6    0    0  0.30826655436E+02  0.16130467213E+02 -0.26291358920E+02  0.43608602497E+02  0.00000000000E+00 0. -1.
        -12    1    6    6    0    0  0.13494974294E+02 -0.62702814881E+02 -0.96993197503E+02  0.11628171691E+03  0.00000000000E+00 0.  1.
<mgrwt>
<rscale>  2 0.17887623E+03</rscale>
<asrwt>0</asrwt>
<pdfrwt beam="1">  1       21 0.16093700E-01 0.17904489E+03</pdfrwt>
<pdfrwt beam="2">  1       21 0.46971243E-01 0.17904489E+03</pdfrwt>
<totfact> 0.15031614E+05</totfact>
</mgrwt>
</event>
<event>
12    1  0.1071811E-001  0.3921281E+03  0.7546771E-02  0.1046581E+00
         21   -1    0    0  503  502  0.00000000000E+00  0.00000000000E+00  0.15371787658E+03  0.15371787658E+03  0.00000000000E+00 0.  1.
         21   -1    0    0  501  503 -0.00000000000E+00 -0.00000000000E+00 -0.10600252724E+04  0.10600252724E+04  0.00000000000E+00 0. -1.
          6    2    1    2  501    0  0.34884597285E+03  0.48829368875E+02 -0.30742905467E+03  0.49790816101E+03  0.17123695018E+03 0.  0.
         24    2    3    3    0    0  0.17881362360E+03 -0.35852749178E+02 -0.13197409732E+03  0.23927986989E+03  0.81104637120E+02 0.  0.
         -6    2    1    2    0  502 -0.34884597285E+03 -0.48829368875E+02 -0.59887834113E+03  0.71583498795E+03  0.17229812091E+03 0.  0.
        -24    2    5    5    0    0 -0.14404854723E+03 -0.73025431000E+02 -0.34085255091E+03  0.38549147980E+03  0.79627394801E+02 0.  0.
          5    1    3    3  501    0  0.17003234925E+03  0.84682118053E+02 -0.17545495736E+03  0.25862829113E+03  0.47000000000E+01 0. -1.
        -13    1    4    4    0    0  0.26426899475E+02 -0.28464663446E+02 -0.20603501991E+01  0.38895541183E+02  0.00000000000E+00 0.  1.
         14    1    4    4    0    0  0.15238672412E+03 -0.73880857317E+01 -0.12991374712E+03  0.20038432870E+03  0.00000000000E+00 0. -1.
         -5    1    5    5    0  502 -0.20479742563E+03  0.24196062125E+02 -0.25802579021E+03  0.33034350816E+03  0.47000000000E+01 0.  1.
         11    1    6    6    0    0 -0.12681980218E+03 -0.57813951709E+02 -0.33335117288E+03  0.36131526359E+03  0.00000000000E+00 0. -1.
        -12    1    6    6    0    0 -0.17228745044E+02 -0.15211479292E+02 -0.75013780304E+01  0.24176216213E+02  0.00000000000E+00 0.  1.
<mgrwt>
<rscale>  2 0.39201179E+03</rscale>
<asrwt>0</asrwt>
<pdfrwt beam="1">  1       21 0.23648904E-01 0.39212812E+03</pdfrwt>
<pdfrwt beam="2">  1       21 0.16308081E+00 0.39212812E+03</pdfrwt>
<totfact> 0.35544790E+03</totfact>
</mgrwt>
</event>
<event>
12    1  0.1071811E-001  0.2200973E+03  0.7546771E-02  0.1133909E+00
         21   -1    0    0  503  502  0.00000000000E+00  0.00000000000E+00  0.32085051033E+02  0.32085051033E+02  0.00000000000E+00 0. -1.
         21   -1    0    0  501  503 -0.00000000000E+00 -0.00000000000E+00 -0.15204625732E+04  0.15204625732E+04  0.00000000000E+00 0.  1.
          6    2    1    2  501    0 -0.13675675109E+03  0.65949505790E+01 -0.66809601413E+03  0.70325110177E+03  0.17165059191E+03 0.  0.
         24    2    3    3    0    0 -0.12320486958E+03 -0.33546906740E+02 -0.62510023779E+03  0.64270567267E+03  0.77559264834E+02 0.  0.
         -6    2    1    2    0  502  0.13675675109E+03 -0.65949505790E+01 -0.82028150805E+03  0.84929652248E+03  0.17232796725E+03 0.  0.
        -24    2    5    5    0    0  0.14147996900E+03  0.40351429554E+02 -0.55794074157E+03  0.58270500132E+03  0.81255325747E+02 0.  0.
          5    1    3    3  501    0 -0.13551881514E+02  0.40141857319E+02 -0.42995776341E+02  0.60545429099E+02  0.47000000000E+01 0. -1.
        -13    1    4    4    0    0 -0.12110212473E+03 -0.43748712596E+02 -0.47189574894E+03  0.48914749548E+03  0.00000000000E+00 0.  1.
         14    1    4    4    0    0 -0.21027448476E+01  0.10201805856E+02 -0.15320448885E+03  0.15355817720E+03  0.00000000000E+00 0. -1.
         -5    1    5    5    0  502 -0.47232179057E+01 -0.46946380133E+02 -0.26234076649E+03  0.26659152116E+03  0.47000000000E+01 0.  1.
         11    1    6    6    0    0  0.62189860293E+02 -0.21283647778E+02 -0.17917675781E+03  0.19085304013E+03  0.00000000000E+00 0. -1.
        -12    1    6    6    0    0  0.79290108707E+02  0.61635077332E+02 -0.37876398376E+03  0.39185196119E+03  0.00000000000E+00 0.  1.
<mgrwt>
<rscale>  2 0.21996471E+03</rscale>
<asrwt>0</asrwt>
<pdfrwt beam="1">  1       21 0.49361627E-02 0.22009732E+03</pdfrwt>
<pdfrwt beam="2">  1       21 0.23391727E+00 0.22009732E+03</pdfrwt>
<totfact> 0.22283819E+04</totfact>
</mgrwt>
</event>
<event>
12    1  0.1071811E-001  0.2040389E+03  0.7546771E-02  0.1146541E+00
         21   -1    0    0  501  502  0.00000000000E+00  0.00000000000E+00  0.48264018426E+03  0.48264018426E+03  0.00000000000E+00 0.  1.
         21   -1    0    0  502  503 -0.00000000000E+00 -0.00000000000E+00 -0.16099848303E+03  0.16099848303E+03  0.00000000000E+00 0.  1.
         -6    2    1    2    0  503 -0.19083781932E+02  0.10616792383E+03 -0.58776588469E+02  0.21233594487E+03  0.17319367006E+03 0.  0.
        -24    2    3    3    0    0  0.25253431989E+02  0.81315152305E+02  0.19448057753E+02  0.11893019522E+03  0.80723444944E+02 0.  0.
          6    2    1    2  501    0  0.19083781932E+02 -0.10616792383E+03  0.38041828969E+03  0.43130272242E+03  0.17224443227E+03 0.  0.
         24    2    5    5    0    0 -0.32747545325E+02 -0.12103290898E+03  0.27563780822E+03  0.31336844595E+03  0.80636312007E+02 0.  0.
          5    1    5    5  501    0  0.51831327257E+02  0.14864985151E+02  0.10478048147E+03  0.11793427647E+03  0.47000000000E+01 0. -1.
        -11    1    6    6    0    0  0.83995472945E+01 -0.96947300446E+02  0.21680448150E+03  0.23764156762E+03  0.00000000000E+00 0.  1.
         12    1    6    6    0    0 -0.41147092619E+02 -0.24085608536E+02  0.58833326719E+02  0.75726878335E+02  0.00000000000E+00 0. -1.
         -5    1    3    3    0  503 -0.44337213920E+02  0.24852771526E+02 -0.78224646222E+02  0.93405749648E+02  0.47000000000E+01 0.  1.
         11    1    4    4    0    0  0.38894097456E+02  0.89527813000E+02  0.55058502346E+01  0.97766530593E+02  0.00000000000E+00 0. -1.
        -12    1    4    4    0    0 -0.13640665467E+02 -0.82126606943E+01  0.13942207518E+02  0.21163664629E+02  0.00000000000E+00 0.  1.
<mgrwt>
<rscale>  2 0.20383731E+03</rscale>
<asrwt>0</asrwt>
<pdfrwt beam="1">  1       21 0.74252335E-01 0.20403888E+03</pdfrwt>
<pdfrwt beam="2">  1       21 0.24768998E-01 0.20403888E+03</pdfrwt>
<totfact> 0.24901639E+04</totfact>
</mgrwt>
</event>
<event>
12    1  0.1071811E-001  0.3403455E+03  0.7546771E-02  0.1066728E+00
         21   -1    0    0  501  502  0.00000000000E+00  0.00000000000E+00  0.35631001638E+03  0.35631001638E+03  0.00000000000E+00 0. -1.
         21   -1    0    0  502  503 -0.00000000000E+00 -0.00000000000E+00 -0.33065382653E+03  0.33065382653E+03  0.00000000000E+00 0.  1.
         -6    2    1    2    0  503 -0.25386170208E+03  0.14664263622E+03  0.60104375538E+02  0.34487947759E+03  0.17140446775E+03 0.  0.
        -24    2    3    3    0    0 -0.26638979691E+03  0.14871678740E+03  0.36480767040E+02  0.31765044636E+03  0.80565209375E+02 0.  0.
          6    2    1    2  501    0  0.25386170208E+03 -0.14664263622E+03 -0.34448185695E+02  0.34208436532E+03  0.17287338996E+03 0.  0.
         24    2    5    5    0    0  0.54955206844E+02 -0.15225858219E+02 -0.32881699311E+02  0.10363372626E+03  0.80042748276E+02 0.  0.
          5    1    5    5  501    0  0.19890649524E+03 -0.13141677800E+03 -0.15664863835E+01  0.23845063906E+03  0.47000000000E+01 0. -1.
        -11    1    6    6    0    0  0.23710500989E+02 -0.36731646023E+02 -0.46035056194E+02  0.63487227656E+02  0.00000000000E+00 0.  1.
         12    1    6    6    0    0  0.31244705855E+02  0.21505787804E+02  0.13153356883E+02  0.40146498606E+02  0.00000000000E+00 0. -1.
         -5    1    3    3    0  503  0.12528094826E+02 -0.20741511833E+01  0.23623608499E+02  0.27229031228E+02  0.47000000000E+01 0.  1.
         13    1    4    4    0    0 -0.13661715787E+02  0.24868074087E+02  0.21878486714E+02  0.35829202725E+02  0.00000000000E+00 0. -1.
        -14    1    4    4    0    0 -0.25272808112E+03  0.12384871331E+03  0.14602280326E+02  0.28182124364E+03  0.00000000000E+00 0.  1.
<mgrwt>
<rscale>  2 0.34015937E+03</rscale>
<asrwt>0</asrwt>
<pdfrwt beam="1">  1       21 0.54816926E-01 0.34034546E+03</pdfrwt>
<pdfrwt beam="2">  1       21 0.50869819E-01 0.34034546E+03</pdfrwt>
<totfact> 0.10698498E+04</totfact>
</mgrwt>
</event>
<event>
12    1  0.1071811E-001  0.1904510E+03  0.7546771E-02  0.1159231E+00
         21   -1    0    0  501  502  0.00000000000E+00  0.00000000000E+00  0.29421351228E+03  0.29421351228E+03  0.00000000000E+00 0. -1.
         21   -1    0    0  502  503 -0.00000000000E+00 -0.00000000000E+00 -0.21508358541E+03  0.21508358541E+03  0.00000000000E+00 0. -1.
         -6    2    1    2    0  503  0.79485827157E+02  0.17245775327E+02  0.20859410464E+03  0.27900907375E+03  0.16649068821E+03 0.  0.
        -24    2    3    3    0    0  0.72719335856E+02 -0.46775721465E+02  0.14891657943E+03  0.19109983379E+03  0.82866935017E+02 0.  0.
          6    2    1    2  501    0 -0.79485827157E+02 -0.17245775327E+02 -0.12946417776E+03  0.23028802394E+03  0.17220971854E+03 0.  0.
         24    2    5    5    0    0 -0.11833090501E+03  0.87059503820E+01 -0.96705872522E+02  0.17303744575E+03  0.80696562488E+02 0.  0.
          5    1    5    5  501    0  0.38845077857E+02 -0.25951725709E+02 -0.32758305241E+02  0.57250578191E+02  0.47000000000E+01 0. -1.
        -11    1    6    6    0    0 -0.64329664738E+02 -0.38216869912E+01 -0.34330372137E+01  0.64534462122E+02  0.00000000000E+00 0.  1.
         12    1    6    6    0    0 -0.54001240276E+02  0.12527637373E+02 -0.93272835308E+02  0.10850298363E+03  0.00000000000E+00 0. -1.
         -5    1    3    3    0  503  0.67664913010E+01  0.64021496792E+02  0.59677525208E+02  0.87909239964E+02  0.47000000000E+01 0.  1.
         11    1    4    4    0    0 -0.95074562264E+01 -0.27201452232E+02  0.69007187108E+02  0.74781699633E+02  0.00000000000E+00 0. -1.
        -12    1    4    4    0    0  0.82226792082E+02 -0.19574269233E+02  0.79909392319E+02  0.11631813415E+03  0.00000000000E+00 0.  1.
<mgrwt>
<rscale>  2 0.18914896E+03</rscale>
<asrwt>0</asrwt>
<pdfrwt beam="1">  1       21 0.45263617E-01 0.19045105E+03</pdfrwt>
<pdfrwt beam="2">  1       21 0.33089782E-01 0.19045105E+03</pdfrwt>
<totfact> 0.41217730E+04</totfact>
</mgrwt>
</event>
<event>
12    1  0.1071811E-001  0.2443257E+03  0.7546771E-02  0.1117011E+00
         21   -1    0    0  501  502  0.00000000000E+00  0.00000000000E+00  0.34302388562E+03  0.34302388562E+03  0.00000000000E+00 0. -1.
         21   -1    0    0  502  503 -0.00000000000E+00 -0.00000000000E+00 -0.17396494797E+03  0.17396494797E+03  0.00000000000E+00 0.  1.
         -6    2    1    2    0  503  0.10594825162E+03  0.13662858583E+03  0.93847155992E+02  0.26134877516E+03  0.17205665085E+03 0.  0.
        -24    2    3    3    0    0  0.88130710496E+02  0.11747188542E+03  0.13300626440E+03  0.21402045685E+03  0.80916151568E+02 0.  0.
          6    2    1    2  501    0 -0.10594825162E+03 -0.13662858583E+03  0.75211781658E+02  0.25564005844E+03  0.17263436764E+03 0.  0.
         24    2    5    5    0    0  0.55144781578E+01 -0.44403008732E+02  0.58229738634E+02  0.10990064378E+03  0.81764371136E+02 0.  0.
          5    1    5    5  501    0 -0.11146272978E+03 -0.92225577101E+02  0.16982043025E+02  0.14573941466E+03  0.47000000000E+01 0. -1.
        -11    1    6    6    0    0 -0.31027134003E+02 -0.27242635607E+02  0.28766780550E+01  0.41389847981E+02  0.00000000000E+00 0.  1.
         12    1    6    6    0    0  0.36541612160E+02 -0.17160373125E+02  0.55353060579E+02  0.68510795795E+02  0.00000000000E+00 0. -1.
         -5    1    3    3    0  503  0.17817541123E+02  0.19156700415E+02 -0.39159108409E+02  0.47328318308E+02  0.47000000000E+01 0.  1.
         11    1    4    4    0    0  0.95940024319E+02  0.98363247912E+02  0.13580219891E+03  0.19318916646E+03  0.00000000000E+00 0. -1.
        -12    1    4    4    0    0 -0.78093138230E+01  0.19108637506E+02 -0.27959345126E+01  0.20831290395E+02  0.00000000000E+00 0.  1.
<mgrwt>
<rscale>  2 0.24422363E+03</rscale>
<asrwt>0</asrwt>
<pdfrwt beam="1">  1       21 0.52772905E-01 0.24432566E+03</pdfrwt>
<pdfrwt beam="2">  1       21 0.26763838E-01 0.24432566E+03</pdfrwt>
<totfact> 0.44163761E+04</totfact>
</mgrwt>
</event>
<event>
12    1  0.1071811E-001  0.2022286E+03  0.7546771E-02  0.1148456E+00
         21   -1    0    0  501  502  0.00000000000E+00  0.00000000000E+00  0.13778387899E+04  0.13778387899E+04  0.00000000000E+00 0.  1.
         21   -1    0    0  502  503 -0.00000000000E+00 -0.00000000000E+00 -0.73394411814E+02  0.73394411814E+02  0.00000000000E+00 0.  1.
         -6    2    1    2    0  503  0.37002998285E+02  0.92430684248E+02  0.91437965702E+02  0.22193991262E+03  0.17602207239E+03 0.  0.
        -24    2    3    3    0    0  0.71452074714E+02  0.90355544655E+02  0.11306343531E+03  0.18094240042E+03  0.81775842605E+02 0.  0.
          6    2    1    2  501    0 -0.37002998285E+02 -0.92430684248E+02  0.12130064124E+04  0.12292932891E+04  0.17281429586E+03 0.  0.
         24    2    5    5    0    0  0.44802773856E+02 -0.45304318270E+02  0.75172545617E+03  0.75842675886E+03  0.77847397558E+02 0.  0.
          5    1    5    5  501    0 -0.81805772141E+02 -0.47126365978E+02  0.46128095619E+03  0.47086653020E+03  0.47000000000E+01 0. -1.
        -11    1    6    6    0    0  0.37335669556E+02  0.31349606849E+01  0.53124205455E+03  0.53256164030E+03  0.00000000000E+00 0.  1.
         12    1    6    6    0    0  0.74671043001E+01 -0.48439278955E+02  0.22048340162E+03  0.22586511856E+03  0.00000000000E+00 0. -1.
         -5    1    3    3    0  503 -0.34449076430E+02  0.20751395927E+01 -0.21625469605E+02  0.40997512203E+02  0.47000000000E+01 0.  1.
         13    1    4    4    0    0  0.21539528307E+01  0.54856898952E+02  0.78407938956E+02  0.95716893842E+02  0.00000000000E+00 0. -1.
        -14    1    4    4    0    0  0.69298121884E+02  0.35498645703E+02  0.34655496352E+02  0.85225506574E+02  0.00000000000E+00 0.  1.
<mgrwt>
<rscale>  2 0.20152856E+03</rscale>
<asrwt>0</asrwt>
<pdfrwt beam="1">  1       21 0.21197518E+00 0.20222864E+03</pdfrwt>
<pdfrwt beam="2">  1       21 0.11291449E-01 0.20222864E+03</pdfrwt>
<totfact> 0.73150005E+03</totfact>
</mgrwt>
</event>
<event>
12    1  0.1071811E-001  0.2538612E+03  0.7546771E-02  0.1110944E+00
         21   -1    0    0  503  502  0.00000000000E+00  0.00000000000E+00  0.15753607856E+04  0.15753607856E+04  0.00000000000E+00 0.  1.
         21   -1    0    0  501  503 -0.00000000000E+00 -0.00000000000E+00 -0.11748314496E+03  0.11748314496E+03  0.00000000000E+00 0.  1.
          6    2    1    2  501    0  0.15249090740E+03  0.10694069628E+03  0.45155025886E+02  0.25749355120E+03  0.17197140223E+03 0.  0.
         24    2    3    3    0    0  0.73318491693E+02  0.11747285997E+03 -0.10555409729E+02  0.16000026673E+03  0.79455614181E+02 0.  0.
         -6    2    1    2    0  502 -0.15249090740E+03 -0.10694069628E+03  0.14127226148E+04  0.14353503794E+04  0.17249850996E+03 0.  0.
        -24    2    5    5    0    0 -0.49223412480E+01 -0.16374132621E+02  0.40792897153E+03  0.41573714895E+03  0.78351704134E+02 0.  0.
          5    1    3    3  501    0  0.79172415708E+02 -0.10532163684E+02  0.55710435615E+02  0.97493284472E+02  0.47000000000E+01 0. -1.
        -13    1    4    4    0    0  0.48568170987E+02  0.29522756367E+02 -0.33262204167E+02  0.65854647540E+02  0.00000000000E+00 0.  1.
         14    1    4    4    0    0  0.24750320706E+02  0.87950103600E+02  0.22706794438E+02  0.94145619186E+02  0.00000000000E+00 0. -1.
         -5    1    5    5    0  502 -0.14756856615E+03 -0.90566563663E+02  0.10047936433E+04  0.10196132304E+04  0.47000000000E+01 0.  1.
         13    1    6    6    0    0 -0.38251774024E+02 -0.73586960359E+01  0.13113887436E+03  0.13680187496E+03  0.00000000000E+00 0. -1.
        -14    1    6    6    0    0  0.33329432776E+02 -0.90154365848E+01  0.27679009717E+03  0.27893527399E+03  0.00000000000E+00 0.  1.
<mgrwt>
<rscale>  2 0.25377172E+03</rscale>
<asrwt>0</asrwt>
<pdfrwt beam="1">  1       21 0.24236318E+00 0.25386123E+03</pdfrwt>
<pdfrwt beam="2">  1       21 0.18074331E-01 0.25386123E+03</pdfrwt>
<totfact> 0.19336855E+03</totfact>
</mgrwt>
</event>
<event>
12    1  0.1071811E-001  0.2238903E+03  0.7546771E-02  0.1131527E+00
         21   -1    0    0  503  502  0.00000000000E+00  0.00000000000E+00  0.83759470075E+02  0.83759470075E+02  0.00000000000E+00 0.  1.
         21   -1    0    0  501  503 -0.00000000000E+00 -0.00000000000E+00 -0.88673937883E+03  0.88673937883E+03  0.00000000000E+00 0. -1.
          6    2    1    2  501    0  0.13002457709E+03  0.57028897462E+02 -0.68338501440E+03  0.71912583107E+03  0.17311324969E+03 0.  0.
         24    2    3    3    0    0  0.93387427872E+02  0.41187438951E+02 -0.25104374593E+03  0.28492047075E+03  0.87972128941E+02 0.  0.
         -6    2    1    2    0  502 -0.13002457709E+03 -0.57028897462E+02 -0.11959489435E+03  0.25137301783E+03  0.16948973286E+03 0.  0.
        -24    2    5    5    0    0 -0.11527454214E+03 -0.36474657283E+02 -0.19693437822E+02  0.14821085744E+03  0.83426650886E+02 0.  0.
          5    1    3    3  501    0  0.36637149215E+02  0.15841458512E+02 -0.43234126846E+03  0.43420536032E+03  0.47000000000E+01 0. -1.
        -13    1    4    4    0    0  0.10289279264E+03  0.24054606973E+02 -0.24045702764E+03  0.26265021042E+03  0.00000000000E+00 0.  1.
         14    1    4    4    0    0 -0.95053647666E+01  0.17132831978E+02 -0.10586718290E+02  0.22270260328E+02  0.00000000000E+00 0. -1.
         -5    1    5    5    0  502 -0.14750034942E+02 -0.20554240179E+02 -0.99901456533E+02  0.10316216040E+03  0.47000000000E+01 0.  1.
         13    1    6    6    0    0 -0.51899156755E+02 -0.59960305240E+02 -0.11395774347E+02  0.80116317622E+02  0.00000000000E+00 0. -1.
        -14    1    6    6    0    0 -0.63375385390E+02  0.23485647958E+02 -0.82976634749E+01  0.68094539814E+02  0.00000000000E+00 0.  1.
<mgrwt>
<rscale>  2 0.22318961E+03</rscale>
<asrwt>0</asrwt>
<pdfrwt beam="1">  1       21 0.12886073E-01 0.22389034E+03</pdfrwt>
<pdfrwt beam="2">  1       21 0.13642144E+00 0.22389034E+03</pdfrwt>
<totfact> 0.19365320E+04</totfact>
</mgrwt>
</event>
<event>
12    1  0.1071811E-001  0.2028257E+03  0.7546771E-02  0.1147405E+00
         21   -1    0    0  503  502  0.00000000000E+00  0.00000000000E+00  0.46344705449E+03  0.46344705449E+03  0.00000000000E+00 0.  1.
         21   -1    0    0  501  503 -0.00000000000E+00 -0.00000000000E+00 -0.10035365883E+03  0.10035365883E+03  0.00000000000E+00 0.  1.
          6    2    1    2  501    0 -0.10541261137E+03 -0.13739937454E+02  0.85564321038E+02  0.22013524607E+03  0.17273583592E+03 0.  0.
         24    2    3    3    0    0 -0.10272284359E+03 -0.39736077991E+02  0.62240282836E+01  0.13646920619E+03  0.80337831815E+02 0.  0.
         -6    2    1    2    0  502  0.10541261137E+03  0.13739937454E+02  0.27752907462E+03  0.34366546725E+03  0.17257740759E+03 0.  0.
        -24    2    5    5    0    0  0.17031607065E+02 -0.13609307852E+02  0.21921308714E+03  0.23420301920E+03  0.79507155185E+02 0.  0.
          5    1    3    3  501    0 -0.26897677715E+01  0.25996140537E+02  0.79340292755E+02  0.83666039872E+02  0.47000000000E+01 0. -1.
        -11    1    4    4    0    0 -0.75896211727E+02 -0.21735023403E+02  0.41036828837E+02  0.88975656884E+02  0.00000000000E+00 0.  1.
         12    1    4    4    0    0 -0.26826631867E+02 -0.18001054588E+02 -0.34812800554E+02  0.47493549309E+02  0.00000000000E+00 0. -1.
         -5    1    5    5    0  502  0.88381004301E+02  0.27349245306E+02  0.58315987472E+02  0.10946244806E+03  0.47000000000E+01 0.  1.
         11    1    6    6    0    0 -0.71667199372E+01 -0.94900305130E+01 -0.16270399031E+01  0.12002908508E+02  0.00000000000E+00 0. -1.
        -12    1    6    6    0    0  0.24198327002E+02 -0.41192773392E+01  0.22084012705E+03  0.22220011069E+03  0.00000000000E+00 0.  1.
<mgrwt>
<rscale>  2 0.20279199E+03</rscale>
<asrwt>0</asrwt>
<pdfrwt beam="1">  1       21 0.71299546E-01 0.20282572E+03</pdfrwt>
<pdfrwt beam="2">  1       21 0.15439025E-01 0.20282572E+03</pdfrwt>
<totfact> 0.65906127E+04</totfact>
</mgrwt>
</event>
<event>
12    1  0.1071811E-001  0.2865575E+03  0.7546771E-02  0.1092186E+00
         21   -1    0    0  501  502  0.00000000000E+00  0.00000000000E+00  0.87566930245E+02  0.87566930245E+02  0.00000000000E+00 0.  1.
         21   -1    0    0  502  503 -0.00000000000E+00 -0.00000000000E+00 -0.10226534661E+04  0.10226534661E+04  0.00000000000E+00 0. -1.
         -6    2    1    2    0  503 -0.15304234945E+03  0.16991650577E+03 -0.62823728192E+03  0.69050510708E+03  0.17268943468E+03 0.  0.
        -24    2    3    3    0    0 -0.13787563096E+03  0.88484881102E+02 -0.53682240081E+03  0.56705507940E+03  0.80832600285E+02 0.  0.
          6    2    1    2  501    0  0.15304234945E+03 -0.16991650577E+03 -0.30684925396E+03  0.41971528929E+03  0.17236844187E+03 0.  0.
         24    2    5    5    0    0  0.59708732373E+02 -0.53736248228E+02 -0.22096045659E+03  0.24764555973E+03  0.77795133416E+02 0.  0.
          5    1    5    5  501    0  0.93333617076E+02 -0.11618025754E+03 -0.85888797377E+02  0.17206972957E+03  0.47000000000E+01 0. -1.
        -13    1    6    6    0    0  0.45367461709E+02 -0.20855642390E+02 -0.42363045637E+02  0.65481234236E+02  0.00000000000E+00 0.  1.
         14    1    6    6    0    0  0.14341270665E+02 -0.32880605839E+02 -0.17859741095E+03  0.18216432549E+03  0.00000000000E+00 0. -1.
         -5    1    3    3    0  503 -0.15166718492E+02  0.81431624663E+02 -0.91414881110E+02  0.12345002768E+03  0.47000000000E+01 0.  1.
         11    1    4    4    0    0 -0.38929401068E+02  0.48836299545E+02 -0.10410140517E+03  0.12139845542E+03  0.00000000000E+00 0. -1.
        -12    1    4    4    0    0 -0.98946229890E+02  0.39648581558E+02 -0.43272099564E+03  0.44565662398E+03  0.00000000000E+00 0.  1.
<mgrwt>
<rscale>  2 0.28650919E+03</rscale>
<asrwt>0</asrwt>
<pdfrwt beam="1">  1       21 0.13471836E-01 0.28655753E+03</pdfrwt>
<pdfrwt beam="2">  1       21 0.15733129E+00 0.28655753E+03</pdfrwt>
<totfact> 0.11835546E+04</totfact>
</mgrwt>
</event>
<event>
12    1  0.1071811E-001  0.1828577E+03  0.7546771E-02  0.1165386E+00
         21   -1    0    0  503  502  0.00000000000E+00  0.00000000000E+00  0.51373570737E+03  0.51373570737E+03  0.00000000000E+00 0. -1.
         21   -1    0    0  501  503 -0.00000000000E+00 -0.00000000000E+00 -0.21213022934E+03  0.21213022934E+03  0.00000000000E+00 0. -1.
          6    2    1    2  501    0  0.16020857515E+02  0.60403836277E+02 -0.15202648555E+03  0.23676584571E+03  0.17041338584E+03 0.  0.
         24    2    3    3    0    0 -0.41132000089E+02  0.15185697622E+01 -0.43549681473E+02  0.10066576941E+03  0.80888039227E+02 0.  0.
         -6    2    1    2    0  502 -0.16020857515E+02 -0.60403836277E+02  0.45363196358E+03  0.48910009100E+03  0.17184775042E+03 0.  0.
        -24    2    5    5    0    0 -0.27772918845E+02 -0.13360991374E+02  0.42240864425E+03  0.43123709875E+03  0.81157387167E+02 0.  0.
          5    1    3    3  501    0  0.57152857604E+02  0.58885266515E+02 -0.10847680408E+03  0.13610007630E+03  0.47000000000E+01 0. -1.
        -11    1    4    4    0    0 -0.16833798355E+02 -0.36932978811E+02 -0.36598456713E+02  0.54652252695E+02  0.00000000000E+00 0.  1.
         12    1    4    4    0    0 -0.24298201734E+02  0.38451548573E+02 -0.69512247597E+01  0.46013516719E+02  0.00000000000E+00 0. -1.
         -5    1    5    5    0  502  0.11752061330E+02 -0.47042844904E+02  0.31223319330E+02  0.57862992250E+02  0.47000000000E+01 0.  1.
         11    1    6    6    0    0  0.13586945888E+02  0.20601371884E+02  0.23634330556E+03  0.23762823845E+03  0.00000000000E+00 0. -1.
        -12    1    6    6    0    0 -0.41359864733E+02 -0.33962363257E+02  0.18606533868E+03  0.19360886030E+03  0.00000000000E+00 0.  1.
<mgrwt>
<rscale>  2 0.18251994E+03</rscale>
<asrwt>0</asrwt>
<pdfrwt beam="1">  1       21 0.79036262E-01 0.18285771E+03</pdfrwt>
<pdfrwt beam="2">  1       21 0.32635420E-01 0.18285771E+03</pdfrwt>
<totfact> 0.12855646E+04</totfact>
</mgrwt>
</event>
<event>
12    1  0.1071811E-001  0.1892373E+03  0.7546771E-02  0.1159767E+00
         21   -1    0    0  501  502  0.00000000000E+00  0.00000000000E+00  0.78647738186E+02  0.78647738186E+02  0.00000000000E+00 0.  1.
         21   -1    0    0  502  503 -0.00000000000E+00 -0.00000000000E+00 -0.84726043421E+03  0.84726043421E+03  0.00000000000E+00 0.  1.
         -6    2    1    2    0  503  0.44411225290E+01 -0.77075923220E+02 -0.70322261197E+03  0.72823951635E+03  0.17277247953E+03 0.  0.
        -24    2    3    3    0    0  0.18235166184E+02  0.23436281585E+02 -0.38518764597E+03  0.39438130011E+03  0.79279926132E+02 0.  0.
          6    2    1    2  501    0 -0.44411225290E+01  0.77075923220E+02 -0.65390084055E+02  0.19766865604E+03  0.16981346525E+03 0.  0.
         24    2    5    5    0    0  0.90766367991E+01 -0.16839801597E+02 -0.24690132423E+01  0.83721105227E+02  0.81468786542E+02 0.  0.
          5    1    5    5  501    0 -0.13517759328E+02  0.93915724817E+02 -0.62921070813E+02  0.11394755082E+03  0.47000000000E+01 0. -1.
        -11    1    6    6    0    0  0.31310590731E+02 -0.78997642070E+01  0.29520025773E+02  0.43751471839E+02  0.00000000000E+00 0.  1.
         12    1    6    6    0    0 -0.22233953932E+02 -0.89400373899E+01 -0.31989039015E+02  0.39969633387E+02  0.00000000000E+00 0. -1.
         -5    1    3    3    0  503 -0.13794043655E+02 -0.10051220481E+03 -0.31803496600E+03  0.33385821624E+03  0.47000000000E+01 0.  1.
         13    1    4    4    0    0 -0.10715179144E+02  0.62716596875E+01 -0.32643844189E+03  0.32667446353E+03  0.00000000000E+00 0. -1.
        -14    1    4    4    0    0  0.28950345328E+02  0.17164621898E+02 -0.58749204083E+02  0.67706836582E+02  0.00000000000E+00 0.  1.
<mgrwt>
<rscale>  2 0.18855924E+03</rscale>
<asrwt>0</asrwt>
<pdfrwt beam="1">  1       21 0.12099651E-01 0.18923729E+03</pdfrwt>
<pdfrwt beam="2">  1       21 0.13034777E+00 0.18923729E+03</pdfrwt>
<totfact> 0.24877392E+04</totfact>
</mgrwt>
</event>
<event>
12    1  0.1071811E-001  0.1920334E+03  0.7546771E-02  0.1156836E+00
         21   -1    0    0  503  502  0.00000000000E+00  0.00000000000E+00  0.40890382929E+03  0.40890382929E+03  0.00000000000E+00 0. -1.
         21   -1    0    0  501  503 -0.00000000000E+00 -0.00000000000E+00 -0.18888034592E+03  0.18888034592E+03  0.00000000000E+00 0.  1.
          6    2    1    2  501    0  0.49965972325E+02 -0.63099139790E+02 -0.10637610841E+03  0.21952839189E+03  0.17435234031E+03 0.  0.
         24    2    3    3    0    0  0.94747126909E+01 -0.45166801823E+02  0.96553713168E+01  0.95244422127E+02  0.82755444434E+02 0.  0.
         -6    2    1    2    0  502 -0.49965972325E+02  0.63099139790E+02  0.32639959179E+03  0.37825578332E+03  0.17338582486E+03 0.  0.
        -24    2    5    5    0    0  0.33623170994E+01  0.91799604430E+02  0.26614669049E+03  0.29269805288E+03  0.79997604653E+02 0.  0.
          5    1    3    3  501    0  0.40491259634E+02 -0.17932337967E+02 -0.11603147973E+03  0.12428396976E+03  0.47000000000E+01 0. -1.
        -13    1    4    4    0    0  0.25357144848E+02  0.12100336705E+01  0.32435669648E+02  0.41188853369E+02  0.00000000000E+00 0.  1.
         14    1    4    4    0    0 -0.15882432157E+02 -0.46376835494E+02 -0.22780298331E+02  0.54055568758E+02  0.00000000000E+00 0. -1.
         -5    1    5    5    0  502 -0.53328289424E+02 -0.28700464639E+02  0.60252901299E+02  0.85557730442E+02  0.47000000000E+01 0.  1.
         11    1    6    6    0    0 -0.40818354964E+01  0.82520315398E+02  0.26818954451E+03  0.28062768149E+03  0.00000000000E+00 0. -1.
        -12    1    6    6    0    0  0.74441525958E+01  0.92792890322E+01 -0.20428540228E+01  0.12070371385E+02  0.00000000000E+00 0.  1.
<mgrwt>
<rscale>  2 0.19181378E+03</rscale>
<asrwt>0</asrwt>
<pdfrwt beam="1">  1       21 0.62908281E-01 0.19203343E+03</pdfrwt>
<pdfrwt beam="2">  1       21 0.29058515E-01 0.19203343E+03</pdfrwt>
<totfact> 0.26540058E+04</totfact>
</mgrwt>
</event>
<event>
12    1  0.1071811E-001  0.1801585E+03  0.7546771E-02  0.1168731E+00
         21   -1    0    0  503  502  0.00000000000E+00  0.00000000000E+00  0.17592092177E+03  0.17592092177E+03  0.00000000000E+00 0. -1.
         21   -1    0    0  501  503 -0.00000000000E+00 -0.00000000000E+00 -0.19624485107E+03  0.19624485107E+03  0.00000000000E+00 0. -1.
          6    2    1    2  501    0 -0.28252274265E+02  0.22780358627E+02 -0.63806033681E+02  0.19112375979E+03  0.17646514069E+03 0.  0.
         24    2    3    3    0    0 -0.22491549946E+02 -0.42479975312E+01 -0.10940938342E+03  0.13759364220E+03  0.80235166189E+02 0.  0.
         -6    2    1    2    0  502  0.28252274265E+02 -0.22780358627E+02  0.43482104388E+02  0.18104201305E+03  0.17195459095E+03 0.  0.
        -24    2    5    5    0    0  0.47252706821E+02 -0.60672935244E+02 -0.11148803599E+02  0.11173479909E+03  0.80289140810E+02 0.  0.
          5    1    3    3  501    0 -0.57607243196E+01  0.27028356158E+02  0.45603349735E+02  0.53530117582E+02  0.47000000000E+01 0. -1.
        -11    1    4    4    0    0 -0.45556635861E+01  0.36733262690E+02 -0.63451765379E+02  0.73458921775E+02  0.00000000000E+00 0.  1.
         12    1    4    4    0    0 -0.17935886360E+02 -0.40981260222E+02 -0.45957618038E+02  0.64134720430E+02  0.00000000000E+00 0. -1.
         -5    1    5    5    0  502 -0.19000432556E+02  0.37892576617E+02  0.54630907987E+02  0.69307213965E+02  0.47000000000E+01 0.  1.
         11    1    6    6    0    0  0.21899389972E+02  0.42575621026E+01 -0.31972013201E+02  0.38986148108E+02  0.00000000000E+00 0. -1.
        -12    1    6    6    0    0  0.25353316850E+02 -0.64930497347E+02  0.20823209602E+02  0.72748650978E+02  0.00000000000E+00 0.  1.
<mgrwt>
<rscale>  2 0.17904426E+03</rscale>
<asrwt>0</asrwt>
<pdfrwt beam="1">  1       21 0.27064757E-01 0.18015849E+03</pdfrwt>
<pdfrwt beam="2">  1       21 0.30191515E-01 0.18015849E+03</pdfrwt>
<totfact> 0.13748801E+05</totfact>
</mgrwt>
</event>
<event>
12    1  0.1071811E-001  0.3339892E+03  0.7546771E-02  0.1069425E+00
         21   -1    0    0  501  502  0.00000000000E+00  0.00000000000E+00  0.40730837093E+03  0.40730837093E+03  0.00000000000E+00 0. -1.
         21   -1    0    0  502  503 -0.00000000000E+00 -0.00000000000E+00 -0.38499083495E+03  0.38499083495E+03  0.00000000000E+00 0.  1.
         -6    2    1    2    0  503  0.27758147931E+03  0.67014357685E+02 -0.20196488748E+03  0.38999164646E+03  0.17251454067E+03 0.  0.
        -24    2    3    3    0    0  0.21449413725E+03 -0.19185590886E+01 -0.95795616479E+02  0.24847923058E+03  0.80955000534E+02 0.  0.
          6    2    1    2  501    0 -0.27758147931E+03 -0.67014357685E+02  0.22428242345E+03  0.40230755942E+03  0.17322345427E+03 0.  0.
         24    2    5    5    0    0 -0.13526289800E+03 -0.10161552165E+03  0.12435841800E+03  0.22494150856E+03  0.80696346449E+02 0.  0.
          5    1    5    5  501    0 -0.14231858130E+03  0.34601163969E+02  0.99924005456E+02  0.17736605086E+03  0.47000000000E+01 0. -1.
        -11    1    6    6    0    0 -0.10731428161E+02 -0.13766227913E+02  0.54624560684E+02  0.57345577085E+02  0.00000000000E+00 0.  1.
         12    1    6    6    0    0 -0.12453146984E+03 -0.87849293741E+02  0.69733857313E+02  0.16759593148E+03  0.00000000000E+00 0. -1.
         -5    1    3    3    0  503  0.63087342062E+02  0.68932916774E+02 -0.10616927100E+03  0.14151241588E+03  0.47000000000E+01 0.  1.
         13    1    4    4    0    0 -0.50120105662E+01 -0.81547885508E+01 -0.55437470640E+01  0.11061372326E+02  0.00000000000E+00 0. -1.
        -14    1    4    4    0    0  0.21950614781E+03  0.62362294623E+01 -0.90251869415E+02  0.23741785825E+03  0.00000000000E+00 0.  1.
<mgrwt>
<rscale>  2 0.33389735E+03</rscale>
<asrwt>0</asrwt>
<pdfrwt beam="1">  1       21 0.62662826E-01 0.33398917E+03</pdfrwt>
<pdfrwt beam="2">  1       21 0.59229359E-01 0.33398917E+03</pdfrwt>
<totfact> 0.57914325E+03</totfact>
</mgrwt>
</event>
<event>
12    1  0.1071811E-001  0.1755705E+03  0.7546771E-02  0.1172605E+00
         21   -1    0    0  503  502  0.00000000000E+00  0.00000000000E+00  0.35692528808E+03  0.35692528808E+03  0.00000000000E+00 0.  1.
         21   -1    0    0  501  503 -0.00000000000E+00 -0.00000000000E+00 -0.25696325637E+03  0.25696325637E+03  0.00000000000E+00 0.  1.
          6    2    1    2  501    0  0.23269332128E+02  0.45536615742E+01 -0.20083826918E+03  0.26559870711E+03  0.17217568121E+03 0.  0.
         24    2    3    3    0    0  0.46843077840E+02  0.14229931756E+02 -0.45135240994E+02  0.10775424355E+03  0.84717307107E+02 0.  0.
         -6    2    1    2    0  502 -0.23269332128E+02 -0.45536615742E+01  0.30080030089E+03  0.34828983734E+03  0.17396204220E+03 0.  0.
        -24    2    5    5    0    0  0.47656303931E+02  0.23057722331E+02  0.19317371839E+03  0.21638682133E+03  0.81880334055E+02 0.  0.
          5    1    3    3  501    0 -0.23573745713E+02 -0.96762701813E+01 -0.15570302818E+03  0.15784446356E+03  0.47000000000E+01 0. -1.
        -13    1    4    4    0    0 -0.16181594925E+02 -0.20173349978E+02 -0.14884936738E+02  0.29839058386E+02  0.00000000000E+00 0.  1.
         14    1    4    4    0    0  0.63024672766E+02  0.34403281733E+02 -0.30250304256E+02  0.77915185162E+02  0.00000000000E+00 0. -1.
         -5    1    5    5    0  502 -0.70925636059E+02 -0.27611383905E+02  0.10762658250E+03  0.13190301601E+03  0.47000000000E+01 0.  1.
         11    1    6    6    0    0  0.29842607854E+02 -0.84859675635E+01  0.14805857787E+02  0.34377409935E+02  0.00000000000E+00 0. -1.
        -12    1    6    6    0    0  0.17813696077E+02  0.31543689894E+02  0.17836786060E+03  0.18200941139E+03  0.00000000000E+00 0.  1.
<mgrwt>
<rscale>  2 0.17512633E+03</rscale>
<asrwt>0</asrwt>
<pdfrwt beam="1">  1       21 0.54911583E-01 0.17557047E+03</pdfrwt>
<pdfrwt beam="2">  1       21 0.39532809E-01 0.17557047E+03</pdfrwt>
<totfact> 0.19505970E+04</totfact>
</mgrwt>
</event>
<event>
12    1  0.1071811E-001  0.3716178E+03  0.7546771E-02  0.1054095E+00
         21   -1    0    0  503  502  0.00000000000E+00  0.00000000000E+00  0.43008378217E+03  0.43008378217E+03  0.00000000000E+00 0.  1.
         21   -1    0    0  501  503 -0.00000000000E+00 -0.00000000000E+00 -0.34952877519E+03  0.34952877519E+03  0.00000000000E+00 0. -1.
          6    2    1    2  501    0 -0.32443731799E+03 -0.55145170246E+02  0.15177648127E+03  0.40123140544E+03  0.17219168777E+03 0.  0.
         24    2    3    3    0    0 -0.18751347011E+03 -0.15321982531E+02  0.17572293996E+02  0.20535675093E+03  0.80414830812E+02 0.  0.
         -6    2    1    2    0  502  0.32443731799E+03  0.55145170246E+02 -0.71221474280E+02  0.37838115192E+03  0.17262454814E+03 0.  0.
        -24    2    5    5    0    0  0.23452022970E+03  0.73649547981E+02 -0.10101014534E+03  0.28175325902E+03  0.93583414407E+02 0.  0.
          5    1    3    3  501    0 -0.13692384788E+03 -0.39823187714E+02  0.13420418727E+03  0.19587465451E+03  0.47000000000E+01 0. -1.
        -13    1    4    4    0    0 -0.79277092553E+01  0.19084709876E+02  0.82984711665E+01  0.22269695750E+02  0.00000000000E+00 0.  1.
         14    1    4    4    0    0 -0.17958576086E+03 -0.34406692407E+02  0.92738228294E+01  0.18308705518E+03  0.00000000000E+00 0. -1.
         -5    1    5    5    0  502  0.89917088293E+02 -0.18504377736E+02  0.29788671056E+02  0.96627892897E+02  0.47000000000E+01 0.  1.
         13    1    6    6    0    0  0.31079547262E+02  0.97212879193E+01 -0.54506085471E+02  0.63492952760E+02  0.00000000000E+00 0. -1.
        -14    1    6    6    0    0  0.20344068244E+03  0.63928260062E+02 -0.46504059865E+02  0.21826030626E+03  0.00000000000E+00 0.  1.
<mgrwt>
<rscale>  2 0.37156758E+03</rscale>
<asrwt>0</asrwt>
<pdfrwt beam="1">  1       21 0.66166736E-01 0.37161781E+03</pdfrwt>
<pdfrwt beam="2">  1       21 0.53773658E-01 0.37161781E+03</pdfrwt>
<totfact> 0.62290026E+03</totfact>
</mgrwt>
</event>
<event>
12    1  0.1071811E-001  0.1804290E+03  0.7546771E-02  0.1168880E+00
         21   -1    0    0  503  502  0.00000000000E+00  0.00000000000E+00  0.10922310586E+03  0.10922310586E+03  0.00000000000E+00 0. -1.
         21   -1    0    0  501  503 -0.00000000000E+00 -0.00000000000E+00 -0.29168282976E+03  0.29168282976E+03  0.00000000000E+00 0. -1.
          6    2    1    2  501    0  0.43780233537E+02 -0.23248536566E+02 -0.70593032738E+02  0.19374725954E+03  0.17348608304E+03 0.  0.
         24    2    3    3    0    0 -0.30482187418E+02 -0.53222965045E+02 -0.46030665900E+02  0.10984986153E+03  0.78653176140E+02 0.  0.
         -6    2    1    2    0  502 -0.43780233537E+02  0.23248536566E+02 -0.11186669117E+03  0.20715867608E+03  0.16716266683E+03 0.  0.
        -24    2    5    5    0    0 -0.68830789370E+02  0.45718422506E+02 -0.30177292897E+02  0.11868453346E+03  0.79671185223E+02 0.  0.
          5    1    3    3  501    0  0.74262420954E+02  0.29974428479E+02 -0.24562366838E+02  0.83897398013E+02  0.47000000000E+01 0. -1.
        -11    1    4    4    0    0 -0.72575945806E+01 -0.15906537481E+02 -0.60969717577E+02  0.63427100479E+02  0.00000000000E+00 0.  1.
         12    1    4    4    0    0 -0.23224592837E+02 -0.37316427564E+02  0.14939051677E+02  0.46422761051E+02  0.00000000000E+00 0. -1.
         -5    1    5    5    0  502  0.25050555834E+02 -0.22469885940E+02 -0.81689398268E+02  0.88474142613E+02  0.47000000000E+01 0.  1.
         11    1    6    6    0    0 -0.74489506582E+02  0.40952744734E+02 -0.49240108209E+02  0.98236460382E+02  0.00000000000E+00 0. -1.
        -12    1    6    6    0    0  0.56587172114E+01  0.47656777726E+01  0.19062815312E+02  0.20448073081E+02  0.00000000000E+00 0.  1.
<mgrwt>
<rscale>  2 0.17889160E+03</rscale>
<asrwt>0</asrwt>
<pdfrwt beam="1">  1       21 0.16803555E-01 0.18042900E+03</pdfrwt>
<pdfrwt beam="2">  1       21 0.44874281E-01 0.18042900E+03</pdfrwt>
<totfact> 0.15249322E+05</totfact>
</mgrwt>
</event>
<event>
12    1  0.1071811E-001  0.1845990E+03  0.7546771E-02  0.1163496E+00
         21   -1    0    0  501  502  0.00000000000E+00  0.00000000000E+00  0.51711540720E+03  0.51711540720E+03  0.00000000000E+00 0. -1.
         21   -1    0    0  502  503 -0.00000000000E+00 -0.00000000000E+00 -0.14385252102E+03  0.14385252102E+03  0.00000000000E+00 0.  1.
         -6    2    1    2    0  503 -0.24786225352E+02  0.59583892928E+02 -0.56751373573E+02  0.19312560239E+03  0.17295138806E+03 0.  0.
        -24    2    3    3    0    0 -0.17013566499E+02  0.10559197200E+03 -0.55304807287E+02  0.14620716125E+03  0.82938448837E+02 0.  0.
          6    2    1    2  501    0  0.24786225352E+02 -0.59583892928E+02  0.43001425976E+03  0.46784232583E+03  0.17262555136E+03 0.  0.
         24    2    5    5    0    0  0.25062347457E+02  0.27924681995E+02  0.14772519161E+03  0.17226317413E+03  0.80274278565E+02 0.  0.
          5    1    5    5  501    0 -0.27612210443E+00 -0.87508574923E+02  0.28228906815E+03  0.29557915170E+03  0.47000000000E+01 0. -1.
        -13    1    6    6    0    0 -0.28780983220E+02  0.58146099252E+01  0.37648822807E+02  0.47745036836E+02  0.00000000000E+00 0.  1.
         14    1    6    6    0    0  0.53843330677E+02  0.22110072070E+02  0.11007636881E+03  0.12451813729E+03  0.00000000000E+00 0. -1.
         -5    1    3    3    0  503 -0.77726588535E+01 -0.46008079069E+02 -0.14465662867E+01  0.46918441143E+02  0.47000000000E+01 0.  1.
         11    1    4    4    0    0 -0.38626866666E+02  0.35229996862E+02  0.29118085609E+01  0.52360921845E+02  0.00000000000E+00 0. -1.
        -12    1    4    4    0    0  0.21613300168E+02  0.70361975135E+02 -0.58216615848E+02  0.93846239401E+02  0.00000000000E+00 0.  1.
<mgrwt>
<rscale>  2 0.18452261E+03</rscale>
<asrwt>0</asrwt>
<pdfrwt beam="1">  1       21 0.79556216E-01 0.18459897E+03</pdfrwt>
<pdfrwt beam="2">  1       21 0.22131157E-01 0.18459897E+03</pdfrwt>
<totfact> 0.26705495E+04</totfact>
</mgrwt>
</event>
<event>
12    1  0.1071811E-001  0.2024025E+03  0.7546771E-02  0.1147795E+00
         21   -1    0    0  501  502  0.00000000000E+00  0.00000000000E+00  0.12908750385E+04  0.12908750385E+04  0.00000000000E+00 0.  1.
         21   -1    0    0  502  503 -0.00000000000E+00 -0.00000000000E+00 -0.32917014555E+02  0.32917014555E+02  0.00000000000E+00 0.  1.
         -6    2    1    2    0  503 -0.10242814228E+03  0.12495107302E+02  0.75750621691E+03  0.78408062542E+03  0.17412382508E+03 0.  0.
        -24    2    3    3    0    0 -0.93306540905E+02  0.47781358212E+02  0.71792651601E+03  0.73007168321E+03  0.81221988836E+02 0.  0.
          6    2    1    2  501    0  0.10242814228E+03 -0.12495107302E+02  0.50045180707E+03  0.53971142767E+03  0.17374913503E+03 0.  0.
         24    2    5    5    0    0  0.13419498327E+03  0.17192441901E+02  0.33387523165E+03  0.36748968618E+03  0.72609403977E+02 0.  0.
          5    1    5    5  501    0 -0.31766840990E+02 -0.29687549203E+02  0.16657657542E+03  0.17222174149E+03  0.47000000000E+01 0. -1.
        -13    1    6    6    0    0  0.45422954761E+02  0.34030678693E+02  0.80585601889E+02  0.98566582285E+02  0.00000000000E+00 0.  1.
         14    1    6    6    0    0  0.88772028509E+02 -0.16838236792E+02  0.25328962976E+03  0.26892310390E+03  0.00000000000E+00 0. -1.
         -5    1    3    3    0  503 -0.91216013748E+01 -0.35286250910E+02  0.39579700908E+02  0.54008942213E+02  0.47000000000E+01 0.  1.
         13    1    4    4    0    0 -0.27809246260E+02  0.44977504267E+02  0.16485995876E+03  0.17313328990E+03  0.00000000000E+00 0. -1.
        -14    1    4    4    0    0 -0.65497294645E+02  0.28038539454E+01  0.55306655724E+03  0.55693839331E+03  0.00000000000E+00 0.  1.
<mgrwt>
<rscale>  2 0.20232186E+03</rscale>
<asrwt>0</asrwt>
<pdfrwt beam="1">  1       21 0.19859612E+00 0.20240247E+03</pdfrwt>
<pdfrwt beam="2">  1       21 0.50641571E-02 0.20240247E+03</pdfrwt>
<totfact> 0.35845355E+04</totfact>
</mgrwt>
</event>
<event>
12    1  0.1071811E-001  0.1911198E+03  0.7546771E-02  0.1159350E+00
         21   -1    0    0  501  502  0.00000000000E+00  0.00000000000E+00  0.55410369529E+02  0.55410369529E+02  0.00000000000E+00 0.  1.
         21   -1    0    0  502  503 -0.00000000000E+00 -0.00000000000E+00 -0.68070154376E+03  0.68070154376E+03  0.00000000000E+00 0.  1.
         -6    2    1    2    0  503 -0.14752375952E+02 -0.80964626513E+02 -0.21961205126E+03  0.29112923968E+03  0.17249312391E+03 0.  0.
        -24    2    3    3    0    0 -0.21214025642E+02 -0.94239262266E+02 -0.23695152081E+03  0.26787593722E+03  0.79249107835E+02 0.  0.
          6    2    1    2  501    0  0.14752375952E+02  0.80964626513E+02 -0.40567912297E+03  0.44498267360E+03  0.16328234949E+03 0.  0.
         24    2    5    5    0    0  0.62678937466E+02  0.61692571547E+02 -0.18638574523E+03  0.21963839717E+03  0.75939165797E+02 0.  0.
          5    1    5    5  501    0 -0.47926561514E+02  0.19272054966E+02 -0.21929337774E+03  0.22534427643E+03  0.47000000000E+01 0. -1.
        -13    1    6    6    0    0 -0.56256582142E+01  0.31139594135E+02 -0.10228863606E+03  0.10707141271E+03  0.00000000000E+00 0.  1.
         14    1    6    6    0    0  0.68304595680E+02  0.30552977412E+02 -0.84097109168E+02  0.11256698446E+03  0.00000000000E+00 0. -1.
         -5    1    3    3    0  503  0.64616496896E+01  0.13274635753E+02  0.17339469547E+02  0.23253302459E+02  0.47000000000E+01 0.  1.
         13    1    4    4    0    0 -0.38546282818E+02 -0.11455602306E+02 -0.82690763156E+02  0.91950035642E+02  0.00000000000E+00 0. -1.
        -14    1    4    4    0    0  0.17332257176E+02 -0.82783659960E+02 -0.15426075765E+03  0.17592590158E+03  0.00000000000E+00 0.  1.
<mgrwt>
<rscale>  2 0.18901787E+03</rscale>
<asrwt>0</asrwt>
<pdfrwt beam="1">  1       21 0.85246721E-02 0.19111981E+03</pdfrwt>
<pdfrwt beam="2">  1       21 0.10472332E+00 0.19111981E+03</pdfrwt>
<totfact> 0.79034998E+04</totfact>
</mgrwt>
</event>
<event>
12    1  0.1071811E-001  0.1785120E+03  0.7546771E-02  0.1169349E+00
         21   -1    0    0  503  502  0.00000000000E+00  0.00000000000E+00  0.11611275338E+03  0.11611275338E+03  0.00000000000E+00 0. -1.
         21   -1    0    0  501  503 -0.00000000000E+00 -0.00000000000E+00 -0.36745975152E+03  0.36745975152E+03  0.00000000000E+00 0. -1.
          6    2    1    2  501    0 -0.47578503687E-01  0.43678620770E+02 -0.24782727613E+03  0.30542575538E+03  0.17308584310E+03 0.  0.
         24    2    3    3    0    0 -0.29580169848E+00  0.22422250123E+02 -0.35365707956E+02  0.91851639775E+02  0.81750508444E+02 0.  0.
         -6    2    1    2    0  502  0.47578503687E-01 -0.43678620770E+02 -0.35197220122E+01  0.17814674952E+03  0.17267325139E+03 0.  0.
        -24    2    5    5    0    0  0.55668437164E+02  0.70623283316E+01 -0.20766026172E+02  0.10076555775E+03  0.81077853988E+02 0.  0.
          5    1    3    3  501    0  0.24822319479E+00  0.21256370647E+02 -0.21246156817E+03  0.21357411561E+03  0.47000000000E+01 0. -1.
        -13    1    4    4    0    0  0.27814345331E+02 -0.17431645088E+02 -0.22524234505E+01  0.32902484224E+02  0.00000000000E+00 0.  1.
         14    1    4    4    0    0 -0.28110147030E+02  0.39853895210E+02 -0.33113284506E+02  0.58949155551E+02  0.00000000000E+00 0. -1.
         -5    1    5    5    0  502 -0.55620858660E+02 -0.50740949102E+02  0.17246304160E+02  0.77381191778E+02  0.47000000000E+01 0.  1.
         13    1    6    6    0    0  0.75560780470E+02  0.14482206027E+02 -0.12320644108E+02  0.77916391779E+02  0.00000000000E+00 0. -1.
        -14    1    6    6    0    0 -0.19892343306E+02 -0.74198776955E+01 -0.84453820640E+01  0.22849165968E+02  0.00000000000E+00 0.  1.
<mgrwt>
<rscale>  2 0.17841191E+03</rscale>
<asrwt>0</asrwt>
<pdfrwt beam="1">  1       21 0.17863501E-01 0.17851200E+03</pdfrwt>
<pdfrwt beam="2">  1       21 0.56532269E-01 0.17851200E+03</pdfrwt>
<totfact> 0.84268608E+04</totfact>
</mgrwt>
</event>
<event>
12    1  0.1071811E-001  0.2276605E+03  0.7546771E-02  0.1128719E+00
         21   -1    0    0  501  502  0.00000000000E+00  0.00000000000E+00  0.51602957141E+03  0.51602957141E+03  0.00000000000E+00 0. -1.
         21   -1    0    0  502  503 -0.00000000000E+00 -0.00000000000E+00 -0.39099215368E+03  0.39099215368E+03  0.00000000000E+00 0. -1.
         -6    2    1    2    0  503  0.14393518688E+03  0.27832382975E+02 -0.32920383154E+03  0.39892291447E+03  0.17109164044E+03 0.  0.
        -24    2    3    3    0    0  0.17278044788E+03  0.36440762030E+02 -0.27378388551E+03  0.33568041539E+03  0.80887038565E+02 0.  0.
          6    2    1    2  501    0 -0.14393518688E+03 -0.27832382975E+02  0.45424124927E+03  0.50809881062E+03  0.17417608690E+03 0.  0.
         24    2    5    5    0    0 -0.43588235269E+02 -0.70579883538E+02  0.18646085657E+03  0.21891843746E+03  0.79222326493E+02 0.  0.
          5    1    5    5  501    0 -0.10034695161E+03  0.42747500563E+02  0.26778039270E+03  0.28918037316E+03  0.47000000000E+01 0. -1.
        -13    1    6    6    0    0 -0.49107985205E+02 -0.19248760465E+02  0.48655486724E+02  0.71759775492E+02  0.00000000000E+00 0.  1.
         14    1    6    6    0    0  0.55197499352E+01 -0.51331123073E+02  0.13780536984E+03  0.14715866197E+03  0.00000000000E+00 0. -1.
         -5    1    3    3    0  503 -0.28845261000E+02 -0.86083790554E+01 -0.55419946032E+02  0.63242499083E+02  0.47000000000E+01 0.  1.
         11    1    4    4    0    0  0.11256246263E+03  0.31709386433E+01 -0.22415597250E+03  0.25085107704E+03  0.00000000000E+00 0. -1.
        -12    1    4    4    0    0  0.60217985250E+02  0.33269823387E+02 -0.49627913009E+02  0.84829338353E+02  0.00000000000E+00 0.  1.
<mgrwt>
<rscale>  2 0.22707041E+03</rscale>
<asrwt>0</asrwt>
<pdfrwt beam="1">  1       21 0.79389165E-01 0.22766047E+03</pdfrwt>
<pdfrwt beam="2">  1       21 0.60152639E-01 0.22766047E+03</pdfrwt>
<totfact> 0.35085901E+03</totfact>
</mgrwt>
</event>
<event>
12    1  0.1071811E-001  0.2044843E+03  0.7546771E-02  0.1146033E+00
         21   -1    0    0  503  502  0.00000000000E+00  0.00000000000E+00  0.17817455239E+03  0.17817455239E+03  0.00000000000E+00 0.  1.
         21   -1    0    0  501  503 -0.00000000000E+00 -0.00000000000E+00 -0.25486533083E+03  0.25486533083E+03  0.00000000000E+00 0. -1.
          6    2    1    2  501    0  0.33959488506E+02 -0.10471569237E+03 -0.99482887578E+02  0.22739984919E+03  0.17232302052E+03 0.  0.
         24    2    3    3    0    0  0.24361035865E+02 -0.12431109981E+03 -0.28685080661E+02  0.15316690671E+03  0.81182250855E+02 0.  0.
         -6    2    1    2    0  502 -0.33959488506E+02  0.10471569237E+03  0.22792109138E+02  0.20564003403E+03  0.17219094131E+03 0.  0.
        -24    2    5    5    0    0 -0.57447308966E+02  0.45401278216E+02 -0.40077583576E+02  0.11594853109E+03  0.80475957817E+02 0.  0.
          5    1    3    3  501    0  0.95984526416E+01  0.19595407434E+02 -0.70797806917E+02  0.74232942484E+02  0.47000000000E+01 0. -1.
        -11    1    4    4    0    0 -0.67762532586E+01  0.74935089505E+01 -0.13534626825E+02  0.16889535455E+02  0.00000000000E+00 0.  1.
         12    1    4    4    0    0  0.31137289123E+02 -0.13180460876E+03 -0.15150453837E+02  0.13627737125E+03  0.00000000000E+00 0. -1.
         -5    1    5    5    0  502  0.23487820460E+02  0.59314414159E+02  0.62869692714E+02  0.89691502936E+02  0.47000000000E+01 0.  1.
         11    1    6    6    0    0 -0.62772413264E+02  0.63377890661E+02 -0.38425995797E+02  0.97127184890E+02  0.00000000000E+00 0. -1.
        -12    1    6    6    0    0  0.53251042971E+01 -0.17976612445E+02 -0.16515877796E+01  0.18821346205E+02  0.00000000000E+00 0.  1.
<mgrwt>
<rscale>  2 0.20445651E+03</rscale>
<asrwt>0</asrwt>
<pdfrwt beam="1">  1       21 0.27411470E-01 0.20448434E+03</pdfrwt>
<pdfrwt beam="2">  1       21 0.39210051E-01 0.20448434E+03</pdfrwt>
<totfact> 0.79196764E+04</totfact>
</mgrwt>
</event>
<event>
12    1  0.1071811E-001  0.1975530E+03  0.7546771E-02  0.1152339E+00
         21   -1    0    0  503  502  0.00000000000E+00  0.00000000000E+00  0.12132945450E+03  0.12132945450E+03  0.00000000000E+00 0.  1.
         21   -1    0    0  501  503 -0.00000000000E+00 -0.00000000000E+00 -0.32438323007E+03  0.32438323007E+03  0.00000000000E+00 0. -1.
          6    2    1    2  501    0  0.53422342381E+02 -0.79961744107E+02 -0.13277058379E+03  0.23602977949E+03  0.16980636530E+03 0.  0.
         24    2    3    3    0    0  0.86341122894E+02 -0.69428987581E+02 -0.14442119724E+03  0.19925462668E+03  0.81053995698E+02 0.  0.
         -6    2    1    2    0  502 -0.53422342381E+02  0.79961744107E+02 -0.70283191777E+02  0.20968290508E+03  0.17256699120E+03 0.  0.
        -24    2    5    5    0    0 -0.43855502811E+02  0.50335599776E+02 -0.11452874868E+03  0.15537828140E+03  0.81046889677E+02 0.  0.
          5    1    3    3  501    0 -0.32918780514E+02 -0.10532756526E+02  0.11650613450E+02  0.36775152811E+02  0.47000000000E+01 0. -1.
        -11    1    4    4    0    0  0.82263358358E+02 -0.23169937812E+02 -0.65470694517E+02  0.10765926800E+03  0.00000000000E+00 0.  1.
         12    1    4    4    0    0  0.40777645361E+01 -0.46259049769E+02 -0.78950502728E+02  0.91595358671E+02  0.00000000000E+00 0. -1.
         -5    1    5    5    0  502 -0.95668395703E+01  0.29626144331E+02  0.44245556903E+02  0.54304623679E+02  0.47000000000E+01 0.  1.
         13    1    6    6    0    0  0.21284590730E+02  0.84229613492E+01 -0.48363487440E+02  0.53507074278E+02  0.00000000000E+00 0. -1.
        -14    1    6    6    0    0 -0.65140093540E+02  0.41912638427E+02 -0.66165261239E+02  0.10187120713E+03  0.00000000000E+00 0.  1.
<mgrwt>
<rscale>  2 0.19694854E+03</rscale>
<asrwt>0</asrwt>
<pdfrwt beam="1">  1       21 0.18666070E-01 0.19755301E+03</pdfrwt>
<pdfrwt beam="2">  1       21 0.49905112E-01 0.19755301E+03</pdfrwt>
<totfact> 0.10021824E+05</totfact>
</mgrwt>
</event>
<event>
12    1  0.1071811E-001  0.2085556E+03  0.7546771E-02  0.1142979E+00
         21   -1    0    0  501  502  0.00000000000E+00  0.00000000000E+00  0.52665394548E+03  0.52665394548E+03  0.00000000000E+00 0.  1.
         21   -1    0    0  502  503 -0.00000000000E+00 -0.00000000000E+00 -0.82273971220E+02  0.82273971220E+02  0.00000000000E+00 0. -1.
         -6    2    1    2    0  503 -0.16536141971E+02 -0.11603083412E+03  0.20621336827E+03  0.29235446096E+03  0.17091102693E+03 0.  0.
        -24    2    3    3    0    0 -0.21932395263E+02 -0.13056125515E+03  0.97152278577E+02  0.18209719829E+03  0.78699130142E+02 0.  0.
          6    2    1    2  501    0  0.16536141971E+02  0.11603083412E+03  0.23816660599E+03  0.31657345574E+03  0.17250745554E+03 0.  0.
         24    2    5    5    0    0  0.25147307732E+02  0.12741574013E+03  0.25236648243E+03  0.29589750954E+03  0.83662039032E+02 0.  0.
          5    1    5    5  501    0 -0.86111657617E+01 -0.11384906003E+02 -0.14199876448E+02  0.20675946208E+02  0.47000000000E+01 0. -1.
        -13    1    6    6    0    0  0.41620366039E+02  0.24896135801E+02  0.58624120991E+02  0.76084558283E+02  0.00000000000E+00 0.  1.
         14    1    6    6    0    0 -0.16473058307E+02  0.10251960433E+03  0.19374236144E+03  0.21981295125E+03  0.00000000000E+00 0. -1.
         -5    1    3    3    0  503  0.53962532922E+01  0.14530421022E+02  0.10906108970E+03  0.11025726267E+03  0.47000000000E+01 0.  1.
         11    1    4    4    0    0 -0.43721695564E+02 -0.10403466145E+03  0.95322868472E+02  0.14772016348E+03  0.00000000000E+00 0. -1.
        -12    1    4    4    0    0  0.21789300301E+02 -0.26526593696E+02  0.18294101049E+01  0.34377034806E+02  0.00000000000E+00 0.  1.
<mgrwt>
<rscale>  2 0.20822514E+03</rscale>
<asrwt>0</asrwt>
<pdfrwt beam="1">  1       21 0.81023682E-01 0.20855556E+03</pdfrwt>
<pdfrwt beam="2">  1       21 0.12657534E-01 0.20855556E+03</pdfrwt>
<totfact> 0.70752743E+04</totfact>
</mgrwt>
</event>
<event>
12    1  0.1071811E-001  0.2582410E+03  0.7546771E-02  0.1108473E+00
         21   -1    0    0  501  502  0.00000000000E+00  0.00000000000E+00  0.29767971926E+03  0.29767971926E+03  0.00000000000E+00 0.  1.
         21   -1    0    0  502  503 -0.00000000000E+00 -0.00000000000E+00 -0.43254815624E+03  0.43254815624E+03  0.00000000000E+00 0. -1.
         -6    2    1    2    0  503  0.18407077640E+03  0.55759370444E+02 -0.32198293305E+03  0.41274860359E+03  0.17232887883E+03 0.  0.
        -24    2    3    3    0    0  0.30656513189E+02  0.53806558749E+02 -0.11585036839E+03  0.15574184523E+03  0.83661502115E+02 0.  0.
          6    2    1    2  501    0 -0.18407077640E+03 -0.55759370444E+02  0.18711449607E+03  0.31747927191E+03  0.16967644309E+03 0.  0.
         24    2    5    5    0    0 -0.13802189418E+03 -0.27041494764E+02  0.49292602794E+02  0.16928284752E+03  0.80284718739E+02 0.  0.
          5    1    5    5  501    0 -0.46048882219E+02 -0.28717875680E+02  0.13782189327E+03  0.14819642439E+03  0.47000000000E+01 0. -1.
        -13    1    6    6    0    0 -0.10698623154E+03 -0.53182026911E+02  0.25240586615E+02  0.12211252572E+03  0.00000000000E+00 0.  1.
         14    1    6    6    0    0 -0.31035662636E+02  0.26140532147E+02  0.24052016179E+02  0.47170321797E+02  0.00000000000E+00 0. -1.
         -5    1    3    3    0  503  0.15341426321E+03  0.19528116941E+01 -0.20613256466E+03  0.25700675836E+03  0.47000000000E+01 0.  1.
         11    1    4    4    0    0  0.21167566469E+02  0.45084950411E+02 -0.12841915156E+03  0.13773959892E+03  0.00000000000E+00 0. -1.
        -12    1    4    4    0    0  0.94889467192E+01  0.87216083383E+01  0.12568783172E+02  0.18002246312E+02  0.00000000000E+00 0.  1.
<mgrwt>
<rscale>  2 0.25779924E+03</rscale>
<asrwt>0</asrwt>
<pdfrwt beam="1">  1       21 0.45796880E-01 0.25824097E+03</pdfrwt>
<pdfrwt beam="2">  1       21 0.66545870E-01 0.25824097E+03</pdfrwt>
<totfact> 0.90849453E+03</totfact>
</mgrwt>
</event>
<event>
12    1  0.1071811E-001  0.2288139E+03  0.7546771E-02  0.1127651E+00
         21   -1    0    0  503  502  0.00000000000E+00  0.00000000000E+00  0.48722819002E+03  0.48722819002E+03  0.00000000000E+00 0.  1.
         21   -1    0    0  501  503 -0.00000000000E+00 -0.00000000000E+00 -0.11449961205E+03  0.11449961205E+03  0.00000000000E+00 0. -1.
          6    2    1    2  501    0 -0.56900668111E+02  0.13744383451E+03  0.10897322296E+03  0.25255348017E+03  0.17256767758E+03 0.  0.
         24    2    3    3    0    0  0.30715425883E+02  0.59887020458E+02  0.38505705740E+02  0.11588087751E+03  0.86115014907E+02 0.  0.
         -6    2    1    2    0  502  0.56900668111E+02 -0.13744383451E+03  0.26375535501E+03  0.34917432190E+03  0.17386007621E+03 0.  0.
        -24    2    5    5    0    0  0.10783611341E+02 -0.14429692081E+03  0.24994925398E+03  0.30032305639E+03  0.82349383739E+02 0.  0.
          5    1    3    3  501    0 -0.87616093995E+02  0.77556814056E+02  0.70467517216E+02  0.13667260265E+03  0.47000000000E+01 0. -1.
        -13    1    4    4    0    0 -0.53948145899E+01  0.51860176181E+02  0.54638409616E+02  0.75524417928E+02  0.00000000000E+00 0.  1.
         14    1    4    4    0    0  0.36110240473E+02  0.80268442770E+01 -0.16132703875E+02  0.40356459587E+02  0.00000000000E+00 0. -1.
         -5    1    5    5    0  502  0.46117056770E+02  0.68530862916E+01  0.13806101027E+02  0.48851265515E+02  0.47000000000E+01 0.  1.
         13    1    6    6    0    0 -0.24843721892E+02 -0.13893483193E+02  0.67447794240E+02  0.73208225907E+02  0.00000000000E+00 0. -1.
        -14    1    6    6    0    0  0.35627333233E+02 -0.13040343761E+03  0.18250145974E+03  0.22711483048E+03  0.00000000000E+00 0.  1.
<mgrwt>
<rscale>  2 0.22856843E+03</rscale>
<asrwt>0</asrwt>
<pdfrwt beam="1">  1       21 0.74958182E-01 0.22881394E+03</pdfrwt>
<pdfrwt beam="2">  1       21 0.17615325E-01 0.22881394E+03</pdfrwt>
<totfact> 0.45705979E+04</totfact>
</mgrwt>
</event>
<event>
12    1  0.1071811E-001  0.2279649E+03  0.7546771E-02  0.1128229E+00
         21   -1    0    0  501  502  0.00000000000E+00  0.00000000000E+00  0.75091617929E+03  0.75091617929E+03  0.00000000000E+00 0. -1.
         21   -1    0    0  502  503 -0.00000000000E+00 -0.00000000000E+00 -0.11890640550E+03  0.11890640550E+03  0.00000000000E+00 0.  1.
         -6    2    1    2    0  503  0.14783323756E+03  0.58336064128E+01  0.33777803544E+02  0.22962769382E+03  0.17233467634E+03 0.  0.
        -24    2    3    3    0    0  0.54705015472E+02 -0.57366489508E+02  0.40969583679E+02  0.11675196758E+03  0.75292511651E+02 0.  0.
          6    2    1    2  501    0 -0.14783323756E+03 -0.58336064128E+01  0.59823197025E+03  0.64019489096E+03  0.17343388104E+03 0.  0.
         24    2    5    5    0    0 -0.57783184073E+02 -0.48184169196E+02  0.44342171153E+03  0.45610010965E+03  0.75788424200E+02 0.  0.
          5    1    5    5  501    0 -0.90050053487E+02  0.42350562783E+02  0.15481025871E+03  0.18409478131E+03  0.47000000000E+01 0. -1.
        -13    1    6    6    0    0 -0.31049360307E+02 -0.66422404666E+02  0.27560127230E+03  0.28518776256E+03  0.00000000000E+00 0.  1.
         14    1    6    6    0    0 -0.26733823766E+02  0.18238235470E+02  0.16782043923E+03  0.17091234710E+03  0.00000000000E+00 0. -1.
         -5    1    3    3    0  503  0.93128222087E+02  0.63200095921E+02 -0.71917801350E+01  0.11287572624E+03  0.47000000000E+01 0.  1.
         13    1    4    4    0    0  0.81148970549E+01 -0.31870564351E+02  0.52926921908E+02  0.62312466561E+02  0.00000000000E+00 0. -1.
        -14    1    4    4    0    0  0.46590118417E+02 -0.25495925157E+02 -0.11957338228E+02  0.54439501020E+02  0.00000000000E+00 0.  1.
<mgrwt>
<rscale>  2 0.22775585E+03</rscale>
<asrwt>0</asrwt>
<pdfrwt beam="1">  1       21 0.11552556E+00 0.22796493E+03</pdfrwt>
<pdfrwt beam="2">  1       21 0.18293294E-01 0.22796493E+03</pdfrwt>
<totfact> 0.15448499E+04</totfact>
</mgrwt>
</event>
<event>
12    1  0.1071811E-001  0.1749735E+03  0.7546771E-02  0.1172758E+00
         21   -1    0    0  503  502  0.00000000000E+00  0.00000000000E+00  0.57904274925E+02  0.57904274925E+02  0.00000000000E+00 0.  1.
         21   -1    0    0  501  503 -0.00000000000E+00 -0.00000000000E+00 -0.68107199956E+03  0.68107199956E+03  0.00000000000E+00 0.  1.
          6    2    1    2  501    0  0.12578165793E+02  0.16037311772E+02 -0.48633321773E+03  0.51685173249E+03  0.17378236127E+03 0.  0.
         24    2    3    3    0    0  0.55137846317E+02 -0.27066546221E+01 -0.18497470068E+03  0.21188991770E+03  0.87373847661E+02 0.  0.
         -6    2    1    2    0  502 -0.12578165793E+02 -0.16037311772E+02 -0.13683450690E+03  0.22212454199E+03  0.17378211718E+03 0.  0.
        -24    2    5    5    0    0 -0.69389627931E+01 -0.49309775166E+02 -0.15636241426E+03  0.18285258512E+03  0.80661392009E+02 0.  0.
          5    1    3    3  501    0 -0.42559680524E+02  0.18743966395E+02 -0.30135851705E+03  0.30496181479E+03  0.47000000000E+01 0. -1.
        -13    1    4    4    0    0 -0.24027371361E+02 -0.15250487144E+01 -0.39238383713E+02  0.46035758977E+02  0.00000000000E+00 0.  1.
         14    1    4    4    0    0  0.79165217678E+02 -0.11816059077E+01 -0.14573631697E+03  0.16585415872E+03  0.00000000000E+00 0. -1.
         -5    1    5    5    0  502 -0.56392029999E+01  0.33272463394E+02  0.19527907356E+02  0.39271956871E+02  0.47000000000E+01 0.  1.
         13    1    6    6    0    0 -0.27829034710E+02 -0.18773439895E+02 -0.13708132657E+03  0.14113180830E+03  0.00000000000E+00 0. -1.
        -14    1    6    6    0    0  0.20890071917E+02 -0.30536335271E+02 -0.19281087689E+02  0.41720776826E+02  0.00000000000E+00 0.  1.
<mgrwt>
<rscale>  2 0.17497341E+03</rscale>
<asrwt>0</asrwt>
<pdfrwt beam="1">  1       21 0.89083500E-02 0.17497347E+03</pdfrwt>
<pdfrwt beam="2">  1       21 0.10478031E+00 0.17497347E+03</pdfrwt>
<totfact> 0.73622404E+04</totfact>
</mgrwt>
</event>
<event>
12    1  0.1071811E-001  0.1953462E+03  0.7546771E-02  0.1154330E+00
         21   -1    0    0  501  502  0.00000000000E+00  0.00000000000E+00  0.57438055636E+03  0.57438055636E+03  0.00000000000E+00 0.  1.
         21   -1    0    0  502  503 -0.00000000000E+00 -0.00000000000E+00 -0.24463497309E+03  0.24463497309E+03  0.00000000000E+00 0. -1.
         -6    2    1    2    0  503  0.59383536332E+01  0.88126277012E+02 -0.18523163078E+03  0.26920418467E+03  0.17423728436E+03 0.  0.
        -24    2    3    3    0    0  0.40681517326E+02  0.57279470425E+02 -0.19393260641E+03  0.22170250179E+03  0.81278655790E+02 0.  0.
          6    2    1    2  501    0 -0.59383536332E+01 -0.88126277012E+02  0.51497721405E+03  0.54981134478E+03  0.17114169309E+03 0.  0.
         24    2    5    5    0    0  0.52935109832E+01 -0.36177543356E+02  0.10662799688E+03  0.13799099697E+03  0.79593653159E+02 0.  0.
          5    1    5    5  501    0 -0.11231864616E+02 -0.51948733656E+02  0.40834921717E+03  0.41182034781E+03  0.47000000000E+01 0. -1.
        -11    1    6    6    0    0  0.34699851033E+02  0.57216567113E+01  0.55040768276E+02  0.65316944124E+02  0.00000000000E+00 0.  1.
         12    1    6    6    0    0 -0.29406340050E+02 -0.41899200067E+02  0.51587228605E+02  0.72674052842E+02  0.00000000000E+00 0. -1.
         -5    1    3    3    0  503 -0.34743163693E+02  0.30846806588E+02  0.87009756315E+01  0.47501682886E+02  0.47000000000E+01 0.  1.
         11    1    4    4    0    0  0.58022305806E+02  0.12463576066E+02 -0.10435192251E+03  0.12004687597E+03  0.00000000000E+00 0. -1.
        -12    1    4    4    0    0 -0.17340788480E+02  0.44815894358E+02 -0.89580683899E+02  0.10165562582E+03  0.00000000000E+00 0.  1.
<mgrwt>
<rscale>  2 0.19465352E+03</rscale>
<asrwt>0</asrwt>
<pdfrwt beam="1">  1       21 0.88366239E-01 0.19534620E+03</pdfrwt>
<pdfrwt beam="2">  1       21 0.37636150E-01 0.19534620E+03</pdfrwt>
<totfact> 0.74476914E+03</totfact>
</mgrwt>
</event>
<event>
12    1  0.1071811E-001  0.2243368E+03  0.7546771E-02  0.1130965E+00
         21   -1    0    0  503  502  0.00000000000E+00  0.00000000000E+00  0.17500883987E+03  0.17500883987E+03  0.00000000000E+00 0. -1.
         21   -1    0    0  501  503 -0.00000000000E+00 -0.00000000000E+00 -0.70734450795E+03  0.70734450795E+03  0.00000000000E+00 0.  1.
          6    2    1    2  501    0  0.13405940996E+03 -0.47068202645E+02 -0.60644880301E+03  0.64609132936E+03  0.17165813148E+03 0.  0.
         24    2    3    3    0    0  0.15288956667E+03 -0.48779999269E+02 -0.39775700126E+03  0.43649203745E+03  0.80993572487E+02 0.  0.
         -6    2    1    2    0  502 -0.13405940996E+03  0.47068202645E+02  0.74113134929E+02  0.23626201846E+03  0.17360772880E+03 0.  0.
        -24    2    5    5    0    0 -0.93250593897E+02 -0.31284293174E+02  0.98992870376E+01  0.12694604831E+03  0.79642470052E+02 0.  0.
          5    1    3    3  501    0 -0.18830156710E+02  0.17117966236E+01 -0.20869180175E+03  0.20959929191E+03  0.47000000000E+01 0. -1.
        -11    1    4    4    0    0  0.10631356688E+03 -0.13855032590E+02 -0.33093128475E+03  0.34786499056E+03  0.00000000000E+00 0.  1.
         12    1    4    4    0    0  0.46575999796E+02 -0.34924966678E+02 -0.66825716509E+02  0.88627046895E+02  0.00000000000E+00 0. -1.
         -5    1    5    5    0  502 -0.40808816067E+02  0.78352495819E+02  0.64213847892E+02  0.10931597015E+03  0.47000000000E+01 0.  1.
         13    1    6    6    0    0 -0.30032769228E+02  0.20580617349E+02  0.24497628027E+02  0.43882374787E+02  0.00000000000E+00 0. -1.
        -14    1    6    6    0    0 -0.63217824669E+02 -0.51864910523E+02 -0.14598340990E+02  0.83063673522E+02  0.00000000000E+00 0.  1.
<mgrwt>
<rscale>  2 0.22395949E+03</rscale>
<asrwt>0</asrwt>
<pdfrwt beam="1">  1       21 0.26924437E-01 0.22433677E+03</pdfrwt>
<pdfrwt beam="2">  1       21 0.10882223E+00 0.22433677E+03</pdfrwt>
<totfact> 0.86149141E+03</totfact>
</mgrwt>
</event>
<event>
12    1  0.1071811E-001  0.2031970E+03  0.7546771E-02  0.1147075E+00
         21   -1    0    0  501  502  0.00000000000E+00  0.00000000000E+00  0.19611573393E+03  0.19611573393E+03  0.00000000000E+00 0. -1.
         21   -1    0    0  502  503 -0.00000000000E+00 -0.00000000000E+00 -0.43163536035E+03  0.43163536035E+03  0.00000000000E+00 0. -1.
         -6    2    1    2    0  503  0.30916899040E+02  0.10217781330E+03 -0.34241509333E+03  0.39815217754E+03  0.17286092724E+03 0.  0.
        -24    2    3    3    0    0 -0.38013498826E+02  0.38839691211E+02 -0.23594840789E+03  0.25630591369E+03  0.84068558346E+02 0.  0.
          6    2    1    2  501    0 -0.30916899040E+02 -0.10217781330E+03  0.10689546691E+03  0.22959891674E+03  0.17289552204E+03 0.  0.
         24    2    5    5    0    0 -0.20696411484E+02  0.11719696893E+02  0.67175274889E+02  0.10845072299E+03  0.81751752374E+02 0.  0.
          5    1    5    5  501    0 -0.10220487555E+02 -0.11389751020E+03  0.39720192023E+02  0.12114819375E+03  0.47000000000E+01 0. -1.
        -11    1    6    6    0    0 -0.19611850847E+02  0.18592813167E+01  0.85431550158E+02  0.87673436017E+02  0.00000000000E+00 0.  1.
         12    1    6    6    0    0 -0.10845606372E+01  0.98604155762E+01 -0.18256275269E+02  0.20777286969E+02  0.00000000000E+00 0. -1.
         -5    1    3    3    0  503  0.68930397866E+02  0.63338122094E+02 -0.10646668544E+03  0.14184626385E+03  0.47000000000E+01 0.  1.
         13    1    4    4    0    0  0.14237370820E+02  0.14451848569E+02 -0.15826923187E+03  0.15956412007E+03  0.00000000000E+00 0. -1.
        -14    1    4    4    0    0 -0.52250869647E+02  0.24387842642E+02 -0.77679176016E+02  0.96741793627E+02  0.00000000000E+00 0.  1.
<mgrwt>
<rscale>  2 0.20318964E+03</rscale>
<asrwt>0</asrwt>
<pdfrwt beam="1">  1       21 0.30171652E-01 0.20319700E+03</pdfrwt>
<pdfrwt beam="2">  1       21 0.66405439E-01 0.20319700E+03</pdfrwt>
<totfact> 0.21784683E+04</totfact>
</mgrwt>
</event>
<event>
11    1  0.1071811E-001  0.1989153E+03  0.7546771E-02  0.1154144E+00
         21   -1    0    0  501  502  0.00000000000E+00  0.00000000000E+00  0.25866193631E+03  0.25866193631E+03  0.00000000000E+00 0. -1.
         21   -1    0    0  502  503 -0.00000000000E+00 -0.00000000000E+00 -0.18677775558E+03  0.18677775558E+03  0.00000000000E+00 0. -1.
         -6    2    1    2    0  503 -0.59312847610E+02 -0.17017137254E+02 -0.75211980002E+02  0.19804408056E+03  0.17250222913E+03 0.  0.
        -24    2    3    3    0    0 -0.10312280404E+03 -0.12827217615E+02 -0.75816018596E+02  0.15377984475E+03  0.84269340514E+02 0.  0.
          6    2    1    2  501    0  0.59312847610E+02  0.17017137254E+02  0.14709616073E+03  0.24739561133E+03  0.18910238273E+03 0.  0.
          5    1    5    5  501    0  0.68288711515E+02  0.58421153900E+02  0.15829714413E+03  0.18208914076E+03  0.47000000000E+01 0. -1.
        -13    1    5    5    0    0 -0.43291668879E+01 -0.33468480594E+02  0.15448357164E+02  0.37115126542E+02  0.00000000000E+00 0.  1.
         14    1    5    5    0    0 -0.46466970167E+01 -0.79355360517E+01 -0.26649340568E+02  0.28191344031E+02  0.00000000000E+00 0. -1.
         -5    1    3    3    0  503  0.43809956429E+02 -0.41899196388E+01  0.60403859437E+00  0.44264235806E+02  0.47000000000E+01 0.  1.
         11    1    4    4    0    0 -0.25282288020E+02 -0.28638782187E+02  0.72118159263E+01  0.38876525329E+02  0.00000000000E+00 0. -1.
        -12    1    4    4    0    0 -0.77840516019E+02  0.15811564572E+02 -0.83027834523E+02  0.11490331942E+03  0.00000000000E+00 0.  1.
<mgrwt>
<rscale>  2 0.19486615E+03</rscale>
<asrwt>0</asrwt>
<pdfrwt beam="1">  1       21 0.39794144E-01 0.19891533E+03</pdfrwt>
<pdfrwt beam="2">  1       21 0.28735039E-01 0.19891533E+03</pdfrwt>
<totfact> 0.70330769E+04</totfact>
</mgrwt>
</event>
<event>
12    1  0.1071811E-001  0.2130723E+03  0.7546771E-02  0.1139724E+00
         21   -1    0    0  503  502  0.00000000000E+00  0.00000000000E+00  0.41103135928E+03  0.41103135928E+03  0.00000000000E+00 0. -1.
         21   -1    0    0  501  503 -0.00000000000E+00 -0.00000000000E+00 -0.11844402361E+03  0.11844402361E+03  0.00000000000E+00 0. -1.
          6    2    1    2  501    0  0.12216883622E+03 -0.16976137369E+02  0.70437866515E+02  0.22166019114E+03  0.17017148267E+03 0.  0.
         24    2    3    3    0    0  0.90287747097E+02  0.33261448603E+02  0.95905518233E+02  0.15676866494E+03  0.78232631568E+02 0.  0.
         -6    2    1    2    0  502 -0.12216883622E+03  0.16976137369E+02  0.22214946915E+03  0.30781519176E+03  0.17374231450E+03 0.  0.
        -24    2    5    5    0    0 -0.21174060033E+02  0.49479621466E+01  0.17950691826E+03  0.19742905601E+03  0.79263328899E+02 0.  0.
          5    1    3    3  501    0  0.31881089127E+02 -0.50237585972E+02 -0.25467651718E+02  0.64891526197E+02  0.47000000000E+01 0. -1.
        -13    1    4    4    0    0 -0.27153018873E+01  0.21146159721E+02 -0.17225422468E+01  0.21389251672E+02  0.00000000000E+00 0.  1.
         14    1    4    4    0    0  0.93003048985E+02  0.12115288881E+02  0.97628060480E+02  0.13537941327E+03  0.00000000000E+00 0. -1.
         -5    1    5    5    0  502 -0.10099477619E+03  0.12028175223E+02  0.42642550894E+02  0.11038613574E+03  0.47000000000E+01 0.  1.
         13    1    6    6    0    0 -0.48663804841E+02  0.16285806231E+02  0.12879646603E+03  0.13864315002E+03  0.00000000000E+00 0. -1.
        -14    1    6    6    0    0  0.27489744808E+02 -0.11337844084E+02  0.50710452233E+02  0.58785905996E+02  0.00000000000E+00 0.  1.
<mgrwt>
<rscale>  2 0.21234318E+03</rscale>
<asrwt>0</asrwt>
<pdfrwt beam="1">  1       21 0.63235593E-01 0.21307230E+03</pdfrwt>
<pdfrwt beam="2">  1       21 0.18222158E-01 0.21307230E+03</pdfrwt>
<totfact> 0.62910200E+04</totfact>
</mgrwt>
</event>
<event>
12    1  0.1071811E-001  0.3054271E+03  0.7546771E-02  0.1082589E+00
         21   -1    0    0  501  502  0.00000000000E+00  0.00000000000E+00  0.36540712898E+03  0.36540712898E+03  0.00000000000E+00 0.  1.
         21   -1    0    0  502  503 -0.00000000000E+00 -0.00000000000E+00 -0.36479545425E+03  0.36479545425E+03  0.00000000000E+00 0. -1.
         -6    2    1    2    0  503  0.24694087439E+03 -0.45687034747E+02  0.20052753987E+03  0.36516553502E+03  0.17339974951E+03 0.  0.
        -24    2    3    3    0    0  0.35538328529E+02 -0.10059189401E+02  0.34291553724E+02  0.93841240398E+02  0.79158749715E+02 0.  0.
          6    2    1    2  501    0 -0.24694087439E+03  0.45687034747E+02 -0.19991586514E+03  0.36503704820E+03  0.17383495861E+03 0.  0.
         24    2    5    5    0    0 -0.38361476219E+02  0.80091484325E+01 -0.87516465231E+02  0.12507725249E+03  0.80308393625E+02 0.  0.
          5    1    5    5  501    0 -0.20857939818E+03  0.37677886314E+02 -0.11239939991E+03  0.23995979572E+03  0.47000000000E+01 0. -1.
        -11    1    6    6    0    0 -0.14384622456E+02 -0.28142695168E+02 -0.52014379946E+01  0.32030978939E+02  0.00000000000E+00 0.  1.
         12    1    6    6    0    0 -0.23976853762E+02  0.36151843601E+02 -0.82315027237E+02  0.93046273547E+02  0.00000000000E+00 0. -1.
         -5    1    3    3    0  503  0.21140254586E+03 -0.35627845346E+02  0.16623598615E+03  0.27132429462E+03  0.47000000000E+01 0.  1.
         13    1    4    4    0    0  0.43378051842E+02 -0.38392459306E+02  0.21669133935E+02  0.61848101658E+02  0.00000000000E+00 0. -1.
        -14    1    4    4    0    0 -0.78397233128E+01  0.28333269905E+02  0.12622419788E+02  0.31993138740E+02  0.00000000000E+00 0.  1.
<mgrwt>
<rscale>  2 0.30536518E+03</rscale>
<asrwt>0</asrwt>
<pdfrwt beam="1">  1       21 0.56216481E-01 0.30542707E+03</pdfrwt>
<pdfrwt beam="2">  1       21 0.56122378E-01 0.30542707E+03</pdfrwt>
<totfact> 0.83413505E+03</totfact>
</mgrwt>
</event>
<event>
12    1  0.1071811E-001  0.2384164E+03  0.7546771E-02  0.1121220E+00
         21   -1    0    0  501  502  0.00000000000E+00  0.00000000000E+00  0.20899964817E+03  0.20899964817E+03  0.00000000000E+00 0.  1.
         21   -1    0    0  502  503 -0.00000000000E+00 -0.00000000000E+00 -0.44983624549E+03  0.44983624549E+03  0.00000000000E+00 0. -1.
         -6    2    1    2    0  503 -0.49395438088E+02  0.15378169560E+03 -0.32932722381E+03  0.40656957324E+03  0.17536726699E+03 0.  0.
        -24    2    3    3    0    0 -0.58473729050E+02  0.81626842619E+02 -0.30312266668E+03  0.32912600030E+03  0.79739918421E+02 0.  0.
          6    2    1    2  501    0  0.49395438088E+02 -0.15378169560E+03  0.88490626488E+02  0.25226632042E+03  0.17239195526E+03 0.  0.
         24    2    5    5    0    0  0.55217064453E+02 -0.16957685953E+03  0.11014252798E+03  0.22444055223E+03  0.80230602169E+02 0.  0.
          5    1    5    5  501    0 -0.58216263644E+01  0.15795163928E+02 -0.21651901489E+02  0.27825768186E+02  0.47000000000E+01 0. -1.
        -13    1    6    6    0    0  0.30349438768E+02 -0.16098347878E+03  0.74055156118E+02  0.17978024091E+03  0.00000000000E+00 0.  1.
         14    1    6    6    0    0  0.24867625684E+02 -0.85933807446E+01  0.36087371860E+02  0.44660311324E+02  0.00000000000E+00 0. -1.
         -5    1    3    3    0  503  0.90782909617E+01  0.72154852979E+02 -0.26204557129E+02  0.77443572939E+02  0.47000000000E+01 0.  1.
         11    1    4    4    0    0 -0.59398313032E+02  0.52699605725E+02 -0.12107080724E+03  0.14478794287E+03  0.00000000000E+00 0. -1.
        -12    1    4    4    0    0  0.92458398233E+00  0.28927236894E+02 -0.18205185944E+03  0.18433805742E+03  0.00000000000E+00 0.  1.
<mgrwt>
<rscale>  2 0.23786959E+03</rscale>
<asrwt>0</asrwt>
<pdfrwt beam="1">  1       21 0.32153793E-01 0.23841644E+03</pdfrwt>
<pdfrwt beam="2">  1       21 0.69205575E-01 0.23841644E+03</pdfrwt>
<totfact> 0.17215788E+04</totfact>
</mgrwt>
</event>
<event>
12    1  0.1071811E-001  0.1856699E+03  0.7546771E-02  0.1162752E+00
         21   -1    0    0  503  502  0.00000000000E+00  0.00000000000E+00  0.11637304822E+03  0.11637304822E+03  0.00000000000E+00 0. -1.
         21   -1    0    0  501  503 -0.00000000000E+00 -0.00000000000E+00 -0.40492029738E+03  0.40492029738E+03  0.00000000000E+00 0. -1.
          6    2    1    2  501    0  0.25155752231E+01 -0.64594046610E+02 -0.28029309889E+03  0.33544009693E+03  0.17256047742E+03 0.  0.
         24    2    3    3    0    0 -0.17883710937E+02 -0.93500481620E+02 -0.27182015679E+03  0.29875776319E+03  0.79421887736E+02 0.  0.
         -6    2    1    2    0  502 -0.25155752231E+01  0.64594046610E+02 -0.82541502725E+01  0.18585324867E+03  0.17405338281E+03 0.  0.
        -24    2    5    5    0    0  0.12358463343E+02  0.93696378979E+02  0.37183546012E+02  0.12968513479E+03  0.80646605894E+02 0.  0.
          5    1    3    3  501    0  0.20399286161E+02  0.28906435010E+02 -0.84729421045E+01  0.36682333742E+02  0.47000000000E+01 0. -1.
        -11    1    4    4    0    0 -0.20335767114E+02 -0.24197015469E+02 -0.19630709857E+02  0.37207576530E+02  0.00000000000E+00 0.  1.
         12    1    4    4    0    0  0.24520561767E+01 -0.69303466151E+02 -0.25218944693E+03  0.26155018666E+03  0.00000000000E+00 0. -1.
         -5    1    5    5    0  502 -0.14874038566E+02 -0.29102332369E+02 -0.45437696285E+02  0.56168113874E+02  0.47000000000E+01 0.  1.
         11    1    6    6    0    0 -0.17156302942E+02  0.39793117020E+02  0.50767454760E+02  0.66747025070E+02  0.00000000000E+00 0. -1.
        -12    1    6    6    0    0  0.29514766284E+02  0.53903261959E+02 -0.13583908748E+02  0.62938109723E+02  0.00000000000E+00 0.  1.
<mgrwt>
<rscale>  2 0.18531918E+03</rscale>
<asrwt>0</asrwt>
<pdfrwt beam="1">  1       21 0.17903546E-01 0.18566987E+03</pdfrwt>
<pdfrwt beam="2">  1       21 0.62295430E-01 0.18566987E+03</pdfrwt>
<totfact> 0.67972762E+04</totfact>
</mgrwt>
</event>
<event>
12    1  0.1071811E-001  0.1885098E+03  0.7546771E-02  0.1159842E+00
         21   -1    0    0  501  502  0.00000000000E+00  0.00000000000E+00  0.72847487378E+02  0.72847487378E+02  0.00000000000E+00 0.  1.
         21   -1    0    0  502  503 -0.00000000000E+00 -0.00000000000E+00 -0.74959989444E+03  0.74959989444E+03  0.00000000000E+00 0.  1.
         -6    2    1    2    0  503 -0.73717847746E+02  0.40711893348E+01 -0.95279267947E+02  0.21122048484E+03  0.17345045015E+03 0.  0.
        -24    2    3    3    0    0  0.26054916389E+02 -0.17858696742E+02 -0.34113797241E+02  0.92061644748E+02  0.79459445973E+02 0.  0.
          6    2    1    2  501    0  0.73717847746E+02 -0.40711893348E+01 -0.58147313911E+03  0.61122689697E+03  0.17331016246E+03 0.  0.
         24    2    5    5    0    0 -0.23945392555E+02 -0.24198590087E+02 -0.29743073287E+03  0.31015315300E+03  0.81061605408E+02 0.  0.
          5    1    5    5  501    0  0.97663240301E+02  0.20127400753E+02 -0.28404240624E+03  0.30107374397E+03  0.47000000000E+01 0. -1.
        -11    1    6    6    0    0 -0.25903935176E+02  0.16932496344E+02 -0.22260040847E+03  0.22474132940E+03  0.00000000000E+00 0.  1.
         12    1    6    6    0    0  0.19585426212E+01 -0.41131086431E+02 -0.74830324405E+02  0.85411823600E+02  0.00000000000E+00 0. -1.
         -5    1    3    3    0  503 -0.99772764134E+02  0.21929886076E+02 -0.61165470706E+02  0.11915884010E+03  0.47000000000E+01 0.  1.
         11    1    4    4    0    0 -0.17665104251E+02 -0.30546060486E+02 -0.30066223077E+02  0.46358337865E+02  0.00000000000E+00 0. -1.
        -12    1    4    4    0    0  0.43720020640E+02  0.12687363745E+02 -0.40475741635E+01  0.45703306884E+02  0.00000000000E+00 0.  1.
<mgrwt>
<rscale>  2 0.18847755E+03</rscale>
<asrwt>0</asrwt>
<pdfrwt beam="1">  1       21 0.11207305E-01 0.18850983E+03</pdfrwt>
<pdfrwt beam="2">  1       21 0.11532306E+00 0.18850983E+03</pdfrwt>
<totfact> 0.38687834E+04</totfact>
</mgrwt>
</event>
<event>
12    1  0.1071811E-001  0.1794872E+03  0.7546771E-02  0.1168554E+00
         21   -1    0    0  501  502  0.00000000000E+00  0.00000000000E+00  0.10644068685E+03  0.10644068685E+03  0.00000000000E+00 0. -1.
         21   -1    0    0  502  503 -0.00000000000E+00 -0.00000000000E+00 -0.39060600542E+03  0.39060600542E+03  0.00000000000E+00 0. -1.
         -6    2    1    2    0  503  0.26812312043E+02  0.35398923065E+02 -0.26085728365E+03  0.31605245140E+03  0.17283126387E+03 0.  0.
        -24    2    3    3    0    0  0.46788946817E+02  0.18576571647E+02 -0.27140892994E+03  0.28749575895E+03  0.80353653344E+02 0.  0.
          6    2    1    2  501    0 -0.26812312043E+02 -0.35398923065E+02 -0.23308034919E+02  0.18099424087E+03  0.17390706399E+03 0.  0.
         24    2    5    5    0    0 -0.63084712839E+02 -0.42666364952E+01  0.37352335740E+02  0.10362062201E+03  0.73103701274E+02 0.  0.
          5    1    5    5  501    0  0.36272400796E+02 -0.31132286570E+02 -0.60660370659E+02  0.77373618857E+02  0.47000000000E+01 0. -1.
        -11    1    6    6    0    0 -0.75959912764E+02 -0.25339309579E+01  0.14557664804E+02  0.77383814572E+02  0.00000000000E+00 0.  1.
         12    1    6    6    0    0  0.12875199925E+02 -0.17327055374E+01  0.22794670936E+02  0.26236807440E+02  0.00000000000E+00 0. -1.
         -5    1    3    3    0  503 -0.19976634773E+02  0.16822351418E+02  0.10551646290E+02  0.28556692447E+02  0.47000000000E+01 0.  1.
         11    1    4    4    0    0  0.38937627582E+01  0.44483914500E+02 -0.13279216059E+03  0.14009902909E+03  0.00000000000E+00 0. -1.
        -12    1    4    4    0    0  0.42895184059E+02 -0.25907342853E+02 -0.13861676935E+03  0.14739672986E+03  0.00000000000E+00 0.  1.
<mgrwt>
<rscale>  2 0.17922608E+03</rscale>
<asrwt>0</asrwt>
<pdfrwt beam="1">  1       21 0.16375490E-01 0.17948719E+03</pdfrwt>
<pdfrwt beam="2">  1       21 0.60093232E-01 0.17948719E+03</pdfrwt>
<totfact> 0.86760282E+04</totfact>
</mgrwt>
</event>
<event>
12    1  0.1071811E-001  0.2357254E+03  0.7546771E-02  0.1123378E+00
         21   -1    0    0  503  502  0.00000000000E+00  0.00000000000E+00  0.78493482270E+02  0.78493482270E+02  0.00000000000E+00 0.  1.
         21   -1    0    0  501  503 -0.00000000000E+00 -0.00000000000E+00 -0.79364904067E+03  0.79364904067E+03  0.00000000000E+00 0.  1.
          6    2    1    2  501    0  0.71203814117E+02 -0.14271191244E+03 -0.50804156994E+03  0.55835488186E+03  0.16797995181E+03 0.  0.
         24    2    3    3    0    0 -0.26261450099E+02 -0.96778349741E+02 -0.26732811801E+03  0.29458523643E+03  0.72528794988E+02 0.  0.
         -6    2    1    2    0  502 -0.71203814117E+02  0.14271191244E+03 -0.20711398846E+03  0.31378764108E+03  0.17357939504E+03 0.  0.
        -24    2    5    5    0    0 -0.99469879693E+02  0.52821283431E+02 -0.12025744768E+03  0.18554784881E+03  0.85333495910E+02 0.  0.
          5    1    3    3  501    0  0.97465264216E+02 -0.45933562701E+02 -0.24071345193E+03  0.26376964543E+03  0.47000000000E+01 0. -1.
        -11    1    4    4    0    0 -0.31039868030E+02 -0.11815454151E+02 -0.11933512253E+03  0.12387069804E+03  0.00000000000E+00 0.  1.
         12    1    4    4    0    0  0.47784179317E+01 -0.84962895590E+02 -0.14799299548E+03  0.17071453838E+03  0.00000000000E+00 0. -1.
         -5    1    5    5    0  502  0.28266065576E+02  0.89890629011E+02 -0.86856540781E+02  0.12823979228E+03  0.47000000000E+01 0.  1.
         11    1    6    6    0    0 -0.30245900715E+02  0.35675739893E+01  0.81975168536E+01  0.31539520872E+02  0.00000000000E+00 0. -1.
        -12    1    6    6    0    0 -0.69223978977E+02  0.49253709442E+02 -0.12845496454E+03  0.15400832793E+03  0.00000000000E+00 0.  1.
<mgrwt>
<rscale>  2 0.23469564E+03</rscale>
<asrwt>0</asrwt>
<pdfrwt beam="1">  1       21 0.12075921E-01 0.23572543E+03</pdfrwt>
<pdfrwt beam="2">  1       21 0.12209985E+00 0.23572543E+03</pdfrwt>
<totfact> 0.28647719E+04</totfact>
</mgrwt>
</event>
<event>
12    1  0.1071811E-001  0.2581381E+03  0.7546771E-02  0.1108792E+00
         21   -1    0    0  503  502  0.00000000000E+00  0.00000000000E+00  0.52624364951E+03  0.52624364951E+03  0.00000000000E+00 0.  1.
         21   -1    0    0  501  503 -0.00000000000E+00 -0.00000000000E+00 -0.16994256272E+03  0.16994256272E+03  0.00000000000E+00 0.  1.
          6    2    1    2  501    0  0.94353178607E+02  0.16226216769E+03 -0.89950165004E-01  0.25813816207E+03  0.17721108670E+03 0.  0.
         24    2    3    3    0    0  0.53057760619E+02  0.16715891956E+03 -0.43064810348E+02  0.19815301113E+03  0.81564744711E+02 0.  0.
         -6    2    1    2    0  502 -0.94353178607E+02 -0.16226216769E+03  0.35639103696E+03  0.43804805016E+03  0.17216268366E+03 0.  0.
        -24    2    5    5    0    0 -0.38029081744E+02 -0.17518134377E+03  0.28679581858E+03  0.34746718342E+03  0.79667356782E+02 0.  0.
          5    1    3    3  501    0  0.41295417988E+02 -0.48967518644E+01  0.42974860183E+02  0.59985150940E+02  0.47000000000E+01 0. -1.
        -11    1    4    4    0    0  0.16764652250E+02  0.92548660574E+02  0.17189846172E+02  0.95612755166E+02  0.00000000000E+00 0.  1.
         12    1    4    4    0    0  0.36293108369E+02  0.74610258983E+02 -0.60254656519E+02  0.10254025596E+03  0.00000000000E+00 0. -1.
         -5    1    5    5    0  502 -0.56324096863E+02  0.12919176072E+02  0.69595218384E+02  0.90580866742E+02  0.47000000000E+01 0.  1.
         11    1    6    6    0    0  0.10728876284E+02  0.32164453379E+01  0.17719485070E+02  0.20962692052E+02  0.00000000000E+00 0. -1.
        -12    1    6    6    0    0 -0.48757958028E+02 -0.17839778910E+03  0.26907633351E+03  0.32650449136E+03  0.00000000000E+00 0.  1.
<mgrwt>
<rscale>  2 0.25727400E+03</rscale>
<asrwt>0</asrwt>
<pdfrwt beam="1">  1       21 0.80960561E-01 0.25813815E+03</pdfrwt>
<pdfrwt beam="2">  1       21 0.26145010E-01 0.25813815E+03</pdfrwt>
<totfact> 0.17947715E+04</totfact>
</mgrwt>
</event>
<event>
12    1  0.1071811E-001  0.2146220E+03  0.7546771E-02  0.1138045E+00
         21   -1    0    0  501  502  0.00000000000E+00  0.00000000000E+00  0.68869448247E+03  0.68869448247E+03  0.00000000000E+00 0. -1.
         21   -1    0    0  502  503 -0.00000000000E+00 -0.00000000000E+00 -0.79900831718E+02  0.79900831718E+02  0.00000000000E+00 0. -1.
         -6    2    1    2    0  503 -0.65554231985E+02  0.10756557904E+03  0.14871483774E+03  0.26111052678E+03  0.17376677792E+03 0.  0.
        -24    2    3    3    0    0  0.27161010174E+02  0.78999473733E+02  0.68889647907E+02  0.13538746035E+03  0.81273264411E+02 0.  0.
          6    2    1    2  501    0  0.65554231985E+02 -0.10756557904E+03  0.46007881302E+03  0.50748478741E+03  0.17320676702E+03 0.  0.
         24    2    5    5    0    0  0.20288669913E+02 -0.13589039117E+03  0.36097340121E+03  0.39481163737E+03  0.81832781196E+02 0.  0.
          5    1    5    5  501    0  0.45265562072E+02  0.28324812130E+02  0.99105411804E+02  0.11267315004E+03  0.47000000000E+01 0. -1.
        -13    1    6    6    0    0 -0.21496211448E+02 -0.64137621598E+02  0.22995647265E+03  0.23969918841E+03  0.00000000000E+00 0.  1.
         14    1    6    6    0    0  0.41784881361E+02 -0.71752769568E+02  0.13101692857E+03  0.15511244896E+03  0.00000000000E+00 0. -1.
         -5    1    3    3    0  503 -0.92715242159E+02  0.28566105303E+02  0.79825189829E+02  0.12572306643E+03  0.47000000000E+01 0.  1.
         13    1    4    4    0    0 -0.21939502639E+02  0.59758472641E+02  0.41152473052E+02  0.75801997775E+02  0.00000000000E+00 0. -1.
        -14    1    4    4    0    0  0.49100512813E+02  0.19241001093E+02  0.27737174855E+02  0.59585462577E+02  0.00000000000E+00 0.  1.
<mgrwt>
<rscale>  2 0.21450862E+03</rscale>
<asrwt>0</asrwt>
<pdfrwt beam="1">  1       21 0.10595299E+00 0.21462200E+03</pdfrwt>
<pdfrwt beam="2">  1       21 0.12292436E-01 0.21462200E+03</pdfrwt>
<totfact> 0.39713246E+04</totfact>
</mgrwt>
</event>
<event>
12    1  0.1071811E-001  0.1854470E+03  0.7546771E-02  0.1162851E+00
         21   -1    0    0  501  502  0.00000000000E+00  0.00000000000E+00  0.14632165424E+04  0.14632165424E+04  0.00000000000E+00 0.  1.
         21   -1    0    0  502  503 -0.00000000000E+00 -0.00000000000E+00 -0.50822474638E+02  0.50822474638E+02  0.00000000000E+00 0. -1.
         -6    2    1    2    0  503 -0.42687317284E+02  0.48445231085E+02  0.14915243611E+03  0.23725790209E+03  0.17284592976E+03 0.  0.
        -24    2    3    3    0    0 -0.44379587170E+02  0.43792894197E+02  0.14506950368E+02  0.10243948774E+03  0.79975194281E+02 0.  0.
          6    2    1    2  501    0  0.42687317284E+02 -0.48445231085E+02  0.12632416316E+04  0.12767811149E+04  0.17384317095E+03 0.  0.
         24    2    5    5    0    0  0.15967339530E+02  0.19109560353E+02  0.99904025849E+03  0.10027335595E+04  0.82298372239E+02 0.  0.
          5    1    5    5  501    0  0.26719977754E+02 -0.67554791438E+02  0.26420137312E+03  0.27404755539E+03  0.47000000000E+01 0. -1.
        -13    1    6    6    0    0  0.31459142941E+02 -0.17689647092E+02  0.71386571998E+03  0.71477749506E+03  0.00000000000E+00 0.  1.
         14    1    6    6    0    0 -0.15491803411E+02  0.36799207445E+02  0.28517453852E+03  0.28795606446E+03  0.00000000000E+00 0. -1.
         -5    1    3    3    0  503  0.16922698856E+01  0.46523368881E+01  0.13464548574E+03  0.13481841434E+03  0.47000000000E+01 0.  1.
         13    1    4    4    0    0 -0.45023892416E+02  0.64781224404E+02  0.40832605394E+01  0.78996398274E+02  0.00000000000E+00 0. -1.
        -14    1    4    4    0    0  0.64430524569E+00 -0.20988330208E+02  0.10423689829E+02  0.23443089468E+02  0.00000000000E+00 0.  1.
<mgrwt>
<rscale>  2 0.18521294E+03</rscale>
<asrwt>0</asrwt>
<pdfrwt beam="1">  1       21 0.22511021E+00 0.18544702E+03</pdfrwt>
<pdfrwt beam="2">  1       21 0.78188434E-02 0.18544702E+03</pdfrwt>
<totfact> 0.11766667E+04</totfact>
</mgrwt>
</event>
<event>
12    1  0.1071811E-001  0.3127656E+03  0.7546771E-02  0.1079162E+00
         21   -1    0    0  503  502  0.00000000000E+00  0.00000000000E+00  0.15114318420E+03  0.15114318420E+03  0.00000000000E+00 0. -1.
         21   -1    0    0  501  503 -0.00000000000E+00 -0.00000000000E+00 -0.65383472400E+03  0.65383472400E+03  0.00000000000E+00 0. -1.
          6    2    1    2  501    0 -0.21221312236E+03  0.15306019737E+03 -0.29888731420E+03  0.43261525947E+03  0.17134906715E+03 0.  0.
         24    2    3    3    0    0 -0.17597954052E+03  0.45370395020E+02 -0.19746333788E+03  0.28023783674E+03  0.80710618329E+02 0.  0.
         -6    2    1    2    0  502  0.21221312236E+03 -0.15306019737E+03 -0.20380422561E+03  0.37236264873E+03  0.16928067365E+03 0.  0.
        -24    2    5    5    0    0  0.32375480436E+02 -0.24290319894E+02 -0.21374097083E+02  0.85611710472E+02  0.72348611388E+02 0.  0.
          5    1    3    3  501    0 -0.36233581846E+02  0.10768980235E+03 -0.10142397632E+03  0.15237742273E+03  0.47000000000E+01 0. -1.
        -13    1    4    4    0    0 -0.25519278771E+02 -0.19535159302E+02 -0.16559787190E+02  0.36153597189E+02  0.00000000000E+00 0.  1.
         14    1    4    4    0    0 -0.15046026175E+03  0.64905554323E+02 -0.18090355069E+03  0.24408423955E+03  0.00000000000E+00 0. -1.
         -5    1    5    5    0  502  0.17983764193E+03 -0.12876987748E+03 -0.18243012852E+03  0.28675093826E+03  0.47000000000E+01 0.  1.
         11    1    6    6    0    0  0.12960786702E+02 -0.48566182359E+02 -0.50976726975E+01  0.50523680861E+02  0.00000000000E+00 0. -1.
        -12    1    6    6    0    0  0.19414693734E+02  0.24275862465E+02 -0.16276424385E+02  0.35088029611E+02  0.00000000000E+00 0.  1.
<mgrwt>
<rscale>  2 0.31248315E+03</rscale>
<asrwt>0</asrwt>
<pdfrwt beam="1">  1       21 0.23252797E-01 0.31276562E+03</pdfrwt>
<pdfrwt beam="2">  1       21 0.10058996E+00 0.31276562E+03</pdfrwt>
<totfact> 0.13195095E+04</totfact>
</mgrwt>
</event>
<event>
12    1  0.1071811E-001  0.1765651E+03  0.7546771E-02  0.1171449E+00
         21   -1    0    0  501  502  0.00000000000E+00  0.00000000000E+00  0.14699678888E+04  0.14699678888E+04  0.00000000000E+00 0. -1.
         21   -1    0    0  502  503 -0.00000000000E+00 -0.00000000000E+00 -0.34927590222E+02  0.34927590222E+02  0.00000000000E+00 0. -1.
         -6    2    1    2    0  503 -0.19403277684E+02  0.21749355682E+02  0.24224289248E+03  0.29910077307E+03  0.17300327117E+03 0.  0.
        -24    2    3    3    0    0 -0.19657589408E+02  0.81131716598E+02  0.15766338469E+03  0.19564975761E+03  0.80326262948E+02 0.  0.
          6    2    1    2  501    0  0.19403277684E+02 -0.21749355682E+02  0.11927974061E+04  0.12057947060E+04  0.17414275539E+03 0.  0.
         24    2    5    5    0    0  0.57800260128E+02  0.16687916102E+02  0.45612829611E+03  0.46710991544E+03  0.80742144987E+02 0.  0.
          5    1    5    5  501    0 -0.38396982444E+02 -0.38437271784E+02  0.73666911004E+03  0.73868479056E+03  0.47000000000E+01 0. -1.
        -11    1    6    6    0    0  0.52529059235E+02  0.24969125210E+02  0.45312758043E+03  0.45684501029E+03  0.00000000000E+00 0.  1.
         12    1    6    6    0    0  0.52712008931E+01 -0.82812091079E+01  0.30007156731E+01  0.10264905148E+02  0.00000000000E+00 0. -1.
         -5    1    3    3    0  503  0.25431172428E+00 -0.59382360916E+02  0.84579507784E+02  0.10345101546E+03  0.47000000000E+01 0.  1.
         13    1    4    4    0    0 -0.24633669334E+02  0.45094322502E+02  0.23248155425E+02  0.56398513433E+02  0.00000000000E+00 0. -1.
        -14    1    4    4    0    0  0.49760799259E+01  0.36037394096E+02  0.13441522927E+03  0.13925124417E+03  0.00000000000E+00 0.  1.
<mgrwt>
<rscale>  2 0.17628345E+03</rscale>
<asrwt>0</asrwt>
<pdfrwt beam="1">  1       21 0.22614886E+00 0.17656506E+03</pdfrwt>
<pdfrwt beam="2">  1       21 0.53734766E-02 0.17656506E+03</pdfrwt>
<totfact> 0.22256095E+04</totfact>
</mgrwt>
</event>
<event>
12    1  0.1071811E-001  0.2527709E+03  0.7546771E-02  0.1111680E+00
         21   -1    0    0  503  502  0.00000000000E+00  0.00000000000E+00  0.14205692268E+03  0.14205692268E+03  0.00000000000E+00 0. -1.
         21   -1    0    0  501  503 -0.00000000000E+00 -0.00000000000E+00 -0.64019589798E+03  0.64019589798E+03  0.00000000000E+00 0. -1.
          6    2    1    2  501    0 -0.74789307673E+02  0.16638109313E+03 -0.46336485576E+03  0.52782581780E+03  0.17497712903E+03 0.  0.
         24    2    3    3    0    0 -0.11688489461E+03  0.95200912599E+02 -0.31997123390E+03  0.36222848289E+03  0.78119081803E+02 0.  0.
         -6    2    1    2    0  502  0.74789307673E+02 -0.16638109313E+03 -0.34774119543E+02  0.25442700286E+03  0.17391880779E+03 0.  0.
        -24    2    5    5    0    0  0.58078626694E+02 -0.19457212803E+03 -0.28733724511E+02  0.22077350855E+03  0.81754970901E+02 0.  0.
          5    1    3    3  501    0  0.42095586933E+02  0.71180180527E+02 -0.14339362186E+03  0.16559733491E+03  0.47000000000E+01 0. -1.
        -13    1    4    4    0    0 -0.87607167980E+02  0.21477504857E+02 -0.18025876493E+03  0.20156765968E+03  0.00000000000E+00 0.  1.
         14    1    4    4    0    0 -0.29277726626E+02  0.73723407742E+02 -0.13971246898E+03  0.16066082320E+03  0.00000000000E+00 0. -1.
         -5    1    5    5    0  502  0.16710680979E+02  0.28191034903E+02 -0.60403950323E+01  0.33653494318E+02  0.47000000000E+01 0.  1.
         13    1    6    6    0    0 -0.17743941293E+02 -0.76700923868E+02 -0.11644588575E+02  0.79583136517E+02  0.00000000000E+00 0. -1.
        -14    1    6    6    0    0  0.75822567988E+02 -0.11787120416E+03 -0.17089135936E+02  0.14119037203E+03  0.00000000000E+00 0.  1.
<mgrwt>
<rscale>  2 0.25258779E+03</rscale>
<asrwt>0</asrwt>
<pdfrwt beam="1">  1       21 0.21854911E-01 0.25277085E+03</pdfrwt>
<pdfrwt beam="2">  1       21 0.98491677E-01 0.25277085E+03</pdfrwt>
<totfact> 0.16060561E+04</totfact>
</mgrwt>
</event>
<event>
12    1  0.1071811E-001  0.1923132E+03  0.7546771E-02  0.1156711E+00
         21   -1    0    0  501  502  0.00000000000E+00  0.00000000000E+00  0.37686003470E+02  0.37686003470E+02  0.00000000000E+00 0.  1.
         21   -1    0    0  502  503 -0.00000000000E+00 -0.00000000000E+00 -0.11588858102E+04  0.11588858102E+04  0.00000000000E+00 0.  1.
         -6    2    1    2    0  503  0.65469178300E+02 -0.48603693244E+02 -0.79775454846E+03  0.82027247504E+03  0.17258644621E+03 0.  0.
        -24    2    3    3    0    0  0.72095338553E+02 -0.84811687170E+02 -0.61111255954E+03  0.62997731785E+03  0.10498619171E+03 0.  0.
          6    2    1    2  501    0 -0.65469178300E+02  0.48603693244E+02 -0.32344525823E+03  0.37629933859E+03  0.17417182564E+03 0.  0.
         24    2    5    5    0    0 -0.54770976841E+02 -0.35004317312E+02 -0.15818697341E+03  0.19072686853E+03  0.84430194163E+02 0.  0.
          5    1    5    5  501    0 -0.10698201459E+02  0.83608010556E+02 -0.16525828482E+03  0.18557247006E+03  0.47000000000E+01 0. -1.
        -11    1    6    6    0    0 -0.25251619783E+02  0.53610119723E+01 -0.10623273279E+01  0.25836278570E+02  0.00000000000E+00 0.  1.
         12    1    6    6    0    0 -0.29519357058E+02 -0.40365329284E+02 -0.15712464608E+03  0.16489058996E+03  0.00000000000E+00 0. -1.
         -5    1    3    3    0  503 -0.66261602534E+01  0.36207993926E+02 -0.18664198892E+03  0.19029515719E+03  0.47000000000E+01 0.  1.
         13    1    4    4    0    0  0.66058250586E+02 -0.12536066838E+02 -0.16777638071E+03  0.18074777831E+03  0.00000000000E+00 0. -1.
        -14    1    4    4    0    0  0.60370879673E+01 -0.72275620332E+02 -0.44333617884E+03  0.44922953953E+03  0.00000000000E+00 0.  1.
<mgrwt>
<rscale>  2 0.19195351E+03</rscale>
<asrwt>0</asrwt>
<pdfrwt beam="1">  1       21 0.57978474E-02 0.19231317E+03</pdfrwt>
<pdfrwt beam="2">  1       21 0.17829010E+00 0.19231317E+03</pdfrwt>
<totfact> 0.39090050E+04</totfact>
</mgrwt>
</event>
<event>
12    1  0.1071811E-001  0.1766437E+03  0.7546771E-02  0.1171136E+00
         21   -1    0    0  503  502  0.00000000000E+00  0.00000000000E+00  0.63098716426E+03  0.63098716426E+03  0.00000000000E+00 0.  1.
         21   -1    0    0  501  503 -0.00000000000E+00 -0.00000000000E+00 -0.91438512688E+02  0.91438512688E+02  0.00000000000E+00 0.  1.
          6    2    1    2  501    0  0.18231235168E+02 -0.29812695595E+02  0.24932019911E+02  0.17839454020E+03  0.17315262516E+03 0.  0.
         24    2    3    3    0    0  0.39755891700E+02  0.39286385904E+02 -0.93276228574E+01  0.98183524584E+02  0.80181350134E+02 0.  0.
         -6    2    1    2    0  502 -0.18231235168E+02  0.29812695595E+02  0.51461663166E+03  0.54403113675E+03  0.17296943493E+03 0.  0.
        -24    2    5    5    0    0 -0.36342199758E+02  0.28116776535E+02  0.12439134112E+03  0.15335383954E+03  0.77025228011E+02 0.  0.
          5    1    3    3  501    0 -0.21524656532E+02 -0.69099081498E+02  0.34259642768E+02  0.80211015611E+02  0.47000000000E+01 0. -1.
        -13    1    4    4    0    0 -0.31980428670E+01 -0.70253564490E+00 -0.34262858133E+02  0.34418955271E+02  0.00000000000E+00 0.  1.
         14    1    4    4    0    0  0.42953934567E+02  0.39988921549E+02  0.24935235276E+02  0.63764569313E+02  0.00000000000E+00 0. -1.
         -5    1    5    5    0  502  0.18110964591E+02  0.16959190594E+01  0.39022529054E+03  0.39067729721E+03  0.47000000000E+01 0.  1.
         13    1    6    6    0    0 -0.43495349664E+02  0.32889316541E+02  0.13139658423E+03  0.14226248603E+03  0.00000000000E+00 0. -1.
        -14    1    6    6    0    0  0.71531499060E+01 -0.47725400055E+01 -0.70052431075E+01  0.11091353510E+02  0.00000000000E+00 0.  1.
<mgrwt>
<rscale>  2 0.17659882E+03</rscale>
<asrwt>0</asrwt>
<pdfrwt beam="1">  1       21 0.97074946E-01 0.17664373E+03</pdfrwt>
<pdfrwt beam="2">  1       21 0.14067464E-01 0.17664373E+03</pdfrwt>
<totfact> 0.39145641E+04</totfact>
</mgrwt>
</event>
<event>
12    1  0.1071811E-001  0.2304714E+03  0.7546771E-02  0.1128769E+00
         21   -1    0    0  501  502  0.00000000000E+00  0.00000000000E+00  0.47507383444E+03  0.47507383444E+03  0.00000000000E+00 0. -1.
         21   -1    0    0  502  503 -0.00000000000E+00 -0.00000000000E+00 -0.11365086980E+03  0.11365086980E+03  0.00000000000E+00 0. -1.
         -6    2    1    2    0  503  0.13101196696E+03  0.83181903126E+01  0.95963698374E+02  0.23717714078E+03  0.17265757129E+03 0.  0.
        -24    2    3    3    0    0  0.11226624782E+03 -0.48689642274E+02  0.10002798921E+03  0.17684552865E+03  0.79336944188E+02 0.  0.
          6    2    1    2  501    0 -0.13101196696E+03 -0.83181903126E+01  0.26545926626E+03  0.35154756346E+03  0.18943003867E+03 0.  0.
         24    2    5    5    0    0 -0.16065952305E+03  0.48243884926E+01  0.26298512284E+03  0.31868548280E+03  0.81021633183E+02 0.  0.
          5    1    5    5  501    0  0.29647556084E+02 -0.13142578805E+02  0.24741434256E+01  0.32862080656E+02  0.47000000000E+01 0. -1.
        -13    1    6    6    0    0 -0.48209084350E+02 -0.54334534305E+01  0.23481580461E+02  0.53898263896E+02  0.00000000000E+00 0.  1.
         14    1    6    6    0    0 -0.11245043870E+03  0.10257841923E+02  0.23950354238E+03  0.26478721890E+03  0.00000000000E+00 0. -1.
         -5    1    3    3    0  503  0.18745719142E+02  0.57007832587E+02 -0.40642908355E+01  0.60331612131E+02  0.47000000000E+01 0.  1.
         11    1    4    4    0    0  0.67081183882E+02 -0.25711949479E+02  0.10355150696E+03  0.12603136186E+03  0.00000000000E+00 0. -1.
        -12    1    4    4    0    0  0.45185063941E+02 -0.22977692795E+02 -0.35235177537E+01  0.50814166793E+02  0.00000000000E+00 0.  1.
<mgrwt>
<rscale>  2 0.22699996E+03</rscale>
<asrwt>0</asrwt>
<pdfrwt beam="1">  1       21 0.73088281E-01 0.23047140E+03</pdfrwt>
<pdfrwt beam="2">  1       21 0.17484749E-01 0.23047140E+03</pdfrwt>
<totfact> 0.48999293E+04</totfact>
</mgrwt>
</event>
<event>
12    1  0.1071811E-001  0.1757537E+03  0.7546771E-02  0.1173057E+00
         21   -1    0    0  503  502  0.00000000000E+00  0.00000000000E+00  0.36807179444E+03  0.36807179444E+03  0.00000000000E+00 0.  1.
         21   -1    0    0  501  503 -0.00000000000E+00 -0.00000000000E+00 -0.97083559510E+02  0.97083559510E+02  0.00000000000E+00 0.  1.
          6    2    1    2  501    0 -0.15245903788E+01 -0.24345706365E+02  0.44913149354E+02  0.18140161909E+03  0.17405263178E+03 0.  0.
         24    2    3    3    0    0  0.66738783052E+02 -0.77078511874E+01  0.23128021587E+02  0.10769009917E+03  0.80924507677E+02 0.  0.
         -6    2    1    2    0  502  0.15245903788E+01  0.24345706365E+02  0.22607508558E+03  0.28375373486E+03  0.16973862241E+03 0.  0.
        -24    2    5    5    0    0 -0.55727635020E+02  0.18521840192E+02  0.19303093929E+03  0.21722749693E+03  0.80487353219E+02 0.  0.
          5    1    3    3  501    0 -0.68263373431E+02 -0.16637855177E+02  0.21785127766E+02  0.73711519920E+02  0.47000000000E+01 0. -1.
        -13    1    4    4    0    0  0.39489133657E+02 -0.33602691857E+02 -0.15171472151E+02  0.54025051080E+02  0.00000000000E+00 0.  1.
         14    1    4    4    0    0  0.27249649395E+02  0.25894840669E+02  0.38299493739E+02  0.53665048086E+02  0.00000000000E+00 0. -1.
         -5    1    5    5    0  502  0.57252225398E+02  0.58238661722E+01  0.33044146283E+02  0.66526237935E+02  0.47000000000E+01 0.  1.
         13    1    6    6    0    0  0.26884246714E+01 -0.23669776628E+02  0.77382200012E+02  0.80965985646E+02  0.00000000000E+00 0. -1.
        -14    1    6    6    0    0 -0.58416059691E+02  0.42191616820E+02  0.11564873928E+03  0.13626151128E+03  0.00000000000E+00 0.  1.
<mgrwt>
<rscale>  2 0.17467601E+03</rscale>
<asrwt>0</asrwt>
<pdfrwt beam="1">  1       21 0.56626429E-01 0.17575368E+03</pdfrwt>
<pdfrwt beam="2">  1       21 0.14935932E-01 0.17575368E+03</pdfrwt>
<totfact> 0.11664298E+05</totfact>
</mgrwt>
</event>
<event>
12    1  0.1071811E-001  0.1976565E+03  0.7546771E-02  0.1153055E+00
         21   -1    0    0  503  502  0.00000000000E+00  0.00000000000E+00  0.28143335059E+03  0.28143335059E+03  0.00000000000E+00 0. -1.
         21   -1    0    0  501  503 -0.00000000000E+00 -0.00000000000E+00 -0.17375414374E+03  0.17375414374E+03  0.00000000000E+00 0. -1.
          6    2    1    2  501    0 -0.71397908471E+02  0.11703846674E+02 -0.54866104806E+02  0.19927913501E+03  0.17739008663E+03 0.  0.
         24    2    3    3    0    0  0.15533678166E+02 -0.35834094605E+02 -0.12889998602E+02  0.91571010396E+02  0.81815159887E+02 0.  0.
         -6    2    1    2    0  502  0.71397908471E+02 -0.11703846674E+02  0.16254531165E+03  0.25590835932E+03  0.18393876337E+03 0.  0.
        -24    2    5    5    0    0 -0.37234345682E+01  0.28843564823E+02  0.13444341037E+02  0.84034864571E+02  0.77687147978E+02 0.  0.
          5    1    3    3  501    0 -0.86931586637E+02  0.47537941279E+02 -0.41976106204E+02  0.10770812462E+03  0.47000000000E+01 0. -1.
        -11    1    4    4    0    0 -0.18550018532E+01 -0.60299820604E+02 -0.12187902497E+02  0.61547171860E+02  0.00000000000E+00 0.  1.
         12    1    4    4    0    0  0.17388680019E+02  0.24465725999E+02 -0.70209610577E+00  0.30023838536E+02  0.00000000000E+00 0. -1.
         -5    1    5    5    0  502  0.75121343039E+02 -0.40547411497E+02  0.14910097062E+03  0.17187349475E+03  0.47000000000E+01 0.  1.
         11    1    6    6    0    0 -0.19558920876E+02 -0.13143211722E+02 -0.17649183283E+02  0.29441281745E+02  0.00000000000E+00 0. -1.
        -12    1    6    6    0    0  0.15835486308E+02  0.41986776544E+02  0.31093524320E+02  0.54593582826E+02  0.00000000000E+00 0.  1.
<mgrwt>
<rscale>  2 0.19611890E+03</rscale>
<asrwt>0</asrwt>
<pdfrwt beam="1">  1       21 0.43297438E-01 0.19765655E+03</pdfrwt>
<pdfrwt beam="2">  1       21 0.26731407E-01 0.19765655E+03</pdfrwt>
<totfact> 0.68170061E+04</totfact>
</mgrwt>
</event>
<event>
12    1  0.1071811E-001  0.2462851E+03  0.7546771E-02  0.1116461E+00
         21   -1    0    0  501  502  0.00000000000E+00  0.00000000000E+00  0.29556230539E+03  0.29556230539E+03  0.00000000000E+00 0. -1.
         21   -1    0    0  502  503 -0.00000000000E+00 -0.00000000000E+00 -0.25814097252E+03  0.25814097252E+03  0.00000000000E+00 0. -1.
         -6    2    1    2    0  503 -0.97284138048E+02 -0.14624959100E+03 -0.11143165514E+03  0.26592978820E+03  0.16567586457E+03 0.  0.
        -24    2    3    3    0    0 -0.56147846177E+02 -0.13216466214E+02 -0.65641546525E+02  0.11927089537E+03  0.81175601272E+02 0.  0.
          6    2    1    2  501    0  0.97284138048E+02  0.14624959100E+03  0.14885298800E+03  0.28777348970E+03  0.17263609980E+03 0.  0.
         24    2    5    5    0    0  0.19664056218E+02  0.13366179519E+03  0.58026926644E+02  0.16754540177E+03  0.80325505524E+02 0.  0.
          5    1    5    5  501    0  0.77620081830E+02  0.12587795815E+02  0.90826061360E+02  0.12022808794E+03  0.47000000000E+01 0. -1.
        -11    1    6    6    0    0  0.21278332255E+02  0.24844288074E+02 -0.15508541898E+02  0.36201118011E+02  0.00000000000E+00 0.  1.
         12    1    6    6    0    0 -0.16142760375E+01  0.10881750711E+03  0.73535468542E+02  0.13134428376E+03  0.00000000000E+00 0. -1.
         -5    1    3    3    0  503 -0.41136291871E+02 -0.13303312479E+03 -0.45790108611E+02  0.14665889283E+03  0.47000000000E+01 0.  1.
         11    1    4    4    0    0 -0.44708533382E+02 -0.39838102878E+02 -0.16317949008E+02  0.62066116826E+02  0.00000000000E+00 0. -1.
        -12    1    4    4    0    0 -0.11439312795E+02  0.26621636664E+02 -0.49323597517E+02  0.57204778540E+02  0.00000000000E+00 0.  1.
<mgrwt>
<rscale>  2 0.24506921E+03</rscale>
<asrwt>0</asrwt>
<pdfrwt beam="1">  1       21 0.45471124E-01 0.24628514E+03</pdfrwt>
<pdfrwt beam="2">  1       21 0.39713996E-01 0.24628514E+03</pdfrwt>
<totfact> 0.27577196E+04</totfact>
</mgrwt>
</event>
<event>
12    1  0.1071811E-001  0.1938668E+03  0.7546771E-02  0.1155070E+00
         21   -1    0    0  503  502  0.00000000000E+00  0.00000000000E+00  0.36846209199E+03  0.36846209199E+03  0.00000000000E+00 0. -1.
         21   -1    0    0  501  503 -0.00000000000E+00 -0.00000000000E+00 -0.56986891476E+03  0.56986891476E+03  0.00000000000E+00 0. -1.
          6    2    1    2  501    0  0.83790383891E+02  0.20017912695E+02 -0.52585561320E+03  0.56037420418E+03  0.17341735067E+03 0.  0.
         24    2    3    3    0    0  0.94642896271E+02  0.68697854970E+02 -0.34316423967E+03  0.37093888074E+03  0.78468367904E+02 0.  0.
         -6    2    1    2    0  502 -0.83790383891E+02 -0.20017912695E+02  0.32444879043E+03  0.37795680258E+03  0.17367435545E+03 0.  0.
        -24    2    5    5    0    0 -0.28857256973E+02  0.15686387839E+02  0.29174440514E+03  0.30458029185E+03  0.81089778684E+02 0.  0.
          5    1    3    3  501    0 -0.10852512380E+02 -0.48679942275E+02 -0.18269137353E+03  0.18943532344E+03  0.47000000000E+01 0. -1.
        -11    1    4    4    0    0  0.31195770815E+02 -0.17233864348E+01 -0.28434716065E+02  0.42245464316E+02  0.00000000000E+00 0.  1.
         12    1    4    4    0    0  0.63447125456E+02  0.70421241405E+02 -0.31472952360E+03  0.32869341642E+03  0.00000000000E+00 0. -1.
         -5    1    5    5    0  502 -0.54933126918E+02 -0.35704300534E+02  0.32704385289E+02  0.73376510729E+02  0.47000000000E+01 0.  1.
         11    1    6    6    0    0 -0.50289822227E+01 -0.14797749589E+02  0.23715462766E+03  0.23766905873E+03  0.00000000000E+00 0. -1.
        -12    1    6    6    0    0 -0.23828274751E+02  0.30484137428E+02  0.54589777479E+02  0.66911233120E+02  0.00000000000E+00 0.  1.
<mgrwt>
<rscale>  2 0.19380920E+03</rscale>
<asrwt>0</asrwt>
<pdfrwt beam="1">  1       21 0.56686476E-01 0.19386678E+03</pdfrwt>
<pdfrwt beam="2">  1       21 0.87672140E-01 0.19386678E+03</pdfrwt>
<totfact> 0.32621510E+03</totfact>
</mgrwt>
</event>
<event>
12    1  0.1071811E-001  0.3228213E+03  0.7546771E-02  0.1074610E+00
         21   -1    0    0  501  502  0.00000000000E+00  0.00000000000E+00  0.60957182174E+03  0.60957182174E+03  0.00000000000E+00 0.  1.
         21   -1    0    0  502  503 -0.00000000000E+00 -0.00000000000E+00 -0.24428786547E+03  0.24428786547E+03  0.00000000000E+00 0. -1.
         -6    2    1    2    0  503 -0.83228373687E+02 -0.26021116179E+03 -0.52678324331E+02  0.32709113985E+03  0.17197905980E+03 0.  0.
        -24    2    3    3    0    0 -0.32435520664E+00 -0.17335842771E+03 -0.75554952133E+02  0.20477227869E+03  0.78548619740E+02 0.  0.
          6    2    1    2  501    0  0.83228373687E+02  0.26021116179E+03  0.41796228060E+03  0.52676854735E+03  0.16779697129E+03 0.  0.
         24    2    5    5    0    0  0.11186897465E+03  0.18926046848E+03  0.36521025854E+03  0.43371398951E+03  0.79969364989E+02 0.  0.
          5    1    5    5  501    0 -0.28640600960E+02  0.70950693308E+02  0.52752022054E+02  0.93054557841E+02  0.47000000000E+01 0. -1.
        -13    1    6    6    0    0  0.43673339223E+02  0.18573502236E+02  0.10398410941E+03  0.11430236460E+03  0.00000000000E+00 0.  1.
         14    1    6    6    0    0  0.68195635424E+02  0.17068696624E+03  0.26122614913E+03  0.31941162491E+03  0.00000000000E+00 0. -1.
         -5    1    3    3    0  503 -0.82904018480E+02 -0.86852734079E+02  0.22876627802E+02  0.12231886117E+03  0.47000000000E+01 0.  1.
         11    1    4    4    0    0 -0.32909763371E+02 -0.12441378707E+03 -0.35078658414E+02  0.13338798751E+03  0.00000000000E+00 0. -1.
        -12    1    4    4    0    0  0.32585408165E+02 -0.48944640643E+02 -0.40476293719E+02  0.71384291173E+02  0.00000000000E+00 0.  1.
<mgrwt>
<rscale>  2 0.32226780E+03</rscale>
<asrwt>0</asrwt>
<pdfrwt beam="1">  1       21 0.93780280E-01 0.32282133E+03</pdfrwt>
<pdfrwt beam="2">  1       21 0.37582749E-01 0.32282133E+03</pdfrwt>
<totfact> 0.60325839E+03</totfact>
</mgrwt>
</event>
<event>
12    1  0.1071811E-001  0.1839539E+03  0.7546771E-02  0.1165036E+00
         21   -1    0    0  501  502  0.00000000000E+00  0.00000000000E+00  0.31209971392E+03  0.31209971392E+03  0.00000000000E+00 0.  1.
         21   -1    0    0  502  503 -0.00000000000E+00 -0.00000000000E+00 -0.10906981918E+03  0.10906981918E+03  0.00000000000E+00 0.  1.
         -6    2    1    2    0  503 -0.43610719168E+02  0.43801286353E+02  0.13827067016E+03  0.23012563552E+03  0.17325871518E+03 0.  0.
        -24    2    3    3    0    0  0.31663260724E+02  0.10460964015E+02  0.24590811803E+02  0.89687217207E+02  0.79543039026E+02 0.  0.
          6    2    1    2  501    0  0.43610719168E+02 -0.43801286353E+02  0.64759224586E+02  0.19104389758E+03  0.16877075019E+03 0.  0.
         24    2    5    5    0    0  0.92681826802E+02 -0.21471398469E+02  0.57079997397E+02  0.13638442422E+03  0.79319878320E+02 0.  0.
          5    1    5    5  501    0 -0.49071107634E+02 -0.22329887884E+02  0.76792271893E+01  0.54659473356E+02  0.47000000000E+01 0. -1.
        -13    1    6    6    0    0  0.29336952400E+02 -0.30450233068E+02  0.58750740708E+02  0.72384549482E+02  0.00000000000E+00 0.  1.
         14    1    6    6    0    0  0.63344874403E+02  0.89788345988E+01 -0.16707433111E+01  0.63999874742E+02  0.00000000000E+00 0. -1.
         -5    1    3    3    0  503 -0.75273979892E+02  0.33340322338E+02  0.11367985835E+03  0.14043841831E+03  0.47000000000E+01 0.  1.
         11    1    4    4    0    0 -0.34342450745E+01 -0.30363827573E+02  0.14095151688E+00  0.30557747486E+02  0.00000000000E+00 0. -1.
        -12    1    4    4    0    0  0.35097505798E+02  0.40824791588E+02  0.24449860286E+02  0.59129469721E+02  0.00000000000E+00 0.  1.
<mgrwt>
<rscale>  2 0.18288950E+03</rscale>
<asrwt>0</asrwt>
<pdfrwt beam="1">  1       21 0.48015340E-01 0.18395388E+03</pdfrwt>
<pdfrwt beam="2">  1       21 0.16779972E-01 0.18395388E+03</pdfrwt>
<totfact> 0.13284340E+05</totfact>
</mgrwt>
</event>
<event>
12    1  0.1071811E-001  0.2177184E+03  0.7546771E-02  0.1135824E+00
         21   -1    0    0  503  502  0.00000000000E+00  0.00000000000E+00  0.87028403972E+02  0.87028403972E+02  0.00000000000E+00 0.  1.
         21   -1    0    0  501  503 -0.00000000000E+00 -0.00000000000E+00 -0.89612362738E+03  0.89612362738E+03  0.00000000000E+00 0.  1.
          6    2    1    2  501    0 -0.13247839567E+03  0.15265409120E+02 -0.71439164462E+03  0.74683113301E+03  0.17209811531E+03 0.  0.
         24    2    3    3    0    0 -0.47542764877E+02  0.89377138228E+00 -0.57703227926E+03  0.58462666142E+03  0.80999806328E+02 0.  0.
         -6    2    1    2    0  502  0.13247839567E+03 -0.15265409120E+02 -0.94703578784E+02  0.23632089834E+03  0.17057327201E+03 0.  0.
        -24    2    5    5    0    0  0.84352837178E+02  0.33460452783E+02 -0.37571389334E+01  0.12237519233E+03  0.82015660476E+02 0.  0.
          5    1    3    3  501    0 -0.84935630788E+02  0.14371637738E+02 -0.13735936537E+03  0.16220447159E+03  0.47000000000E+01 0. -1.
        -11    1    4    4    0    0 -0.55673046953E+02  0.29984050715E+02 -0.36161850580E+03  0.36710553686E+03  0.00000000000E+00 0.  1.
         12    1    4    4    0    0  0.81302820753E+01 -0.29090279333E+02 -0.21541377345E+03  0.21752112456E+03  0.00000000000E+00 0. -1.
         -5    1    5    5    0  502  0.48125558487E+02 -0.48725861903E+02 -0.90946439851E+02  0.11394570602E+03  0.47000000000E+01 0.  1.
         11    1    6    6    0    0  0.52547392221E+02  0.13704831770E+02  0.38007646708E+02  0.66284478208E+02  0.00000000000E+00 0. -1.
        -12    1    6    6    0    0  0.31805444957E+02  0.19755621014E+02 -0.41764785641E+02  0.56090714117E+02  0.00000000000E+00 0.  1.
<mgrwt>
<rscale>  2 0.21741699E+03</rscale>
<asrwt>0</asrwt>
<pdfrwt beam="1">  1       21 0.13388986E-01 0.21771844E+03</pdfrwt>
<pdfrwt beam="2">  1       21 0.13786516E+00 0.21771844E+03</pdfrwt>
<totfact> 0.17652639E+04</totfact>
</mgrwt>
</event>
<event>
12    1  0.1071811E-001  0.2172111E+03  0.7546771E-02  0.1136354E+00
         21   -1    0    0  501  502  0.00000000000E+00  0.00000000000E+00  0.30793646769E+02  0.30793646769E+02  0.00000000000E+00 0.  1.
         21   -1    0    0  502  503 -0.00000000000E+00 -0.00000000000E+00 -0.15216260340E+04  0.15216260340E+04  0.00000000000E+00 0. -1.
         -6    2    1    2    0  503 -0.12010652928E+03 -0.52799260590E+02 -0.77820241683E+03  0.80742158830E+03  0.17063786036E+03 0.  0.
        -24    2    3    3    0    0  0.62149261738E+01 -0.30345213393E+02 -0.32951818617E+03  0.34073012363E+03  0.80964960642E+02 0.  0.
          6    2    1    2  501    0  0.12010652928E+03  0.52799260590E+02 -0.71262997036E+03  0.74499809244E+03  0.17311078182E+03 0.  0.
         24    2    5    5    0    0  0.11190025015E+03 -0.11485393412E+02 -0.59278233309E+03  0.60866979047E+03  0.80214955980E+02 0.  0.
          5    1    5    5  501    0  0.82062791331E+01  0.64284654003E+02 -0.11984763727E+03  0.13632830197E+03  0.47000000000E+01 0. -1.
        -11    1    6    6    0    0  0.98323345950E+02 -0.12026743858E+02 -0.30743380776E+03  0.32299793974E+03  0.00000000000E+00 0.  1.
         12    1    6    6    0    0  0.13576904195E+02  0.54135044526E+00 -0.28534852533E+03  0.28567185073E+03  0.00000000000E+00 0. -1.
         -5    1    3    3    0  503 -0.12632145545E+03 -0.22454047198E+02 -0.44868423067E+03  0.46669146467E+03  0.47000000000E+01 0.  1.
         11    1    4    4    0    0 -0.36905246231E+02 -0.83476842648E+01 -0.12769559008E+03  0.13318350032E+03  0.00000000000E+00 0. -1.
        -12    1    4    4    0    0  0.43120172405E+02 -0.21997529128E+02 -0.20182259608E+03  0.20754662331E+03  0.00000000000E+00 0.  1.
<mgrwt>
<rscale>  2 0.21671806E+03</rscale>
<asrwt>0</asrwt>
<pdfrwt beam="1">  1       21 0.47374846E-02 0.21721115E+03</pdfrwt>
<pdfrwt beam="2">  1       21 0.23409629E+00 0.21721115E+03</pdfrwt>
<totfact> 0.23885547E+04</totfact>
</mgrwt>
</event>
<event>
12    1  0.1071811E-001  0.2048874E+03  0.7546771E-02  0.1145909E+00
         21   -1    0    0  501  502  0.00000000000E+00  0.00000000000E+00  0.18953251955E+03  0.18953251955E+03  0.00000000000E+00 0.  1.
         21   -1    0    0  502  503 -0.00000000000E+00 -0.00000000000E+00 -0.22393370003E+03  0.22393370003E+03  0.00000000000E+00 0.  1.
         -6    2    1    2    0  503  0.56822559253E+02  0.93846085564E+02 -0.43661427769E+02  0.20948784166E+03  0.17304029736E+03 0.  0.
        -24    2    3    3    0    0  0.74584240641E+02  0.32665412673E+02  0.23838002058E+02  0.11655337502E+03  0.79916210811E+02 0.  0.
          6    2    1    2  501    0 -0.56822559253E+02 -0.93846085564E+02  0.92602472964E+01  0.20397837792E+03  0.17171352732E+03 0.  0.
         24    2    5    5    0    0  0.35126337564E+02 -0.34716693479E+02  0.18803488417E+02  0.94141917288E+02  0.77910339604E+02 0.  0.
          5    1    5    5  501    0 -0.91948896817E+02 -0.59129392085E+02 -0.95432411205E+01  0.10983646064E+03  0.47000000000E+01 0. -1.
        -11    1    6    6    0    0  0.21126384696E+02 -0.12727100826E+02  0.48631457207E+02  0.54528174881E+02  0.00000000000E+00 0.  1.
         12    1    6    6    0    0  0.13999952868E+02 -0.21989592653E+02 -0.29827968790E+02  0.39613742407E+02  0.00000000000E+00 0. -1.
         -5    1    3    3    0  503 -0.17761681388E+02  0.61180672891E+02 -0.67499429827E+02  0.92934466632E+02  0.47000000000E+01 0.  1.
         11    1    4    4    0    0  0.79004094206E+02  0.32121812688E+00  0.57048235727E+01  0.79210448139E+02  0.00000000000E+00 0. -1.
        -12    1    4    4    0    0 -0.44198535651E+01  0.32344194546E+02  0.18133178486E+02  0.37342926885E+02  0.00000000000E+00 0.  1.
<mgrwt>
<rscale>  2 0.20460697E+03</rscale>
<asrwt>0</asrwt>
<pdfrwt beam="1">  1       21 0.29158849E-01 0.20488737E+03</pdfrwt>
<pdfrwt beam="2">  1       21 0.34451338E-01 0.20488737E+03</pdfrwt>
<totfact> 0.90988405E+04</totfact>
</mgrwt>
</event>
<event>
12    1  0.1071811E-001  0.1753036E+03  0.7546771E-02  0.1172803E+00
         21   -1    0    0  503  502  0.00000000000E+00  0.00000000000E+00  0.29497070334E+03  0.29497070334E+03  0.00000000000E+00 0. -1.
         21   -1    0    0  501  503 -0.00000000000E+00 -0.00000000000E+00 -0.10478889240E+03  0.10478889240E+03  0.00000000000E+00 0. -1.
          6    2    1    2  501    0 -0.74589846943E+01  0.14583774616E+02  0.71662769326E+02  0.18938561854E+03  0.17453663531E+03 0.  0.
         24    2    3    3    0    0 -0.43690316035E+02  0.57708110949E+02  0.77247508842E+02  0.13259039805E+03  0.79837123243E+02 0.  0.
         -6    2    1    2    0  502  0.74589846943E+01 -0.14583774616E+02  0.11851904161E+03  0.21037397720E+03  0.17303792684E+03 0.  0.
        -24    2    5    5    0    0  0.24910347562E+02  0.55177750184E+01 -0.43918770479E+01  0.84525630811E+02  0.80463174329E+02 0.  0.
          5    1    3    3  501    0  0.36231331341E+02 -0.43124336333E+02 -0.55847395162E+01  0.56795220489E+02  0.47000000000E+01 0. -1.
        -11    1    4    4    0    0  0.33012788963E+01 -0.18193128251E+02  0.12873681695E+02  0.22530424725E+02  0.00000000000E+00 0.  1.
         12    1    4    4    0    0 -0.46991594932E+02  0.75901239200E+02  0.64373827147E+02  0.11005997332E+03  0.00000000000E+00 0. -1.
         -5    1    5    5    0  502 -0.17451362868E+02 -0.20101549634E+02  0.12291091866E+03  0.12584834639E+03  0.47000000000E+01 0.  1.
         13    1    6    6    0    0  0.11987960044E+00 -0.30231829427E+02  0.18421920085E+02  0.35402613198E+02  0.00000000000E+00 0. -1.
        -14    1    6    6    0    0  0.24790467962E+02  0.35749604445E+02 -0.22813797133E+02  0.49123017613E+02  0.00000000000E+00 0.  1.
<mgrwt>
<rscale>  2 0.17492940E+03</rscale>
<asrwt>0</asrwt>
<pdfrwt beam="1">  1       21 0.45380108E-01 0.17530362E+03</pdfrwt>
<pdfrwt beam="2">  1       21 0.16121368E-01 0.17530362E+03</pdfrwt>
<totfact> 0.16104930E+05</totfact>
</mgrwt>
</event>
<event>
12    1  0.1071811E-001  0.1745386E+03  0.7546771E-02  0.1173261E+00
         21   -1    0    0  501  502  0.00000000000E+00  0.00000000000E+00  0.13504866914E+03  0.13504866914E+03  0.00000000000E+00 0. -1.
         21   -1    0    0  502  503 -0.00000000000E+00 -0.00000000000E+00 -0.32355622896E+03  0.32355622896E+03  0.00000000000E+00 0. -1.
         -6    2    1    2    0  503  0.20047283850E+02  0.11674261640E+02 -0.22070073992E+03  0.28137613972E+03  0.17298998071E+03 0.  0.
        -24    2    3    3    0    0 -0.31707548753E+01 -0.79300474719E+01 -0.29933604644E+02  0.88146752304E+02  0.82467508240E+02 0.  0.
          6    2    1    2  501    0 -0.20047283850E+02 -0.11674261640E+02  0.32193180102E+02  0.17722875838E+03  0.17272941260E+03 0.  0.
         24    2    5    5    0    0 -0.50673012870E+02  0.44685486716E+02  0.34870804813E+02  0.11285783182E+03  0.83404857280E+02 0.  0.
          5    1    5    5  501    0  0.30625729020E+02 -0.56359748356E+02 -0.26776247108E+01  0.64370926565E+02  0.47000000000E+01 0. -1.
        -11    1    6    6    0    0  0.18750148175E+02  0.31127129508E+02  0.81252026778E+01  0.37235536340E+02  0.00000000000E+00 0.  1.
         12    1    6    6    0    0 -0.69423161045E+02  0.13558357209E+02  0.26745602135E+02  0.75622295478E+02  0.00000000000E+00 0. -1.
         -5    1    3    3    0  503  0.23218038725E+02  0.19604309112E+02 -0.19076713528E+03  0.19322938742E+03  0.47000000000E+01 0.  1.
         13    1    4    4    0    0 -0.27623945888E+02  0.71148705779E+01 -0.46829473212E+02  0.54833414367E+02  0.00000000000E+00 0. -1.
        -14    1    4    4    0    0  0.24453191013E+02 -0.15044918050E+02  0.16895868569E+02  0.33313337937E+02  0.00000000000E+00 0.  1.
<mgrwt>
<rscale>  2 0.17447398E+03</rscale>
<asrwt>0</asrwt>
<pdfrwt beam="1">  1       21 0.20776718E-01 0.17453858E+03</pdfrwt>
<pdfrwt beam="2">  1       21 0.49777882E-01 0.17453858E+03</pdfrwt>
<totfact> 0.83280068E+04</totfact>
</mgrwt>
</event>
<event>
12    1  0.1071811E-001  0.1803106E+03  0.7546771E-02  0.1167835E+00
         21   -1    0    0  501  502  0.00000000000E+00  0.00000000000E+00  0.16375324652E+04  0.16375324652E+04  0.00000000000E+00 0. -1.
         21   -1    0    0  502  503 -0.00000000000E+00 -0.00000000000E+00 -0.20504944629E+02  0.20504944629E+02  0.00000000000E+00 0. -1.
         -6    2    1    2    0  503 -0.48597251133E+02 -0.17834904919E+02  0.64760256835E+03  0.67223581576E+03  0.17271979853E+03 0.  0.
        -24    2    3    3    0    0  0.31453449217E+02 -0.17510811242E+02  0.21252984014E+03  0.22983487940E+03  0.79744534980E+02 0.  0.
          6    2    1    2  501    0  0.48597251133E+02  0.17834904919E+02  0.96942495227E+03  0.98580159412E+03  0.17129001206E+03 0.  0.
         24    2    5    5    0    0 -0.36773918424E+02  0.55090728230E+01  0.59066522031E+03  0.59731583211E+03  0.80734935725E+02 0.  0.
          5    1    5    5  501    0  0.85371169557E+02  0.12325832096E+02  0.37875973196E+03  0.38848576201E+03  0.47000000000E+01 0. -1.
        -13    1    6    6    0    0 -0.15862843554E+02  0.30495218235E+02  0.49620680310E+03  0.49739599876E+03  0.00000000000E+00 0.  1.
         14    1    6    6    0    0 -0.20911074870E+02 -0.24986145412E+02  0.94458417208E+02  0.99919833347E+02  0.00000000000E+00 0. -1.
         -5    1    3    3    0  503 -0.80050700350E+02 -0.32409367669E+00  0.43507272820E+03  0.44240093636E+03  0.47000000000E+01 0.  1.
         13    1    4    4    0    0 -0.35604122360E+01  0.28600387570E+02  0.85648668860E+02  0.90367876936E+02  0.00000000000E+00 0. -1.
        -14    1    4    4    0    0  0.35013861453E+02 -0.46111198813E+02  0.12688117128E+03  0.13946700246E+03  0.00000000000E+00 0.  1.
<mgrwt>
<rscale>  2 0.17996732E+03</rscale>
<asrwt>0</asrwt>
<pdfrwt beam="1">  1       21 0.25192797E+00 0.18031058E+03</pdfrwt>
<pdfrwt beam="2">  1       21 0.31546082E-02 0.18031058E+03</pdfrwt>
<totfact> 0.38099745E+04</totfact>
</mgrwt>
</event>
<event>
12    1  0.1071811E-001  0.1898457E+03  0.7546771E-02  0.1158839E+00
         21   -1    0    0  503  502  0.00000000000E+00  0.00000000000E+00  0.83271061359E+02  0.83271061359E+02  0.00000000000E+00 0. -1.
         21   -1    0    0  501  503 -0.00000000000E+00 -0.00000000000E+00 -0.45808761962E+03  0.45808761962E+03  0.00000000000E+00 0.  1.
          6    2    1    2  501    0 -0.72366502221E+02 -0.27295023975E+02 -0.25343531065E+03  0.31602600300E+03  0.17222383375E+03 0.  0.
         24    2    3    3    0    0 -0.30019082006E+02 -0.34115415244E+02 -0.38759013588E+02  0.97056086676E+02  0.76502392020E+02 0.  0.
         -6    2    1    2    0  502  0.72366502221E+02  0.27295023975E+02 -0.12138124762E+03  0.22533267798E+03  0.17337669831E+03 0.  0.
        -24    2    5    5    0    0  0.31529649285E+02 -0.14187307425E+02  0.25165344214E+01  0.88361210990E+02  0.81277131999E+02 0.  0.
          5    1    3    3  501    0 -0.42347420214E+02  0.68203912684E+01 -0.21467629706E+03  0.21896991632E+03  0.47000000000E+01 0. -1.
        -13    1    4    4    0    0  0.11911418534E+02 -0.43946756407E+02 -0.15429882517E+02  0.48075779397E+02  0.00000000000E+00 0.  1.
         14    1    4    4    0    0 -0.41930500540E+02  0.98313411631E+01 -0.23329131071E+02  0.48980307279E+02  0.00000000000E+00 0. -1.
         -5    1    5    5    0  502  0.40836852936E+02  0.41482331401E+02 -0.12389778204E+03  0.13697146699E+03  0.47000000000E+01 0.  1.
         13    1    6    6    0    0  0.58262525171E+02 -0.39474600642E+01  0.87927431542E+01  0.59054353035E+02  0.00000000000E+00 0. -1.
        -14    1    6    6    0    0 -0.26732875886E+02 -0.10239847361E+02 -0.62762087329E+01  0.29306857954E+02  0.00000000000E+00 0.  1.
<mgrwt>
<rscale>  2 0.18958213E+03</rscale>
<asrwt>0</asrwt>
<pdfrwt beam="1">  1       21 0.12810933E-01 0.18984575E+03</pdfrwt>
<pdfrwt beam="2">  1       21 0.70475018E-01 0.18984575E+03</pdfrwt>
<totfact> 0.95375945E+04</totfact>
</mgrwt>
</event>
<event>
12    1  0.1071811E-001  0.2263371E+03  0.7546771E-02  0.1129393E+00
         21   -1    0    0  501  502  0.00000000000E+00  0.00000000000E+00  0.37245190082E+03  0.37245190082E+03  0.00000000000E+00 0.  1.
         21   -1    0    0  502  503 -0.00000000000E+00 -0.00000000000E+00 -0.22173480511E+03  0.22173480511E+03  0.00000000000E+00 0.  1.
         -6    2    1    2    0  503 -0.14012578964E+03 -0.37342596417E+02  0.25888271986E+03  0.34333158008E+03  0.17270380657E+03 0.  0.
        -24    2    3    3    0    0 -0.93589517598E+02 -0.19108717459E+02  0.60671411268E+02  0.13886174902E+03  0.80482447208E+02 0.  0.
          6    2    1    2  501    0  0.14012578964E+03  0.37342596417E+02 -0.10816562415E+03  0.25085512585E+03  0.17377797757E+03 0.  0.
         24    2    5    5    0    0  0.16523484312E+03  0.54523747624E+02 -0.10789811384E+03  0.22006847151E+03  0.80701528780E+02 0.  0.
          5    1    5    5  501    0 -0.25109053483E+02 -0.17181151207E+02 -0.26751031814E+00  0.30786654339E+02  0.47000000000E+01 0. -1.
        -13    1    6    6    0    0  0.48826550087E+02  0.54388637334E+02 -0.58475280002E+02  0.93602960614E+02  0.00000000000E+00 0.  1.
         14    1    6    6    0    0  0.11640829304E+03  0.13511028962E+00 -0.49422833834E+02  0.12646551090E+03  0.00000000000E+00 0. -1.
         -5    1    3    3    0  503 -0.46536272044E+02 -0.18233878958E+02  0.19821130859E+03  0.20446983106E+03  0.47000000000E+01 0.  1.
         13    1    4    4    0    0  0.52895023800E+01 -0.42290253355E+01  0.34969262238E+02  0.35618994823E+02  0.00000000000E+00 0. -1.
        -14    1    4    4    0    0 -0.98879019978E+02 -0.14879692124E+02  0.25702149030E+02  0.10324275420E+03  0.00000000000E+00 0.  1.
<mgrwt>
<rscale>  2 0.22613092E+03</rscale>
<asrwt>0</asrwt>
<pdfrwt beam="1">  1       21 0.57300292E-01 0.22633712E+03</pdfrwt>
<pdfrwt beam="2">  1       21 0.34113047E-01 0.22633712E+03</pdfrwt>
<totfact> 0.23234950E+04</totfact>
</mgrwt>
</event>
<event>
12    1  0.1071811E-001  0.1899906E+03  0.7546771E-02  0.1158538E+00
         21   -1    0    0  503  502  0.00000000000E+00  0.00000000000E+00  0.29336801502E+03  0.29336801502E+03  0.00000000000E+00 0.  1.
         21   -1    0    0  501  503 -0.00000000000E+00 -0.00000000000E+00 -0.14581765256E+03  0.14581765256E+03  0.00000000000E+00 0.  1.
          6    2    1    2  501    0 -0.64669768206E+02 -0.41881118115E+02 -0.13430118243E+02  0.19016532276E+03  0.17333861350E+03 0.  0.
         24    2    3    3    0    0 -0.27753015482E+02 -0.88376787417E+02 -0.32519614117E+02  0.12762579328E+03  0.81548337724E+02 0.  0.
         -6    2    1    2    0  502  0.64669768206E+02  0.41881118115E+02  0.16098048070E+03  0.24902034481E+03  0.17366695134E+03 0.  0.
        -24    2    5    5    0    0  0.58289409637E+01  0.62034998499E+02  0.32739773603E+02  0.10641532806E+03  0.79812352921E+02 0.  0.
          5    1    3    3  501    0 -0.36916752724E+02  0.46495669302E+02  0.19089495874E+02  0.62539529485E+02  0.47000000000E+01 0. -1.
        -13    1    4    4    0    0 -0.78391128095E+01  0.15200115027E+02  0.48275615319E+00  0.17109302732E+02  0.00000000000E+00 0.  1.
         14    1    4    4    0    0 -0.19913902673E+02 -0.10357690244E+03 -0.33002370270E+02  0.11051649055E+03  0.00000000000E+00 0. -1.
         -5    1    5    5    0  502  0.58840827243E+02 -0.20153880384E+02  0.12824070710E+03  0.14260501675E+03  0.47000000000E+01 0.  1.
         11    1    6    6    0    0 -0.34277592975E+02  0.42430694689E+02  0.72967510203E+01  0.55032352371E+02  0.00000000000E+00 0. -1.
        -12    1    6    6    0    0  0.40106533939E+02  0.19604303810E+02  0.25443022583E+02  0.51382975689E+02  0.00000000000E+00 0.  1.
<mgrwt>
<rscale>  2 0.18991551E+03</rscale>
<asrwt>0</asrwt>
<pdfrwt beam="1">  1       21 0.45133541E-01 0.18999057E+03</pdfrwt>
<pdfrwt beam="2">  1       21 0.22433485E-01 0.18999057E+03</pdfrwt>
<totfact> 0.87723890E+04</totfact>
</mgrwt>
</event>
<event>
12    1  0.1071811E-001  0.2379828E+03  0.7546771E-02  0.1121205E+00
         21   -1    0    0  503  502  0.00000000000E+00  0.00000000000E+00  0.17126084222E+03  0.17126084222E+03  0.00000000000E+00 0.  1.
         21   -1    0    0  501  503 -0.00000000000E+00 -0.00000000000E+00 -0.45289948461E+03  0.45289948461E+03  0.00000000000E+00 0. -1.
          6    2    1    2  501    0  0.13702856230E+03  0.89852430767E+02 -0.30318210686E+03  0.38520437938E+03  0.17208351976E+03 0.  0.
         24    2    3    3    0    0  0.21317140164E+02  0.29795817561E+01 -0.60321965146E+02  0.10246923204E+03  0.79986909330E+02 0.  0.
         -6    2    1    2    0  502 -0.13702856230E+03 -0.89852430767E+02  0.21543464459E+02  0.23895594745E+03  0.17258487118E+03 0.  0.
        -24    2    5    5    0    0 -0.32953073580E+02 -0.78890118610E+02  0.55386816137E+02  0.12886806396E+03  0.78928591990E+02 0.  0.
          5    1    3    3  501    0  0.11571142213E+03  0.86872849011E+02 -0.24286014171E+03  0.28273514733E+03  0.47000000000E+01 0. -1.
        -11    1    4    4    0    0  0.50421111910E+02 -0.90225060807E+01 -0.34564202023E+02  0.61793027144E+02  0.00000000000E+00 0.  1.
         12    1    4    4    0    0 -0.29103971746E+02  0.12002087837E+02 -0.25757763123E+02  0.40676204898E+02  0.00000000000E+00 0. -1.
         -5    1    5    5    0  502 -0.10407548872E+03 -0.10962312157E+02 -0.33843351678E+02  0.11008788349E+03  0.47000000000E+01 0.  1.
         13    1    6    6    0    0 -0.31663202164E+02 -0.71820815533E+01 -0.76799546143E+01  0.33363488570E+02  0.00000000000E+00 0. -1.
        -14    1    6    6    0    0 -0.12898714165E+01 -0.71708037056E+02  0.63066770751E+02  0.95504575386E+02  0.00000000000E+00 0.  1.
<mgrwt>
<rscale>  2 0.23789194E+03</rscale>
<asrwt>0</asrwt>
<pdfrwt beam="1">  1       21 0.26347822E-01 0.23798282E+03</pdfrwt>
<pdfrwt beam="2">  1       21 0.69676843E-01 0.23798282E+03</pdfrwt>
<totfact> 0.25022912E+04</totfact>
</mgrwt>
</event>
<event>
12    1  0.1071811E-001  0.2722256E+03  0.7546771E-02  0.1100057E+00
         21   -1    0    0  501  502  0.00000000000E+00  0.00000000000E+00  0.92320707700E+03  0.92320707700E+03  0.00000000000E+00 0. -1.
         21   -1    0    0  502  503 -0.00000000000E+00 -0.00000000000E+00 -0.25180014494E+03  0.25180014494E+03  0.00000000000E+00 0.  1.
         -6    2    1    2    0  503  0.20998601186E+03 -0.20234293013E+01 -0.14926520087E+03  0.31046237881E+03  0.17322981563E+03 0.  0.
        -24    2    3    3    0    0  0.95347269217E+02 -0.66556802898E+02 -0.75108944216E+02  0.15937353732E+03  0.78978865125E+02 0.  0.
          6    2    1    2  501    0 -0.20998601186E+03  0.20234293013E+01  0.82067213293E+03  0.86454484314E+03  0.17273336848E+03 0.  0.
         24    2    5    5    0    0 -0.12608726205E+03 -0.49224658213E+02  0.64694833087E+03  0.66487657802E+03  0.72094774814E+02 0.  0.
          5    1    5    5  501    0 -0.83898749812E+02  0.51248087515E+02  0.17372380206E+03  0.19966826512E+03  0.47000000000E+01 0. -1.
        -11    1    6    6    0    0 -0.32604513210E+02 -0.44514843567E+02  0.16679396994E+03  0.17568396053E+03  0.00000000000E+00 0.  1.
         12    1    6    6    0    0 -0.93482748839E+02 -0.47098146460E+01  0.48015436094E+03  0.48919261749E+03  0.00000000000E+00 0. -1.
         -5    1    3    3    0  503  0.11463874264E+03  0.64533373596E+02 -0.74156256654E+02  0.15108884149E+03  0.47000000000E+01 0.  1.
         13    1    4    4    0    0 -0.10420492516E+02  0.10572418925E+01 -0.19374266072E+02  0.22024227808E+02  0.00000000000E+00 0. -1.
        -14    1    4    4    0    0  0.10576776173E+03 -0.67614044790E+02 -0.55734678144E+02  0.13734930951E+03  0.00000000000E+00 0.  1.
<mgrwt>
<rscale>  2 0.27214668E+03</rscale>
<asrwt>0</asrwt>
<pdfrwt beam="1">  1       21 0.14203186E+00 0.27222562E+03</pdfrwt>
<pdfrwt beam="2">  1       21 0.38738484E-01 0.27222562E+03</pdfrwt>
<totfact> 0.20777182E+03</totfact>
</mgrwt>
</event>
<event>
12    1  0.1071811E-001  0.2790390E+03  0.7546771E-02  0.1096228E+00
         21   -1    0    0  501  502  0.00000000000E+00  0.00000000000E+00  0.11915040204E+03  0.11915040204E+03  0.00000000000E+00 0.  1.
         21   -1    0    0  502  503 -0.00000000000E+00 -0.00000000000E+00 -0.98363977257E+03  0.98363977257E+03  0.00000000000E+00 0.  1.
         -6    2    1    2    0  503  0.15709808102E+03  0.15230559286E+03 -0.11273619603E+03  0.30095219851E+03  0.17316458995E+03 0.  0.
        -24    2    3    3    0    0  0.17382626862E+03  0.13986225051E+03 -0.60578009506E+02  0.24458522723E+03  0.79844958274E+02 0.  0.
          6    2    1    2  501    0 -0.15709808102E+03 -0.15230559286E+03 -0.75175317450E+03  0.80183797610E+03  0.17301590642E+03 0.  0.
         24    2    5    5    0    0 -0.10847299667E+03 -0.17878643434E+03 -0.61049209883E+03  0.65004069256E+03  0.78238859492E+02 0.  0.
          5    1    5    5  501    0 -0.48625084345E+02  0.26480841477E+02 -0.14126107567E+03  0.15179728354E+03  0.47000000000E+01 0. -1.
        -11    1    6    6    0    0 -0.54331585493E+02 -0.24617428895E+02 -0.15053683655E+03  0.16192368001E+03  0.00000000000E+00 0.  1.
         12    1    6    6    0    0 -0.54141411181E+02 -0.15416900544E+03 -0.45995526228E+03  0.48811701255E+03  0.00000000000E+00 0. -1.
         -5    1    3    3    0  503 -0.16728187605E+02  0.12443342356E+02 -0.52158186528E+02  0.56366971281E+02  0.47000000000E+01 0.  1.
         13    1    4    4    0    0  0.11744986950E+03  0.98923115827E+02 -0.20193880429E+01  0.15357191351E+03  0.00000000000E+00 0. -1.
        -14    1    4    4    0    0  0.56376399123E+02  0.40939134679E+02 -0.58558621464E+02  0.91013313719E+02  0.00000000000E+00 0.  1.
<mgrwt>
<rscale>  2 0.27901596E+03</rscale>
<asrwt>0</asrwt>
<pdfrwt beam="1">  1       21 0.18330831E-01 0.27903902E+03</pdfrwt>
<pdfrwt beam="2">  1       21 0.15132920E+00 0.27903902E+03</pdfrwt>
<totfact> 0.74788416E+03</totfact>
</mgrwt>
</event>
<event>
12    1  0.1071811E-001  0.2077183E+03  0.7546771E-02  0.1145727E+00
         21   -1    0    0  501  502  0.00000000000E+00  0.00000000000E+00  0.43062392712E+03  0.43062392712E+03  0.00000000000E+00 0. -1.
         21   -1    0    0  502  503 -0.00000000000E+00 -0.00000000000E+00 -0.99821635742E+02  0.99821635742E+02  0.00000000000E+00 0. -1.
         -6    2    1    2    0  503 -0.91845636644E+02 -0.21315181059E+01  0.10160731795E+03  0.22112818530E+03  0.17358992752E+03 0.  0.
        -24    2    3    3    0    0 -0.65018743083E+02 -0.53891607543E+02  0.16894505107E+02  0.11818577550E+03  0.80936462191E+02 0.  0.
          6    2    1    2  501    0  0.91845636644E+02  0.21315181059E+01  0.22919497342E+03  0.30931737756E+03  0.18629745000E+03 0.  0.
         24    2    5    5    0    0  0.75373896867E+02  0.59798958563E+02  0.77555111958E+02  0.14618065733E+03  0.78082324586E+02 0.  0.
          5    1    5    5  501    0  0.16471739776E+02 -0.57667440457E+02  0.15163986147E+03  0.16313672022E+03  0.47000000000E+01 0. -1.
        -13    1    6    6    0    0  0.45822667910E+02  0.33415927030E+02 -0.25979930264E+01  0.56772270004E+02  0.00000000000E+00 0.  1.
         14    1    6    6    0    0  0.29551228957E+02  0.26383031533E+02  0.80153104985E+02  0.89408387327E+02  0.00000000000E+00 0. -1.
         -5    1    3    3    0  503 -0.26826893561E+02  0.51760089437E+02  0.84712812843E+02  0.10294240981E+03  0.47000000000E+01 0.  1.
         13    1    4    4    0    0 -0.29960665109E+02  0.19190242778E+02  0.10444187604E+01  0.35594910903E+02  0.00000000000E+00 0. -1.
        -14    1    4    4    0    0 -0.35058077974E+02 -0.73081850321E+02  0.15850086347E+02  0.82590864596E+02  0.00000000000E+00 0.  1.
<mgrwt>
<rscale>  2 0.20482946E+03</rscale>
<asrwt>0</asrwt>
<pdfrwt beam="1">  1       21 0.66249834E-01 0.20771833E+03</pdfrwt>
<pdfrwt beam="2">  1       21 0.15357175E-01 0.20771833E+03</pdfrwt>
<totfact> 0.78060009E+04</totfact>
</mgrwt>
</event>
<event>
12    1  0.1071811E-001  0.1900685E+03  0.7546771E-02  0.1158418E+00
         21   -1    0    0  503  502  0.00000000000E+00  0.00000000000E+00  0.31406291818E+03  0.31406291818E+03  0.00000000000E+00 0. -1.
         21   -1    0    0  501  503 -0.00000000000E+00 -0.00000000000E+00 -0.36903252478E+03  0.36903252478E+03  0.00000000000E+00 0. -1.
          6    2    1    2  501    0 -0.15355010248E+01 -0.77677784855E+02 -0.31087161267E+03  0.36432928123E+03  0.17337378573E+03 0.  0.
         24    2    3    3    0    0 -0.32561908101E+02 -0.72874139749E+02 -0.31206056868E+03  0.33256111228E+03  0.82729539889E+02 0.  0.
         -6    2    1    2    0  502  0.15355010248E+01  0.77677784855E+02  0.25590200606E+03  0.31876616173E+03  0.17346421284E+03 0.  0.
        -24    2    5    5    0    0  0.33701891752E+02 -0.35586770635E+01  0.19001512302E+03  0.20923438189E+03  0.80776221129E+02 0.  0.
          5    1    3    3  501    0  0.31026407076E+02 -0.48036451059E+01  0.11889560133E+01  0.31768168955E+02  0.47000000000E+01 0. -1.
        -13    1    4    4    0    0  0.45427462596E+01  0.13489934667E+02 -0.13746676327E+02  0.19788531803E+02  0.00000000000E+00 0.  1.
         14    1    4    4    0    0 -0.37104654361E+02 -0.86364074416E+02 -0.29831389235E+03  0.31277258047E+03  0.00000000000E+00 0. -1.
         -5    1    5    5    0  502 -0.32166390727E+02  0.81236461918E+02  0.65886883041E+02  0.10953177984E+03  0.47000000000E+01 0.  1.
         13    1    6    6    0    0 -0.16654393666E+02  0.50545264346E+01  0.12664758961E+03  0.12783790134E+03  0.00000000000E+00 0. -1.
        -14    1    6    6    0    0  0.50356285418E+02 -0.86132034981E+01  0.63367533412E+02  0.81396480553E+02  0.00000000000E+00 0.  1.
<mgrwt>
<rscale>  2 0.19004785E+03</rscale>
<asrwt>0</asrwt>
<pdfrwt beam="1">  1       21 0.48317372E-01 0.19006849E+03</pdfrwt>
<pdfrwt beam="2">  1       21 0.56774234E-01 0.19006849E+03</pdfrwt>
<totfact> 0.11952072E+04</totfact>
</mgrwt>
</event>
<event>
12    1  0.1071811E-001  0.2122671E+03  0.7546771E-02  0.1141466E+00
         21   -1    0    0  501  502  0.00000000000E+00  0.00000000000E+00  0.71980219709E+02  0.71980219709E+02  0.00000000000E+00 0. -1.
         21   -1    0    0  502  503 -0.00000000000E+00 -0.00000000000E+00 -0.60137387830E+03  0.60137387830E+03  0.00000000000E+00 0. -1.
         -6    2    1    2    0  503  0.11031515590E+03  0.88749785608E+01 -0.27224370375E+03  0.34521579091E+03  0.18113284959E+03 0.  0.
        -24    2    3    3    0    0  0.14754779374E+03 -0.21214797364E+01 -0.24471511867E+03  0.29739211046E+03  0.82351235223E+02 0.  0.
          6    2    1    2  501    0 -0.11031515590E+03 -0.88749785608E+01 -0.25714995484E+03  0.32813830709E+03  0.17117374343E+03 0.  0.
         24    2    5    5    0    0 -0.11078848178E+03 -0.61560985227E+02 -0.20387236133E+03  0.25306080510E+03  0.80074894710E+02 0.  0.
          5    1    5    5  501    0  0.47332588335E+00  0.52686006666E+02 -0.53277593506E+02  0.75077501994E+02  0.47000000000E+01 0. -1.
        -13    1    6    6    0    0  0.12734314570E+02 -0.83398828666E+01 -0.17014859570E+02  0.22830283835E+02  0.00000000000E+00 0.  1.
         14    1    6    6    0    0 -0.12352279635E+03 -0.53221102360E+02 -0.18685750176E+03  0.23023052126E+03  0.00000000000E+00 0. -1.
         -5    1    3    3    0  503 -0.37232637845E+02  0.10996458297E+02 -0.27528585079E+02  0.47823680457E+02  0.47000000000E+01 0.  1.
         11    1    4    4    0    0 -0.15240671407E+01 -0.18889725727E+02 -0.25898011257E+02  0.32091299534E+02  0.00000000000E+00 0. -1.
        -12    1    4    4    0    0  0.14907186088E+03  0.16768245991E+02 -0.21881710741E+03  0.26530081092E+03  0.00000000000E+00 0.  1.
<mgrwt>
<rscale>  2 0.21012686E+03</rscale>
<asrwt>0</asrwt>
<pdfrwt beam="1">  1       21 0.11073880E-01 0.21226707E+03</pdfrwt>
<pdfrwt beam="2">  1       21 0.92519059E-01 0.21226707E+03</pdfrwt>
<totfact> 0.66121341E+04</totfact>
</mgrwt>
</event>
<event>
12    1  0.1071811E-001  0.2265621E+03  0.7546771E-02  0.1129270E+00
         21   -1    0    0  503  502  0.00000000000E+00  0.00000000000E+00  0.16195623446E+04  0.16195623446E+04  0.00000000000E+00 0. -1.
         21   -1    0    0  501  503 -0.00000000000E+00 -0.00000000000E+00 -0.46096850208E+02  0.46096850208E+02  0.00000000000E+00 0. -1.
          6    2    1    2  501    0  0.10434727601E+03 -0.99838234620E+02  0.32010144501E+03  0.39216745285E+03  0.17456903756E+03 0.  0.
         24    2    3    3    0    0  0.99227382201E+02 -0.27052463636E+01  0.17317799505E+03  0.21590168514E+03  0.82277141039E+02 0.  0.
         -6    2    1    2    0  502 -0.10434727601E+03  0.99838234620E+02  0.12533640494E+04  0.12734917420E+04  0.17321590416E+03 0.  0.
        -24    2    5    5    0    0 -0.13841176345E+03  0.45332735693E+02  0.82202892500E+03  0.83736868795E+03  0.65129815199E+02 0.  0.
          5    1    3    3  501    0  0.51198938065E+01 -0.97132988256E+02  0.14692344996E+03  0.17626576771E+03  0.47000000000E+01 0. -1.
        -11    1    4    4    0    0  0.17613981837E+02  0.33676173302E+02  0.67928880058E+02  0.77837457245E+02  0.00000000000E+00 0.  1.
         12    1    4    4    0    0  0.81613400365E+02 -0.36381419666E+02  0.10524911500E+03  0.13806422789E+03  0.00000000000E+00 0. -1.
         -5    1    5    5    0  502  0.34064487440E+02  0.54505498927E+02  0.43133512441E+03  0.43612305404E+03  0.47000000000E+01 0.  1.
         11    1    6    6    0    0 -0.13138259724E+03  0.49263652316E+02  0.64177274195E+03  0.65693268042E+03  0.00000000000E+00 0. -1.
        -12    1    6    6    0    0 -0.70291662115E+01 -0.39309166233E+01  0.18025618305E+03  0.18043600753E+03  0.00000000000E+00 0.  1.
<mgrwt>
<rscale>  2 0.22630139E+03</rscale>
<asrwt>0</asrwt>
<pdfrwt beam="1">  1       21 0.24916339E+00 0.22656208E+03</pdfrwt>
<pdfrwt beam="2">  1       21 0.70918244E-02 0.22656208E+03</pdfrwt>
<totfact> 0.96467126E+03</totfact>
</mgrwt>
</event>
<event>
12    1  0.1071811E-001  0.4596629E+03  0.7546771E-02  0.1024919E+00
         21   -1    0    0  503  502  0.00000000000E+00  0.00000000000E+00  0.19208729794E+04  0.19208729794E+04  0.00000000000E+00 0. -1.
         21   -1    0    0  501  503 -0.00000000000E+00 -0.00000000000E+00 -0.11130283287E+03  0.11130283287E+03  0.00000000000E+00 0.  1.
          6    2    1    2  501    0  0.33506251191E+03  0.26169497420E+03  0.78870044620E+03  0.91259334218E+03  0.17328320156E+03 0.  0.
         24    2    3    3    0    0  0.29200683294E+03  0.18612297549E+03  0.71043358114E+03  0.79549205847E+03  0.90454349715E+02 0.  0.
         -6    2    1    2    0  502 -0.33506251191E+03 -0.26169497420E+03  0.10208697003E+04  0.11195824700E+04  0.17475358612E+03 0.  0.
        -24    2    5    5    0    0 -0.25367762195E+03 -0.25705404872E+03  0.90778836324E+03  0.98010301890E+03  0.78058281951E+02 0.  0.
          5    1    3    3  501    0  0.43055678969E+02  0.75571998713E+02  0.78266865060E+02  0.11710128371E+03  0.47000000000E+01 0. -1.
        -11    1    4    4    0    0  0.12353820303E+03  0.13138730567E+03  0.33921075746E+03  0.38417216150E+03  0.00000000000E+00 0.  1.
         12    1    4    4    0    0  0.16846862992E+03  0.54735669820E+02  0.37122282369E+03  0.41131989697E+03  0.00000000000E+00 0. -1.
         -5    1    5    5    0  502 -0.81384889966E+02 -0.46409254830E+01  0.11308133704E+03  0.13947945114E+03  0.47000000000E+01 0.  1.
         13    1    6    6    0    0 -0.12562963984E+03 -0.75051683422E+02  0.38810894942E+03  0.41478201288E+03  0.00000000000E+00 0. -1.
        -14    1    6    6    0    0 -0.12804798211E+03 -0.18200236530E+03  0.51967941382E+03  0.56532100602E+03  0.00000000000E+00 0.  1.
<mgrwt>
<rscale>  2 0.45952357E+03</rscale>
<asrwt>0</asrwt>
<pdfrwt beam="1">  1       21 0.29551890E+00 0.45966288E+03</pdfrwt>
<pdfrwt beam="2">  1       21 0.17123514E-01 0.45966288E+03</pdfrwt>
<totfact> 0.89547056E+02</totfact>
</mgrwt>
</event>
<event>
12    1  0.1071811E-001  0.2372125E+03  0.7546771E-02  0.1123372E+00
         21   -1    0    0  501  502  0.00000000000E+00  0.00000000000E+00  0.25091657816E+03  0.25091657816E+03  0.00000000000E+00 0. -1.
         21   -1    0    0  502  503 -0.00000000000E+00 -0.00000000000E+00 -0.46951301921E+03  0.46951301921E+03  0.00000000000E+00 0. -1.
         -6    2    1    2    0  503 -0.14320863108E+03 -0.27686796442E+02 -0.37553673498E+03  0.44418196180E+03  0.18706818316E+03 0.  0.
        -24    2    3    3    0    0 -0.77439604883E+02  0.28027786258E+02 -0.92957583513E+02  0.14871158024E+03  0.81802032720E+02 0.  0.
          6    2    1    2  501    0  0.14320863108E+03  0.27686796442E+02  0.15694029394E+03  0.27624763557E+03  0.17437668876E+03 0.  0.
         24    2    5    5    0    0  0.74296223017E+02  0.48752738660E+01  0.76023112575E+01  0.11013559922E+03  0.80798255119E+02 0.  0.
          5    1    5    5  501    0  0.68912408067E+02  0.22811522576E+02  0.14933798268E+03  0.16611203635E+03  0.47000000000E+01 0. -1.
        -13    1    6    6    0    0  0.10449949201E+02 -0.29632400061E+02 -0.14021635294E+02  0.34407656531E+02  0.00000000000E+00 0.  1.
         14    1    6    6    0    0  0.63846273816E+02  0.34507673927E+02  0.21623946552E+02  0.75727942693E+02  0.00000000000E+00 0. -1.
         -5    1    3    3    0  503 -0.65769026201E+02 -0.55714582700E+02 -0.28257915147E+03  0.29547038156E+03  0.47000000000E+01 0.  1.
         11    1    4    4    0    0 -0.70162835964E+02 -0.71055469453E+01 -0.87561276108E+02  0.11242904172E+03  0.00000000000E+00 0. -1.
        -12    1    4    4    0    0 -0.72767689197E+01  0.35133333203E+02 -0.53963074055E+01  0.36282538520E+02  0.00000000000E+00 0.  1.
<mgrwt>
<rscale>  2 0.23470435E+03</rscale>
<asrwt>0</asrwt>
<pdfrwt beam="1">  1       21 0.38602551E-01 0.23721251E+03</pdfrwt>
<pdfrwt beam="2">  1       21 0.72232772E-01 0.23721251E+03</pdfrwt>
<totfact> 0.10874138E+04</totfact>
</mgrwt>
</event>
<event>
12    1  0.1071811E-001  0.2918466E+03  0.7546771E-02  0.1089612E+00
         21   -1    0    0  501  502  0.00000000000E+00  0.00000000000E+00  0.25950731718E+04  0.25950731718E+04  0.00000000000E+00 0. -1.
         21   -1    0    0  502  503 -0.00000000000E+00 -0.00000000000E+00 -0.11251114875E+03  0.11251114875E+03  0.00000000000E+00 0.  1.
         -6    2    1    2    0  503 -0.22328866883E+03 -0.72768711841E+02  0.10162254543E+03  0.30903326625E+03  0.17326656590E+03 0.  0.
        -24    2    3    3    0    0 -0.76315494859E+02 -0.50694174289E+02  0.10374766484E+03  0.16032211937E+03  0.80905191029E+02 0.  0.
          6    2    1    2  501    0  0.22328866883E+03  0.72768711841E+02  0.23809394776E+04  0.23985510543E+04  0.17035624121E+03 0.  0.
         24    2    5    5    0    0  0.86632628224E+02 -0.22942151739E+02  0.84126152652E+03  0.84985297980E+03  0.80607547240E+02 0.  0.
          5    1    5    5  501    0  0.13665604060E+03  0.95710863580E+02  0.15396779511E+04  0.15486980745E+04  0.47000000000E+01 0. -1.
        -13    1    6    6    0    0  0.11227940050E+02 -0.44203082814E+01  0.48842120615E+03  0.48857024099E+03  0.00000000000E+00 0.  1.
         14    1    6    6    0    0  0.75404688173E+02 -0.18521843458E+02  0.35284032037E+03  0.36128273881E+03  0.00000000000E+00 0. -1.
         -5    1    3    3    0  503 -0.14697317397E+03 -0.22074537552E+02 -0.21251194145E+01  0.14871114688E+03  0.47000000000E+01 0.  1.
         13    1    4    4    0    0 -0.78967345016E+02 -0.11105888461E+02  0.84622818361E+02  0.11627641087E+03  0.00000000000E+00 0. -1.
        -14    1    4    4    0    0  0.26518501573E+01 -0.39588285828E+02  0.19124846482E+02  0.44045708497E+02  0.00000000000E+00 0.  1.
<mgrwt>
<rscale>  2 0.29141602E+03</rscale>
<asrwt>0</asrwt>
<pdfrwt beam="1">  1       21 0.39924198E+00 0.29184657E+03</pdfrwt>
<pdfrwt beam="2">  1       21 0.17309409E-01 0.29184657E+03</pdfrwt>
<totfact> 0.23203685E+02</totfact>
</mgrwt>
</event>
<event>
12    1  0.1071811E-001  0.1969706E+03  0.7546771E-02  0.1152505E+00
         21   -1    0    0  501  502  0.00000000000E+00  0.00000000000E+00  0.12674499231E+04  0.12674499231E+04  0.00000000000E+00 0.  1.
         21   -1    0    0  502  503 -0.00000000000E+00 -0.00000000000E+00 -0.33659127797E+02  0.33659127797E+02  0.00000000000E+00 0.  1.
         -6    2    1    2    0  503 -0.82000574847E+02 -0.43690822370E+02  0.81568931247E+03  0.83893348041E+03  0.17270595773E+03 0.  0.
        -24    2    3    3    0    0 -0.11532661914E+03 -0.25442515947E+01  0.53204454596E+03  0.55035054764E+03  0.80669846329E+02 0.  0.
          6    2    1    2  501    0  0.82000574847E+02  0.43690822370E+02  0.41810148284E+03  0.46217557049E+03  0.17367908848E+03 0.  0.
         24    2    5    5    0    0 -0.50593666005E+01 -0.22793681602E+02  0.21215158699E+03  0.22885803521E+03  0.82598760917E+02 0.  0.
          5    1    5    5  501    0  0.87059941447E+02  0.66484503972E+02  0.20594989584E+03  0.23331753528E+03  0.47000000000E+01 0. -1.
        -11    1    6    6    0    0  0.27170065186E+02  0.11121574375E+02  0.13868645196E+03  0.14175977503E+03  0.00000000000E+00 0.  1.
         12    1    6    6    0    0 -0.32229431787E+02 -0.33915255977E+02  0.73465135034E+02  0.87098260183E+02  0.00000000000E+00 0. -1.
         -5    1    3    3    0  503  0.33326044290E+02 -0.41146570775E+02  0.28364476652E+03  0.28858293277E+03  0.47000000000E+01 0.  1.
         13    1    4    4    0    0 -0.57885920314E+01  0.13947096832E+02  0.13989069533E+02  0.20584542116E+02  0.00000000000E+00 0. -1.
        -14    1    4    4    0    0 -0.10953802711E+03 -0.16491348426E+02  0.51805547642E+03  0.52976600552E+03  0.00000000000E+00 0.  1.
<mgrwt>
<rscale>  2 0.19675585E+03</rscale>
<asrwt>0</asrwt>
<pdfrwt beam="1">  1       21 0.19499226E+00 0.19697058E+03</pdfrwt>
<pdfrwt beam="2">  1       21 0.51783283E-02 0.19697058E+03</pdfrwt>
<totfact> 0.36557276E+04</totfact>
</mgrwt>
</event>
<event>
12    1  0.1071811E-001  0.2317430E+03  0.7546771E-02  0.1125878E+00
         21   -1    0    0  501  502  0.00000000000E+00  0.00000000000E+00  0.68430906193E+02  0.68430906193E+02  0.00000000000E+00 0. -1.
         21   -1    0    0  502  503 -0.00000000000E+00 -0.00000000000E+00 -0.10700143020E+04  0.10700143020E+04  0.00000000000E+00 0.  1.
         -6    2    1    2    0  503  0.14933856166E+03 -0.35271219621E+02 -0.80125048859E+03  0.83409060799E+03  0.17366269590E+03 0.  0.
        -24    2    3    3    0    0  0.61948944900E+02  0.46260255675E+02 -0.36050436965E+03  0.37740301462E+03  0.80572649689E+02 0.  0.
          6    2    1    2  501    0 -0.14933856166E+03  0.35271219621E+02 -0.20033290719E+03  0.30435460017E+03  0.17015400087E+03 0.  0.
         24    2    5    5    0    0 -0.13899761236E+03  0.36071855047E+02 -0.22389015250E+03  0.27818954607E+03  0.81492994721E+02 0.  0.
          5    1    5    5  501    0 -0.10340949301E+02 -0.80063542683E+00  0.23557245311E+02  0.26165054102E+02  0.47000000000E+01 0. -1.
        -11    1    6    6    0    0 -0.12378917665E+02 -0.17278475170E+02 -0.63664377466E+02  0.67118821986E+02  0.00000000000E+00 0.  1.
         12    1    6    6    0    0 -0.12661869469E+03  0.53350330217E+02 -0.16022577503E+03  0.21107072408E+03  0.00000000000E+00 0. -1.
         -5    1    3    3    0  503  0.87389616757E+02 -0.81531475296E+02 -0.44074611894E+03  0.45668759338E+03  0.47000000000E+01 0.  1.
         13    1    4    4    0    0  0.10080723057E+02  0.40668409855E+02 -0.65034353925E+02  0.77362831695E+02  0.00000000000E+00 0. -1.
        -14    1    4    4    0    0  0.51868221843E+02  0.55918458204E+01 -0.29547001572E+03  0.30004018292E+03  0.00000000000E+00 0.  1.
<mgrwt>
<rscale>  2 0.23108578E+03</rscale>
<asrwt>0</asrwt>
<pdfrwt beam="1">  1       21 0.10527833E-01 0.23174295E+03</pdfrwt>
<pdfrwt beam="2">  1       21 0.16461757E+00 0.23174295E+03</pdfrwt>
<totfact> 0.16812164E+04</totfact>
</mgrwt>
</event>
<event>
12    1  0.1071811E-001  0.1747228E+03  0.7546771E-02  0.1173216E+00
         21   -1    0    0  503  502  0.00000000000E+00  0.00000000000E+00  0.98936241980E+02  0.98936241980E+02  0.00000000000E+00 0. -1.
         21   -1    0    0  501  503 -0.00000000000E+00 -0.00000000000E+00 -0.39377504279E+03  0.39377504279E+03  0.00000000000E+00 0. -1.
          6    2    1    2  501    0  0.48418343421E+01 -0.20507643163E+02 -0.26325413056E+03  0.31596011157E+03  0.17344753690E+03 0.  0.
         24    2    3    3    0    0  0.13185049299E+02 -0.34690171767E+02 -0.48703130448E+02  0.10072773714E+03  0.79980176113E+02 0.  0.
         -6    2    1    2    0  502 -0.48418343421E+01  0.20507643163E+02 -0.31584670245E+02  0.17675117320E+03  0.17262496646E+03 0.  0.
        -24    2    5    5    0    0 -0.14259985877E+02 -0.70908521630E+01  0.46338920567E+02  0.93417179369E+02  0.79535190075E+02 0.  0.
          5    1    3    3  501    0 -0.83432149572E+01  0.14182528605E+02 -0.21455100011E+03  0.21523237443E+03  0.47000000000E+01 0. -1.
        -13    1    4    4    0    0 -0.28569044749E+02 -0.36517160618E+02 -0.24786615701E+02  0.52574420162E+02  0.00000000000E+00 0.  1.
         14    1    4    4    0    0  0.41754094048E+02  0.18269888509E+01 -0.23916514747E+02  0.48153316975E+02  0.00000000000E+00 0. -1.
         -5    1    5    5    0  502  0.94181515349E+01  0.27598495326E+02 -0.77923590812E+02  0.83333993830E+02  0.47000000000E+01 0.  1.
         11    1    6    6    0    0  0.93207145540E+01 -0.14294549425E+02 -0.17826315357E+02  0.24677669709E+02  0.00000000000E+00 0. -1.
        -12    1    6    6    0    0 -0.23580700431E+02  0.72036972624E+01  0.64165235924E+02  0.68739509660E+02  0.00000000000E+00 0.  1.
<mgrwt>
<rscale>  2 0.17451830E+03</rscale>
<asrwt>0</asrwt>
<pdfrwt beam="1">  1       21 0.15220960E-01 0.17472279E+03</pdfrwt>
<pdfrwt beam="2">  1       21 0.60580777E-01 0.17472279E+03</pdfrwt>
<totfact> 0.97628947E+04</totfact>
</mgrwt>
</event>
<event>
12    1  0.1071811E-001  0.1821434E+03  0.7546771E-02  0.1166394E+00
         21   -1    0    0  503  502  0.00000000000E+00  0.00000000000E+00  0.16325366121E+04  0.16325366121E+04  0.00000000000E+00 0. -1.
         21   -1    0    0  501  503 -0.00000000000E+00 -0.00000000000E+00 -0.38245686086E+02  0.38245686086E+02  0.00000000000E+00 0. -1.
          6    2    1    2  501    0  0.38561474575E+01  0.46632250452E+02  0.22360742431E+03  0.28840336861E+03  0.17603063985E+03 0.  0.
         24    2    3    3    0    0 -0.81949017006E+01  0.15654680766E+02  0.30733930675E+02  0.92630254638E+02  0.85577825024E+02 0.  0.
         -6    2    1    2    0  502 -0.38561474575E+01 -0.46632250452E+02  0.13706835017E+04  0.13823789296E+04  0.17323050083E+03 0.  0.
        -24    2    5    5    0    0  0.58806574398E+02 -0.25073904176E+02  0.10490738900E+04  0.10539794605E+04  0.78928844023E+02 0.  0.
          5    1    3    3  501    0  0.12051049158E+02  0.30977569687E+02  0.19287349363E+03  0.19577311398E+03  0.47000000000E+01 0. -1.
        -11    1    4    4    0    0 -0.33666049867E+02 -0.76075249449E+01  0.43781281364E+02  0.55750138540E+02  0.00000000000E+00 0.  1.
         12    1    4    4    0    0  0.25471148166E+02  0.23262205711E+02 -0.13047350688E+02  0.36880116098E+02  0.00000000000E+00 0. -1.
         -5    1    5    5    0  502 -0.62662721856E+02 -0.21558346277E+02  0.32160961164E+03  0.32839946910E+03  0.47000000000E+01 0.  1.
         11    1    6    6    0    0 -0.18112419526E+02  0.10625933392E+01  0.29100611371E+03  0.29157116980E+03  0.00000000000E+00 0. -1.
        -12    1    6    6    0    0  0.76918993924E+02 -0.26136497515E+02  0.75806777634E+03  0.76240829065E+03  0.00000000000E+00 0.  1.
<mgrwt>
<rscale>  2 0.18146343E+03</rscale>
<asrwt>0</asrwt>
<pdfrwt beam="1">  1       21 0.25115942E+00 0.18214341E+03</pdfrwt>
<pdfrwt beam="2">  1       21 0.58839530E-02 0.18214341E+03</pdfrwt>
<totfact> 0.13478248E+04</totfact>
</mgrwt>
</event>
<event>
12    1  0.1071811E-001  0.1846278E+03  0.7546771E-02  0.1163585E+00
         21   -1    0    0  503  502  0.00000000000E+00  0.00000000000E+00  0.12470998707E+03  0.12470998707E+03  0.00000000000E+00 0. -1.
         21   -1    0    0  501  503 -0.00000000000E+00 -0.00000000000E+00 -0.43407764661E+03  0.43407764661E+03  0.00000000000E+00 0. -1.
          6    2    1    2  501    0 -0.22222290358E+02  0.60514388488E+02 -0.32553827319E+03  0.37424935181E+03  0.17300748139E+03 0.  0.
         24    2    3    3    0    0  0.39034412062E+02  0.58034681601E+02 -0.12554148184E+03  0.16501422309E+03  0.81100681677E+02 0.  0.
         -6    2    1    2    0  502  0.22222290358E+02 -0.60514388488E+02  0.16170613644E+02  0.18453828187E+03  0.17215419637E+03 0.  0.
        -24    2    5    5    0    0 -0.37214797647E+01 -0.10478004545E+03  0.16747934560E+02  0.13301206628E+03  0.80118718962E+02 0.  0.
          5    1    3    3  501    0 -0.61256702420E+02  0.24797068878E+01 -0.19999679135E+03  0.20923512871E+03  0.47000000000E+01 0. -1.
        -13    1    4    4    0    0  0.13027863883E+02 -0.17879489692E+02 -0.50565371635E+02  0.55192918002E+02  0.00000000000E+00 0.  1.
         14    1    4    4    0    0  0.26006548179E+02  0.75914171293E+02 -0.74976110201E+02  0.10982130509E+03  0.00000000000E+00 0. -1.
         -5    1    5    5    0  502  0.25943770123E+02  0.44265656959E+02 -0.57732091598E+00  0.51526215596E+02  0.47000000000E+01 0.  1.
         11    1    6    6    0    0  0.29886779407E+02 -0.26706667769E+02 -0.14246883587E+02  0.42537505552E+02  0.00000000000E+00 0. -1.
        -12    1    6    6    0    0 -0.33608259172E+02 -0.78073377678E+02  0.30994818146E+02  0.90474560726E+02  0.00000000000E+00 0.  1.
<mgrwt>
<rscale>  2 0.18442760E+03</rscale>
<asrwt>0</asrwt>
<pdfrwt beam="1">  1       21 0.19186152E-01 0.18462776E+03</pdfrwt>
<pdfrwt beam="2">  1       21 0.66781175E-01 0.18462776E+03</pdfrwt>
<totfact> 0.51441320E+04</totfact>
</mgrwt>
</event>
<event>
12    1  0.1071811E-001  0.1963790E+03  0.7546771E-02  0.1155735E+00
         21   -1    0    0  501  502  0.00000000000E+00  0.00000000000E+00  0.35073954066E+03  0.35073954066E+03  0.00000000000E+00 0. -1.
         21   -1    0    0  502  503 -0.00000000000E+00 -0.00000000000E+00 -0.12124668659E+03  0.12124668659E+03  0.00000000000E+00 0. -1.
         -6    2    1    2    0  503  0.78903215816E+01 -0.59944607785E+02  0.19450731592E+02  0.18444073280E+03  0.17316015644E+03 0.  0.
        -24    2    3    3    0    0  0.17658655898E+02 -0.39900389837E+02 -0.55218633580E+02  0.10637156395E+03  0.79761788386E+02 0.  0.
          6    2    1    2  501    0 -0.78903215816E+01  0.59944607785E+02  0.21004212247E+03  0.28754549445E+03  0.18683978428E+03 0.  0.
         24    2    5    5    0    0 -0.41656968127E+02  0.32512464507E+02  0.29689184763E+02  0.10195998574E+03  0.81987972639E+02 0.  0.
          5    1    5    5  501    0  0.33766646546E+02  0.27432143278E+02  0.18035293771E+03  0.18558550871E+03  0.47000000000E+01 0. -1.
        -11    1    6    6    0    0  0.14301230875E+02 -0.73227865936E+01  0.29131858637E+02  0.33268808149E+02  0.00000000000E+00 0.  1.
         12    1    6    6    0    0 -0.55958199002E+02  0.39835251101E+02  0.55732612642E+00  0.68691177587E+02  0.00000000000E+00 0. -1.
         -5    1    3    3    0  503 -0.97683343160E+01 -0.20044217948E+02  0.74669365172E+02  0.78069168842E+02  0.47000000000E+01 0.  1.
         13    1    4    4    0    0  0.36398091166E+02 -0.51860568567E+02 -0.23369814969E+02  0.67531384291E+02  0.00000000000E+00 0. -1.
        -14    1    4    4    0    0 -0.18739435268E+02  0.11960178729E+02 -0.31848818611E+02  0.38840179664E+02  0.00000000000E+00 0.  1.
<mgrwt>
<rscale>  2 0.19305382E+03</rscale>
<asrwt>0</asrwt>
<pdfrwt beam="1">  1       21 0.53959929E-01 0.19637902E+03</pdfrwt>
<pdfrwt beam="2">  1       21 0.18653336E-01 0.19637902E+03</pdfrwt>
<totfact> 0.85219109E+04</totfact>
</mgrwt>
</event>
<event>
12    1  0.1071811E-001  0.2327069E+03  0.7546771E-02  0.1124884E+00
         21   -1    0    0  501  502  0.00000000000E+00  0.00000000000E+00  0.22060654288E+03  0.22060654288E+03  0.00000000000E+00 0. -1.
         21   -1    0    0  502  503 -0.00000000000E+00 -0.00000000000E+00 -0.10736733401E+04  0.10736733401E+04  0.00000000000E+00 0. -1.
         -6    2    1    2    0  503 -0.28035430385E+02 -0.15454486250E+03 -0.99502079162E+03  0.10216932992E+04  0.17064794747E+03 0.  0.
        -24    2    3    3    0    0  0.15176229023E+02 -0.13020494448E+03 -0.91188290030E+03  0.92477231028E+03  0.80559025025E+02 0.  0.
          6    2    1    2  501    0  0.28035430385E+02  0.15454486250E+03  0.14195399440E+03  0.27258658379E+03  0.17170442410E+03 0.  0.
         24    2    5    5    0    0 -0.22038708573E+02  0.13529526658E+03  0.14990662127E+03  0.21815037700E+03  0.79542932128E+02 0.  0.
          5    1    5    5  501    0  0.50074138958E+02  0.19249595924E+02 -0.79526268673E+01  0.54436206791E+02  0.47000000000E+01 0. -1.
        -11    1    6    6    0    0 -0.22090324100E+02  0.33891490290E+02  0.42580286453E+01  0.40678573486E+02  0.00000000000E+00 0.  1.
         12    1    6    6    0    0  0.51615526544E-01  0.10140377629E+03  0.14564859262E+03  0.17747180351E+03  0.00000000000E+00 0. -1.
         -5    1    3    3    0  503 -0.43211659409E+02 -0.24339918022E+02 -0.83137891322E+02  0.96920988912E+02  0.47000000000E+01 0.  1.
         11    1    4    4    0    0  0.16798309086E+02 -0.37788200006E+01 -0.27040881547E+03  0.27095643589E+03  0.00000000000E+00 0. -1.
        -12    1    4    4    0    0 -0.16220800621E+01 -0.12642612448E+03 -0.64147408483E+03  0.65381587439E+03  0.00000000000E+00 0.  1.
<mgrwt>
<rscale>  2 0.23251206E+03</rscale>
<asrwt>0</asrwt>
<pdfrwt beam="1">  1       21 0.33939468E-01 0.23270692E+03</pdfrwt>
<pdfrwt beam="2">  1       21 0.16518051E+00 0.23270692E+03</pdfrwt>
<totfact> 0.18609551E+03</totfact>
</mgrwt>
</event>
<event>
12    1  0.1071811E-001  0.1994968E+03  0.7546771E-02  0.1150509E+00
         21   -1    0    0  503  502  0.00000000000E+00  0.00000000000E+00  0.13696980751E+03  0.13696980751E+03  0.00000000000E+00 0. -1.
         21   -1    0    0  501  503 -0.00000000000E+00 -0.00000000000E+00 -0.28822952265E+03  0.28822952265E+03  0.00000000000E+00 0.  1.
          6    2    1    2  501    0  0.15940662665E+02 -0.97876831019E+02 -0.73510705064E+02  0.21108744191E+03  0.17123114669E+03 0.  0.
         24    2    3    3    0    0  0.34049833616E+02 -0.63538752596E+02  0.19825337128E+02  0.10989083884E+03  0.80538116548E+02 0.  0.
         -6    2    1    2    0  502 -0.15940662665E+02  0.97876831019E+02 -0.77749010073E+02  0.21411188824E+03  0.17310405352E+03 0.  0.
        -24    2    5    5    0    0 -0.70882634826E+02  0.94208463555E+02 -0.43028194740E+02  0.14884549381E+03  0.80024827152E+02 0.  0.
          5    1    3    3  501    0 -0.18109170951E+02 -0.34338078423E+02 -0.93336042192E+02  0.10119660308E+03  0.47000000000E+01 0. -1.
        -13    1    4    4    0    0  0.10112186054E+02 -0.57415062419E+02 -0.21171341881E+02  0.62023958406E+02  0.00000000000E+00 0.  1.
         14    1    4    4    0    0  0.23937647563E+02 -0.61236901774E+01  0.40996679010E+02  0.47866880429E+02  0.00000000000E+00 0. -1.
         -5    1    5    5    0  502  0.54941972160E+02  0.36683674644E+01 -0.34720815333E+02  0.65266394432E+02  0.47000000000E+01 0.  1.
         13    1    6    6    0    0 -0.29975265940E+02  0.92901476205E+02 -0.13881705035E+02  0.98599708843E+02  0.00000000000E+00 0. -1.
        -14    1    6    6    0    0 -0.40907368885E+02  0.13069873494E+01 -0.29146489705E+02  0.50245784970E+02  0.00000000000E+00 0.  1.
<mgrwt>
<rscale>  2 0.19908987E+03</rscale>
<asrwt>0</asrwt>
<pdfrwt beam="1">  1       21 0.21072278E-01 0.19949685E+03</pdfrwt>
<pdfrwt beam="2">  1       21 0.44343003E-01 0.19949685E+03</pdfrwt>
<totfact> 0.10195061E+05</totfact>
</mgrwt>
</event>
<event>
12    1  0.1071811E-001  0.1754804E+03  0.7546771E-02  0.1174516E+00
         21   -1    0    0  503  502  0.00000000000E+00  0.00000000000E+00  0.96986877151E+03  0.96986877151E+03  0.00000000000E+00 0. -1.
         21   -1    0    0  501  503 -0.00000000000E+00 -0.00000000000E+00 -0.81060311036E+02  0.81060311036E+02  0.00000000000E+00 0. -1.
          6    2    1    2  501    0  0.23860064706E+02 -0.18206046412E+02  0.23869155658E+02  0.16836838988E+03  0.16394332955E+03 0.  0.
         24    2    3    3    0    0  0.84877398475E+01 -0.34068378355E+02 -0.43687784667E+02  0.97136710600E+02  0.79336132283E+02 0.  0.
         -6    2    1    2    0  502 -0.23860064706E+02  0.18206046412E+02  0.86493930481E+03  0.88256069267E+03  0.17289480160E+03 0.  0.
        -24    2    5    5    0    0  0.41441357598E+02  0.47062568685E+02  0.59026787561E+03  0.59872366434E+03  0.78240588997E+02 0.  0.
          5    1    3    3  501    0  0.15372324858E+02  0.15862331943E+02  0.67556940325E+02  0.71231679275E+02  0.47000000000E+01 0. -1.
        -13    1    4    4    0    0  0.84989970558E+01  0.25305805140E+02 -0.19339088675E+02  0.32963875311E+02  0.00000000000E+00 0.  1.
         14    1    4    4    0    0 -0.11257208320E-01 -0.59374183496E+02 -0.24348695992E+02  0.64172835289E+02  0.00000000000E+00 0. -1.
         -5    1    5    5    0  502 -0.65301422304E+02 -0.28856522273E+02  0.27467142920E+03  0.28383702833E+03  0.47000000000E+01 0.  1.
         13    1    6    6    0    0 -0.22374180407E+02  0.12356928801E+02  0.21279601060E+03  0.21432554623E+03  0.00000000000E+00 0. -1.
        -14    1    6    6    0    0  0.63815538005E+02  0.34705639884E+02  0.37747186501E+03  0.38439811811E+03  0.00000000000E+00 0.  1.
<mgrwt>
<rscale>  2 0.17323453E+03</rscale>
<asrwt>0</asrwt>
<pdfrwt beam="1">  1       21 0.14921057E+00 0.17548041E+03</pdfrwt>
<pdfrwt beam="2">  1       21 0.12470818E-01 0.17548041E+03</pdfrwt>
<totfact> 0.16802883E+04</totfact>
</mgrwt>
</event>
<event>
12    1  0.1071811E-001  0.1766895E+03  0.7546771E-02  0.1171125E+00
         21   -1    0    0  501  502  0.00000000000E+00  0.00000000000E+00  0.10349379114E+03  0.10349379114E+03  0.00000000000E+00 0.  1.
         21   -1    0    0  502  503 -0.00000000000E+00 -0.00000000000E+00 -0.31174264750E+03  0.31174264750E+03  0.00000000000E+00 0.  1.
         -6    2    1    2    0  503  0.44509562304E+01  0.30647210976E+02 -0.14256629650E+03  0.22703374504E+03  0.17395433290E+03 0.  0.
        -24    2    3    3    0    0 -0.21918315659E+02  0.43592362103E+02 -0.27550970771E+02  0.10823336376E+03  0.92599667636E+02 0.  0.
          6    2    1    2  501    0 -0.44509562304E+01 -0.30647210976E+02 -0.65682559860E+02  0.18820269361E+03  0.17362889350E+03 0.  0.
         24    2    5    5    0    0 -0.43759212588E+02 -0.54083242046E+02  0.17794835194E+01  0.10654729656E+03  0.80680196365E+02 0.  0.
          5    1    5    5  501    0  0.39308256358E+02  0.23436031070E+02 -0.67462043379E+02  0.81655397048E+02  0.47000000000E+01 0. -1.
        -11    1    6    6    0    0 -0.44399252283E+02 -0.41616522455E+02  0.35595947767E+02  0.70500354907E+02  0.00000000000E+00 0.  1.
         12    1    6    6    0    0  0.64003969527E+00 -0.12466719591E+02 -0.33816464247E+02  0.36046941650E+02  0.00000000000E+00 0. -1.
         -5    1    3    3    0  503  0.26369271890E+02 -0.12945151127E+02 -0.11501532573E+03  0.11880038127E+03  0.47000000000E+01 0.  1.
         13    1    4    4    0    0 -0.56497054427E+02  0.41278013168E+02 -0.16977654179E+02  0.72000224107E+02  0.00000000000E+00 0. -1.
        -14    1    4    4    0    0  0.34578738767E+02  0.23143489346E+01 -0.10573316592E+02  0.36233139658E+02  0.00000000000E+00 0.  1.
<mgrwt>
<rscale>  2 0.17660933E+03</rscale>
<asrwt>0</asrwt>
<pdfrwt beam="1">  1       21 0.15922122E-01 0.17668948E+03</pdfrwt>
<pdfrwt beam="2">  1       21 0.47960407E-01 0.17668948E+03</pdfrwt>
<totfact> 0.14694780E+05</totfact>
</mgrwt>
</event>
<event>
12    1  0.1071811E-001  0.2465865E+03  0.7546771E-02  0.1115692E+00
         21   -1    0    0  503  502  0.00000000000E+00  0.00000000000E+00  0.10418347696E+04  0.10418347696E+04  0.00000000000E+00 0.  1.
         21   -1    0    0  501  503 -0.00000000000E+00 -0.00000000000E+00 -0.58093393448E+02  0.58093393448E+02  0.00000000000E+00 0. -1.
          6    2    1    2  501    0 -0.64078882187E+02  0.16272361618E+03  0.47633569340E+03  0.53577799005E+03  0.17198047393E+03 0.  0.
         24    2    3    3    0    0 -0.68229042414E+02  0.16791397257E+03  0.48486943236E+03  0.52398484247E+03  0.81310788302E+02 0.  0.
         -6    2    1    2    0  502  0.64078882187E+02 -0.16272361618E+03  0.50740568272E+03  0.56415017297E+03  0.17383846639E+03 0.  0.
        -24    2    5    5    0    0  0.97227178126E+02 -0.12118044023E+03  0.27024221016E+03  0.32105914535E+03  0.76878471622E+02 0.  0.
          5    1    3    3  501    0  0.41501602272E+01 -0.51903563906E+01 -0.85337389531E+01  0.11793147582E+02  0.47000000000E+01 0. -1.
        -13    1    4    4    0    0 -0.63592313969E+02  0.12550054880E+03  0.26518646330E+03  0.30019698610E+03  0.00000000000E+00 0.  1.
         14    1    4    4    0    0 -0.46367284450E+01  0.42413423763E+02  0.21968296905E+03  0.22378785637E+03  0.00000000000E+00 0. -1.
         -5    1    5    5    0  502 -0.33148295939E+02 -0.41543175942E+02  0.23716347257E+03  0.24309102762E+03  0.47000000000E+01 0.  1.
         13    1    6    6    0    0  0.78678876252E+00 -0.18241561221E+02  0.24955335775E+01  0.18428273934E+02  0.00000000000E+00 0. -1.
        -14    1    6    6    0    0  0.96440389363E+02 -0.10293887901E+03  0.26774667658E+03  0.30263087141E+03  0.00000000000E+00 0.  1.
<mgrwt>
<rscale>  2 0.24625925E+03</rscale>
<asrwt>0</asrwt>
<pdfrwt beam="1">  1       21 0.16028226E+00 0.24658648E+03</pdfrwt>
<pdfrwt beam="2">  1       21 0.89374459E-02 0.24658648E+03</pdfrwt>
<totfact> 0.23968169E+04</totfact>
</mgrwt>
</event>
<event>
12    1  0.1071811E-001  0.2916812E+03  0.7546771E-02  0.1089556E+00
         21   -1    0    0  501  502  0.00000000000E+00  0.00000000000E+00  0.50915092718E+03  0.50915092718E+03  0.00000000000E+00 0.  1.
         21   -1    0    0  502  503 -0.00000000000E+00 -0.00000000000E+00 -0.44590222907E+03  0.44590222907E+03  0.00000000000E+00 0. -1.
         -6    2    1    2    0  503 -0.10486784883E+03  0.20973989423E+03 -0.34620258508E+03  0.45269653778E+03  0.17346422238E+03 0.  0.
        -24    2    3    3    0    0 -0.27438196296E+02  0.18843036652E+03 -0.22449008805E+03  0.30680113348E+03  0.86442340455E+02 0.  0.
          6    2    1    2  501    0  0.10486784883E+03 -0.20973989423E+03  0.40945128320E+03  0.50235661847E+03  0.17240571296E+03 0.  0.
         24    2    5    5    0    0  0.12704309451E+03 -0.10495730303E+03  0.25315933056E+03  0.31282984622E+03  0.81344223633E+02 0.  0.
          5    1    5    5  501    0 -0.22175245673E+02 -0.10478259120E+03  0.15629195264E+03  0.18952677225E+03  0.47000000000E+01 0. -1.
        -11    1    6    6    0    0  0.10548769448E+02 -0.52335830971E+02  0.99797683111E+02  0.11318079914E+03  0.00000000000E+00 0.  1.
         12    1    6    6    0    0  0.11649432506E+03 -0.52621472057E+02  0.15336164744E+03  0.19964904708E+03  0.00000000000E+00 0. -1.
         -5    1    3    3    0  503 -0.77429652537E+02  0.21309527703E+02 -0.12171249703E+03  0.14589540430E+03  0.47000000000E+01 0.  1.
         13    1    4    4    0    0 -0.23865238135E+02  0.96985986837E+02 -0.17811411081E+03  0.20420692374E+03  0.00000000000E+00 0. -1.
        -14    1    4    4    0    0 -0.35729581611E+01  0.91444379686E+02 -0.46375977249E+02  0.10259420974E+03  0.00000000000E+00 0.  1.
<mgrwt>
<rscale>  2 0.29152401E+03</rscale>
<asrwt>0</asrwt>
<pdfrwt beam="1">  1       21 0.78330912E-01 0.29168121E+03</pdfrwt>
<pdfrwt beam="2">  1       21 0.68600343E-01 0.29168121E+03</pdfrwt>
<totfact> 0.26034356E+03</totfact>
</mgrwt>
</event>
<event>
12    1  0.1071811E-001  0.2883244E+03  0.7546771E-02  0.1091335E+00
         21   -1    0    0  503  502  0.00000000000E+00  0.00000000000E+00  0.29806348652E+04  0.29806348652E+04  0.00000000000E+00 0. -1.
         21   -1    0    0  501  503 -0.00000000000E+00 -0.00000000000E+00 -0.31804912225E+02  0.31804912225E+02  0.00000000000E+00 0.  1.
          6    2    1    2  501    0  0.13094738237E+03 -0.18838199917E+03  0.94252175753E+03  0.98563594206E+03  0.17463090309E+03 0.  0.
         24    2    3    3    0    0  0.13995299695E+02 -0.15772272260E+02  0.22231884370E+03  0.23584514820E+03  0.75846111851E+02 0.  0.
         -6    2    1    2    0  502 -0.13094738237E+03  0.18838199917E+03  0.20063081954E+04  0.20268038354E+04  0.17328074723E+03 0.  0.
        -24    2    5    5    0    0 -0.36970642443E+02  0.22952970150E+02  0.86282291760E+03  0.86758898817E+03  0.79709460059E+02 0.  0.
          5    1    3    3  501    0  0.11695208267E+03 -0.17260972691E+03  0.72020291383E+03  0.74979079386E+03  0.47000000000E+01 0. -1.
        -13    1    4    4    0    0  0.13475542347E+02  0.27353711171E+02  0.53257424800E+02  0.61369121329E+02  0.00000000000E+00 0.  1.
         14    1    4    4    0    0  0.51975734774E+00 -0.43125983432E+02  0.16906141890E+03  0.17447602687E+03  0.00000000000E+00 0. -1.
         -5    1    5    5    0  502 -0.93976739926E+02  0.16542902902E+03  0.11434852778E+04  0.11592148472E+04  0.47000000000E+01 0.  1.
         13    1    6    6    0    0 -0.35455795567E+02 -0.23340812819E+02  0.50494415655E+03  0.50672527884E+03  0.00000000000E+00 0. -1.
        -14    1    6    6    0    0 -0.15148468757E+01  0.46293782969E+02  0.35787876105E+03  0.36086370933E+03  0.00000000000E+00 0.  1.
<mgrwt>
<rscale>  2 0.28812022E+03</rscale>
<asrwt>0</asrwt>
<pdfrwt beam="1">  1       21 0.45855899E+00 0.28832438E+03</pdfrwt>
<pdfrwt beam="2">  1       21 0.48930658E-02 0.28832438E+03</pdfrwt>
<totfact> 0.89982600E+02</totfact>
</mgrwt>
</event>
<event>
12    1  0.1071811E-001  0.2244975E+03  0.7546771E-02  0.1130821E+00
         21   -1    0    0  503  502  0.00000000000E+00  0.00000000000E+00  0.61749185444E+03  0.61749185444E+03  0.00000000000E+00 0. -1.
         21   -1    0    0  501  503 -0.00000000000E+00 -0.00000000000E+00 -0.95607964713E+02  0.95607964713E+02  0.00000000000E+00 0. -1.
          6    2    1    2  501    0 -0.13559901443E+03  0.41000757733E+02  0.12150043357E+03  0.25407255925E+03  0.17240172608E+03 0.  0.
         24    2    3    3    0    0 -0.33638099998E+02 -0.35671597161E+02  0.34363901054E+02  0.99510133751E+02  0.79482101180E+02 0.  0.
         -6    2    1    2    0  502  0.13559901443E+03 -0.41000757733E+02  0.40038345616E+03  0.45902725990E+03  0.17415785519E+03 0.  0.
        -24    2    5    5    0    0  0.89319650492E+01 -0.39753224413E+02  0.11304151278E+03  0.14496742459E+03  0.81099147520E+02 0.  0.
          5    1    3    3  501    0 -0.10196091443E+03  0.76672354895E+02  0.87136532518E+02  0.15456242550E+03  0.47000000000E+01 0. -1.
        -11    1    4    4    0    0 -0.50766104365E+01  0.14275164169E+02  0.38948266939E+02  0.41791384077E+02  0.00000000000E+00 0.  1.
         12    1    4    4    0    0 -0.28561489562E+02 -0.49946761330E+02 -0.45843658842E+01  0.57718749674E+02  0.00000000000E+00 0. -1.
         -5    1    5    5    0  502  0.12666704938E+03 -0.12475333203E+01  0.28734194337E+03  0.31405983532E+03  0.47000000000E+01 0.  1.
         13    1    6    6    0    0  0.44905304741E+02 -0.27961209622E+02  0.65305919103E+02  0.84042719538E+02  0.00000000000E+00 0. -1.
        -14    1    6    6    0    0 -0.35973339692E+02 -0.11792014791E+02  0.47735593678E+02  0.60924705048E+02  0.00000000000E+00 0.  1.
<mgrwt>
<rscale>  2 0.22415679E+03</rscale>
<asrwt>0</asrwt>
<pdfrwt beam="1">  1       21 0.94998744E-01 0.22449747E+03</pdfrwt>
<pdfrwt beam="2">  1       21 0.14708918E-01 0.22449747E+03</pdfrwt>
<totfact> 0.37036193E+04</totfact>
</mgrwt>
</event>
<event>
12    1  0.1071811E-001  0.3308438E+03  0.7546771E-02  0.1070841E+00
         21   -1    0    0  503  502  0.00000000000E+00  0.00000000000E+00  0.66867992907E+03  0.66867992907E+03  0.00000000000E+00 0. -1.
         21   -1    0    0  501  503 -0.00000000000E+00 -0.00000000000E+00 -0.58702190592E+03  0.58702190592E+03  0.00000000000E+00 0. -1.
          6    2    1    2  501    0 -0.25137916515E+03  0.12709470552E+03 -0.49257334741E+03  0.59298069055E+03  0.17220060379E+03 0.  0.
         24    2    3    3    0    0 -0.96706283638E+02  0.50727360167E+02 -0.32711096764E+03  0.35390839849E+03  0.79524832659E+02 0.  0.
         -6    2    1    2    0  502  0.25137916515E+03 -0.12709470552E+03  0.57423137056E+03  0.66272114443E+03  0.17353126375E+03 0.  0.
        -24    2    5    5    0    0  0.17689332962E+03 -0.33028527989E+02  0.26141231137E+03  0.32764736264E+03  0.81450991309E+02 0.  0.
          5    1    3    3  501    0 -0.15467288151E+03  0.76367345349E+02 -0.16546237977E+03  0.23907229206E+03  0.47000000000E+01 0. -1.
        -13    1    4    4    0    0 -0.69177328301E+02 -0.13739049034E+01 -0.11938574976E+03  0.13798676607E+03  0.00000000000E+00 0.  1.
         14    1    4    4    0    0 -0.27528955337E+02  0.52101265071E+02 -0.20772521788E+03  0.21592163242E+03  0.00000000000E+00 0. -1.
         -5    1    5    5    0  502  0.74485835525E+02 -0.94066177527E+02  0.31281905919E+03  0.33507378179E+03  0.47000000000E+01 0.  1.
         11    1    6    6    0    0  0.15362113838E+03 -0.36215851358E+02  0.25994862198E+03  0.30411236100E+03  0.00000000000E+00 0. -1.
        -12    1    6    6    0    0  0.23272191243E+02  0.31873233691E+01  0.14636893902E+01  0.23535001639E+02  0.00000000000E+00 0.  1.
<mgrwt>
<rscale>  2 0.33066970E+03</rscale>
<asrwt>0</asrwt>
<pdfrwt beam="1">  1       21 0.10287384E+00 0.33084384E+03</pdfrwt>
<pdfrwt beam="2">  1       21 0.90311062E-01 0.33084384E+03</pdfrwt>
<totfact> 0.71616219E+02</totfact>
</mgrwt>
</event>
<event>
12    1  0.1071811E-001  0.1924088E+03  0.7546771E-02  0.1157887E+00
         21   -1    0    0  501  502  0.00000000000E+00  0.00000000000E+00  0.32350793450E+03  0.32350793450E+03  0.00000000000E+00 0. -1.
         21   -1    0    0  502  503 -0.00000000000E+00 -0.00000000000E+00 -0.12375433304E+03  0.12375433304E+03  0.00000000000E+00 0. -1.
         -6    2    1    2    0  503 -0.69671761240E+02 -0.11740033681E+02  0.17190340197E+03  0.25284829271E+03  0.17143365135E+03 0.  0.
        -24    2    3    3    0    0 -0.59303610944E+02 -0.53215072965E+01  0.29291631807E+02  0.10963899480E+03  0.87278134575E+02 0.  0.
          6    2    1    2  501    0  0.69671761240E+02  0.11740033681E+02  0.27850199491E+02  0.19441397483E+03  0.17896697263E+03 0.  0.
         24    2    5    5    0    0 -0.19838668610E+02  0.44633782522E+02 -0.18996276817E+01  0.94407685122E+02  0.80767908914E+02 0.  0.
          5    1    5    5  501    0  0.89510429850E+02 -0.32893748841E+02  0.29749827173E+02  0.10000628971E+03  0.47000000000E+01 0. -1.
        -11    1    6    6    0    0 -0.32402488959E+02  0.80021153515E+01  0.29505279036E+02  0.44547913889E+02  0.00000000000E+00 0.  1.
         12    1    6    6    0    0  0.12563820349E+02  0.36631667170E+02 -0.31404906718E+02  0.49859771233E+02  0.00000000000E+00 0. -1.
         -5    1    3    3    0  503 -0.10368150297E+02 -0.64185263844E+01  0.14261177016E+03  0.14320929792E+03  0.47000000000E+01 0.  1.
         11    1    4    4    0    0 -0.21250633006E+02 -0.42181073067E+02  0.31234800966E+02  0.56625481187E+02  0.00000000000E+00 0. -1.
        -12    1    4    4    0    0 -0.38052977938E+02  0.36859565771E+02 -0.19431691591E+01  0.53013513609E+02  0.00000000000E+00 0.  1.
<mgrwt>
<rscale>  2 0.19063794E+03</rscale>
<asrwt>0</asrwt>
<pdfrwt beam="1">  1       21 0.49770451E-01 0.19240884E+03</pdfrwt>
<pdfrwt beam="2">  1       21 0.19039128E-01 0.19240884E+03</pdfrwt>
<totfact> 0.97352891E+04</totfact>
</mgrwt>
</event>
<event>
12    1  0.1071811E-001  0.3264172E+03  0.7546771E-02  0.1072795E+00
         21   -1    0    0  501  502  0.00000000000E+00  0.00000000000E+00  0.12721304093E+04  0.12721304093E+04  0.00000000000E+00 0.  1.
         21   -1    0    0  502  503 -0.00000000000E+00 -0.00000000000E+00 -0.84646131932E+02  0.84646131932E+02  0.00000000000E+00 0. -1.
         -6    2    1    2    0  503  0.12067103873E+03  0.24905116594E+03  0.66914667451E+03  0.74451692716E+03  0.17309014986E+03 0.  0.
        -24    2    3    3    0    0  0.29528345960E+02  0.38411670319E+02  0.14808763005E+03  0.17513076174E+03  0.79959101431E+02 0.  0.
          6    2    1    2  501    0 -0.12067103873E+03 -0.24905116594E+03  0.51833760282E+03  0.61225961404E+03  0.17204645196E+03 0.  0.
         24    2    5    5    0    0 -0.75082139166E+02 -0.21289973764E+03  0.28851468867E+03  0.37513952758E+03  0.80779413619E+02 0.  0.
          5    1    5    5  501    0 -0.45588899567E+02 -0.36151428301E+02  0.22982291415E+03  0.23712008646E+03  0.47000000000E+01 0. -1.
        -13    1    6    6    0    0  0.12281680073E+02 -0.21057138963E+02  0.11267571198E+02  0.26855184368E+02  0.00000000000E+00 0.  1.
         14    1    6    6    0    0 -0.87363819239E+02 -0.19184259868E+03  0.27724711748E+03  0.34828434321E+03  0.00000000000E+00 0. -1.
         -5    1    3    3    0  503  0.91142692774E+02  0.21063949562E+03  0.52105904446E+03  0.56938616542E+03  0.47000000000E+01 0.  1.
         13    1    4    4    0    0  0.47374796799E+02  0.44032613003E+02  0.14099295654E+03  0.15512013465E+03  0.00000000000E+00 0. -1.
        -14    1    4    4    0    0 -0.17846450839E+02 -0.56209426842E+01  0.70946735044E+01  0.20010627085E+02  0.00000000000E+00 0.  1.
<mgrwt>
<rscale>  2 0.32627904E+03</rscale>
<asrwt>0</asrwt>
<pdfrwt beam="1">  1       21 0.19571236E+00 0.32641719E+03</pdfrwt>
<pdfrwt beam="2">  1       21 0.13022483E-01 0.32641719E+03</pdfrwt>
<totfact> 0.66207850E+03</totfact>
</mgrwt>
</event>
<event>
12    1  0.1071811E-001  0.1872486E+03  0.7546771E-02  0.1161062E+00
         21   -1    0    0  503  502  0.00000000000E+00  0.00000000000E+00  0.29945045310E+03  0.29945045310E+03  0.00000000000E+00 0.  1.
         21   -1    0    0  501  503 -0.00000000000E+00 -0.00000000000E+00 -0.28513708927E+03  0.28513708927E+03  0.00000000000E+00 0.  1.
          6    2    1    2  501    0 -0.68302751096E+02 -0.18556409322E+02 -0.21740708256E+03  0.28692833033E+03  0.17335634128E+03 0.  0.
         24    2    3    3    0    0  0.18511363158E+02 -0.36390088809E+02 -0.71403132593E+02  0.11606588869E+03  0.81890011862E+02 0.  0.
         -6    2    1    2    0  502  0.68302751096E+02  0.18556409322E+02  0.23172044639E+03  0.29765921204E+03  0.17290759122E+03 0.  0.
        -24    2    5    5    0    0  0.10630800459E+03  0.33519609377E+02  0.13133797453E+03  0.18918328242E+03  0.78202907504E+02 0.  0.
          5    1    3    3  501    0 -0.86814114254E+02  0.17833679486E+02 -0.14600394997E+03  0.17086244164E+03  0.47000000000E+01 0. -1.
        -13    1    4    4    0    0 -0.17785921756E+02  0.35552023848E+01  0.81878046964E+01  0.19900216644E+02  0.00000000000E+00 0.  1.
         14    1    4    4    0    0  0.36297284914E+02 -0.39945291193E+02 -0.79590937289E+02  0.96165672042E+02  0.00000000000E+00 0. -1.
         -5    1    5    5    0  502 -0.38005253493E+02 -0.14963200055E+02  0.10038247186E+03  0.10847592961E+03  0.47000000000E+01 0.  1.
         13    1    6    6    0    0  0.75010756439E+02 -0.15782545129E+02  0.86366623623E+02  0.11547682013E+03  0.00000000000E+00 0. -1.
        -14    1    6    6    0    0  0.31297248150E+02  0.49302154506E+02  0.44971350910E+02  0.73706462290E+02  0.00000000000E+00 0.  1.
<mgrwt>
<rscale>  2 0.18714464E+03</rscale>
<asrwt>0</asrwt>
<pdfrwt beam="1">  1       21 0.46069300E-01 0.18724857E+03</pdfrwt>
<pdfrwt beam="2">  1       21 0.43867245E-01 0.18724857E+03</pdfrwt>
<totfact> 0.22613937E+04</totfact>
</mgrwt>
</event>
<event>
12    1  0.1071811E-001  0.1783905E+03  0.7546771E-02  0.1169751E+00
         21   -1    0    0  503  502  0.00000000000E+00  0.00000000000E+00  0.71956093569E+03  0.71956093569E+03  0.00000000000E+00 0.  1.
         21   -1    0    0  501  503 -0.00000000000E+00 -0.00000000000E+00 -0.55344548227E+02  0.55344548227E+02  0.00000000000E+00 0.  1.
          6    2    1    2  501    0 -0.12771929672E+01  0.41274894658E+02  0.50988143290E+03  0.54018724896E+03  0.17354521072E+03 0.  0.
         24    2    3    3    0    0  0.64937395122E+02  0.17051074626E+02  0.35131122120E+03  0.36658492416E+03  0.80357501545E+02 0.  0.
         -6    2    1    2    0  502  0.12771929672E+01 -0.41274894658E+02  0.15433495456E+03  0.23471823496E+03  0.17195384111E+03 0.  0.
        -24    2    5    5    0    0  0.41485275959E+02 -0.52817618772E+02  0.16092908401E+03  0.19210958607E+03  0.80605173556E+02 0.  0.
          5    1    3    3  501    0 -0.66214588090E+02  0.24223820032E+02  0.15857021171E+03  0.17360232479E+03  0.47000000000E+01 0. -1.
        -13    1    4    4    0    0 -0.17220571341E+02  0.14503938929E+02  0.74755991121E+02  0.78072853991E+02  0.00000000000E+00 0.  1.
         14    1    4    4    0    0  0.82157966463E+02  0.25471356966E+01  0.27655523007E+03  0.28851207017E+03  0.00000000000E+00 0. -1.
         -5    1    5    5    0  502 -0.40208082992E+02  0.11542724114E+02 -0.65941294452E+01  0.42608648899E+02  0.47000000000E+01 0.  1.
         13    1    6    6    0    0 -0.10122428303E+02 -0.37618094739E+02  0.11484034981E+03  0.12126784632E+03  0.00000000000E+00 0. -1.
        -14    1    6    6    0    0  0.51607704262E+02 -0.15199524033E+02  0.46088734197E+02  0.70841739743E+02  0.00000000000E+00 0.  1.
<mgrwt>
<rscale>  2 0.17800234E+03</rscale>
<asrwt>0</asrwt>
<pdfrwt beam="1">  1       21 0.11070168E+00 0.17839055E+03</pdfrwt>
<pdfrwt beam="2">  1       21 0.85145464E-02 0.17839055E+03</pdfrwt>
<totfact> 0.69690991E+04</totfact>
</mgrwt>
</event>
<event>
12    1  0.1071811E-001  0.4066692E+03  0.7546771E-02  0.1041520E+00
         21   -1    0    0  501  502  0.00000000000E+00  0.00000000000E+00  0.29530571189E+03  0.29530571189E+03  0.00000000000E+00 0.  1.
         21   -1    0    0  502  503 -0.00000000000E+00 -0.00000000000E+00 -0.63787104354E+03  0.63787104354E+03  0.00000000000E+00 0. -1.
         -6    2    1    2    0  503 -0.32777459575E+03 -0.16538381426E+03 -0.33464956454E+03  0.52643056119E+03  0.17421484744E+03 0.  0.
        -24    2    3    3    0    0 -0.23099035416E+03 -0.59939069682E+02 -0.26631145464E+03  0.36775488301E+03  0.85864004790E+02 0.  0.
          6    2    1    2  501    0  0.32777459575E+03  0.16538381426E+03 -0.79157671076E+01  0.40674619424E+03  0.17490516149E+03 0.  0.
         24    2    5    5    0    0  0.30953205379E+03  0.10910009804E+03  0.24857012257E+02  0.33894654737E+03  0.80956575978E+02 0.  0.
          5    1    5    5  501    0  0.18242541960E+02  0.56283716217E+02 -0.32772779365E+02  0.67799646870E+02  0.47000000000E+01 0. -1.
        -13    1    6    6    0    0  0.57062262344E+02 -0.65824006225E+01  0.21150062836E+02  0.61210742029E+02  0.00000000000E+00 0.  1.
         14    1    6    6    0    0  0.25246979145E+03  0.11568249866E+03  0.37069494209E+01  0.27773580534E+03  0.00000000000E+00 0. -1.
         -5    1    3    3    0  503 -0.96784241599E+02 -0.10544474458E+03 -0.68338109896E+02  0.15867567818E+03  0.47000000000E+01 0.  1.
         13    1    4    4    0    0 -0.25814792466E+02  0.25354027607E+01 -0.78485405156E+02  0.82660695616E+02  0.00000000000E+00 0. -1.
        -14    1    4    4    0    0 -0.20517556169E+03 -0.62474472443E+02 -0.18782604949E+03  0.28509418740E+03  0.00000000000E+00 0.  1.
<mgrwt>
<rscale>  2 0.40659504E+03</rscale>
<asrwt>0</asrwt>
<pdfrwt beam="1">  1       21 0.45431649E-01 0.40666916E+03</pdfrwt>
<pdfrwt beam="2">  1       21 0.98134005E-01 0.40666916E+03</pdfrwt>
<totfact> 0.35343527E+03</totfact>
</mgrwt>
</event>
<event>
12    1  0.1071811E-001  0.2654179E+03  0.7546771E-02  0.1104158E+00
         21   -1    0    0  503  502  0.00000000000E+00  0.00000000000E+00  0.14630522671E+03  0.14630522671E+03  0.00000000000E+00 0.  1.
         21   -1    0    0  501  503 -0.00000000000E+00 -0.00000000000E+00 -0.81740955063E+03  0.81740955063E+03  0.00000000000E+00 0.  1.
          6    2    1    2  501    0 -0.18548723953E+03 -0.79201976327E+02 -0.64515400766E+03  0.69703127771E+03  0.17014828658E+03 0.  0.
         24    2    3    3    0    0 -0.10786790581E+03 -0.71178529858E+02 -0.56636272222E+03  0.58603896572E+03  0.77285626133E+02 0.  0.
         -6    2    1    2    0  502  0.18548723953E+03  0.79201976327E+02 -0.25950316263E+02  0.26668349964E+03  0.17253463705E+03 0.  0.
        -24    2    5    5    0    0  0.61057462617E+02 -0.18579049723E+02 -0.34080101515E+02  0.10815248739E+03  0.80388508996E+02 0.  0.
          5    1    3    3  501    0 -0.77619333713E+02 -0.80234464685E+01 -0.78791285435E+02  0.11099231199E+03  0.47000000000E+01 0. -1.
        -13    1    4    4    0    0 -0.11313842990E+02 -0.48706433213E+02 -0.22994037987E+03  0.23531446614E+03  0.00000000000E+00 0.  1.
         14    1    4    4    0    0 -0.96554062824E+02 -0.22472096645E+02 -0.33642234235E+03  0.35072449958E+03  0.00000000000E+00 0. -1.
         -5    1    5    5    0  502  0.12442977691E+03  0.97781026050E+02  0.81297852521E+01  0.15853101225E+03  0.47000000000E+01 0.  1.
         13    1    6    6    0    0  0.66804134522E+02 -0.14242151963E+02  0.49304617368E+01  0.68483141975E+02  0.00000000000E+00 0. -1.
        -14    1    6    6    0    0 -0.57466719047E+01 -0.43368977600E+01 -0.39010563252E+02  0.39669345411E+02  0.00000000000E+00 0.  1.
<mgrwt>
<rscale>  2 0.26503082E+03</rscale>
<asrwt>0</asrwt>
<pdfrwt beam="1">  1       21 0.22508496E-01 0.26541792E+03</pdfrwt>
<pdfrwt beam="2">  1       21 0.12575532E+00 0.26541792E+03</pdfrwt>
<totfact> 0.82826281E+03</totfact>
</mgrwt>
</event>
<event>
12    1  0.1071811E-001  0.3311828E+03  0.7546771E-02  0.1070750E+00
         21   -1    0    0  501  502  0.00000000000E+00  0.00000000000E+00  0.23352853186E+03  0.23352853186E+03  0.00000000000E+00 0.  1.
         21   -1    0    0  502  503 -0.00000000000E+00 -0.00000000000E+00 -0.60255736399E+03  0.60255736399E+03  0.00000000000E+00 0. -1.
         -6    2    1    2    0  503 -0.19325043781E+03  0.20454533904E+03 -0.38184426740E+03  0.50465525916E+03  0.17230019912E+03 0.  0.
        -24    2    3    3    0    0 -0.88322496049E+02  0.45837266248E+02 -0.79116810347E+02  0.14707431925E+03  0.73955847768E+02 0.  0.
          6    2    1    2  501    0  0.19325043781E+03 -0.20454533904E+03  0.12815435264E+02  0.33143063669E+03  0.17463534613E+03 0.  0.
         24    2    5    5    0    0  0.15865276606E+03 -0.22088485315E+03  0.36921696738E+02  0.28596438048E+03  0.80321831910E+02 0.  0.
          5    1    5    5  501    0  0.34597671749E+02  0.16339514108E+02 -0.24106261474E+02  0.45466256212E+02  0.47000000000E+01 0. -1.
        -13    1    6    6    0    0  0.32083701595E+02 -0.10205613530E+03  0.34269845650E+02  0.11233539505E+03  0.00000000000E+00 0.  1.
         14    1    6    6    0    0  0.12656906447E+03 -0.11882871785E+03  0.26518510883E+01  0.17362898543E+03  0.00000000000E+00 0. -1.
         -5    1    3    3    0  503 -0.10492794176E+03  0.15870807279E+03 -0.30272745705E+03  0.35758093991E+03  0.47000000000E+01 0.  1.
         11    1    4    4    0    0 -0.91775527558E+02  0.57455056083E+02 -0.80433626881E+02  0.13488290945E+03  0.00000000000E+00 0. -1.
        -12    1    4    4    0    0  0.34530315091E+01 -0.11617789835E+02  0.13168165345E+01  0.12191409805E+02  0.00000000000E+00 0.  1.
<mgrwt>
<rscale>  2 0.33087601E+03</rscale>
<asrwt>0</asrwt>
<pdfrwt beam="1">  1       21 0.35927467E-01 0.33118278E+03</pdfrwt>
<pdfrwt beam="2">  1       21 0.92701132E-01 0.33118278E+03</pdfrwt>
<totfact> 0.67656075E+03</totfact>
</mgrwt>
</event>
<event>
12    1  0.1071811E-001  0.2140747E+03  0.7546771E-02  0.1138541E+00
         21   -1    0    0  503  502  0.00000000000E+00  0.00000000000E+00  0.12363319879E+03  0.12363319879E+03  0.00000000000E+00 0.  1.
         21   -1    0    0  501  503 -0.00000000000E+00 -0.00000000000E+00 -0.69889451241E+03  0.69889451241E+03  0.00000000000E+00 0. -1.
          6    2    1    2  501    0  0.12248414618E+03 -0.20486524779E+02 -0.57038374005E+03  0.60923361072E+03  0.17437292726E+03 0.  0.
         24    2    3    3    0    0  0.19468834139E+02  0.21941498961E+02 -0.37181105253E+03  0.38149364071E+03  0.80208941144E+02 0.  0.
         -6    2    1    2    0  502 -0.12248414618E+03  0.20486524779E+02 -0.48775735770E+01  0.21329410048E+03  0.17334508592E+03 0.  0.
        -24    2    5    5    0    0 -0.56306125042E+02 -0.48710383582E+02 -0.28972321626E+02  0.11444881990E+03  0.81951545262E+02 0.  0.
          5    1    3    3  501    0  0.10301531204E+03 -0.42428023740E+02 -0.19857268752E+03  0.22773997001E+03  0.47000000000E+01 0. -1.
        -13    1    4    4    0    0 -0.10262580716E+02 -0.25304784958E+02 -0.16671235145E+03  0.16893389486E+03  0.00000000000E+00 0.  1.
         14    1    4    4    0    0  0.29731414855E+02  0.47246283919E+02 -0.20509870108E+03  0.21255974585E+03  0.00000000000E+00 0. -1.
         -5    1    5    5    0  502 -0.66178021139E+02  0.69196908361E+02  0.24094748049E+02  0.98845280576E+02  0.47000000000E+01 0.  1.
         11    1    6    6    0    0 -0.59607858571E+02 -0.34740641865E+02 -0.52631129669E+02  0.86775830799E+02  0.00000000000E+00 0. -1.
        -12    1    6    6    0    0  0.33017335293E+01 -0.13969741717E+02  0.23658808043E+02  0.27672989104E+02  0.00000000000E+00 0.  1.
<mgrwt>
<rscale>  2 0.21386531E+03</rscale>
<asrwt>0</asrwt>
<pdfrwt beam="1">  1       21 0.19020492E-01 0.21407471E+03</pdfrwt>
<pdfrwt beam="2">  1       21 0.10752223E+00 0.21407471E+03</pdfrwt>
<totfact> 0.17255714E+04</totfact>
</mgrwt>
</event>
<event>
12    1  0.1071811E-001  0.1879978E+03  0.7546771E-02  0.1160587E+00
         21   -1    0    0  501  502  0.00000000000E+00  0.00000000000E+00  0.24937423873E+04  0.24937423873E+04  0.00000000000E+00 0.  1.
         21   -1    0    0  502  503 -0.00000000000E+00 -0.00000000000E+00 -0.28673241682E+03  0.28673241682E+03  0.00000000000E+00 0.  1.
         -6    2    1    2    0  503  0.70416635576E+02 -0.13635274687E+02 -0.25199490519E+03  0.31439564492E+03  0.17377792155E+03 0.  0.
        -24    2    3    3    0    0  0.60547149718E+02 -0.67279671319E+02 -0.16849993341E+03  0.21455262636E+03  0.97201288101E+02 0.  0.
          6    2    1    2  501    0 -0.70416635576E+02  0.13635274687E+02  0.24590048757E+04  0.24660791592E+04  0.17232822639E+03 0.  0.
         24    2    5    5    0    0 -0.54417261738E+02  0.69813489566E+02  0.19431158409E+04  0.19468724971E+04  0.82329745903E+02 0.  0.
          5    1    5    5  501    0 -0.15999373837E+02 -0.56178214879E+02  0.51588903477E+03  0.51920666211E+03  0.47000000000E+01 0. -1.
        -13    1    6    6    0    0 -0.57318502968E+02  0.14952189277E+02  0.13238158054E+04  0.13251404701E+04  0.00000000000E+00 0.  1.
         14    1    6    6    0    0  0.29012412296E+01  0.54861300289E+02  0.61930003551E+03  0.62173202704E+03  0.00000000000E+00 0. -1.
         -5    1    3    3    0  503  0.98694858575E+01  0.53644396632E+02 -0.83494971783E+02  0.99843018555E+02  0.47000000000E+01 0.  1.
         11    1    4    4    0    0 -0.50562084882E+01  0.21408081624E+02 -0.35430077985E+02  0.41703256817E+02  0.00000000000E+00 0. -1.
        -12    1    4    4    0    0  0.65603358207E+02 -0.88687752943E+02 -0.13306985543E+03  0.17284936955E+03  0.00000000000E+00 0.  1.
<mgrwt>
<rscale>  2 0.18766214E+03</rscale>
<asrwt>0</asrwt>
<pdfrwt beam="1">  1       21 0.38365266E+00 0.18799784E+03</pdfrwt>
<pdfrwt beam="2">  1       21 0.44112681E-01 0.18799784E+03</pdfrwt>
<totfact> 0.54721913E+01</totfact>
</mgrwt>
</event>
<event>
12    1  0.1071811E-001  0.1891971E+03  0.7546771E-02  0.1159299E+00
         21   -1    0    0  503  502  0.00000000000E+00  0.00000000000E+00  0.15543850388E+02  0.15543850388E+02  0.00000000000E+00 0. -1.
         21   -1    0    0  501  503 -0.00000000000E+00 -0.00000000000E+00 -0.23191489270E+04  0.23191489270E+04  0.00000000000E+00 0. -1.
          6    2    1    2  501    0 -0.39710576587E+02 -0.62203269328E+02 -0.10389287451E+04  0.10560153763E+04  0.17421067987E+03 0.  0.
         24    2    3    3    0    0 -0.68307576146E+02 -0.96067507766E+02 -0.72694424133E+03  0.74086303913E+03  0.80840718360E+02 0.  0.
         -6    2    1    2    0  502  0.39710576587E+02  0.62203269328E+02 -0.12646763315E+04  0.12786774011E+04  0.17367641163E+03 0.  0.
        -24    2    5    5    0    0  0.28169452501E+02 -0.17492996744E+02 -0.37305387339E+03  0.38341353485E+03  0.82080590040E+02 0.  0.
          5    1    3    3  501    0  0.28596999559E+02  0.33864238438E+02 -0.31198450372E+03  0.31515233712E+03  0.47000000000E+01 0. -1.
        -13    1    4    4    0    0 -0.26588358936E+02 -0.23026564510E+02 -0.67870454492E+02  0.76443195230E+02  0.00000000000E+00 0.  1.
         14    1    4    4    0    0 -0.41719217210E+02 -0.73040943256E+02 -0.65907378684E+03  0.66441984390E+03  0.00000000000E+00 0. -1.
         -5    1    5    5    0  502  0.11541124085E+02  0.79696266072E+02 -0.89162245815E+03  0.89526386627E+03  0.47000000000E+01 0.  1.
         13    1    6    6    0    0 -0.25791526739E+02  0.80137165353E+01 -0.83040018052E+02  0.87321630209E+02  0.00000000000E+00 0. -1.
        -14    1    6    6    0    0  0.53960979240E+02 -0.25506713279E+02 -0.29001385534E+03  0.29609190464E+03  0.00000000000E+00 0.  1.
<mgrwt>
<rscale>  2 0.18907401E+03</rscale>
<asrwt>0</asrwt>
<pdfrwt beam="1">  1       21 0.23913617E-02 0.18919709E+03</pdfrwt>
<pdfrwt beam="2">  1       21 0.35679213E+00 0.18919709E+03</pdfrwt>
<totfact> 0.14712610E+04</totfact>
</mgrwt>
</event>
<event>
12    1  0.1071811E-001  0.2094772E+03  0.7546771E-02  0.1142308E+00
         21   -1    0    0  503  502  0.00000000000E+00  0.00000000000E+00  0.13053614503E+04  0.13053614503E+04  0.00000000000E+00 0. -1.
         21   -1    0    0  501  503 -0.00000000000E+00 -0.00000000000E+00 -0.43764362242E+02  0.43764362242E+02  0.00000000000E+00 0.  1.
          6    2    1    2  501    0  0.27161343074E+02 -0.11494698021E+03  0.95792090070E+03  0.98020858551E+03  0.17101424590E+03 0.  0.
         24    2    3    3    0    0 -0.24391978060E+02 -0.44637745007E+02  0.22797033518E+03  0.24505482501E+03  0.74120824788E+02 0.  0.
         -6    2    1    2    0  502 -0.27161343074E+02  0.11494698021E+03  0.30367618733E+03  0.36891722700E+03  0.17300331445E+03 0.  0.
        -24    2    5    5    0    0  0.43414449630E+02  0.10110733414E+03  0.20704698140E+03  0.24836942836E+03  0.81923213938E+02 0.  0.
          5    1    3    3  501    0  0.51553321134E+02 -0.70309235199E+02  0.72995056552E+03  0.73515376050E+03  0.47000000000E+01 0. -1.
        -13    1    4    4    0    0 -0.37897791985E+02  0.19638357698E+00  0.62552653814E+02  0.73137649012E+02  0.00000000000E+00 0.  1.
         14    1    4    4    0    0  0.13505813925E+02 -0.44834128584E+02  0.16541768137E+03  0.17191717600E+03  0.00000000000E+00 0. -1.
         -5    1    5    5    0  502 -0.70575792704E+02  0.13839646066E+02  0.96629205925E+02  0.12054779864E+03  0.47000000000E+01 0.  1.
         13    1    6    6    0    0  0.25926350796E+02  0.38349324848E+01  0.96903770678E+02  0.10038537316E+03  0.00000000000E+00 0. -1.
        -14    1    6    6    0    0  0.17488098834E+02  0.97272401655E+02  0.11014321072E+03  0.14798405520E+03  0.00000000000E+00 0.  1.
<mgrwt>
<rscale>  2 0.20906606E+03</rscale>
<asrwt>0</asrwt>
<pdfrwt beam="1">  1       21 0.20082481E+00 0.20947719E+03</pdfrwt>
<pdfrwt beam="2">  1       21 0.67329798E-02 0.20947719E+03</pdfrwt>
<totfact> 0.21190422E+04</totfact>
</mgrwt>
</event>
<event>
12    1  0.1071811E-001  0.1821482E+03  0.7546771E-02  0.1166386E+00
         21   -1    0    0  501  502  0.00000000000E+00  0.00000000000E+00  0.13258938797E+03  0.13258938797E+03  0.00000000000E+00 0. -1.
         21   -1    0    0  502  503 -0.00000000000E+00 -0.00000000000E+00 -0.24664191041E+03  0.24664191041E+03  0.00000000000E+00 0. -1.
         -6    2    1    2    0  503 -0.42111442555E+02  0.43389971759E+02 -0.60301693879E+02  0.18931786169E+03  0.16896418327E+03 0.  0.
        -24    2    3    3    0    0 -0.51095391299E+02  0.52694002761E+02  0.16041641134E+02  0.11174421199E+03  0.82716610928E+02 0.  0.
          6    2    1    2  501    0  0.42111442555E+02 -0.43389971759E+02 -0.53750828563E+02  0.18991343669E+03  0.17181937789E+03 0.  0.
         24    2    5    5    0    0  0.13808091697E+02  0.24242326945E+02  0.16431761868E+02  0.88311795474E+02  0.82162136107E+02 0.  0.
          5    1    5    5  501    0  0.28303350858E+02 -0.67632298704E+02 -0.70182590431E+02  0.10160164121E+03  0.47000000000E+01 0. -1.
        -11    1    6    6    0    0 -0.27860161655E+02 -0.15576449700E+01  0.26271229562E+02  0.38324827045E+02  0.00000000000E+00 0.  1.
         12    1    6    6    0    0  0.41668253352E+02  0.25799971916E+02 -0.98394676942E+01  0.49986968429E+02  0.00000000000E+00 0. -1.
         -5    1    3    3    0  503  0.89839487444E+01 -0.93040310016E+01 -0.76343335013E+02  0.77573649707E+02  0.47000000000E+01 0.  1.
         13    1    4    4    0    0 -0.10432232674E+02  0.65002098958E+02 -0.13236178837E+01  0.65847219469E+02  0.00000000000E+00 0. -1.
        -14    1    4    4    0    0 -0.40663158626E+02 -0.12308096198E+02  0.17365259017E+02  0.45896992518E+02  0.00000000000E+00 0.  1.
<mgrwt>
<rscale>  2 0.18147173E+03</rscale>
<asrwt>0</asrwt>
<pdfrwt beam="1">  1       21 0.20398367E-01 0.18214819E+03</pdfrwt>
<pdfrwt beam="2">  1       21 0.37944909E-01 0.18214819E+03</pdfrwt>
<totfact> 0.14951822E+05</totfact>
</mgrwt>
</event>
<event>
12    1  0.1071811E-001  0.1953519E+03  0.7546771E-02  0.1153754E+00
         21   -1    0    0  503  502  0.00000000000E+00  0.00000000000E+00  0.62402445079E+03  0.62402445079E+03  0.00000000000E+00 0. -1.
         21   -1    0    0  501  503 -0.00000000000E+00 -0.00000000000E+00 -0.61282946402E+02  0.61282946402E+02  0.00000000000E+00 0.  1.
          6    2    1    2  501    0  0.91858917946E+02 -0.11926341564E+01  0.26293232830E+03  0.32746959876E+03  0.17223079185E+03 0.  0.
         24    2    3    3    0    0  0.55901104446E+02 -0.68352570324E+02  0.16244234072E+03  0.20128026093E+03  0.79556407858E+02 0.  0.
         -6    2    1    2    0  502 -0.91858917946E+02  0.11926341564E+01  0.29980917608E+03  0.35783779843E+03  0.17240320398E+03 0.  0.
        -24    2    5    5    0    0 -0.40992858969E+02  0.52239336879E+02  0.24792136356E+03  0.26891335352E+03  0.80249775002E+02 0.  0.
          5    1    3    3  501    0  0.35957813499E+02  0.67159936168E+02  0.10048998758E+03  0.12618933783E+03  0.47000000000E+01 0. -1.
        -11    1    4    4    0    0  0.49700046923E+02 -0.30403027990E+02  0.34557980380E+02  0.67739890633E+02  0.00000000000E+00 0.  1.
         12    1    4    4    0    0  0.62010575232E+01 -0.37949542334E+02  0.12788436034E+03  0.13354037029E+03  0.00000000000E+00 0. -1.
         -5    1    5    5    0  502 -0.50866058977E+02 -0.51046702723E+02  0.51887812520E+02  0.88924444912E+02  0.47000000000E+01 0.  1.
         13    1    6    6    0    0  0.21984668741E+02  0.16047125652E+02  0.10657353067E+03  0.10999433323E+03  0.00000000000E+00 0. -1.
        -14    1    6    6    0    0 -0.62977527710E+02  0.36192211227E+02  0.14134783289E+03  0.15891902030E+03  0.00000000000E+00 0.  1.
<mgrwt>
<rscale>  2 0.19531381E+03</rscale>
<asrwt>0</asrwt>
<pdfrwt beam="1">  1       21 0.96003757E-01 0.19535186E+03</pdfrwt>
<pdfrwt beam="2">  1       21 0.94281460E-02 0.19535186E+03</pdfrwt>
<totfact> 0.81266464E+04</totfact>
</mgrwt>
</event>
<event>
12    1  0.1071811E-001  0.1896128E+03  0.7546771E-02  0.1159616E+00
         21   -1    0    0  503  502  0.00000000000E+00  0.00000000000E+00  0.91630151084E+03  0.91630151084E+03  0.00000000000E+00 0.  1.
         21   -1    0    0  501  503 -0.00000000000E+00 -0.00000000000E+00 -0.42597037064E+02  0.42597037064E+02  0.00000000000E+00 0.  1.
          6    2    1    2  501    0 -0.53404578332E+02  0.53011384808E+02  0.28465552790E+03  0.34008381223E+03  0.17019393018E+03 0.  0.
         24    2    3    3    0    0 -0.42432727283E+02 -0.34322239197E+02  0.16998969537E+03  0.19545364059E+03  0.79542923260E+02 0.  0.
         -6    2    1    2    0  502  0.53404578332E+02 -0.53011384808E+02  0.58904894588E+03  0.61881473568E+03  0.17404241019E+03 0.  0.
        -24    2    5    5    0    0  0.18029879327E+02  0.24678825397E+01  0.11812708376E+03  0.14329522119E+03  0.79046476874E+02 0.  0.
          5    1    3    3  501    0 -0.10971851049E+02  0.87333624005E+02  0.11466583253E+03  0.14463017163E+03  0.47000000000E+01 0. -1.
        -11    1    4    4    0    0 -0.63271256278E+02 -0.14686954821E+02  0.94083924287E+02  0.11432735159E+03  0.00000000000E+00 0.  1.
         12    1    4    4    0    0  0.20838528995E+02 -0.19635284376E+02  0.75905771084E+02  0.81126289001E+02  0.00000000000E+00 0. -1.
         -5    1    5    5    0  502  0.35374699005E+02 -0.55479267347E+02  0.47092186212E+03  0.47551951449E+03  0.47000000000E+01 0.  1.
         13    1    6    6    0    0  0.14217702162E+02 -0.35960787349E+02  0.80848821286E+02  0.89620606921E+02  0.00000000000E+00 0. -1.
        -14    1    6    6    0    0  0.38121771644E+01  0.38428669889E+02  0.37278262474E+02  0.53674614272E+02  0.00000000000E+00 0.  1.
<mgrwt>
<rscale>  2 0.18872504E+03</rscale>
<asrwt>0</asrwt>
<pdfrwt beam="1">  1       21 0.14096945E+00 0.18961281E+03</pdfrwt>
<pdfrwt beam="2">  1       21 0.65533910E-02 0.18961281E+03</pdfrwt>
<totfact> 0.59664840E+04</totfact>
</mgrwt>
</event>
<event>
12    1  0.1071811E-001  0.1875986E+03  0.7546771E-02  0.1161747E+00
         21   -1    0    0  501  502  0.00000000000E+00  0.00000000000E+00  0.89629962496E+03  0.89629962496E+03  0.00000000000E+00 0. -1.
         21   -1    0    0  502  503 -0.00000000000E+00 -0.00000000000E+00 -0.59680122907E+02  0.59680122907E+02  0.00000000000E+00 0. -1.
         -6    2    1    2    0  503  0.47961598904E+02 -0.33352216583E+02  0.13552500502E+03  0.23143092674E+03  0.17827103395E+03 0.  0.
        -24    2    3    3    0    0 -0.16228604652E+02  0.28065097014E+02  0.24878751028E+02  0.89455040886E+02  0.79575340451E+02 0.  0.
          6    2    1    2  501    0 -0.47961598904E+02  0.33352216583E+02  0.70109449703E+03  0.72454882113E+03  0.17327670098E+03 0.  0.
         24    2    5    5    0    0  0.12850341458E+02  0.83270705812E+01  0.15947128894E+03  0.17892794583E+03  0.79684668661E+02 0.  0.
          5    1    5    5  501    0 -0.60811940362E+02  0.25025146002E+02  0.54162320809E+03  0.54562087530E+03  0.47000000000E+01 0. -1.
        -11    1    6    6    0    0 -0.84242207524E+01  0.18839914030E+02  0.32228000906E+01  0.20887706824E+02  0.00000000000E+00 0.  1.
         12    1    6    6    0    0  0.21274562211E+02 -0.10512843448E+02  0.15624848885E+03  0.15804023900E+03  0.00000000000E+00 0. -1.
         -5    1    3    3    0  503  0.64190203556E+02 -0.61417313597E+02  0.11064625399E+03  0.14197588586E+03  0.47000000000E+01 0.  1.
         13    1    4    4    0    0 -0.16954540438E+02 -0.26369765548E+02  0.66774727499E+01  0.32053231020E+02  0.00000000000E+00 0. -1.
        -14    1    4    4    0    0  0.72593578632E+00  0.54434862562E+02  0.18201278278E+02  0.57401809865E+02  0.00000000000E+00 0.  1.
<mgrwt>
<rscale>  2 0.18640239E+03</rscale>
<asrwt>0</asrwt>
<pdfrwt beam="1">  1       21 0.13789224E+00 0.18759863E+03</pdfrwt>
<pdfrwt beam="2">  1       21 0.91815580E-02 0.18759863E+03</pdfrwt>
<totfact> 0.35199604E+04</totfact>
</mgrwt>
</event>
<event>
12    1  0.1071811E-001  0.2210565E+03  0.7546771E-02  0.1133485E+00
         21   -1    0    0  501  502  0.00000000000E+00  0.00000000000E+00  0.75826379149E+02  0.75826379149E+02  0.00000000000E+00 0.  1.
         21   -1    0    0  502  503 -0.00000000000E+00 -0.00000000000E+00 -0.82438682851E+03  0.82438682851E+03  0.00000000000E+00 0.  1.
         -6    2    1    2    0  503  0.34307977796E+02  0.13365870318E+03 -0.58670083557E+03  0.62623420027E+03  0.17002857658E+03 0.  0.
        -24    2    3    3    0    0  0.11513740839E+02  0.34810687076E+01 -0.10039051139E+03  0.12226434486E+03  0.68743226432E+02 0.  0.
          6    2    1    2  501    0 -0.34307977796E+02 -0.13365870318E+03 -0.16185961378E+03  0.27397900738E+03  0.17269706319E+03 0.  0.
         24    2    5    5    0    0 -0.13033257725E+02 -0.86904096241E+02 -0.16112099194E+02  0.11937294348E+03  0.79171409896E+02 0.  0.
          5    1    5    5  501    0 -0.21274720071E+02 -0.46754606943E+02 -0.14574751459E+03  0.15460606390E+03  0.47000000000E+01 0. -1.
        -11    1    6    6    0    0 -0.44160535347E+02 -0.41486681727E+02  0.40760081719E+01  0.60728177031E+02  0.00000000000E+00 0.  1.
         12    1    6    6    0    0  0.31127277621E+02 -0.45417414514E+02 -0.20188107366E+02  0.58644766452E+02  0.00000000000E+00 0. -1.
         -5    1    3    3    0  503  0.22794236957E+02  0.13017763448E+03 -0.48631032419E+03  0.50396985541E+03  0.47000000000E+01 0.  1.
         11    1    4    4    0    0 -0.17341427969E+02 -0.74116578042E+01 -0.86333580534E+02  0.88369366430E+02  0.00000000000E+00 0. -1.
        -12    1    4    4    0    0  0.28855168808E+02  0.10892726512E+02 -0.14056930852E+02  0.33894978430E+02  0.00000000000E+00 0.  1.
<mgrwt>
<rscale>  2 0.22053503E+03</rscale>
<asrwt>0</asrwt>
<pdfrwt beam="1">  1       21 0.11665597E-01 0.22105647E+03</pdfrwt>
<pdfrwt beam="2">  1       21 0.12682874E+00 0.22105647E+03</pdfrwt>
<totfact> 0.27921234E+04</totfact>
</mgrwt>
</event>
<event>
12    1  0.1071811E-001  0.1873569E+03  0.7546771E-02  0.1161550E+00
         21   -1    0    0  503  502  0.00000000000E+00  0.00000000000E+00  0.10556449021E+03  0.10556449021E+03  0.00000000000E+00 0. -1.
         21   -1    0    0  501  503 -0.00000000000E+00 -0.00000000000E+00 -0.40146933559E+03  0.40146933559E+03  0.00000000000E+00 0. -1.
          6    2    1    2  501    0 -0.61701744255E+02 -0.18989833387E+02 -0.25786299647E+03  0.31874114306E+03  0.17588312117E+03 0.  0.
         24    2    3    3    0    0 -0.36129438522E+02 -0.52752727054E+02 -0.64604069794E+02  0.12083970661E+03  0.79626392100E+02 0.  0.
         -6    2    1    2    0  502  0.61701744255E+02  0.18989833387E+02 -0.38041848913E+02  0.18829268274E+03  0.17274036323E+03 0.  0.
        -24    2    5    5    0    0 -0.31616480007E+01  0.20728519842E+02  0.35097515700E+02  0.90406323416E+02  0.80633740781E+02 0.  0.
          5    1    3    3  501    0 -0.25572305733E+02  0.33762893667E+02 -0.19325892668E+03  0.19790143645E+03  0.47000000000E+01 0. -1.
        -13    1    4    4    0    0 -0.52493938251E+02 -0.21250791710E+02 -0.63831145255E+02  0.85332437009E+02  0.00000000000E+00 0.  1.
         14    1    4    4    0    0  0.16364499728E+02 -0.31501935345E+02 -0.77292453933E+00  0.35507269596E+02  0.00000000000E+00 0. -1.
         -5    1    5    5    0  502  0.64863392256E+02 -0.17386864551E+01 -0.73139364613E+02  0.97886359323E+02  0.47000000000E+01 0.  1.
         13    1    6    6    0    0  0.35546046627E+02  0.25969896930E+02  0.15223693184E+02  0.46580229835E+02  0.00000000000E+00 0. -1.
        -14    1    6    6    0    0 -0.38707694628E+02 -0.52413770875E+01  0.19873822516E+02  0.43826093581E+02  0.00000000000E+00 0.  1.
<mgrwt>
<rscale>  2 0.18661569E+03</rscale>
<asrwt>0</asrwt>
<pdfrwt beam="1">  1       21 0.16240691E-01 0.18735686E+03</pdfrwt>
<pdfrwt beam="2">  1       21 0.61764511E-01 0.18735686E+03</pdfrwt>
<totfact> 0.82774358E+04</totfact>
</mgrwt>
</event>
<event>
12    1  0.1071811E-001  0.2001652E+03  0.7546771E-02  0.1149893E+00
         21   -1    0    0  501  502  0.00000000000E+00  0.00000000000E+00  0.12851806081E+04  0.12851806081E+04  0.00000000000E+00 0. -1.
         21   -1    0    0  502  503 -0.00000000000E+00 -0.00000000000E+00 -0.42524512166E+02  0.42524512166E+02  0.00000000000E+00 0. -1.
         -6    2    1    2    0  503  0.98392181117E+02 -0.27628251886E+02  0.27355678337E+03  0.33814987195E+03  0.17049246483E+03 0.  0.
        -24    2    3    3    0    0  0.42612041630E+02  0.48246832821E+02  0.16306664779E+03  0.19289625753E+03  0.80465468245E+02 0.  0.
          6    2    1    2  501    0 -0.98392181117E+02  0.27628251886E+02  0.96909931259E+03  0.98955524834E+03  0.17210976221E+03 0.  0.
         24    2    5    5    0    0 -0.15687679016E+02  0.58307965313E+02  0.66659149252E+03  0.67441345376E+03  0.82724643429E+02 0.  0.
          5    1    5    5  501    0 -0.82704502100E+02 -0.30679713426E+02  0.30250782007E+03  0.31514179457E+03  0.47000000000E+01 0. -1.
        -13    1    6    6    0    0 -0.47369146393E+02  0.50961111821E+02  0.42872548402E+03  0.43433444671E+03  0.00000000000E+00 0.  1.
         14    1    6    6    0    0  0.31681467377E+02  0.73468534916E+01  0.23786600849E+03  0.24007900705E+03  0.00000000000E+00 0. -1.
         -5    1    3    3    0  503  0.55780139487E+02 -0.75875084707E+02  0.11049013558E+03  0.14525361442E+03  0.47000000000E+01 0.  1.
         13    1    4    4    0    0  0.19448469140E+02 -0.20647735860E+02  0.30092439470E+02  0.41353680142E+02  0.00000000000E+00 0. -1.
        -14    1    4    4    0    0  0.23163572490E+02  0.68894568681E+02  0.13297420832E+03  0.15154257739E+03  0.00000000000E+00 0.  1.
<mgrwt>
<rscale>  2 0.19981708E+03</rscale>
<asrwt>0</asrwt>
<pdfrwt beam="1">  1       21 0.19772006E+00 0.20016521E+03</pdfrwt>
<pdfrwt beam="2">  1       21 0.65422336E-02 0.20016521E+03</pdfrwt>
<totfact> 0.23476097E+04</totfact>
</mgrwt>
</event>
<event>
12    1  0.1071811E-001  0.2555177E+03  0.7546771E-02  0.1110734E+00
         21   -1    0    0  503  502  0.00000000000E+00  0.00000000000E+00  0.56401152302E+02  0.56401152302E+02  0.00000000000E+00 0. -1.
         21   -1    0    0  501  503 -0.00000000000E+00 -0.00000000000E+00 -0.11947704167E+04  0.11947704167E+04  0.00000000000E+00 0. -1.
          6    2    1    2  501    0 -0.17183329061E+03 -0.72876618829E+02 -0.71801715421E+03  0.76212723376E+03  0.17450388350E+03 0.  0.
         24    2    3    3    0    0 -0.20672183265E+02  0.16847965025E+01 -0.22669993804E+03  0.24268158508E+03  0.84091094213E+02 0.  0.
         -6    2    1    2    0  502  0.17183329061E+03  0.72876618829E+02 -0.42035211022E+03  0.48904433528E+03  0.16622510030E+03 0.  0.
        -24    2    5    5    0    0  0.15983999531E+03  0.50330117253E+02 -0.21955185250E+03  0.28657207208E+03  0.76410678280E+02 0.  0.
          5    1    3    3  501    0 -0.15116110734E+03 -0.74561415331E+02 -0.49131721617E+03  0.51944564868E+03  0.47000000000E+01 0. -1.
        -11    1    4    4    0    0  0.26752774673E+01 -0.20132253704E+02 -0.82729081044E+01  0.21929563544E+02  0.00000000000E+00 0.  1.
         12    1    4    4    0    0 -0.23347460732E+02  0.21817050207E+02 -0.21842702994E+03  0.22075202153E+03  0.00000000000E+00 0. -1.
         -5    1    5    5    0  502  0.11993295297E+02  0.22546501576E+02 -0.20080025771E+03  0.20247226320E+03  0.47000000000E+01 0.  1.
         11    1    6    6    0    0  0.13476026891E+03  0.18867345577E+02 -0.12908541558E+03  0.18756159341E+03  0.00000000000E+00 0. -1.
        -12    1    6    6    0    0  0.25079726402E+02  0.31462771676E+02 -0.90466436919E+02  0.99010478671E+02  0.00000000000E+00 0.  1.
<mgrwt>
<rscale>  2 0.25411092E+03</rscale>
<asrwt>0</asrwt>
<pdfrwt beam="1">  1       21 0.86771005E-02 0.25551768E+03</pdfrwt>
<pdfrwt beam="2">  1       21 0.18381083E+00 0.25551768E+03</pdfrwt>
<totfact> 0.17124409E+04</totfact>
</mgrwt>
</event>
<event>
12    1  0.1071811E-001  0.2005536E+03  0.7546771E-02  0.1149819E+00
         21   -1    0    0  503  502  0.00000000000E+00  0.00000000000E+00  0.52483263037E+03  0.52483263037E+03  0.00000000000E+00 0.  1.
         21   -1    0    0  501  503 -0.00000000000E+00 -0.00000000000E+00 -0.76216579748E+02  0.76216579748E+02  0.00000000000E+00 0.  1.
          6    2    1    2  501    0  0.10664404515E+02  0.96010134908E+02  0.19993290615E+03  0.28318704345E+03  0.17575568010E+03 0.  0.
         24    2    3    3    0    0  0.32912462456E+02  0.10252029564E+03  0.21615618834E+03  0.25450528688E+03  0.80348006145E+02 0.  0.
         -6    2    1    2    0  502 -0.10664404515E+02 -0.96010134908E+02  0.24868314447E+03  0.31786216667E+03  0.17280444186E+03 0.  0.
        -24    2    5    5    0    0 -0.28303753506E+02 -0.13198124628E+03  0.19140334073E+03  0.24780409502E+03  0.80941206021E+02 0.  0.
          5    1    3    3  501    0 -0.22248057941E+02 -0.65101607327E+01 -0.16223282187E+02  0.28681756568E+02  0.47000000000E+01 0. -1.
        -11    1    4    4    0    0 -0.16413962120E+02  0.77049903710E+02  0.12319743114E+03  0.14623170947E+03  0.00000000000E+00 0.  1.
         12    1    4    4    0    0  0.49326424577E+02  0.25470391931E+02  0.92958757195E+02  0.10827357741E+03  0.00000000000E+00 0. -1.
         -5    1    5    5    0  502  0.17639348991E+02  0.35971111377E+02  0.57279803735E+02  0.70058071643E+02  0.47000000000E+01 0.  1.
         11    1    6    6    0    0 -0.29519005147E+02 -0.35077168940E+02  0.18187899131E+02  0.49321183283E+02  0.00000000000E+00 0. -1.
        -12    1    6    6    0    0  0.12152516401E+01 -0.96904077345E+02  0.17321544160E+03  0.19848291174E+03  0.00000000000E+00 0.  1.
<mgrwt>
<rscale>  2 0.19990513E+03</rscale>
<asrwt>0</asrwt>
<pdfrwt beam="1">  1       21 0.80743479E-01 0.20055357E+03</pdfrwt>
<pdfrwt beam="2">  1       21 0.11725628E-01 0.20055357E+03</pdfrwt>
<totfact> 0.82086236E+04</totfact>
</mgrwt>
</event>
<event>
12    1  0.1071811E-001  0.2019029E+03  0.7546771E-02  0.1149656E+00
         21   -1    0    0  501  502  0.00000000000E+00  0.00000000000E+00  0.17891044457E+03  0.17891044457E+03  0.00000000000E+00 0. -1.
         21   -1    0    0  502  503 -0.00000000000E+00 -0.00000000000E+00 -0.22274204319E+03  0.22274204319E+03  0.00000000000E+00 0. -1.
         -6    2    1    2    0  503 -0.85970304616E+02 -0.56831654017E+02 -0.45039371026E+02  0.20686544355E+03  0.17362038077E+03 0.  0.
        -24    2    3    3    0    0 -0.53996885886E+02 -0.10536181641E+03 -0.23049278067E+02  0.14455067519E+03  0.79667135231E+02 0.  0.
          6    2    1    2  501    0  0.85970304616E+02  0.56831654017E+02  0.12077724045E+01  0.19478704422E+03  0.16528703430E+03 0.  0.
         24    2    5    5    0    0  0.47973767047E+02  0.92888975244E+02 -0.25922629823E+02  0.13560921048E+03  0.82389508939E+02 0.  0.
          5    1    5    5  501    0  0.37996537568E+02 -0.36057321227E+02  0.27130402228E+02  0.59177833741E+02  0.47000000000E+01 0. -1.
        -11    1    6    6    0    0 -0.53231025288E+01  0.12624985025E+02  0.23592765132E+02  0.27282672779E+02  0.00000000000E+00 0.  1.
         12    1    6    6    0    0  0.53296869576E+02  0.80263990219E+02 -0.49515394955E+02  0.10832653770E+03  0.00000000000E+00 0. -1.
         -5    1    3    3    0  503 -0.31973418730E+02  0.48530162392E+02 -0.21990092959E+02  0.62314768357E+02  0.47000000000E+01 0.  1.
         11    1    4    4    0    0 -0.12609266001E+02 -0.56708057200E+02 -0.48612593041E+02  0.75749465626E+02  0.00000000000E+00 0. -1.
        -12    1    4    4    0    0 -0.41387619885E+02 -0.48653759209E+02  0.25563314974E+02  0.68801209563E+02  0.00000000000E+00 0.  1.
<mgrwt>
<rscale>  2 0.20009894E+03</rscale>
<asrwt>0</asrwt>
<pdfrwt beam="1">  1       21 0.27524684E-01 0.20190286E+03</pdfrwt>
<pdfrwt beam="2">  1       21 0.34268006E-01 0.20190286E+03</pdfrwt>
<totfact> 0.10296096E+05</totfact>
</mgrwt>
</event>
<event>
12    1  0.1071811E-001  0.2063942E+03  0.7546771E-02  0.1144491E+00
         21   -1    0    0  503  502  0.00000000000E+00  0.00000000000E+00  0.16221528585E+03  0.16221528585E+03  0.00000000000E+00 0. -1.
         21   -1    0    0  501  503 -0.00000000000E+00 -0.00000000000E+00 -0.45868791191E+03  0.45868791191E+03  0.00000000000E+00 0.  1.
          6    2    1    2  501    0  0.76523510296E+02  0.82676968468E+02 -0.35137800719E+03  0.40751082731E+03  0.17293710328E+03 0.  0.
         24    2    3    3    0    0  0.11523628428E+03  0.47069164541E+02 -0.29683856536E+03  0.33159485215E+03  0.79668717934E+02 0.  0.
         -6    2    1    2    0  502 -0.76523510296E+02 -0.82676968468E+02  0.54905381123E+02  0.21339237045E+03  0.17271471897E+03 0.  0.
        -24    2    5    5    0    0 -0.56063579968E+02 -0.99307088693E+02 -0.13624531096E+02  0.13981514221E+03  0.79734705611E+02 0.  0.
          5    1    3    3  501    0 -0.38712773980E+02  0.35607803927E+02 -0.54539441827E+02  0.75915975161E+02  0.47000000000E+01 0. -1.
        -11    1    4    4    0    0  0.53130449366E+02 -0.45744593305E+01 -0.54929855570E+02  0.76557555871E+02  0.00000000000E+00 0.  1.
         12    1    4    4    0    0  0.62105834910E+02  0.51643623872E+02 -0.24190870979E+03  0.25503729627E+03  0.00000000000E+00 0. -1.
         -5    1    5    5    0  502 -0.20459930328E+02  0.16630120225E+02  0.68529912219E+02  0.73577228247E+02  0.47000000000E+01 0.  1.
         11    1    6    6    0    0 -0.73158705757E+02 -0.64824004503E+02  0.32271495768E+01  0.97799602669E+02  0.00000000000E+00 0. -1.
        -12    1    6    6    0    0  0.17095125789E+02 -0.34483084190E+02 -0.16851680673E+02  0.42015539536E+02  0.00000000000E+00 0.  1.
<mgrwt>
<rscale>  2 0.20634762E+03</rscale>
<asrwt>0</asrwt>
<pdfrwt beam="1">  1       21 0.24956198E-01 0.20639421E+03</pdfrwt>
<pdfrwt beam="2">  1       21 0.70567371E-01 0.20639421E+03</pdfrwt>
<totfact> 0.27448760E+04</totfact>
</mgrwt>
</event>
<event>
12    1  0.1071811E-001  0.2107776E+03  0.7546771E-02  0.1141108E+00
         21   -1    0    0  503  502  0.00000000000E+00  0.00000000000E+00  0.27321561127E+03  0.27321561127E+03  0.00000000000E+00 0. -1.
         21   -1    0    0  501  503 -0.00000000000E+00 -0.00000000000E+00 -0.35315351918E+03  0.35315351918E+03  0.00000000000E+00 0. -1.
          6    2    1    2  501    0  0.32571621685E+02 -0.11542776924E+03 -0.27035023785E+03  0.34231971086E+03  0.17236314248E+03 0.  0.
         24    2    3    3    0    0 -0.13643391005E+02 -0.11815034787E+02 -0.56918631808E+02  0.10056246361E+03  0.80915642957E+02 0.  0.
         -6    2    1    2    0  502 -0.32571621685E+02  0.11542776924E+03  0.19041232995E+03  0.28404941959E+03  0.17332840772E+03 0.  0.
        -24    2    5    5    0    0  0.25835428426E+02  0.83412161498E+02  0.52304892917E+02  0.13064753954E+03  0.81901890798E+02 0.  0.
          5    1    3    3  501    0  0.46215012690E+02 -0.10361273446E+03 -0.21343160605E+03  0.24175724725E+03  0.47000000000E+01 0. -1.
        -11    1    4    4    0    0 -0.30734343429E+02 -0.17914213121E+02  0.51051242452E+01  0.35938575254E+02  0.00000000000E+00 0.  1.
         12    1    4    4    0    0  0.17090952424E+02  0.60991783344E+01 -0.62023756053E+02  0.64623888354E+02  0.00000000000E+00 0. -1.
         -5    1    5    5    0  502 -0.58407050111E+02  0.32015607745E+02  0.13810743703E+03  0.15340188006E+03  0.47000000000E+01 0.  1.
         11    1    6    6    0    0  0.22061485878E+02  0.15659004340E+02  0.56517287589E+02  0.62658737399E+02  0.00000000000E+00 0. -1.
        -12    1    6    6    0    0  0.37739425477E+01  0.67753157159E+02 -0.42123946714E+01  0.67988802138E+02  0.00000000000E+00 0.  1.
<mgrwt>
<rscale>  2 0.21057911E+03</rscale>
<asrwt>0</asrwt>
<pdfrwt beam="1">  1       21 0.42033171E-01 0.21077765E+03</pdfrwt>
<pdfrwt beam="2">  1       21 0.54331311E-01 0.21077765E+03</pdfrwt>
<totfact> 0.17244396E+04</totfact>
</mgrwt>
</event>
<event>
12    1  0.1071811E-001  0.1881836E+03  0.7546771E-02  0.1160816E+00
         21   -1    0    0  503  502  0.00000000000E+00  0.00000000000E+00  0.16403192033E+03  0.16403192033E+03  0.00000000000E+00 0.  1.
         21   -1    0    0  501  503 -0.00000000000E+00 -0.00000000000E+00 -0.46354156199E+03  0.46354156199E+03  0.00000000000E+00 0.  1.
          6    2    1    2  501    0 -0.68109000576E+02  0.25162417444E+02 -0.38128738995E+03  0.42519776611E+03  0.17361187564E+03 0.  0.
         24    2    3    3    0    0  0.10975048315E+02  0.36643795967E+02 -0.28759923564E+03  0.30196761923E+03  0.83713220327E+02 0.  0.
         -6    2    1    2    0  502  0.68109000576E+02 -0.25162417444E+02  0.81777748284E+02  0.20237571622E+03  0.17028313830E+03 0.  0.
        -24    2    5    5    0    0  0.55522773520E+02  0.10532743191E+02 -0.12749188064E+02  0.10044441926E+03  0.82053778128E+02 0.  0.
          5    1    3    3  501    0 -0.79084048891E+02 -0.11481378523E+02 -0.93688154308E+02  0.12323014688E+03  0.47000000000E+01 0. -1.
        -13    1    4    4    0    0 -0.11969861525E+02  0.52406658672E+02 -0.24673110472E+03  0.25251925371E+03  0.00000000000E+00 0.  1.
         14    1    4    4    0    0  0.22944909840E+02 -0.15762862705E+02 -0.40868130922E+02  0.49448365527E+02  0.00000000000E+00 0. -1.
         -5    1    5    5    0  502  0.12586227056E+02 -0.35695160635E+02  0.94526936348E+02  0.10193129696E+03  0.47000000000E+01 0.  1.
         13    1    6    6    0    0 -0.11332276240E+02  0.17363628818E+02  0.17132996298E+02  0.26897130938E+02  0.00000000000E+00 0. -1.
        -14    1    6    6    0    0  0.66855049760E+02 -0.68308856279E+01 -0.29882184362E+02  0.73547288319E+02  0.00000000000E+00 0.  1.
<mgrwt>
<rscale>  2 0.18741224E+03</rscale>
<asrwt>0</asrwt>
<pdfrwt beam="1">  1       21 0.25235680E-01 0.18818360E+03</pdfrwt>
<pdfrwt beam="2">  1       21 0.71314086E-01 0.18818360E+03</pdfrwt>
<totfact> 0.26524064E+04</totfact>
</mgrwt>
</event>
<event>
12    1  0.1071811E-001  0.1869037E+03  0.7546771E-02  0.1161343E+00
         21   -1    0    0  501  502  0.00000000000E+00  0.00000000000E+00  0.33618670456E+03  0.33618670456E+03  0.00000000000E+00 0.  1.
         21   -1    0    0  502  503 -0.00000000000E+00 -0.00000000000E+00 -0.14004533902E+03  0.14004533902E+03  0.00000000000E+00 0.  1.
         -6    2    1    2    0  503  0.67933876450E+02  0.18725470233E+02 -0.23071235117E+02  0.18832230643E+03  0.17311081539E+03 0.  0.
        -24    2    3    3    0    0  0.44354942219E+02  0.64371238727E+02  0.27813090790E+02  0.11585985447E+03  0.80863592457E+02 0.  0.
          6    2    1    2  501    0 -0.67933876450E+02 -0.18725470233E+02  0.21921260065E+03  0.28790973714E+03  0.17283575339E+03 0.  0.
         24    2    5    5    0    0 -0.67355611503E+02 -0.24606390533E+02  0.50220982543E+02  0.11874952726E+03  0.80231230087E+02 0.  0.
          5    1    5    5  501    0 -0.57826494686E+00  0.58809202998E+01  0.16899161811E+03  0.16916020988E+03  0.47000000000E+01 0. -1.
        -11    1    6    6    0    0  0.14203373857E+02 -0.21011049314E+02  0.66819249821E+01  0.26226859203E+02  0.00000000000E+00 0.  1.
         12    1    6    6    0    0 -0.81558985360E+02 -0.35953412190E+01  0.43539057561E+02  0.92522668059E+02  0.00000000000E+00 0. -1.
         -5    1    3    3    0  503  0.23578934232E+02 -0.45645768493E+02 -0.50884325907E+02  0.72462451959E+02  0.47000000000E+01 0.  1.
         11    1    4    4    0    0  0.15329117496E+02 -0.17711224223E+02  0.15110641352E+02  0.27874733878E+02  0.00000000000E+00 0. -1.
        -12    1    4    4    0    0  0.29025824723E+02  0.82082462949E+02  0.12702449438E+02  0.87985120597E+02  0.00000000000E+00 0.  1.
<mgrwt>
<rscale>  2 0.18684003E+03</rscale>
<asrwt>0</asrwt>
<pdfrwt beam="1">  1       21 0.51721031E-01 0.18690374E+03</pdfrwt>
<pdfrwt beam="2">  1       21 0.21545437E-01 0.18690374E+03</pdfrwt>
<totfact> 0.71450652E+04</totfact>
</mgrwt>
</event>
<event>
12    1  0.1071811E-001  0.2160301E+03  0.7546771E-02  0.1136934E+00
         21   -1    0    0  503  502  0.00000000000E+00  0.00000000000E+00  0.20353133482E+04  0.20353133482E+04  0.00000000000E+00 0.  1.
         21   -1    0    0  501  503 -0.00000000000E+00 -0.00000000000E+00 -0.70534935893E+02  0.70534935893E+02  0.00000000000E+00 0.  1.
          6    2    1    2  501    0  0.12930879667E+03 -0.19031622538E+01  0.11731020024E+03  0.24582655995E+03  0.17304516050E+03 0.  0.
         24    2    3    3    0    0  0.38383814191E+02 -0.13658499143E+02 -0.81610491084E+01  0.90357383591E+02  0.80237037933E+02 0.  0.
         -6    2    1    2    0  502 -0.12930879667E+03  0.19031622538E+01  0.18474682121E+04  0.18600217241E+04  0.17267782942E+03 0.  0.
        -24    2    5    5    0    0 -0.44529117377E+01  0.29886503329E+02  0.69674482280E+03  0.70219683757E+03  0.81939118154E+02 0.  0.
          5    1    3    3  501    0  0.90924982477E+02  0.11755336889E+02  0.12547124935E+03  0.15546917636E+03  0.47000000000E+01 0. -1.
        -13    1    4    4    0    0  0.57177800838E+02  0.52890482336E+01  0.97124789542E+01  0.58237506706E+02  0.00000000000E+00 0.  1.
         14    1    4    4    0    0 -0.18793986648E+02 -0.18947547377E+02 -0.17873528063E+02  0.32119876885E+02  0.00000000000E+00 0. -1.
         -5    1    5    5    0  502 -0.12485588493E+03 -0.27983341076E+02  0.11507233893E+04  0.11578248866E+04  0.47000000000E+01 0.  1.
         13    1    6    6    0    0 -0.94117326530E+01 -0.22104212275E+02  0.88149763767E+02  0.91364970114E+02  0.00000000000E+00 0. -1.
        -14    1    6    6    0    0  0.49588209153E+01  0.51990715605E+02  0.60859505903E+03  0.61083186745E+03  0.00000000000E+00 0.  1.
<mgrwt>
<rscale>  2 0.21595655E+03</rscale>
<asrwt>0</asrwt>
<pdfrwt beam="1">  1       21 0.31312509E+00 0.21603012E+03</pdfrwt>
<pdfrwt beam="2">  1       21 0.10851530E-01 0.21603012E+03</pdfrwt>
<totfact> 0.19561899E+03</totfact>
</mgrwt>
</event>
<event>
12    1  0.1071811E-001  0.1780408E+03  0.7546771E-02  0.1172419E+00
         21   -1    0    0  501  502  0.00000000000E+00  0.00000000000E+00  0.17186119436E+03  0.17186119436E+03  0.00000000000E+00 0. -1.
         21   -1    0    0  502  503 -0.00000000000E+00 -0.00000000000E+00 -0.17806345509E+03  0.17806345509E+03  0.00000000000E+00 0. -1.
         -6    2    1    2    0  503 -0.24260016096E+02  0.33029310396E+02  0.24816351653E+02  0.16920201785E+03  0.16227750248E+03 0.  0.
        -24    2    3    3    0    0  0.37638824943E+02  0.31234192258E+02  0.47479298395E+02  0.10309310676E+03  0.77341120859E+02 0.  0.
          6    2    1    2  501    0  0.24260016096E+02 -0.33029310396E+02 -0.31018612384E+02  0.18072263160E+03  0.17326001134E+03 0.  0.
         24    2    5    5    0    0  0.54987803098E+02 -0.89622317322E+01  0.34913162709E+02  0.10395994446E+03  0.80528013975E+02 0.  0.
          5    1    5    5  501    0 -0.30727787002E+02 -0.24067078664E+02 -0.65931775093E+02  0.76762687136E+02  0.47000000000E+01 0. -1.
        -13    1    6    6    0    0  0.76516696820E+01 -0.40340658513E+02  0.12709766705E+02  0.42982030524E+02  0.00000000000E+00 0.  1.
         14    1    6    6    0    0  0.47336133416E+02  0.31378426781E+02  0.22203396003E+02  0.60977913937E+02  0.00000000000E+00 0. -1.
         -5    1    3    3    0  503 -0.61898841039E+02  0.17951181381E+01 -0.22662946742E+02  0.66108911095E+02  0.47000000000E+01 0.  1.
         11    1    4    4    0    0 -0.12513033080E+02 -0.33077111109E+01  0.39633774696E+02  0.41693561209E+02  0.00000000000E+00 0. -1.
        -12    1    4    4    0    0  0.50151858023E+02  0.34541903369E+02  0.78455236994E+01  0.61399545549E+02  0.00000000000E+00 0.  1.
<mgrwt>
<rscale>  2 0.17531152E+03</rscale>
<asrwt>0</asrwt>
<pdfrwt beam="1">  1       21 0.26440184E-01 0.17804077E+03</pdfrwt>
<pdfrwt beam="2">  1       21 0.27394378E-01 0.17804077E+03</pdfrwt>
<totfact> 0.17368996E+05</totfact>
</mgrwt>
</event>
<event>
12    1  0.1071811E-001  0.2529817E+03  0.7546771E-02  0.1111492E+00
         21   -1    0    0  503  502  0.00000000000E+00  0.00000000000E+00  0.42484322806E+03  0.42484322806E+03  0.00000000000E+00 0. -1.
         21   -1    0    0  501  503 -0.00000000000E+00 -0.00000000000E+00 -0.16110486546E+03  0.16110486546E+03  0.00000000000E+00 0. -1.
          6    2    1    2  501    0  0.13582808781E+03 -0.12359973820E+03  0.20721470302E+03  0.32672872142E+03  0.17345765920E+03 0.  0.
         24    2    3    3    0    0  0.98337818715E+02 -0.12724409212E+02  0.14632636936E+03  0.19471229051E+03  0.81665369196E+02 0.  0.
         -6    2    1    2    0  502 -0.13582808781E+03  0.12359973820E+03  0.56523659581E+02  0.25921937209E+03  0.17399308622E+03 0.  0.
        -24    2    5    5    0    0 -0.64255725704E+01  0.39404835334E+02  0.54376716682E+02  0.10475095466E+03  0.80136796507E+02 0.  0.
          5    1    3    3  501    0  0.37490269098E+02 -0.11087532899E+03  0.60888333658E+02  0.13201643092E+03  0.47000000000E+01 0. -1.
        -11    1    4    4    0    0  0.55212419666E+02  0.29452754120E+02  0.46065613665E+02  0.77704033183E+02  0.00000000000E+00 0.  1.
         12    1    4    4    0    0  0.43125399050E+02 -0.42177163333E+02  0.10026075570E+03  0.11700825733E+03  0.00000000000E+00 0. -1.
         -5    1    5    5    0  502 -0.12940251524E+03  0.84194902869E+02  0.21469428990E+01  0.15446841743E+03  0.47000000000E+01 0.  1.
         11    1    6    6    0    0 -0.20396808826E+02  0.53085526811E+02  0.61663159561E+02  0.83883539590E+02  0.00000000000E+00 0. -1.
        -12    1    6    6    0    0  0.13971236256E+02 -0.13680691478E+02 -0.72864428795E+01  0.20867415069E+02  0.00000000000E+00 0.  1.
<mgrwt>
<rscale>  2 0.25288970E+03</rscale>
<asrwt>0</asrwt>
<pdfrwt beam="1">  1       21 0.65360496E-01 0.25298174E+03</pdfrwt>
<pdfrwt beam="2">  1       21 0.24785364E-01 0.25298174E+03</pdfrwt>
<totfact> 0.32186473E+04</totfact>
</mgrwt>
</event>
<event>
12    1  0.1071811E-001  0.2262194E+03  0.7546771E-02  0.1129419E+00
         21   -1    0    0  501  502  0.00000000000E+00  0.00000000000E+00  0.12900705852E+04  0.12900705852E+04  0.00000000000E+00 0.  1.
         21   -1    0    0  502  503 -0.00000000000E+00 -0.00000000000E+00 -0.79152667659E+02  0.79152667659E+02  0.00000000000E+00 0. -1.
         -6    2    1    2    0  503 -0.14178795758E+03 -0.34385152944E+02  0.12105882071E+03  0.25613382859E+03  0.17222989409E+03 0.  0.
        -24    2    3    3    0    0 -0.13296717721E+03 -0.77012696255E+02  0.12307835278E+03  0.21230367772E+03  0.79456560798E+02 0.  0.
          6    2    1    2  501    0  0.14178795758E+03  0.34385152944E+02  0.10898590969E+04  0.11130894243E+04  0.17288450427E+03 0.  0.
         24    2    5    5    0    0  0.10269060450E+02 -0.77544410076E+01  0.54727956683E+03  0.55318978857E+03  0.79614276043E+02 0.  0.
          5    1    5    5  501    0  0.13151889713E+03  0.42139593952E+02  0.54257953003E+03  0.55989963573E+03  0.47000000000E+01 0. -1.
        -13    1    6    6    0    0 -0.17203775384E+02  0.28770095420E+02  0.18190499108E+03  0.18496787304E+03  0.00000000000E+00 0.  1.
         14    1    6    6    0    0  0.27472835835E+02 -0.36524536427E+02  0.36537457575E+03  0.36822191552E+03  0.00000000000E+00 0. -1.
         -5    1    3    3    0  503 -0.88207803718E+01  0.42627543311E+02 -0.20195320715E+01  0.43830150865E+02  0.47000000000E+01 0.  1.
         11    1    4    4    0    0 -0.10338562164E+03 -0.17187154045E+02  0.61619829381E+02  0.12157708830E+03  0.00000000000E+00 0. -1.
        -12    1    4    4    0    0 -0.29581555564E+02 -0.59825542210E+02  0.61458523397E+02  0.90726589424E+02  0.00000000000E+00 0.  1.
<mgrwt>
<rscale>  2 0.22609432E+03</rscale>
<asrwt>0</asrwt>
<pdfrwt beam="1">  1       21 0.19847238E+00 0.22621940E+03</pdfrwt>
<pdfrwt beam="2">  1       21 0.12177334E-01 0.22621940E+03</pdfrwt>
<totfact> 0.76357436E+03</totfact>
</mgrwt>
</event>
<event>
12    1  0.1071811E-001  0.2434153E+03  0.7546771E-02  0.1117594E+00
         21   -1    0    0  501  502  0.00000000000E+00  0.00000000000E+00  0.13297812966E+03  0.13297812966E+03  0.00000000000E+00 0.  1.
         21   -1    0    0  502  503 -0.00000000000E+00 -0.00000000000E+00 -0.45599962123E+03  0.45599962123E+03  0.00000000000E+00 0.  1.
         -6    2    1    2    0  503  0.15714458767E+03  0.66948738346E+02 -0.20747968809E+03  0.31984191657E+03  0.17341994010E+03 0.  0.
        -24    2    3    3    0    0  0.52648771505E+02 -0.28182485907E+02 -0.10286532649E+03  0.14395678338E+03  0.81093368618E+02 0.  0.
          6    2    1    2  501    0 -0.15714458767E+03 -0.66948738346E+02 -0.11554180348E+03  0.26913583432E+03  0.17293823743E+03 0.  0.
         24    2    5    5    0    0 -0.16232168865E+03 -0.35382346876E+02 -0.13743231653E+03  0.23009068089E+03  0.80335787344E+02 0.  0.
          5    1    5    5  501    0  0.51771009811E+01 -0.31566391470E+02  0.21890513053E+02  0.39045153435E+02  0.47000000000E+01 0. -1.
        -11    1    6    6    0    0 -0.73092801915E+02 -0.46492654114E+02 -0.10103073878E+03  0.13308393876E+03  0.00000000000E+00 0.  1.
         12    1    6    6    0    0 -0.89228886737E+02  0.11110307238E+02 -0.36401577749E+02  0.97006742126E+02  0.00000000000E+00 0. -1.
         -5    1    3    3    0  503  0.10449581617E+03  0.95131224252E+02 -0.10461436160E+03  0.17588513319E+03  0.47000000000E+01 0.  1.
         11    1    4    4    0    0  0.20930965648E+02  0.80573689455E+01 -0.91856475940E+02  0.94554950634E+02  0.00000000000E+00 0. -1.
        -12    1    4    4    0    0  0.31717805857E+02 -0.36239854852E+02 -0.11008850551E+02  0.49401832745E+02  0.00000000000E+00 0.  1.
<mgrwt>
<rscale>  2 0.24332956E+03</rscale>
<asrwt>0</asrwt>
<pdfrwt beam="1">  1       21 0.20458173E-01 0.24341535E+03</pdfrwt>
<pdfrwt beam="2">  1       21 0.70153790E-01 0.24341535E+03</pdfrwt>
<totfact> 0.39813386E+04</totfact>
</mgrwt>
</event>
<event>
12    1  0.1071811E-001  0.2016243E+03  0.7546771E-02  0.1149752E+00
         21   -1    0    0  503  502  0.00000000000E+00  0.00000000000E+00  0.93584696552E+03  0.93584696552E+03  0.00000000000E+00 0. -1.
         21   -1    0    0  501  503 -0.00000000000E+00 -0.00000000000E+00 -0.42820704788E+02  0.42820704788E+02  0.00000000000E+00 0.  1.
          6    2    1    2  501    0  0.89957786514E+02 -0.30535015281E+02  0.37391527335E+03  0.42177577506E+03  0.17046226054E+03 0.  0.
         24    2    3    3    0    0  0.11315999674E+03 -0.60478842090E+02  0.26004545223E+03  0.30167830845E+03  0.83206306029E+02 0.  0.
         -6    2    1    2    0  502 -0.89957786514E+02  0.30535015281E+02  0.51911098738E+03  0.55689189525E+03  0.17784143292E+03 0.  0.
        -24    2    5    5    0    0 -0.96836064153E+02 -0.99416528927E+01  0.21043476109E+03  0.24546168791E+03  0.80576620501E+02 0.  0.
          5    1    3    3  501    0 -0.23202210222E+02  0.29943826809E+02  0.11386982113E+03  0.12009746661E+03  0.47000000000E+01 0. -1.
        -11    1    4    4    0    0  0.57266754971E+02  0.41913696925E+01  0.54919859300E+02  0.79455898147E+02  0.00000000000E+00 0.  1.
         12    1    4    4    0    0  0.55893241766E+02 -0.64670211782E+02  0.20512559293E+03  0.22222241030E+03  0.00000000000E+00 0. -1.
         -5    1    5    5    0  502  0.68782776386E+01  0.40476668174E+02  0.30867622629E+03  0.31143020734E+03  0.47000000000E+01 0.  1.
         11    1    6    6    0    0 -0.29267246770E+02 -0.40320331199E+02  0.61756627725E+02  0.79348483978E+02  0.00000000000E+00 0. -1.
        -12    1    6    6    0    0 -0.67568817383E+02  0.30378678307E+02  0.14867813337E+03  0.16611320393E+03  0.00000000000E+00 0.  1.
<mgrwt>
<rscale>  2 0.19998499E+03</rscale>
<asrwt>0</asrwt>
<pdfrwt beam="1">  1       21 0.14397644E+00 0.20162432E+03</pdfrwt>
<pdfrwt beam="2">  1       21 0.65878014E-02 0.20162432E+03</pdfrwt>
<totfact> 0.55612399E+04</totfact>
</mgrwt>
</event>
<event>
12    1  0.1071811E-001  0.1755341E+03  0.7546771E-02  0.1172319E+00
         21   -1    0    0  503  502  0.00000000000E+00  0.00000000000E+00  0.99504028174E+03  0.99504028174E+03  0.00000000000E+00 0.  1.
         21   -1    0    0  501  503 -0.00000000000E+00 -0.00000000000E+00 -0.36800316619E+02  0.36800316619E+02  0.00000000000E+00 0.  1.
          6    2    1    2  501    0 -0.93459223204E+01  0.25546975122E+02  0.27161169767E+03  0.32313009044E+03  0.17291658924E+03 0.  0.
         24    2    3    3    0    0 -0.49098821578E+02 -0.34421457768E+02  0.17747951383E+03  0.20455747987E+03  0.82153841701E+02 0.  0.
         -6    2    1    2    0  502  0.93459223204E+01 -0.25546975122E+02  0.68662826745E+03  0.70871050792E+03  0.17341341405E+03 0.  0.
        -24    2    5    5    0    0  0.60319678351E+02  0.56785144339E+01  0.28417030687E+03  0.30181020682E+03  0.81645137701E+02 0.  0.
          5    1    3    3  501    0  0.39752899257E+02  0.59968432890E+02  0.94132183845E+02  0.11857261057E+03  0.47000000000E+01 0. -1.
        -13    1    4    4    0    0  0.12212726688E+02  0.25080424156E+01  0.93008975896E+02  0.93840878977E+02  0.00000000000E+00 0.  1.
         14    1    4    4    0    0 -0.61311548265E+02 -0.36929500184E+02  0.84470537933E+02  0.11071660089E+03  0.00000000000E+00 0. -1.
         -5    1    5    5    0  502 -0.50973756031E+02 -0.31225489556E+02  0.40245796058E+03  0.40690030110E+03  0.47000000000E+01 0.  1.
         11    1    6    6    0    0 -0.76355492827E+01 -0.11560601792E+02  0.14804582355E+03  0.14869268643E+03  0.00000000000E+00 0. -1.
        -12    1    6    6    0    0  0.67955227634E+02  0.17239116226E+02  0.13612448332E+03  0.15311752039E+03  0.00000000000E+00 0.  1.
<mgrwt>
<rscale>  2 0.17541123E+03</rscale>
<asrwt>0</asrwt>
<pdfrwt beam="1">  1       21 0.15308310E+00 0.17553406E+03</pdfrwt>
<pdfrwt beam="2">  1       21 0.56615879E-02 0.17553406E+03</pdfrwt>
<totfact> 0.62259054E+04</totfact>
</mgrwt>
</event>
<event>
12    1  0.1071811E-001  0.2023459E+03  0.7546771E-02  0.1148106E+00
         21   -1    0    0  501  502  0.00000000000E+00  0.00000000000E+00  0.89957674360E+03  0.89957674360E+03  0.00000000000E+00 0.  1.
         21   -1    0    0  502  503 -0.00000000000E+00 -0.00000000000E+00 -0.92497365487E+02  0.92497365487E+02  0.00000000000E+00 0.  1.
         -6    2    1    2    0  503  0.57758778947E+01 -0.10553105488E+03  0.49454149126E+02  0.20830162725E+03  0.17255054547E+03 0.  0.
        -24    2    3    3    0    0 -0.39755820602E+02 -0.17774093677E+01  0.23196799101E+02  0.91899337948E+02  0.79521772937E+02 0.  0.
          6    2    1    2  501    0 -0.57758778947E+01  0.10553105488E+03  0.75762522899E+03  0.78377248184E+03  0.17068436184E+03 0.  0.
         24    2    5    5    0    0  0.99581266712E+00  0.98683419890E+02  0.76161961609E+03  0.77233609140E+03  0.81848576461E+02 0.  0.
          5    1    5    5  501    0 -0.67716905618E+01  0.68476349878E+01 -0.39943870956E+01  0.11436390438E+02  0.47000000000E+01 0. -1.
        -11    1    6    6    0    0  0.29250174019E+02  0.60840994528E+02  0.26452299446E+03  0.27300112434E+03  0.00000000000E+00 0.  1.
         12    1    6    6    0    0 -0.28254361352E+02  0.37842425362E+02  0.49709662163E+03  0.49933496706E+03  0.00000000000E+00 0. -1.
         -5    1    3    3    0  503  0.45531698497E+02 -0.10375364551E+03  0.26257350025E+02  0.11640228930E+03  0.47000000000E+01 0.  1.
         13    1    4    4    0    0  0.62722498675E+01  0.31499964521E+02  0.78029092782E+01  0.33052598634E+02  0.00000000000E+00 0. -1.
        -14    1    4    4    0    0 -0.46028070470E+02 -0.33277373889E+02  0.15393889823E+02  0.58846739315E+02  0.00000000000E+00 0.  1.
<mgrwt>
<rscale>  2 0.20194745E+03</rscale>
<asrwt>0</asrwt>
<pdfrwt beam="1">  1       21 0.13839642E+00 0.20234588E+03</pdfrwt>
<pdfrwt beam="2">  1       21 0.14230365E-01 0.20234588E+03</pdfrwt>
<totfact> 0.15807453E+04</totfact>
</mgrwt>
</event>
<event>
12    1  0.1071811E-001  0.1956304E+03  0.7546771E-02  0.1154044E+00
         21   -1    0    0  501  502  0.00000000000E+00  0.00000000000E+00  0.24406399385E+03  0.24406399385E+03  0.00000000000E+00 0. -1.
         21   -1    0    0  502  503 -0.00000000000E+00 -0.00000000000E+00 -0.18699139584E+03  0.18699139584E+03  0.00000000000E+00 0. -1.
         -6    2    1    2    0  503  0.33499814305E+02  0.86494197342E+02 -0.61121840158E+02  0.20249213892E+03  0.16930358309E+03 0.  0.
        -24    2    3    3    0    0 -0.11307240734E+02  0.10919934593E+03 -0.18602359331E+02  0.13651341353E+03  0.78977930180E+02 0.  0.
          6    2    1    2  501    0 -0.33499814305E+02 -0.86494197342E+02  0.11819443818E+03  0.22856325077E+03  0.17224328915E+03 0.  0.
         24    2    5    5    0    0 -0.23124558024E+02 -0.11953220444E+03  0.53732081552E+02  0.15523766672E+03  0.79930616772E+02 0.  0.
          5    1    5    5  501    0 -0.10375256280E+02  0.33038007097E+02  0.64462356623E+02  0.73325584057E+02  0.47000000000E+01 0. -1.
        -13    1    6    6    0    0  0.25778860427E+02 -0.41750212449E+02  0.53547502643E+00  0.49070526978E+02  0.00000000000E+00 0.  1.
         14    1    6    6    0    0 -0.48903418451E+02 -0.77781991990E+02  0.53196606526E+02  0.10616713974E+03  0.00000000000E+00 0. -1.
         -5    1    3    3    0  503  0.44807055038E+02 -0.22705148592E+02 -0.42519480827E+02  0.65978725386E+02  0.47000000000E+01 0.  1.
         11    1    4    4    0    0 -0.37260532991E+02  0.19967562918E+02 -0.43371353176E+01  0.42495430701E+02  0.00000000000E+00 0. -1.
        -12    1    4    4    0    0  0.25953292257E+02  0.89231783016E+02 -0.14265224014E+02  0.94017982829E+02  0.00000000000E+00 0.  1.
<mgrwt>
<rscale>  2 0.19498132E+03</rscale>
<asrwt>0</asrwt>
<pdfrwt beam="1">  1       21 0.37548306E-01 0.19563035E+03</pdfrwt>
<pdfrwt beam="2">  1       21 0.28767907E-01 0.19563035E+03</pdfrwt>
<totfact> 0.78989040E+04</totfact>
</mgrwt>
</event>
<event>
12    1  0.1071811E-001  0.2269040E+03  0.7546771E-02  0.1129030E+00
         21   -1    0    0  501  502  0.00000000000E+00  0.00000000000E+00  0.14380224226E+03  0.14380224226E+03  0.00000000000E+00 0. -1.
         21   -1    0    0  502  503 -0.00000000000E+00 -0.00000000000E+00 -0.63920429175E+03  0.63920429175E+03  0.00000000000E+00 0.  1.
         -6    2    1    2    0  503  0.73501734830E+02  0.12881675843E+03  0.12408283001E+02  0.22724306729E+03  0.17172415052E+03 0.  0.
        -24    2    3    3    0    0  0.11373167876E+03  0.10452352004E+03 -0.79544545459E+01  0.17581018967E+03  0.83581627465E+02 0.  0.
          6    2    1    2  501    0 -0.73501734830E+02 -0.12881675843E+03 -0.50781033249E+03  0.55576346672E+03  0.17030982025E+03 0.  0.
         24    2    5    5    0    0 -0.28464323244E+02 -0.10926257252E+03 -0.19973573398E+03  0.24376541724E+03  0.82332786676E+02 0.  0.
          5    1    5    5  501    0 -0.45037411586E+02 -0.19554185907E+02 -0.30807459851E+03  0.31199804947E+03  0.47000000000E+01 0. -1.
        -13    1    6    6    0    0 -0.15327494724E+02 -0.10921593106E+03 -0.20227333374E+03  0.23038566196E+03  0.00000000000E+00 0.  1.
         14    1    6    6    0    0 -0.13136828520E+02 -0.46641453807E-01  0.25375997553E+01  0.13379755286E+02  0.00000000000E+00 0. -1.
         -5    1    3    3    0  503 -0.40229943931E+02  0.24293238381E+02  0.20362737547E+02  0.51432877619E+02  0.47000000000E+01 0.  1.
         13    1    4    4    0    0  0.97539174859E+02  0.95011971435E+02  0.24463136499E+02  0.13834598077E+03  0.00000000000E+00 0. -1.
        -14    1    4    4    0    0  0.16192503902E+02  0.95115486100E+01 -0.32417591045E+02  0.37464208903E+02  0.00000000000E+00 0.  1.
<mgrwt>
<rscale>  2 0.22663645E+03</rscale>
<asrwt>0</asrwt>
<pdfrwt beam="1">  1       21 0.22123422E-01 0.22690405E+03</pdfrwt>
<pdfrwt beam="2">  1       21 0.98339122E-01 0.22690405E+03</pdfrwt>
<totfact> 0.15972391E+04</totfact>
</mgrwt>
</event>
<event>
12    1  0.1071811E-001  0.2142227E+03  0.7546771E-02  0.1138290E+00
         21   -1    0    0  503  502  0.00000000000E+00  0.00000000000E+00  0.57714950626E+03  0.57714950626E+03  0.00000000000E+00 0. -1.
         21   -1    0    0  501  503 -0.00000000000E+00 -0.00000000000E+00 -0.15569166442E+03  0.15569166442E+03  0.00000000000E+00 0.  1.
          6    2    1    2  501    0  0.89137701001E+02  0.89173811919E+02 -0.45693446272E+02  0.21891348031E+03  0.17302520729E+03 0.  0.
         24    2    3    3    0    0  0.47913654537E+02  0.12730815924E+03 -0.26653275576E+02  0.15943013346E+03  0.78768551196E+02 0.  0.
         -6    2    1    2    0  502 -0.89137701001E+02 -0.89173811919E+02  0.46715128812E+03  0.51392769037E+03  0.17318731613E+03 0.  0.
        -24    2    5    5    0    0 -0.77075625949E+02 -0.14447891189E+02  0.39027172832E+03  0.40593688706E+03  0.79519435868E+02 0.  0.
          5    1    3    3  501    0  0.41224046464E+02 -0.38134347319E+02 -0.19040170696E+02  0.59483346850E+02  0.47000000000E+01 0. -1.
        -11    1    4    4    0    0 -0.10167520557E+02  0.43722304096E+02 -0.35545605287E+02  0.57258260583E+02  0.00000000000E+00 0.  1.
         12    1    4    4    0    0  0.58081175095E+02  0.83585855142E+02  0.88923297108E+01  0.10217187288E+03  0.00000000000E+00 0. -1.
         -5    1    5    5    0  502 -0.12062075052E+02 -0.74725920729E+02  0.76879559801E+02  0.10799080331E+03  0.47000000000E+01 0.  1.
         11    1    6    6    0    0 -0.35712233004E+02  0.21409602202E+02  0.27721179599E+03  0.28032144850E+03  0.00000000000E+00 0. -1.
        -12    1    6    6    0    0 -0.41363392945E+02 -0.35857493391E+02  0.11305993233E+03  0.12561543857E+03  0.00000000000E+00 0.  1.
<mgrwt>
<rscale>  2 0.21418989E+03</rscale>
<asrwt>0</asrwt>
<pdfrwt beam="1">  1       21 0.88792231E-01 0.21422265E+03</pdfrwt>
<pdfrwt beam="2">  1       21 0.23952564E-01 0.21422265E+03</pdfrwt>
<totfact> 0.17576740E+04</totfact>
</mgrwt>
</event>
<event>
12    1  0.1071811E-001  0.1804697E+03  0.7546771E-02  0.1167452E+00
         21   -1    0    0  501  502  0.00000000000E+00  0.00000000000E+00  0.13255618162E+03  0.13255618162E+03  0.00000000000E+00 0.  1.
         21   -1    0    0  502  503 -0.00000000000E+00 -0.00000000000E+00 -0.28496626908E+03  0.28496626908E+03  0.00000000000E+00 0.  1.
         -6    2    1    2    0  503 -0.21540885105E+02  0.48425869457E+02 -0.15418717190E+03  0.23704400651E+03  0.17206714527E+03 0.  0.
        -24    2    3    3    0    0 -0.20218114454E+02  0.93619340948E+02 -0.74896498301E+02  0.14564761431E+03  0.80189705987E+02 0.  0.
          6    2    1    2  501    0  0.21540885105E+02 -0.48425869457E+02  0.17770844367E+01  0.18047844419E+03  0.17251155389E+03 0.  0.
         24    2    5    5    0    0 -0.18686489155E+02 -0.52873276502E+02 -0.53503651164E+02  0.11180478987E+03  0.80578546183E+02 0.  0.
          5    1    5    5  501    0  0.40227374259E+02  0.44474070441E+01  0.55280735601E+02  0.68673654321E+02  0.47000000000E+01 0. -1.
        -13    1    6    6    0    0 -0.75171397501E+01 -0.24406286235E+02  0.19841736412E+02  0.32339893346E+02  0.00000000000E+00 0.  1.
         14    1    6    6    0    0 -0.11169349404E+02 -0.28466990267E+02 -0.73345387576E+02  0.79464896524E+02  0.00000000000E+00 0. -1.
         -5    1    3    3    0  503 -0.13227706510E+01 -0.45193471491E+02 -0.79290673596E+02  0.91396392198E+02  0.47000000000E+01 0.  1.
         11    1    4    4    0    0  0.25775904629E+02  0.63213480195E+02 -0.30101964813E+02  0.74608777120E+02  0.00000000000E+00 0. -1.
        -12    1    4    4    0    0 -0.45994019083E+02  0.30405860753E+02 -0.44794533487E+02  0.71038837194E+02  0.00000000000E+00 0.  1.
<mgrwt>
<rscale>  2 0.18036341E+03</rscale>
<asrwt>0</asrwt>
<pdfrwt beam="1">  1       21 0.20393259E-01 0.18046969E+03</pdfrwt>
<pdfrwt beam="2">  1       21 0.43840964E-01 0.18046969E+03</pdfrwt>
<totfact> 0.11175920E+05</totfact>
</mgrwt>
</event>
<event>
12    1  0.1071811E-001  0.1889895E+03  0.7546771E-02  0.1159458E+00
         21   -1    0    0  501  502  0.00000000000E+00  0.00000000000E+00  0.11918232360E+03  0.11918232360E+03  0.00000000000E+00 0.  1.
         21   -1    0    0  502  503 -0.00000000000E+00 -0.00000000000E+00 -0.39852609163E+03  0.39852609163E+03  0.00000000000E+00 0.  1.
         -6    2    1    2    0  503 -0.74984378675E+02  0.11048552581E+02 -0.26906079576E+03  0.32880196092E+03  0.17312507078E+03 0.  0.
        -24    2    3    3    0    0  0.24054128159E+02 -0.20626390238E+02 -0.78399240598E+02  0.11157892703E+03  0.72796751127E+02 0.  0.
          6    2    1    2  501    0  0.74984378675E+02 -0.11048552581E+02 -0.10282972265E+02  0.18890645431E+03  0.17272863515E+03 0.  0.
         24    2    5    5    0    0  0.23752468740E+01  0.15683134097E+02 -0.56525425863E+02  0.98645036150E+02  0.79272422035E+02 0.  0.
          5    1    5    5  501    0  0.72609131801E+02 -0.26731686678E+02  0.46242453598E+02  0.90261418160E+02  0.47000000000E+01 0. -1.
        -11    1    6    6    0    0  0.93470212022E+01  0.29983151902E+02  0.78173973516E+01  0.32364608830E+02  0.00000000000E+00 0.  1.
         12    1    6    6    0    0 -0.69717743283E+01 -0.14300017806E+02 -0.64342823214E+02  0.66280427320E+02  0.00000000000E+00 0. -1.
         -5    1    3    3    0  503 -0.99038506834E+02  0.31674942819E+02 -0.19066155516E+03  0.21722303390E+03  0.47000000000E+01 0.  1.
         11    1    4    4    0    0 -0.92592429072E+01  0.93444502682E+01  0.71731620496E+01  0.14983543767E+02  0.00000000000E+00 0. -1.
        -12    1    4    4    0    0  0.33313371066E+02 -0.29970840506E+02 -0.85572402648E+02  0.96595383261E+02  0.00000000000E+00 0.  1.
<mgrwt>
<rscale>  2 0.18889863E+03</rscale>
<asrwt>0</asrwt>
<pdfrwt beam="1">  1       21 0.18335742E-01 0.18898946E+03</pdfrwt>
<pdfrwt beam="2">  1       21 0.61311706E-01 0.18898946E+03</pdfrwt>
<totfact> 0.67216070E+04</totfact>
</mgrwt>
</event>
<event>
12    1  0.1071811E-001  0.1901577E+03  0.7546771E-02  0.1159492E+00
         21   -1    0    0  503  502  0.00000000000E+00  0.00000000000E+00  0.11746193999E+03  0.11746193999E+03  0.00000000000E+00 0.  1.
         21   -1    0    0  501  503 -0.00000000000E+00 -0.00000000000E+00 -0.35288708526E+03  0.35288708526E+03  0.00000000000E+00 0.  1.
          6    2    1    2  501    0 -0.13921108929E+02 -0.72151145506E+02 -0.20773280893E+03  0.27818548369E+03  0.16980770995E+03 0.  0.
         24    2    3    3    0    0 -0.49853833032E+02 -0.46768967825E+02 -0.19433540017E+03  0.23195782782E+03  0.10660884161E+03 0.  0.
         -6    2    1    2    0  502  0.13921108929E+02  0.72151145506E+02 -0.27692336345E+02  0.19216354157E+03  0.17538636248E+03 0.  0.
        -24    2    5    5    0    0 -0.21320979788E+02 -0.23112099027E+02  0.88407083733E+00  0.86542560585E+02  0.80623073067E+02 0.  0.
          5    1    3    3  501    0  0.35932724103E+02 -0.25382177681E+02 -0.13397408762E+02  0.46227655866E+02  0.47000000000E+01 0. -1.
        -11    1    4    4    0    0 -0.40029029591E+02 -0.72734763963E+02 -0.83696101547E+02  0.11788853427E+03  0.00000000000E+00 0.  1.
         12    1    4    4    0    0 -0.98248034411E+01  0.25965796138E+02 -0.11063929862E+03  0.11406929355E+03  0.00000000000E+00 0. -1.
         -5    1    5    5    0  502  0.35242088717E+02  0.95263244533E+02 -0.28576407183E+02  0.10562098098E+03  0.47000000000E+01 0.  1.
         11    1    6    6    0    0 -0.14906605758E+01 -0.34447129605E+02  0.32604559920E+02  0.47454021268E+02  0.00000000000E+00 0. -1.
        -12    1    6    6    0    0 -0.19830319212E+02  0.11335030577E+02 -0.31720489083E+02  0.39088539317E+02  0.00000000000E+00 0.  1.
<mgrwt>
<rscale>  2 0.18886134E+03</rscale>
<asrwt>0</asrwt>
<pdfrwt beam="1">  1       21 0.18071068E-01 0.19015773E+03</pdfrwt>
<pdfrwt beam="2">  1       21 0.54290321E-01 0.19015773E+03</pdfrwt>
<totfact> 0.89447009E+04</totfact>
</mgrwt>
</event>
<event>
12    1  0.1071811E-001  0.2139395E+03  0.7546771E-02  0.1138817E+00
         21   -1    0    0  501  502  0.00000000000E+00  0.00000000000E+00  0.58847269171E+03  0.58847269171E+03  0.00000000000E+00 0.  1.
         21   -1    0    0  502  503 -0.00000000000E+00 -0.00000000000E+00 -0.19480130781E+03  0.19480130781E+03  0.00000000000E+00 0. -1.
         -6    2    1    2    0  503 -0.54550220637E+02 -0.11295980364E+03 -0.10783001890E+03  0.23804581592E+03  0.17118076320E+03 0.  0.
        -24    2    3    3    0    0  0.37038082644E+02 -0.50935451328E+02 -0.53092882333E+02  0.11454001971E+03  0.79588455146E+02 0.  0.
          6    2    1    2  501    0  0.54550220637E+02  0.11295980364E+03  0.50150140280E+03  0.54522818361E+03  0.17330456248E+03 0.  0.
         24    2    5    5    0    0  0.54558872249E+02  0.52730645174E+01  0.31606127193E+03  0.33073677120E+03  0.80545691755E+02 0.  0.
          5    1    5    5  501    0 -0.86516119621E-02  0.10768673912E+03  0.18544013087E+03  0.21449141240E+03  0.47000000000E+01 0. -1.
        -11    1    6    6    0    0  0.10241144515E+02  0.18178340018E+02  0.24571188408E+03  0.24659615379E+03  0.00000000000E+00 0.  1.
         12    1    6    6    0    0  0.44317727735E+02 -0.12905275501E+02  0.70349387854E+02  0.84140617414E+02  0.00000000000E+00 0. -1.
         -5    1    3    3    0  503 -0.91588303281E+02 -0.62024352308E+02 -0.54737136566E+02  0.12350579621E+03  0.47000000000E+01 0.  1.
         11    1    4    4    0    0 -0.19791880551E+02 -0.32875094638E+02 -0.35732102627E+02  0.52433515439E+02  0.00000000000E+00 0. -1.
        -12    1    4    4    0    0  0.56829963195E+02 -0.18060356690E+02 -0.17360779706E+02  0.62106504269E+02  0.00000000000E+00 0.  1.
<mgrwt>
<rscale>  2 0.21350903E+03</rscale>
<asrwt>0</asrwt>
<pdfrwt beam="1">  1       21 0.90534259E-01 0.21393951E+03</pdfrwt>
<pdfrwt beam="2">  1       21 0.29969432E-01 0.21393951E+03</pdfrwt>
<totfact> 0.10906959E+04</totfact>
</mgrwt>
</event>
<event>
12    1  0.1071811E-001  0.2257062E+03  0.7546771E-02  0.1129859E+00
         21   -1    0    0  501  502  0.00000000000E+00  0.00000000000E+00  0.80736475381E+03  0.80736475381E+03  0.00000000000E+00 0.  1.
         21   -1    0    0  502  503 -0.00000000000E+00 -0.00000000000E+00 -0.10491412246E+03  0.10491412246E+03  0.00000000000E+00 0. -1.
         -6    2    1    2    0  503  0.11578115589E+03  0.87058186770E+02  0.61991303586E+02  0.23321226754E+03  0.17193206817E+03 0.  0.
        -24    2    3    3    0    0  0.82063698691E+02  0.50128205470E+02 -0.29076795378E+02  0.12921140654E+03  0.81257860691E+02 0.  0.
          6    2    1    2  501    0 -0.11578115589E+03 -0.87058186770E+02  0.64045932777E+03  0.67906660873E+03  0.17308640800E+03 0.  0.
         24    2    5    5    0    0 -0.66505076082E+01 -0.60352107013E+02  0.40879374430E+03  0.42155205448E+03  0.83109585397E+02 0.  0.
          5    1    5    5  501    0 -0.10913064828E+03 -0.26706079756E+02  0.23166558347E+03  0.25751455426E+03  0.47000000000E+01 0. -1.
        -13    1    6    6    0    0  0.21940455456E+01 -0.60498643620E+02  0.13897192148E+03  0.15158527196E+03  0.00000000000E+00 0.  1.
         14    1    6    6    0    0 -0.88445531537E+01  0.14653660651E+00  0.26982182282E+03  0.26996678252E+03  0.00000000000E+00 0. -1.
         -5    1    3    3    0  503  0.33717457201E+02  0.36929981300E+02  0.91068098965E+02  0.10400086100E+03  0.47000000000E+01 0.  1.
         11    1    4    4    0    0 -0.54078903408E+01  0.37049179103E+02 -0.78503799099E+01  0.38255919998E+02  0.00000000000E+00 0. -1.
        -12    1    4    4    0    0  0.87471589032E+02  0.13079026367E+02 -0.21226415469E+02  0.90955486542E+02  0.00000000000E+00 0.  1.
<mgrwt>
<rscale>  2 0.22548492E+03</rscale>
<asrwt>0</asrwt>
<pdfrwt beam="1">  1       21 0.12420996E+00 0.22570624E+03</pdfrwt>
<pdfrwt beam="2">  1       21 0.16140635E-01 0.22570624E+03</pdfrwt>
<totfact> 0.16282793E+04</totfact>
</mgrwt>
</event>
<event>
12    1  0.1071811E-001  0.1977676E+03  0.7546771E-02  0.1151889E+00
         21   -1    0    0  501  502  0.00000000000E+00  0.00000000000E+00  0.26826684018E+04  0.26826684018E+04  0.00000000000E+00 0. -1.
         21   -1    0    0  502  503 -0.00000000000E+00 -0.00000000000E+00 -0.34246876983E+02  0.34246876983E+02  0.00000000000E+00 0. -1.
         -6    2    1    2    0  503 -0.41935355906E+01  0.95031070961E+02  0.23576035516E+04  0.23658838814E+04  0.17338841808E+03 0.  0.
        -24    2    3    3    0    0 -0.19127318617E+02  0.13059640936E+03  0.20624903800E+04  0.20682233613E+04  0.79120339786E+02 0.  0.
          6    2    1    2  501    0  0.41935355906E+01 -0.95031070961E+02  0.29081797327E+03  0.35103139744E+03  0.17204493083E+03 0.  0.
         24    2    5    5    0    0  0.52161933433E+02 -0.83950564570E+01  0.12567196102E+03  0.15841244312E+03  0.80682811537E+02 0.  0.
          5    1    5    5  501    0 -0.47968397842E+02 -0.86636014504E+02  0.16514601225E+03  0.19261895432E+03  0.47000000000E+01 0. -1.
        -13    1    6    6    0    0  0.57855143271E+02 -0.33297512762E+02  0.10929777601E+03  0.12807008160E+03  0.00000000000E+00 0.  1.
         14    1    6    6    0    0 -0.56932098385E+01  0.24902456306E+02  0.16374185005E+02  0.30342361525E+02  0.00000000000E+00 0. -1.
         -5    1    3    3    0  503  0.14933783026E+02 -0.35565338399E+02  0.29511317154E+03  0.29766052004E+03  0.47000000000E+01 0.  1.
         13    1    4    4    0    0 -0.31085208854E+02  0.83219760990E+02  0.17167878844E+04  0.17190847736E+04  0.00000000000E+00 0. -1.
        -14    1    4    4    0    0  0.11957890237E+02  0.47376648370E+02  0.34570249564E+03  0.34913858773E+03  0.00000000000E+00 0.  1.
<mgrwt>
<rscale>  2 0.19747276E+03</rscale>
<asrwt>0</asrwt>
<pdfrwt beam="1">  1       21 0.41271805E+00 0.19776763E+03</pdfrwt>
<pdfrwt beam="2">  1       21 0.52687524E-02 0.19776763E+03</pdfrwt>
<totfact> 0.17711444E+03</totfact>
</mgrwt>
</event>
<event>
12    1  0.1071811E-001  0.2224163E+03  0.7546771E-02  0.1132157E+00
         21   -1    0    0  503  502  0.00000000000E+00  0.00000000000E+00  0.65033568038E+02  0.65033568038E+02  0.00000000000E+00 0.  1.
         21   -1    0    0  501  503 -0.00000000000E+00 -0.00000000000E+00 -0.90145955941E+03  0.90145955941E+03  0.00000000000E+00 0.  1.
          6    2    1    2  501    0  0.13648940409E+02  0.13821974400E+03 -0.60971275323E+03  0.64889605465E+03  0.17327855344E+03 0.  0.
         24    2    3    3    0    0  0.30275213051E+02  0.11307580480E+03 -0.24847264223E+03  0.28636997501E+03  0.81033218478E+02 0.  0.
         -6    2    1    2    0  502 -0.13648940409E+02 -0.13821974400E+03 -0.22671323814E+03  0.31759707280E+03  0.17371821176E+03 0.  0.
        -24    2    5    5    0    0  0.58713470813E+02 -0.90584625877E+02 -0.15232300829E+03  0.20331050607E+03  0.80498552315E+02 0.  0.
          5    1    3    3  501    0 -0.16626272641E+02  0.25143939203E+02 -0.36124011100E+03  0.36252607964E+03  0.47000000000E+01 0. -1.
        -13    1    4    4    0    0  0.40805265725E+01  0.13098210773E+02  0.33855665788E+01  0.14130671733E+02  0.00000000000E+00 0.  1.
         14    1    4    4    0    0  0.26194686478E+02  0.99977594023E+02 -0.25185820881E+03  0.27223930328E+03  0.00000000000E+00 0. -1.
         -5    1    5    5    0  502 -0.72362411223E+02 -0.47635118122E+02 -0.74390229850E+02  0.11428656672E+03  0.47000000000E+01 0.  1.
         11    1    6    6    0    0  0.40573628641E+01  0.14462807231E+02 -0.94606934781E+01  0.17752174726E+02  0.00000000000E+00 0. -1.
        -12    1    6    6    0    0  0.54656107949E+02 -0.10504743311E+03 -0.14286231481E+03  0.18555833135E+03  0.00000000000E+00 0.  1.
<mgrwt>
<rscale>  2 0.22233044E+03</rscale>
<asrwt>0</asrwt>
<pdfrwt beam="1">  1       21 0.10005165E-01 0.22241630E+03</pdfrwt>
<pdfrwt beam="2">  1       21 0.13868608E+00 0.22241630E+03</pdfrwt>
<totfact> 0.29203926E+04</totfact>
</mgrwt>
</event>
<event>
12    1  0.1071811E-001  0.2036784E+03  0.7546771E-02  0.1148273E+00
         21   -1    0    0  501  502  0.00000000000E+00  0.00000000000E+00  0.81315708900E+02  0.81315708900E+02  0.00000000000E+00 0. -1.
         21   -1    0    0  502  503 -0.00000000000E+00 -0.00000000000E+00 -0.72660028322E+03  0.72660028322E+03  0.00000000000E+00 0. -1.
         -6    2    1    2    0  503  0.86434816767E+02 -0.37036086237E+02 -0.54834911892E+03  0.58234702843E+03  0.17204259957E+03 0.  0.
        -24    2    3    3    0    0 -0.16936981646E+02  0.61492623707E+01 -0.26242391498E+03  0.27522162198E+03  0.80968853725E+02 0.  0.
          6    2    1    2  501    0 -0.86434816767E+02  0.37036086237E+02 -0.96935455399E+02  0.22556896369E+03  0.18067159609E+03 0.  0.
         24    2    5    5    0    0 -0.79879511563E+02 -0.43103482253E+02 -0.42080029322E+02  0.12811882139E+03  0.80031599866E+02 0.  0.
          5    1    5    5  501    0 -0.65553052042E+01  0.80139568491E+02 -0.54855426077E+02  0.97450142300E+02  0.47000000000E+01 0. -1.
        -11    1    6    6    0    0 -0.12971881199E+02 -0.33110247619E+02  0.15965055746E+02  0.38980010316E+02  0.00000000000E+00 0.  1.
         12    1    6    6    0    0 -0.66907630364E+02 -0.99932346341E+01 -0.58045085069E+02  0.89138811075E+02  0.00000000000E+00 0. -1.
         -5    1    3    3    0  503  0.10337179841E+03 -0.43185348608E+02 -0.28592520394E+03  0.30712540646E+03  0.47000000000E+01 0.  1.
         11    1    4    4    0    0 -0.19501745965E+02 -0.16242568071E+02 -0.24606955772E+03  0.24737495094E+03  0.00000000000E+00 0. -1.
        -12    1    4    4    0    0  0.25647643193E+01  0.22391830442E+02 -0.16354357258E+02  0.27846671038E+02  0.00000000000E+00 0.  1.
<mgrwt>
<rscale>  2 0.20174763E+03</rscale>
<asrwt>0</asrwt>
<pdfrwt beam="1">  1       21 0.12510109E-01 0.20367836E+03</pdfrwt>
<pdfrwt beam="2">  1       21 0.11178466E+00 0.20367836E+03</pdfrwt>
<totfact> 0.33996550E+04</totfact>
</mgrwt>
</event>
<event>
12    1  0.1071811E-001  0.1735676E+03  0.7546771E-02  0.1174476E+00
         21   -1    0    0  503  502  0.00000000000E+00  0.00000000000E+00  0.37048237079E+02  0.37048237079E+02  0.00000000000E+00 0. -1.
         21   -1    0    0  501  503 -0.00000000000E+00 -0.00000000000E+00 -0.88660492275E+03  0.88660492275E+03  0.00000000000E+00 0. -1.
          6    2    1    2  501    0 -0.73666876486E+01 -0.14424975546E+02 -0.56126718525E+03  0.58714675758E+03  0.17163366131E+03 0.  0.
         24    2    3    3    0    0  0.44237454686E+02 -0.50330736299E+02 -0.29499270761E+03  0.31351123612E+03  0.82331416961E+02 0.  0.
         -6    2    1    2    0  502  0.73666876486E+01  0.14424975546E+02 -0.28828950042E+03  0.33650640225E+03  0.17281022740E+03 0.  0.
        -24    2    5    5    0    0  0.67459630106E+02  0.21891423302E+01 -0.22731788619E+03  0.24990094578E+03  0.78876278326E+02 0.  0.
          5    1    3    3  501    0 -0.51604142334E+02  0.35905760753E+02 -0.26627447764E+03  0.27363552146E+03  0.47000000000E+01 0. -1.
        -11    1    4    4    0    0  0.57909795885E+02 -0.16816104789E+02 -0.11432958476E+03  0.12925780360E+03  0.00000000000E+00 0.  1.
         12    1    4    4    0    0 -0.13672341200E+02 -0.33514631509E+02 -0.18066312285E+03  0.18425343252E+03  0.00000000000E+00 0. -1.
         -5    1    5    5    0  502 -0.60092942457E+02  0.12235833216E+02 -0.60971614231E+02  0.86605456465E+02  0.47000000000E+01 0.  1.
         13    1    6    6    0    0  0.52872544334E+02  0.37496536902E+02 -0.12769148761E+03  0.14320129969E+03  0.00000000000E+00 0. -1.
        -14    1    6    6    0    0  0.14587085772E+02 -0.35307394571E+02 -0.99626398582E+02  0.10669964610E+03  0.00000000000E+00 0.  1.
<mgrwt>
<rscale>  2 0.17327404E+03</rscale>
<asrwt>0</asrwt>
<pdfrwt beam="1">  1       21 0.56997291E-02 0.17356763E+03</pdfrwt>
<pdfrwt beam="2">  1       21 0.13640075E+00 0.17356763E+03</pdfrwt>
<totfact> 0.83133025E+04</totfact>
</mgrwt>
</event>
<event>
12    1  0.1071811E-001  0.1749312E+03  0.7546771E-02  0.1174157E+00
         21   -1    0    0  501  502  0.00000000000E+00  0.00000000000E+00  0.18346248670E+03  0.18346248670E+03  0.00000000000E+00 0. -1.
         21   -1    0    0  502  503 -0.00000000000E+00 -0.00000000000E+00 -0.18391999303E+03  0.18391999303E+03  0.00000000000E+00 0. -1.
         -6    2    1    2    0  503 -0.14199785298E+02 -0.21234437787E+01 -0.63967733540E+02  0.18127905330E+03  0.16900911607E+03 0.  0.
        -24    2    3    3    0    0  0.77608888626E+01 -0.45744765495E+02  0.91434833400E+01  0.93231163197E+02  0.80346944791E+02 0.  0.
          6    2    1    2  501    0  0.14199785298E+02  0.21234437787E+01  0.63510227214E+02  0.18610342643E+03  0.17434102630E+03 0.  0.
         24    2    5    5    0    0 -0.26650249438E+02  0.50981287326E+02  0.31708526193E+02  0.11476443006E+03  0.94106940881E+02 0.  0.
          5    1    5    5  501    0  0.40850034736E+02 -0.48857843547E+02  0.31801701022E+02  0.71338996361E+02  0.47000000000E+01 0. -1.
        -11    1    6    6    0    0  0.24935848837E+02  0.50748642823E+02  0.27858726995E+02  0.63034355517E+02  0.00000000000E+00 0.  1.
         12    1    6    6    0    0 -0.51586098275E+02  0.23264450231E+00  0.38497991973E+01  0.51730074547E+02  0.00000000000E+00 0. -1.
         -5    1    3    3    0  503 -0.21960674160E+02  0.43621321716E+02 -0.73111216880E+02  0.88047890103E+02  0.47000000000E+01 0.  1.
         13    1    4    4    0    0  0.10800327822E+02  0.11404504248E+02 -0.22802454184E+02  0.27688656793E+02  0.00000000000E+00 0. -1.
        -14    1    4    4    0    0 -0.30394389590E+01 -0.57149269743E+02  0.31945937524E+02  0.65542506403E+02  0.00000000000E+00 0.  1.
<mgrwt>
<rscale>  2 0.17358749E+03</rscale>
<asrwt>0</asrwt>
<pdfrwt beam="1">  1       21 0.28224998E-01 0.17493123E+03</pdfrwt>
<pdfrwt beam="2">  1       21 0.28295384E-01 0.17493123E+03</pdfrwt>
<totfact> 0.14405678E+05</totfact>
</mgrwt>
</event>
<event>
12    1  0.1071811E-001  0.1839123E+03  0.7546771E-02  0.1164392E+00
         21   -1    0    0  503  502  0.00000000000E+00  0.00000000000E+00  0.11600887114E+04  0.11600887114E+04  0.00000000000E+00 0.  1.
         21   -1    0    0  501  503 -0.00000000000E+00 -0.00000000000E+00 -0.30607297657E+02  0.30607297657E+02  0.00000000000E+00 0. -1.
          6    2    1    2  501    0 -0.29752499405E+02 -0.52223938552E+02  0.42380587609E+03  0.46144866556E+03  0.17236849874E+03 0.  0.
         24    2    3    3    0    0  0.39810349594E+00  0.21321893663E+02  0.32711588939E+03  0.33619256063E+03  0.74604631900E+02 0.  0.
         -6    2    1    2    0  502  0.29752499405E+02  0.52223938552E+02  0.70567553762E+03  0.72924734346E+03  0.17381361448E+03 0.  0.
        -24    2    5    5    0    0 -0.39837677600E+01 -0.33881409503E+02  0.42633399476E+03  0.43495827766E+03  0.79146749156E+02 0.  0.
          5    1    3    3  501    0 -0.30150602901E+02 -0.73545832216E+02  0.96689986707E+02  0.12525610492E+03  0.47000000000E+01 0. -1.
        -13    1    4    4    0    0  0.15311640153E+00 -0.15480536096E+02  0.25269498605E+03  0.25316877062E+03  0.00000000000E+00 0.  1.
         14    1    4    4    0    0  0.24498709441E+00  0.36802429759E+02  0.74420903332E+02  0.83023790010E+02  0.00000000000E+00 0. -1.
         -5    1    5    5    0  502  0.33736267165E+02  0.86105348056E+02  0.27934154286E+03  0.29428906581E+03  0.47000000000E+01 0.  1.
         13    1    6    6    0    0  0.28610640519E+02 -0.21709661435E+02  0.91104597626E+02  0.97928166832E+02  0.00000000000E+00 0. -1.
        -14    1    6    6    0    0 -0.32594408279E+02 -0.12171748068E+02  0.33522939713E+03  0.33703011083E+03  0.00000000000E+00 0.  1.
<mgrwt>
<rscale>  2 0.18357003E+03</rscale>
<asrwt>0</asrwt>
<pdfrwt beam="1">  1       21 0.17847515E+00 0.18391227E+03</pdfrwt>
<pdfrwt beam="2">  1       21 0.47088159E-02 0.18391227E+03</pdfrwt>
<totfact> 0.55782120E+04</totfact>
</mgrwt>
</event>
<event>
12    1  0.1071811E-001  0.4647090E+03  0.7546771E-02  0.1023426E+00
         21   -1    0    0  501  502  0.00000000000E+00  0.00000000000E+00  0.64095182355E+03  0.64095182355E+03  0.00000000000E+00 0. -1.
         21   -1    0    0  502  503 -0.00000000000E+00 -0.00000000000E+00 -0.38407356262E+03  0.38407356262E+03  0.00000000000E+00 0. -1.
         -6    2    1    2    0  503 -0.42921160758E+03 -0.43208827439E+02 -0.51164224788E+02  0.46749097374E+03  0.17274381545E+03 0.  0.
        -24    2    3    3    0    0 -0.42723112205E+03 -0.52360019402E+02 -0.24103972153E+02  0.43847349780E+03  0.80062497558E+02 0.  0.
          6    2    1    2  501    0  0.42921160758E+03  0.43208827439E+02  0.30804248572E+03  0.55753441243E+03  0.17281447041E+03 0.  0.
         24    2    5    5    0    0  0.33223995225E+03  0.23990599188E+02  0.30467832880E+03  0.45850790191E+03  0.80260060730E+02 0.  0.
          5    1    5    5  501    0  0.96971655331E+02  0.19218228251E+02  0.33641569202E+01  0.99026510524E+02  0.47000000000E+01 0. -1.
        -13    1    6    6    0    0  0.41899160047E+02 -0.20410241455E+02  0.24782895717E+02  0.52785504535E+02  0.00000000000E+00 0.  1.
         14    1    6    6    0    0  0.29034079221E+03  0.44400840643E+02  0.27989543309E+03  0.40572239737E+03  0.00000000000E+00 0. -1.
         -5    1    3    3    0  503 -0.19804855297E+01  0.91511919633E+01 -0.27060252634E+02  0.29017475940E+02  0.47000000000E+01 0.  1.
         11    1    4    4    0    0 -0.93488951919E+02 -0.35208553533E+02 -0.29777872028E+02  0.10424273613E+03  0.00000000000E+00 0. -1.
        -12    1    4    4    0    0 -0.33374217013E+03 -0.17151465869E+02  0.56738998746E+01  0.33423076167E+03  0.00000000000E+00 0.  1.
<mgrwt>
<rscale>  2 0.46470243E+03</rscale>
<asrwt>0</asrwt>
<pdfrwt beam="1">  1       21 0.98607973E-01 0.46470899E+03</pdfrwt>
<pdfrwt beam="2">  1       21 0.59088240E-01 0.46470899E+03</pdfrwt>
<totfact> 0.19486177E+03</totfact>
</mgrwt>
</event>
<event>
12    1  0.1071811E-001  0.2230978E+03  0.7546771E-02  0.1134565E+00
         21   -1    0    0  501  502  0.00000000000E+00  0.00000000000E+00  0.64595247162E+03  0.64595247162E+03  0.00000000000E+00 0.  1.
         21   -1    0    0  502  503 -0.00000000000E+00 -0.00000000000E+00 -0.12101488849E+03  0.12101488849E+03  0.00000000000E+00 0. -1.
         -6    2    1    2    0  503 -0.73327451734E+02  0.12037926055E+03  0.23541564791E+02  0.22433641837E+03  0.17292929707E+03 0.  0.
        -24    2    3    3    0    0 -0.61937989988E+02  0.22239906032E+02  0.59029625140E+02  0.11925290315E+03  0.80036430711E+02 0.  0.
          6    2    1    2  501    0  0.73327451734E+02 -0.12037926055E+03  0.50139601834E+03  0.54263094175E+03  0.15225731572E+03 0.  0.
         24    2    5    5    0    0  0.10600137337E+03 -0.10774725041E+03  0.43122004974E+03  0.46405671312E+03  0.80945293686E+02 0.  0.
          5    1    5    5  501    0 -0.32673921637E+02 -0.12632010139E+02  0.70175968599E+02  0.78574228626E+02  0.47000000000E+01 0. -1.
        -11    1    6    6    0    0  0.85406489755E+02 -0.43705877321E+02  0.32002013287E+03  0.33409184014E+03  0.00000000000E+00 0.  1.
         12    1    6    6    0    0  0.20594883617E+02 -0.64041373090E+02  0.11119991687E+03  0.12996487299E+03  0.00000000000E+00 0. -1.
         -5    1    3    3    0  503 -0.11389461746E+02  0.98139354517E+02 -0.35488060348E+02  0.10508351522E+03  0.47000000000E+01 0.  1.
         13    1    4    4    0    0  0.12100844175E+02 -0.18737427754E+01 -0.95209224873E+01  0.15510941517E+02  0.00000000000E+00 0. -1.
        -14    1    4    4    0    0 -0.74038834163E+02  0.24113648807E+02  0.68550547627E+02  0.10374196163E+03  0.00000000000E+00 0.  1.
<mgrwt>
<rscale>  2 0.21908799E+03</rscale>
<asrwt>0</asrwt>
<pdfrwt beam="1">  1       21 0.99377302E-01 0.22309779E+03</pdfrwt>
<pdfrwt beam="2">  1       21 0.18617675E-01 0.22309779E+03</pdfrwt>
<totfact> 0.21585061E+04</totfact>
</mgrwt>
</event>
<event>
12    1  0.1071811E-001  0.1757581E+03  0.7546771E-02  0.1172572E+00
         21   -1    0    0  503  502  0.00000000000E+00  0.00000000000E+00  0.82902631895E+03  0.82902631895E+03  0.00000000000E+00 0. -1.
         21   -1    0    0  501  503 -0.00000000000E+00 -0.00000000000E+00 -0.51755196552E+02  0.51755196552E+02  0.00000000000E+00 0. -1.
          6    2    1    2  501    0  0.13060641282E+02 -0.11580419789E+02  0.14968893677E+03  0.22905280866E+03  0.17249268069E+03 0.  0.
         24    2    3    3    0    0  0.12886835188E+02  0.56533161111E+02  0.59354985616E+02  0.11581940881E+03  0.80802551398E+02 0.  0.
         -6    2    1    2    0  502 -0.13060641282E+02  0.11580419789E+02  0.62758218563E+03  0.65172870684E+03  0.17488916813E+03 0.  0.
        -24    2    5    5    0    0 -0.71167626799E+02 -0.45235129786E+01  0.33435357419E+03  0.35232786018E+03  0.85189877392E+02 0.  0.
          5    1    3    3  501    0  0.17380609442E+00 -0.68113580899E+02  0.90333951153E+02  0.11323339985E+03  0.47000000000E+01 0. -1.
        -13    1    4    4    0    0 -0.16099871159E+02 -0.40144213965E+01  0.43905091357E+02  0.46935897536E+02  0.00000000000E+00 0.  1.
         14    1    4    4    0    0  0.28986706346E+02  0.60547582507E+02  0.15449894259E+02  0.68883511270E+02  0.00000000000E+00 0. -1.
         -5    1    5    5    0  502  0.58106985517E+02  0.16103932767E+02  0.29322861143E+03  0.29940084666E+03  0.47000000000E+01 0.  1.
         11    1    6    6    0    0 -0.53064911033E+02  0.25583016897E+02  0.28909026180E+03  0.29503144748E+03  0.00000000000E+00 0. -1.
        -12    1    6    6    0    0 -0.18102715766E+02 -0.30106529875E+02  0.45263312394E+02  0.57296412698E+02  0.00000000000E+00 0.  1.
<mgrwt>
<rscale>  2 0.17515892E+03</rscale>
<asrwt>0</asrwt>
<pdfrwt beam="1">  1       21 0.12754250E+00 0.17575809E+03</pdfrwt>
<pdfrwt beam="2">  1       21 0.79623385E-02 0.17575809E+03</pdfrwt>
<totfact> 0.55358900E+04</totfact>
</mgrwt>
</event>
<event>
12    1  0.1071811E-001  0.2227999E+03  0.7546771E-02  0.1131994E+00
         21   -1    0    0  503  502  0.00000000000E+00  0.00000000000E+00  0.10032056291E+03  0.10032056291E+03  0.00000000000E+00 0.  1.
         21   -1    0    0  501  503 -0.00000000000E+00 -0.00000000000E+00 -0.51044303828E+03  0.51044303828E+03  0.00000000000E+00 0.  1.
          6    2    1    2  501    0 -0.82697993292E+02 -0.11326471477E+03 -0.26255718675E+03  0.34434877949E+03  0.17312409398E+03 0.  0.
         24    2    3    3    0    0 -0.86940618266E+02 -0.46237997108E+02 -0.24320655072E+03  0.27429795607E+03  0.79958232295E+02 0.  0.
         -6    2    1    2    0  502  0.82697993292E+02  0.11326471477E+03 -0.14756528862E+03  0.26641482170E+03  0.17185310328E+03 0.  0.
        -24    2    5    5    0    0  0.11538700612E+03  0.10392925382E+03 -0.81694354228E+02  0.19213970885E+03  0.78283134971E+02 0.  0.
          5    1    3    3  501    0  0.42426249737E+01 -0.67026717659E+02 -0.19350636028E+02  0.70050823418E+02  0.47000000000E+01 0. -1.
        -11    1    4    4    0    0  0.78050771290E+01 -0.26521994256E+02 -0.78972259112E+02  0.83671698427E+02  0.00000000000E+00 0.  1.
         12    1    4    4    0    0 -0.94745695395E+02 -0.19716002851E+02 -0.16423429161E+03  0.19062625765E+03  0.00000000000E+00 0. -1.
         -5    1    5    5    0  502 -0.32689012829E+02  0.93354609437E+01 -0.65870934395E+02  0.74275112849E+02  0.47000000000E+01 0.  1.
         11    1    6    6    0    0  0.65348916298E+02  0.87582632521E+01 -0.37812495542E+02  0.76006400096E+02  0.00000000000E+00 0. -1.
        -12    1    6    6    0    0  0.50038089823E+02  0.95170990571E+02 -0.43881858685E+02  0.11613330875E+03  0.00000000000E+00 0.  1.
<mgrwt>
<rscale>  2 0.22255297E+03</rscale>
<asrwt>0</asrwt>
<pdfrwt beam="1">  1       21 0.15433933E-01 0.22279992E+03</pdfrwt>
<pdfrwt beam="2">  1       21 0.78529697E-01 0.22279992E+03</pdfrwt>
<totfact> 0.52647716E+04</totfact>
</mgrwt>
</event>
<event>
12    1  0.1071811E-001  0.1800280E+03  0.7546771E-02  0.1167792E+00
         21   -1    0    0  501  502  0.00000000000E+00  0.00000000000E+00  0.55835661484E+03  0.55835661484E+03  0.00000000000E+00 0.  1.
         21   -1    0    0  502  503 -0.00000000000E+00 -0.00000000000E+00 -0.14292692522E+03  0.14292692522E+03  0.00000000000E+00 0.  1.
         -6    2    1    2    0  503 -0.29998692180E+02  0.39852770042E+02 -0.62551979418E+02  0.19052278556E+03  0.17291043021E+03 0.  0.
        -24    2    3    3    0    0  0.19633625990E+01  0.39097187327E+02 -0.10474605032E+03  0.13737606910E+03  0.79799777281E+02 0.  0.
          6    2    1    2  501    0  0.29998692180E+02 -0.39852770042E+02  0.47798166904E+03  0.51076075451E+03  0.17297950052E+03 0.  0.
         24    2    5    5    0    0  0.63250274304E+02  0.20287163606E+02  0.22153627439E+03  0.24522580433E+03  0.81518145410E+02 0.  0.
          5    1    5    5  501    0 -0.33251582125E+02 -0.60139933648E+02  0.25644539464E+03  0.26553495018E+03  0.47000000000E+01 0. -1.
        -13    1    6    6    0    0 -0.17501662814E+02  0.31241452591E+01  0.74567203674E+02  0.76657265465E+02  0.00000000000E+00 0.  1.
         14    1    6    6    0    0  0.80751937119E+02  0.17163018346E+02  0.14696907072E+03  0.16856853887E+03  0.00000000000E+00 0. -1.
         -5    1    3    3    0  503 -0.31962054779E+02  0.75558271550E+00  0.42194070902E+02  0.53146716457E+02  0.47000000000E+01 0.  1.
         11    1    4    4    0    0 -0.25709821237E+02 -0.66239226009E+01 -0.95699791268E+01  0.28221547781E+02  0.00000000000E+00 0. -1.
        -12    1    4    4    0    0  0.27673183836E+02  0.45721109928E+02 -0.95176071193E+02  0.10915452132E+03  0.00000000000E+00 0.  1.
<mgrwt>
<rscale>  2 0.18001138E+03</rscale>
<asrwt>0</asrwt>
<pdfrwt beam="1">  1       21 0.85901016E-01 0.18002798E+03</pdfrwt>
<pdfrwt beam="2">  1       21 0.21988758E-01 0.18002798E+03</pdfrwt>
<totfact> 0.22769417E+04</totfact>
</mgrwt>
</event>
<event>
12    1  0.1071811E-001  0.1751122E+03  0.7546771E-02  0.1172663E+00
         21   -1    0    0  501  502  0.00000000000E+00  0.00000000000E+00  0.30962830062E+03  0.30962830062E+03  0.00000000000E+00 0. -1.
         21   -1    0    0  502  503 -0.00000000000E+00 -0.00000000000E+00 -0.13606894804E+03  0.13606894804E+03  0.00000000000E+00 0. -1.
         -6    2    1    2    0  503  0.19124546429E+02 -0.62045142025E+01  0.20316100760E+03  0.26810064549E+03  0.17377950636E+03 0.  0.
        -24    2    3    3    0    0  0.64712000341E+02  0.94544414088E+01  0.19222747132E+03  0.21845136493E+03  0.80576477076E+02 0.  0.
          6    2    1    2  501    0 -0.19124546429E+02  0.62045142025E+01 -0.29601655026E+02  0.17759660317E+03  0.17395416409E+03 0.  0.
         24    2    5    5    0    0  0.15965615778E+02  0.62352610561E+02  0.16678516374E+02  0.96677677861E+02  0.70182986238E+02 0.  0.
          5    1    5    5  501    0 -0.35090162207E+02 -0.56148096358E+02 -0.46280171400E+02  0.80918925309E+02  0.47000000000E+01 0. -1.
        -11    1    6    6    0    0  0.40984138649E+01  0.35873021162E+02  0.43934186427E+02  0.56867243475E+02  0.00000000000E+00 0.  1.
         12    1    6    6    0    0  0.11867201913E+02  0.26479589399E+02 -0.27255670053E+02  0.39810434386E+02  0.00000000000E+00 0. -1.
         -5    1    3    3    0  503 -0.45587453912E+02 -0.15658955611E+02  0.10933536281E+02  0.49649280565E+02  0.47000000000E+01 0.  1.
         11    1    4    4    0    0  0.46379829744E+02 -0.32822706541E+02  0.12006807915E+03  0.13283358876E+03  0.00000000000E+00 0. -1.
        -12    1    4    4    0    0  0.18332170597E+02  0.42277147950E+02  0.72159392166E+02  0.85617776165E+02  0.00000000000E+00 0.  1.
<mgrwt>
<rscale>  2 0.17506885E+03</rscale>
<asrwt>0</asrwt>
<pdfrwt beam="1">  1       21 0.47635123E-01 0.17511224E+03</pdfrwt>
<pdfrwt beam="2">  1       21 0.20933684E-01 0.17511224E+03</pdfrwt>
<totfact> 0.89931620E+04</totfact>
</mgrwt>
</event>
<event>
12    1  0.1071811E-001  0.2309829E+03  0.7546771E-02  0.1127953E+00
         21   -1    0    0  503  502  0.00000000000E+00  0.00000000000E+00  0.72149304800E+02  0.72149304800E+02  0.00000000000E+00 0. -1.
         21   -1    0    0  501  503 -0.00000000000E+00 -0.00000000000E+00 -0.72190265667E+03  0.72190265667E+03  0.00000000000E+00 0. -1.
          6    2    1    2  501    0 -0.85932055361E+02  0.10481505969E+03 -0.39482043817E+03  0.45742352744E+03  0.18703633385E+03 0.  0.
         24    2    3    3    0    0 -0.54892272881E+02  0.51521117151E+02 -0.37712818871E+03  0.39308988073E+03  0.81402680996E+02 0.  0.
         -6    2    1    2    0  502  0.85932055361E+02 -0.10481505969E+03 -0.25493291370E+03  0.33662843403E+03  0.17308205347E+03 0.  0.
        -24    2    5    5    0    0  0.51141228525E+02  0.16292064709E+02 -0.11268648458E+03  0.14654036546E+03  0.76778761881E+02 0.  0.
          5    1    3    3  501    0 -0.31039782480E+02  0.53293942544E+02 -0.17692249453E+02  0.64333646710E+02  0.47000000000E+01 0. -1.
        -11    1    4    4    0    0  0.20592694956E+02  0.73141107631E+01 -0.52138295597E+02  0.56532797292E+02  0.00000000000E+00 0.  1.
         12    1    4    4    0    0 -0.75484967837E+02  0.44207006388E+02 -0.32498989312E+03  0.33655708344E+03  0.00000000000E+00 0. -1.
         -5    1    5    5    0  502  0.34790826836E+02 -0.12110712440E+03 -0.14224642912E+03  0.19008806857E+03  0.47000000000E+01 0.  1.
         11    1    6    6    0    0  0.61609936010E+02  0.28779047653E+02 -0.11098071490E+03  0.13015658600E+03  0.00000000000E+00 0. -1.
        -12    1    6    6    0    0 -0.10468707485E+02 -0.12486982943E+02 -0.17057696813E+01  0.16383779468E+02  0.00000000000E+00 0.  1.
<mgrwt>
<rscale>  2 0.22814431E+03</rscale>
<asrwt>0</asrwt>
<pdfrwt beam="1">  1       21 0.11099893E-01 0.23098291E+03</pdfrwt>
<pdfrwt beam="2">  1       21 0.11106195E+00 0.23098291E+03</pdfrwt>
<totfact> 0.42190428E+04</totfact>
</mgrwt>
</event>
<event>
12    1  0.1071811E-001  0.2657154E+03  0.7546771E-02  0.1103911E+00
         21   -1    0    0  501  502  0.00000000000E+00  0.00000000000E+00  0.54666108439E+03  0.54666108439E+03  0.00000000000E+00 0.  1.
         21   -1    0    0  502  503 -0.00000000000E+00 -0.00000000000E+00 -0.52295082624E+03  0.52295082624E+03  0.00000000000E+00 0. -1.
         -6    2    1    2    0  503 -0.20053249923E+03  0.40545035375E+00 -0.45252831913E+03  0.52477286121E+03  0.17433080224E+03 0.  0.
        -24    2    3    3    0    0 -0.14587836592E+03 -0.66766002508E+02 -0.30916939769E+03  0.35722302169E+03  0.79274043803E+02 0.  0.
          6    2    1    2  501    0  0.20053249923E+03 -0.40545035375E+00  0.47623857728E+03  0.54483904941E+03  0.17272220364E+03 0.  0.
         24    2    5    5    0    0  0.21422419813E+03 -0.14309441610E+02  0.47125279786E+03  0.52415737666E+03  0.81024618665E+02 0.  0.
          5    1    5    5  501    0 -0.13691698892E+02  0.13903991257E+02  0.49857794212E+01  0.20681672753E+02  0.47000000000E+01 0. -1.
        -11    1    6    6    0    0  0.14340166840E+03  0.52082595873E+01  0.22229383263E+03  0.26458592648E+03  0.00000000000E+00 0.  1.
         12    1    6    6    0    0  0.70822529732E+02 -0.19517701198E+02  0.24895896523E+03  0.25957145018E+03  0.00000000000E+00 0. -1.
         -5    1    3    3    0  503 -0.54654133313E+02  0.67171452862E+02 -0.14335892144E+03  0.16754983953E+03  0.47000000000E+01 0.  1.
         13    1    4    4    0    0 -0.60209020613E+02 -0.83434089160E-01 -0.17235685621E+03  0.18257058637E+03  0.00000000000E+00 0. -1.
        -14    1    4    4    0    0 -0.85669345309E+02 -0.66682568419E+02 -0.13681254148E+03  0.17465243532E+03  0.00000000000E+00 0.  1.
<mgrwt>
<rscale>  2 0.26545187E+03</rscale>
<asrwt>0</asrwt>
<pdfrwt beam="1">  1       21 0.84101705E-01 0.26571540E+03</pdfrwt>
<pdfrwt beam="2">  1       21 0.80453974E-01 0.26571540E+03</pdfrwt>
<totfact> 0.15710871E+03</totfact>
</mgrwt>
</event>
<event>
12    1  0.1071811E-001  0.3918312E+03  0.7546771E-02  0.1046792E+00
         21   -1    0    0  501  502  0.00000000000E+00  0.00000000000E+00  0.17663045788E+04  0.17663045788E+04  0.00000000000E+00 0. -1.
         21   -1    0    0  502  503 -0.00000000000E+00 -0.00000000000E+00 -0.16517989022E+03  0.16517989022E+03  0.00000000000E+00 0.  1.
         -6    2    1    2    0  503  0.58604556238E+01 -0.35057766373E+03  0.13339871262E+03  0.41235601769E+03  0.17118184936E+03 0.  0.
        -24    2    3    3    0    0 -0.57310409701E+02 -0.22162375808E+03  0.11043012819E+03  0.26685923463E+03  0.81347800780E+02 0.  0.
          6    2    1    2  501    0 -0.58604556238E+01  0.35057766373E+03  0.14677259760E+04  0.15191284514E+04  0.17490759812E+03 0.  0.
         24    2    5    5    0    0 -0.34612464174E+02  0.35136863341E+03  0.13741335385E+04  0.14211032608E+04  0.81446651268E+02 0.  0.
          5    1    5    5  501    0  0.28752008550E+02 -0.79096967873E+00  0.93592437484E+02  0.98025190553E+02  0.47000000000E+01 0. -1.
        -13    1    6    6    0    0  0.25495420268E+02  0.14203447897E+03  0.52227193583E+03  0.54184110644E+03  0.00000000000E+00 0.  1.
         14    1    6    6    0    0 -0.60107884442E+02  0.20933415444E+03  0.85186160268E+03  0.87926215437E+03  0.00000000000E+00 0. -1.
         -5    1    3    3    0  503  0.63170865325E+02 -0.12895390565E+03  0.22968584422E+02  0.14549678306E+03  0.47000000000E+01 0.  1.
         13    1    4    4    0    0  0.17117178560E+02 -0.14714041230E+02  0.55796743298E+01  0.23251528483E+02  0.00000000000E+00 0. -1.
        -14    1    4    4    0    0 -0.74427588261E+02 -0.20690971685E+03  0.10485045386E+03  0.24360770615E+03  0.00000000000E+00 0.  1.
<mgrwt>
<rscale>  2 0.39141836E+03</rscale>
<asrwt>0</asrwt>
<pdfrwt beam="1">  1       21 0.27173915E+00 0.39183123E+03</pdfrwt>
<pdfrwt beam="2">  1       21 0.25412292E-01 0.39183123E+03</pdfrwt>
<totfact> 0.60885647E+02</totfact>
</mgrwt>
</event>
<event>
12    1  0.1071811E-001  0.2769628E+03  0.7546771E-02  0.1097389E+00
         21   -1    0    0  501  502  0.00000000000E+00  0.00000000000E+00  0.66014386349E+03  0.66014386349E+03  0.00000000000E+00 0. -1.
         21   -1    0    0  502  503 -0.00000000000E+00 -0.00000000000E+00 -0.17652572105E+03  0.17652572105E+03  0.00000000000E+00 0.  1.
         -6    2    1    2    0  503 -0.63653302556E+02  0.20630680592E+03  0.48648366478E+03  0.55969193995E+03  0.17313136762E+03 0.  0.
        -24    2    3    3    0    0 -0.55196318084E+02  0.44430642459E+02  0.25681013339E+03  0.27853818504E+03  0.81310272358E+02 0.  0.
          6    2    1    2  501    0  0.63653302556E+02 -0.20630680592E+03 -0.28655223408E+01  0.27697764459E+03  0.17347669380E+03 0.  0.
         24    2    5    5    0    0  0.82436271684E+02 -0.13609871544E+03 -0.55700258797E+02  0.18700222976E+03  0.80924136519E+02 0.  0.
          5    1    5    5  501    0 -0.18782969127E+02 -0.70208090476E+02  0.52834736457E+02  0.89975414831E+02  0.47000000000E+01 0. -1.
        -13    1    6    6    0    0  0.10112705537E+02  0.75894010641E+01  0.68806321401E+01  0.14394753226E+02  0.00000000000E+00 0.  1.
         14    1    6    6    0    0  0.72323566147E+02 -0.14368811651E+03 -0.62580890937E+02  0.17260747654E+03  0.00000000000E+00 0. -1.
         -5    1    3    3    0  503 -0.84569844728E+01  0.16187616346E+03  0.22967353139E+03  0.28115375491E+03  0.47000000000E+01 0.  1.
         11    1    4    4    0    0 -0.59530601459E+02  0.52229305505E+02  0.13584113517E+03  0.15724060184E+03  0.00000000000E+00 0. -1.
        -12    1    4    4    0    0  0.43342833756E+01 -0.77986630459E+01  0.12096899822E+03  0.12129758319E+03  0.00000000000E+00 0.  1.
<mgrwt>
<rscale>  2 0.27690876E+03</rscale>
<asrwt>0</asrwt>
<pdfrwt beam="1">  1       21 0.10156059E+00 0.27696282E+03</pdfrwt>
<pdfrwt beam="2">  1       21 0.27157804E-01 0.27696282E+03</pdfrwt>
<totfact> 0.97153278E+03</totfact>
</mgrwt>
</event>
<event>
12    1  0.1071811E-001  0.1815582E+03  0.7546771E-02  0.1166655E+00
         21   -1    0    0  503  502  0.00000000000E+00  0.00000000000E+00  0.41688242229E+03  0.41688242229E+03  0.00000000000E+00 0. -1.
         21   -1    0    0  501  503 -0.00000000000E+00 -0.00000000000E+00 -0.14975890447E+03  0.14975890447E+03  0.00000000000E+00 0. -1.
          6    2    1    2  501    0  0.16207544503E+01 -0.38158263818E+02 -0.61677108406E+02  0.19174839100E+03  0.17749563320E+03 0.  0.
         24    2    3    3    0    0  0.34799143458E+02 -0.76152256734E+02 -0.78810119491E+01  0.11785347244E+03  0.82566240227E+02 0.  0.
         -6    2    1    2    0  502 -0.16207544503E+01  0.38158263818E+02  0.32880062622E+03  0.37489293576E+03  0.17600051573E+03 0.  0.
        -24    2    5    5    0    0 -0.67688829518E+02  0.15474009393E+02  0.17439852368E+03  0.20535926592E+03  0.83284815110E+02 0.  0.
          5    1    3    3  501    0 -0.33178389008E+02  0.37993992916E+02 -0.53796096457E+02  0.73894918559E+02  0.47000000000E+01 0. -1.
        -11    1    4    4    0    0 -0.89257430363E+01 -0.66465350377E+01  0.26568254869E+02  0.28804817020E+02  0.00000000000E+00 0.  1.
         12    1    4    4    0    0  0.43724886494E+02 -0.69505721697E+02 -0.34449266818E+02  0.89048655418E+02  0.00000000000E+00 0. -1.
         -5    1    5    5    0  502  0.66068075068E+02  0.22684254425E+02  0.15440210254E+03  0.16953366985E+03  0.47000000000E+01 0.  1.
         11    1    6    6    0    0 -0.10980724101E+02  0.27859949637E+02  0.12681644318E+03  0.13030411872E+03  0.00000000000E+00 0. -1.
        -12    1    6    6    0    0 -0.56708105417E+02 -0.12385940244E+02  0.47582080505E+02  0.75055147198E+02  0.00000000000E+00 0.  1.
<mgrwt>
<rscale>  2 0.18119174E+03</rscale>
<asrwt>0</asrwt>
<pdfrwt beam="1">  1       21 0.64135757E-01 0.18155820E+03</pdfrwt>
<pdfrwt beam="2">  1       21 0.23039832E-01 0.18155820E+03</pdfrwt>
<totfact> 0.39917353E+04</totfact>
</mgrwt>
</event>
<event>
12    1  0.1071811E-001  0.1849549E+03  0.7546771E-02  0.1163676E+00
         21   -1    0    0  503  502  0.00000000000E+00  0.00000000000E+00  0.91948302993E+03  0.91948302993E+03  0.00000000000E+00 0.  1.
         21   -1    0    0  501  503 -0.00000000000E+00 -0.00000000000E+00 -0.46049604160E+02  0.46049604160E+02  0.00000000000E+00 0.  1.
          6    2    1    2  501    0 -0.56995597431E+02  0.15723370952E+02  0.21691004765E+03  0.28345401015E+03  0.17262816856E+03 0.  0.
         24    2    3    3    0    0 -0.28173646232E+01 -0.30822171917E+02  0.24818809539E+02  0.78459126728E+02  0.67689862128E+02 0.  0.
         -6    2    1    2    0  502  0.56995597431E+02 -0.15723370952E+02  0.65652337813E+03  0.68207862394E+03  0.17525005190E+03 0.  0.
        -24    2    5    5    0    0  0.99105127865E+02 -0.13152066820E+02  0.35094844663E+03  0.37356938110E+03  0.79965411743E+02 0.  0.
          5    1    3    3  501    0 -0.54178232808E+02  0.46545542869E+02  0.19209123811E+03  0.20499488342E+03  0.47000000000E+01 0. -1.
        -13    1    4    4    0    0 -0.24579219098E+02 -0.30304520542E+02 -0.72629791847E+01  0.39689455065E+02  0.00000000000E+00 0.  1.
         14    1    4    4    0    0  0.21761854475E+02 -0.51765137510E+00  0.32081788724E+02  0.38769671663E+02  0.00000000000E+00 0. -1.
         -5    1    5    5    0  502 -0.42109530434E+02 -0.25713041322E+01  0.30557493150E+03  0.30850924284E+03  0.47000000000E+01 0.  1.
         11    1    6    6    0    0  0.48312743243E+02 -0.40005765627E+02  0.11795124925E+03  0.13359296255E+03  0.00000000000E+00 0. -1.
        -12    1    6    6    0    0  0.50792384622E+02  0.26853698807E+02  0.23299719738E+03  0.23997641855E+03  0.00000000000E+00 0.  1.
<mgrwt>
<rscale>  2 0.18433112E+03</rscale>
<asrwt>0</asrwt>
<pdfrwt beam="1">  1       21 0.14145891E+00 0.18495487E+03</pdfrwt>
<pdfrwt beam="2">  1       21 0.70845552E-02 0.18495487E+03</pdfrwt>
<totfact> 0.51827751E+04</totfact>
</mgrwt>
</event>
<event>
12    1  0.1071811E-001  0.2104739E+03  0.7546771E-02  0.1142994E+00
         21   -1    0    0  501  502  0.00000000000E+00  0.00000000000E+00  0.13359991648E+03  0.13359991648E+03  0.00000000000E+00 0. -1.
         21   -1    0    0  502  503 -0.00000000000E+00 -0.00000000000E+00 -0.47683269682E+03  0.47683269682E+03  0.00000000000E+00 0. -1.
         -6    2    1    2    0  503  0.90495526978E+02  0.61203350764E+02 -0.34544978502E+03  0.39994706648E+03  0.16937181425E+03 0.  0.
        -24    2    3    3    0    0  0.85016637757E+02  0.77980389691E+01 -0.31832619273E+03  0.33961527706E+03  0.81965439843E+02 0.  0.
          6    2    1    2  501    0 -0.90495526978E+02 -0.61203350764E+02  0.22170046855E+01  0.21048554682E+03  0.17989986037E+03 0.  0.
         24    2    5    5    0    0  0.11298498952E+02  0.17445638309E+02  0.95173891820E+01  0.81555050771E+02  0.78285625978E+02 0.  0.
          5    1    5    5  501    0 -0.10179402593E+03 -0.78648989073E+02 -0.73003844964E+01  0.12893049605E+03  0.47000000000E+01 0. -1.
        -11    1    6    6    0    0 -0.14777413548E+02 -0.45452582107E+01 -0.27294256068E+02  0.31368897616E+02  0.00000000000E+00 0.  1.
         12    1    6    6    0    0  0.26075912500E+02  0.21990896520E+02  0.36811645250E+02  0.50186153154E+02  0.00000000000E+00 0. -1.
         -5    1    3    3    0  503  0.54788892202E+01  0.53405311795E+02 -0.27123592295E+02  0.60331789415E+02  0.47000000000E+01 0.  1.
         13    1    4    4    0    0  0.69904085542E+02 -0.26121030400E+01 -0.10919308809E+03  0.12967858244E+03  0.00000000000E+00 0. -1.
        -14    1    4    4    0    0  0.15112552215E+02  0.10410142009E+02 -0.20913310464E+03  0.20993669462E+03  0.00000000000E+00 0.  1.
<mgrwt>
<rscale>  2 0.20820634E+03</rscale>
<asrwt>0</asrwt>
<pdfrwt beam="1">  1       21 0.20553833E-01 0.21047387E+03</pdfrwt>
<pdfrwt beam="2">  1       21 0.73358877E-01 0.21047387E+03</pdfrwt>
<totfact> 0.36291132E+04</totfact>
</mgrwt>
</event>
<event>
12    1  0.1071811E-001  0.2947242E+03  0.7546771E-02  0.1087993E+00
         21   -1    0    0  501  502  0.00000000000E+00  0.00000000000E+00  0.28906094935E+03  0.28906094935E+03  0.00000000000E+00 0. -1.
         21   -1    0    0  502  503 -0.00000000000E+00 -0.00000000000E+00 -0.41021091700E+03  0.41021091700E+03  0.00000000000E+00 0. -1.
         -6    2    1    2    0  503  0.19975643682E+03  0.12970957576E+03 -0.24200064918E+03  0.38134849494E+03  0.17359479338E+03 0.  0.
        -24    2    3    3    0    0  0.21568632036E+03  0.11563788954E+03 -0.17616888806E+03  0.31201102804E+03  0.80141713311E+02 0.  0.
          6    2    1    2  501    0 -0.19975643682E+03 -0.12970957576E+03  0.12085068153E+03  0.31792337141E+03  0.17246209660E+03 0.  0.
         24    2    5    5    0    0 -0.10497932196E+03 -0.84157741176E+02 -0.10929799512E+01  0.15683327949E+03  0.80574806936E+02 0.  0.
          5    1    5    5  501    0 -0.94777114866E+02 -0.45551834581E+02  0.12194366148E+03  0.16109009191E+03  0.47000000000E+01 0. -1.
        -13    1    6    6    0    0 -0.11153787654E+03 -0.92587588979E+02 -0.59913290058E+01  0.14508292649E+03  0.00000000000E+00 0.  1.
         14    1    6    6    0    0  0.65585545834E+01  0.84298478021E+01  0.48983490546E+01  0.11750353001E+02  0.00000000000E+00 0. -1.
         -5    1    3    3    0  503 -0.15929883534E+02  0.14071686217E+02 -0.65831761127E+02  0.69337466895E+02  0.47000000000E+01 0.  1.
         11    1    4    4    0    0  0.31289393369E+02  0.38507719955E+02 -0.69665496097E+02  0.85528661746E+02  0.00000000000E+00 0. -1.
        -12    1    4    4    0    0  0.18439692699E+03  0.77130169586E+02 -0.10650339196E+03  0.22648236629E+03  0.00000000000E+00 0.  1.
<mgrwt>
<rscale>  2 0.29455763E+03</rscale>
<asrwt>0</asrwt>
<pdfrwt beam="1">  1       21 0.44470915E-01 0.29472421E+03</pdfrwt>
<pdfrwt beam="2">  1       21 0.63109372E-01 0.29472421E+03</pdfrwt>
<totfact> 0.10652852E+04</totfact>
</mgrwt>
</event>
<event>
12    1  0.1071811E-001  0.2324838E+03  0.7546771E-02  0.1125167E+00
         21   -1    0    0  501  502  0.00000000000E+00  0.00000000000E+00  0.80743893767E+02  0.80743893767E+02  0.00000000000E+00 0. -1.
         21   -1    0    0  502  503 -0.00000000000E+00 -0.00000000000E+00 -0.81928462046E+03  0.81928462046E+03  0.00000000000E+00 0.  1.
         -6    2    1    2    0  503 -0.14641989912E+03  0.50118326747E+02 -0.56355233709E+03  0.60904799630E+03  0.17145725888E+03 0.  0.
        -24    2    3    3    0    0 -0.97709504005E+02 -0.29297089736E+02 -0.24817725162E+03  0.28016648952E+03  0.80596817477E+02 0.  0.
          6    2    1    2  501    0  0.14641989912E+03 -0.50118326747E+02 -0.17498838960E+03  0.29098051792E+03  0.17348801624E+03 0.  0.
         24    2    5    5    0    0  0.40126146205E+02 -0.59674835031E+02 -0.14364564804E+03  0.17965151807E+03  0.80432594128E+02 0.  0.
          5    1    5    5  501    0  0.10629375292E+03  0.95565082838E+01 -0.31342741560E+02  0.11132899985E+03  0.47000000000E+01 0. -1.
        -11    1    6    6    0    0  0.61599300902E+02 -0.24572203349E+02 -0.96235494272E+02  0.11687402366E+03  0.00000000000E+00 0.  1.
         12    1    6    6    0    0 -0.21473154697E+02 -0.35102631682E+02 -0.47410153767E+02  0.62777494406E+02  0.00000000000E+00 0. -1.
         -5    1    3    3    0  503 -0.48710395119E+02  0.79415416483E+02 -0.31537508547E+03  0.32888150678E+03  0.47000000000E+01 0.  1.
         11    1    4    4    0    0  0.13905229597E+02 -0.38740551849E+01 -0.41004489438E+02  0.43471046316E+02  0.00000000000E+00 0. -1.
        -12    1    4    4    0    0 -0.11161473360E+03 -0.25423034551E+02 -0.20717276218E+03  0.23669544320E+03  0.00000000000E+00 0.  1.
<mgrwt>
<rscale>  2 0.23210503E+03</rscale>
<asrwt>0</asrwt>
<pdfrwt beam="1">  1       21 0.12422138E-01 0.23248382E+03</pdfrwt>
<pdfrwt beam="2">  1       21 0.12604379E+00 0.23248382E+03</pdfrwt>
<totfact> 0.25176807E+04</totfact>
</mgrwt>
</event>
<event>
12    1  0.1071811E-001  0.1777755E+03  0.7546771E-02  0.1170441E+00
         21   -1    0    0  503  502  0.00000000000E+00  0.00000000000E+00  0.20961106589E+04  0.20961106589E+04  0.00000000000E+00 0.  1.
         21   -1    0    0  501  503 -0.00000000000E+00 -0.00000000000E+00 -0.14972529193E+02  0.14972529193E+02  0.00000000000E+00 0.  1.
          6    2    1    2  501    0  0.28930947435E+02  0.14512951227E+02  0.10990364422E+04  0.11130211364E+04  0.17287950530E+03 0.  0.
         24    2    3    3    0    0  0.67957001088E+02  0.31860712690E+02  0.99272984166E+03  0.99836006626E+03  0.74679477552E+02 0.  0.
         -6    2    1    2    0  502 -0.28930947435E+02 -0.14512951227E+02  0.98210168749E+03  0.99806205166E+03  0.17480420166E+03 0.  0.
        -24    2    5    5    0    0  0.18151073831E+02  0.53495313123E+02  0.54765472663E+03  0.55578601506E+03  0.76034103749E+02 0.  0.
          5    1    3    3  501    0 -0.39026053653E+02 -0.17347761463E+02  0.10630660055E+03  0.11466107017E+03  0.47000000000E+01 0. -1.
        -11    1    4    4    0    0  0.62484027877E+02 -0.99018331065E+01  0.54777211121E+03  0.55141326232E+03  0.00000000000E+00 0.  1.
         12    1    4    4    0    0  0.54729732111E+01  0.41762545796E+02  0.44495773045E+03  0.44694680394E+03  0.00000000000E+00 0. -1.
         -5    1    5    5    0  502 -0.47082021265E+02 -0.68008264350E+02  0.43444696086E+03  0.44227603660E+03  0.47000000000E+01 0.  1.
         11    1    6    6    0    0  0.15940161098E+01  0.16883463322E+02  0.44820246564E+03  0.44852317937E+03  0.00000000000E+00 0. -1.
        -12    1    6    6    0    0  0.16557057721E+02  0.36611849801E+02  0.99452260985E+02  0.10726283569E+03  0.00000000000E+00 0.  1.
<mgrwt>
<rscale>  2 0.17730057E+03</rscale>
<asrwt>0</asrwt>
<pdfrwt beam="1">  1       21 0.32247833E+00 0.17777552E+03</pdfrwt>
<pdfrwt beam="2">  1       21 0.23034677E-02 0.17777552E+03</pdfrwt>
<totfact> 0.25145158E+04</totfact>
</mgrwt>
</event>
<event>
12    1  0.1071811E-001  0.1875963E+03  0.7546771E-02  0.1160676E+00
         21   -1    0    0  503  502  0.00000000000E+00  0.00000000000E+00  0.50145852514E+03  0.50145852514E+03  0.00000000000E+00 0.  1.
         21   -1    0    0  501  503 -0.00000000000E+00 -0.00000000000E+00 -0.16663815812E+03  0.16663815812E+03  0.00000000000E+00 0.  1.
          6    2    1    2  501    0  0.43671925602E+01 -0.73212561438E+02 -0.86826743825E+02  0.20660056747E+03  0.17252756160E+03 0.  0.
         24    2    3    3    0    0 -0.49925721772E+02  0.18658757017E+01 -0.38191673512E+02  0.10185347999E+03  0.80121584322E+02 0.  0.
         -6    2    1    2    0  502 -0.43671925602E+01  0.73212561438E+02  0.42164711085E+03  0.46149611579E+03  0.17266507255E+03 0.  0.
        -24    2    5    5    0    0  0.25615207003E+02 -0.12707979489E+02  0.28418328388E+03  0.29657286891E+03  0.79860479362E+02 0.  0.
          5    1    3    3  501    0  0.54292914332E+02 -0.75078437139E+02 -0.48635070313E+02  0.10474708747E+03  0.47000000000E+01 0. -1.
        -13    1    4    4    0    0  0.91258550833E+01 -0.84666725359E+01 -0.39984942129E+02  0.41877934188E+02  0.00000000000E+00 0.  1.
         14    1    4    4    0    0 -0.59051576855E+02  0.10332548238E+02  0.17932686169E+01  0.59975545804E+02  0.00000000000E+00 0. -1.
         -5    1    5    5    0  502 -0.29982399564E+02  0.85920540926E+02  0.13746382697E+03  0.16492324688E+03  0.47000000000E+01 0.  1.
         13    1    6    6    0    0 -0.13247139200E+02 -0.29199804228E+02  0.56111401512E+02  0.64626655828E+02  0.00000000000E+00 0. -1.
        -14    1    6    6    0    0  0.38862346204E+02  0.16491824739E+02  0.22807188237E+03  0.23194621308E+03  0.00000000000E+00 0.  1.
<mgrwt>
<rscale>  2 0.18756467E+03</rscale>
<asrwt>0</asrwt>
<pdfrwt beam="1">  1       21 0.77147465E-01 0.18759632E+03</pdfrwt>
<pdfrwt beam="2">  1       21 0.25636640E-01 0.18759632E+03</pdfrwt>
<totfact> 0.21610614E+04</totfact>
</mgrwt>
</event>
<event>
12    1  0.1071811E-001  0.2259942E+03  0.7546771E-02  0.1129576E+00
         21   -1    0    0  503  502  0.00000000000E+00  0.00000000000E+00  0.80709031193E+03  0.80709031193E+03  0.00000000000E+00 0. -1.
         21   -1    0    0  501  503 -0.00000000000E+00 -0.00000000000E+00 -0.63541548054E+02  0.63541548054E+02  0.00000000000E+00 0.  1.
          6    2    1    2  501    0  0.14546873883E+03 -0.11018040125E+02  0.33722982143E+03  0.40569263972E+03  0.17198841321E+03 0.  0.
         24    2    3    3    0    0  0.12655410994E+03  0.14261212683E+02  0.34191866960E+03  0.37342998165E+03  0.79512575381E+02 0.  0.
         -6    2    1    2    0  502 -0.14546873883E+03  0.11018040125E+02  0.40631894244E+03  0.46493922026E+03  0.17260024438E+03 0.  0.
        -24    2    5    5    0    0 -0.11568213510E+03 -0.43341807490E+02  0.35342426484E+03  0.38331709266E+03  0.82233897464E+02 0.  0.
          5    1    3    3  501    0  0.18914628892E+02 -0.25279252808E+02 -0.46888481712E+01  0.32262658071E+02  0.47000000000E+01 0. -1.
        -11    1    4    4    0    0  0.54690861633E+02 -0.97018585508E+01  0.61102597267E+02  0.82575685273E+02  0.00000000000E+00 0.  1.
         12    1    4    4    0    0  0.71863248309E+02  0.23963071234E+02  0.28081607234E+03  0.29085429638E+03  0.00000000000E+00 0. -1.
         -5    1    5    5    0  502 -0.29786603729E+02  0.54359847615E+02  0.52894677605E+02  0.81622127596E+02  0.47000000000E+01 0.  1.
         11    1    6    6    0    0 -0.30684760857E+02 -0.53115237909E+02  0.17501663263E+03  0.18545512866E+03  0.00000000000E+00 0. -1.
        -12    1    6    6    0    0 -0.84997374248E+02  0.97734304190E+01  0.17840763220E+03  0.19786196400E+03  0.00000000000E+00 0.  1.
<mgrwt>
<rscale>  2 0.22587741E+03</rscale>
<asrwt>0</asrwt>
<pdfrwt beam="1">  1       21 0.12416773E+00 0.22599424E+03</pdfrwt>
<pdfrwt beam="2">  1       21 0.97756233E-02 0.22599424E+03</pdfrwt>
<totfact> 0.40240592E+04</totfact>
</mgrwt>
</event>
<event>
12    1  0.1071811E-001  0.1939776E+03  0.7546771E-02  0.1155123E+00
         21   -1    0    0  501  502  0.00000000000E+00  0.00000000000E+00  0.39119451660E+03  0.39119451660E+03  0.00000000000E+00 0. -1.
         21   -1    0    0  502  503 -0.00000000000E+00 -0.00000000000E+00 -0.11700838509E+03  0.11700838509E+03  0.00000000000E+00 0. -1.
         -6    2    1    2    0  503 -0.75454239438E+02  0.45997972494E+02  0.28476285118E+02  0.19515234815E+03  0.17165192819E+03 0.  0.
        -24    2    3    3    0    0 -0.10173553350E+03  0.63658802523E+02 -0.93525683707E+01  0.14559709120E+03  0.81905314333E+02 0.  0.
          6    2    1    2  501    0  0.75454239438E+02 -0.45997972494E+02  0.24570984639E+03  0.31305055354E+03  0.17267936975E+03 0.  0.
         24    2    5    5    0    0 -0.58357328739E+00  0.55555917508E+01  0.45665050105E+02  0.92869878934E+02  0.80674112667E+02 0.  0.
          5    1    5    5  501    0  0.76037812725E+02 -0.51553564245E+02  0.20004479629E+03  0.22018067461E+03  0.47000000000E+01 0. -1.
        -11    1    6    6    0    0 -0.28512610049E+02 -0.82428626579E+01  0.53110214617E+02  0.60840846586E+02  0.00000000000E+00 0.  1.
         12    1    6    6    0    0  0.27929036762E+02  0.13798454409E+02 -0.74451645121E+01  0.32029032347E+02  0.00000000000E+00 0. -1.
         -5    1    3    3    0  503  0.26281294065E+02 -0.17660830029E+02  0.37828853488E+02  0.49555256949E+02  0.47000000000E+01 0.  1.
         13    1    4    4    0    0  0.55304634579E+01 -0.30578257472E+00 -0.19523322774E+02  0.20293833082E+02  0.00000000000E+00 0. -1.
        -14    1    4    4    0    0 -0.10726599696E+03  0.63964585098E+02  0.10170754403E+02  0.12530325812E+03  0.00000000000E+00 0.  1.
<mgrwt>
<rscale>  2 0.19374871E+03</rscale>
<asrwt>0</asrwt>
<pdfrwt beam="1">  1       21 0.60183771E-01 0.19397763E+03</pdfrwt>
<pdfrwt beam="2">  1       21 0.18001290E-01 0.19397763E+03</pdfrwt>
<totfact> 0.72225671E+04</totfact>
</mgrwt>
</event>
<event>
12    1  0.1071811E-001  0.2416066E+03  0.7546771E-02  0.1119351E+00
         21   -1    0    0  501  502  0.00000000000E+00  0.00000000000E+00  0.13071670764E+03  0.13071670764E+03  0.00000000000E+00 0. -1.
         21   -1    0    0  502  503 -0.00000000000E+00 -0.00000000000E+00 -0.48617663022E+03  0.48617663022E+03  0.00000000000E+00 0.  1.
         -6    2    1    2    0  503 -0.15922085414E+03 -0.53448429033E+02 -0.81073651503E+02  0.25129578158E+03  0.16842986051E+03 0.  0.
        -24    2    3    3    0    0 -0.84847781503E+02 -0.73297150759E+02  0.15965218458E+01  0.13823927691E+03  0.80845101658E+02 0.  0.
          6    2    1    2  501    0  0.15922085414E+03  0.53448429033E+02 -0.27438627108E+03  0.36559755628E+03  0.17368285017E+03 0.  0.
         24    2    5    5    0    0  0.11149852557E+03  0.10343709423E+03 -0.18907631598E+03  0.25570594727E+03  0.80650632590E+02 0.  0.
          5    1    5    5  501    0  0.47722328568E+02 -0.49988665195E+02 -0.85309955103E+02  0.10989160901E+03  0.47000000000E+01 0. -1.
        -13    1    6    6    0    0  0.17914063012E+01  0.32352597728E+02 -0.76907930762E+02  0.83454955098E+02  0.00000000000E+00 0.  1.
         14    1    6    6    0    0  0.10970711927E+03  0.71084496501E+02 -0.11216838521E+03  0.17225099217E+03  0.00000000000E+00 0. -1.
         -5    1    3    3    0  503 -0.74373072638E+02  0.19848721726E+02 -0.82670173349E+02  0.11305650467E+03  0.47000000000E+01 0.  1.
         11    1    4    4    0    0 -0.37377213827E+02 -0.23103205230E+02  0.39806549257E+02  0.59290602705E+02  0.00000000000E+00 0. -1.
        -12    1    4    4    0    0 -0.47470567676E+02 -0.50193945529E+02 -0.38210027411E+02  0.78948674200E+02  0.00000000000E+00 0.  1.
<mgrwt>
<rscale>  2 0.24066405E+03</rscale>
<asrwt>0</asrwt>
<pdfrwt beam="1">  1       21 0.20110263E-01 0.24160660E+03</pdfrwt>
<pdfrwt beam="2">  1       21 0.74796405E-01 0.24160660E+03</pdfrwt>
<totfact> 0.35666807E+04</totfact>
</mgrwt>
</event>
<event>
12    1  0.1071811E-001  0.1831657E+03  0.7546771E-02  0.1164928E+00
         21   -1    0    0  501  502  0.00000000000E+00  0.00000000000E+00  0.12043382385E+03  0.12043382385E+03  0.00000000000E+00 0. -1.
         21   -1    0    0  502  503 -0.00000000000E+00 -0.00000000000E+00 -0.37780176268E+03  0.37780176268E+03  0.00000000000E+00 0. -1.
         -6    2    1    2    0  503 -0.58042314761E+02 -0.16492159953E+02 -0.25681922498E+03  0.31506909693E+03  0.17225423036E+03 0.  0.
        -24    2    3    3    0    0 -0.61057560497E+01 -0.12359042707E+02 -0.24923872439E+03  0.26221039114E+03  0.80276530133E+02 0.  0.
          6    2    1    2  501    0  0.58042314761E+02  0.16492159953E+02 -0.54871385520E+00  0.18316648960E+03  0.17294149353E+03 0.  0.
         24    2    5    5    0    0  0.64680646279E+02  0.57941752892E+02  0.42365601861E+02  0.12295133625E+03  0.76035216397E+02 0.  0.
          5    1    5    5  501    0 -0.66383315182E+01 -0.41449592939E+02 -0.42914315717E+02  0.60215153355E+02  0.47000000000E+01 0. -1.
        -13    1    6    6    0    0  0.29438682682E+02  0.61192208706E+02  0.20547427873E+00  0.67905556945E+02  0.00000000000E+00 0.  1.
         14    1    6    6    0    0  0.35241963597E+02 -0.32504558139E+01  0.42160127583E+02  0.55045779302E+02  0.00000000000E+00 0. -1.
         -5    1    3    3    0  503 -0.51936558711E+02 -0.41331172461E+01 -0.75805005888E+01  0.52858705793E+02  0.47000000000E+01 0.  1.
         11    1    4    4    0    0  0.31139323706E+00 -0.46493622863E+02 -0.13294459840E+03  0.14084040676E+03  0.00000000000E+00 0. -1.
        -12    1    4    4    0    0 -0.64171492868E+01  0.34134580156E+02 -0.11629412599E+03  0.12136998437E+03  0.00000000000E+00 0.  1.
<mgrwt>
<rscale>  2 0.18300326E+03</rscale>
<asrwt>0</asrwt>
<pdfrwt beam="1">  1       21 0.18528281E-01 0.18316567E+03</pdfrwt>
<pdfrwt beam="2">  1       21 0.58123348E-01 0.18316567E+03</pdfrwt>
<totfact> 0.74107001E+04</totfact>
</mgrwt>
</event>
<event>
12    1  0.1071811E-001  0.2977031E+03  0.7546771E-02  0.1086466E+00
         21   -1    0    0  503  502  0.00000000000E+00  0.00000000000E+00  0.26394539225E+03  0.26394539225E+03  0.00000000000E+00 0. -1.
         21   -1    0    0  501  503 -0.00000000000E+00 -0.00000000000E+00 -0.49481400069E+03  0.49481400069E+03  0.00000000000E+00 0. -1.
          6    2    1    2  501    0  0.21096376445E+03  0.11895344148E+03 -0.33086984950E+03  0.44470943703E+03  0.17215108168E+03 0.  0.
         24    2    3    3    0    0  0.15044823964E+03  0.83470029048E+02 -0.31955455390E+03  0.37349618535E+03  0.88217736294E+02 0.  0.
         -6    2    1    2    0  502 -0.21096376445E+03 -0.11895344148E+03  0.10000124106E+03  0.31404995591E+03  0.17312277564E+03 0.  0.
        -24    2    5    5    0    0 -0.54006331989E+02 -0.81291691800E+02  0.84502368657E+02  0.15182681318E+03  0.79910624079E+02 0.  0.
          5    1    3    3  501    0  0.60515524802E+02  0.35483412431E+02 -0.11315295609E+02  0.71213251678E+02  0.47000000000E+01 0. -1.
        -11    1    4    4    0    0  0.70047010066E+02  0.17753446129E+02 -0.21207254859E+03  0.22404583088E+03  0.00000000000E+00 0.  1.
         12    1    4    4    0    0  0.80401229578E+02  0.65716582919E+02 -0.10748200531E+03  0.14945035448E+03  0.00000000000E+00 0. -1.
         -5    1    5    5    0  502 -0.15695743246E+03 -0.37661749678E+02  0.15498872406E+02  0.16222314273E+03  0.47000000000E+01 0.  1.
         11    1    6    6    0    0 -0.57418523132E+02 -0.23816229443E+02  0.19852589782E+02  0.65255075699E+02  0.00000000000E+00 0. -1.
        -12    1    6    6    0    0  0.34121911423E+01 -0.57475462358E+02  0.64649778875E+02  0.86571737480E+02  0.00000000000E+00 0.  1.
<mgrwt>
<rscale>  2 0.29756198E+03</rscale>
<asrwt>0</asrwt>
<pdfrwt beam="1">  1       21 0.40606983E-01 0.29770308E+03</pdfrwt>
<pdfrwt beam="2">  1       21 0.76125231E-01 0.29770308E+03</pdfrwt>
<totfact> 0.84502651E+03</totfact>
</mgrwt>
</event>
<event>
12    1  0.1071811E-001  0.2009044E+03  0.7546771E-02  0.1148990E+00
         21   -1    0    0  503  502  0.00000000000E+00  0.00000000000E+00  0.24708070919E+02  0.24708070919E+02  0.00000000000E+00 0.  1.
         21   -1    0    0  501  503 -0.00000000000E+00 -0.00000000000E+00 -0.16830109796E+04  0.16830109796E+04  0.00000000000E+00 0. -1.
          6    2    1    2  501    0 -0.50413206286E+02  0.86156561718E+02 -0.97629003587E+03  0.99674711453E+03  0.17435059990E+03 0.  0.
         24    2    3    3    0    0 -0.48969110682E+02  0.95608558890E+02 -0.97688002882E+03  0.98607641847E+03  0.80704039766E+02 0.  0.
         -6    2    1    2    0  502  0.50413206286E+02 -0.86156561718E+02 -0.68201287286E+03  0.71097193604E+03  0.17428451048E+03 0.  0.
        -24    2    5    5    0    0  0.13880545069E+02 -0.97520716110E+00 -0.50021843131E+03  0.50685969369E+03  0.80589388267E+02 0.  0.
          5    1    3    3  501    0 -0.14440956041E+01 -0.94519971721E+01  0.58999294465E+00  0.10670696056E+02  0.47000000000E+01 0. -1.
        -11    1    4    4    0    0 -0.28973289073E+02  0.95374102864E+02 -0.56600155432E+03  0.57471160634E+03  0.00000000000E+00 0.  1.
         12    1    4    4    0    0 -0.19995821609E+02  0.23445602602E+00 -0.41087847450E+03  0.41136481213E+03  0.00000000000E+00 0. -1.
         -5    1    5    5    0  502  0.36532661217E+02 -0.85181354557E+02 -0.18179444155E+03  0.20411224235E+03  0.47000000000E+01 0.  1.
         13    1    6    6    0    0  0.46433076292E+02 -0.47096386455E+01 -0.35078542051E+03  0.35387656395E+03  0.00000000000E+00 0. -1.
        -14    1    6    6    0    0 -0.32552531222E+02  0.37344314844E+01 -0.14943301080E+03  0.15298312974E+03  0.00000000000E+00 0.  1.
<mgrwt>
<rscale>  2 0.20089006E+03</rscale>
<asrwt>0</asrwt>
<pdfrwt beam="1">  1       21 0.38012413E-02 0.20090440E+03</pdfrwt>
<pdfrwt beam="2">  1       21 0.25892480E+00 0.20090440E+03</pdfrwt>
<totfact> 0.24980670E+04</totfact>
</mgrwt>
</event>
<event>
12    1  0.1071811E-001  0.1975667E+03  0.7546771E-02  0.1152687E+00
         21   -1    0    0  503  502  0.00000000000E+00  0.00000000000E+00  0.34741420037E+03  0.34741420037E+03  0.00000000000E+00 0. -1.
         21   -1    0    0  501  503 -0.00000000000E+00 -0.00000000000E+00 -0.14379841059E+03  0.14379841059E+03  0.00000000000E+00 0. -1.
          6    2    1    2  501    0  0.92413329558E+02 -0.19826445623E+02 -0.16350779945E+02  0.19824215976E+03  0.17349148243E+03 0.  0.
         24    2    3    3    0    0  0.37954802453E+02 -0.74589459278E+02 -0.27909767270E+02  0.12000905279E+03  0.81357625192E+02 0.  0.
         -6    2    1    2    0  502 -0.92413329558E+02  0.19826445623E+02  0.21996656973E+03  0.29297045120E+03  0.16885817140E+03 0.  0.
        -24    2    5    5    0    0 -0.10720784123E+03 -0.29644087723E+02  0.18400589461E+03  0.22987154946E+03  0.81304777479E+02 0.  0.
          5    1    3    3  501    0  0.54458527105E+02  0.54763013655E+02  0.11558987325E+02  0.78233106975E+02  0.47000000000E+01 0. -1.
        -13    1    4    4    0    0  0.62852358525E+01 -0.11788001870E+02  0.27432166983E+02  0.30512046198E+02  0.00000000000E+00 0.  1.
         14    1    4    4    0    0  0.31669566601E+02 -0.62801457408E+02 -0.55341934253E+02  0.89497006587E+02  0.00000000000E+00 0. -1.
         -5    1    5    5    0  502  0.14794511674E+02  0.49470533346E+02  0.35960675118E+02  0.63098901735E+02  0.47000000000E+01 0.  1.
         11    1    6    6    0    0 -0.98259708647E+02 -0.49306829429E+02  0.17455859667E+03  0.20629308627E+03  0.00000000000E+00 0. -1.
        -12    1    6    6    0    0 -0.89481325853E+01  0.19662741705E+02  0.94472979487E+01  0.23578463196E+02  0.00000000000E+00 0.  1.
<mgrwt>
<rscale>  2 0.19654481E+03</rscale>
<asrwt>0</asrwt>
<pdfrwt beam="1">  1       21 0.53448338E-01 0.19756671E+03</pdfrwt>
<pdfrwt beam="2">  1       21 0.22122832E-01 0.19756671E+03</pdfrwt>
<totfact> 0.63148974E+04</totfact>
</mgrwt>
</event>
<event>
12    1  0.1071811E-001  0.2258830E+03  0.7546771E-02  0.1129658E+00
         21   -1    0    0  503  502  0.00000000000E+00  0.00000000000E+00  0.61087658195E+02  0.61087658195E+02  0.00000000000E+00 0.  1.
         21   -1    0    0  501  503 -0.00000000000E+00 -0.00000000000E+00 -0.21278657840E+04  0.21278657840E+04  0.00000000000E+00 0. -1.
          6    2    1    2  501    0 -0.86989482936E+02 -0.11406971264E+03 -0.17933733338E+03  0.28804421385E+03  0.17386351115E+03 0.  0.
         24    2    3    3    0    0  0.17208622659E+02 -0.58628149965E+02 -0.11858742369E+03  0.15521479840E+03  0.79342674045E+02 0.  0.
         -6    2    1    2    0  502  0.86989482936E+02  0.11406971264E+03 -0.18874407924E+04  0.19009092283E+04  0.17448232003E+03 0.  0.
        -24    2    5    5    0    0  0.67985252283E+01  0.91482025798E+02 -0.14781665545E+04  0.14832152193E+04  0.80844561762E+02 0.  0.
          5    1    3    3  501    0 -0.10419810559E+03 -0.55441562670E+02 -0.60749909692E+02  0.13282941545E+03  0.47000000000E+01 0. -1.
        -13    1    4    4    0    0  0.18579004492E+02 -0.76290703222E+02 -0.76834417058E+02  0.10985890246E+03  0.00000000000E+00 0.  1.
         14    1    4    4    0    0 -0.13703818339E+01  0.17662553257E+02 -0.41753006628E+02  0.45355895939E+02  0.00000000000E+00 0. -1.
         -5    1    5    5    0  502  0.80190957707E+02  0.22587686838E+02 -0.40927423796E+03  0.41769400899E+03  0.47000000000E+01 0.  1.
         13    1    6    6    0    0 -0.96445120772E+01  0.81425914793E+02 -0.69630769198E+03  0.70111881883E+03  0.00000000000E+00 0. -1.
        -14    1    6    6    0    0  0.16443037306E+02  0.10056111005E+02 -0.78185886249E+03  0.78209640052E+03  0.00000000000E+00 0.  1.
<mgrwt>
<rscale>  2 0.22576354E+03</rscale>
<asrwt>0</asrwt>
<pdfrwt beam="1">  1       21 0.93981015E-02 0.22588304E+03</pdfrwt>
<pdfrwt beam="2">  1       21 0.32736396E+00 0.22588304E+03</pdfrwt>
<totfact> 0.20611028E+03</totfact>
</mgrwt>
</event>
<event>
12    1  0.1071811E-001  0.1903971E+03  0.7546771E-02  0.1158246E+00
         21   -1    0    0  503  502  0.00000000000E+00  0.00000000000E+00  0.16485360658E+03  0.16485360658E+03  0.00000000000E+00 0. -1.
         21   -1    0    0  501  503 -0.00000000000E+00 -0.00000000000E+00 -0.21937293861E+03  0.21937293861E+03  0.00000000000E+00 0. -1.
          6    2    1    2  501    0 -0.74558479206E+02 -0.28501140039E+02 -0.21477065044E+02  0.19160457284E+03  0.17285764723E+03 0.  0.
         24    2    3    3    0    0 -0.43101373667E+02 -0.32804288044E+02  0.53026166975E+02  0.11048189936E+03  0.80378019233E+02 0.  0.
         -6    2    1    2    0  502  0.74558479206E+02  0.28501140039E+02 -0.33042266988E+02  0.19262197235E+03  0.17216315233E+03 0.  0.
        -24    2    5    5    0    0  0.14818803028E+02  0.19718373165E+02  0.41344817916E+02  0.96697552605E+02  0.83860667466E+02 0.  0.
          5    1    3    3  501    0 -0.31457105539E+02  0.43031480048E+01 -0.74503232019E+02  0.81122673483E+02  0.47000000000E+01 0. -1.
        -11    1    4    4    0    0 -0.52446918885E+02 -0.43254228978E+02  0.63465654994E+02  0.93002671944E+02  0.00000000000E+00 0.  1.
         12    1    4    4    0    0  0.93455452178E+01  0.10449940934E+02 -0.10439488019E+02  0.17479227415E+02  0.00000000000E+00 0. -1.
         -5    1    5    5    0  502  0.59739676179E+02  0.87827668743E+01 -0.74387084903E+02  0.95924419750E+02  0.47000000000E+01 0.  1.
         11    1    6    6    0    0  0.43029351397E+02 -0.89652673027E+01  0.85144436663E+01  0.44770490844E+02  0.00000000000E+00 0. -1.
        -12    1    6    6    0    0 -0.28210548369E+02  0.28683640467E+02  0.32830374249E+02  0.51927061761E+02  0.00000000000E+00 0.  1.
<mgrwt>
<rscale>  2 0.19023931E+03</rscale>
<asrwt>0</asrwt>
<pdfrwt beam="1">  1       21 0.25362093E-01 0.19039708E+03</pdfrwt>
<pdfrwt beam="2">  1       21 0.33749683E-01 0.19039708E+03</pdfrwt>
<totfact> 0.12472963E+05</totfact>
</mgrwt>
</event>
<event>
12    1  0.1071811E-001  0.1838731E+03  0.7546771E-02  0.1165954E+00
         21   -1    0    0  503  502  0.00000000000E+00  0.00000000000E+00  0.24629727133E+03  0.24629727133E+03  0.00000000000E+00 0. -1.
         21   -1    0    0  501  503 -0.00000000000E+00 -0.00000000000E+00 -0.55194400592E+03  0.55194400592E+03  0.00000000000E+00 0. -1.
          6    2    1    2  501    0 -0.62029233326E+01  0.48284460900E+02 -0.50188509673E+03  0.53450722465E+03  0.17731175217E+03 0.  0.
         24    2    3    3    0    0  0.54801213640E+02 -0.37303794823E+01 -0.20076433126E+03  0.22286182720E+03  0.79649159274E+02 0.  0.
         -6    2    1    2    0  502  0.62029233326E+01 -0.48284460900E+02  0.19623836214E+03  0.26373405260E+03  0.16934075204E+03 0.  0.
        -24    2    5    5    0    0  0.58772772139E+02 -0.23837273170E+01  0.80990782637E+02  0.12892099341E+03  0.81247737001E+02 0.  0.
          5    1    3    3  501    0 -0.61004136972E+02  0.52014840383E+02 -0.30112076547E+03  0.31164539744E+03  0.47000000000E+01 0. -1.
        -13    1    4    4    0    0  0.38931710670E+02 -0.39019301620E+02 -0.90042558230E+02  0.10557389018E+03  0.00000000000E+00 0.  1.
         14    1    4    4    0    0  0.15869502970E+02  0.35288922138E+02 -0.11072177303E+03  0.11728793703E+03  0.00000000000E+00 0. -1.
         -5    1    5    5    0  502 -0.52569848806E+02 -0.45900733583E+02  0.11524757950E+03  0.13481305919E+03  0.47000000000E+01 0.  1.
         13    1    6    6    0    0  0.39989384129E+02 -0.12671496092E+02  0.94643275296E+02  0.10352326895E+03  0.00000000000E+00 0. -1.
        -14    1    6    6    0    0  0.18783388010E+02  0.10287768775E+02 -0.13652492659E+02  0.25397724451E+02  0.00000000000E+00 0.  1.
<mgrwt>
<rscale>  2 0.18192386E+03</rscale>
<asrwt>0</asrwt>
<pdfrwt beam="1">  1       21 0.37891888E-01 0.18387312E+03</pdfrwt>
<pdfrwt beam="2">  1       21 0.84914462E-01 0.18387312E+03</pdfrwt>
<totfact> 0.81185870E+03</totfact>
</mgrwt>
</event>
<event>
12    1  0.1071811E-001  0.1720523E+03  0.7546771E-02  0.1175757E+00
         21   -1    0    0  503  502  0.00000000000E+00  0.00000000000E+00  0.17768323681E+03  0.17768323681E+03  0.00000000000E+00 0. -1.
         21   -1    0    0  501  503 -0.00000000000E+00 -0.00000000000E+00 -0.76862801719E+03  0.76862801719E+03  0.00000000000E+00 0. -1.
          6    2    1    2  501    0  0.22213387663E+01 -0.19098616137E+01 -0.71424125490E+03  0.73464164672E+03  0.17189879866E+03 0.  0.
         24    2    3    3    0    0  0.15171123462E+02  0.60153218954E+02 -0.52166923694E+03  0.53184718182E+03  0.82909946961E+02 0.  0.
         -6    2    1    2    0  502 -0.22213387663E+01  0.19098616137E+01  0.12329647452E+03  0.21166960727E+03  0.17202738182E+03 0.  0.
        -24    2    5    5    0    0 -0.26787933022E+00  0.32853390804E+02  0.14826218753E+03  0.17158600927E+03  0.79879066607E+02 0.  0.
          5    1    3    3  501    0 -0.12949784696E+02 -0.62063080568E+02 -0.19257201796E+03  0.20279446490E+03  0.47000000000E+01 0. -1.
        -13    1    4    4    0    0  0.19340890617E+02 -0.16102990235E+02 -0.17971944616E+03  0.18147301637E+03  0.00000000000E+00 0.  1.
         14    1    4    4    0    0 -0.41697671553E+01  0.76256209189E+02 -0.34194979078E+03  0.35037416545E+03  0.00000000000E+00 0. -1.
         -5    1    5    5    0  502 -0.19534594361E+01 -0.30943529190E+02 -0.24965713008E+02  0.40083597999E+02  0.47000000000E+01 0.  1.
         13    1    6    6    0    0  0.14342156001E+02 -0.20091172450E+02  0.19036243839E+02  0.31172603816E+02  0.00000000000E+00 0. -1.
        -14    1    6    6    0    0 -0.14610035331E+02  0.52944563254E+02  0.12922594369E+03  0.14041340546E+03  0.00000000000E+00 0.  1.
<mgrwt>
<rscale>  2 0.17202017E+03</rscale>
<asrwt>0</asrwt>
<pdfrwt beam="1">  1       21 0.27335883E-01 0.17205232E+03</pdfrwt>
<pdfrwt beam="2">  1       21 0.11825046E+00 0.17205232E+03</pdfrwt>
<totfact> 0.71033008E+03</totfact>
</mgrwt>
</event>
<event>
12    1  0.1071811E-001  0.1858944E+03  0.7546771E-02  0.1162368E+00
         21   -1    0    0  503  502  0.00000000000E+00  0.00000000000E+00  0.80514141073E+03  0.80514141073E+03  0.00000000000E+00 0. -1.
         21   -1    0    0  501  503 -0.00000000000E+00 -0.00000000000E+00 -0.83197240347E+02  0.83197240347E+02  0.00000000000E+00 0. -1.
          6    2    1    2  501    0 -0.63168476019E+02 -0.28602284575E+02  0.51676338817E+02  0.19294347967E+03  0.17247723127E+03 0.  0.
         24    2    3    3    0    0 -0.33057419176E+02 -0.21300141802E+02 -0.36457200895E+02  0.99404141124E+02  0.83699263869E+02 0.  0.
         -6    2    1    2    0  502  0.63168476019E+02  0.28602284575E+02  0.67026783157E+03  0.69539517141E+03  0.17177639925E+03 0.  0.
        -24    2    5    5    0    0  0.42565498915E+02 -0.53063443305E+01  0.63685426798E+03  0.64331029826E+03  0.80154863913E+02 0.  0.
          5    1    3    3  501    0 -0.30111056843E+02 -0.73021427732E+01  0.88133539711E+02  0.93539338544E+02  0.47000000000E+01 0. -1.
        -11    1    4    4    0    0  0.21774754683E+02 -0.29876851698E+02 -0.13911351985E+02  0.39500530667E+02  0.00000000000E+00 0.  1.
         12    1    4    4    0    0 -0.54832173859E+02  0.85767098963E+01 -0.22545848909E+02  0.59903610457E+02  0.00000000000E+00 0. -1.
         -5    1    5    5    0  502  0.20602977104E+02  0.33908628906E+02  0.33413563586E+02  0.52084873153E+02  0.47000000000E+01 0.  1.
         11    1    6    6    0    0  0.61960625372E+02  0.77344690364E+01  0.54349016493E+03  0.54706535302E+03  0.00000000000E+00 0. -1.
        -12    1    6    6    0    0 -0.19395126457E+02 -0.13040813367E+02  0.93364103058E+02  0.96244945235E+02  0.00000000000E+00 0.  1.
<mgrwt>
<rscale>  2 0.18573171E+03</rscale>
<asrwt>0</asrwt>
<pdfrwt beam="1">  1       21 0.12386790E+00 0.18589444E+03</pdfrwt>
<pdfrwt beam="2">  1       21 0.12799576E-01 0.18589444E+03</pdfrwt>
<totfact> 0.25613192E+04</totfact>
</mgrwt>
</event>
<event>
12    1  0.1071811E-001  0.1997547E+03  0.7546771E-02  0.1150072E+00
         21   -1    0    0  503  502  0.00000000000E+00  0.00000000000E+00  0.22939323566E+04  0.22939323566E+04  0.00000000000E+00 0. -1.
         21   -1    0    0  501  503 -0.00000000000E+00 -0.00000000000E+00 -0.17393491765E+02  0.17393491765E+02  0.00000000000E+00 0.  1.
          6    2    1    2  501    0  0.81403081032E+02  0.58150497621E+02  0.10740947356E+04  0.10924026301E+04  0.17220935826E+03 0.  0.
         24    2    3    3    0    0  0.54673280601E+02 -0.19441059383E+02  0.38550936026E+03  0.39892815964E+03  0.84611389910E+02 0.  0.
         -6    2    1    2    0  502 -0.81403081032E+02 -0.58150497621E+02  0.12024441292E+04  0.12189232183E+04  0.17289877471E+03 0.  0.
        -24    2    5    5    0    0 -0.11029658535E+03 -0.79980883288E+01  0.93966823260E+03  0.94980733140E+03  0.83236249734E+02 0.  0.
          5    1    3    3  501    0  0.26729800431E+02  0.77591557004E+02  0.68858537536E+03  0.69347447041E+03  0.47000000000E+01 0. -1.
        -11    1    4    4    0    0 -0.19327722750E+02 -0.21028343767E+02  0.11070986684E+03  0.11433471356E+03  0.00000000000E+00 0.  1.
         12    1    4    4    0    0  0.74001003351E+02  0.15872843844E+01  0.27479949342E+03  0.28459344608E+03  0.00000000000E+00 0. -1.
         -5    1    5    5    0  502  0.28893504317E+02 -0.50152409292E+02  0.26277589662E+03  0.26911588692E+03  0.47000000000E+01 0.  1.
         11    1    6    6    0    0 -0.61181741155E+02 -0.42876971426E+02  0.62268494167E+03  0.62715084048E+03  0.00000000000E+00 0. -1.
        -12    1    6    6    0    0 -0.49114844193E+02  0.34878883098E+02  0.31698329093E+03  0.32265649092E+03  0.00000000000E+00 0.  1.
<mgrwt>
<rscale>  2 0.19960540E+03</rscale>
<asrwt>0</asrwt>
<pdfrwt beam="1">  1       21 0.35291243E+00 0.19975467E+03</pdfrwt>
<pdfrwt beam="2">  1       21 0.26759236E-02 0.19975467E+03</pdfrwt>
<totfact> 0.12738983E+04</totfact>
</mgrwt>
</event>
<event>
12    1  0.1071811E-001  0.1761590E+03  0.7546771E-02  0.1172212E+00
         21   -1    0    0  503  502  0.00000000000E+00  0.00000000000E+00  0.13883046436E+04  0.13883046436E+04  0.00000000000E+00 0.  1.
         21   -1    0    0  501  503 -0.00000000000E+00 -0.00000000000E+00 -0.22282693633E+02  0.22282693633E+02  0.00000000000E+00 0. -1.
          6    2    1    2  501    0 -0.69738135992E+01  0.16553682234E+02  0.60301125240E+03  0.62750540591E+03  0.17267832942E+03 0.  0.
         24    2    3    3    0    0  0.13855104399E+02 -0.52470430579E+02  0.40461110591E+03  0.41635882151E+03  0.81849931117E+02 0.  0.
         -6    2    1    2    0  502  0.69738135992E+01 -0.16553682234E+02  0.76301069754E+03  0.78308193130E+03  0.17524077177E+03 0.  0.
        -24    2    5    5    0    0  0.39875325848E+01 -0.36175806152E+01  0.14767370584E+03  0.16758378836E+03  0.79043123801E+02 0.  0.
          5    1    3    3  501    0 -0.20828917998E+02  0.69024112813E+02  0.19840014649E+03  0.21114658440E+03  0.47000000000E+01 0. -1.
        -11    1    4    4    0    0 -0.26422106902E+02 -0.40019098262E+02  0.13064660985E+03  0.13916965411E+03  0.00000000000E+00 0.  1.
         12    1    4    4    0    0  0.40277211301E+02 -0.12451332317E+02  0.27396449606E+03  0.27718916740E+03  0.00000000000E+00 0. -1.
         -5    1    5    5    0  502  0.29862810145E+01 -0.12936101619E+02  0.61533699170E+03  0.61549814294E+03  0.47000000000E+01 0.  1.
         11    1    6    6    0    0  0.34864006713E+02  0.19097487387E+02  0.89317899242E+02  0.97764513570E+02  0.00000000000E+00 0. -1.
        -12    1    6    6    0    0 -0.30876474129E+02 -0.22715068002E+02  0.58355806595E+02  0.69819274791E+02  0.00000000000E+00 0.  1.
<mgrwt>
<rscale>  2 0.17551827E+03</rscale>
<asrwt>0</asrwt>
<pdfrwt beam="1">  1       21 0.21358526E+00 0.17615898E+03</pdfrwt>
<pdfrwt beam="2">  1       21 0.34281078E-02 0.17615898E+03</pdfrwt>
<totfact> 0.56515274E+04</totfact>
</mgrwt>
</event>
<event>
12    1  0.1071811E-001  0.2825973E+03  0.7546771E-02  0.1094281E+00
         21   -1    0    0  501  502  0.00000000000E+00  0.00000000000E+00  0.27743387127E+03  0.27743387127E+03  0.00000000000E+00 0. -1.
         21   -1    0    0  502  503 -0.00000000000E+00 -0.00000000000E+00 -0.32918827600E+03  0.32918827600E+03  0.00000000000E+00 0. -1.
         -6    2    1    2    0  503  0.12467647364E+03  0.18512621290E+03 -0.13337201539E+03  0.31248889437E+03  0.17333573443E+03 0.  0.
        -24    2    3    3    0    0  0.89576169466E+00  0.40630542925E+02 -0.56832305175E+02  0.10735215818E+03  0.81504181168E+02 0.  0.
          6    2    1    2  501    0 -0.12467647364E+03 -0.18512621290E+03  0.81617610658E+02  0.29413325290E+03  0.17331185276E+03 0.  0.
         24    2    5    5    0    0  0.56369008939E+00 -0.10524027272E+03  0.23807391242E+02  0.13466233542E+03  0.80568728148E+02 0.  0.
          5    1    5    5  501    0 -0.12524016373E+03 -0.79885940181E+02  0.57810219416E+02  0.15947091747E+03  0.47000000000E+01 0. -1.
        -13    1    6    6    0    0 -0.52809965485E+01 -0.11600702986E+03  0.31338922521E+02  0.12028153626E+03  0.00000000000E+00 0.  1.
         14    1    6    6    0    0  0.58446866379E+01  0.10766757137E+02 -0.75315312788E+01  0.14380799162E+02  0.00000000000E+00 0. -1.
         -5    1    3    3    0  503  0.12378071195E+03  0.14449566998E+03 -0.76539710213E+02  0.20513673618E+03  0.47000000000E+01 0.  1.
         11    1    4    4    0    0 -0.83211318943E+01  0.52448867931E+02 -0.69681483428E+02  0.87610696356E+02  0.00000000000E+00 0. -1.
        -12    1    4    4    0    0  0.92168935889E+01 -0.11818325006E+02  0.12849178252E+02  0.19741461829E+02  0.00000000000E+00 0.  1.
<mgrwt>
<rscale>  2 0.28259360E+03</rscale>
<asrwt>0</asrwt>
<pdfrwt beam="1">  1       21 0.42682134E-01 0.28259727E+03</pdfrwt>
<pdfrwt beam="2">  1       21 0.50644350E-01 0.28259727E+03</pdfrwt>
<totfact> 0.18699370E+04</totfact>
</mgrwt>
</event>
<event>
12    1  0.1071811E-001  0.2788528E+03  0.7546771E-02  0.1096568E+00
         21   -1    0    0  501  502  0.00000000000E+00  0.00000000000E+00  0.64895854067E+03  0.64895854067E+03  0.00000000000E+00 0.  1.
         21   -1    0    0  502  503 -0.00000000000E+00 -0.00000000000E+00 -0.27364300461E+03  0.27364300461E+03  0.00000000000E+00 0. -1.
         -6    2    1    2    0  503  0.21375793768E+03 -0.30316153774E+02 -0.15934669558E+03  0.31959027160E+03  0.17359449071E+03 0.  0.
        -24    2    3    3    0    0  0.10790849092E+03 -0.69594043013E+02 -0.13696530208E+03  0.20439532928E+03  0.80810787766E+02 0.  0.
          6    2    1    2  501    0 -0.21375793768E+03  0.30316153774E+02  0.53466223165E+03  0.60301127368E+03  0.17648617266E+03 0.  0.
         24    2    5    5    0    0 -0.99216469428E+02  0.81106298840E+02  0.24448675485E+03  0.28690482940E+03  0.78220638692E+02 0.  0.
          5    1    5    5  501    0 -0.11454146825E+03 -0.50790145066E+02  0.29017547679E+03  0.31610644428E+03  0.47000000000E+01 0. -1.
        -11    1    6    6    0    0  0.69141529082E+01  0.13825056580E+02  0.71158311340E+02  0.72817875364E+02  0.00000000000E+00 0.  1.
         12    1    6    6    0    0 -0.10613062234E+03  0.67281242260E+02  0.17332844351E+03  0.21408695403E+03  0.00000000000E+00 0. -1.
         -5    1    3    3    0  503  0.10584944675E+03  0.39277889239E+02 -0.22381393503E+02  0.11519494232E+03  0.47000000000E+01 0.  1.
         13    1    4    4    0    0 -0.11503499982E+02  0.28541375644E+01 -0.13640641261E+02  0.18070520387E+02  0.00000000000E+00 0. -1.
        -14    1    4    4    0    0  0.11941199091E+03 -0.72448180578E+02 -0.12332466082E+03  0.18632480889E+03  0.00000000000E+00 0.  1.
<mgrwt>
<rscale>  2 0.27839642E+03</rscale>
<asrwt>0</asrwt>
<pdfrwt beam="1">  1       21 0.99839775E-01 0.27885282E+03</pdfrwt>
<pdfrwt beam="2">  1       21 0.42098924E-01 0.27885282E+03</pdfrwt>
<totfact> 0.42169041E+03</totfact>
</mgrwt>
</event>
<event>
12    1  0.1071811E-001  0.2102876E+03  0.7546771E-02  0.1141602E+00
         21   -1    0    0  503  502  0.00000000000E+00  0.00000000000E+00  0.78171042071E+03  0.78171042071E+03  0.00000000000E+00 0.  1.
         21   -1    0    0  501  503 -0.00000000000E+00 -0.00000000000E+00 -0.64422762394E+02  0.64422762394E+02  0.00000000000E+00 0. -1.
          6    2    1    2  501    0  0.12516334844E+02  0.11607397068E+03  0.20661394344E+03  0.29385741010E+03  0.17330040548E+03 0.  0.
         24    2    3    3    0    0  0.36233908535E+01  0.12555502261E+03  0.84472667913E+02  0.17093647622E+03  0.79413189171E+02 0.  0.
         -6    2    1    2    0  502 -0.12516334844E+02 -0.11607397068E+03  0.51067371487E+03  0.55227577300E+03  0.17490300476E+03 0.  0.
        -24    2    5    5    0    0 -0.47430195066E+02  0.68232362885E+00  0.24255350941E+03  0.25772264626E+03  0.73066192573E+02 0.  0.
          5    1    3    3  501    0  0.88929439907E+01 -0.94810519250E+01  0.12214127553E+03  0.12292093388E+03  0.47000000000E+01 0. -1.
        -11    1    4    4    0    0  0.17882690050E+02  0.23855500521E+02  0.57483056748E+02  0.64754747483E+02  0.00000000000E+00 0.  1.
         12    1    4    4    0    0 -0.14259299196E+02  0.10169952209E+03  0.26989611166E+02  0.10618172874E+03  0.00000000000E+00 0. -1.
         -5    1    5    5    0  502  0.34913860221E+02 -0.11675629431E+03  0.26812020547E+03  0.29455312675E+03  0.47000000000E+01 0.  1.
         11    1    6    6    0    0 -0.32339003136E+02  0.29361400986E+02  0.72760065084E+02  0.84864185984E+02  0.00000000000E+00 0. -1.
        -12    1    6    6    0    0 -0.15091191930E+02 -0.28679077357E+02  0.16979344432E+03  0.17285846027E+03  0.00000000000E+00 0.  1.
<mgrwt>
<rscale>  2 0.20995408E+03</rscale>
<asrwt>0</asrwt>
<pdfrwt beam="1">  1       21 0.12026313E+00 0.21028763E+03</pdfrwt>
<pdfrwt beam="2">  1       21 0.99111948E-02 0.21028763E+03</pdfrwt>
<totfact> 0.42884277E+04</totfact>
</mgrwt>
</event>
<event>
12    1  0.1071811E-001  0.1911312E+03  0.7546771E-02  0.1157507E+00
         21   -1    0    0  503  502  0.00000000000E+00  0.00000000000E+00  0.36392163113E+02  0.36392163113E+02  0.00000000000E+00 0. -1.
         21   -1    0    0  501  503 -0.00000000000E+00 -0.00000000000E+00 -0.10038523405E+04  0.10038523405E+04  0.00000000000E+00 0. -1.
          6    2    1    2  501    0 -0.79453154167E+02  0.13850454250E+02 -0.46338877050E+03  0.50115349316E+03  0.17297697040E+03 0.  0.
         24    2    3    3    0    0 -0.96063751064E+02 -0.38607684416E+02 -0.37271973114E+03  0.39498978496E+03  0.79863224776E+02 0.  0.
         -6    2    1    2    0  502  0.79453154167E+02 -0.13850454250E+02 -0.50407140690E+03  0.53909101047E+03  0.17328154986E+03 0.  0.
        -24    2    5    5    0    0  0.21427378795E+02 -0.66750615337E+02 -0.35469876764E+03  0.37027248953E+03  0.79848127911E+02 0.  0.
          5    1    3    3  501    0  0.16610596897E+02  0.52458138666E+02 -0.90669039357E+02  0.10616370820E+03  0.47000000000E+01 0. -1.
        -13    1    4    4    0    0 -0.49724105748E+02 -0.58143620577E+02 -0.26985026804E+03  0.28048588997E+03  0.00000000000E+00 0.  1.
         14    1    4    4    0    0 -0.46339645316E+02  0.19535936161E+02 -0.10286946310E+03  0.11450389499E+03  0.00000000000E+00 0. -1.
         -5    1    5    5    0  502  0.58025775372E+02  0.52900161087E+02 -0.14937263927E+03  0.16881852094E+03  0.47000000000E+01 0.  1.
         13    1    6    6    0    0 -0.65394397839E+00 -0.46077122242E+02 -0.68976519086E+02  0.82953535320E+02  0.00000000000E+00 0. -1.
        -14    1    6    6    0    0  0.22081322773E+02 -0.20673493094E+02 -0.28572224855E+03  0.28731895421E+03  0.00000000000E+00 0.  1.
<mgrwt>
<rscale>  2 0.19106214E+03</rscale>
<asrwt>0</asrwt>
<pdfrwt beam="1">  1       21 0.55987958E-02 0.19113120E+03</pdfrwt>
<pdfrwt beam="2">  1       21 0.15443878E+00 0.19113120E+03</pdfrwt>
<totfact> 0.61465353E+04</totfact>
</mgrwt>
</event>
<event>
12    1  0.1071811E-001  0.2685204E+03  0.7546771E-02  0.1102147E+00
         21   -1    0    0  503  502  0.00000000000E+00  0.00000000000E+00  0.30782592605E+03  0.30782592605E+03  0.00000000000E+00 0.  1.
         21   -1    0    0  501  503 -0.00000000000E+00 -0.00000000000E+00 -0.48623682819E+03  0.48623682819E+03  0.00000000000E+00 0.  1.
          6    2    1    2  501    0  0.18716414401E+03 -0.85108012196E+02 -0.37508299362E+03  0.46122175913E+03  0.17252381996E+03 0.  0.
         24    2    3    3    0    0  0.13182272410E+03 -0.11899638780E+03 -0.21966400904E+03  0.29273364227E+03  0.76833179993E+02 0.  0.
         -6    2    1    2    0  502 -0.18716414401E+03  0.85108012196E+02  0.19667209148E+03  0.33284099511E+03  0.17271197387E+03 0.  0.
        -24    2    5    5    0    0 -0.55837274655E+02  0.73816116523E+02  0.41348529710E+02  0.12907212516E+03  0.79895508540E+02 0.  0.
          5    1    3    3  501    0  0.55341419902E+02  0.33888375600E+02 -0.15541898458E+03  0.16848811686E+03  0.47000000000E+01 0. -1.
        -11    1    4    4    0    0 -0.45102679912E+01 -0.18851138911E+02 -0.61622528967E+01  0.20339157218E+02  0.00000000000E+00 0.  1.
         12    1    4    4    0    0  0.13633299210E+03 -0.10014524888E+03 -0.21350175615E+03  0.27239448505E+03  0.00000000000E+00 0. -1.
         -5    1    5    5    0  502 -0.13132686935E+03  0.11291895673E+02  0.15532356176E+03  0.20376886995E+03  0.47000000000E+01 0.  1.
         11    1    6    6    0    0 -0.16155287836E+02  0.71747036838E+02  0.49312819659E+02  0.88545947411E+02  0.00000000000E+00 0. -1.
        -12    1    6    6    0    0 -0.39681986819E+02  0.20690796842E+01 -0.79642899483E+01  0.40526177750E+02  0.00000000000E+00 0.  1.
<mgrwt>
<rscale>  2 0.26849017E+03</rscale>
<asrwt>0</asrwt>
<pdfrwt beam="1">  1       21 0.47357835E-01 0.26852042E+03</pdfrwt>
<pdfrwt beam="2">  1       21 0.74805666E-01 0.26852042E+03</pdfrwt>
<totfact> 0.64937412E+03</totfact>
</mgrwt>
</event>
<event>
12    1  0.1071811E-001  0.1981322E+03  0.7546771E-02  0.1151637E+00
         21   -1    0    0  501  502  0.00000000000E+00  0.00000000000E+00  0.12332028078E+03  0.12332028078E+03  0.00000000000E+00 0. -1.
         21   -1    0    0  502  503 -0.00000000000E+00 -0.00000000000E+00 -0.31632031278E+03  0.31632031278E+03  0.00000000000E+00 0. -1.
         -6    2    1    2    0  503 -0.98380585779E+02  0.34201099216E+01 -0.10323070653E+03  0.22212070476E+03  0.17026623829E+03 0.  0.
        -24    2    3    3    0    0 -0.16002410498E+02  0.62521179347E+02 -0.40977168426E+02  0.10305478530E+03  0.69109951761E+02 0.  0.
          6    2    1    2  501    0  0.98380585779E+02 -0.34201099216E+01 -0.89769325475E+02  0.21751988880E+03  0.17194747284E+03 0.  0.
         24    2    5    5    0    0  0.11884332901E+03 -0.39946317848E+02 -0.91938857351E+02  0.17533358066E+03  0.81053475287E+02 0.  0.
          5    1    5    5  501    0 -0.20462743232E+02  0.36526207926E+02  0.21695318765E+01  0.42186308141E+02  0.47000000000E+01 0. -1.
        -13    1    6    6    0    0  0.29165268612E+02  0.21127225458E+02 -0.43608076494E+02  0.56556492857E+02  0.00000000000E+00 0.  1.
         14    1    6    6    0    0  0.89678060398E+02 -0.61073543305E+02 -0.48330780858E+02  0.11877708780E+03  0.00000000000E+00 0. -1.
         -5    1    3    3    0  503 -0.82378175281E+02 -0.59101069425E+02 -0.62253538103E+02  0.11906591946E+03  0.47000000000E+01 0.  1.
         13    1    4    4    0    0 -0.40858192575E+02  0.45973849741E+02 -0.39623069900E+02  0.73164024143E+02  0.00000000000E+00 0. -1.
        -14    1    4    4    0    0  0.24855782077E+02  0.16547329605E+02 -0.13540985260E+01  0.29890761157E+02  0.00000000000E+00 0.  1.
<mgrwt>
<rscale>  2 0.19776688E+03</rscale>
<asrwt>0</asrwt>
<pdfrwt beam="1">  1       21 0.18972351E-01 0.19813220E+03</pdfrwt>
<pdfrwt beam="2">  1       21 0.48664664E-01 0.19813220E+03</pdfrwt>
<totfact> 0.10243951E+05</totfact>
</mgrwt>
</event>
<event>
12    1  0.1071811E-001  0.1893886E+03  0.7546771E-02  0.1159942E+00
         21   -1    0    0  501  502  0.00000000000E+00  0.00000000000E+00  0.13402905012E+03  0.13402905012E+03  0.00000000000E+00 0. -1.
         21   -1    0    0  502  503 -0.00000000000E+00 -0.00000000000E+00 -0.26493463057E+03  0.26493463057E+03  0.00000000000E+00 0. -1.
         -6    2    1    2    0  503  0.19993824004E+02 -0.30954644062E+02 -0.86027233635E+02  0.20433044604E+03  0.18163783544E+03 0.  0.
        -24    2    3    3    0    0  0.65142059869E+02  0.19860418380E+02 -0.18636055591E+02  0.10849624207E+03  0.82378442523E+02 0.  0.
          6    2    1    2  501    0 -0.19993824004E+02  0.30954644062E+02 -0.44878346816E+02  0.19463323465E+03  0.18576890760E+03 0.  0.
         24    2    5    5    0    0  0.25041734829E+02 -0.32919463471E+02  0.14584366863E+02  0.96317378905E+02  0.85752866797E+02 0.  0.
          5    1    5    5  501    0 -0.45035558833E+02  0.63874107533E+02 -0.59462713678E+02  0.98315855743E+02  0.47000000000E+01 0. -1.
        -13    1    6    6    0    0 -0.22239645008E+02  0.15821497341E+02  0.36295898411E+01  0.27533534292E+02  0.00000000000E+00 0.  1.
         14    1    6    6    0    0  0.47281379837E+02 -0.48740960812E+02  0.10954777022E+02  0.68783844613E+02  0.00000000000E+00 0. -1.
         -5    1    3    3    0  503 -0.45148235865E+02 -0.50815062443E+02 -0.67391178045E+02  0.95834203972E+02  0.47000000000E+01 0.  1.
         11    1    4    4    0    0  0.29857601987E+02  0.50091176951E+02 -0.20978441641E+02  0.61973360555E+02  0.00000000000E+00 0. -1.
        -12    1    4    4    0    0  0.35284457882E+02 -0.30230758571E+02  0.23423860502E+01  0.46522881513E+02  0.00000000000E+00 0.  1.
<mgrwt>
<rscale>  2 0.18836775E+03</rscale>
<asrwt>0</asrwt>
<pdfrwt beam="1">  1       21 0.20619854E-01 0.18938857E+03</pdfrwt>
<pdfrwt beam="2">  1       21 0.40759174E-01 0.18938857E+03</pdfrwt>
<totfact> 0.12656859E+05</totfact>
</mgrwt>
</event>
<event>
12    1  0.1071811E-001  0.1947454E+03  0.7546771E-02  0.1154357E+00
         21   -1    0    0  501  502  0.00000000000E+00  0.00000000000E+00  0.22506637700E+03  0.22506637700E+03  0.00000000000E+00 0. -1.
         21   -1    0    0  502  503 -0.00000000000E+00 -0.00000000000E+00 -0.30310926162E+03  0.30310926162E+03  0.00000000000E+00 0. -1.
         -6    2    1    2    0  503  0.80515216742E+02  0.37575312139E+02 -0.21530900718E+03  0.29031663741E+03  0.17329505814E+03 0.  0.
        -24    2    3    3    0    0  0.55364624179E+02  0.59003193654E+02 -0.60502108081E+02  0.13195321859E+03  0.84879493059E+02 0.  0.
          6    2    1    2  501    0 -0.80515216742E+02 -0.37575312139E+02  0.13726612255E+03  0.23785900121E+03  0.17274348568E+03 0.  0.
         24    2    5    5    0    0  0.18199292710E+02 -0.23410012949E+01  0.91169607527E+02  0.12325974408E+03  0.80897296814E+02 0.  0.
          5    1    5    5  501    0 -0.98714509451E+02 -0.35234310844E+02  0.46096515025E+02  0.11459925713E+03  0.47000000000E+01 0. -1.
        -11    1    6    6    0    0 -0.17152136931E+02  0.43315386408E+01 -0.67545580083E+01  0.18936263680E+02  0.00000000000E+00 0.  1.
         12    1    6    6    0    0  0.35351429640E+02 -0.66725399357E+01  0.97924165535E+02  0.10432348040E+03  0.00000000000E+00 0. -1.
         -5    1    3    3    0  503  0.25150592563E+02 -0.21427881515E+02 -0.15480689910E+03  0.15836341882E+03  0.47000000000E+01 0.  1.
         13    1    4    4    0    0 -0.17526949611E+02  0.36689102987E+02 -0.26122134858E+02  0.48328564744E+02  0.00000000000E+00 0. -1.
        -14    1    4    4    0    0  0.72891573791E+02  0.22314090667E+02 -0.34379973223E+02  0.83624653845E+02  0.00000000000E+00 0.  1.
<mgrwt>
<rscale>  2 0.19462265E+03</rscale>
<asrwt>0</asrwt>
<pdfrwt beam="1">  1       21 0.34625597E-01 0.19474543E+03</pdfrwt>
<pdfrwt beam="2">  1       21 0.46632194E-01 0.19474543E+03</pdfrwt>
<totfact> 0.35362455E+04</totfact>
</mgrwt>
</event>
<event>
12    1  0.1071811E-001  0.3207774E+03  0.7546771E-02  0.1075333E+00
         21   -1    0    0  501  502  0.00000000000E+00  0.00000000000E+00  0.14504886856E+03  0.14504886856E+03  0.00000000000E+00 0.  1.
         21   -1    0    0  502  503 -0.00000000000E+00 -0.00000000000E+00 -0.78633354898E+03  0.78633354898E+03  0.00000000000E+00 0.  1.
         -6    2    1    2    0  503  0.16346521633E+03 -0.21357334585E+03 -0.46721117726E+03  0.56673136591E+03  0.17482478641E+03 0.  0.
        -24    2    3    3    0    0  0.10143204892E+03 -0.18468258211E+03 -0.23961673554E+03  0.32902543416E+03  0.80283495760E+02 0.  0.
          6    2    1    2  501    0 -0.16346521633E+03  0.21357334585E+03 -0.17407350316E+03  0.36465105163E+03  0.17416760303E+03 0.  0.
         24    2    5    5    0    0 -0.24850366434E+02  0.11751835815E+03 -0.41144491486E+02  0.14986546222E+03  0.79615842470E+02 0.  0.
          5    1    5    5  501    0 -0.13861484990E+03  0.96054987695E+02 -0.13292901168E+03  0.21478558941E+03  0.47000000000E+01 0. -1.
        -13    1    6    6    0    0 -0.36792298839E+02  0.11483860631E+03 -0.15668537183E+02  0.12160214559E+03  0.00000000000E+00 0.  1.
         14    1    6    6    0    0  0.11941932405E+02  0.26797518381E+01 -0.25475954303E+02  0.28263316633E+02  0.00000000000E+00 0. -1.
         -5    1    3    3    0  503  0.62033167415E+02 -0.28890763739E+02 -0.22759444172E+03  0.23770593175E+03  0.47000000000E+01 0.  1.
         13    1    4    4    0    0  0.13091986726E+02 -0.47457438513E+01 -0.54224885519E+02  0.55984465798E+02  0.00000000000E+00 0. -1.
        -14    1    4    4    0    0  0.88340062192E+02 -0.17993683825E+03 -0.18539185002E+03  0.27304096836E+03  0.00000000000E+00 0.  1.
<mgrwt>
<rscale>  2 0.32068797E+03</rscale>
<asrwt>0</asrwt>
<pdfrwt beam="1">  1       21 0.22315211E-01 0.32077743E+03</pdfrwt>
<pdfrwt beam="2">  1       21 0.12097439E+00 0.32077743E+03</pdfrwt>
<totfact> 0.90336693E+03</totfact>
</mgrwt>
</event>
<event>
12    1  0.1071811E-001  0.2012261E+03  0.7546771E-02  0.1148837E+00
         21   -1    0    0  501  502  0.00000000000E+00  0.00000000000E+00  0.37550295159E+03  0.37550295159E+03  0.00000000000E+00 0. -1.
         21   -1    0    0  502  503 -0.00000000000E+00 -0.00000000000E+00 -0.10920564722E+03  0.10920564722E+03  0.00000000000E+00 0. -1.
         -6    2    1    2    0  503  0.80569978355E+02 -0.64700449517E+02  0.10271195594E+03  0.22537845606E+03  0.17195357798E+03 0.  0.
        -24    2    3    3    0    0  0.61509872308E+01 -0.89036953849E+02  0.37795241448E+02  0.12356135777E+03  0.76638861312E+02 0.  0.
          6    2    1    2  501    0 -0.80569978355E+02  0.64700449517E+02  0.16358534843E+03  0.25933014275E+03  0.17266814164E+03 0.  0.
         24    2    5    5    0    0 -0.66129886351E+02  0.12251457726E+01  0.27286877818E+02  0.10821100586E+03  0.81181187711E+02 0.  0.
          5    1    5    5  501    0 -0.14440092004E+02  0.63475303745E+02  0.13629847061E+03  0.15111913689E+03  0.47000000000E+01 0. -1.
        -11    1    6    6    0    0 -0.47523605691E+02  0.35478045593E+02 -0.21807313616E+01  0.59345938414E+02  0.00000000000E+00 0.  1.
         12    1    6    6    0    0 -0.18606280660E+02 -0.34252899821E+02  0.29467609180E+02  0.48865067450E+02  0.00000000000E+00 0. -1.
         -5    1    3    3    0  503  0.74418991124E+02  0.24336504332E+02  0.64916714494E+02  0.10181709829E+03  0.47000000000E+01 0.  1.
         13    1    4    4    0    0  0.15853700545E+02 -0.45943979082E+02 -0.18500748899E+02  0.52004487736E+02  0.00000000000E+00 0. -1.
        -14    1    4    4    0    0 -0.97027133138E+01 -0.43092974767E+02  0.56295990347E+02  0.71556870034E+02  0.00000000000E+00 0.  1.
<mgrwt>
<rscale>  2 0.20107275E+03</rscale>
<asrwt>0</asrwt>
<pdfrwt beam="1">  1       21 0.57769684E-01 0.20122613E+03</pdfrwt>
<pdfrwt beam="2">  1       21 0.16800869E-01 0.20122613E+03</pdfrwt>
<totfact> 0.89262530E+04</totfact>
</mgrwt>
</event>
<event>
12    1  0.1071811E-001  0.2180009E+03  0.7546771E-02  0.1135657E+00
         21   -1    0    0  503  502  0.00000000000E+00  0.00000000000E+00  0.34496910717E+03  0.34496910717E+03  0.00000000000E+00 0. -1.
         21   -1    0    0  501  503 -0.00000000000E+00 -0.00000000000E+00 -0.13980875909E+03  0.13980875909E+03  0.00000000000E+00 0. -1.
          6    2    1    2  501    0 -0.70088482004E+01 -0.13039195296E+03  0.66982098326E+02  0.22667399648E+03  0.17275217462E+03 0.  0.
         24    2    3    3    0    0  0.22803751872E+02 -0.15347214740E+03  0.33072341842E+02  0.17574808870E+03  0.75630018906E+02 0.  0.
         -6    2    1    2    0  502  0.70088482004E+01  0.13039195296E+03  0.13817824975E+03  0.25810386978E+03  0.17456572844E+03 0.  0.
        -24    2    5    5    0    0 -0.23621237704E+02  0.10461800305E+03  0.23067894208E+02  0.13614083190E+03  0.80618291568E+02 0.  0.
          5    1    3    3  501    0 -0.29812600073E+02  0.23080194441E+02  0.33909756485E+02  0.50925907782E+02  0.47000000000E+01 0. -1.
        -11    1    4    4    0    0  0.24668227521E+00  0.55314350812E+01 -0.82366410537E+01  0.99247106784E+01  0.00000000000E+00 0.  1.
         12    1    4    4    0    0  0.22557069597E+02 -0.15900358248E+03  0.41308982895E+02  0.16582337802E+03  0.00000000000E+00 0. -1.
         -5    1    5    5    0  502  0.30630085905E+02  0.25773949910E+02  0.11511035554E+03  0.12196303788E+03  0.47000000000E+01 0.  1.
         13    1    6    6    0    0  0.21208918209E+02  0.80446557138E+02  0.12584526276E+02  0.84141767681E+02  0.00000000000E+00 0. -1.
        -14    1    6    6    0    0 -0.44830155913E+02  0.24171445908E+02  0.10483367931E+02  0.51999064219E+02  0.00000000000E+00 0.  1.
<mgrwt>
<rscale>  2 0.21763759E+03</rscale>
<asrwt>0</asrwt>
<pdfrwt beam="1">  1       21 0.53072170E-01 0.21800087E+03</pdfrwt>
<pdfrwt beam="2">  1       21 0.21509040E-01 0.21800087E+03</pdfrwt>
<totfact> 0.66978731E+04</totfact>
</mgrwt>
</event>
<event>
12    1  0.1071811E-001  0.2984303E+03  0.7546771E-02  0.1086359E+00
         21   -1    0    0  501  502  0.00000000000E+00  0.00000000000E+00  0.40466891888E+03  0.40466891888E+03  0.00000000000E+00 0.  1.
         21   -1    0    0  502  503 -0.00000000000E+00 -0.00000000000E+00 -0.76879799818E+03  0.76879799818E+03  0.00000000000E+00 0. -1.
         -6    2    1    2    0  503  0.15927836617E+03  0.17430357583E+03 -0.67839371645E+03  0.74008151370E+03  0.17818888275E+03 0.  0.
        -24    2    3    3    0    0  0.13789509947E+03  0.18422156322E+03 -0.67238205497E+03  0.71530570610E+03  0.81314097916E+02 0.  0.
          6    2    1    2  501    0 -0.15927836617E+03 -0.17430357583E+03  0.31426463714E+03  0.43338540336E+03  0.18250838668E+03 0.  0.
         24    2    5    5    0    0 -0.83611922910E+02 -0.10721643779E+03  0.79526649167E+02  0.17774873204E+03  0.82363861176E+02 0.  0.
          5    1    5    5  501    0 -0.75666443263E+02 -0.67087138037E+02  0.23473798797E+03  0.25563667132E+03  0.47000000000E+01 0. -1.
        -11    1    6    6    0    0 -0.29719610309E+02 -0.84709453686E+02  0.78630424564E+02  0.11933855390E+03  0.00000000000E+00 0.  1.
         12    1    6    6    0    0 -0.53892312601E+02 -0.22506984103E+02  0.89622460235E+00  0.58410178132E+02  0.00000000000E+00 0. -1.
         -5    1    3    3    0  503  0.21383266699E+02 -0.99179873959E+01 -0.60116614770E+01  0.24775807604E+02  0.47000000000E+01 0.  1.
         11    1    4    4    0    0  0.44459088059E+01  0.54548160993E+02 -0.20673993930E+03  0.21386133469E+03  0.00000000000E+00 0. -1.
        -12    1    4    4    0    0  0.13344919067E+03  0.12967340223E+03 -0.46564211566E+03  0.50144437141E+03  0.00000000000E+00 0.  1.
<mgrwt>
<rscale>  2 0.29777266E+03</rscale>
<asrwt>0</asrwt>
<pdfrwt beam="1">  1       21 0.62256757E-01 0.29843030E+03</pdfrwt>
<pdfrwt beam="2">  1       21 0.11827661E+00 0.29843030E+03</pdfrwt>
<totfact> 0.12037949E+03</totfact>
</mgrwt>
</event>
<event>
12    1  0.1071811E-001  0.1830401E+03  0.7546771E-02  0.1165127E+00
         21   -1    0    0  501  502  0.00000000000E+00  0.00000000000E+00  0.14266819598E+03  0.14266819598E+03  0.00000000000E+00 0. -1.
         21   -1    0    0  502  503 -0.00000000000E+00 -0.00000000000E+00 -0.24938484173E+03  0.24938484173E+03  0.00000000000E+00 0. -1.
         -6    2    1    2    0  503 -0.33793518590E+02  0.50664940171E+02 -0.10258291729E+03  0.20896626529E+03  0.17156545995E+03 0.  0.
        -24    2    3    3    0    0 -0.79348016141E+02  0.70575860653E+01 -0.79212972675E+02  0.14154922078E+03  0.86113702030E+02 0.  0.
          6    2    1    2  501    0  0.33793518590E+02 -0.50664940171E+02 -0.41337284548E+01  0.18308677241E+03  0.17261153049E+03 0.  0.
         24    2    5    5    0    0  0.31249660949E+02 -0.22828746322E+02 -0.68695625585E+02  0.11257681949E+03  0.80353956615E+02 0.  0.
          5    1    5    5  501    0  0.25438576410E+01 -0.27836193849E+02  0.64561897130E+02  0.70509952920E+02  0.47000000000E+01 0. -1.
        -13    1    6    6    0    0 -0.26517534448E+02 -0.33161594885E+01 -0.11917758181E+02  0.29261057859E+02  0.00000000000E+00 0.  1.
         14    1    6    6    0    0  0.57767195398E+02 -0.19512586833E+02 -0.56777867404E+02  0.83315761630E+02  0.00000000000E+00 0. -1.
         -5    1    3    3    0  503  0.45554497551E+02  0.43607354106E+02 -0.23369944618E+02  0.67417044512E+02  0.47000000000E+01 0.  1.
         13    1    4    4    0    0 -0.51736717947E+02  0.40828970665E+02 -0.21746906541E+02  0.69401878747E+02  0.00000000000E+00 0. -1.
        -14    1    4    4    0    0 -0.27611298195E+02 -0.33771384600E+02 -0.57466066135E+02  0.72147342035E+02  0.00000000000E+00 0.  1.
<mgrwt>
<rscale>  2 0.18279307E+03</rscale>
<asrwt>0</asrwt>
<pdfrwt beam="1">  1       21 0.21948953E-01 0.18304010E+03</pdfrwt>
<pdfrwt beam="2">  1       21 0.38366898E-01 0.18304010E+03</pdfrwt>
<totfact> 0.12742917E+05</totfact>
</mgrwt>
</event>
<event>
12    1  0.1071811E-001  0.1894074E+03  0.7546771E-02  0.1159005E+00
         21   -1    0    0  503  502  0.00000000000E+00  0.00000000000E+00  0.13997787658E+03  0.13997787658E+03  0.00000000000E+00 0.  1.
         21   -1    0    0  501  503 -0.00000000000E+00 -0.00000000000E+00 -0.29504658829E+03  0.29504658829E+03  0.00000000000E+00 0.  1.
          6    2    1    2  501    0 -0.66564701699E+02  0.37539464646E+02 -0.15642205636E+03  0.24564818653E+03  0.17330637873E+03 0.  0.
         24    2    3    3    0    0 -0.52049295931E+01  0.40909417830E+02 -0.16085650662E+03  0.18385714700E+03  0.78917444330E+02 0.  0.
         -6    2    1    2    0  502  0.66564701699E+02 -0.37539464646E+02  0.13533446517E+01  0.18937627834E+03  0.17326705497E+03 0.  0.
        -24    2    5    5    0    0  0.86723655703E+01 -0.60657377312E+02 -0.44553229728E+02  0.11181685570E+03  0.82240449857E+02 0.  0.
          5    1    3    3  501    0 -0.61359772106E+02 -0.33699531836E+01  0.44344502609E+01  0.61791039532E+02  0.47000000000E+01 0. -1.
        -11    1    4    4    0    0  0.48482885672E+01 -0.18291403485E+02 -0.85151223123E+02  0.87228505334E+02  0.00000000000E+00 0.  1.
         12    1    4    4    0    0 -0.10053218160E+02  0.59200821315E+02 -0.75705283499E+02  0.96628641662E+02  0.00000000000E+00 0. -1.
         -5    1    5    5    0  502  0.57892336129E+02  0.23117912666E+02  0.45906574380E+02  0.77559422637E+02  0.47000000000E+01 0.  1.
         13    1    6    6    0    0 -0.41598118964E+01 -0.89127879463E+00  0.21442718827E+02  0.21860663384E+02  0.00000000000E+00 0. -1.
        -14    1    6    6    0    0  0.12832177467E+02 -0.59766098517E+02 -0.65995948555E+02  0.89956192317E+02  0.00000000000E+00 0.  1.
<mgrwt>
<rscale>  2 0.18939843E+03</rscale>
<asrwt>0</asrwt>
<pdfrwt beam="1">  1       21 0.21535058E-01 0.18940742E+03</pdfrwt>
<pdfrwt beam="2">  1       21 0.45391783E-01 0.18940742E+03</pdfrwt>
<totfact> 0.93662398E+04</totfact>
</mgrwt>
</event>
<event>
12    1  0.1071811E-001  0.1739392E+03  0.7546771E-02  0.1174174E+00
         21   -1    0    0  503  502  0.00000000000E+00  0.00000000000E+00  0.10199012322E+03  0.10199012322E+03  0.00000000000E+00 0. -1.
         21   -1    0    0  501  503 -0.00000000000E+00 -0.00000000000E+00 -0.51307613613E+03  0.51307613613E+03  0.00000000000E+00 0. -1.
          6    2    1    2  501    0 -0.64277649892E+01  0.14583044445E+02 -0.40592931672E+03  0.44105064011E+03  0.17173548154E+03 0.  0.
         24    2    3    3    0    0 -0.47492337708E+02  0.57781513789E+02 -0.21540476403E+03  0.24136563300E+03  0.79144999527E+02 0.  0.
         -6    2    1    2    0  502  0.64277649892E+01 -0.14583044445E+02 -0.51566961940E+01  0.17401561924E+03  0.17320757164E+03 0.  0.
        -24    2    5    5    0    0  0.37925502153E+02  0.41302878020E+02 -0.32106777760E+02  0.10427509535E+03  0.81842402735E+02 0.  0.
          5    1    3    3  501    0  0.41064572719E+02 -0.43198469344E+02 -0.19052455269E+03  0.19968500711E+03  0.47000000000E+01 0. -1.
        -11    1    4    4    0    0 -0.55939941250E+02  0.17133178851E+02 -0.76002896979E+02  0.95912789521E+02  0.00000000000E+00 0.  1.
         12    1    4    4    0    0  0.84476035414E+01  0.40648334938E+02 -0.13940186705E+03  0.14545284348E+03  0.00000000000E+00 0. -1.
         -5    1    5    5    0  502 -0.31497737163E+02 -0.55885922464E+02  0.26950081566E+02  0.69740523890E+02  0.47000000000E+01 0.  1.
         11    1    6    6    0    0  0.13905647967E+02 -0.56414359566E+01  0.23345581636E+02  0.27752640000E+02  0.00000000000E+00 0. -1.
        -12    1    6    6    0    0  0.24019854186E+02  0.46944313976E+02 -0.55452359396E+02  0.76522455348E+02  0.00000000000E+00 0.  1.
<mgrwt>
<rscale>  2 0.17357157E+03</rscale>
<asrwt>0</asrwt>
<pdfrwt beam="1">  1       21 0.15690788E-01 0.17393920E+03</pdfrwt>
<pdfrwt beam="2">  1       21 0.78934792E-01 0.17393920E+03</pdfrwt>
<totfact> 0.51692729E+04</totfact>
</mgrwt>
</event>
<event>
12    1  0.1071811E-001  0.1911509E+03  0.7546771E-02  0.1158172E+00
         21   -1    0    0  501  502  0.00000000000E+00  0.00000000000E+00  0.13375957788E+04  0.13375957788E+04  0.00000000000E+00 0. -1.
         21   -1    0    0  502  503 -0.00000000000E+00 -0.00000000000E+00 -0.64137918913E+02  0.64137918913E+02  0.00000000000E+00 0. -1.
         -6    2    1    2    0  503 -0.73036073900E+02 -0.18398335761E+02  0.10000410175E+03  0.21281302209E+03  0.17209240296E+03 0.  0.
        -24    2    3    3    0    0 -0.14330543515E+02  0.49193641270E+02  0.28218246909E+02  0.97963931493E+02  0.78582972686E+02 0.  0.
          6    2    1    2  501    0  0.73036073900E+02  0.18398335761E+02  0.11734537582E+04  0.11889206757E+04  0.17568689074E+03 0.  0.
         24    2    5    5    0    0  0.33065723697E+02 -0.66481071260E+01  0.10872862882E+04  0.10905749789E+04  0.77619408565E+02 0.  0.
          5    1    5    5  501    0  0.39970350203E+02  0.25046442887E+02  0.86167469947E+02  0.98345696773E+02  0.47000000000E+01 0. -1.
        -11    1    6    6    0    0 -0.79597991000E+01 -0.26895881176E+02  0.18348608277E+03  0.18561758913E+03  0.00000000000E+00 0.  1.
         12    1    6    6    0    0  0.41025522797E+02  0.20247774050E+02  0.90380020547E+03  0.90495738976E+03  0.00000000000E+00 0. -1.
         -5    1    3    3    0  503 -0.58705530385E+02 -0.67591977031E+02  0.71785854840E+02  0.11484909060E+03  0.47000000000E+01 0.  1.
         13    1    4    4    0    0  0.11785185901E+02  0.12622854875E+02 -0.23683400835E+02  0.29310928798E+02  0.00000000000E+00 0. -1.
        -14    1    4    4    0    0 -0.26115729415E+02  0.36570786395E+02  0.51901647744E+02  0.68653002695E+02  0.00000000000E+00 0.  1.
<mgrwt>
<rscale>  2 0.19032088E+03</rscale>
<asrwt>0</asrwt>
<pdfrwt beam="1">  1       21 0.20578394E+00 0.19115086E+03</pdfrwt>
<pdfrwt beam="2">  1       21 0.98673732E-02 0.19115086E+03</pdfrwt>
<totfact> 0.10261132E+04</totfact>
</mgrwt>
</event>
<event>
12    1  0.1071811E-001  0.1893881E+03  0.7546771E-02  0.1161267E+00
         21   -1    0    0  503  502  0.00000000000E+00  0.00000000000E+00  0.15703050858E+04  0.15703050858E+04  0.00000000000E+00 0. -1.
         21   -1    0    0  501  503 -0.00000000000E+00 -0.00000000000E+00 -0.96945686749E+02  0.96945686749E+02  0.00000000000E+00 0.  1.
          6    2    1    2  501    0 -0.71147708228E+02  0.11645152226E+01 -0.20605611794E+01  0.17972533567E+03  0.16502605214E+03 0.  0.
         24    2    3    3    0    0  0.16477718672E+02  0.15993134405E+02  0.22705127895E+02  0.87348213274E+02  0.81159669595E+02 0.  0.
         -6    2    1    2    0  502  0.71147708228E+02 -0.11645152226E+01  0.14754199603E+04  0.14875254369E+04  0.17551214729E+03 0.  0.
        -24    2    5    5    0    0 -0.44311842405E+01  0.52999455381E+02  0.81505122946E+03  0.82062600273E+03  0.79309217892E+02 0.  0.
          5    1    3    3  501    0 -0.87625426900E+02 -0.14828619183E+02 -0.24765689074E+02  0.92377122393E+02  0.47000000000E+01 0. -1.
        -11    1    4    4    0    0  0.35716459150E+02  0.46504990669E+01 -0.18491426268E+02  0.40487349150E+02  0.00000000000E+00 0.  1.
         12    1    4    4    0    0 -0.19238740478E+02  0.11342635338E+02  0.41196554162E+02  0.46860864124E+02  0.00000000000E+00 0. -1.
         -5    1    5    5    0  502  0.75578892469E+02 -0.54163970604E+02  0.66036873079E+03  0.66689943418E+03  0.47000000000E+01 0.  1.
         11    1    6    6    0    0  0.13651581529E+02  0.13172243603E+02  0.63694611815E+03  0.63722855484E+03  0.00000000000E+00 0. -1.
        -12    1    6    6    0    0 -0.18082765769E+02  0.39827211778E+02  0.17810511131E+03  0.18339744789E+03  0.00000000000E+00 0.  1.
<mgrwt>
<rscale>  2 0.18692172E+03</rscale>
<asrwt>0</asrwt>
<pdfrwt beam="1">  1       21 0.24158538E+00 0.18938814E+03</pdfrwt>
<pdfrwt beam="2">  1       21 0.14914722E-01 0.18938814E+03</pdfrwt>
<totfact> 0.29657062E+03</totfact>
</mgrwt>
</event>
<event>
12    1  0.1071811E-001  0.2349995E+03  0.7546771E-02  0.1123226E+00
         21   -1    0    0  501  502  0.00000000000E+00  0.00000000000E+00  0.15397733211E+03  0.15397733211E+03  0.00000000000E+00 0. -1.
         21   -1    0    0  502  503 -0.00000000000E+00 -0.00000000000E+00 -0.55812448305E+03  0.55812448305E+03  0.00000000000E+00 0.  1.
         -6    2    1    2    0  503 -0.15216151040E+03 -0.46810675178E+02 -0.41529107448E+03  0.47717022020E+03  0.17285941670E+03 0.  0.
        -24    2    3    3    0    0 -0.17496652996E+02  0.17982052669E+02 -0.13908875412E+03  0.16309613153E+03  0.81395205710E+02 0.  0.
          6    2    1    2  501    0  0.15216151040E+03  0.46810675178E+02  0.11143923541E+02  0.23493159496E+03  0.17240737432E+03 0.  0.
         24    2    5    5    0    0  0.13985200580E+03  0.36169769876E+02  0.65736447484E+02  0.17777228741E+03  0.80092882720E+02 0.  0.
          5    1    5    5  501    0  0.12309504600E+02  0.10640905302E+02 -0.54592523944E+02  0.57159307551E+02  0.47000000000E+01 0. -1.
        -13    1    6    6    0    0  0.47045835633E+02 -0.17658375076E+02 -0.30248818813E+01  0.50341620664E+02  0.00000000000E+00 0.  1.
         14    1    6    6    0    0  0.92806170169E+02  0.53828144952E+02  0.68761329366E+02  0.12743066674E+03  0.00000000000E+00 0. -1.
         -5    1    3    3    0  503 -0.13466485741E+03 -0.64792727847E+02 -0.27620232036E+03  0.31407408867E+03  0.47000000000E+01 0.  1.
         11    1    4    4    0    0  0.57864924937E+01 -0.22676478119E+02 -0.94298102055E+01  0.25231477875E+02  0.00000000000E+00 0. -1.
        -12    1    4    4    0    0 -0.23283145490E+02  0.40658530788E+02 -0.12965894392E+03  0.13786465365E+03  0.00000000000E+00 0.  1.
<mgrwt>
<rscale>  2 0.23491633E+03</rscale>
<asrwt>0</asrwt>
<pdfrwt beam="1">  1       21 0.23688820E-01 0.23499945E+03</pdfrwt>
<pdfrwt beam="2">  1       21 0.85865306E-01 0.23499945E+03</pdfrwt>
<totfact> 0.19172641E+04</totfact>
</mgrwt>
</event>
<event>
12    1  0.1071811E-001  0.2249450E+03  0.7546771E-02  0.1130323E+00
         21   -1    0    0  503  502  0.00000000000E+00  0.00000000000E+00  0.80978424055E+03  0.80978424055E+03  0.00000000000E+00 0. -1.
         21   -1    0    0  501  503 -0.00000000000E+00 -0.00000000000E+00 -0.76610892697E+02  0.76610892697E+02  0.00000000000E+00 0. -1.
          6    2    1    2  501    0  0.52823266324E+02 -0.13411858536E+03  0.17579552094E+03  0.28548964704E+03  0.17269099855E+03 0.  0.
         24    2    3    3    0    0 -0.22877059373E+02 -0.76922762666E+02  0.14668472033E+03  0.18613457592E+03  0.81787541314E+02 0.  0.
         -6    2    1    2    0  502 -0.52823266324E+02  0.13411858536E+03  0.55737782691E+03  0.60090548621E+03  0.17216059078E+03 0.  0.
        -24    2    5    5    0    0  0.14620230727E+02  0.12686255025E+03  0.41446366613E+03  0.44264044682E+03  0.88558324381E+02 0.  0.
          5    1    3    3  501    0  0.75700325697E+02 -0.57195822691E+02  0.29110800608E+02  0.99355071113E+02  0.47000000000E+01 0. -1.
        -13    1    4    4    0    0 -0.50303664344E+02 -0.62773532173E+02  0.84234214080E+02  0.11647479474E+03  0.00000000000E+00 0.  1.
         14    1    4    4    0    0  0.27426604971E+02 -0.14149230493E+02  0.62450506248E+02  0.69659781183E+02  0.00000000000E+00 0. -1.
         -5    1    5    5    0  502 -0.67443497051E+02  0.72560351033E+01  0.14291416079E+03  0.15826503939E+03  0.47000000000E+01 0.  1.
         11    1    6    6    0    0  0.14557109807E+02  0.62792337729E+02  0.33206714408E+03  0.33826524400E+03  0.00000000000E+00 0. -1.
        -12    1    6    6    0    0  0.63120919759E-01  0.64070212525E+02  0.82396522045E+02  0.10437520281E+03  0.00000000000E+00 0.  1.
<mgrwt>
<rscale>  2 0.22484324E+03</rscale>
<asrwt>0</asrwt>
<pdfrwt beam="1">  1       21 0.12458219E+00 0.22494505E+03</pdfrwt>
<pdfrwt beam="2">  1       21 0.11786292E-01 0.22494505E+03</pdfrwt>
<totfact> 0.28611557E+04</totfact>
</mgrwt>
</event>
<event>
11    1  0.1071811E-001  0.2772749E+03  0.7546771E-02  0.1097891E+00
         21   -1    0    0  503  502  0.00000000000E+00  0.00000000000E+00  0.60315428629E+03  0.60315428629E+03  0.00000000000E+00 0.  1.
         21   -1    0    0  501  503 -0.00000000000E+00 -0.00000000000E+00 -0.12549752713E+03  0.12549752713E+03  0.00000000000E+00 0. -1.
          6    2    1    2  501    0 -0.17954262755E+03  0.10929441929E+03  0.25563868009E+03  0.37344288845E+03  0.17299604324E+03 0.  0.
         24    2    3    3    0    0 -0.17894631010E+03  0.12035156199E+03  0.27014733580E+03  0.35459594997E+03  0.79072272775E+02 0.  0.
         -6    2    1    2    0  502  0.17954262755E+03 -0.10929441929E+03  0.22201807907E+03  0.35520892497E+03  0.18083287242E+03 0.  0.
          5    1    3    3  501    0 -0.59631745368E+00 -0.11057142708E+02 -0.14508655710E+02  0.18846938475E+02  0.47000000000E+01 0. -1.
        -13    1    4    4    0    0 -0.74727945299E+02  0.63408531224E+01  0.95823262358E+02  0.12168224947E+03  0.00000000000E+00 0.  1.
         14    1    4    4    0    0 -0.10421836480E+03  0.11401070887E+03  0.17432407345E+03  0.23291370050E+03  0.00000000000E+00 0. -1.
         -5    1    5    5    0  502  0.84661984014E+02 -0.63437120460E+02  0.21588459163E+03  0.24045824314E+03  0.47000000000E+01 0.  1.
         11    1    5    5    0    0  0.97286454777E+02 -0.47538147821E+02  0.11239175922E+02  0.10886160414E+03  0.00000000000E+00 0. -1.
        -12    1    5    5    0    0 -0.24058112359E+01  0.16808489946E+01 -0.51056884888E+01  0.58890776859E+01  0.00000000000E+00 0.  1.
<mgrwt>
<rscale>  2 0.27600462E+03</rscale>
<asrwt>0</asrwt>
<pdfrwt beam="1">  1       21 0.92792965E-01 0.27727487E+03</pdfrwt>
<pdfrwt beam="2">  1       21 0.19307312E-01 0.27727487E+03</pdfrwt>
<totfact> 0.23096364E+04</totfact>
</mgrwt>
</event>
<event>
12    1  0.1071811E-001  0.2089257E+03  0.7546771E-02  0.1142759E+00
         21   -1    0    0  501  502  0.00000000000E+00  0.00000000000E+00  0.46906567676E+03  0.46906567676E+03  0.00000000000E+00 0. -1.
         21   -1    0    0  502  503 -0.00000000000E+00 -0.00000000000E+00 -0.15142866981E+03  0.15142866981E+03  0.00000000000E+00 0. -1.
         -6    2    1    2    0  503  0.44954609077E+02  0.10582818716E+03 -0.34645927667E+02  0.21177889898E+03  0.17444036137E+03 0.  0.
        -24    2    3    3    0    0 -0.32394212508E+02  0.81924171134E+02 -0.45021191566E+02  0.13002329805E+03  0.84369399224E+02 0.  0.
          6    2    1    2  501    0 -0.44954609077E+02 -0.10582818716E+03  0.35228293462E+03  0.40871544760E+03  0.17240803058E+03 0.  0.
         24    2    5    5    0    0 -0.42403717296E+02 -0.53338585700E+02  0.77089483854E+02  0.12850982550E+03  0.76999394577E+02 0.  0.
          5    1    5    5  501    0 -0.25508917811E+01 -0.52489601460E+02  0.27519345076E+03  0.28020562209E+03  0.47000000000E+01 0. -1.
        -11    1    6    6    0    0 -0.65997635354E+01 -0.34311559966E+02 -0.65607748278E+01  0.35551143334E+02  0.00000000000E+00 0.  1.
         12    1    6    6    0    0 -0.35803953760E+02 -0.19027025734E+02  0.83650258682E+02  0.92958682170E+02  0.00000000000E+00 0. -1.
         -5    1    3    3    0  503  0.77348821585E+02  0.23904016026E+02  0.10375263900E+02  0.81755600932E+02  0.47000000000E+01 0.  1.
         11    1    4    4    0    0 -0.13957043886E+01  0.71396775724E+02 -0.60702264678E+02  0.93724129826E+02  0.00000000000E+00 0. -1.
        -12    1    4    4    0    0 -0.30998508120E+02  0.10527395410E+02  0.15681073112E+02  0.36299168223E+02  0.00000000000E+00 0.  1.
<mgrwt>
<rscale>  2 0.20850098E+03</rscale>
<asrwt>0</asrwt>
<pdfrwt beam="1">  1       21 0.72163950E-01 0.20892573E+03</pdfrwt>
<pdfrwt beam="2">  1       21 0.23296719E-01 0.20892573E+03</pdfrwt>
<totfact> 0.29739010E+04</totfact>
</mgrwt>
</event>
<event>
12    1  0.1071811E-001  0.1951368E+03  0.7546771E-02  0.1154381E+00
         21   -1    0    0  501  502  0.00000000000E+00  0.00000000000E+00  0.97863999427E+02  0.97863999427E+02  0.00000000000E+00 0.  1.
         21   -1    0    0  502  503 -0.00000000000E+00 -0.00000000000E+00 -0.48962456650E+03  0.48962456650E+03  0.00000000000E+00 0.  1.
         -6    2    1    2    0  503  0.24389283408E+02 -0.80538110077E+02 -0.33093406896E+03  0.38309136821E+03  0.17366753893E+03 0.  0.
        -24    2    3    3    0    0  0.34586466610E+02  0.88547062281E+01 -0.23940475630E+03  0.25465942815E+03  0.79133794998E+02 0.  0.
          6    2    1    2  501    0 -0.24389283408E+02  0.80538110077E+02 -0.60826498117E+02  0.20439719772E+03  0.17606001034E+03 0.  0.
         24    2    5    5    0    0  0.27908384478E+02  0.22649829666E+02  0.22468269999E+02  0.90177201787E+02  0.79594044107E+02 0.  0.
          5    1    5    5  501    0 -0.52297667886E+02  0.57888280411E+02 -0.83294768115E+02  0.11421999593E+03  0.47000000000E+01 0. -1.
        -13    1    6    6    0    0  0.84772214611E+01  0.34321574500E+02 -0.21024389853E+02  0.41132210354E+02  0.00000000000E+00 0.  1.
         14    1    6    6    0    0  0.19431163017E+02 -0.11671744834E+02  0.43492659852E+02  0.49044991433E+02  0.00000000000E+00 0. -1.
         -5    1    3    3    0  503 -0.10197183202E+02 -0.89392816305E+02 -0.91529312661E+02  0.12843194006E+03  0.47000000000E+01 0.  1.
         13    1    4    4    0    0  0.43688556479E+02  0.15569453665E+02 -0.64794886642E+02  0.79683594231E+02  0.00000000000E+00 0. -1.
        -14    1    4    4    0    0 -0.91020898691E+01 -0.67147474367E+01 -0.17460986966E+03  0.17497583392E+03  0.00000000000E+00 0.  1.
<mgrwt>
<rscale>  2 0.19459555E+03</rscale>
<asrwt>0</asrwt>
<pdfrwt beam="1">  1       21 0.15056000E-01 0.19513675E+03</pdfrwt>
<pdfrwt beam="2">  1       21 0.75326856E-01 0.19513675E+03</pdfrwt>
<totfact> 0.61279789E+04</totfact>
</mgrwt>
</event>
<event>
12    1  0.1071811E-001  0.2428469E+03  0.7546771E-02  0.1119895E+00
         21   -1    0    0  503  502  0.00000000000E+00  0.00000000000E+00  0.18375066364E+03  0.18375066364E+03  0.00000000000E+00 0.  1.
         21   -1    0    0  501  503 -0.00000000000E+00 -0.00000000000E+00 -0.30557819255E+03  0.30557819255E+03  0.00000000000E+00 0.  1.
          6    2    1    2  501    0 -0.10510964778E+03 -0.13430408861E+03 -0.63560775809E+02  0.25102709207E+03  0.17288436152E+03 0.  0.
         24    2    3    3    0    0 -0.80785755169E+02 -0.12001656108E+02 -0.56219957523E+02  0.12602503465E+03  0.77789766335E+02 0.  0.
         -6    2    1    2    0  502  0.10510964778E+03  0.13430408861E+03 -0.58266753101E+02  0.23830176413E+03  0.15590731219E+03 0.  0.
        -24    2    5    5    0    0  0.32978848937E+02  0.12690966177E+03 -0.29063602629E+02  0.15999184337E+03  0.86942683545E+02 0.  0.
          5    1    3    3  501    0 -0.24323892616E+02 -0.12230243250E+03 -0.73408182865E+01  0.12500205742E+03  0.47000000000E+01 0. -1.
        -13    1    4    4    0    0 -0.95010604400E+02 -0.29055453122E+01 -0.53013413090E+02  0.10883877576E+03  0.00000000000E+00 0.  1.
         14    1    4    4    0    0  0.14224849231E+02 -0.90961107960E+01 -0.32065444323E+01  0.17186258885E+02  0.00000000000E+00 0. -1.
         -5    1    5    5    0  502  0.72130798848E+02  0.73944268417E+01 -0.29203150471E+02  0.78309920752E+02  0.47000000000E+01 0.  1.
         11    1    6    6    0    0  0.47869902951E+02  0.25952783826E+02 -0.17971982971E+02  0.57341666952E+02  0.00000000000E+00 0. -1.
        -12    1    6    6    0    0 -0.14891054015E+02  0.10095687794E+03 -0.11091619659E+02  0.10265017642E+03  0.00000000000E+00 0.  1.
<mgrwt>
<rscale>  2 0.23984723E+03</rscale>
<asrwt>0</asrwt>
<pdfrwt beam="1">  1       21 0.28269333E-01 0.24284692E+03</pdfrwt>
<pdfrwt beam="2">  1       21 0.47012029E-01 0.24284692E+03</pdfrwt>
<totfact> 0.50634104E+04</totfact>
</mgrwt>
</event>
<event>
11    1  0.1071811E-001  0.1885639E+03  0.7546771E-02  0.1160639E+00
         21   -1    0    0  501  502  0.00000000000E+00  0.00000000000E+00  0.83006112064E+02  0.83006112064E+02  0.00000000000E+00 0.  1.
         21   -1    0    0  502  503 -0.00000000000E+00 -0.00000000000E+00 -0.11379934358E+04  0.11379934358E+04  0.00000000000E+00 0.  1.
         -6    2    1    2    0  503  0.19377568272E+02  0.62244923337E+02 -0.10144779595E+04  0.10318536133E+04  0.17693622660E+03 0.  0.
        -24    2    3    3    0    0 -0.17157934140E+02  0.75045561030E+02 -0.94986756643E+03  0.95638645383E+03  0.80625209332E+02 0.  0.
          6    2    1    2  501    0 -0.19377568272E+02 -0.62244923337E+02 -0.40509364203E+02  0.18914593456E+03  0.17287352411E+03 0.  0.
          5    1    5    5  501    0  0.89513260639E+00 -0.12644053233E+02 -0.55316445676E+02  0.56944468624E+02  0.47000000000E+01 0. -1.
        -13    1    5    5    0    0  0.43251017475E+02 -0.18472489266E+01  0.28121729769E+02  0.51622616423E+02  0.00000000000E+00 0.  1.
         14    1    5    5    0    0 -0.63523718353E+02 -0.47753621178E+02 -0.13314648296E+02  0.80578849509E+02  0.00000000000E+00 0. -1.
         -5    1    3    3    0  503  0.36535502411E+02 -0.12800637693E+02 -0.64610393055E+02  0.75467159430E+02  0.47000000000E+01 0.  1.
         11    1    4    4    0    0 -0.43141925190E+02  0.35335379332E+02 -0.32764598884E+03  0.33235780229E+03  0.00000000000E+00 0. -1.
        -12    1    4    4    0    0  0.25983991050E+02  0.39710181699E+02 -0.62222157760E+03  0.62402865154E+03  0.00000000000E+00 0.  1.
<mgrwt>
<rscale>  2 0.18760491E+03</rscale>
<asrwt>0</asrwt>
<pdfrwt beam="1">  1       21 0.12770170E-01 0.18856391E+03</pdfrwt>
<pdfrwt beam="2">  1       21 0.17507593E+00 0.18856391E+03</pdfrwt>
<totfact> 0.10357373E+04</totfact>
</mgrwt>
</event>
<event>
12    1  0.1071811E-001  0.1842454E+03  0.7546771E-02  0.1163837E+00
         21   -1    0    0  501  502  0.00000000000E+00  0.00000000000E+00  0.96336633163E+03  0.96336633163E+03  0.00000000000E+00 0.  1.
         21   -1    0    0  502  503 -0.00000000000E+00 -0.00000000000E+00 -0.44267637272E+02  0.44267637272E+02  0.00000000000E+00 0.  1.
         -6    2    1    2    0  503  0.51716094112E+02  0.33577760154E+02  0.68826747674E+03  0.71250157675E+03  0.17362130330E+03 0.  0.
        -24    2    3    3    0    0  0.42560137760E+02  0.88185454375E+02  0.49157148800E+03  0.50810677791E+03  0.83318246827E+02 0.  0.
          6    2    1    2  501    0 -0.51716094112E+02 -0.33577760154E+02  0.23083121762E+03  0.29513239215E+03  0.17325720044E+03 0.  0.
         24    2    5    5    0    0 -0.57038989604E+02 -0.82105573011E+02  0.19250521543E+03  0.23288888421E+03  0.84759677727E+02 0.  0.
          5    1    5    5  501    0  0.53228954920E+01  0.48527812857E+02  0.38326002190E+02  0.62243507942E+02  0.47000000000E+01 0. -1.
        -11    1    6    6    0    0 -0.64559809330E+02 -0.21476167183E+02  0.81363098605E+02  0.10606200334E+03  0.00000000000E+00 0.  1.
         12    1    6    6    0    0  0.75208197259E+01 -0.60629405828E+02  0.11114211682E+03  0.12682688087E+03  0.00000000000E+00 0. -1.
         -5    1    3    3    0  503  0.91559563516E+01 -0.54607694221E+02  0.19669598874E+03  0.20439479884E+03  0.47000000000E+01 0.  1.
         11    1    4    4    0    0  0.22171786333E+02  0.17760267553E+02  0.32279523991E+02  0.42999800951E+02  0.00000000000E+00 0. -1.
        -12    1    4    4    0    0  0.20388351427E+02  0.70425186823E+02  0.45929196401E+03  0.46510697696E+03  0.00000000000E+00 0.  1.
<mgrwt>
<rscale>  2 0.18415960E+03</rscale>
<asrwt>0</asrwt>
<pdfrwt beam="1">  1       21 0.14821019E+00 0.18424543E+03</pdfrwt>
<pdfrwt beam="2">  1       21 0.68104064E-02 0.18424543E+03</pdfrwt>
<totfact> 0.49157000E+04</totfact>
</mgrwt>
</event>
<event>
12    1  0.1071811E-001  0.1805445E+03  0.7546771E-02  0.1167651E+00
         21   -1    0    0  503  502  0.00000000000E+00  0.00000000000E+00  0.24029018452E+03  0.24029018452E+03  0.00000000000E+00 0.  1.
         21   -1    0    0  501  503 -0.00000000000E+00 -0.00000000000E+00 -0.16354440765E+03  0.16354440765E+03  0.00000000000E+00 0.  1.
          6    2    1    2  501    0  0.42856553062E+02 -0.26014076465E+02  0.12333524810E+03  0.21737580326E+03  0.17183492109E+03 0.  0.
         24    2    3    3    0    0  0.35981594814E+02 -0.83767715778E+02  0.85408330626E+02  0.14778206091E+03  0.78950929164E+02 0.  0.
         -6    2    1    2    0  502 -0.42856553062E+02  0.26014076465E+02 -0.46589471240E+02  0.18645878891E+03  0.17344418357E+03 0.  0.
        -24    2    5    5    0    0  0.26889136519E+02  0.56384417855E+02 -0.22781846757E+02  0.10661073424E+03  0.83334313900E+02 0.  0.
          5    1    3    3  501    0  0.68749582481E+01  0.57753639313E+02  0.37926917475E+02  0.69593742347E+02  0.47000000000E+01 0. -1.
        -13    1    4    4    0    0  0.47460587205E+01 -0.39840240549E+02  0.84873126358E+02  0.93878737838E+02  0.00000000000E+00 0.  1.
         14    1    4    4    0    0  0.31235536093E+02 -0.43927475229E+02  0.53520426795E+00  0.53903323076E+02  0.00000000000E+00 0. -1.
         -5    1    5    5    0  502 -0.69745689581E+02 -0.30370341390E+02 -0.23807624483E+02  0.79848054671E+02  0.47000000000E+01 0.  1.
         11    1    6    6    0    0 -0.11797983699E+02  0.62242957228E+02 -0.23241147965E+02  0.67479842194E+02  0.00000000000E+00 0. -1.
        -12    1    6    6    0    0  0.38687120218E+02 -0.58585393729E+01  0.45930120851E+00  0.39130892042E+02  0.00000000000E+00 0.  1.
<mgrwt>
<rscale>  2 0.18015686E+03</rscale>
<asrwt>0</asrwt>
<pdfrwt beam="1">  1       21 0.36967721E-01 0.18054446E+03</pdfrwt>
<pdfrwt beam="2">  1       21 0.25160678E-01 0.18054446E+03</pdfrwt>
<totfact> 0.10606424E+05</totfact>
</mgrwt>
</event>
<event>
12    1  0.1071811E-001  0.2089971E+03  0.7546771E-02  0.1142549E+00
         21   -1    0    0  503  502  0.00000000000E+00  0.00000000000E+00  0.11791011615E+04  0.11791011615E+04  0.00000000000E+00 0.  1.
         21   -1    0    0  501  503 -0.00000000000E+00 -0.00000000000E+00 -0.11426408943E+03  0.11426408943E+03  0.00000000000E+00 0. -1.
          6    2    1    2  501    0 -0.89482585620E+02  0.74187961272E+02  0.61822190969E+00  0.20899799520E+03  0.17369166092E+03 0.  0.
         24    2    3    3    0    0 -0.99996394908E+02 -0.15128854268E+01 -0.16791753566E+02  0.13047184909E+03  0.82093681859E+02 0.  0.
         -6    2    1    2    0  502  0.89482585620E+02 -0.74187961272E+02  0.10642188501E+04  0.10843672557E+04  0.17256766069E+03 0.  0.
        -24    2    5    5    0    0  0.99184157011E+02 -0.24468072740E+02  0.46188097298E+03  0.47988467029E+03  0.80740819871E+02 0.  0.
          5    1    3    3  501    0  0.10513809288E+02  0.75700846698E+02  0.17409975476E+02  0.78526146109E+02  0.47000000000E+01 0. -1.
        -11    1    4    4    0    0  0.79167126713E+01 -0.10567054125E+02  0.12611411558E+02  0.18258824548E+02  0.00000000000E+00 0.  1.
         12    1    4    4    0    0 -0.10791310758E+03  0.90541686984E+01 -0.29403165124E+02  0.11221302454E+03  0.00000000000E+00 0. -1.
         -5    1    5    5    0  502 -0.97015713912E+01 -0.49719888532E+02  0.60233787714E+03  0.60448258539E+03  0.47000000000E+01 0.  1.
         11    1    6    6    0    0  0.71760624761E+02 -0.54074561616E+02  0.32024878547E+03  0.33261528840E+03  0.00000000000E+00 0. -1.
        -12    1    6    6    0    0  0.27423532250E+02  0.29606488876E+02  0.14163218751E+03  0.14726938189E+03  0.00000000000E+00 0.  1.
<mgrwt>
<rscale>  2 0.20876339E+03</rscale>
<asrwt>0</asrwt>
<pdfrwt beam="1">  1       21 0.18140017E+00 0.20899708E+03</pdfrwt>
<pdfrwt beam="2">  1       21 0.17579092E-01 0.20899708E+03</pdfrwt>
<totfact> 0.51474864E+03</totfact>
</mgrwt>
</event>
<event>
12    1  0.1071811E-001  0.1784867E+03  0.7546771E-02  0.1169893E+00
         21   -1    0    0  503  502  0.00000000000E+00  0.00000000000E+00  0.62149055839E+02  0.62149055839E+02  0.00000000000E+00 0.  1.
         21   -1    0    0  501  503 -0.00000000000E+00 -0.00000000000E+00 -0.58399166148E+03  0.58399166148E+03  0.00000000000E+00 0.  1.
          6    2    1    2  501    0 -0.40055183844E+02 -0.17377928453E+02 -0.14402284360E+03  0.22934706765E+03  0.17306382583E+03 0.  0.
         24    2    3    3    0    0 -0.93638663031E+01 -0.67187254537E+02 -0.13379381888E+03  0.16976813778E+03  0.79489782180E+02 0.  0.
         -6    2    1    2    0  502  0.40055183844E+02  0.17377928453E+02 -0.37781976204E+03  0.41679364967E+03  0.17047804452E+03 0.  0.
        -24    2    5    5    0    0 -0.40729554379E+02  0.26933642419E+02 -0.21319485876E+03  0.23310659411E+03  0.80636956302E+02 0.  0.
          5    1    3    3  501    0 -0.30691317541E+02  0.49809326084E+02 -0.10229024714E+02  0.59578929866E+02  0.47000000000E+01 0. -1.
        -13    1    4    4    0    0 -0.42075224849E+01  0.16565961460E+02 -0.88107195695E+01  0.19229225255E+02  0.00000000000E+00 0.  1.
         14    1    4    4    0    0 -0.51563438182E+01 -0.83753215998E+02 -0.12498309931E+03  0.15053891253E+03  0.00000000000E+00 0. -1.
         -5    1    5    5    0  502  0.80784738223E+02 -0.95557139657E+01 -0.16462490328E+03  0.18368705556E+03  0.47000000000E+01 0.  1.
         11    1    6    6    0    0  0.10854839584E+02  0.39204342873E+02 -0.10536395252E+03  0.11294410358E+03  0.00000000000E+00 0. -1.
        -12    1    6    6    0    0 -0.51584393963E+02 -0.12270700454E+02 -0.10783090624E+03  0.12016249053E+03  0.00000000000E+00 0.  1.
<mgrwt>
<rscale>  2 0.17785684E+03</rscale>
<asrwt>0</asrwt>
<pdfrwt beam="1">  1       21 0.95613928E-02 0.17848669E+03</pdfrwt>
<pdfrwt beam="2">  1       21 0.89844875E-01 0.17848669E+03</pdfrwt>
<totfact> 0.93179707E+04</totfact>
</mgrwt>
</event>
<event>
12    1  0.1071811E-001  0.1918570E+03  0.7546771E-02  0.1156909E+00
         21   -1    0    0  503  502  0.00000000000E+00  0.00000000000E+00  0.10415070026E+03  0.10415070026E+03  0.00000000000E+00 0.  1.
         21   -1    0    0  501  503 -0.00000000000E+00 -0.00000000000E+00 -0.52723586869E+03  0.52723586869E+03  0.00000000000E+00 0.  1.
          6    2    1    2  501    0 -0.47803638130E+02  0.64153252811E+02 -0.39347372005E+03  0.43775641487E+03  0.17437970848E+03 0.  0.
         24    2    3    3    0    0 -0.35532225494E+02  0.10924547635E+03 -0.32835442707E+03  0.35746626287E+03  0.82270202118E+02 0.  0.
         -6    2    1    2    0  502  0.47803638130E+02 -0.64153252811E+02 -0.29611448381E+02  0.19363015408E+03  0.17382454093E+03 0.  0.
        -24    2    5    5    0    0  0.80445980066E+02 -0.27278182345E+02 -0.64521329676E+02  0.13308196566E+03  0.79574824280E+02 0.  0.
          5    1    3    3  501    0 -0.12271412635E+02 -0.45092223542E+02 -0.65119292971E+02  0.80290152006E+02  0.47000000000E+01 0. -1.
        -13    1    4    4    0    0  0.25698769763E+02  0.21129846343E+02 -0.94034325130E+02  0.99746435909E+02  0.00000000000E+00 0.  1.
         14    1    4    4    0    0 -0.61230995257E+02  0.88115630010E+02 -0.23432010194E+03  0.25771982696E+03  0.00000000000E+00 0. -1.
         -5    1    5    5    0  502 -0.32642341936E+02 -0.36875070466E+02  0.34909881295E+02  0.60548188420E+02  0.47000000000E+01 0.  1.
         13    1    6    6    0    0  0.82044527589E+02 -0.29851421010E+02 -0.21448114688E+02  0.89902355182E+02  0.00000000000E+00 0. -1.
        -14    1    6    6    0    0 -0.15985475230E+01  0.25732386649E+01 -0.43073214988E+02  0.43179610475E+02  0.00000000000E+00 0.  1.
<mgrwt>
<rscale>  2 0.19173077E+03</rscale>
<asrwt>0</asrwt>
<pdfrwt beam="1">  1       21 0.16023185E-01 0.19185701E+03</pdfrwt>
<pdfrwt beam="2">  1       21 0.81113211E-01 0.19185701E+03</pdfrwt>
<totfact> 0.46376747E+04</totfact>
</mgrwt>
</event>
<event>
12    1  0.1071811E-001  0.1872511E+03  0.7546771E-02  0.1161234E+00
         21   -1    0    0  501  502  0.00000000000E+00  0.00000000000E+00  0.28882878111E+02  0.28882878111E+02  0.00000000000E+00 0.  1.
         21   -1    0    0  502  503 -0.00000000000E+00 -0.00000000000E+00 -0.12359168139E+04  0.12359168139E+04  0.00000000000E+00 0. -1.
         -6    2    1    2    0  503  0.68421012105E+02  0.69008886341E+01 -0.69941797687E+03  0.72374801063E+03  0.17290638901E+03 0.  0.
        -24    2    3    3    0    0  0.10578755414E+03  0.33687902830E+02 -0.50683100192E+03  0.52569338303E+03  0.84557596025E+02 0.  0.
          6    2    1    2  501    0 -0.68421012105E+02 -0.69008886341E+01 -0.50761595893E+03  0.54105168139E+03  0.17416630849E+03 0.  0.
         24    2    5    5    0    0 -0.69728455287E+02  0.47183125870E+02 -0.43517718080E+03  0.45051850178E+03  0.80619085330E+02 0.  0.
          5    1    5    5  501    0  0.13074431815E+01 -0.54084014504E+02 -0.72438778135E+02  0.90533179610E+02  0.47000000000E+01 0. -1.
        -11    1    6    6    0    0  0.72281783868E+01 -0.66421362221E+01 -0.14906461468E+03  0.14938749575E+03  0.00000000000E+00 0.  1.
         12    1    6    6    0    0 -0.76956633674E+02  0.53825262092E+02 -0.28611256612E+03  0.30113100604E+03  0.00000000000E+00 0. -1.
         -5    1    3    3    0  503 -0.37366542039E+02 -0.26787014196E+02 -0.19258697495E+03  0.19805462760E+03  0.47000000000E+01 0.  1.
         13    1    4    4    0    0 -0.30120009215E+01 -0.16775788822E+02 -0.10401654544E+03  0.10540370471E+03  0.00000000000E+00 0. -1.
        -14    1    4    4    0    0  0.10879955507E+03  0.50463691653E+02 -0.40281445647E+03  0.42028967832E+03  0.00000000000E+00 0.  1.
<mgrwt>
<rscale>  2 0.18695755E+03</rscale>
<asrwt>0</asrwt>
<pdfrwt beam="1">  1       21 0.44435204E-02 0.18725106E+03</pdfrwt>
<pdfrwt beam="2">  1       21 0.19014102E+00 0.18725106E+03</pdfrwt>
<totfact> 0.51279678E+04</totfact>
</mgrwt>
</event>
<event>
12    1  0.1071811E-001  0.2131204E+03  0.7546771E-02  0.1139405E+00
         21   -1    0    0  501  502  0.00000000000E+00  0.00000000000E+00  0.46384021977E+03  0.46384021977E+03  0.00000000000E+00 0.  1.
         21   -1    0    0  502  503 -0.00000000000E+00 -0.00000000000E+00 -0.11576337132E+03  0.11576337132E+03  0.00000000000E+00 0. -1.
         -6    2    1    2    0  503 -0.31337187008E+02 -0.11837838536E+03  0.57638046796E+02  0.21936059174E+03  0.17263100348E+03 0.  0.
        -24    2    3    3    0    0 -0.88164468893E+02 -0.70773821146E+02  0.41796315475E+02  0.14340939062E+03  0.77700797916E+02 0.  0.
          6    2    1    2  501    0  0.31337187008E+02  0.11837838536E+03  0.29043880166E+03  0.36024299935E+03  0.17442723315E+03 0.  0.
         24    2    5    5    0    0  0.45064332683E+02  0.70866252703E+01  0.19319635767E+03  0.21174224749E+03  0.73681289454E+02 0.  0.
          5    1    5    5  501    0 -0.13727145675E+02  0.11129176009E+03  0.97242443987E+02  0.14850075186E+03  0.47000000000E+01 0. -1.
        -13    1    6    6    0    0 -0.20194498732E+02  0.39668454260E+01  0.35270873131E+02  0.40836113100E+02  0.00000000000E+00 0.  1.
         14    1    6    6    0    0  0.65258831415E+02  0.31197798443E+01  0.15792548454E+03  0.17090613439E+03  0.00000000000E+00 0. -1.
         -5    1    3    3    0  503  0.56827281886E+02 -0.47604564210E+02  0.15841731321E+02  0.75951201119E+02  0.47000000000E+01 0.  1.
         11    1    4    4    0    0 -0.85147786207E+00  0.13829840081E+02  0.11764258168E+02  0.18176558020E+02  0.00000000000E+00 0. -1.
        -12    1    4    4    0    0 -0.87312991031E+02 -0.84603661227E+02  0.30032057307E+02  0.12523283260E+03  0.00000000000E+00 0.  1.
<mgrwt>
<rscale>  2 0.21275259E+03</rscale>
<asrwt>0</asrwt>
<pdfrwt beam="1">  1       21 0.71360033E-01 0.21312044E+03</pdfrwt>
<pdfrwt beam="2">  1       21 0.17809750E-01 0.21312044E+03</pdfrwt>
<totfact> 0.50341476E+04</totfact>
</mgrwt>
</event>
<event>
12    1  0.1071811E-001  0.1816126E+03  0.7546771E-02  0.1166694E+00
         21   -1    0    0  501  502  0.00000000000E+00  0.00000000000E+00  0.88137435009E+02  0.88137435009E+02  0.00000000000E+00 0.  1.
         21   -1    0    0  502  503 -0.00000000000E+00 -0.00000000000E+00 -0.54011883560E+03  0.54011883560E+03  0.00000000000E+00 0.  1.
         -6    2    1    2    0  503 -0.43116755204E+02 -0.27244524886E+02 -0.40126515170E+03  0.43969520305E+03  0.17238570389E+03 0.  0.
        -24    2    3    3    0    0 -0.27355725331E+02  0.41707025800E+02 -0.31118156321E+03  0.32506593402E+03  0.79662315221E+02 0.  0.
          6    2    1    2  501    0  0.43116755204E+02  0.27244524886E+02 -0.50716248896E+02  0.18856106756E+03  0.17430381402E+03 0.  0.
         24    2    5    5    0    0  0.95275721874E+02  0.10476254644E+02 -0.23428959025E+02  0.12717361868E+03  0.80230904758E+02 0.  0.
          5    1    5    5  501    0 -0.52158966670E+02  0.16768270242E+02 -0.27287289871E+02  0.61387448876E+02  0.47000000000E+01 0. -1.
        -13    1    6    6    0    0  0.24999309691E+02  0.19709643531E+02 -0.43129961050E+02  0.53606240993E+02  0.00000000000E+00 0.  1.
         14    1    6    6    0    0  0.70276412182E+02 -0.92333888867E+01  0.19701002026E+02  0.73567377691E+02  0.00000000000E+00 0. -1.
         -5    1    3    3    0  503 -0.15761029873E+02 -0.68951550686E+02 -0.90083588485E+02  0.11462926903E+03  0.47000000000E+01 0.  1.
         13    1    4    4    0    0  0.16277920406E+02  0.31925927612E+02 -0.59622873216E+02  0.69563802061E+02  0.00000000000E+00 0. -1.
        -14    1    4    4    0    0 -0.43633645737E+02  0.97810981879E+01 -0.25155869000E+03  0.25550213196E+03  0.00000000000E+00 0.  1.
<mgrwt>
<rscale>  2 0.18115082E+03</rscale>
<asrwt>0</asrwt>
<pdfrwt beam="1">  1       21 0.13559606E-01 0.18161261E+03</pdfrwt>
<pdfrwt beam="2">  1       21 0.83095204E-01 0.18161261E+03</pdfrwt>
<totfact> 0.59750988E+04</totfact>
</mgrwt>
</event>
<event>
12    1  0.1071811E-001  0.2070046E+03  0.7546771E-02  0.1144571E+00
         21   -1    0    0  503  502  0.00000000000E+00  0.00000000000E+00  0.19867797928E+04  0.19867797928E+04  0.00000000000E+00 0.  1.
         21   -1    0    0  501  503 -0.00000000000E+00 -0.00000000000E+00 -0.26789902639E+02  0.26789902639E+02  0.00000000000E+00 0. -1.
          6    2    1    2  501    0  0.61359569464E+02 -0.89598242044E+02  0.14432382649E+04  0.14580080878E+04  0.17623295109E+03 0.  0.
         24    2    3    3    0    0  0.10355296643E+03 -0.41360454056E+02  0.11241766675E+04  0.11325398714E+04  0.80246349265E+02 0.  0.
         -6    2    1    2    0  502 -0.61359569464E+02  0.89598242044E+02  0.51675162526E+03  0.55556160765E+03  0.17269515321E+03 0.  0.
        -24    2    5    5    0    0 -0.16299785309E+02  0.32613292265E+02  0.10963188603E+03  0.14198423796E+03  0.82529167937E+02 0.  0.
          5    1    3    3  501    0 -0.42193396966E+02 -0.48237787988E+02  0.31906159740E+03  0.32546821638E+03  0.47000000000E+01 0. -1.
        -13    1    4    4    0    0  0.25142935164E+02  0.19670806895E+02  0.44371180160E+03  0.44485870871E+03  0.00000000000E+00 0.  1.
         14    1    4    4    0    0  0.78410031265E+02 -0.61031260951E+02  0.68046486592E+03  0.68768116273E+03  0.00000000000E+00 0. -1.
         -5    1    5    5    0  502 -0.45059784154E+02  0.56984949779E+02  0.40711973923E+03  0.41357736969E+03  0.47000000000E+01 0.  1.
         11    1    6    6    0    0 -0.36463265909E+02  0.30000133151E+02  0.11196920039E+03  0.12151822738E+03  0.00000000000E+00 0. -1.
        -12    1    6    6    0    0  0.20163480600E+02  0.26131591143E+01 -0.23373143611E+01  0.20466010576E+02  0.00000000000E+00 0.  1.
<mgrwt>
<rscale>  2 0.20624959E+03</rscale>
<asrwt>0</asrwt>
<pdfrwt beam="1">  1       21 0.30565831E+00 0.20700458E+03</pdfrwt>
<pdfrwt beam="2">  1       21 0.41215250E-02 0.20700458E+03</pdfrwt>
<totfact> 0.11626455E+04</totfact>
</mgrwt>
</event>
<event>
12    1  0.1071811E-001  0.1815765E+03  0.7546771E-02  0.1167350E+00
         21   -1    0    0  503  502  0.00000000000E+00  0.00000000000E+00  0.54043164348E+03  0.54043164348E+03  0.00000000000E+00 0. -1.
         21   -1    0    0  501  503 -0.00000000000E+00 -0.00000000000E+00 -0.76532009351E+02  0.76532009351E+02  0.00000000000E+00 0. -1.
          6    2    1    2  501    0  0.40598705408E+02 -0.23895218811E+01  0.37950504902E+03  0.42070669465E+03  0.17696348775E+03 0.  0.
         24    2    3    3    0    0 -0.32044354304E+02 -0.43294461303E+02  0.21816492788E+03  0.23903954604E+03  0.81502869849E+02 0.  0.
         -6    2    1    2    0  502 -0.40598705408E+02  0.23895218811E+01  0.84394585106E+02  0.19625695818E+03  0.17245400239E+03 0.  0.
        -24    2    5    5    0    0  0.26554426985E+02  0.25527744898E+02  0.92149818349E+02  0.12465280887E+03  0.75431627230E+02 0.  0.
          5    1    3    3  501    0  0.72643059712E+02  0.40904939422E+02  0.16134012114E+03  0.18166714861E+03  0.47000000000E+01 0. -1.
        -11    1    4    4    0    0 -0.26775837819E+02  0.19565126827E+02  0.95709393606E+02  0.10129179485E+03  0.00000000000E+00 0.  1.
         12    1    4    4    0    0 -0.52685164854E+01 -0.62859588130E+02  0.12245553427E+03  0.13774775120E+03  0.00000000000E+00 0. -1.
         -5    1    5    5    0  502 -0.67153132393E+02 -0.23138223017E+02 -0.77552332431E+01  0.71604149302E+02  0.47000000000E+01 0.  1.
         13    1    6    6    0    0 -0.10048282658E+01  0.23600323430E+02 -0.45744024366E+01  0.24060550773E+02  0.00000000000E+00 0. -1.
        -14    1    6    6    0    0  0.27559255251E+02  0.19274214686E+01  0.96724220785E+02  0.10059225810E+03  0.00000000000E+00 0.  1.
<mgrwt>
<rscale>  2 0.18046843E+03</rscale>
<asrwt>0</asrwt>
<pdfrwt beam="1">  1       21 0.83143327E-01 0.18157654E+03</pdfrwt>
<pdfrwt beam="2">  1       21 0.11774156E-01 0.18157654E+03</pdfrwt>
<totfact> 0.76871314E+04</totfact>
</mgrwt>
</event>
<event>
12    1  0.1071811E-001  0.1872405E+03  0.7546771E-02  0.1161319E+00
         21   -1    0    0  501  502  0.00000000000E+00  0.00000000000E+00  0.12839412295E+04  0.12839412295E+04  0.00000000000E+00 0.  1.
         21   -1    0    0  502  503 -0.00000000000E+00 -0.00000000000E+00 -0.37272607499E+02  0.37272607499E+02  0.00000000000E+00 0.  1.
         -6    2    1    2    0  503  0.29316020719E+02 -0.59239508642E+02  0.27983821593E+03  0.33670230264E+03  0.17518637234E+03 0.  0.
        -24    2    3    3    0    0  0.77500648266E+02 -0.41391853139E+02  0.24802241227E+03  0.27608355553E+03  0.83590529721E+02 0.  0.
          6    2    1    2  501    0 -0.29316020719E+02  0.59239508642E+02  0.96683040605E+03  0.98451153434E+03  0.17358910889E+03 0.  0.
         24    2    5    5    0    0  0.68596857135E+01 -0.24954641736E+02  0.59719981975E+03  0.60366222421E+03  0.84206097172E+02 0.  0.
          5    1    5    5  501    0 -0.36175706433E+02  0.84194150378E+02  0.36963058631E+03  0.38084931013E+03  0.47000000000E+01 0. -1.
        -13    1    6    6    0    0 -0.32776948958E+02  0.19454010773E+00  0.12838376057E+03  0.13250191020E+03  0.00000000000E+00 0.  1.
         14    1    6    6    0    0  0.39636634671E+02 -0.25149181844E+02  0.46881605917E+03  0.47116031401E+03  0.00000000000E+00 0. -1.
         -5    1    3    3    0  503 -0.48184627547E+02 -0.17847655503E+02  0.31815803667E+02  0.60618747115E+02  0.47000000000E+01 0.  1.
         11    1    4    4    0    0  0.52081246993E+00 -0.44161069922E+02  0.85638949097E+02  0.96356115243E+02  0.00000000000E+00 0. -1.
        -12    1    4    4    0    0  0.76979835796E+02  0.27692167834E+01  0.16238346317E+03  0.17972744029E+03  0.00000000000E+00 0.  1.
<mgrwt>
<rscale>  2 0.18686601E+03</rscale>
<asrwt>0</asrwt>
<pdfrwt beam="1">  1       21 0.19752939E+00 0.18724052E+03</pdfrwt>
<pdfrwt beam="2">  1       21 0.57342483E-02 0.18724052E+03</pdfrwt>
<totfact> 0.29788527E+04</totfact>
</mgrwt>
</event>
<event>
12    1  0.1071811E-001  0.1811470E+03  0.7546771E-02  0.1167593E+00
         21   -1    0    0  503  502  0.00000000000E+00  0.00000000000E+00  0.20685450348E+03  0.20685450348E+03  0.00000000000E+00 0. -1.
         21   -1    0    0  501  503 -0.00000000000E+00 -0.00000000000E+00 -0.20112500794E+03  0.20112500794E+03  0.00000000000E+00 0. -1.
          6    2    1    2  501    0  0.31742008565E+02 -0.25965170093E+02 -0.94350930404E+02  0.20424578677E+03  0.17644403696E+03 0.  0.
         24    2    3    3    0    0 -0.36937552973E+02  0.17538961294E+02 -0.10684641060E+02  0.87491216862E+02  0.76606484650E+02 0.  0.
         -6    2    1    2    0  502 -0.31742008565E+02  0.25965170093E+02  0.10008042594E+03  0.20373372466E+03  0.17265455031E+03 0.  0.
        -24    2    5    5    0    0 -0.63864825050E+02  0.41707558506E+02  0.11964418651E+03  0.16269071235E+03  0.79594599090E+02 0.  0.
          5    1    3    3  501    0  0.68679561538E+02 -0.43504131387E+02 -0.83666289344E+02  0.11675456990E+03  0.47000000000E+01 0. -1.
        -13    1    4    4    0    0 -0.50132354389E+02 -0.16582571160E+01  0.15446702989E+02  0.52484315814E+02  0.00000000000E+00 0.  1.
         14    1    4    4    0    0  0.13194801416E+02  0.19197218410E+02 -0.26131344049E+02  0.35006901047E+02  0.00000000000E+00 0. -1.
         -5    1    5    5    0  502  0.32122816485E+02 -0.15742388414E+02 -0.19563760568E+02  0.41043012309E+02  0.47000000000E+01 0.  1.
         11    1    6    6    0    0  0.70724439913E+01  0.34437639296E+02  0.60821847254E+02  0.70251459542E+02  0.00000000000E+00 0. -1.
        -12    1    6    6    0    0 -0.70937269041E+02  0.72699192102E+01  0.58822339255E+02  0.92439252808E+02  0.00000000000E+00 0.  1.
<mgrwt>
<rscale>  2 0.18021764E+03</rscale>
<asrwt>0</asrwt>
<pdfrwt beam="1">  1       21 0.31823770E-01 0.18114702E+03</pdfrwt>
<pdfrwt beam="2">  1       21 0.30942309E-01 0.18114702E+03</pdfrwt>
<totfact> 0.95666270E+04</totfact>
</mgrwt>
</event>
<event>
12    1  0.1071811E-001  0.1921027E+03  0.7546771E-02  0.1158711E+00
         21   -1    0    0  503  502  0.00000000000E+00  0.00000000000E+00  0.24852118699E+03  0.24852118699E+03  0.00000000000E+00 0.  1.
         21   -1    0    0  501  503 -0.00000000000E+00 -0.00000000000E+00 -0.20410596632E+03  0.20410596632E+03  0.00000000000E+00 0.  1.
          6    2    1    2  501    0 -0.19129592167E+02  0.55392450121E+02 -0.10286253467E+03  0.21790855460E+03  0.18294581795E+03 0.  0.
         24    2    3    3    0    0 -0.81987910694E+02  0.53024774466E+02 -0.52381837593E+02  0.13711768338E+03  0.80769783820E+02 0.  0.
         -6    2    1    2    0  502  0.19129592167E+02 -0.55392450121E+02  0.14727775533E+03  0.23471859872E+03  0.17311215596E+03 0.  0.
        -24    2    5    5    0    0  0.29086908200E+02 -0.61161879114E+02  0.18386882664E+02  0.10522967444E+03  0.78411626960E+02 0.  0.
          5    1    3    3  501    0  0.62858318527E+02  0.23676756556E+01 -0.50480697072E+02  0.80790871223E+02  0.47000000000E+01 0. -1.
        -11    1    4    4    0    0 -0.61845913158E+01 -0.39190747044E+01 -0.40976082614E+02  0.41625084536E+02  0.00000000000E+00 0.  1.
         12    1    4    4    0    0 -0.75803319378E+02  0.56943849170E+02 -0.11405754980E+02  0.95492598842E+02  0.00000000000E+00 0. -1.
         -5    1    5    5    0  502 -0.99573160333E+01  0.57694289928E+01  0.12889087267E+03  0.12948892428E+03  0.47000000000E+01 0.  1.
         11    1    6    6    0    0  0.28647735889E+02  0.80455699899E+01 -0.85554085205E+01  0.30961572683E+02  0.00000000000E+00 0. -1.
        -12    1    6    6    0    0  0.43917231109E+00 -0.69207449104E+02  0.26942291185E+02  0.74268101754E+02  0.00000000000E+00 0.  1.
<mgrwt>
<rscale>  2 0.18972377E+03</rscale>
<asrwt>0</asrwt>
<pdfrwt beam="1">  1       21 0.38234029E-01 0.19210267E+03</pdfrwt>
<pdfrwt beam="2">  1       21 0.31400918E-01 0.19210267E+03</pdfrwt>
<totfact> 0.64318118E+04</totfact>
</mgrwt>
</event>
<event>
12    1  0.1071811E-001  0.2187245E+03  0.7546771E-02  0.1135137E+00
         21   -1    0    0  503  502  0.00000000000E+00  0.00000000000E+00  0.53031361727E+03  0.53031361727E+03  0.00000000000E+00 0. -1.
         21   -1    0    0  501  503 -0.00000000000E+00 -0.00000000000E+00 -0.31049542643E+03  0.31049542643E+03  0.00000000000E+00 0. -1.
          6    2    1    2  501    0 -0.35236496570E+02  0.12667273176E+03 -0.24483553716E+03  0.32724939921E+03  0.17280086042E+03 0.  0.
         24    2    3    3    0    0  0.42517415812E+02  0.90751387064E+02 -0.14338219558E+03  0.19439276816E+03  0.84773518278E+02 0.  0.
         -6    2    1    2    0  502  0.35236496570E+02 -0.12667273176E+03  0.46465372801E+03  0.51355964449E+03  0.17479367790E+03 0.  0.
        -24    2    5    5    0    0  0.80796155342E+02 -0.38634379749E+02  0.21318266048E+03  0.24321500938E+03  0.75405968184E+02 0.  0.
          5    1    3    3  501    0 -0.77753912382E+02  0.35921344696E+02 -0.10145334158E+03  0.13285663105E+03  0.47000000000E+01 0. -1.
        -11    1    4    4    0    0  0.42090968341E+02  0.29116857346E+02 -0.17254964932E+02  0.54010876797E+02  0.00000000000E+00 0.  1.
         12    1    4    4    0    0  0.42644747150E+00  0.61634529719E+02 -0.12612723065E+03  0.14038189136E+03  0.00000000000E+00 0. -1.
         -5    1    5    5    0  502 -0.45559658772E+02 -0.88038352012E+02  0.25147106753E+03  0.27034463512E+03  0.47000000000E+01 0.  1.
         11    1    6    6    0    0 -0.21386988788E+01  0.16987409586E+02  0.27870298637E+02  0.32709320742E+02  0.00000000000E+00 0. -1.
        -12    1    6    6    0    0  0.82934854220E+02 -0.55621789335E+02  0.18531236185E+03  0.21050568863E+03  0.00000000000E+00 0.  1.
<mgrwt>
<rscale>  2 0.21832613E+03</rscale>
<asrwt>0</asrwt>
<pdfrwt beam="1">  1       21 0.81586711E-01 0.21872453E+03</pdfrwt>
<pdfrwt beam="2">  1       21 0.47768527E-01 0.21872453E+03</pdfrwt>
<totfact> 0.54052378E+03</totfact>
</mgrwt>
</event>
<event>
12    1  0.1071811E-001  0.2706517E+03  0.7546771E-02  0.1100957E+00
         21   -1    0    0  503  502  0.00000000000E+00  0.00000000000E+00  0.10731239315E+03  0.10731239315E+03  0.00000000000E+00 0. -1.
         21   -1    0    0  501  503 -0.00000000000E+00 -0.00000000000E+00 -0.73183285281E+03  0.73183285281E+03  0.00000000000E+00 0.  1.
          6    2    1    2  501    0  0.18529911969E+03 -0.93220217059E+02 -0.42185488667E+03  0.50102440713E+03  0.17331514218E+03 0.  0.
         24    2    3    3    0    0  0.10050331580E+03  0.89773470439E+01 -0.14627992557E+03  0.19508598253E+03  0.80493569349E+02 0.  0.
         -6    2    1    2    0  502 -0.18529911969E+03  0.93220217059E+02 -0.20266557300E+03  0.33812083883E+03  0.17385797233E+03 0.  0.
        -24    2    5    5    0    0 -0.59184334429E+02  0.10278093999E+03 -0.90922479217E+02  0.16928673240E+03  0.79526055316E+02 0.  0.
          5    1    3    3  501    0  0.84795803886E+02 -0.10219756410E+03 -0.27557496110E+03  0.30593842460E+03  0.47000000000E+01 0. -1.
        -13    1    4    4    0    0  0.58921586312E+02  0.17796804592E+02 -0.13892254534E+03  0.15194720528E+03  0.00000000000E+00 0.  1.
         14    1    4    4    0    0  0.41581729490E+02 -0.88194575486E+01 -0.73573802288E+01  0.43138777251E+02  0.00000000000E+00 0. -1.
         -5    1    5    5    0  502 -0.12611478526E+03 -0.95607229293E+01 -0.11174309378E+03  0.16883410643E+03  0.47000000000E+01 0.  1.
         11    1    6    6    0    0 -0.58718086176E+02  0.87894131140E+02 -0.34896312117E+02  0.11131461958E+03  0.00000000000E+00 0. -1.
        -12    1    6    6    0    0 -0.46624825260E+00  0.14886808848E+02 -0.56026167101E+02  0.57972112822E+02  0.00000000000E+00 0.  1.
<mgrwt>
<rscale>  2 0.27056461E+03</rscale>
<asrwt>0</asrwt>
<pdfrwt beam="1">  1       21 0.16509599E-01 0.27065175E+03</pdfrwt>
<pdfrwt beam="2">  1       21 0.11258967E+00 0.27065175E+03</pdfrwt>
<totfact> 0.19465059E+04</totfact>
</mgrwt>
</event>
<event>
12    1  0.1071811E-001  0.1871833E+03  0.7546771E-02  0.1162920E+00
         21   -1    0    0  503  502  0.00000000000E+00  0.00000000000E+00  0.54503981162E+03  0.54503981162E+03  0.00000000000E+00 0.  1.
         21   -1    0    0  501  503 -0.00000000000E+00 -0.00000000000E+00 -0.12822880679E+03  0.12822880679E+03  0.00000000000E+00 0.  1.
          6    2    1    2  501    0 -0.54034194944E+02  0.60252503227E+02 -0.32117252368E+02  0.18991863379E+03  0.16878243745E+03 0.  0.
         24    2    3    3    0    0 -0.33794470916E+02  0.41450637768E+02 -0.86244747255E+02  0.12896756918E+03  0.79588038275E+02 0.  0.
         -6    2    1    2    0  502  0.54034194944E+02 -0.60252503227E+02  0.44892825720E+03  0.48334998462E+03  0.15981417069E+03 0.  0.
        -24    2    5    5    0    0 -0.30930261855E+02 -0.21489913121E+02  0.23345086782E+03  0.24845832311E+03  0.76247840464E+02 0.  0.
          5    1    3    3  501    0 -0.20239724028E+02  0.18801865459E+02  0.54127494887E+02  0.60951064603E+02  0.47000000000E+01 0. -1.
        -13    1    4    4    0    0  0.55282894792E+00  0.28086477727E+02  0.67880413229E+01  0.28900404079E+02  0.00000000000E+00 0.  1.
         14    1    4    4    0    0 -0.34347299864E+02  0.13364160041E+02 -0.93032788578E+02  0.10006716510E+03  0.00000000000E+00 0. -1.
         -5    1    5    5    0  502  0.84964456798E+02 -0.38762590106E+02  0.21547738938E+03  0.23489166151E+03  0.47000000000E+01 0.  1.
         11    1    6    6    0    0  0.24454323715E+02 -0.14895275497E+02  0.65409598970E+02  0.71402372635E+02  0.00000000000E+00 0. -1.
        -12    1    6    6    0    0 -0.55384585570E+02 -0.65946376234E+01  0.16804126885E+03  0.17705595048E+03  0.00000000000E+00 0.  1.
<mgrwt>
<rscale>  2 0.18513883E+03</rscale>
<asrwt>0</asrwt>
<pdfrwt beam="1">  1       21 0.83852278E-01 0.18718325E+03</pdfrwt>
<pdfrwt beam="2">  1       21 0.19727509E-01 0.18718325E+03</pdfrwt>
<totfact> 0.29360604E+04</totfact>
</mgrwt>
</event>
<event>
12    1  0.1071811E-001  0.1914112E+03  0.7546771E-02  0.1157378E+00
         21   -1    0    0  503  502  0.00000000000E+00  0.00000000000E+00  0.11513629222E+03  0.11513629222E+03  0.00000000000E+00 0.  1.
         21   -1    0    0  501  503 -0.00000000000E+00 -0.00000000000E+00 -0.41043310956E+03  0.41043310956E+03  0.00000000000E+00 0.  1.
          6    2    1    2  501    0  0.80516164805E+02 -0.34478130355E+01 -0.27288048498E+03  0.33285003822E+03  0.17271551362E+03 0.  0.
         24    2    3    3    0    0  0.26546148020E+02  0.59512551445E+02 -0.15901120746E+03  0.19190652978E+03  0.85423125203E+02 0.  0.
         -6    2    1    2    0  502 -0.80516164805E+02  0.34478130355E+01 -0.22416332366E+02  0.19271936356E+03  0.17361889565E+03 0.  0.
        -24    2    5    5    0    0  0.14797716647E+02 -0.31448786792E+02  0.48074240804E+01  0.87525582416E+02  0.80184896598E+02 0.  0.
          5    1    3    3  501    0  0.53970016785E+02 -0.62960364481E+02 -0.11386927752E+03  0.14094350844E+03  0.47000000000E+01 0. -1.
        -13    1    4    4    0    0  0.55423820750E+02  0.24119436364E+02 -0.75461629868E+02  0.96685080025E+02  0.00000000000E+00 0.  1.
         14    1    4    4    0    0 -0.28877672729E+02  0.35393115081E+02 -0.83549577595E+02  0.95221449756E+02  0.00000000000E+00 0. -1.
         -5    1    5    5    0  502 -0.95313881452E+02  0.34896599828E+02 -0.27223756447E+02  0.10519378115E+03  0.47000000000E+01 0.  1.
         11    1    6    6    0    0 -0.13099973482E+02  0.17382311180E+02  0.19690883687E+02  0.29351063823E+02  0.00000000000E+00 0. -1.
        -12    1    6    6    0    0  0.27897690129E+02 -0.48831097972E+02 -0.14883459606E+02  0.58174518593E+02  0.00000000000E+00 0.  1.
<mgrwt>
<rscale>  2 0.19120615E+03</rscale>
<asrwt>0</asrwt>
<pdfrwt beam="1">  1       21 0.17713276E-01 0.19141124E+03</pdfrwt>
<pdfrwt beam="2">  1       21 0.63143555E-01 0.19141124E+03</pdfrwt>
<totfact> 0.67165227E+04</totfact>
</mgrwt>
</event>
<event>
12    1  0.1071811E-001  0.1877166E+03  0.7546771E-02  0.1160559E+00
         21   -1    0    0  503  502  0.00000000000E+00  0.00000000000E+00  0.44335427539E+03  0.44335427539E+03  0.00000000000E+00 0. -1.
         21   -1    0    0  501  503 -0.00000000000E+00 -0.00000000000E+00 -0.11222508817E+03  0.11222508817E+03  0.00000000000E+00 0. -1.
          6    2    1    2  501    0 -0.36625983556E+02  0.63037808443E+02  0.15447406642E+02  0.18835109021E+03  0.17298058518E+03 0.  0.
         24    2    3    3    0    0 -0.45011346336E+02 -0.24623999307E+02 -0.72992311907E+01  0.97277458578E+02  0.82324130913E+02 0.  0.
         -6    2    1    2    0  502  0.36625983556E+02 -0.63037808443E+02  0.31568178058E+03  0.36722827335E+03  0.17287680641E+03 0.  0.
        -24    2    5    5    0    0  0.81085163542E+01 -0.10409078473E+03  0.26489085138E+03  0.29581117955E+03  0.80227497145E+02 0.  0.
          5    1    3    3  501    0  0.83853627793E+01  0.87661807750E+02  0.22746637832E+02  0.91073631637E+02  0.47000000000E+01 0. -1.
        -13    1    4    4    0    0  0.17202195354E+02  0.44532152106E+01  0.16843869670E+02  0.24483925261E+02  0.00000000000E+00 0.  1.
         14    1    4    4    0    0 -0.62213541689E+02 -0.29077214518E+02 -0.24143100861E+02  0.72793533317E+02  0.00000000000E+00 0. -1.
         -5    1    5    5    0  502  0.28517467202E+02  0.41052976290E+02  0.50790929195E+02  0.71417093797E+02  0.47000000000E+01 0.  1.
         13    1    6    6    0    0 -0.30782368493E+02 -0.80481738682E+02  0.17477475310E+03  0.19486169144E+03  0.00000000000E+00 0. -1.
        -14    1    6    6    0    0  0.38890884847E+02 -0.23609046051E+02  0.90116098283E+02  0.10094948811E+03  0.00000000000E+00 0.  1.
<mgrwt>
<rscale>  2 0.18769266E+03</rscale>
<asrwt>0</asrwt>
<pdfrwt beam="1">  1       21 0.68208349E-01 0.18771657E+03</pdfrwt>
<pdfrwt beam="2">  1       21 0.17265399E-01 0.18771657E+03</pdfrwt>
<totfact> 0.59610629E+04</totfact>
</mgrwt>
</event>
<event>
12    1  0.1071811E-001  0.2118750E+03  0.7546771E-02  0.1140151E+00
         21   -1    0    0  503  502  0.00000000000E+00  0.00000000000E+00  0.30305165870E+03  0.30305165870E+03  0.00000000000E+00 0. -1.
         21   -1    0    0  501  503 -0.00000000000E+00 -0.00000000000E+00 -0.22407384214E+03  0.22407384214E+03  0.00000000000E+00 0.  1.
          6    2    1    2  501    0  0.57500632424E+01  0.12182438759E+03 -0.11414975612E+03  0.24066820437E+03  0.17325349386E+03 0.  0.
         24    2    3    3    0    0  0.39240877390E+02  0.10792683947E+03 -0.13851517927E+03  0.19673028997E+03  0.79550631479E+02 0.  0.
         -6    2    1    2    0  502 -0.57500632424E+01 -0.12182438759E+03  0.19312757268E+03  0.28645729647E+03  0.17287359178E+03 0.  0.
        -24    2    5    5    0    0  0.45156804516E+02 -0.11353202853E+03  0.18164162633E+03  0.23340742025E+03  0.80973359279E+02 0.  0.
          5    1    3    3  501    0 -0.33490814148E+02  0.13897548117E+02  0.24365423152E+02  0.43937914394E+02  0.47000000000E+01 0. -1.
        -11    1    4    4    0    0 -0.76553136858E+01  0.20687053354E+02 -0.77090211816E+02  0.80183905878E+02  0.00000000000E+00 0.  1.
         12    1    4    4    0    0  0.46896191076E+02  0.87239786116E+02 -0.61424967454E+02  0.11654638410E+03  0.00000000000E+00 0. -1.
         -5    1    5    5    0  502 -0.50906867758E+02 -0.82923590577E+01  0.11485946342E+02  0.53049876221E+02  0.47000000000E+01 0.  1.
         13    1    6    6    0    0  0.42046105727E+02 -0.44095099796E+02  0.13924361751E+03  0.15199025577E+03  0.00000000000E+00 0. -1.
        -14    1    6    6    0    0  0.31106987881E+01 -0.69436928733E+02  0.42398008827E+02  0.81417164476E+02  0.00000000000E+00 0.  1.
<mgrwt>
<rscale>  2 0.21179733E+03</rscale>
<asrwt>0</asrwt>
<pdfrwt beam="1">  1       21 0.46623332E-01 0.21187501E+03</pdfrwt>
<pdfrwt beam="2">  1       21 0.34472899E-01 0.21187501E+03</pdfrwt>
<totfact> 0.35368079E+04</totfact>
</mgrwt>
</event>
<event>
12    1  0.1071811E-001  0.2052767E+03  0.7546771E-02  0.1145495E+00
         21   -1    0    0  501  502  0.00000000000E+00  0.00000000000E+00  0.77546515208E+02  0.77546515208E+02  0.00000000000E+00 0. -1.
         21   -1    0    0  502  503 -0.00000000000E+00 -0.00000000000E+00 -0.59273086245E+03  0.59273086245E+03  0.00000000000E+00 0. -1.
         -6    2    1    2    0  503 -0.10280301928E+03 -0.40359341532E+02 -0.35557557441E+03  0.41025142339E+03  0.17226405328E+03 0.  0.
        -24    2    3    3    0    0 -0.26204686577E+02  0.37554429178E+02 -0.19988905087E+03  0.21999306259E+03  0.79651077722E+02 0.  0.
          6    2    1    2  501    0  0.10280301928E+03  0.40359341532E+02 -0.15960877283E+03  0.26002595427E+03  0.17303525452E+03 0.  0.
         24    2    5    5    0    0  0.19248983067E+02  0.75248074686E+02 -0.97343611331E+02  0.15003713209E+03  0.83681337493E+02 0.  0.
          5    1    5    5  501    0  0.83554036214E+02 -0.34888733154E+02 -0.62265161496E+02  0.10998882218E+03  0.47000000000E+01 0. -1.
        -13    1    6    6    0    0  0.34348546690E+02  0.84280228331E+02 -0.96164107370E+02  0.13240285153E+03  0.00000000000E+00 0.  1.
         14    1    6    6    0    0 -0.15099563623E+02 -0.90321536451E+01 -0.11795039605E+01  0.17634280555E+02  0.00000000000E+00 0. -1.
         -5    1    3    3    0  503 -0.76598332704E+02 -0.77913770710E+02 -0.15568652354E+03  0.19025836079E+03  0.47000000000E+01 0.  1.
         13    1    4    4    0    0  0.12740483670E+02 -0.11146983028E+02 -0.10560413514E+03  0.10695236563E+03  0.00000000000E+00 0. -1.
        -14    1    4    4    0    0 -0.38945170248E+02  0.48701412205E+02 -0.94284915732E+02  0.11304069697E+03  0.00000000000E+00 0.  1.
<mgrwt>
<rscale>  2 0.20511413E+03</rscale>
<asrwt>0</asrwt>
<pdfrwt beam="1">  1       21 0.11930233E-01 0.20527673E+03</pdfrwt>
<pdfrwt beam="2">  1       21 0.91189361E-01 0.20527673E+03</pdfrwt>
<totfact> 0.60061473E+04</totfact>
</mgrwt>
</event>
<event>
12    1  0.1071811E-001  0.2047851E+03  0.7546771E-02  0.1145786E+00
         21   -1    0    0  501  502  0.00000000000E+00  0.00000000000E+00  0.86356527154E+02  0.86356527154E+02  0.00000000000E+00 0.  1.
         21   -1    0    0  502  503 -0.00000000000E+00 -0.00000000000E+00 -0.53084912543E+03  0.53084912543E+03  0.00000000000E+00 0. -1.
         -6    2    1    2    0  503  0.82440341436E+02 -0.73235905213E+02 -0.31262752150E+03  0.37372840363E+03  0.17256026418E+03 0.  0.
        -24    2    3    3    0    0  0.40789777851E+02  0.19622454940E+02 -0.20892656487E+03  0.22835501231E+03  0.80292312366E+02 0.  0.
          6    2    1    2  501    0 -0.82440341436E+02  0.73235905213E+02 -0.13186507677E+03  0.24347724895E+03  0.17243220284E+03 0.  0.
         24    2    5    5    0    0  0.86753325092E+01  0.23218383458E+02 -0.13923511695E+02  0.86200037334E+02  0.81377070074E+02 0.  0.
          5    1    5    5  501    0 -0.91115673946E+02  0.50017521755E+02 -0.11794156508E+03  0.15727721162E+03  0.47000000000E+01 0. -1.
        -13    1    6    6    0    0 -0.12831871735E+02 -0.17656472129E+02  0.19434994263E+02  0.29225450249E+02  0.00000000000E+00 0.  1.
         14    1    6    6    0    0  0.21507204244E+02  0.40874855587E+02 -0.33358505958E+02  0.56974587084E+02  0.00000000000E+00 0. -1.
         -5    1    3    3    0  503  0.41650563585E+02 -0.92858360153E+02 -0.10370095663E+03  0.14537339132E+03  0.47000000000E+01 0.  1.
         13    1    4    4    0    0 -0.22018797933E+02  0.18273884543E+02 -0.52638597976E+02  0.59913139758E+02  0.00000000000E+00 0. -1.
        -14    1    4    4    0    0  0.62808575784E+02  0.13485703975E+01 -0.15628796689E+03  0.16844187255E+03  0.00000000000E+00 0.  1.
<mgrwt>
<rscale>  2 0.20475816E+03</rscale>
<asrwt>0</asrwt>
<pdfrwt beam="1">  1       21 0.13285620E-01 0.20478514E+03</pdfrwt>
<pdfrwt beam="2">  1       21 0.81669095E-01 0.20478514E+03</pdfrwt>
<totfact> 0.63788393E+04</totfact>
</mgrwt>
</event>
<event>
12    1  0.1071811E-001  0.2937671E+03  0.7546771E-02  0.1088504E+00
         21   -1    0    0  503  502  0.00000000000E+00  0.00000000000E+00  0.40236091428E+02  0.40236091428E+02  0.00000000000E+00 0.  1.
         21   -1    0    0  501  503 -0.00000000000E+00 -0.00000000000E+00 -0.22637783759E+04  0.22637783759E+04  0.00000000000E+00 0.  1.
          6    2    1    2  501    0  0.21156493370E+03 -0.10771944146E+03 -0.13838830238E+04  0.14147195276E+04  0.17301999571E+03 0.  0.
         24    2    3    3    0    0  0.23427823555E+03 -0.10595094842E+03 -0.13052199091E+04  0.13326890621E+04  0.79682056161E+02 0.  0.
         -6    2    1    2    0  502 -0.21156493370E+03  0.10771944146E+03 -0.83965926065E+03  0.88929493973E+03  0.17162347329E+03 0.  0.
        -24    2    5    5    0    0 -0.92564626879E+02  0.51359956319E+02 -0.62257484913E+03  0.63535558414E+03  0.69794127743E+02 0.  0.
          5    1    3    3  501    0 -0.22713301849E+02 -0.17684930480E+01 -0.78663114725E+02  0.82030465480E+02  0.47000000000E+01 0. -1.
        -11    1    4    4    0    0  0.14178054487E+03 -0.10371841334E+03 -0.90783596200E+03  0.92467581674E+03  0.00000000000E+00 0.  1.
         12    1    4    4    0    0  0.92497690685E+02 -0.22325350786E+01 -0.39738394707E+03  0.40801324536E+03  0.00000000000E+00 0. -1.
         -5    1    5    5    0  502 -0.11900030682E+03  0.56359485146E+02 -0.21708441152E+03  0.25393935559E+03  0.47000000000E+01 0.  1.
         11    1    6    6    0    0 -0.71458780555E+02  0.23003522127E+02 -0.54450879696E+03  0.54965930295E+03  0.00000000000E+00 0. -1.
        -12    1    6    6    0    0 -0.21105846324E+02  0.28356434192E+02 -0.78066052170E+02  0.85696281194E+02  0.00000000000E+00 0.  1.
<mgrwt>
<rscale>  2 0.29356182E+03</rscale>
<asrwt>0</asrwt>
<pdfrwt beam="1">  1       21 0.61901683E-02 0.29376712E+03</pdfrwt>
<pdfrwt beam="2">  1       21 0.34827357E+00 0.29376712E+03</pdfrwt>
<totfact> 0.30059550E+03</totfact>
</mgrwt>
</event>
<event>
12    1  0.1071811E-001  0.1929228E+03  0.7546771E-02  0.1155923E+00
         21   -1    0    0  501  502  0.00000000000E+00  0.00000000000E+00  0.24300922921E+03  0.24300922921E+03  0.00000000000E+00 0.  1.
         21   -1    0    0  502  503 -0.00000000000E+00 -0.00000000000E+00 -0.15479729375E+03  0.15479729375E+03  0.00000000000E+00 0. -1.
         -6    2    1    2    0  503 -0.78902791465E+02  0.30115817583E+02  0.66073993683E+02  0.20361771097E+03  0.17309473305E+03 0.  0.
        -24    2    3    3    0    0 -0.49166244033E+02 -0.31618992396E+02 -0.11516558306E+02  0.99994196386E+02  0.80306462774E+02 0.  0.
          6    2    1    2  501    0  0.78902791465E+02 -0.30115817583E+02  0.22137941778E+02  0.19418881199E+03  0.17345487386E+03 0.  0.
         24    2    5    5    0    0  0.11821629675E+03 -0.21210552119E+02 -0.64966209219E+01  0.14452107969E+03  0.80119635874E+02 0.  0.
          5    1    5    5  501    0 -0.39313505287E+02 -0.89052654639E+01  0.28634562700E+02  0.49667732301E+02  0.47000000000E+01 0. -1.
        -11    1    6    6    0    0  0.70752605216E+00  0.10982976386E+02  0.17180011843E+02  0.20402920632E+02  0.00000000000E+00 0.  1.
         12    1    6    6    0    0  0.11750877070E+03 -0.32193528505E+02 -0.23676632765E+02  0.12411815906E+03  0.00000000000E+00 0. -1.
         -5    1    3    3    0  503 -0.29736547433E+02  0.61734809979E+02  0.77590551989E+02  0.10362351458E+03  0.47000000000E+01 0.  1.
         11    1    4    4    0    0 -0.19435325444E+02  0.44527846597E+01 -0.40395180155E+02  0.45048082602E+02  0.00000000000E+00 0. -1.
        -12    1    4    4    0    0 -0.29730918589E+02 -0.36071777056E+02  0.28878621849E+02  0.54946113785E+02  0.00000000000E+00 0.  1.
<mgrwt>
<rscale>  2 0.19284181E+03</rscale>
<asrwt>0</asrwt>
<pdfrwt beam="1">  1       21 0.37386035E-01 0.19292280E+03</pdfrwt>
<pdfrwt beam="2">  1       21 0.23814968E-01 0.19292280E+03</pdfrwt>
<totfact> 0.11463813E+05</totfact>
</mgrwt>
</event>
<event>
12    1  0.1071811E-001  0.2562646E+03  0.7546771E-02  0.1109526E+00
         21   -1    0    0  501  502  0.00000000000E+00  0.00000000000E+00  0.11097573394E+04  0.11097573394E+04  0.00000000000E+00 0. -1.
         21   -1    0    0  502  503 -0.00000000000E+00 -0.00000000000E+00 -0.72993264716E+02  0.72993264716E+02  0.00000000000E+00 0.  1.
         -6    2    1    2    0  503  0.44900667006E+02 -0.18388648774E+03  0.25882177522E+03  0.36368664907E+03  0.17160698445E+03 0.  0.
        -24    2    3    3    0    0  0.80049628258E+02 -0.64631243768E+02  0.12054589733E+03  0.17767704959E+03  0.80328574817E+02 0.  0.
          6    2    1    2  501    0 -0.44900667006E+02  0.18388648774E+03  0.77794229947E+03  0.81906395506E+03  0.17274614582E+03 0.  0.
         24    2    5    5    0    0 -0.36629057077E+02  0.13146556394E+03  0.31050969412E+03  0.34860492036E+03  0.80524766571E+02 0.  0.
          5    1    5    5  501    0 -0.82716099286E+01  0.52420923797E+02  0.46743260535E+03  0.47045903470E+03  0.47000000000E+01 0. -1.
        -13    1    6    6    0    0  0.24300479146E+02  0.58585335369E+02  0.12812020515E+03  0.14295993066E+03  0.00000000000E+00 0.  1.
         14    1    6    6    0    0 -0.60929536223E+02  0.72880228575E+02  0.18238948897E+03  0.20564498970E+03  0.00000000000E+00 0. -1.
         -5    1    3    3    0  503 -0.35148961252E+02 -0.11925524397E+03  0.13827587789E+03  0.18600959948E+03  0.47000000000E+01 0.  1.
         13    1    4    4    0    0 -0.52316081438E+01  0.18360323767E+01  0.46030417085E+02  0.46363132290E+02  0.00000000000E+00 0. -1.
        -14    1    4    4    0    0  0.85281236401E+02 -0.66467276145E+02  0.74515480245E+02  0.13131391730E+03  0.00000000000E+00 0.  1.
<mgrwt>
<rscale>  2 0.25607275E+03</rscale>
<asrwt>0</asrwt>
<pdfrwt beam="1">  1       21 0.17073189E+00 0.25626459E+03</pdfrwt>
<pdfrwt beam="2">  1       21 0.11229734E-01 0.25626459E+03</pdfrwt>
<totfact> 0.13347222E+04</totfact>
</mgrwt>
</event>
<event>
12    1  0.1071811E-001  0.1930581E+03  0.7546771E-02  0.1156406E+00
         21   -1    0    0  503  502  0.00000000000E+00  0.00000000000E+00  0.54594112712E+02  0.54594112712E+02  0.00000000000E+00 0. -1.
         21   -1    0    0  501  503 -0.00000000000E+00 -0.00000000000E+00 -0.11124074533E+04  0.11124074533E+04  0.00000000000E+00 0.  1.
          6    2    1    2  501    0  0.79809925290E+02 -0.32277303401E+02 -0.89350365726E+03  0.91348807011E+03  0.16941139335E+03 0.  0.
         24    2    3    3    0    0 -0.15038008794E+01  0.25423015700E+02 -0.28278160799E+03  0.29466276329E+03  0.78816972209E+02 0.  0.
         -6    2    1    2    0  502 -0.79809925290E+02  0.32277303401E+02 -0.16430968337E+03  0.25351349595E+03  0.17280038220E+03 0.  0.
        -24    2    5    5    0    0 -0.11949585182E+02  0.55412734544E+02 -0.13895776888E+03  0.17732239737E+03  0.94448966866E+02 0.  0.
          5    1    3    3  501    0  0.81313726170E+02 -0.57700319102E+02 -0.61072204927E+03  0.61882530682E+03  0.47000000000E+01 0. -1.
        -13    1    4    4    0    0  0.15306028557E+02  0.28716503032E+02 -0.27300936178E+03  0.27494185508E+03  0.00000000000E+00 0.  1.
         14    1    4    4    0    0 -0.16809829437E+02 -0.32934873318E+01 -0.97722462064E+01  0.19720908205E+02  0.00000000000E+00 0. -1.
         -5    1    5    5    0  502 -0.67860340108E+02 -0.23135431143E+02 -0.25351914486E+02  0.76191098573E+02  0.47000000000E+01 0.  1.
         13    1    6    6    0    0  0.18307716075E+02 -0.15750931724E+02 -0.83771537392E+01  0.25562492501E+02  0.00000000000E+00 0. -1.
        -14    1    6    6    0    0 -0.30257301258E+02  0.71163666268E+02 -0.13058061514E+03  0.15175990487E+03  0.00000000000E+00 0.  1.
<mgrwt>
<rscale>  2 0.19229674E+03</rscale>
<asrwt>0</asrwt>
<pdfrwt beam="1">  1       21 0.83990954E-02 0.19305808E+03</pdfrwt>
<pdfrwt beam="2">  1       21 0.17113959E+00 0.19305808E+03</pdfrwt>
<totfact> 0.23088199E+04</totfact>
</mgrwt>
</event>
<event>
12    1  0.1071811E-001  0.2083485E+03  0.7546771E-02  0.1142998E+00
         21   -1    0    0  501  502  0.00000000000E+00  0.00000000000E+00  0.31629053835E+03  0.31629053835E+03  0.00000000000E+00 0. -1.
         21   -1    0    0  502  503 -0.00000000000E+00 -0.00000000000E+00 -0.13922716949E+03  0.13922716949E+03  0.00000000000E+00 0.  1.
         -6    2    1    2    0  503  0.10240280363E+03 -0.52557072897E+02  0.58709899123E+02  0.21589998358E+03  0.17296638561E+03 0.  0.
        -24    2    3    3    0    0  0.10749722341E+03 -0.94913086963E+02  0.40598989527E+02  0.16931586518E+03  0.80345735002E+02 0.  0.
          6    2    1    2  501    0 -0.10240280363E+03  0.52557072897E+02  0.11835346974E+03  0.23961772427E+03  0.17366787233E+03 0.  0.
         24    2    5    5    0    0 -0.80962037090E+01 -0.25044717231E+02  0.63689999872E+02  0.10572986985E+03  0.80184804796E+02 0.  0.
          5    1    5    5  501    0 -0.94306599924E+02  0.77601790128E+02  0.54663469871E+02  0.13388785441E+03  0.47000000000E+01 0. -1.
        -13    1    6    6    0    0 -0.43357310129E+02 -0.98741738470E+01  0.24068685812E+02  0.50563398694E+02  0.00000000000E+00 0.  1.
         14    1    6    6    0    0  0.35261106420E+02 -0.15170543384E+02  0.39621314060E+02  0.55166471161E+02  0.00000000000E+00 0. -1.
         -5    1    3    3    0  503 -0.50944197788E+01  0.42356014067E+02  0.18110909596E+02  0.46584118398E+02  0.47000000000E+01 0.  1.
         11    1    4    4    0    0  0.26162936440E+02 -0.60723227665E+02  0.46588712489E+02  0.80884595274E+02  0.00000000000E+00 0. -1.
        -12    1    4    4    0    0  0.81334286972E+02 -0.34189859298E+02 -0.59897229622E+01  0.88431269906E+02  0.00000000000E+00 0.  1.
<mgrwt>
<rscale>  2 0.20820229E+03</rscale>
<asrwt>0</asrwt>
<pdfrwt beam="1">  1       21 0.48660083E-01 0.20834853E+03</pdfrwt>
<pdfrwt beam="2">  1       21 0.21419565E-01 0.20834853E+03</pdfrwt>
<totfact> 0.81301183E+04</totfact>
</mgrwt>
</event>
<event>
12    1  0.1071811E-001  0.1751692E+03  0.7546771E-02  0.1172608E+00
         21   -1    0    0  501  502  0.00000000000E+00  0.00000000000E+00  0.18817230437E+02  0.18817230437E+02  0.00000000000E+00 0.  1.
         21   -1    0    0  502  503 -0.00000000000E+00 -0.00000000000E+00 -0.16306064883E+04  0.16306064883E+04  0.00000000000E+00 0. -1.
         -6    2    1    2    0  503  0.52899362770E+01  0.23637062648E+02 -0.77897983969E+03  0.79839153333E+03  0.17329961253E+03 0.  0.
        -24    2    3    3    0    0  0.30205795834E+02  0.20216825939E+01 -0.74790479175E+03  0.75283087797E+03  0.80475313059E+02 0.  0.
          6    2    1    2  501    0 -0.52899362770E+01 -0.23637062648E+02 -0.83280941822E+03  0.85103218545E+03  0.17348648199E+03 0.  0.
         24    2    5    5    0    0 -0.30580217208E+02  0.16174758054E+02 -0.22370955080E+03  0.24009084794E+03  0.80005497719E+02 0.  0.
          5    1    5    5  501    0  0.25290280931E+02 -0.39811820702E+02 -0.60909986742E+03  0.61094133750E+03  0.47000000000E+01 0. -1.
        -13    1    6    6    0    0  0.13838959322E+02  0.35586811287E+02 -0.11154755521E+03  0.11790163275E+03  0.00000000000E+00 0.  1.
         14    1    6    6    0    0 -0.44419176530E+02 -0.19412053233E+02 -0.11216199559E+03  0.12218921519E+03  0.00000000000E+00 0. -1.
         -5    1    3    3    0  503 -0.24915859557E+02  0.21615380054E+02 -0.31075047942E+02  0.45560655361E+02  0.47000000000E+01 0.  1.
         13    1    4    4    0    0  0.39210498640E+02  0.34446810431E+02 -0.47516178467E+03  0.47801963094E+03  0.00000000000E+00 0. -1.
        -14    1    4    4    0    0 -0.90047028060E+01 -0.32425127837E+02 -0.27274300708E+03  0.27481124704E+03  0.00000000000E+00 0.  1.
<mgrwt>
<rscale>  2 0.17512293E+03</rscale>
<asrwt>0</asrwt>
<pdfrwt beam="1">  1       21 0.28949595E-02 0.17516921E+03</pdfrwt>
<pdfrwt beam="2">  1       21 0.25086245E+00 0.17516921E+03</pdfrwt>
<totfact> 0.44737862E+04</totfact>
</mgrwt>
</event>
<event>
11    1  0.1071811E-001  0.2712847E+03  0.7546771E-02  0.1100618E+00
         21   -1    0    0  503  502  0.00000000000E+00  0.00000000000E+00  0.19412617342E+03  0.19412617342E+03  0.00000000000E+00 0. -1.
         21   -1    0    0  501  503 -0.00000000000E+00 -0.00000000000E+00 -0.60332929946E+03  0.60332929946E+03  0.00000000000E+00 0. -1.
          6    2    1    2  501    0  0.12838297838E+03 -0.16386769081E+03 -0.44793490078E+03  0.52341979229E+03  0.17316984262E+03 0.  0.
         -6    2    1    2    0  502 -0.12838297838E+03  0.16386769081E+03  0.38731774736E+02  0.27403568059E+03  0.17395572607E+03 0.  0.
        -24    2    4    4    0    0 -0.13813831720E+03  0.18308303826E+03  0.19119115749E+02  0.24452055555E+03  0.82602469233E+02 0.  0.
          5    1    3    3  501    0  0.37035944537E+02 -0.16737658201E+03 -0.29457498160E+03  0.34085640844E+03  0.47000000000E+01 0. -1.
        -11    1    3    3    0    0  0.35787601784E+02  0.11189119447E+02 -0.33716765653E+02  0.50425877499E+02  0.00000000000E+00 0.  1.
         12    1    3    3    0    0  0.55559432061E+02 -0.76802282468E+01 -0.11964315353E+03  0.13213750634E+03  0.00000000000E+00 0. -1.
         -5    1    4    4    0  502  0.97553388224E+01 -0.19215347450E+02  0.19612658987E+02  0.29515125033E+02  0.47000000000E+01 0.  1.
         11    1    5    5    0    0 -0.13521088160E+03  0.12365708726E+03  0.24131602022E+02  0.18481177438E+03  0.00000000000E+00 0. -1.
        -12    1    5    5    0    0 -0.29274356077E+01  0.59425950995E+02 -0.50124862725E+01  0.59708781176E+02  0.00000000000E+00 0.  1.
<mgrwt>
<rscale>  2 0.27115883E+03</rscale>
<asrwt>0</asrwt>
<pdfrwt beam="1">  1       21 0.29865565E-01 0.27128473E+03</pdfrwt>
<pdfrwt beam="2">  1       21 0.92819892E-01 0.27128473E+03</pdfrwt>
<totfact> 0.10023918E+04</totfact>
</mgrwt>
</event>
<event>
12    1  0.1071811E-001  0.2104944E+03  0.7546771E-02  0.1141292E+00
         21   -1    0    0  501  502  0.00000000000E+00  0.00000000000E+00  0.43353630347E+02  0.43353630347E+02  0.00000000000E+00 0.  1.
         21   -1    0    0  502  503 -0.00000000000E+00 -0.00000000000E+00 -0.10309282738E+04  0.10309282738E+04  0.00000000000E+00 0.  1.
         -6    2    1    2    0  503  0.66334658108E+02  0.99806267761E+02 -0.43567809090E+03  0.48360627327E+03  0.17233122381E+03 0.  0.
        -24    2    3    3    0    0  0.98377327678E+02  0.32004537867E+02 -0.31645229086E+03  0.34267831775E+03  0.81141777295E+02 0.  0.
          6    2    1    2  501    0 -0.66334658108E+02 -0.99806267761E+02 -0.55189655259E+03  0.59067563092E+03  0.17305004551E+03 0.  0.
         24    2    5    5    0    0 -0.93827191683E+02 -0.58838786247E+02 -0.24864543098E+03  0.28340131260E+03  0.78906330335E+02 0.  0.
          5    1    5    5  501    0  0.27492533576E+02 -0.40967481514E+02 -0.30325112161E+03  0.30727431832E+03  0.47000000000E+01 0. -1.
        -13    1    6    6    0    0 -0.10470742124E+03 -0.63525079060E+02 -0.23708428262E+03  0.26684834045E+03  0.00000000000E+00 0.  1.
         14    1    6    6    0    0  0.10880229559E+02  0.46862928128E+01 -0.11561148360E+02  0.16552972150E+02  0.00000000000E+00 0. -1.
         -5    1    3    3    0  503 -0.32042669570E+02  0.67801729894E+02 -0.11922580005E+03  0.14092795552E+03  0.47000000000E+01 0.  1.
         11    1    4    4    0    0  0.81735368345E+02 -0.96476718299E+01 -0.16005163142E+03  0.17997297778E+03  0.00000000000E+00 0. -1.
        -12    1    4    4    0    0  0.16641959332E+02  0.41652209697E+02 -0.15640065944E+03  0.16270533997E+03  0.00000000000E+00 0.  1.
<mgrwt>
<rscale>  2 0.21034662E+03</rscale>
<asrwt>0</asrwt>
<pdfrwt beam="1">  1       21 0.66697900E-02 0.21049441E+03</pdfrwt>
<pdfrwt beam="2">  1       21 0.15860433E+00 0.21049441E+03</pdfrwt>
<totfact> 0.41923521E+04</totfact>
</mgrwt>
</event>
<event>
11    1  0.1071811E-001  0.1833992E+03  0.7546771E-02  0.1164591E+00
         21   -1    0    0  501  502  0.00000000000E+00  0.00000000000E+00  0.12197834487E+03  0.12197834487E+03  0.00000000000E+00 0.  1.
         21   -1    0    0  502  503 -0.00000000000E+00 -0.00000000000E+00 -0.58289472497E+03  0.58289472497E+03  0.00000000000E+00 0.  1.
         -6    2    1    2    0  503  0.13540476317E+02 -0.57556010743E+02 -0.48634478829E+03  0.51971944516E+03  0.17343877798E+03 0.  0.
          6    2    1    2  501    0 -0.13540476317E+02  0.57556010743E+02  0.25428408192E+02  0.18515362468E+03  0.17360651462E+03 0.  0.
         24    2    4    4    0    0 -0.19287136539E+02  0.60502810496E+02  0.80133837041E+02  0.12986816838E+03  0.80073251507E+02 0.  0.
          5    1    4    4  501    0  0.57466602216E+01 -0.29467997524E+01 -0.54705428849E+02  0.55285456298E+02  0.47000000000E+01 0. -1.
        -13    1    5    5    0    0 -0.55308548401E+00  0.71657548465E+02  0.80871297045E+02  0.10805219499E+03  0.00000000000E+00 0.  1.
         14    1    5    5    0    0 -0.18734051055E+02 -0.11154737970E+02 -0.73746000361E+00  0.21815973399E+02  0.00000000000E+00 0. -1.
         -5    1    3    3    0  503 -0.27312712825E+02 -0.10305598104E+03 -0.27771790526E+03  0.29751612462E+03  0.47000000000E+01 0.  1.
         13    1    3    3    0    0  0.32430293634E+02  0.15028803379E+02 -0.56729084298E+02  0.67050562127E+02  0.00000000000E+00 0. -1.
        -14    1    3    3    0    0  0.84228955084E+01  0.30471166914E+02 -0.15189779874E+03  0.15515275841E+03  0.00000000000E+00 0.  1.
<mgrwt>
<rscale>  2 0.18335948E+03</rscale>
<asrwt>0</asrwt>
<pdfrwt beam="1">  1       21 0.18765899E-01 0.18339918E+03</pdfrwt>
<pdfrwt beam="2">  1       21 0.89676111E-01 0.18339918E+03</pdfrwt>
<totfact> 0.27677902E+04</totfact>
</mgrwt>
</event>
<event>
12    1  0.1071811E-001  0.2045876E+03  0.7546771E-02  0.1146041E+00
         21   -1    0    0  503  502  0.00000000000E+00  0.00000000000E+00  0.42645841759E+03  0.42645841759E+03  0.00000000000E+00 0. -1.
         21   -1    0    0  501  503 -0.00000000000E+00 -0.00000000000E+00 -0.98520434923E+02  0.98520434923E+02  0.00000000000E+00 0. -1.
          6    2    1    2  501    0 -0.10853816675E+03  0.11925425684E+02  0.14297878264E+03  0.24959771957E+03  0.17301254263E+03 0.  0.
         24    2    3    3    0    0 -0.11683933830E+02  0.34875285664E+02  0.12707340646E+03  0.14868929822E+03  0.67882670217E+02 0.  0.
         -6    2    1    2    0  502  0.10853816675E+03 -0.11925425684E+02  0.18495920002E+03  0.27538113294E+03  0.17234301056E+03 0.  0.
        -24    2    5    5    0    0  0.12050818569E+03  0.42555640531E+02  0.13262935541E+03  0.19875234875E+03  0.74690995838E+02 0.  0.
          5    1    3    3  501    0 -0.96854232922E+02 -0.22949859980E+02  0.15905376183E+02  0.10090842135E+03  0.47000000000E+01 0. -1.
        -11    1    4    4    0    0 -0.14212482036E+02  0.51304755003E+02  0.62934563153E+02  0.82431376131E+02  0.00000000000E+00 0.  1.
         12    1    4    4    0    0  0.25285482054E+01 -0.16429469340E+02  0.64138843303E+02  0.66257922085E+02  0.00000000000E+00 0. -1.
         -5    1    5    5    0  502 -0.11970018935E+02 -0.54481066215E+02  0.52329844617E+02  0.76628784193E+02  0.47000000000E+01 0.  1.
         13    1    6    6    0    0  0.83089018755E+02  0.10511374112E+02  0.37793206652E+02  0.91883624724E+02  0.00000000000E+00 0. -1.
        -14    1    6    6    0    0  0.37419166932E+02  0.32044266419E+02  0.94836148755E+02  0.10686872403E+03  0.00000000000E+00 0.  1.
<mgrwt>
<rscale>  2 0.20444599E+03</rscale>
<asrwt>0</asrwt>
<pdfrwt beam="1">  1       21 0.65608986E-01 0.20458761E+03</pdfrwt>
<pdfrwt beam="2">  1       21 0.15156990E-01 0.20458761E+03</pdfrwt>
<totfact> 0.81779656E+04</totfact>
</mgrwt>
</event>
<event>
12    1  0.1071811E-001  0.1822720E+03  0.7546771E-02  0.1165975E+00
         21   -1    0    0  501  502  0.00000000000E+00  0.00000000000E+00  0.32240750043E+02  0.32240750043E+02  0.00000000000E+00 0.  1.
         21   -1    0    0  502  503 -0.00000000000E+00 -0.00000000000E+00 -0.11584072679E+04  0.11584072679E+04  0.00000000000E+00 0.  1.
         -6    2    1    2    0  503  0.33424143436E+02  0.35519521576E+02 -0.76927294365E+03  0.79057191781E+03  0.17562541276E+03 0.  0.
        -24    2    3    3    0    0 -0.17158516834E+02 -0.12468010571E+02 -0.56205922233E+03  0.57189172879E+03  0.10343942222E+03 0.  0.
          6    2    1    2  501    0 -0.33424143436E+02 -0.35519521576E+02 -0.35689357425E+03  0.40007610018E+03  0.17409495346E+03 0.  0.
         24    2    5    5    0    0  0.91569503224E+01  0.34941875124E+02 -0.11957791251E+03  0.14884160558E+03  0.80933071211E+02 0.  0.
          5    1    5    5  501    0 -0.42581093758E+02 -0.70461396700E+02 -0.23731566174E+03  0.25123449460E+03  0.47000000000E+01 0. -1.
        -11    1    6    6    0    0 -0.28892601872E+00  0.46353263366E+02 -0.12480306010E+03  0.13313343800E+03  0.00000000000E+00 0.  1.
         12    1    6    6    0    0  0.94458763411E+01 -0.11411388242E+02  0.52251475914E+01  0.15708167583E+02  0.00000000000E+00 0. -1.
         -5    1    3    3    0  503  0.50582660270E+02  0.47987532147E+02 -0.20721372133E+03  0.21868018901E+03  0.47000000000E+01 0.  1.
         11    1    4    4    0    0  0.82873208971E+01  0.41515511497E+02 -0.16363598687E+03  0.16902352967E+03  0.00000000000E+00 0. -1.
        -12    1    4    4    0    0 -0.25445837731E+02 -0.53983522068E+02 -0.39842323546E+03  0.40286819912E+03  0.00000000000E+00 0.  1.
<mgrwt>
<rscale>  2 0.18190237E+03</rscale>
<asrwt>0</asrwt>
<pdfrwt beam="1">  1       21 0.49601156E-02 0.18227204E+03</pdfrwt>
<pdfrwt beam="2">  1       21 0.17821650E+00 0.18227204E+03</pdfrwt>
<totfact> 0.51347890E+04</totfact>
</mgrwt>
</event>
<event>
12    1  0.1071811E-001  0.2082690E+03  0.7546771E-02  0.1143012E+00
         21   -1    0    0  503  502  0.00000000000E+00  0.00000000000E+00  0.35130592333E+03  0.35130592333E+03  0.00000000000E+00 0.  1.
         21   -1    0    0  501  503 -0.00000000000E+00 -0.00000000000E+00 -0.20559122689E+03  0.20559122689E+03  0.00000000000E+00 0.  1.
          6    2    1    2  501    0 -0.14385719198E+02 -0.11417660775E+03 -0.10330310211E+03  0.23248123817E+03  0.17358786975E+03 0.  0.
         24    2    3    3    0    0  0.31550775258E+02 -0.30206944493E+02 -0.10233261384E+03  0.13664753994E+03  0.79326385271E+02 0.  0.
         -6    2    1    2    0  502  0.14385719198E+02  0.11417660775E+03  0.24901779856E+03  0.32441591204E+03  0.17318364044E+03 0.  0.
        -24    2    5    5    0    0  0.41588014069E+01  0.90586614634E+02  0.26661626901E+03  0.29290601225E+03  0.80538603974E+02 0.  0.
          5    1    3    3  501    0 -0.45936494456E+02 -0.83969663255E+02 -0.97048827023E+00  0.95833698236E+02  0.47000000000E+01 0. -1.
        -11    1    4    4    0    0  0.25530000031E+02  0.16006464241E+02 -0.76068864542E+01  0.31078167909E+02  0.00000000000E+00 0.  1.
         12    1    4    4    0    0  0.60207752272E+01 -0.46213408734E+02 -0.94725727389E+02  0.10556937203E+03  0.00000000000E+00 0. -1.
         -5    1    5    5    0  502  0.10226917791E+02  0.23589993114E+02 -0.17598470456E+02  0.31509899794E+02  0.47000000000E+01 0.  1.
         11    1    6    6    0    0  0.30006113831E+02  0.48664347530E+02  0.21104415949E+03  0.21865091548E+03  0.00000000000E+00 0. -1.
        -12    1    6    6    0    0 -0.25847312424E+02  0.41922267105E+02  0.55572109523E+02  0.74255096765E+02  0.00000000000E+00 0.  1.
<mgrwt>
<rscale>  2 0.20818479E+03</rscale>
<asrwt>0</asrwt>
<pdfrwt beam="1">  1       21 0.54047065E-01 0.20826905E+03</pdfrwt>
<pdfrwt beam="2">  1       21 0.31629420E-01 0.20826905E+03</pdfrwt>
<totfact> 0.30837847E+04</totfact>
</mgrwt>
</event>
<event>
12    1  0.1071811E-001  0.1812967E+03  0.7546771E-02  0.1167934E+00
         21   -1    0    0  503  502  0.00000000000E+00  0.00000000000E+00  0.13025665418E+02  0.13025665418E+02  0.00000000000E+00 0.  1.
         21   -1    0    0  501  503 -0.00000000000E+00 -0.00000000000E+00 -0.25548664440E+04  0.25548664440E+04  0.00000000000E+00 0.  1.
          6    2    1    2  501    0  0.60605930020E+01 -0.54039873322E+02 -0.15562177435E+04  0.15667425362E+04  0.17294932977E+03 0.  0.
         24    2    3    3    0    0 -0.61065839974E+02 -0.47669380331E+02 -0.10772999168E+04  0.10830784834E+04  0.80513873496E+02 0.  0.
         -6    2    1    2    0  502 -0.60605930020E+01  0.54039873322E+02 -0.98562303510E+03  0.10011495733E+04  0.16700497626E+03 0.  0.
        -24    2    5    5    0    0  0.33547291323E+02 -0.18660228126E+02 -0.43227954414E+03  0.44162727863E+03  0.81825571013E+02 0.  0.
          5    1    3    3  501    0  0.67126432976E+02 -0.63704929907E+01 -0.47891782676E+03  0.48366405280E+03  0.47000000000E+01 0. -1.
        -11    1    4    4    0    0 -0.43853397309E+02 -0.52828164787E+02 -0.10329133199E+04  0.10351926689E+04  0.00000000000E+00 0.  1.
         12    1    4    4    0    0 -0.17212442665E+02  0.51587844558E+01 -0.44386596916E+02  0.47885814448E+02  0.00000000000E+00 0. -1.
         -5    1    5    5    0  502 -0.39607884325E+02  0.72700101448E+02 -0.55334349095E+03  0.55952229467E+03  0.47000000000E+01 0.  1.
         11    1    6    6    0    0  0.36458506504E+02  0.26443453814E+02 -0.22833263511E+03  0.23273218772E+03  0.00000000000E+00 0. -1.
        -12    1    6    6    0    0 -0.29112151815E+01 -0.45103681940E+02 -0.20394690903E+03  0.20889509090E+03  0.00000000000E+00 0.  1.
<mgrwt>
<rscale>  2 0.17986446E+03</rscale>
<asrwt>0</asrwt>
<pdfrwt beam="1">  1       21 0.20039485E-02 0.18129674E+03</pdfrwt>
<pdfrwt beam="2">  1       21 0.39305638E+00 0.18129674E+03</pdfrwt>
<totfact> 0.11978839E+04</totfact>
</mgrwt>
</event>
<event>
12    1  0.1071811E-001  0.1945783E+03  0.7546771E-02  0.1154605E+00
         21   -1    0    0  501  502  0.00000000000E+00  0.00000000000E+00  0.24775357626E+04  0.24775357626E+04  0.00000000000E+00 0.  1.
         21   -1    0    0  502  503 -0.00000000000E+00 -0.00000000000E+00 -0.22060028187E+02  0.22060028187E+02  0.00000000000E+00 0. -1.
         -6    2    1    2    0  503  0.16329102322E+02  0.86851530660E+02  0.52906184413E+03  0.56338009940E+03  0.17228137892E+03 0.  0.
        -24    2    3    3    0    0  0.49445392142E+02  0.33900049091E+02  0.15887949221E+03  0.18793687902E+03  0.80520291356E+02 0.  0.
          6    2    1    2  501    0 -0.16329102322E+02 -0.86851530660E+02  0.19264138903E+04  0.19362156914E+04  0.17335195107E+03 0.  0.
         24    2    5    5    0    0  0.48214441301E+02 -0.88544987463E+02  0.12484151151E+04  0.12551333425E+04  0.81575490713E+02 0.  0.
          5    1    5    5  501    0 -0.64543543623E+02  0.16934568024E+01  0.67799877518E+03  0.68108234888E+03  0.47000000000E+01 0. -1.
        -11    1    6    6    0    0  0.25766699569E+02 -0.10029823480E+03  0.10537388845E+04  0.10588150431E+04  0.00000000000E+00 0.  1.
         12    1    6    6    0    0  0.22447741732E+02  0.11753247341E+02  0.19467623057E+03  0.19631829940E+03  0.00000000000E+00 0. -1.
         -5    1    3    3    0  503 -0.33116289820E+02  0.52951481569E+02  0.37018235193E+03  0.37544322038E+03  0.47000000000E+01 0.  1.
         13    1    4    4    0    0 -0.12117601249E+02  0.36725624599E+02  0.65081698612E+02  0.75704922273E+02  0.00000000000E+00 0. -1.
        -14    1    4    4    0    0  0.61562993392E+02 -0.28255755073E+01  0.93797793596E+02  0.11223195675E+03  0.00000000000E+00 0.  1.
<mgrwt>
<rscale>  2 0.19433960E+03</rscale>
<asrwt>0</asrwt>
<pdfrwt beam="1">  1       21 0.38115913E+00 0.19457833E+03</pdfrwt>
<pdfrwt beam="2">  1       21 0.33938525E-02 0.19457833E+03</pdfrwt>
<totfact> 0.58513067E+03</totfact>
</mgrwt>
</event>
<event>
12    1  0.1071811E-001  0.2012582E+03  0.7546771E-02  0.1148832E+00
         21   -1    0    0  503  502  0.00000000000E+00  0.00000000000E+00  0.12873162999E+04  0.12873162999E+04  0.00000000000E+00 0. -1.
         21   -1    0    0  501  503 -0.00000000000E+00 -0.00000000000E+00 -0.40904293961E+02  0.40904293961E+02  0.00000000000E+00 0.  1.
          6    2    1    2  501    0 -0.39315732348E+02 -0.94081864681E+02  0.94327301932E+03  0.96435509622E+03  0.17268363719E+03 0.  0.
         24    2    3    3    0    0 -0.80404036684E+02 -0.10773202245E+03  0.70458456754E+03  0.72172607369E+03  0.79863100689E+02 0.  0.
         -6    2    1    2    0  502  0.39315732348E+02  0.94081864681E+02  0.30313898664E+03  0.36386549766E+03  0.17351579495E+03 0.  0.
        -24    2    5    5    0    0  0.61276092657E+02  0.12402952710E+02  0.23096019304E+03  0.25257502039E+03  0.80888425554E+02 0.  0.
          5    1    3    3  501    0  0.41088304337E+02  0.13650157767E+02  0.23868845179E+03  0.24262902254E+03  0.47000000000E+01 0. -1.
        -13    1    4    4    0    0 -0.11138899146E+02  0.12540653085E+02  0.56024233973E+02  0.58481260642E+02  0.00000000000E+00 0.  1.
         14    1    4    4    0    0 -0.69265137539E+02 -0.12027267553E+03  0.64856033357E+03  0.66324481305E+03  0.00000000000E+00 0. -1.
         -5    1    5    5    0  502 -0.21960360309E+02  0.81678911971E+02  0.72178793595E+02  0.11129047727E+03  0.47000000000E+01 0.  1.
         11    1    6    6    0    0  0.62177894862E+02  0.18022112149E+02  0.86699329701E+02  0.10820194502E+03  0.00000000000E+00 0. -1.
        -12    1    6    6    0    0 -0.90180220490E+00 -0.56191594398E+01  0.14426086334E+03  0.14437307537E+03  0.00000000000E+00 0.  1.
<mgrwt>
<rscale>  2 0.20107869E+03</rscale>
<asrwt>0</asrwt>
<pdfrwt beam="1">  1       21 0.19804863E+00 0.20125818E+03</pdfrwt>
<pdfrwt beam="2">  1       21 0.62929693E-02 0.20125818E+03</pdfrwt>
<totfact> 0.24956111E+04</totfact>
</mgrwt>
</event>
<event>
12    1  0.1071811E-001  0.2540956E+03  0.7546771E-02  0.1111253E+00
         21   -1    0    0  503  502  0.00000000000E+00  0.00000000000E+00  0.24234569791E+04  0.24234569791E+04  0.00000000000E+00 0. -1.
         21   -1    0    0  501  503 -0.00000000000E+00 -0.00000000000E+00 -0.31135481663E+02  0.31135481663E+02  0.00000000000E+00 0. -1.
          6    2    1    2  501    0 -0.38927009819E+02  0.18173031699E+03  0.70597222577E+03  0.74920732921E+03  0.16844470422E+03 0.  0.
         24    2    3    3    0    0 -0.12786085645E+02  0.15521221345E+02  0.23411482777E+03  0.24822798289E+03  0.80018664140E+02 0.  0.
         -6    2    1    2    0  502  0.38927009819E+02 -0.18173031699E+03  0.16863492717E+04  0.17053851316E+04  0.17327250405E+03 0.  0.
        -24    2    5    5    0    0 -0.30072845194E+02 -0.14882325323E+03  0.12984485622E+04  0.13099955701E+04  0.84065382249E+02 0.  0.
          5    1    3    3  501    0 -0.26140924174E+02  0.16620909564E+03  0.47185739800E+03  0.50097934631E+03  0.47000000000E+01 0. -1.
        -11    1    4    4    0    0 -0.31981913226E+02 -0.93005033407E+01  0.19622705082E+03  0.19903365949E+03  0.00000000000E+00 0.  1.
         12    1    4    4    0    0  0.19195827581E+02  0.24821724686E+02  0.37887776952E+02  0.49194323405E+02  0.00000000000E+00 0. -1.
         -5    1    5    5    0  502  0.68999855014E+02 -0.32907063761E+02  0.38790070952E+03  0.39538956143E+03  0.47000000000E+01 0.  1.
         11    1    6    6    0    0 -0.24935511794E+02 -0.11916879946E+02  0.42197870507E+03  0.42288274889E+03  0.00000000000E+00 0. -1.
        -12    1    6    6    0    0 -0.51373334007E+01 -0.13690637328E+03  0.87646985708E+03  0.88711282124E+03  0.00000000000E+00 0.  1.
<mgrwt>
<rscale>  2 0.25327482E+03</rscale>
<asrwt>0</asrwt>
<pdfrwt beam="1">  1       21 0.37283939E+00 0.25409561E+03</pdfrwt>
<pdfrwt beam="2">  1       21 0.47900760E-02 0.25409561E+03</pdfrwt>
<totfact> 0.34379242E+03</totfact>
</mgrwt>
</event>
<event>
12    1  0.1071811E-001  0.1793002E+03  0.7546771E-02  0.1168561E+00
         21   -1    0    0  501  502  0.00000000000E+00  0.00000000000E+00  0.24021763751E+03  0.24021763751E+03  0.00000000000E+00 0. -1.
         21   -1    0    0  502  503 -0.00000000000E+00 -0.00000000000E+00 -0.14486384724E+03  0.14486384724E+03  0.00000000000E+00 0.  1.
         -6    2    1    2    0  503 -0.48081689687E+02  0.18144259283E+02  0.10143529080E+03  0.20600409218E+03  0.17177748615E+03 0.  0.
        -24    2    3    3    0    0  0.13239638294E+02  0.70689321718E+01 -0.42937741605E+01  0.83188403799E+02  0.81710563612E+02 0.  0.
          6    2    1    2  501    0  0.48081689687E+02 -0.18144259283E+02 -0.60815005349E+01  0.17907739257E+03  0.17143705799E+03 0.  0.
         24    2    5    5    0    0 -0.36245450018E+02 -0.11724386977E+02 -0.21317131822E+02  0.93016392620E+02  0.82136686626E+02 0.  0.
          5    1    5    5  501    0  0.84327139705E+02 -0.64198723057E+01  0.15235631288E+02  0.86060999948E+02  0.47000000000E+01 0. -1.
        -13    1    6    6    0    0  0.14993387877E+02 -0.60884818001E+01 -0.35956392202E+02  0.39430108177E+02  0.00000000000E+00 0.  1.
         14    1    6    6    0    0 -0.51238837895E+02 -0.56359051769E+01  0.14639260379E+02  0.53586284443E+02  0.00000000000E+00 0. -1.
         -5    1    3    3    0  503 -0.61321327982E+02  0.11075327111E+02  0.10572906496E+03  0.12281568838E+03  0.47000000000E+01 0.  1.
         11    1    4    4    0    0  0.25182656561E+00  0.16361537852E+02  0.36163455420E+02  0.39693309832E+02  0.00000000000E+00 0. -1.
        -12    1    4    4    0    0  0.12987811729E+02 -0.92926056801E+01 -0.40457229581E+02  0.43495093967E+02  0.00000000000E+00 0.  1.
<mgrwt>
<rscale>  2 0.17921863E+03</rscale>
<asrwt>0</asrwt>
<pdfrwt beam="1">  1       21 0.36956560E-01 0.17930022E+03</pdfrwt>
<pdfrwt beam="2">  1       21 0.22286746E-01 0.17930022E+03</pdfrwt>
<totfact> 0.13361929E+05</totfact>
</mgrwt>
</event>
<event>
12    1  0.1071811E-001  0.1993478E+03  0.7546771E-02  0.1153876E+00
         21   -1    0    0  501  502  0.00000000000E+00  0.00000000000E+00  0.22027093765E+04  0.22027093765E+04  0.00000000000E+00 0. -1.
         21   -1    0    0  502  503 -0.00000000000E+00 -0.00000000000E+00 -0.92332625610E+02  0.92332625610E+02  0.00000000000E+00 0. -1.
         -6    2    1    2    0  503  0.51046920727E+02 -0.40678348862E+02  0.24167717255E+02  0.20080738935E+03  0.18835873455E+03 0.  0.
        -24    2    3    3    0    0  0.96795021549E+02 -0.48711851120E+01  0.51236089216E+02  0.13654364790E+03  0.81400407267E+02 0.  0.
          6    2    1    2  501    0 -0.51046920727E+02  0.40678348862E+02  0.20862090336E+04  0.20942346127E+04  0.17114311283E+03 0.  0.
         24    2    5    5    0    0  0.17992266866E+02  0.66593964990E+02  0.14048955813E+04  0.14089258219E+04  0.81128905069E+02 0.  0.
          5    1    5    5  501    0 -0.69039187593E+02 -0.25915616128E+02  0.68131345225E+03  0.68530879083E+03  0.47000000000E+01 0. -1.
        -13    1    6    6    0    0 -0.85716031193E+01 -0.12728984072E+02  0.84440815874E+02  0.85823952374E+02  0.00000000000E+00 0.  1.
         14    1    6    6    0    0  0.26563869986E+02  0.79322949062E+02  0.13204547655E+04  0.13231018695E+04  0.00000000000E+00 0. -1.
         -5    1    3    3    0  503 -0.45748100821E+02 -0.35807163750E+02 -0.27068371962E+02  0.64263741451E+02  0.47000000000E+01 0.  1.
         13    1    4    4    0    0  0.99043873371E+02  0.14832835383E+02  0.24229866484E+02  0.10303780029E+03  0.00000000000E+00 0. -1.
        -14    1    4    4    0    0 -0.22488518228E+01 -0.19704020495E+02  0.27006222732E+02  0.33505847616E+02  0.00000000000E+00 0.  1.
<mgrwt>
<rscale>  2 0.19517351E+03</rscale>
<asrwt>0</asrwt>
<pdfrwt beam="1">  1       21 0.33887833E+00 0.19934776E+03</pdfrwt>
<pdfrwt beam="2">  1       21 0.14205021E-01 0.19934776E+03</pdfrwt>
<totfact> 0.87191139E+02</totfact>
</mgrwt>
</event>
<event>
12    1  0.1071811E-001  0.2433970E+03  0.7546771E-02  0.1117628E+00
         21   -1    0    0  503  502  0.00000000000E+00  0.00000000000E+00  0.98650443249E+02  0.98650443249E+02  0.00000000000E+00 0. -1.
         21   -1    0    0  501  503 -0.00000000000E+00 -0.00000000000E+00 -0.61611141947E+03  0.61611141947E+03  0.00000000000E+00 0.  1.
          6    2    1    2  501    0  0.14112420043E+03  0.96956324172E+02 -0.19955326636E+03  0.31437781290E+03  0.17232334255E+03 0.  0.
         24    2    3    3    0    0  0.82075183970E+01  0.66980698935E+02 -0.83549047974E+02  0.13536817307E+03  0.82403406935E+02 0.  0.
         -6    2    1    2    0  502 -0.14112420043E+03 -0.96956324172E+02 -0.31790770987E+03  0.40038404982E+03  0.17298990321E+03 0.  0.
        -24    2    5    5    0    0 -0.57619865105E+02  0.95510884030E+01 -0.19233676003E+03  0.21570336216E+03  0.78251128070E+02 0.  0.
          5    1    3    3  501    0  0.13291668203E+03  0.29975625237E+02 -0.11600421838E+03  0.17900963983E+03  0.47000000000E+01 0. -1.
        -13    1    4    4    0    0 -0.13884641250E+02  0.13877415249E+02  0.12602148771E+02  0.23327667484E+02  0.00000000000E+00 0.  1.
         14    1    4    4    0    0  0.22092159647E+02  0.53103283686E+02 -0.96151196745E+02  0.11204050558E+03  0.00000000000E+00 0. -1.
         -5    1    5    5    0  502 -0.83504335323E+02 -0.10650741257E+03 -0.12557094983E+03  0.18468068766E+03  0.47000000000E+01 0.  1.
         11    1    6    6    0    0 -0.71726478832E+02  0.15026612773E+02 -0.11125877625E+03  0.13322538102E+03  0.00000000000E+00 0. -1.
        -12    1    6    6    0    0  0.14106613727E+02 -0.54755243700E+01 -0.81077983785E+02  0.82477981138E+02  0.00000000000E+00 0.  1.
<mgrwt>
<rscale>  2 0.24327854E+03</rscale>
<asrwt>0</asrwt>
<pdfrwt beam="1">  1       21 0.15176991E-01 0.24339695E+03</pdfrwt>
<pdfrwt beam="2">  1       21 0.94786372E-01 0.24339695E+03</pdfrwt>
<totfact> 0.34846711E+04</totfact>
</mgrwt>
</event>
<event>
12    1  0.1071811E-001  0.1936436E+03  0.7546771E-02  0.1155752E+00
         21   -1    0    0  503  502  0.00000000000E+00  0.00000000000E+00  0.94923979370E+02  0.94923979370E+02  0.00000000000E+00 0. -1.
         21   -1    0    0  501  503 -0.00000000000E+00 -0.00000000000E+00 -0.45544869487E+03  0.45544869487E+03  0.00000000000E+00 0. -1.
          6    2    1    2  501    0  0.85902358989E+02 -0.15216755435E+02 -0.28546728350E+03  0.34494843657E+03  0.17287882755E+03 0.  0.
         24    2    3    3    0    0  0.15963177211E+02 -0.21060737909E+02 -0.46940885408E+02  0.96266764814E+02  0.79783867899E+02 0.  0.
         -6    2    1    2    0  502 -0.85902358989E+02  0.15216755435E+02 -0.75057431998E+02  0.20542423767E+03  0.17016090737E+03 0.  0.
        -24    2    5    5    0    0 -0.78152408944E+02  0.70900908075E+02 -0.61017887901E+02  0.14728659600E+03  0.82676604470E+02 0.  0.
          5    1    3    3  501    0  0.69939181778E+02  0.58439824737E+01 -0.23852639810E+03  0.24868167176E+03  0.47000000000E+01 0. -1.
        -11    1    4    4    0    0  0.38807633853E+02  0.56969631811E+01 -0.21122976466E+01  0.39280397606E+02  0.00000000000E+00 0.  1.
         12    1    4    4    0    0 -0.22844456642E+02 -0.26757701090E+02 -0.44828587761E+02  0.56986367208E+02  0.00000000000E+00 0. -1.
         -5    1    5    5    0  502 -0.77499500450E+01 -0.55684152640E+02 -0.14039544097E+02  0.58137641674E+02  0.47000000000E+01 0.  1.
         11    1    6    6    0    0 -0.22312891566E+01  0.36700557750E+02  0.97157778424E+01  0.38030329075E+02  0.00000000000E+00 0. -1.
        -12    1    6    6    0    0 -0.75921119787E+02  0.34200350325E+02 -0.70733665744E+02  0.10925626692E+03  0.00000000000E+00 0.  1.
<mgrwt>
<rscale>  2 0.19303513E+03</rscale>
<asrwt>0</asrwt>
<pdfrwt beam="1">  1       21 0.14603689E-01 0.19364363E+03</pdfrwt>
<pdfrwt beam="2">  1       21 0.70069030E-01 0.19364363E+03</pdfrwt>
<totfact> 0.76120119E+04</totfact>
</mgrwt>
</event>
<event>
12    1  0.1071811E-001  0.2274587E+03  0.7546771E-02  0.1128525E+00
         21   -1    0    0  501  502  0.00000000000E+00  0.00000000000E+00  0.66299758213E+02  0.66299758213E+02  0.00000000000E+00 0.  1.
         21   -1    0    0  502  503 -0.00000000000E+00 -0.00000000000E+00 -0.81008955214E+03  0.81008955214E+03  0.00000000000E+00 0.  1.
         -6    2    1    2    0  503  0.63097768082E+02  0.13343026793E+03 -0.45771084283E+03  0.51090522484E+03  0.17245280045E+03 0.  0.
        -24    2    3    3    0    0  0.58723633804E+02  0.26176410450E+02 -0.12878641597E+03  0.16487648097E+03  0.80403006210E+02 0.  0.
          6    2    1    2  501    0 -0.63097768082E+02 -0.13343026793E+03 -0.28607895109E+03  0.36548408551E+03  0.17306786463E+03 0.  0.
         24    2    5    5    0    0 -0.80920074306E+02 -0.85705919296E+02 -0.27892678544E+03  0.31382664146E+03  0.82422364849E+02 0.  0.
          5    1    5    5  501    0  0.17822306225E+02 -0.47724348637E+02 -0.71521656480E+01  0.51657444047E+02  0.47000000000E+01 0. -1.
        -13    1    6    6    0    0 -0.43517937203E+02 -0.92985467360E+02 -0.22950541915E+03  0.25142164867E+03  0.00000000000E+00 0.  1.
         14    1    6    6    0    0 -0.37402137104E+02  0.72795480641E+01 -0.49421366290E+02  0.62404992796E+02  0.00000000000E+00 0. -1.
         -5    1    3    3    0  503  0.43741342773E+01  0.10725385748E+03 -0.32892442687E+03  0.34602874387E+03  0.47000000000E+01 0.  1.
         11    1    4    4    0    0  0.69690373451E+02  0.43061654502E+02 -0.11137158697E+03  0.13825586651E+03  0.00000000000E+00 0. -1.
        -12    1    4    4    0    0 -0.10966739646E+02 -0.16885244052E+02 -0.17414829000E+02  0.26620614460E+02  0.00000000000E+00 0.  1.
<mgrwt>
<rscale>  2 0.22734168E+03</rscale>
<asrwt>0</asrwt>
<pdfrwt beam="1">  1       21 0.10199963E-01 0.22745868E+03</pdfrwt>
<pdfrwt beam="2">  1       21 0.12462916E+00 0.22745868E+03</pdfrwt>
<totfact> 0.36946366E+04</totfact>
</mgrwt>
</event>
<event>
12    1  0.1071811E-001  0.2357366E+03  0.7546771E-02  0.1122728E+00
         21   -1    0    0  503  502  0.00000000000E+00  0.00000000000E+00  0.52157450632E+03  0.52157450632E+03  0.00000000000E+00 0.  1.
         21   -1    0    0  501  503 -0.00000000000E+00 -0.00000000000E+00 -0.13639800789E+03  0.13639800789E+03  0.00000000000E+00 0. -1.
          6    2    1    2  501    0  0.11217543703E+03  0.11411806924E+03  0.38141907381E+02  0.23844330032E+03  0.17260979106E+03 0.  0.
         24    2    3    3    0    0  0.26239788196E+02 -0.89369451405E+01  0.16597309537E+02  0.86740525126E+02  0.80498773545E+02 0.  0.
         -6    2    1    2    0  502 -0.11217543703E+03 -0.11411806924E+03  0.34703459104E+03  0.41952921390E+03  0.17310543472E+03 0.  0.
        -24    2    5    5    0    0 -0.48075776101E+02 -0.13938474482E+03  0.25829530921E+03  0.30708402029E+03  0.76450908539E+02 0.  0.
          5    1    3    3  501    0  0.85935648833E+02  0.12305501438E+03  0.21544597844E+02  0.15170277519E+03  0.47000000000E+01 0. -1.
        -11    1    4    4    0    0 -0.21007587174E+02  0.17119741711E+02 -0.67840895206E+01  0.27936144074E+02  0.00000000000E+00 0.  1.
         12    1    4    4    0    0  0.47247375370E+02 -0.26056686852E+02  0.23381399057E+02  0.58804381052E+02  0.00000000000E+00 0. -1.
         -5    1    5    5    0  502 -0.64099660929E+02  0.25266675581E+02  0.88739281830E+02  0.11244519361E+03  0.47000000000E+01 0.  1.
         11    1    6    6    0    0 -0.34770878388E+02 -0.17761313093E+02  0.34852401347E+02  0.52337062454E+02  0.00000000000E+00 0. -1.
        -12    1    6    6    0    0 -0.13304897713E+02 -0.12162343173E+03  0.22344290787E+03  0.25474695783E+03  0.00000000000E+00 0.  1.
<mgrwt>
<rscale>  2 0.23564564E+03</rscale>
<asrwt>0</asrwt>
<pdfrwt beam="1">  1       21 0.80242231E-01 0.23573662E+03</pdfrwt>
<pdfrwt beam="2">  1       21 0.20984309E-01 0.23573662E+03</pdfrwt>
<totfact> 0.28164896E+04</totfact>
</mgrwt>
</event>
<event>
12    1  0.1071811E-001  0.2276786E+03  0.7546771E-02  0.1128496E+00
         21   -1    0    0  501  502  0.00000000000E+00  0.00000000000E+00  0.17080439251E+04  0.17080439251E+04  0.00000000000E+00 0.  1.
         21   -1    0    0  502  503 -0.00000000000E+00 -0.00000000000E+00 -0.52762024974E+02  0.52762024974E+02  0.00000000000E+00 0. -1.
         -6    2    1    2    0  503 -0.76028814373E+02  0.12549497175E+03  0.25058575930E+03  0.33777790790E+03  0.17254368649E+03 0.  0.
        -24    2    3    3    0    0 -0.46820137949E+02  0.99371205631E+02  0.69432225289E+02  0.15237485825E+03  0.79564449919E+02 0.  0.
          6    2    1    2  501    0  0.76028814373E+02 -0.12549497175E+03  0.14046961408E+04  0.14230280421E+04  0.17409248181E+03 0.  0.
         24    2    5    5    0    0  0.15174913270E+02 -0.14116000968E+03  0.10734667634E+04  0.10858580833E+04  0.81243206717E+02 0.  0.
          5    1    5    5  501    0  0.60853901103E+02  0.15665037931E+02  0.33122937734E+03  0.33716995878E+03  0.47000000000E+01 0. -1.
        -11    1    6    6    0    0  0.84989313034E+01 -0.10300208861E+03  0.96800889092E+03  0.97351059316E+03  0.00000000000E+00 0.  1.
         12    1    6    6    0    0  0.66759819670E+01 -0.38157921069E+02  0.10545787251E+03  0.11234749018E+03  0.00000000000E+00 0. -1.
         -5    1    3    3    0  503 -0.29208676424E+02  0.26123766121E+02  0.18115353401E+03  0.18540304965E+03  0.47000000000E+01 0.  1.
         13    1    4    4    0    0 -0.42706487909E+02  0.76060236874E+01  0.16879549070E+02  0.46546910560E+02  0.00000000000E+00 0. -1.
        -14    1    4    4    0    0 -0.41136500404E+01  0.91765181943E+02  0.52552676219E+02  0.10582794769E+03  0.00000000000E+00 0.  1.
<mgrwt>
<rscale>  2 0.22738254E+03</rscale>
<asrwt>0</asrwt>
<pdfrwt beam="1">  1       21 0.26277595E+00 0.22767863E+03</pdfrwt>
<pdfrwt beam="2">  1       21 0.81172359E-02 0.22767863E+03</pdfrwt>
<totfact> 0.63305331E+03</totfact>
</mgrwt>
</event>
<event>
12    1  0.1071811E-001  0.1895446E+03  0.7546771E-02  0.1159115E+00
         21   -1    0    0  501  502  0.00000000000E+00  0.00000000000E+00  0.97732845307E+02  0.97732845307E+02  0.00000000000E+00 0.  1.
         21   -1    0    0  502  503 -0.00000000000E+00 -0.00000000000E+00 -0.54650627313E+03  0.54650627313E+03  0.00000000000E+00 0.  1.
         -6    2    1    2    0  503  0.74161626195E+02  0.25426237030E+01 -0.40932351461E+03  0.45063270723E+03  0.17325612680E+03 0.  0.
        -24    2    3    3    0    0  0.10078482818E+03 -0.11545113146E+02 -0.39724234762E+03  0.41784088189E+03  0.80614196051E+02 0.  0.
          6    2    1    2  501    0 -0.74161626195E+02 -0.25426237030E+01 -0.39449913213E+02  0.19360641121E+03  0.17441540951E+03 0.  0.
         24    2    5    5    0    0 -0.42024498142E+02 -0.23862318058E+02 -0.90420433732E+02  0.12951734562E+03  0.79141767178E+02 0.  0.
          5    1    5    5  501    0 -0.32137128054E+02  0.21319694355E+02  0.50970520519E+02  0.64089065596E+02  0.47000000000E+01 0. -1.
        -11    1    6    6    0    0 -0.34463544262E+02 -0.44402822687E+02 -0.91739845048E+02  0.10758971008E+03  0.00000000000E+00 0.  1.
         12    1    6    6    0    0 -0.75609538803E+01  0.20540504629E+02  0.13194113163E+01  0.21927635536E+02  0.00000000000E+00 0. -1.
         -5    1    3    3    0  503 -0.26623201983E+02  0.14087736849E+02 -0.12081166997E+02  0.32791825344E+02  0.47000000000E+01 0.  1.
         13    1    4    4    0    0  0.90552000966E+02 -0.38631449802E+02 -0.27121494823E+03  0.28853007111E+03  0.00000000000E+00 0. -1.
        -14    1    4    4    0    0  0.10232827213E+02  0.27086336655E+02 -0.12602739939E+03  0.12931081078E+03  0.00000000000E+00 0.  1.
<mgrwt>
<rscale>  2 0.18927746E+03</rscale>
<asrwt>0</asrwt>
<pdfrwt beam="1">  1       21 0.15035822E-01 0.18954458E+03</pdfrwt>
<pdfrwt beam="2">  1       21 0.84077888E-01 0.18954458E+03</pdfrwt>
<totfact> 0.48056803E+04</totfact>
</mgrwt>
</event>
<event>
12    1  0.1071811E-001  0.1892822E+03  0.7546771E-02  0.1159293E+00
         21   -1    0    0  501  502  0.00000000000E+00  0.00000000000E+00  0.98104516914E+02  0.98104516914E+02  0.00000000000E+00 0.  1.
         21   -1    0    0  502  503 -0.00000000000E+00 -0.00000000000E+00 -0.63089132770E+03  0.63089132770E+03  0.00000000000E+00 0.  1.
         -6    2    1    2    0  503  0.45962490168E+02  0.61654794086E+02 -0.50329591996E+03  0.53743003196E+03  0.17207670404E+03 0.  0.
        -24    2    3    3    0    0  0.37160769805E+02  0.27459621457E+02 -0.49135222861E+03  0.49985980604E+03  0.79359054419E+02 0.  0.
          6    2    1    2  501    0 -0.45962490168E+02 -0.61654794086E+02 -0.29490890823E+02  0.19156581265E+03  0.17295630603E+03 0.  0.
         24    2    5    5    0    0 -0.65090571891E+02  0.24822812619E+01 -0.57125516655E+02  0.11900404248E+03  0.81582431959E+02 0.  0.
          5    1    5    5  501    0  0.19128081724E+02 -0.64137075348E+02  0.27634625832E+02  0.72561770165E+02  0.47000000000E+01 0. -1.
        -11    1    6    6    0    0 -0.21462278433E+02  0.28162435799E+02  0.82126225404E+01  0.36348306076E+02  0.00000000000E+00 0.  1.
         12    1    6    6    0    0 -0.43628293459E+02 -0.25680154537E+02 -0.65338139195E+02  0.82655736405E+02  0.00000000000E+00 0. -1.
         -5    1    3    3    0  503  0.88017203626E+01  0.34195172630E+02 -0.11943691353E+02  0.37570225920E+02  0.47000000000E+01 0.  1.
         13    1    4    4    0    0  0.36835687115E+02 -0.36730170494E+01 -0.90194093515E+02  0.97495299397E+02  0.00000000000E+00 0. -1.
        -14    1    4    4    0    0  0.32508269039E+00  0.31132638506E+02 -0.40115813509E+03  0.40236450665E+03  0.00000000000E+00 0.  1.
<mgrwt>
<rscale>  2 0.18908102E+03</rscale>
<asrwt>0</asrwt>
<pdfrwt beam="1">  1       21 0.15093003E-01 0.18928219E+03</pdfrwt>
<pdfrwt beam="2">  1       21 0.97060201E-01 0.18928219E+03</pdfrwt>
<totfact> 0.34230974E+04</totfact>
</mgrwt>
</event>
<event>
12    1  0.1071811E-001  0.1897566E+03  0.7546771E-02  0.1158898E+00
         21   -1    0    0  501  502  0.00000000000E+00  0.00000000000E+00  0.12825827351E+03  0.12825827351E+03  0.00000000000E+00 0. -1.
         21   -1    0    0  502  503 -0.00000000000E+00 -0.00000000000E+00 -0.10071395178E+04  0.10071395178E+04  0.00000000000E+00 0. -1.
         -6    2    1    2    0  503  0.68947315243E+02  0.36368730153E+02 -0.92172712041E+03  0.94086410450E+03  0.17195337106E+03 0.  0.
        -24    2    3    3    0    0  0.54953024327E+02 -0.15962057406E+02 -0.82097779346E+03  0.82637887232E+03  0.74985872739E+02 0.  0.
          6    2    1    2  501    0 -0.68947315243E+02 -0.36368730153E+02  0.42845876147E+02  0.19453368679E+03  0.17300626978E+03 0.  0.
         24    2    5    5    0    0 -0.21377362163E+02 -0.74321102347E+02 -0.11767008261E+02  0.11263167135E+03  0.81035875016E+02 0.  0.
          5    1    5    5  501    0 -0.47569953080E+02  0.37952372194E+02  0.54612884407E+02  0.81902015448E+02  0.47000000000E+01 0. -1.
        -11    1    6    6    0    0 -0.42744763065E+02 -0.61233078875E+02 -0.31189633273E+02  0.80928350667E+02  0.00000000000E+00 0.  1.
         12    1    6    6    0    0  0.21367400902E+02 -0.13088023472E+02  0.19422625012E+02  0.31703320679E+02  0.00000000000E+00 0. -1.
         -5    1    3    3    0  503  0.13994290916E+02  0.52330787560E+02 -0.10074932695E+03  0.11448523217E+03  0.47000000000E+01 0.  1.
         13    1    4    4    0    0  0.21015408839E+02 -0.32320023146E+02 -0.17020129226E+03  0.17451278231E+03  0.00000000000E+00 0. -1.
        -14    1    4    4    0    0  0.33937615488E+02  0.16357965740E+02 -0.65077650120E+03  0.65186609001E+03  0.00000000000E+00 0.  1.
<mgrwt>
<rscale>  2 0.18951633E+03</rscale>
<asrwt>0</asrwt>
<pdfrwt beam="1">  1       21 0.19732042E-01 0.18975665E+03</pdfrwt>
<pdfrwt beam="2">  1       21 0.15494454E+00 0.18975665E+03</pdfrwt>
<totfact> 0.65095559E+03</totfact>
</mgrwt>
</event>
<event>
12    1  0.1071811E-001  0.1761945E+03  0.7546771E-02  0.1171887E+00
         21   -1    0    0  503  502  0.00000000000E+00  0.00000000000E+00  0.42164431721E+03  0.42164431721E+03  0.00000000000E+00 0.  1.
         21   -1    0    0  501  503 -0.00000000000E+00 -0.00000000000E+00 -0.12795946259E+03  0.12795946259E+03  0.00000000000E+00 0.  1.
          6    2    1    2  501    0  0.31718867197E+02 -0.46724289338E+01  0.32719863147E+03  0.37162270454E+03  0.17325291329E+03 0.  0.
         24    2    3    3    0    0  0.48396461109E+02 -0.20154574929E+02  0.11507209215E+03  0.15822730237E+03  0.95109770710E+02 0.  0.
         -6    2    1    2    0  502 -0.31718867197E+02  0.46724289338E+01 -0.33513776846E+02  0.17798107526E+03  0.17183181249E+03 0.  0.
        -24    2    5    5    0    0 -0.49228992244E+02  0.62371696773E+02 -0.33396444601E+02  0.11750038615E+03  0.79857973909E+02 0.  0.
          5    1    3    3  501    0 -0.16677593912E+02  0.15482145995E+02  0.21212653932E+03  0.21339540217E+03  0.47000000000E+01 0. -1.
        -13    1    4    4    0    0 -0.91771596485E+01 -0.84762673311E+01  0.95489598428E+02  0.96303326916E+02  0.00000000000E+00 0.  1.
         14    1    4    4    0    0  0.57573620757E+02 -0.11678307598E+02  0.19582493723E+02  0.61923975453E+02  0.00000000000E+00 0. -1.
         -5    1    5    5    0  502  0.17510125048E+02 -0.57699267839E+02 -0.11733224508E+00  0.60480689110E+02  0.47000000000E+01 0.  1.
         13    1    6    6    0    0 -0.40798287050E+02 -0.69994627033E+00  0.80085628206E+01  0.41582775635E+02  0.00000000000E+00 0. -1.
        -14    1    6    6    0    0 -0.84307051940E+01  0.63071643043E+02 -0.41405007422E+02  0.75917610512E+02  0.00000000000E+00 0.  1.
<mgrwt>
<rscale>  2 0.17584413E+03</rscale>
<asrwt>0</asrwt>
<pdfrwt beam="1">  1       21 0.64868356E-01 0.17619447E+03</pdfrwt>
<pdfrwt beam="2">  1       21 0.19686071E-01 0.17619447E+03</pdfrwt>
<totfact> 0.52453538E+04</totfact>
</mgrwt>
</event>
<event>
12    1  0.1071811E-001  0.2584346E+03  0.7546771E-02  0.1108625E+00
         21   -1    0    0  503  502  0.00000000000E+00  0.00000000000E+00  0.69399116665E+03  0.69399116665E+03  0.00000000000E+00 0. -1.
         21   -1    0    0  501  503 -0.00000000000E+00 -0.00000000000E+00 -0.12466371094E+03  0.12466371094E+03  0.00000000000E+00 0.  1.
          6    2    1    2  501    0  0.16873299749E+03 -0.83664767396E+02  0.83276122756E+02  0.26816932453E+03  0.17178258426E+03 0.  0.
         24    2    3    3    0    0  0.14744117161E+03 -0.83158824443E+02  0.12225085393E+03  0.22350706420E+03  0.79723567988E+02 0.  0.
         -6    2    1    2    0  502 -0.16873299749E+03  0.83664767396E+02  0.48605133295E+03  0.55048555306E+03  0.17696843821E+03 0.  0.
        -24    2    5    5    0    0 -0.62101231873E+02  0.65388574672E+02  0.38126322485E+03  0.39979716513E+03  0.79648590230E+02 0.  0.
          5    1    3    3  501    0  0.21291825879E+02 -0.50594295257E+00 -0.38974731178E+02  0.44662260331E+02  0.47000000000E+01 0. -1.
        -11    1    4    4    0    0  0.82647498909E+02 -0.75323740971E+02  0.40571688135E+02  0.11895518865E+03  0.00000000000E+00 0.  1.
         12    1    4    4    0    0  0.64793672699E+02 -0.78350834723E+01  0.81679165799E+02  0.10455187555E+03  0.00000000000E+00 0. -1.
         -5    1    5    5    0  502 -0.10663176561E+03  0.18276192724E+02  0.10478810810E+03  0.15068838793E+03  0.47000000000E+01 0.  1.
         13    1    6    6    0    0 -0.52740208805E+02 -0.14567794956E+01  0.17349590433E+03  0.18134078595E+03  0.00000000000E+00 0. -1.
        -14    1    6    6    0    0 -0.93610230678E+01  0.66845354167E+02  0.20776732052E+03  0.21845637917E+03  0.00000000000E+00 0.  1.
<mgrwt>
<rscale>  2 0.25754929E+03</rscale>
<asrwt>0</asrwt>
<pdfrwt beam="1">  1       21 0.10676787E+00 0.25843461E+03</pdfrwt>
<pdfrwt beam="2">  1       21 0.19179033E-01 0.25843461E+03</pdfrwt>
<totfact> 0.16866286E+04</totfact>
</mgrwt>
</event>
<event>
12    1  0.1071811E-001  0.1752449E+03  0.7546771E-02  0.1172819E+00
         21   -1    0    0  501  502  0.00000000000E+00  0.00000000000E+00  0.50051875393E+03  0.50051875393E+03  0.00000000000E+00 0.  1.
         21   -1    0    0  502  503 -0.00000000000E+00 -0.00000000000E+00 -0.62742750642E+02  0.62742750642E+02  0.00000000000E+00 0.  1.
         -6    2    1    2    0  503 -0.11451492178E+02 -0.19165918959E+02  0.26640711149E+03  0.31815322353E+03  0.17248262366E+03 0.  0.
        -24    2    3    3    0    0 -0.46083718982E+02 -0.65434228097E+02  0.15738340191E+03  0.19466878396E+03  0.81982027851E+02 0.  0.
          6    2    1    2  501    0  0.11451492178E+02  0.19165918959E+02  0.17136889179E+03  0.24510828104E+03  0.17381686695E+03 0.  0.
         24    2    5    5    0    0  0.48379669186E+02  0.31433945847E+02  0.17929970750E+03  0.20511850011E+03  0.81219016460E+02 0.  0.
          5    1    5    5  501    0 -0.36928177008E+02 -0.12268026888E+02 -0.79308157130E+01  0.39989780929E+02  0.47000000000E+01 0. -1.
        -13    1    6    6    0    0 -0.16526791677E+02 -0.21319203996E+01  0.72082166700E+01  0.18155944351E+02  0.00000000000E+00 0.  1.
         14    1    6    6    0    0  0.64906460863E+02  0.33565866247E+02  0.17209149083E+03  0.18696255576E+03  0.00000000000E+00 0. -1.
         -5    1    3    3    0  503  0.34632226804E+02  0.46268309138E+02  0.10902370958E+03  0.12348443957E+03  0.47000000000E+01 0.  1.
         11    1    4    4    0    0 -0.38235408264E+02  0.86759275039E+01  0.65794360494E+02  0.76590574068E+02  0.00000000000E+00 0. -1.
        -12    1    4    4    0    0 -0.78483107181E+01 -0.74110155601E+02  0.91589041416E+02  0.11807820989E+03  0.00000000000E+00 0.  1.
<mgrwt>
<rscale>  2 0.17491313E+03</rscale>
<asrwt>0</asrwt>
<pdfrwt beam="1">  1       21 0.77002883E-01 0.17524489E+03</pdfrwt>
<pdfrwt beam="2">  1       21 0.96527312E-02 0.17524489E+03</pdfrwt>
<totfact> 0.13026821E+05</totfact>
</mgrwt>
</event>
<event>
12    1  0.1071811E-001  0.2483127E+03  0.7546771E-02  0.1114523E+00
         21   -1    0    0  501  502  0.00000000000E+00  0.00000000000E+00  0.25691972525E+03  0.25691972525E+03  0.00000000000E+00 0. -1.
         21   -1    0    0  502  503 -0.00000000000E+00 -0.00000000000E+00 -0.36651393091E+03  0.36651393091E+03  0.00000000000E+00 0.  1.
         -6    2    1    2    0  503 -0.83490302347E+02  0.15401261138E+03 -0.23865146789E+03  0.34440346149E+03  0.17597927749E+03 0.  0.
        -24    2    3    3    0    0 -0.91979588490E+02  0.92713555688E+02 -0.79325057928E+02  0.17341621892E+03  0.82004097834E+02 0.  0.
          6    2    1    2  501    0  0.83490302347E+02 -0.15401261138E+03  0.12905726224E+03  0.27903019467E+03  0.17467557800E+03 0.  0.
         24    2    5    5    0    0  0.85780297529E+02 -0.18057869765E+03  0.98663938585E+02  0.23832583200E+03  0.84247871953E+02 0.  0.
          5    1    5    5  501    0 -0.22899951814E+01  0.26566086274E+02  0.30393323653E+02  0.40704362672E+02  0.47000000000E+01 0. -1.
        -11    1    6    6    0    0 -0.37502858077E+01 -0.72489822234E+01 -0.11638684053E+02  0.14215180386E+02  0.00000000000E+00 0.  1.
         12    1    6    6    0    0  0.89530583336E+02 -0.17332971543E+03  0.11030262264E+03  0.22411065161E+03  0.00000000000E+00 0. -1.
         -5    1    3    3    0  503  0.84892861432E+01  0.61299055693E+02 -0.15932640997E+03  0.17098724257E+03  0.47000000000E+01 0.  1.
         11    1    4    4    0    0 -0.61503431912E+02  0.40632182501E+02 -0.85347642864E+02  0.11277351876E+03  0.00000000000E+00 0. -1.
        -12    1    4    4    0    0 -0.30476156579E+02  0.52081373187E+02  0.60225849361E+01  0.60642700156E+02  0.00000000000E+00 0.  1.
<mgrwt>
<rscale>  2 0.24808187E+03</rscale>
<asrwt>0</asrwt>
<pdfrwt beam="1">  1       21 0.39526111E-01 0.24831275E+03</pdfrwt>
<pdfrwt beam="2">  1       21 0.56386759E-01 0.24831275E+03</pdfrwt>
<totfact> 0.17695256E+04</totfact>
</mgrwt>
</event>
<event>
12    1  0.1071811E-001  0.1792277E+03  0.7546771E-02  0.1169248E+00
         21   -1    0    0  501  502  0.00000000000E+00  0.00000000000E+00  0.67404324107E+02  0.67404324107E+02  0.00000000000E+00 0.  1.
         21   -1    0    0  502  503 -0.00000000000E+00 -0.00000000000E+00 -0.50339866563E+03  0.50339866563E+03  0.00000000000E+00 0.  1.
         -6    2    1    2    0  503 -0.11359972808E+02  0.47285951474E+02 -0.29091608663E+03  0.34021619340E+03  0.16955789159E+03 0.  0.
        -24    2    3    3    0    0  0.57434097009E+02  0.26240619004E+02 -0.18885069733E+03  0.21525634483E+03  0.81752446588E+02 0.  0.
          6    2    1    2  501    0  0.11359972808E+02 -0.47285951474E+02 -0.14507825489E+03  0.23058679634E+03  0.17250379826E+03 0.  0.
         24    2    5    5    0    0  0.37591703789E+02 -0.58566950438E+02 -0.27507596115E+02  0.10950701085E+03  0.79949319600E+02 0.  0.
          5    1    5    5  501    0 -0.26231730981E+02  0.11280998964E+02 -0.11757065878E+03  0.12107978549E+03  0.47000000000E+01 0. -1.
        -13    1    6    6    0    0 -0.19259868334E+02 -0.23877196443E+02  0.10984620461E+02  0.32584120748E+02  0.00000000000E+00 0.  1.
         14    1    6    6    0    0  0.56851572123E+02 -0.34689753995E+02 -0.38492216576E+02  0.76922890105E+02  0.00000000000E+00 0. -1.
         -5    1    3    3    0  503 -0.68794069817E+02  0.21045332471E+02 -0.10206538930E+03  0.12495984857E+03  0.47000000000E+01 0.  1.
         13    1    4    4    0    0 -0.75886552179E+01 -0.44383169207E+01  0.38371201696E+01  0.95921757856E+01  0.00000000000E+00 0. -1.
        -14    1    4    4    0    0  0.65022752226E+02  0.30678935924E+02 -0.19268781750E+03  0.20566416904E+03  0.00000000000E+00 0.  1.
<mgrwt>
<rscale>  2 0.17851507E+03</rscale>
<asrwt>0</asrwt>
<pdfrwt beam="1">  1       21 0.10369896E-01 0.17922771E+03</pdfrwt>
<pdfrwt beam="2">  1       21 0.77445950E-01 0.17922771E+03</pdfrwt>
<totfact> 0.11316809E+05</totfact>
</mgrwt>
</event>
<event>
12    1  0.1071811E-001  0.1920722E+03  0.7546771E-02  0.1156994E+00
         21   -1    0    0  501  502  0.00000000000E+00  0.00000000000E+00  0.53533204756E+03  0.53533204756E+03  0.00000000000E+00 0. -1.
         21   -1    0    0  502  503 -0.00000000000E+00 -0.00000000000E+00 -0.71214384068E+02  0.71214384068E+02  0.00000000000E+00 0.  1.
         -6    2    1    2    0  503  0.82453960099E+02 -0.56624749169E+01  0.29248480261E+03  0.34896231606E+03  0.17145442284E+03 0.  0.
        -24    2    3    3    0    0 -0.10152506509E+02 -0.34852037935E+02  0.98513382956E+02  0.13199459982E+03  0.79999686394E+02 0.  0.
          6    2    1    2  501    0 -0.82453960099E+02  0.56624749169E+01  0.17163286088E+03  0.25758411557E+03  0.17338113652E+03 0.  0.
         24    2    5    5    0    0 -0.11709718303E+03 -0.14669394074E+02  0.98043445393E+02  0.17361370493E+03  0.81254291938E+02 0.  0.
          5    1    5    5  501    0  0.34643222930E+02  0.20331868991E+02  0.73589415485E+02  0.83970410640E+02  0.47000000000E+01 0. -1.
        -13    1    6    6    0    0 -0.31963219471E+02 -0.70099796017E+01 -0.11483956979E+02  0.34679510967E+02  0.00000000000E+00 0.  1.
         14    1    6    6    0    0 -0.85133963558E+02 -0.76594144719E+01  0.10952740237E+03  0.13893419396E+03  0.00000000000E+00 0. -1.
         -5    1    3    3    0  503  0.92606466608E+02  0.29189563018E+02  0.19397141965E+03  0.21696771624E+03  0.47000000000E+01 0.  1.
         13    1    4    4    0    0 -0.15399472766E+02 -0.49327379482E+02  0.10360544662E+03  0.11577747060E+03  0.00000000000E+00 0. -1.
        -14    1    4    4    0    0  0.52469662576E+01  0.14475341546E+02 -0.50920636668E+01  0.16217129221E+02  0.00000000000E+00 0.  1.
<mgrwt>
<rscale>  2 0.19163639E+03</rscale>
<asrwt>0</asrwt>
<pdfrwt beam="1">  1       21 0.82358774E-01 0.19207222E+03</pdfrwt>
<pdfrwt beam="2">  1       21 0.10956059E-01 0.19207222E+03</pdfrwt>
<totfact> 0.88905300E+04</totfact>
</mgrwt>
</event>
<event>
12    1  0.1071811E-001  0.1960601E+03  0.7546771E-02  0.1153496E+00
         21   -1    0    0  503  502  0.00000000000E+00  0.00000000000E+00  0.10117660663E+04  0.10117660663E+04  0.00000000000E+00 0. -1.
         21   -1    0    0  501  503 -0.00000000000E+00 -0.00000000000E+00 -0.54291173993E+02  0.54291173993E+02  0.00000000000E+00 0. -1.
          6    2    1    2  501    0  0.22608005502E+02  0.88697118292E+02  0.18207740757E+03  0.26625675480E+03  0.17135395071E+03 0.  0.
         24    2    3    3    0    0 -0.18641227886E+02  0.50999643856E+02  0.25849616665E+02  0.10026937129E+03  0.80232693375E+02 0.  0.
         -6    2    1    2    0  502 -0.22608005502E+02 -0.88697118292E+02  0.77539748477E+03  0.79980048553E+03  0.17338182302E+03 0.  0.
        -24    2    5    5    0    0 -0.80026845584E+02 -0.69926311301E+02  0.62178430606E+03  0.63466912853E+03  0.69965665979E+02 0.  0.
          5    1    3    3  501    0  0.41249233388E+02  0.37697474436E+02  0.15622779091E+03  0.16598738352E+03  0.47000000000E+01 0. -1.
        -11    1    4    4    0    0 -0.49983013486E+02  0.37977099386E+02  0.13959351105E+02  0.64307271736E+02  0.00000000000E+00 0.  1.
         12    1    4    4    0    0  0.31341785600E+02  0.13022544470E+02  0.11890265560E+02  0.35962099552E+02  0.00000000000E+00 0. -1.
         -5    1    5    5    0  502  0.57418840082E+02 -0.18770806991E+02  0.15361317872E+03  0.16513135701E+03  0.47000000000E+01 0.  1.
         13    1    6    6    0    0 -0.20092143655E+02  0.81047244348E+01  0.21782620226E+03  0.21890097119E+03  0.00000000000E+00 0. -1.
        -14    1    6    6    0    0 -0.59934701928E+02 -0.78031035735E+02  0.40395810379E+03  0.41576815734E+03  0.00000000000E+00 0.  1.
<mgrwt>
<rscale>  2 0.19561079E+03</rscale>
<asrwt>0</asrwt>
<pdfrwt beam="1">  1       21 0.15565630E+00 0.19606009E+03</pdfrwt>
<pdfrwt beam="2">  1       21 0.83524891E-02 0.19606009E+03</pdfrwt>
<totfact> 0.30101324E+04</totfact>
</mgrwt>
</event>
<event>
12    1  0.1071811E-001  0.2228629E+03  0.7546771E-02  0.1131870E+00
         21   -1    0    0  503  502  0.00000000000E+00  0.00000000000E+00  0.25074400283E+03  0.25074400283E+03  0.00000000000E+00 0.  1.
         21   -1    0    0  501  503 -0.00000000000E+00 -0.00000000000E+00 -0.22442746399E+03  0.22442746399E+03  0.00000000000E+00 0.  1.
          6    2    1    2  501    0  0.13841981425E+03  0.21872046471E+02 -0.69025476236E+02  0.23277101792E+03  0.17256708556E+03 0.  0.
         24    2    3    3    0    0  0.17028168684E+03  0.16308086314E+02 -0.67242207507E+02  0.20003866963E+03  0.78943956853E+02 0.  0.
         -6    2    1    2    0  502 -0.13841981425E+03 -0.21872046471E+02  0.95342015081E+02  0.24240044890E+03  0.17329006432E+03 0.  0.
        -24    2    5    5    0    0 -0.88678988344E+02 -0.14257014464E+01 -0.13978792404E+02  0.12047698218E+03  0.80332440522E+02 0.  0.
          5    1    3    3  501    0 -0.31861872588E+02  0.55639601563E+01 -0.17832687287E+01  0.32732348293E+02  0.47000000000E+01 0. -1.
        -13    1    4    4    0    0  0.71409792600E+02  0.22121840066E+01 -0.70147816574E+02  0.10012476421E+03  0.00000000000E+00 0.  1.
         14    1    4    4    0    0  0.98871894240E+02  0.14095902308E+02  0.29056090670E+01  0.99913905421E+02  0.00000000000E+00 0. -1.
         -5    1    5    5    0  502 -0.49740825907E+02 -0.20446345024E+02  0.10932080748E+03  0.12192346672E+03  0.47000000000E+01 0.  1.
         11    1    6    6    0    0  0.84937661237E+01 -0.70831257336E+01  0.15257048436E+02  0.18843891851E+02  0.00000000000E+00 0. -1.
        -12    1    6    6    0    0 -0.97172754468E+02  0.56574242872E+01 -0.29235840840E+02  0.10163309033E+03  0.00000000000E+00 0.  1.
<mgrwt>
<rscale>  2 0.22272236E+03</rscale>
<asrwt>0</asrwt>
<pdfrwt beam="1">  1       21 0.38576000E-01 0.22286291E+03</pdfrwt>
<pdfrwt beam="2">  1       21 0.34527302E-01 0.22286291E+03</pdfrwt>
<totfact> 0.51653976E+04</totfact>
</mgrwt>
</event>
<event>
12    1  0.1071811E-001  0.1959103E+03  0.7546771E-02  0.1153383E+00
         21   -1    0    0  501  502  0.00000000000E+00  0.00000000000E+00  0.58075290028E+03  0.58075290028E+03  0.00000000000E+00 0.  1.
         21   -1    0    0  502  503 -0.00000000000E+00 -0.00000000000E+00 -0.66525568176E+02  0.66525568176E+02  0.00000000000E+00 0.  1.
         -6    2    1    2    0  503 -0.38084770729E+01  0.90360702589E+02  0.22428345211E+03  0.29735230943E+03  0.17301955947E+03 0.  0.
        -24    2    3    3    0    0  0.34820677898E+02 -0.72812019875E+01  0.12606485687E+03  0.15349426970E+03  0.80016543173E+02 0.  0.
          6    2    1    2  501    0  0.38084770729E+01 -0.90360702589E+02  0.28994387999E+03  0.34992615903E+03  0.17378521847E+03 0.  0.
         24    2    5    5    0    0 -0.36319154010E+02 -0.89580144384E+02  0.11636083500E+03  0.17170158285E+03  0.81227497895E+02 0.  0.
          5    1    5    5  501    0  0.40127631083E+02 -0.78055820446E+00  0.17358304498E+03  0.17822457618E+03  0.47000000000E+01 0. -1.
        -11    1    6    6    0    0 -0.44998728588E+02 -0.83052563368E+02  0.12579783289E+03  0.15731404456E+03  0.00000000000E+00 0.  1.
         12    1    6    6    0    0  0.86795745785E+01 -0.65275810159E+01 -0.94369978879E+01  0.14387538286E+02  0.00000000000E+00 0. -1.
         -5    1    3    3    0  503 -0.38629154971E+02  0.97641904576E+02  0.98218595247E+02  0.14385803973E+03  0.47000000000E+01 0.  1.
         13    1    4    4    0    0 -0.12554401726E+02 -0.31802096355E+02  0.51294695490E+02  0.61645211660E+02  0.00000000000E+00 0. -1.
        -14    1    4    4    0    0  0.47375079624E+02  0.24520894367E+02  0.74770161376E+02  0.91849058036E+02  0.00000000000E+00 0.  1.
<mgrwt>
<rscale>  2 0.19574041E+03</rscale>
<asrwt>0</asrwt>
<pdfrwt beam="1">  1       21 0.89346597E-01 0.19591034E+03</pdfrwt>
<pdfrwt beam="2">  1       21 0.10234703E-01 0.19591034E+03</pdfrwt>
<totfact> 0.83096031E+04</totfact>
</mgrwt>
</event>
<event>
12    1  0.1071811E-001  0.2021769E+03  0.7546771E-02  0.1149322E+00
         21   -1    0    0  501  502  0.00000000000E+00  0.00000000000E+00  0.61964375087E+03  0.61964375087E+03  0.00000000000E+00 0. -1.
         21   -1    0    0  502  503 -0.00000000000E+00 -0.00000000000E+00 -0.65723335851E+02  0.65723335851E+02  0.00000000000E+00 0. -1.
         -6    2    1    2    0  503 -0.90060214251E+02 -0.29171170028E+02  0.33981634840E+03  0.39541201662E+03  0.17864409561E+03 0.  0.
        -24    2    3    3    0    0 -0.11140137875E+03 -0.59941980411E+01  0.15293177850E+03  0.20583208678E+03  0.80824015461E+02 0.  0.
          6    2    1    2  501    0  0.90060214251E+02  0.29171170028E+02  0.21410406662E+03  0.28995507011E+03  0.17108942686E+03 0.  0.
         24    2    5    5    0    0  0.11149566643E+02  0.61341561160E+02  0.15305369370E+03  0.18502146059E+03  0.83188988229E+02 0.  0.
          5    1    5    5  501    0  0.78910647608E+02 -0.32170391132E+02  0.61050372926E+02  0.10493360951E+03  0.47000000000E+01 0. -1.
        -13    1    6    6    0    0  0.31069856395E+02  0.51635928938E+02  0.15122164031E+03  0.16278694552E+03  0.00000000000E+00 0.  1.
         14    1    6    6    0    0 -0.19920289751E+02  0.97056322222E+01  0.18320533827E+01  0.22234515066E+02  0.00000000000E+00 0. -1.
         -5    1    3    3    0  503  0.21341164496E+02 -0.23176971987E+02  0.18688456989E+03  0.18957992984E+03  0.47000000000E+01 0.  1.
         11    1    4    4    0    0 -0.47837807327E+02 -0.35567763214E+02  0.10553524144E+03  0.12120729671E+03  0.00000000000E+00 0. -1.
        -12    1    4    4    0    0 -0.63563571420E+02  0.29573565173E+02  0.47396537060E+02  0.84624790068E+02  0.00000000000E+00 0.  1.
<mgrwt>
<rscale>  2 0.20049524E+03</rscale>
<asrwt>0</asrwt>
<pdfrwt beam="1">  1       21 0.95329804E-01 0.20217693E+03</pdfrwt>
<pdfrwt beam="2">  1       21 0.10111283E-01 0.20217693E+03</pdfrwt>
<totfact> 0.72792709E+04</totfact>
</mgrwt>
</event>
<event>
12    1  0.1071811E-001  0.1822380E+03  0.7546771E-02  0.1165664E+00
         21   -1    0    0  501  502  0.00000000000E+00  0.00000000000E+00  0.12089206132E+04  0.12089206132E+04  0.00000000000E+00 0. -1.
         21   -1    0    0  502  503 -0.00000000000E+00 -0.00000000000E+00 -0.45702465928E+02  0.45702465928E+02  0.00000000000E+00 0. -1.
         -6    2    1    2    0  503  0.55558186323E+02 -0.13675999058E+01  0.18537688025E+03  0.25995244717E+03  0.17355720861E+03 0.  0.
        -24    2    3    3    0    0 -0.29758757379E+02  0.12687091304E+02  0.63835099490E+02  0.11071770022E+03  0.84480431394E+02 0.  0.
          6    2    1    2  501    0 -0.55558186323E+02  0.13675999058E+01  0.97784126702E+03  0.99467063195E+03  0.17351524482E+03 0.  0.
         24    2    5    5    0    0  0.23646023699E+02 -0.26246014534E+02  0.32648274431E+03  0.33791661887E+03  0.79678549585E+02 0.  0.
          5    1    5    5  501    0 -0.79204210021E+02  0.27613614440E+02  0.65135852271E+03  0.65675401308E+03  0.47000000000E+01 0. -1.
        -11    1    6    6    0    0 -0.58658255248E+01 -0.27831303016E+02  0.35743883500E+02  0.45679476182E+02  0.00000000000E+00 0.  1.
         12    1    6    6    0    0  0.29511849223E+02  0.15852884815E+01  0.29073886081E+03  0.29223714269E+03  0.00000000000E+00 0. -1.
         -5    1    3    3    0  503  0.85316943701E+02 -0.14054691210E+02  0.12154178076E+03  0.14923474695E+03  0.47000000000E+01 0.  1.
         13    1    4    4    0    0  0.14327599431E+02  0.29643130693E+02  0.21078809987E+01  0.32991490797E+02  0.00000000000E+00 0. -1.
        -14    1    4    4    0    0 -0.44086356810E+02 -0.16956039388E+02  0.61727218491E+02  0.77726209422E+02  0.00000000000E+00 0.  1.
<mgrwt>
<rscale>  2 0.18222800E+03</rscale>
<asrwt>0</asrwt>
<pdfrwt beam="1">  1       21 0.18598776E+00 0.18223800E+03</pdfrwt>
<pdfrwt beam="2">  1       21 0.70311495E-02 0.18223800E+03</pdfrwt>
<totfact> 0.25076338E+04</totfact>
</mgrwt>
</event>
<event>
12    1  0.1071811E-001  0.2457711E+03  0.7546771E-02  0.1116114E+00
         21   -1    0    0  503  502  0.00000000000E+00  0.00000000000E+00  0.59257821744E+03  0.59257821744E+03  0.00000000000E+00 0.  1.
         21   -1    0    0  501  503 -0.00000000000E+00 -0.00000000000E+00 -0.10168660122E+03  0.10168660122E+03  0.00000000000E+00 0.  1.
          6    2    1    2  501    0  0.10612146429E+03  0.13967987884E+03  0.25141236059E+03  0.35158443094E+03  0.17213716415E+03 0.  0.
         24    2    3    3    0    0  0.99758227833E+02  0.16532193189E+03  0.24859299697E+03  0.32460213166E+03  0.79278121513E+02 0.  0.
         -6    2    1    2    0  502 -0.10612146429E+03 -0.13967987884E+03  0.23947925563E+03  0.34268038772E+03  0.17119375139E+03 0.  0.
        -24    2    5    5    0    0 -0.19222232863E+02 -0.22729705743E+02  0.15266676783E+03  0.17301213068E+03  0.75762270298E+02 0.  0.
          5    1    3    3  501    0  0.63632364605E+01 -0.25642053050E+02  0.28193636190E+01  0.26982299274E+02  0.47000000000E+01 0. -1.
        -13    1    4    4    0    0  0.10023524913E+03  0.11154135938E+03  0.21149522864E+03  0.25926590936E+03  0.00000000000E+00 0.  1.
         14    1    4    4    0    0 -0.47702129515E+00  0.53780572512E+02  0.37097768332E+02  0.65336222299E+02  0.00000000000E+00 0. -1.
         -5    1    5    5    0  502 -0.86899231431E+02 -0.11695017310E+03  0.86812487792E+02  0.16966825704E+03  0.47000000000E+01 0.  1.
         13    1    6    6    0    0  0.66420947923E-02 -0.98966791980E+01 -0.67167741793E+01  0.11960742395E+02  0.00000000000E+00 0. -1.
        -14    1    6    6    0    0 -0.19228874957E+02 -0.12833026545E+02  0.15938354201E+03  0.16105138828E+03  0.00000000000E+00 0.  1.
<mgrwt>
<rscale>  2 0.24560598E+03</rscale>
<asrwt>0</asrwt>
<pdfrwt beam="1">  1       21 0.91165877E-01 0.24577111E+03</pdfrwt>
<pdfrwt beam="2">  1       21 0.15644093E-01 0.24577111E+03</pdfrwt>
<totfact> 0.36076717E+04</totfact>
</mgrwt>
</event>
<event>
12    1  0.1071811E-001  0.2096036E+03  0.7546771E-02  0.1142935E+00
         21   -1    0    0  501  502  0.00000000000E+00  0.00000000000E+00  0.56350858337E+03  0.56350858337E+03  0.00000000000E+00 0.  1.
         21   -1    0    0  502  503 -0.00000000000E+00 -0.00000000000E+00 -0.87613438259E+02  0.87613438259E+02  0.00000000000E+00 0. -1.
         -6    2    1    2    0  503 -0.84102052724E+02  0.75676634557E+02  0.12217816879E+03  0.24261322268E+03  0.17644705325E+03 0.  0.
        -24    2    3    3    0    0 -0.84413723768E+02  0.11437856888E+03  0.12180778787E+03  0.20362394158E+03  0.80108917222E+02 0.  0.
          6    2    1    2  501    0  0.84102052724E+02 -0.75676634557E+02  0.35371697632E+03  0.40850879895E+03  0.17018704766E+03 0.  0.
         24    2    5    5    0    0  0.83643726946E+02 -0.49828735437E+02  0.36000658062E+03  0.38149078507E+03  0.80320016634E+02 0.  0.
          5    1    5    5  501    0  0.45832577755E+00 -0.25847899120E+02 -0.62896043031E+01  0.27018013875E+02  0.47000000000E+01 0. -1.
        -11    1    6    6    0    0  0.11555793159E+02  0.21406091697E+02  0.56623203454E+02  0.61627463737E+02  0.00000000000E+00 0.  1.
         12    1    6    6    0    0  0.72087933787E+02 -0.71234827134E+02  0.30338337717E+03  0.31986332133E+03  0.00000000000E+00 0. -1.
         -5    1    3    3    0  503  0.31167104466E+00 -0.38701934320E+02  0.37038092013E+00  0.38989281103E+02  0.47000000000E+01 0.  1.
         13    1    4    4    0    0 -0.25542991652E+02 -0.64139838408E+01  0.79817378624E+01  0.27518934401E+02  0.00000000000E+00 0. -1.
        -14    1    4    4    0    0 -0.58870732116E+02  0.12079255272E+03  0.11382605001E+03  0.17610500718E+03  0.00000000000E+00 0.  1.
<mgrwt>
<rscale>  2 0.20828068E+03</rscale>
<asrwt>0</asrwt>
<pdfrwt beam="1">  1       21 0.86693626E-01 0.20960360E+03</pdfrwt>
<pdfrwt beam="2">  1       21 0.13478991E-01 0.20960360E+03</pdfrwt>
<totfact> 0.54087346E+04</totfact>
</mgrwt>
</event>
<event>
12    1  0.1071811E-001  0.2671917E+03  0.7546771E-02  0.1102923E+00
         21   -1    0    0  501  502  0.00000000000E+00  0.00000000000E+00  0.32222156786E+02  0.32222156786E+02  0.00000000000E+00 0.  1.
         21   -1    0    0  502  503 -0.00000000000E+00 -0.00000000000E+00 -0.28794143246E+04  0.28794143246E+04  0.00000000000E+00 0. -1.
         -6    2    1    2    0  503  0.73614585854E+02  0.18969132489E+03 -0.21237302318E+04  0.21404722590E+04  0.17317473309E+03 0.  0.
        -24    2    3    3    0    0  0.94978993834E+02  0.15273189884E+03 -0.19972950358E+04  0.20069417910E+04  0.79245506108E+02 0.  0.
          6    2    1    2  501    0 -0.73614585854E+02 -0.18969132489E+03 -0.72346193595E+03  0.77116422230E+03  0.17290222382E+03 0.  0.
         24    2    5    5    0    0  0.27206767959E+02 -0.19961122822E+02 -0.24084106476E+03  0.24970637915E+03  0.56658650408E+02 0.  0.
          5    1    5    5  501    0 -0.10082135381E+03 -0.16973020207E+03 -0.48262087119E+03  0.52145784315E+03  0.47000000000E+01 0. -1.
        -13    1    6    6    0    0  0.23005805473E+02  0.17036697792E+02 -0.98508150200E+02  0.10258348704E+03  0.00000000000E+00 0.  1.
         14    1    6    6    0    0  0.42009624858E+01 -0.36997820614E+02 -0.14233291456E+03  0.14712289211E+03  0.00000000000E+00 0. -1.
         -5    1    3    3    0  503 -0.21364407980E+02  0.36959426049E+02 -0.12643519603E+03  0.13353046805E+03  0.47000000000E+01 0.  1.
         13    1    4    4    0    0  0.10519008969E+03  0.15280571593E+03 -0.18443458469E+04  0.18536521099E+04  0.00000000000E+00 0. -1.
        -14    1    4    4    0    0 -0.10211095860E+02 -0.73817083567E-01 -0.15294918892E+03  0.15328968105E+03  0.00000000000E+00 0.  1.
<mgrwt>
<rscale>  2 0.26714753E+03</rscale>
<asrwt>0</asrwt>
<pdfrwt beam="1">  1       21 0.49572539E-02 0.26719168E+03</pdfrwt>
<pdfrwt beam="2">  1       21 0.44298691E+00 0.26719168E+03</pdfrwt>
<totfact> 0.11448478E+03</totfact>
</mgrwt>
</event>
<event>
12    1  0.1071811E-001  0.1960228E+03  0.7546771E-02  0.1153139E+00
         21   -1    0    0  501  502  0.00000000000E+00  0.00000000000E+00  0.51239843756E+03  0.51239843756E+03  0.00000000000E+00 0. -1.
         21   -1    0    0  502  503 -0.00000000000E+00 -0.00000000000E+00 -0.97363952811E+02  0.97363952811E+02  0.00000000000E+00 0. -1.
         -6    2    1    2    0  503  0.63263204373E+01  0.87578304556E+02  0.61364349595E+02  0.20540180302E+03  0.17525505848E+03 0.  0.
        -24    2    3    3    0    0 -0.61231789759E+02  0.94540397495E+02  0.35192420647E+02  0.13246601718E+03  0.60179069451E+02 0.  0.
          6    2    1    2  501    0 -0.63263204373E+01 -0.87578304556E+02  0.35367013516E+03  0.40436058736E+03  0.17525677832E+03 0.  0.
         24    2    5    5    0    0 -0.57597533143E+02 -0.91386648928E+01  0.11621358274E+03  0.14903879312E+03  0.72842117096E+02 0.  0.
          5    1    5    5  501    0  0.51271212705E+02 -0.78439639663E+02  0.23745655242E+03  0.25532179423E+03  0.47000000000E+01 0. -1.
        -11    1    6    6    0    0 -0.74381380686E+02 -0.38668016087E+00  0.92705684214E+02  0.11885740700E+03  0.00000000000E+00 0.  1.
         12    1    6    6    0    0  0.16783847543E+02 -0.87519847319E+01  0.23507898523E+02  0.30181386119E+02  0.00000000000E+00 0. -1.
         -5    1    3    3    0  503  0.67558110197E+02 -0.69620929385E+01  0.26171928948E+02  0.72935785841E+02  0.47000000000E+01 0.  1.
         11    1    4    4    0    0 -0.62508414279E+02  0.47726609793E+02  0.99713756698E+01  0.79275213471E+02  0.00000000000E+00 0. -1.
        -12    1    4    4    0    0  0.12766245199E+01  0.46813787701E+02  0.25221044977E+02  0.53190803706E+02  0.00000000000E+00 0.  1.
<mgrwt>
<rscale>  2 0.19602237E+03</rscale>
<asrwt>0</asrwt>
<pdfrwt beam="1">  1       21 0.78830527E-01 0.19602275E+03</pdfrwt>
<pdfrwt beam="2">  1       21 0.14979070E-01 0.19602275E+03</pdfrwt>
<totfact> 0.55828197E+04</totfact>
</mgrwt>
</event>
<event>
12    1  0.1071811E-001  0.2514736E+03  0.7546771E-02  0.1112690E+00
         21   -1    0    0  501  502  0.00000000000E+00  0.00000000000E+00  0.60064063264E+03  0.60064063264E+03  0.00000000000E+00 0. -1.
         21   -1    0    0  502  503 -0.00000000000E+00 -0.00000000000E+00 -0.12491129126E+03  0.12491129126E+03  0.00000000000E+00 0. -1.
         -6    2    1    2    0  503 -0.17811474292E+03 -0.16623317565E+02  0.91851271243E+02  0.26772304441E+03  0.17674211764E+03 0.  0.
        -24    2    3    3    0    0 -0.17316470718E+03  0.39948451580E+02  0.68009207876E+02  0.20595410478E+03  0.78803212630E+02 0.  0.
          6    2    1    2  501    0  0.17811474292E+03  0.16623317565E+02  0.38387807014E+03  0.45782887950E+03  0.17390719893E+03 0.  0.
         24    2    5    5    0    0  0.46673275947E+02  0.37685677719E+01  0.26344152565E+03  0.27902967625E+03  0.79142441240E+02 0.  0.
          5    1    5    5  501    0  0.13144146697E+03  0.12854749793E+02  0.12043654449E+03  0.17879920324E+03  0.47000000000E+01 0. -1.
        -13    1    6    6    0    0  0.58238122229E+02 -0.22646066592E+02  0.16434993317E+03  0.17582782415E+03  0.00000000000E+00 0.  1.
         14    1    6    6    0    0 -0.11564846282E+02  0.26414634363E+02  0.99091592478E+02  0.10320185210E+03  0.00000000000E+00 0. -1.
         -5    1    3    3    0  503 -0.49500357336E+01 -0.56571769145E+02  0.23842063368E+02  0.61768939634E+02  0.47000000000E+01 0.  1.
         13    1    4    4    0    0 -0.10052193107E+03  0.12043106137E+02  0.77582816637E+02  0.12754916099E+03  0.00000000000E+00 0. -1.
        -14    1    4    4    0    0 -0.72642776110E+02  0.27905345442E+02 -0.95736087617E+01  0.78404943785E+02  0.00000000000E+00 0.  1.
<mgrwt>
<rscale>  2 0.25097605E+03</rscale>
<asrwt>0</asrwt>
<pdfrwt beam="1">  1       21 0.92406249E-01 0.25147360E+03</pdfrwt>
<pdfrwt beam="2">  1       21 0.19217122E-01 0.25147360E+03</pdfrwt>
<totfact> 0.23806746E+04</totfact>
</mgrwt>
</event>
<event>
12    1  0.1071811E-001  0.1786016E+03  0.7546771E-02  0.1169390E+00
         21   -1    0    0  501  502  0.00000000000E+00  0.00000000000E+00  0.65207494894E+02  0.65207494894E+02  0.00000000000E+00 0. -1.
         21   -1    0    0  502  503 -0.00000000000E+00 -0.00000000000E+00 -0.52024826420E+03  0.52024826420E+03  0.00000000000E+00 0. -1.
         -6    2    1    2    0  503  0.36190854471E+02 -0.23521785491E+02 -0.15258118265E+03  0.23420040234E+03  0.17235358661E+03 0.  0.
        -24    2    3    3    0    0  0.47451408658E+01 -0.57600199706E+02 -0.15816793445E+03  0.18725923687E+03  0.81906208178E+02 0.  0.
          6    2    1    2  501    0 -0.36190854471E+02  0.23521785491E+02 -0.30245958666E+03  0.35125535676E+03  0.17330744862E+03 0.  0.
         24    2    5    5    0    0  0.38086454999E+02  0.11192836179E+02 -0.11496157426E+03  0.14914965088E+03  0.86334217812E+02 0.  0.
          5    1    5    5  501    0 -0.74277309470E+02  0.12328949312E+02 -0.18749801240E+03  0.20210570588E+03  0.47000000000E+01 0. -1.
        -11    1    6    6    0    0 -0.10059692648E+02  0.35735540107E+02 -0.26964804163E+02  0.45883841452E+02  0.00000000000E+00 0.  1.
         12    1    6    6    0    0  0.48146147647E+02 -0.24542703928E+02 -0.87996770096E+02  0.10326580943E+03  0.00000000000E+00 0. -1.
         -5    1    3    3    0  503  0.31445713605E+02  0.34078414215E+02  0.55867518045E+01  0.46941165466E+02  0.47000000000E+01 0.  1.
         11    1    4    4    0    0 -0.43577638143E+00  0.50101680852E+01  0.80909361654E+01  0.95265383707E+01  0.00000000000E+00 0. -1.
        -12    1    4    4    0    0  0.51809172473E+01 -0.62610367792E+02 -0.16625887062E+03  0.17773269850E+03  0.00000000000E+00 0.  1.
<mgrwt>
<rscale>  2 0.17836977E+03</rscale>
<asrwt>0</asrwt>
<pdfrwt beam="1">  1       21 0.10031923E-01 0.17860158E+03</pdfrwt>
<pdfrwt beam="2">  1       21 0.80038190E-01 0.17860158E+03</pdfrwt>
<totfact> 0.11145238E+05</totfact>
</mgrwt>
</event>
<event>
12    1  0.1071811E-001  0.1898023E+03  0.7546771E-02  0.1158654E+00
         21   -1    0    0  503  502  0.00000000000E+00  0.00000000000E+00  0.55078252341E+03  0.55078252341E+03  0.00000000000E+00 0.  1.
         21   -1    0    0  501  503 -0.00000000000E+00 -0.00000000000E+00 -0.23397613580E+03  0.23397613580E+03  0.00000000000E+00 0.  1.
          6    2    1    2  501    0  0.99553887579E+01 -0.77657277711E+02 -0.17467551602E+03  0.25790062099E+03  0.17283353802E+03 0.  0.
         24    2    3    3    0    0 -0.35221610545E+02 -0.54227368251E+02 -0.38630579140E+02  0.11257258937E+03  0.83660605524E+02 0.  0.
         -6    2    1    2    0  502 -0.99553887579E+01  0.77657277711E+02  0.49148190362E+03  0.52685803821E+03  0.17290219286E+03 0.  0.
        -24    2    5    5    0    0 -0.40483154209E+02  0.76930111396E+02  0.17638055741E+03  0.21024562276E+03  0.74404254199E+02 0.  0.
          5    1    3    3  501    0  0.45176999303E+02 -0.23429909460E+02 -0.13604493688E+03  0.14532803162E+03  0.47000000000E+01 0. -1.
        -11    1    4    4    0    0  0.36606511172E+00 -0.45722939369E+02 -0.55811306723E+02  0.72150004479E+02  0.00000000000E+00 0.  1.
         12    1    4    4    0    0 -0.35587675657E+02 -0.85044288823E+01  0.17180727583E+02  0.40422584895E+02  0.00000000000E+00 0. -1.
         -5    1    5    5    0  502  0.30527765451E+02  0.72716631517E+00  0.31510134622E+03  0.31661241546E+03  0.47000000000E+01 0.  1.
         11    1    6    6    0    0 -0.42509272473E+00  0.56013819540E+02  0.46739472763E+02  0.72954143113E+02  0.00000000000E+00 0. -1.
        -12    1    6    6    0    0 -0.40058061484E+02  0.20916291856E+02  0.12964108464E+03  0.13729147964E+03  0.00000000000E+00 0.  1.
<mgrwt>
<rscale>  2 0.18978671E+03</rscale>
<asrwt>0</asrwt>
<pdfrwt beam="1">  1       21 0.84735772E-01 0.18980235E+03</pdfrwt>
<pdfrwt beam="2">  1       21 0.35996329E-01 0.18980235E+03</pdfrwt>
<totfact> 0.89997391E+03</totfact>
</mgrwt>
</event>
<event>
12    1  0.1071811E-001  0.2087207E+03  0.7546771E-02  0.1142982E+00
         21   -1    0    0  503  502  0.00000000000E+00  0.00000000000E+00  0.33359717955E+03  0.33359717955E+03  0.00000000000E+00 0.  1.
         21   -1    0    0  501  503 -0.00000000000E+00 -0.00000000000E+00 -0.23470588337E+03  0.23470588337E+03  0.00000000000E+00 0.  1.
          6    2    1    2  501    0  0.22799099014E+02  0.11004229333E+03 -0.14106420462E+03  0.25027321042E+03  0.17351790914E+03 0.  0.
         24    2    3    3    0    0  0.11985941947E+02  0.26813256992E+02 -0.14047400917E+03  0.16621111917E+03  0.83848526090E+02 0.  0.
         -6    2    1    2    0  502 -0.22799099014E+02 -0.11004229333E+03  0.23995550080E+03  0.31802985249E+03  0.17588416494E+03 0.  0.
        -24    2    5    5    0    0  0.11265721432E+02 -0.30811965980E+02  0.30539969441E+02  0.91502124525E+02  0.79772522413E+02 0.  0.
          5    1    3    3  501    0  0.10813157067E+02  0.83229036338E+02 -0.59019544811E+00  0.84062091255E+02  0.47000000000E+01 0. -1.
        -13    1    4    4    0    0 -0.76338034726E+01  0.49615997128E+02 -0.49937671661E+02  0.70808143440E+02  0.00000000000E+00 0.  1.
         14    1    4    4    0    0  0.19619745420E+02 -0.22802740136E+02 -0.90536337507E+02  0.95402975726E+02  0.00000000000E+00 0. -1.
         -5    1    5    5    0  502 -0.34064820446E+02 -0.79230327349E+02  0.20941553136E+03  0.22652772797E+03  0.47000000000E+01 0.  1.
         13    1    6    6    0    0  0.57656277000E+01  0.15511368429E+02  0.40545461272E+02  0.43792458747E+02  0.00000000000E+00 0. -1.
        -14    1    6    6    0    0  0.55000937318E+01 -0.46323334409E+02 -0.10005491832E+02  0.47709665778E+02  0.00000000000E+00 0.  1.
<mgrwt>
<rscale>  2 0.20822143E+03</rscale>
<asrwt>0</asrwt>
<pdfrwt beam="1">  1       21 0.51322643E-01 0.20872073E+03</pdfrwt>
<pdfrwt beam="2">  1       21 0.36108598E-01 0.20872073E+03</pdfrwt>
<totfact> 0.26446717E+04</totfact>
</mgrwt>
</event>
<event>
12    1  0.1071811E-001  0.2205443E+03  0.7546771E-02  0.1133729E+00
         21   -1    0    0  503  502  0.00000000000E+00  0.00000000000E+00  0.66267565542E+03  0.66267565542E+03  0.00000000000E+00 0. -1.
         21   -1    0    0  501  503 -0.00000000000E+00 -0.00000000000E+00 -0.91368495390E+02  0.91368495390E+02  0.00000000000E+00 0. -1.
          6    2    1    2  501    0  0.21650682074E+02  0.13384812698E+03  0.11708608117E+03  0.24969765392E+03  0.17394164206E+03 0.  0.
         24    2    3    3    0    0  0.51574977250E+02  0.35645596888E+02  0.12038687922E+02  0.10274104405E+03  0.80499722171E+02 0.  0.
         -6    2    1    2    0  502 -0.21650682074E+02 -0.13384812698E+03  0.45422107887E+03  0.50434649689E+03  0.17223393194E+03 0.  0.
        -24    2    5    5    0    0 -0.74637135239E+02 -0.12241454429E+03  0.31185095614E+03  0.35193379113E+03  0.77784007899E+02 0.  0.
          5    1    3    3  501    0 -0.29924295176E+02  0.98202530088E+02  0.10504739324E+03  0.14695660987E+03  0.47000000000E+01 0. -1.
        -13    1    4    4    0    0  0.76941434938E+00 -0.17843393868E+02  0.21959191188E+02  0.28305207662E+02  0.00000000000E+00 0.  1.
         14    1    4    4    0    0  0.50805562901E+02  0.53488990755E+02 -0.99205032653E+01  0.74435836388E+02  0.00000000000E+00 0. -1.
         -5    1    5    5    0  502  0.52986453165E+02 -0.11433582688E+02  0.14237012272E+03  0.15241270576E+03  0.47000000000E+01 0.  1.
         13    1    6    6    0    0 -0.52958842869E+01 -0.46985859253E+02  0.17317223423E+03  0.17951139258E+03  0.00000000000E+00 0. -1.
        -14    1    6    6    0    0 -0.69341250952E+02 -0.75428685035E+02  0.13867872192E+03  0.17242239855E+03  0.00000000000E+00 0.  1.
<mgrwt>
<rscale>  2 0.22020740E+03</rscale>
<asrwt>0</asrwt>
<pdfrwt beam="1">  1       21 0.10195010E+00 0.22054425E+03</pdfrwt>
<pdfrwt beam="2">  1       21 0.14056692E-01 0.22054425E+03</pdfrwt>
<totfact> 0.34087787E+04</totfact>
</mgrwt>
</event>
<event>
12    1  0.1071811E-001  0.2047483E+03  0.7546771E-02  0.1146488E+00
         21   -1    0    0  503  502  0.00000000000E+00  0.00000000000E+00  0.15424294060E+03  0.15424294060E+03  0.00000000000E+00 0. -1.
         21   -1    0    0  501  503 -0.00000000000E+00 -0.00000000000E+00 -0.32084432910E+03  0.32084432910E+03  0.00000000000E+00 0. -1.
          6    2    1    2  501    0  0.10702287529E+03  0.20392288658E+02 -0.18087141497E+03  0.27319648241E+03  0.17335543826E+03 0.  0.
         24    2    3    3    0    0  0.10517497371E+03  0.43514988098E+02 -0.65550964145E+02  0.15547235426E+03  0.83182899407E+02 0.  0.
         -6    2    1    2    0  502 -0.10702287529E+03 -0.20392288658E+02  0.14270026475E+02  0.20189078730E+03  0.16937093927E+03 0.  0.
        -24    2    5    5    0    0 -0.11591376801E+03 -0.65069140634E+02  0.16788569223E+02  0.15602683486E+03  0.79953251731E+02 0.  0.
          5    1    3    3  501    0  0.18479015746E+01 -0.23122699440E+02 -0.11532045083E+03  0.11772412815E+03  0.47000000000E+01 0. -1.
        -11    1    4    4    0    0  0.41199003131E+02 -0.54549911868E+01  0.12399152661E+02  0.43368811081E+02  0.00000000000E+00 0.  1.
         12    1    4    4    0    0  0.63975970581E+02  0.48969979285E+02 -0.77950116805E+02  0.11210354318E+03  0.00000000000E+00 0. -1.
         -5    1    5    5    0  502  0.88908927193E+01  0.44676851977E+02 -0.25185427480E+01  0.45863952440E+02  0.47000000000E+01 0.  1.
         13    1    6    6    0    0 -0.68824137161E+02 -0.15441185807E+02  0.43176771215E+02  0.82700820115E+02  0.00000000000E+00 0. -1.
        -14    1    6    6    0    0 -0.47089630846E+02 -0.49627954827E+02 -0.26388201992E+02  0.73326014741E+02  0.00000000000E+00 0.  1.
<mgrwt>
<rscale>  2 0.20390243E+03</rscale>
<asrwt>0</asrwt>
<pdfrwt beam="1">  1       21 0.23729683E-01 0.20474826E+03</pdfrwt>
<pdfrwt beam="2">  1       21 0.49360665E-01 0.20474826E+03</pdfrwt>
<totfact> 0.65112198E+04</totfact>
</mgrwt>
</event>
<event>
12    1  0.1071811E-001  0.2685951E+03  0.7546771E-02  0.1102140E+00
         21   -1    0    0  501  502  0.00000000000E+00  0.00000000000E+00  0.92033608405E+02  0.92033608405E+02  0.00000000000E+00 0.  1.
         21   -1    0    0  502  503 -0.00000000000E+00 -0.00000000000E+00 -0.82688872932E+03  0.82688872932E+03  0.00000000000E+00 0. -1.
         -6    2    1    2    0  503  0.20483974641E+03 -0.40059153670E+01 -0.47376239564E+03  0.54460455632E+03  0.17368922297E+03 0.  0.
        -24    2    3    3    0    0  0.60289805197E+02  0.48842374870E+02 -0.23242637234E+03  0.25833057318E+03  0.81806040623E+02 0.  0.
          6    2    1    2  501    0 -0.20483974641E+03  0.40059153670E+01 -0.26109272528E+03  0.37431778141E+03  0.17311562962E+03 0.  0.
         24    2    5    5    0    0 -0.75457348525E+02 -0.48502109033E+02 -0.16933771720E+03  0.20717123189E+03  0.78729859830E+02 0.  0.
          5    1    5    5  501    0 -0.12938239789E+03  0.52508024400E+02 -0.91755008082E+02  0.16714654952E+03  0.47000000000E+01 0. -1.
        -11    1    6    6    0    0 -0.98567429144E+01  0.14284790842E+01  0.72288021617E+01  0.12306563861E+02  0.00000000000E+00 0.  1.
         12    1    6    6    0    0 -0.65600605611E+02 -0.49930588117E+02 -0.17656651936E+03  0.19486466803E+03  0.00000000000E+00 0. -1.
         -5    1    3    3    0  503  0.14454994121E+03 -0.52848290236E+02 -0.24133602329E+03  0.28627398314E+03  0.47000000000E+01 0.  1.
         11    1    4    4    0    0 -0.14462900491E+01  0.76604003012E+01 -0.13805697779E+03  0.13827690553E+03  0.00000000000E+00 0. -1.
        -12    1    4    4    0    0  0.61736095247E+02  0.41181974568E+02 -0.94369394557E+02  0.12005366764E+03  0.00000000000E+00 0.  1.
<mgrwt>
<rscale>  2 0.26850239E+03</rscale>
<asrwt>0</asrwt>
<pdfrwt beam="1">  1       21 0.14159016E-01 0.26859508E+03</pdfrwt>
<pdfrwt beam="2">  1       21 0.12721366E+00 0.26859508E+03</pdfrwt>
<totfact> 0.19045631E+04</totfact>
</mgrwt>
</event>
<event>
12    1  0.1071811E-001  0.1958385E+03  0.7546771E-02  0.1153400E+00
         21   -1    0    0  503  502  0.00000000000E+00  0.00000000000E+00  0.65289670167E+03  0.65289670167E+03  0.00000000000E+00 0. -1.
         21   -1    0    0  501  503 -0.00000000000E+00 -0.00000000000E+00 -0.65644630817E+02  0.65644630817E+02  0.00000000000E+00 0.  1.
          6    2    1    2  501    0 -0.41292226913E+02 -0.79031298698E+02  0.41099154029E+03  0.45506364781E+03  0.17383291746E+03 0.  0.
         24    2    3    3    0    0  0.22180427652E+02 -0.97141411673E+02  0.25238447496E+03  0.28320601707E+03  0.81112882295E+02 0.  0.
         -6    2    1    2    0  502  0.41292226913E+02  0.79031298698E+02  0.17626053056E+03  0.26347768467E+03  0.17436089444E+03 0.  0.
        -24    2    5    5    0    0  0.82280913044E+02  0.23787734488E+02  0.70248360204E+02  0.13701585628E+03  0.80638128676E+02 0.  0.
          5    1    3    3  501    0 -0.63472654565E+02  0.18110112975E+02  0.15860706534E+03  0.17185763074E+03  0.47000000000E+01 0. -1.
        -11    1    4    4    0    0  0.29277887706E+02 -0.84453317479E+02  0.25333037262E+03  0.26863699528E+03  0.00000000000E+00 0.  1.
         12    1    4    4    0    0 -0.70974600541E+01 -0.12688094194E+02 -0.94589766580E+00  0.14569021789E+02  0.00000000000E+00 0. -1.
         -5    1    5    5    0  502 -0.40988686131E+02  0.55243564210E+02  0.10601217035E+03  0.12646182839E+03  0.47000000000E+01 0.  1.
         11    1    6    6    0    0  0.37134881687E+02 -0.68802034987E+01  0.73189617064E+02  0.82359314494E+02  0.00000000000E+00 0. -1.
        -12    1    6    6    0    0  0.45146031357E+02  0.30667937987E+02 -0.29412568598E+01  0.54656541782E+02  0.00000000000E+00 0.  1.
<mgrwt>
<rscale>  2 0.19572091E+03</rscale>
<asrwt>0</asrwt>
<pdfrwt beam="1">  1       21 0.10044564E+00 0.19583849E+03</pdfrwt>
<pdfrwt beam="2">  1       21 0.10099174E-01 0.19583849E+03</pdfrwt>
<totfact> 0.64679141E+04</totfact>
</mgrwt>
</event>
<event>
12    1  0.1071811E-001  0.2381252E+03  0.7546771E-02  0.1122341E+00
         21   -1    0    0  501  502  0.00000000000E+00  0.00000000000E+00  0.15201630887E+03  0.15201630887E+03  0.00000000000E+00 0.  1.
         21   -1    0    0  502  503 -0.00000000000E+00 -0.00000000000E+00 -0.80687091204E+03  0.80687091204E+03  0.00000000000E+00 0. -1.
         -6    2    1    2    0  503 -0.13445703812E+03  0.88505730613E+02 -0.68606434426E+03  0.72621478527E+03  0.17547555507E+03 0.  0.
        -24    2    3    3    0    0 -0.50596660280E+01  0.22792165800E+02 -0.15894096132E+03  0.17945788924E+03  0.79986385004E+02 0.  0.
          6    2    1    2  501    0  0.13445703812E+03 -0.88505730613E+02  0.31209741086E+02  0.23267243564E+03  0.16507711809E+03 0.  0.
         24    2    5    5    0    0  0.13446248382E+03 -0.11835868993E+03  0.87434795644E+01  0.19501580121E+03  0.76588349305E+02 0.  0.
          5    1    5    5  501    0 -0.54456995782E-02  0.29852959318E+02  0.22466261521E+02  0.37656634428E+02  0.47000000000E+01 0. -1.
        -11    1    6    6    0    0  0.27162905985E+02 -0.61957257487E+02  0.26197798087E+02  0.72545501870E+02  0.00000000000E+00 0.  1.
         12    1    6    6    0    0  0.10729957783E+03 -0.56401432444E+02 -0.17454318523E+02  0.12247029934E+03  0.00000000000E+00 0. -1.
         -5    1    3    3    0  503 -0.12939737209E+03  0.65713564813E+02 -0.52712338295E+03  0.54675689603E+03  0.47000000000E+01 0.  1.
         11    1    4    4    0    0 -0.38921804008E+02  0.29428743066E+02 -0.91032182297E+02  0.10328511974E+03  0.00000000000E+00 0. -1.
        -12    1    4    4    0    0  0.33862137980E+02 -0.66365772666E+01 -0.67908779018E+02  0.76172769506E+02  0.00000000000E+00 0.  1.
<mgrwt>
<rscale>  2 0.23621347E+03</rscale>
<asrwt>0</asrwt>
<pdfrwt beam="1">  1       21 0.23387124E-01 0.23812524E+03</pdfrwt>
<pdfrwt beam="2">  1       21 0.12413399E+00 0.23812524E+03</pdfrwt>
<totfact> 0.80859966E+03</totfact>
</mgrwt>
</event>
<event>
12    1  0.1071811E-001  0.1732478E+03  0.7546771E-02  0.1174601E+00
         21   -1    0    0  503  502  0.00000000000E+00  0.00000000000E+00  0.13501675597E+03  0.13501675597E+03  0.00000000000E+00 0. -1.
         21   -1    0    0  501  503 -0.00000000000E+00 -0.00000000000E+00 -0.12284348324E+04  0.12284348324E+04  0.00000000000E+00 0. -1.
          6    2    1    2  501    0 -0.88983430082E+01 -0.98864371409E+01 -0.11639351149E+04  0.11767581481E+04  0.17273640383E+03 0.  0.
         24    2    3    3    0    0 -0.32777036398E+02  0.14162654660E+02 -0.11067238510E+04  0.11100965434E+04  0.78751117403E+02 0.  0.
         -6    2    1    2    0  502  0.88983430082E+01  0.98864371409E+01  0.70517038470E+02  0.18669344030E+03  0.17235099590E+03 0.  0.
        -24    2    5    5    0    0 -0.18394108595E+02  0.17396243339E+02 -0.23651814901E+02  0.88249862301E+02  0.81164384644E+02 0.  0.
          5    1    3    3  501    0  0.23878693390E+02 -0.24049091801E+02 -0.57211263901E+02  0.66661604628E+02  0.47000000000E+01 0. -1.
        -11    1    4    4    0    0  0.20264235752E+02  0.24332347229E+02 -0.33916294405E+03  0.34063793827E+03  0.00000000000E+00 0.  1.
         12    1    4    4    0    0 -0.53041272150E+02 -0.10169692569E+02 -0.76756090695E+03  0.76945860518E+03  0.00000000000E+00 0. -1.
         -5    1    5    5    0  502  0.27292451603E+02 -0.75098061979E+01  0.94168853371E+02  0.98443577997E+02  0.47000000000E+01 0.  1.
         11    1    6    6    0    0 -0.69009815342E+01 -0.67324691085E+01  0.28261565208E+02  0.29860772838E+02  0.00000000000E+00 0. -1.
        -12    1    6    6    0    0 -0.11493127061E+02  0.24128712447E+02 -0.51913380109E+02  0.58389089463E+02  0.00000000000E+00 0.  1.
<mgrwt>
<rscale>  2 0.17315162E+03</rscale>
<asrwt>0</asrwt>
<pdfrwt beam="1">  1       21 0.20771810E-01 0.17324776E+03</pdfrwt>
<pdfrwt beam="2">  1       21 0.18898997E+00 0.17324776E+03</pdfrwt>
<totfact> 0.34719934E+03</totfact>
</mgrwt>
</event>
<event>
12    1  0.1071811E-001  0.1869945E+03  0.7546771E-02  0.1163902E+00
         21   -1    0    0  501  502  0.00000000000E+00  0.00000000000E+00  0.68268125093E+03  0.68268125093E+03  0.00000000000E+00 0. -1.
         21   -1    0    0  502  503 -0.00000000000E+00 -0.00000000000E+00 -0.48744376335E+02  0.48744376335E+02  0.00000000000E+00 0. -1.
         -6    2    1    2    0  503  0.16297462936E+02 -0.15958368767E+02  0.26711126808E+03  0.31968786364E+03  0.17415976513E+03 0.  0.
        -24    2    3    3    0    0  0.55698356072E+02 -0.40376748935E+02  0.24749106821E+03  0.26913363619E+03  0.80302531478E+02 0.  0.
          6    2    1    2  501    0 -0.16297462936E+02  0.15958368767E+02  0.36682560651E+03  0.41173776363E+03  0.18559817771E+03 0.  0.
         24    2    5    5    0    0  0.30126213725E+02 -0.50274735897E+02  0.15041126317E+03  0.18065500808E+03  0.81102071686E+02 0.  0.
          5    1    5    5  501    0 -0.46423676662E+02  0.66233104664E+02  0.21641434334E+03  0.23108275555E+03  0.47000000000E+01 0. -1.
        -13    1    6    6    0    0 -0.20288964621E+02 -0.10092055048E+02  0.88197783853E+02  0.91062290423E+02  0.00000000000E+00 0.  1.
         14    1    6    6    0    0  0.50415178346E+02 -0.40182680849E+02  0.62213479320E+02  0.89592717656E+02  0.00000000000E+00 0. -1.
         -5    1    3    3    0  503 -0.39400893136E+02  0.24418380168E+02  0.19620199872E+02  0.50554227449E+02  0.47000000000E+01 0.  1.
         13    1    4    4    0    0 -0.15474176345E+02 -0.18828700279E+02  0.26673452320E+02  0.36130916767E+02  0.00000000000E+00 0. -1.
        -14    1    4    4    0    0  0.71172532417E+02 -0.21548048656E+02  0.22081761589E+03  0.23300271942E+03  0.00000000000E+00 0.  1.
<mgrwt>
<rscale>  2 0.18409074E+03</rscale>
<asrwt>0</asrwt>
<pdfrwt beam="1">  1       21 0.10502788E+00 0.18699455E+03</pdfrwt>
<pdfrwt beam="2">  1       21 0.74991353E-02 0.18699455E+03</pdfrwt>
<totfact> 0.98267115E+04</totfact>
</mgrwt>
</event>
<event>
12    1  0.1071811E-001  0.2146907E+03  0.7546771E-02  0.1137966E+00
         21   -1    0    0  503  502  0.00000000000E+00  0.00000000000E+00  0.10911692909E+03  0.10911692909E+03  0.00000000000E+00 0.  1.
         21   -1    0    0  501  503 -0.00000000000E+00 -0.00000000000E+00 -0.77929998158E+03  0.77929998158E+03  0.00000000000E+00 0. -1.
          6    2    1    2  501    0  0.85936657518E+02  0.93263663363E+02 -0.63610014798E+03  0.67135348105E+03  0.17323070814E+03 0.  0.
         24    2    3    3    0    0  0.88359985168E+02  0.99639930452E+02 -0.64231258212E+03  0.66099907924E+03  0.81355558424E+02 0.  0.
         -6    2    1    2    0  502 -0.85936657518E+02 -0.93263663363E+02 -0.34082904505E+02  0.21706342963E+03  0.17283422141E+03 0.  0.
        -24    2    5    5    0    0  0.21358655445E+02 -0.48098187411E+02 -0.20606719181E+02  0.99777872234E+02  0.82227483955E+02 0.  0.
          5    1    3    3  501    0 -0.24233276503E+01 -0.63762670891E+01  0.62124341378E+01  0.10354401808E+02  0.47000000000E+01 0. -1.
        -13    1    4    4    0    0  0.30922566896E+02 -0.14342968971E+01 -0.63702412800E+02  0.70825558576E+02  0.00000000000E+00 0.  1.
         14    1    4    4    0    0  0.57437418272E+02  0.10107422735E+03 -0.57861016932E+03  0.59017352066E+03  0.00000000000E+00 0. -1.
         -5    1    5    5    0  502 -0.10729531296E+03 -0.45165475952E+02 -0.13476185323E+02  0.11728555739E+03  0.47000000000E+01 0.  1.
         13    1    6    6    0    0  0.17884551746E+02  0.35278413818E+01 -0.40444311139E+02  0.44362655009E+02  0.00000000000E+00 0. -1.
        -14    1    6    6    0    0  0.34741036988E+01 -0.51626028793E+02  0.19837591958E+02  0.55415217225E+02  0.00000000000E+00 0.  1.
<mgrwt>
<rscale>  2 0.21461071E+03</rscale>
<asrwt>0</asrwt>
<pdfrwt beam="1">  1       21 0.16787220E-01 0.21469070E+03</pdfrwt>
<pdfrwt beam="2">  1       21 0.11989230E+00 0.21469070E+03</pdfrwt>
<totfact> 0.16659797E+04</totfact>
</mgrwt>
</event>
<event>
12    1  0.1071811E-001  0.2341151E+03  0.7546771E-02  0.1124072E+00
         21   -1    0    0  501  502  0.00000000000E+00  0.00000000000E+00  0.38383459875E+03  0.38383459875E+03  0.00000000000E+00 0. -1.
         21   -1    0    0  502  503 -0.00000000000E+00 -0.00000000000E+00 -0.24661518575E+03  0.24661518575E+03  0.00000000000E+00 0.  1.
         -6    2    1    2    0  503  0.15347265542E+03  0.11564230258E+02 -0.13708670150E+03  0.26982016383E+03  0.17413376955E+03 0.  0.
        -24    2    3    3    0    0  0.18249987417E+03 -0.40378027220E+01 -0.11400904020E+03  0.22931496277E+03  0.79150382059E+02 0.  0.
          6    2    1    2  501    0 -0.15347265542E+03 -0.11564230258E+02  0.27430611450E+03  0.36062962067E+03  0.17641511123E+03 0.  0.
         24    2    5    5    0    0  0.23374426388E+01  0.15196045182E+02  0.84835693065E+02  0.11382194333E+03  0.74309868373E+02 0.  0.
          5    1    5    5  501    0 -0.15581009805E+03 -0.26760275440E+02  0.18947042144E+03  0.24680767735E+03  0.47000000000E+01 0. -1.
        -11    1    6    6    0    0 -0.17441205569E+02 -0.25337833071E+02  0.33078046827E+02  0.45170328959E+02  0.00000000000E+00 0.  1.
         12    1    6    6    0    0  0.19778648207E+02  0.40533878253E+02  0.51757646239E+02  0.68651614368E+02  0.00000000000E+00 0. -1.
         -5    1    3    3    0  503 -0.29027218754E+02  0.15602032980E+02 -0.23077661300E+02  0.40505201058E+02  0.47000000000E+01 0.  1.
         13    1    4    4    0    0 -0.61465682293E+01 -0.76163293737E+01 -0.94276922330E+01  0.13589339755E+02  0.00000000000E+00 0. -1.
        -14    1    4    4    0    0  0.18864644240E+03  0.35785266517E+01 -0.10458134796E+03  0.21572562301E+03  0.00000000000E+00 0.  1.
<mgrwt>
<rscale>  2 0.23368535E+03</rscale>
<asrwt>0</asrwt>
<pdfrwt beam="1">  1       21 0.59051477E-01 0.23411510E+03</pdfrwt>
<pdfrwt beam="2">  1       21 0.37940798E-01 0.23411510E+03</pdfrwt>
<totfact> 0.17535510E+04</totfact>
</mgrwt>
</event>
<event>
12    1  0.1071811E-001  0.2028640E+03  0.7546771E-02  0.1147886E+00
         21   -1    0    0  503  502  0.00000000000E+00  0.00000000000E+00  0.43736666366E+03  0.43736666366E+03  0.00000000000E+00 0.  1.
         21   -1    0    0  501  503 -0.00000000000E+00 -0.00000000000E+00 -0.10103109522E+03  0.10103109522E+03  0.00000000000E+00 0. -1.
          6    2    1    2  501    0 -0.10485793477E+03 -0.22826410606E+02  0.24356277624E+03  0.31532697790E+03  0.16909182570E+03 0.  0.
         24    2    3    3    0    0  0.24195542714E+01 -0.45880833135E+01  0.15508683982E+03  0.17500172158E+03  0.80912112308E+02 0.  0.
         -6    2    1    2    0  502  0.10485793477E+03  0.22826410606E+02  0.92772792204E+02  0.22307078099E+03  0.17215560070E+03 0.  0.
        -24    2    5    5    0    0  0.73354676071E+02 -0.14614806002E+02  0.12511809096E+03  0.16422684875E+03  0.75640069472E+02 0.  0.
          5    1    3    3  501    0 -0.10727748904E+03 -0.18238327293E+02  0.88475936417E+02  0.14032525632E+03  0.47000000000E+01 0. -1.
        -13    1    4    4    0    0 -0.36904511203E+02 -0.15815368136E+02  0.74364859372E+02  0.84511544335E+02  0.00000000000E+00 0.  1.
         14    1    4    4    0    0  0.39324065474E+02  0.11227284822E+02  0.80721980447E+02  0.90490177241E+02  0.00000000000E+00 0. -1.
         -5    1    5    5    0  502  0.31503258695E+02  0.37441216608E+02 -0.32345298755E+02  0.58843932237E+02  0.47000000000E+01 0.  1.
         13    1    6    6    0    0  0.41099164988E+02 -0.35542179650E+02  0.30998234288E+02  0.62556202138E+02  0.00000000000E+00 0. -1.
        -14    1    6    6    0    0  0.32255511083E+02  0.20927373648E+02  0.94119856672E+02  0.10167064661E+03  0.00000000000E+00 0.  1.
<mgrwt>
<rscale>  2 0.20221246E+03</rscale>
<asrwt>0</asrwt>
<pdfrwt beam="1">  1       21 0.67287178E-01 0.20286395E+03</pdfrwt>
<pdfrwt beam="2">  1       21 0.15543246E-01 0.20286395E+03</pdfrwt>
<totfact> 0.73962397E+04</totfact>
</mgrwt>
</event>
<event>
12    1  0.1071811E-001  0.2521837E+03  0.7546771E-02  0.1111946E+00
         21   -1    0    0  501  502  0.00000000000E+00  0.00000000000E+00  0.15306639320E+04  0.15306639320E+04  0.00000000000E+00 0. -1.
         21   -1    0    0  502  503 -0.00000000000E+00 -0.00000000000E+00 -0.48011450539E+02  0.48011450539E+02  0.00000000000E+00 0.  1.
         -6    2    1    2    0  503  0.18334062953E+03  0.35198974161E+01  0.45127845548E+03  0.51691787268E+03  0.17299036563E+03 0.  0.
        -24    2    3    3    0    0  0.11316125818E+03  0.68592041316E+02  0.30037450422E+03  0.33816211591E+03  0.81353766734E+02 0.  0.
          6    2    1    2  501    0 -0.18334062953E+03 -0.35198974161E+01  0.10313740260E+04  0.10617575099E+04  0.17311976248E+03 0.  0.
         24    2    5    5    0    0 -0.29092162109E+02  0.51163565333E+01  0.22721427843E+03  0.24287890825E+03  0.80568633801E+02 0.  0.
          5    1    5    5  501    0 -0.15424846742E+03 -0.86362539494E+01  0.80415974755E+03  0.81887860161E+03  0.47000000000E+01 0. -1.
        -11    1    6    6    0    0 -0.10654338411E+02  0.41878010276E+02  0.13872932451E+03  0.14530350358E+03  0.00000000000E+00 0.  1.
         12    1    6    6    0    0 -0.18437823697E+02 -0.36761653743E+02  0.88484953916E+02  0.97575404678E+02  0.00000000000E+00 0. -1.
         -5    1    3    3    0  503  0.70179371347E+02 -0.65072143900E+02  0.15090395125E+03  0.17875575677E+03  0.47000000000E+01 0.  1.
         13    1    4    4    0    0  0.46790384617E+02  0.35973519543E+02  0.22482047385E+03  0.23243855029E+03  0.00000000000E+00 0. -1.
        -14    1    4    4    0    0  0.66370873563E+02  0.32618521774E+02  0.75554030379E+02  0.10572356562E+03  0.00000000000E+00 0.  1.
<mgrwt>
<rscale>  2 0.25216151E+03</rscale>
<asrwt>0</asrwt>
<pdfrwt beam="1">  1       21 0.23548672E+00 0.25218372E+03</pdfrwt>
<pdfrwt beam="2">  1       21 0.73863782E-02 0.25218372E+03</pdfrwt>
<totfact> 0.10646312E+04</totfact>
</mgrwt>
</event>
<event>
12    1  0.1071811E-001  0.2023230E+03  0.7546771E-02  0.1147936E+00
         21   -1    0    0  501  502  0.00000000000E+00  0.00000000000E+00  0.82390368652E+03  0.82390368652E+03  0.00000000000E+00 0. -1.
         21   -1    0    0  502  503 -0.00000000000E+00 -0.00000000000E+00 -0.11926122900E+03  0.11926122900E+03  0.00000000000E+00 0. -1.
         -6    2    1    2    0  503  0.44068924954E+02  0.97023035277E+02 -0.80632554187E+01  0.20248361396E+03  0.17198563403E+03 0.  0.
        -24    2    3    3    0    0  0.72847399539E+02  0.10500127029E+03  0.29580303867E+02  0.15420338624E+03  0.81065896448E+02 0.  0.
          6    2    1    2  501    0 -0.44068924954E+02 -0.97023035277E+02  0.71270571294E+03  0.74068130156E+03  0.17118357892E+03 0.  0.
         24    2    5    5    0    0  0.37879675746E+02 -0.37207972431E+02  0.26383346905E+03  0.28046201009E+03  0.78940082759E+02 0.  0.
          5    1    5    5  501    0 -0.81948600699E+02 -0.59815062846E+02  0.44887224390E+03  0.46021929147E+03  0.47000000000E+01 0. -1.
        -13    1    6    6    0    0  0.67454972323E+01  0.84151963053E+01  0.17841823332E+03  0.17874390407E+03  0.00000000000E+00 0.  1.
         14    1    6    6    0    0  0.31134178513E+02 -0.45623168736E+02  0.85415235729E+02  0.10171810602E+03  0.00000000000E+00 0. -1.
         -5    1    3    3    0  503 -0.28778474585E+02 -0.79782350169E+01 -0.37643559286E+02  0.48280227725E+02  0.47000000000E+01 0.  1.
         11    1    4    4    0    0  0.53697104753E+02  0.26572605262E+02 -0.15299114682E+02  0.61834822869E+02  0.00000000000E+00 0. -1.
        -12    1    4    4    0    0  0.19150294786E+02  0.78428665032E+02  0.44879418549E+02  0.92368563366E+02  0.00000000000E+00 0.  1.
<mgrwt>
<rscale>  2 0.20215245E+03</rscale>
<asrwt>0</asrwt>
<pdfrwt beam="1">  1       21 0.12675441E+00 0.20232300E+03</pdfrwt>
<pdfrwt beam="2">  1       21 0.18347882E-01 0.20232300E+03</pdfrwt>
<totfact> 0.12398426E+04</totfact>
</mgrwt>
</event>
<event>
12    1  0.1071811E-001  0.1833206E+03  0.7546771E-02  0.1164865E+00
         21   -1    0    0  503  502  0.00000000000E+00  0.00000000000E+00  0.67237773793E+02  0.67237773793E+02  0.00000000000E+00 0. -1.
         21   -1    0    0  501  503 -0.00000000000E+00 -0.00000000000E+00 -0.73934796625E+03  0.73934796625E+03  0.00000000000E+00 0. -1.
          6    2    1    2  501    0 -0.31496443733E+02  0.51376927459E+02 -0.10458281469E+03  0.21018507724E+03  0.17207145877E+03 0.  0.
         24    2    3    3    0    0  0.43789504355E+02 -0.15733751415E+02 -0.72312111288E+02  0.10418835325E+03  0.58831113275E+02 0.  0.
         -6    2    1    2    0  502  0.31496443733E+02 -0.51376927459E+02 -0.56752737776E+03  0.59640066280E+03  0.17313235236E+03 0.  0.
        -24    2    5    5    0    0  0.23155070163E+02  0.35773363454E+02 -0.21477081534E+03  0.23291196414E+03  0.79407739618E+02 0.  0.
          5    1    3    3  501    0 -0.75285948089E+02  0.67110678874E+02 -0.32270703404E+02  0.10599672399E+03  0.47000000000E+01 0. -1.
        -13    1    4    4    0    0  0.46415800723E+01  0.10615227564E+02 -0.51195046910E+02  0.52489619449E+02  0.00000000000E+00 0.  1.
         14    1    4    4    0    0  0.39147924283E+02 -0.26348978978E+02 -0.21117064378E+02  0.51698733803E+02  0.00000000000E+00 0. -1.
         -5    1    5    5    0  502  0.83413735706E+01 -0.87150290913E+02 -0.35275656243E+03  0.36348869866E+03  0.47000000000E+01 0.  1.
         11    1    6    6    0    0 -0.14536528985E+02 -0.16575751232E+02 -0.87402069175E+02  0.90139824162E+02  0.00000000000E+00 0. -1.
        -12    1    6    6    0    0  0.37691599148E+02  0.52349114686E+02 -0.12736874616E+03  0.14277213998E+03  0.00000000000E+00 0.  1.
<mgrwt>
<rscale>  2 0.18306964E+03</rscale>
<asrwt>0</asrwt>
<pdfrwt beam="1">  1       21 0.10344272E-01 0.18332056E+03</pdfrwt>
<pdfrwt beam="2">  1       21 0.11374585E+00 0.18332056E+03</pdfrwt>
<totfact> 0.46244801E+04</totfact>
</mgrwt>
</event>
<event>
12    1  0.1071811E-001  0.2484313E+03  0.7546771E-02  0.1114745E+00
         21   -1    0    0  501  502  0.00000000000E+00  0.00000000000E+00  0.15378478503E+03  0.15378478503E+03  0.00000000000E+00 0.  1.
         21   -1    0    0  502  503 -0.00000000000E+00 -0.00000000000E+00 -0.58375757744E+03  0.58375757744E+03  0.00000000000E+00 0. -1.
         -6    2    1    2    0  503 -0.46496810288E+02 -0.16636677507E+03 -0.42282835039E+03  0.48900836012E+03  0.17465825248E+03 0.  0.
        -24    2    3    3    0    0  0.39892615310E+02 -0.60396140807E+02 -0.17190739164E+03  0.20321765747E+03  0.80660711791E+02 0.  0.
          6    2    1    2  501    0  0.46496810288E+02  0.16636677507E+03 -0.71444420166E+01  0.24853400235E+03  0.17854481246E+03 0.  0.
         24    2    5    5    0    0  0.15016910818E+02  0.19016033401E+03  0.37517504610E+01  0.20732800123E+03  0.81144095423E+02 0.  0.
          5    1    5    5  501    0  0.31479899470E+02 -0.23793558939E+02 -0.10896192478E+02  0.41206001118E+02  0.47000000000E+01 0. -1.
        -11    1    6    6    0    0  0.39941331068E+02  0.17123231519E+03  0.18974716414E+00  0.17582904111E+03  0.00000000000E+00 0.  1.
         12    1    6    6    0    0 -0.24924420250E+02  0.18928018812E+02  0.35620032968E+01  0.31498960117E+02  0.00000000000E+00 0. -1.
         -5    1    3    3    0  503 -0.86389425598E+02 -0.10597063426E+03 -0.25092095875E+03  0.28579070265E+03  0.47000000000E+01 0.  1.
         13    1    4    4    0    0  0.58276016658E+01 -0.49918958521E+02 -0.15653268265E+03  0.16440299298E+03  0.00000000000E+00 0. -1.
        -14    1    4    4    0    0  0.34065013644E+02 -0.10477182286E+02 -0.15374708983E+02  0.38814664491E+02  0.00000000000E+00 0.  1.
<mgrwt>
<rscale>  2 0.24773377E+03</rscale>
<asrwt>0</asrwt>
<pdfrwt beam="1">  1       21 0.23659198E-01 0.24843129E+03</pdfrwt>
<pdfrwt beam="2">  1       21 0.89808857E-01 0.24843129E+03</pdfrwt>
<totfact> 0.17199603E+04</totfact>
</mgrwt>
</event>
<event>
12    1  0.1071811E-001  0.1795845E+03  0.7546771E-02  0.1169010E+00
         21   -1    0    0  503  502  0.00000000000E+00  0.00000000000E+00  0.10070236387E+04  0.10070236387E+04  0.00000000000E+00 0.  1.
         21   -1    0    0  501  503 -0.00000000000E+00 -0.00000000000E+00 -0.64038337431E+02  0.64038337431E+02  0.00000000000E+00 0.  1.
          6    2    1    2  501    0  0.41366744536E+02  0.13169070766E+02  0.87296436890E+02  0.19673135710E+03  0.17087400913E+03 0.  0.
         24    2    3    3    0    0  0.51961431995E+02  0.25669560178E+02 -0.94195437524E+01  0.98524531731E+02  0.79116615281E+02 0.  0.
         -6    2    1    2    0  502 -0.41366744536E+02 -0.13169070766E+02  0.85568886440E+03  0.87433061905E+03  0.17425833343E+03 0.  0.
        -24    2    5    5    0    0  0.16679329396E+02 -0.44768585758E+02  0.68667709049E+03  0.69279564785E+03  0.78472649903E+02 0.  0.
          5    1    3    3  501    0 -0.10594687460E+02 -0.12500489413E+02  0.96715980642E+02  0.98206825371E+02  0.47000000000E+01 0. -1.
        -13    1    4    4    0    0  0.58945088989E+02  0.45406754874E+02 -0.16883097886E+02  0.76297679508E+02  0.00000000000E+00 0.  1.
         14    1    4    4    0    0 -0.69836569932E+01 -0.19737194695E+02  0.74635541334E+01  0.22226852223E+02  0.00000000000E+00 0. -1.
         -5    1    5    5    0  502 -0.58046073932E+02  0.31599514992E+02  0.16901177391E+03  0.18153497120E+03  0.47000000000E+01 0.  1.
         11    1    6    6    0    0  0.41120540013E+02 -0.28963935868E+01  0.24230837982E+03  0.24578982656E+03  0.00000000000E+00 0. -1.
        -12    1    6    6    0    0 -0.24441210617E+02 -0.41872192171E+02  0.44436871067E+03  0.44700582130E+03  0.00000000000E+00 0.  1.
<mgrwt>
<rscale>  2 0.17875832E+03</rscale>
<asrwt>0</asrwt>
<pdfrwt beam="1">  1       21 0.15492670E+00 0.17958452E+03</pdfrwt>
<pdfrwt beam="2">  1       21 0.98520526E-02 0.17958452E+03</pdfrwt>
<totfact> 0.23062238E+04</totfact>
</mgrwt>
</event>
<event>
12    1  0.1071811E-001  0.2373783E+03  0.7546771E-02  0.1121553E+00
         21   -1    0    0  503  502  0.00000000000E+00  0.00000000000E+00  0.62546354153E+03  0.62546354153E+03  0.00000000000E+00 0. -1.
         21   -1    0    0  501  503 -0.00000000000E+00 -0.00000000000E+00 -0.24459963075E+03  0.24459963075E+03  0.00000000000E+00 0. -1.
          6    2    1    2  501    0  0.10877048771E+03 -0.12071941499E+03 -0.15532819752E+03  0.28367554802E+03  0.17303401818E+03 0.  0.
         24    2    3    3    0    0  0.32393661419E+02 -0.54979440824E+01 -0.18821431244E+02  0.89341829405E+02  0.80920575369E+02 0.  0.
         -6    2    1    2    0  502 -0.10877048771E+03  0.12071941499E+03  0.53619210830E+03  0.58638762427E+03  0.17304413523E+03 0.  0.
        -24    2    5    5    0    0 -0.83923486051E+02  0.10045092257E+03  0.53251075167E+03  0.55377125318E+03  0.77209849406E+02 0.  0.
          5    1    3    3  501    0  0.76376826288E+02 -0.11522147091E+03 -0.13650676627E+03  0.19433371861E+03  0.47000000000E+01 0. -1.
        -13    1    4    4    0    0  0.47280806205E+02 -0.10188702760E+02  0.16193860148E+02  0.51005150778E+02  0.00000000000E+00 0.  1.
         14    1    4    4    0    0 -0.14887144786E+02  0.46907586781E+01 -0.35015291392E+02  0.38336678627E+02  0.00000000000E+00 0. -1.
         -5    1    5    5    0  502 -0.24847001657E+02  0.20268492418E+02  0.36813566269E+01  0.32616371086E+02  0.47000000000E+01 0.  1.
         11    1    6    6    0    0 -0.90674470700E+02  0.10485172889E+03  0.52410266492E+03  0.54212484546E+03  0.00000000000E+00 0. -1.
        -12    1    6    6    0    0  0.67509846491E+01 -0.44008063164E+01  0.84080867520E+01  0.11646407721E+02  0.00000000000E+00 0.  1.
<mgrwt>
<rscale>  2 0.23737648E+03</rscale>
<asrwt>0</asrwt>
<pdfrwt beam="1">  1       21 0.96225160E-01 0.23737832E+03</pdfrwt>
<pdfrwt beam="2">  1       21 0.37630713E-01 0.23737832E+03</pdfrwt>
<totfact> 0.59299995E+03</totfact>
</mgrwt>
</event>
<event>
12    1  0.1071811E-001  0.2829006E+03  0.7546771E-02  0.1094132E+00
         21   -1    0    0  503  502  0.00000000000E+00  0.00000000000E+00  0.58099995894E+02  0.58099995894E+02  0.00000000000E+00 0. -1.
         21   -1    0    0  501  503 -0.00000000000E+00 -0.00000000000E+00 -0.13818465363E+04  0.13818465363E+04  0.00000000000E+00 0.  1.
          6    2    1    2  501    0  0.16267775749E+03 -0.15420497484E+03 -0.61856221458E+03  0.68013228852E+03  0.17238761420E+03 0.  0.
         24    2    3    3    0    0  0.11097913193E+03 -0.40924867691E+02 -0.43715972856E+03  0.46005484193E+03  0.80935880742E+02 0.  0.
         -6    2    1    2    0  502 -0.16267775749E+03  0.15420497484E+03 -0.70518432579E+03  0.75981424364E+03  0.17259642073E+03 0.  0.
        -24    2    5    5    0    0 -0.19222657492E+02  0.37279421195E+02 -0.31727839118E+03  0.32999561338E+03  0.80450366908E+02 0.  0.
          5    1    3    3  501    0  0.51698625561E+02 -0.11328010715E+03 -0.18140248602E+03  0.22007744659E+03  0.47000000000E+01 0. -1.
        -13    1    4    4    0    0  0.41081754675E+02 -0.56884186534E+02 -0.18352284526E+03  0.19647940344E+03  0.00000000000E+00 0.  1.
         14    1    4    4    0    0  0.69897377258E+02  0.15959318842E+02 -0.25363688330E+03  0.26357543849E+03  0.00000000000E+00 0. -1.
         -5    1    5    5    0  502 -0.14345510000E+03  0.11692555365E+03 -0.38790593461E+03  0.42981863026E+03  0.47000000000E+01 0.  1.
         11    1    6    6    0    0 -0.54630860335E+01 -0.20171794585E+02 -0.17047952884E+03  0.17175568800E+03  0.00000000000E+00 0. -1.
        -12    1    6    6    0    0 -0.13759571459E+02  0.57451215780E+02 -0.14679886233E+03  0.15823992538E+03  0.00000000000E+00 0.  1.
<mgrwt>
<rscale>  2 0.28286876E+03</rscale>
<asrwt>0</asrwt>
<pdfrwt beam="1">  1       21 0.89384607E-02 0.28290060E+03</pdfrwt>
<pdfrwt beam="2">  1       21 0.21259178E+00 0.28290060E+03</pdfrwt>
<totfact> 0.10352428E+04</totfact>
</mgrwt>
</event>
<event>
12    1  0.1071811E-001  0.1998785E+03  0.7546771E-02  0.1150346E+00
         21   -1    0    0  503  502  0.00000000000E+00  0.00000000000E+00  0.73458390536E+03  0.73458390536E+03  0.00000000000E+00 0. -1.
         21   -1    0    0  501  503 -0.00000000000E+00 -0.00000000000E+00 -0.23011850069E+03  0.23011850069E+03  0.00000000000E+00 0. -1.
          6    2    1    2  501    0 -0.14010463350E+01 -0.10002856824E+03 -0.16970032113E+03  0.26220151224E+03  0.17304264397E+03 0.  0.
         24    2    3    3    0    0  0.12191281712E+02 -0.12727482601E+03 -0.17443756533E+03  0.23103034885E+03  0.81234532118E+02 0.  0.
         -6    2    1    2    0  502  0.14010463350E+01  0.10002856824E+03  0.67416572580E+03  0.70250089382E+03  0.17029504565E+03 0.  0.
        -24    2    5    5    0    0  0.61724379889E+02  0.74179500916E+02  0.37578318213E+03  0.39695006135E+03  0.83927670086E+02 0.  0.
          5    1    3    3  501    0 -0.13592328047E+02  0.27246257770E+02  0.47372441930E+01  0.31171163385E+02  0.47000000000E+01 0. -1.
        -13    1    4    4    0    0 -0.42609600022E+01 -0.53555766488E+02 -0.16898522769E+02  0.56319942969E+02  0.00000000000E+00 0.  1.
         14    1    4    4    0    0  0.16452241714E+02 -0.73719059521E+02 -0.15753904256E+03  0.17471040588E+03  0.00000000000E+00 0. -1.
         -5    1    5    5    0  502 -0.60323333554E+02  0.25849067322E+02  0.29838254367E+03  0.30555083247E+03  0.47000000000E+01 0.  1.
         13    1    6    6    0    0  0.68285899218E+02  0.27195163821E+02  0.28728089125E+03  0.29653473902E+03  0.00000000000E+00 0. -1.
        -14    1    6    6    0    0 -0.65615193281E+01  0.46984337095E+02  0.88502290874E+02  0.10041532233E+03  0.00000000000E+00 0.  1.
<mgrwt>
<rscale>  2 0.19928241E+03</rscale>
<asrwt>0</asrwt>
<pdfrwt beam="1">  1       21 0.11301291E+00 0.19987855E+03</pdfrwt>
<pdfrwt beam="2">  1       21 0.35402847E-01 0.19987855E+03</pdfrwt>
<totfact> 0.46778373E+03</totfact>
</mgrwt>
</event>
<event>
12    1  0.1071811E-001  0.2088071E+03  0.7546771E-02  0.1142624E+00
         21   -1    0    0  501  502  0.00000000000E+00  0.00000000000E+00  0.53473710607E+03  0.53473710607E+03  0.00000000000E+00 0.  1.
         21   -1    0    0  502  503 -0.00000000000E+00 -0.00000000000E+00 -0.11945632341E+03  0.11945632341E+03  0.00000000000E+00 0.  1.
         -6    2    1    2    0  503  0.12627975980E+02  0.11501473596E+03  0.23012547700E+02  0.21007135788E+03  0.17381755602E+03 0.  0.
        -24    2    3    3    0    0 -0.52951534934E+02  0.87316337103E+02  0.20777423698E+00  0.13517128282E+03  0.88561982538E+02 0.  0.
          6    2    1    2  501    0 -0.12627975980E+02 -0.11501473596E+03  0.39226823496E+03  0.44412207161E+03  0.17315366316E+03 0.  0.
         24    2    5    5    0    0 -0.32650547058E+02 -0.12227496972E+03  0.19601433330E+03  0.24665992773E+03  0.80014215278E+02 0.  0.
          5    1    5    5  501    0  0.20022571078E+02  0.72602337569E+01  0.19625390166E+03  0.19746214388E+03  0.47000000000E+01 0. -1.
        -11    1    6    6    0    0 -0.30252244876E+02 -0.23854273239E+02  0.16476648420E+02  0.41901129041E+02  0.00000000000E+00 0.  1.
         12    1    6    6    0    0 -0.23983021823E+01 -0.98420696483E+02  0.17953768488E+03  0.20475879869E+03  0.00000000000E+00 0. -1.
         -5    1    3    3    0  503  0.65579510914E+02  0.27698398862E+02  0.22804773463E+02  0.74900075060E+02  0.47000000000E+01 0.  1.
         13    1    4    4    0    0 -0.32837051206E+02  0.54048180498E+02  0.43673724648E+02  0.76856177186E+02  0.00000000000E+00 0. -1.
        -14    1    4    4    0    0 -0.20114483728E+02  0.33268156605E+02 -0.43465950411E+02  0.58315105630E+02  0.00000000000E+00 0.  1.
<mgrwt>
<rscale>  2 0.20866887E+03</rscale>
<asrwt>0</asrwt>
<pdfrwt beam="1">  1       21 0.82267246E-01 0.20880708E+03</pdfrwt>
<pdfrwt beam="2">  1       21 0.18377896E-01 0.20880708E+03</pdfrwt>
<totfact> 0.34574146E+04</totfact>
</mgrwt>
</event>
<event>
12    1  0.1071811E-001  0.1840171E+03  0.7546771E-02  0.1164000E+00
         21   -1    0    0  503  502  0.00000000000E+00  0.00000000000E+00  0.71603540037E+02  0.71603540037E+02  0.00000000000E+00 0. -1.
         21   -1    0    0  501  503 -0.00000000000E+00 -0.00000000000E+00 -0.50195377359E+03  0.50195377359E+03  0.00000000000E+00 0. -1.
          6    2    1    2  501    0 -0.50215537909E+02  0.37828365871E+02 -0.28445915695E+03  0.33872436719E+03  0.17281377098E+03 0.  0.
         24    2    3    3    0    0  0.30627463302E+02  0.32820568994E+02 -0.89788774892E+02  0.12782316632E+03  0.79129681506E+02 0.  0.
         -6    2    1    2    0  502  0.50215537909E+02 -0.37828365871E+02 -0.14589107660E+03  0.23483294644E+03  0.17294427134E+03 0.  0.
        -24    2    5    5    0    0 -0.13390275317E+02 -0.57200019595E+02 -0.13481827617E+03  0.16726329827E+03  0.79686270121E+02 0.  0.
          5    1    3    3  501    0 -0.80843001211E+02  0.50077968774E+01 -0.19467038206E+03  0.21090120086E+03  0.47000000000E+01 0. -1.
        -13    1    4    4    0    0 -0.11091722020E+02 -0.15952058505E+02 -0.46532092889E+02  0.50425490940E+02  0.00000000000E+00 0.  1.
         14    1    4    4    0    0  0.41719185322E+02  0.48772627498E+02 -0.43256682003E+02  0.77397675385E+02  0.00000000000E+00 0. -1.
         -5    1    5    5    0  502  0.63605813226E+02  0.19371653724E+02 -0.11072800437E+02  0.67569648168E+02  0.47000000000E+01 0.  1.
         11    1    6    6    0    0 -0.35243516721E+02 -0.21036760885E+02 -0.21523103305E+02  0.46345385480E+02  0.00000000000E+00 0. -1.
        -12    1    6    6    0    0  0.21853241404E+02 -0.36163258710E+02 -0.11329517286E+03  0.12091791279E+03  0.00000000000E+00 0.  1.
<mgrwt>
<rscale>  2 0.18398647E+03</rscale>
<asrwt>0</asrwt>
<pdfrwt beam="1">  1       21 0.11015929E-01 0.18401714E+03</pdfrwt>
<pdfrwt beam="2">  1       21 0.77223660E-01 0.18401714E+03</pdfrwt>
<totfact> 0.10214241E+05</totfact>
</mgrwt>
</event>
<event>
12    1  0.1071811E-001  0.2012811E+03  0.7546771E-02  0.1148844E+00
         21   -1    0    0  503  502  0.00000000000E+00  0.00000000000E+00  0.22895693134E+02  0.22895693134E+02  0.00000000000E+00 0.  1.
         21   -1    0    0  501  503 -0.00000000000E+00 -0.00000000000E+00 -0.20795526202E+04  0.20795526202E+04  0.00000000000E+00 0.  1.
          6    2    1    2  501    0  0.57038969996E+02  0.83453733449E+02 -0.14410518264E+04  0.14550410506E+04  0.17405781452E+03 0.  0.
         24    2    3    3    0    0  0.63423512071E+02 -0.15434841473E+02 -0.73211276111E+03  0.73919441833E+03  0.78476218602E+02 0.  0.
         -6    2    1    2    0  502 -0.57038969996E+02 -0.83453733449E+02 -0.61560510066E+03  0.64740726274E+03  0.17305650571E+03 0.  0.
        -24    2    5    5    0    0 -0.39610757817E+02 -0.18133940605E+02 -0.53125491619E+03  0.53920623901E+03  0.81324844128E+02 0.  0.
          5    1    3    3  501    0 -0.63845420747E+01  0.98888574922E+02 -0.70893906531E+03  0.71584663229E+03  0.47000000000E+01 0. -1.
        -11    1    4    4    0    0  0.50511212174E+02  0.19794383719E+02 -0.26037299365E+03  0.26596483979E+03  0.00000000000E+00 0.  1.
         12    1    4    4    0    0  0.12912299896E+02 -0.35229225191E+02 -0.47173976746E+03  0.47322957853E+03  0.00000000000E+00 0. -1.
         -5    1    5    5    0  502 -0.17428212179E+02 -0.65319792844E+02 -0.84350184470E+02  0.10820102373E+03  0.47000000000E+01 0.  1.
         11    1    6    6    0    0  0.24367183932E+02 -0.12347197340E+02 -0.12970512381E+03  0.13255048879E+03  0.00000000000E+00 0. -1.
        -12    1    6    6    0    0 -0.63977941749E+02 -0.57867432649E+01 -0.40154979238E+03  0.40665575022E+03  0.00000000000E+00 0.  1.
<mgrwt>
<rscale>  2 0.20106447E+03</rscale>
<asrwt>0</asrwt>
<pdfrwt beam="1">  1       21 0.35224145E-02 0.20128113E+03</pdfrwt>
<pdfrwt beam="2">  1       21 0.31993115E+00 0.20128113E+03</pdfrwt>
<totfact> 0.12578717E+04</totfact>
</mgrwt>
</event>
<event>
12    1  0.1071811E-001  0.2080152E+03  0.7546771E-02  0.1143461E+00
         21   -1    0    0  503  502  0.00000000000E+00  0.00000000000E+00  0.15709925536E+04  0.15709925536E+04  0.00000000000E+00 0. -1.
         21   -1    0    0  501  503 -0.00000000000E+00 -0.00000000000E+00 -0.47751406335E+02  0.47751406335E+02  0.00000000000E+00 0. -1.
          6    2    1    2  501    0  0.14082859743E+02  0.11356936665E+03  0.23077938069E+03  0.30964971240E+03  0.17183565945E+03 0.  0.
         24    2    3    3    0    0 -0.16901485874E+02  0.81588365440E+02  0.23972872581E+03  0.26398796813E+03  0.72646154327E+02 0.  0.
         -6    2    1    2    0  502 -0.14082859743E+02 -0.11356936665E+03  0.12924617666E+04  0.13090942476E+04  0.17370665759E+03 0.  0.
        -24    2    5    5    0    0 -0.53507584287E+02 -0.11761375167E+03  0.11878349638E+04  0.11971142323E+04  0.73719249641E+02 0.  0.
          5    1    3    3  501    0  0.30984345617E+02  0.31981001212E+02 -0.89493451199E+01  0.45661744272E+02  0.47000000000E+01 0. -1.
        -13    1    4    4    0    0  0.28456416295E+02  0.26042235326E+02  0.92584362043E+02  0.10029870260E+03  0.00000000000E+00 0.  1.
         14    1    4    4    0    0 -0.45357902169E+02  0.55546130113E+02  0.14714436377E+03  0.16368926552E+03  0.00000000000E+00 0. -1.
         -5    1    5    5    0  502  0.39424724544E+02  0.40443850227E+01  0.10462680280E+03  0.11198001527E+03  0.47000000000E+01 0.  1.
         11    1    6    6    0    0 -0.66151174204E+00 -0.88318122829E+02  0.71489548183E+03  0.72033053411E+03  0.00000000000E+00 0. -1.
        -12    1    6    6    0    0 -0.52846072545E+02 -0.29295628845E+02  0.47293948199E+03  0.47678369821E+03  0.00000000000E+00 0.  1.
<mgrwt>
<rscale>  2 0.20762416E+03</rscale>
<asrwt>0</asrwt>
<pdfrwt beam="1">  1       21 0.24169112E+00 0.20801522E+03</pdfrwt>
<pdfrwt beam="2">  1       21 0.73463714E-02 0.20801522E+03</pdfrwt>
<totfact> 0.10214691E+04</totfact>
</mgrwt>
</event>
<event>
12    1  0.1071811E-001  0.2025856E+03  0.7546771E-02  0.1147883E+00
         21   -1    0    0  503  502  0.00000000000E+00  0.00000000000E+00  0.77697771540E+03  0.77697771540E+03  0.00000000000E+00 0.  1.
         21   -1    0    0  501  503 -0.00000000000E+00 -0.00000000000E+00 -0.14726691499E+03  0.14726691499E+03  0.00000000000E+00 0.  1.
          6    2    1    2  501    0  0.47752793131E+02  0.91682013486E+02 -0.56384886487E+02  0.20886486566E+03  0.17250900218E+03 0.  0.
         24    2    3    3    0    0  0.30949184404E+02 -0.16604880552E+02 -0.41635282194E+02  0.98193941231E+02  0.81700546495E+02 0.  0.
         -6    2    1    2    0  502 -0.47752793131E+02 -0.91682013486E+02  0.68609568690E+03  0.71537976474E+03  0.17422685031E+03 0.  0.
        -24    2    5    5    0    0 -0.29497309601E+02 -0.19010536468E+02  0.14156612526E+03  0.16569900307E+03  0.78636505686E+02 0.  0.
          5    1    3    3  501    0  0.16803608728E+02  0.10828689404E+03 -0.14749604293E+02  0.11067092443E+03  0.47000000000E+01 0. -1.
        -13    1    4    4    0    0  0.24463683976E+02  0.29885439873E+02 -0.56185486409E+01  0.39027931522E+02  0.00000000000E+00 0.  1.
         14    1    4    4    0    0  0.64855004278E+01 -0.46490320425E+02 -0.36016733553E+02  0.59166009709E+02  0.00000000000E+00 0. -1.
         -5    1    5    5    0  502 -0.18255483531E+02 -0.72671477018E+02  0.54452956164E+03  0.54968076167E+03  0.47000000000E+01 0.  1.
         13    1    6    6    0    0 -0.47446771570E+01  0.12801474879E+02  0.11844840879E+03  0.11923260990E+03  0.00000000000E+00 0. -1.
        -14    1    6    6    0    0 -0.24752632444E+02 -0.31812011347E+02  0.23117716472E+02  0.46466393164E+02  0.00000000000E+00 0.  1.
<mgrwt>
<rscale>  2 0.20221570E+03</rscale>
<asrwt>0</asrwt>
<pdfrwt beam="1">  1       21 0.11953503E+00 0.20258558E+03</pdfrwt>
<pdfrwt beam="2">  1       21 0.22656449E-01 0.20258558E+03</pdfrwt>
<totfact> 0.96670403E+03</totfact>
</mgrwt>
</event>
<event>
12    1  0.1071811E-001  0.1932911E+03  0.7546771E-02  0.1156032E+00
         21   -1    0    0  503  502  0.00000000000E+00  0.00000000000E+00  0.13586833095E+04  0.13586833095E+04  0.00000000000E+00 0.  1.
         21   -1    0    0  501  503 -0.00000000000E+00 -0.00000000000E+00 -0.67103332324E+02  0.67103332324E+02  0.00000000000E+00 0.  1.
          6    2    1    2  501    0  0.31289876646E+02  0.67005563385E+02  0.97432233908E+02  0.21645896654E+03  0.17858511161E+03 0.  0.
         24    2    3    3    0    0 -0.15287612254E+02  0.30564219763E+02  0.12447757235E+03  0.15125947016E+03  0.78847185602E+02 0.  0.
         -6    2    1    2    0  502 -0.31289876646E+02 -0.67005563385E+02  0.11941477432E+04  0.12093276752E+04  0.17611300787E+03 0.  0.
        -24    2    5    5    0    0 -0.88551382622E+02 -0.45178273324E+02  0.96582912195E+03  0.97288150065E+03  0.61563769768E+02 0.  0.
          5    1    3    3  501    0  0.46577488900E+02  0.36441343622E+02 -0.27045338440E+02  0.65199496383E+02  0.47000000000E+01 0. -1.
        -13    1    4    4    0    0  0.16648277170E+02 -0.20063828948E+02  0.37086178747E+02  0.45333288198E+02  0.00000000000E+00 0.  1.
         14    1    4    4    0    0 -0.31935889424E+02  0.50628048711E+02  0.87391393601E+02  0.10592618196E+03  0.00000000000E+00 0. -1.
         -5    1    5    5    0  502  0.57261505976E+02 -0.21827290061E+02  0.22831862127E+03  0.23644617459E+03  0.47000000000E+01 0.  1.
         11    1    6    6    0    0 -0.11275544367E+02  0.13372742071E+02  0.88537113307E+02  0.90248482337E+02  0.00000000000E+00 0. -1.
        -12    1    6    6    0    0 -0.77275838255E+02 -0.58551015395E+02  0.87729200864E+03  0.88263301831E+03  0.00000000000E+00 0.  1.
<mgrwt>
<rscale>  2 0.19271812E+03</rscale>
<asrwt>0</asrwt>
<pdfrwt beam="1">  1       21 0.20902818E+00 0.19329109E+03</pdfrwt>
<pdfrwt beam="2">  1       21 0.10323591E-01 0.19329109E+03</pdfrwt>
<totfact> 0.90213711E+03</totfact>
</mgrwt>
</event>
<event>
12    1  0.1071811E-001  0.2062078E+03  0.7546771E-02  0.1144681E+00
         21   -1    0    0  503  502  0.00000000000E+00  0.00000000000E+00  0.76509678690E+02  0.76509678690E+02  0.00000000000E+00 0.  1.
         21   -1    0    0  501  503 -0.00000000000E+00 -0.00000000000E+00 -0.80677389625E+03  0.80677389625E+03  0.00000000000E+00 0.  1.
          6    2    1    2  501    0  0.36106667250E+01  0.10967661326E+03 -0.11852520978E+03  0.23784424171E+03  0.17458425345E+03 0.  0.
         24    2    3    3    0    0 -0.13108316431E+02 -0.12692116180E+02 -0.43603060979E+02  0.93313799514E+02  0.80456947993E+02 0.  0.
         -6    2    1    2    0  502 -0.36106667250E+01 -0.10967661326E+03 -0.61173900778E+03  0.64543933323E+03  0.17414167457E+03 0.  0.
        -24    2    5    5    0    0  0.20688084037E+02 -0.95775495383E+01 -0.41658825291E+03  0.42472195970E+03  0.79518829947E+02 0.  0.
          5    1    3    3  501    0  0.16718983156E+02  0.12236872944E+03 -0.74922148797E+02  0.14453044220E+03  0.47000000000E+01 0. -1.
        -13    1    4    4    0    0 -0.27069608893E+02  0.23195030814E+02 -0.41557697310E+02  0.54752309410E+02  0.00000000000E+00 0.  1.
         14    1    4    4    0    0  0.13961292462E+02 -0.35887146993E+02 -0.20453636697E+01  0.38561490104E+02  0.00000000000E+00 0. -1.
         -5    1    5    5    0  502 -0.24298750762E+02 -0.10009906372E+03 -0.19515075487E+03  0.22071737352E+03  0.47000000000E+01 0.  1.
         13    1    6    6    0    0  0.82490847715E+01  0.21527678475E+02 -0.36571750774E+02  0.43231716306E+02  0.00000000000E+00 0. -1.
        -14    1    6    6    0    0  0.12438999265E+02 -0.31105228013E+02 -0.38001650214E+03  0.38149024340E+03  0.00000000000E+00 0.  1.
<mgrwt>
<rscale>  2 0.20611410E+03</rscale>
<asrwt>0</asrwt>
<pdfrwt beam="1">  1       21 0.11770720E-01 0.20620780E+03</pdfrwt>
<pdfrwt beam="2">  1       21 0.12411906E+00 0.20620780E+03</pdfrwt>
<totfact> 0.29255104E+04</totfact>
</mgrwt>
</event>
<event>
12    1  0.1071811E-001  0.2594666E+03  0.7546771E-02  0.1107514E+00
         21   -1    0    0  503  502  0.00000000000E+00  0.00000000000E+00  0.14778686143E+03  0.14778686143E+03  0.00000000000E+00 0. -1.
         21   -1    0    0  501  503 -0.00000000000E+00 -0.00000000000E+00 -0.61662963716E+03  0.61662963716E+03  0.00000000000E+00 0. -1.
          6    2    1    2  501    0 -0.83653429143E+02 -0.17434715712E+03 -0.43001462152E+03  0.50206078203E+03  0.17250399046E+03 0.  0.
         24    2    3    3    0    0 -0.32988954304E+02 -0.14783249248E+02 -0.10583027665E+03  0.13717023794E+03  0.79428025003E+02 0.  0.
         -6    2    1    2    0  502  0.83653429143E+02  0.17434715712E+03 -0.38828154210E+02  0.26235571656E+03  0.17299730937E+03 0.  0.
        -24    2    5    5    0    0  0.20067563840E+02  0.17419633962E+03 -0.44398605274E+02  0.19835333428E+03  0.81398631526E+02 0.  0.
          5    1    3    3  501    0 -0.50664474839E+02 -0.15956390787E+03 -0.32418434487E+03  0.36489054409E+03  0.47000000000E+01 0. -1.
        -13    1    4    4    0    0  0.18980229870E+02  0.24579823781E+01 -0.13186874126E+01  0.19184101224E+02  0.00000000000E+00 0.  1.
         14    1    4    4    0    0 -0.51969184174E+02 -0.17241231626E+02 -0.10451158924E+03  0.11798613672E+03  0.00000000000E+00 0. -1.
         -5    1    5    5    0  502  0.63585865303E+02  0.15081749567E+00  0.55704510643E+01  0.64002382278E+02  0.47000000000E+01 0.  1.
         11    1    6    6    0    0  0.42784970120E+02  0.12166358562E+03 -0.53711860608E+01  0.12907916708E+03  0.00000000000E+00 0. -1.
        -12    1    6    6    0    0 -0.22717406280E+02  0.52532753999E+02 -0.39027419213E+02  0.69274167200E+02  0.00000000000E+00 0.  1.
<mgrwt>
<rscale>  2 0.25938436E+03</rscale>
<asrwt>0</asrwt>
<pdfrwt beam="1">  1       21 0.22736440E-01 0.25946656E+03</pdfrwt>
<pdfrwt beam="2">  1       21 0.94866099E-01 0.25946656E+03</pdfrwt>
<totfact> 0.16228061E+04</totfact>
</mgrwt>
</event>
<event>
12    1  0.1071811E-001  0.1799943E+03  0.7546771E-02  0.1168401E+00
         21   -1    0    0  503  502  0.00000000000E+00  0.00000000000E+00  0.73016638666E+02  0.73016638666E+02  0.00000000000E+00 0. -1.
         21   -1    0    0  501  503 -0.00000000000E+00 -0.00000000000E+00 -0.12341740128E+04  0.12341740128E+04  0.00000000000E+00 0. -1.
          6    2    1    2  501    0  0.41910730356E+02 -0.13148138787E+02 -0.11042206297E+04  0.11184057777E+04  0.17204331372E+03 0.  0.
         24    2    3    3    0    0  0.64974767268E+01 -0.31642017467E+02 -0.29624588223E+03  0.30943024993E+03  0.83318799549E+02 0.  0.
         -6    2    1    2    0  502 -0.41910730356E+02  0.13148138787E+02 -0.56936744461E+02  0.18878487374E+03  0.17455243570E+03 0.  0.
        -24    2    5    5    0    0 -0.58601010839E+01 -0.48368686646E+02 -0.69153278537E+02  0.11629141619E+03  0.79797537018E+02 0.  0.
          5    1    3    3  501    0  0.35413253629E+02  0.18493878680E+02 -0.80797474745E+03  0.80897552781E+03  0.47000000000E+01 0. -1.
        -11    1    4    4    0    0 -0.62978941095E+01 -0.58889250461E+02 -0.19232683389E+03  0.20123920672E+03  0.00000000000E+00 0.  1.
         12    1    4    4    0    0  0.12795370836E+02  0.27247232994E+02 -0.10391904835E+03  0.10819104321E+03  0.00000000000E+00 0. -1.
         -5    1    5    5    0  502 -0.36050629272E+02  0.61516825433E+02  0.12216534076E+02  0.72493457547E+02  0.47000000000E+01 0.  1.
         13    1    6    6    0    0 -0.39218665289E+02 -0.35266577857E+02 -0.22204195586E+02  0.57226405814E+02  0.00000000000E+00 0. -1.
        -14    1    6    6    0    0  0.33358564205E+02 -0.13102108789E+02 -0.46949082950E+02  0.59065010374E+02  0.00000000000E+00 0.  1.
<mgrwt>
<rscale>  2 0.17938311E+03</rscale>
<asrwt>0</asrwt>
<pdfrwt beam="1">  1       21 0.11233330E-01 0.17999427E+03</pdfrwt>
<pdfrwt beam="2">  1       21 0.18987292E+00 0.17999427E+03</pdfrwt>
<totfact> 0.10426564E+04</totfact>
</mgrwt>
</event>
<event>
12    1  0.1071811E-001  0.1803409E+03  0.7546771E-02  0.1167506E+00
         21   -1    0    0  503  502  0.00000000000E+00  0.00000000000E+00  0.65846909000E+02  0.65846909000E+02  0.00000000000E+00 0. -1.
         21   -1    0    0  501  503 -0.00000000000E+00 -0.00000000000E+00 -0.75310758185E+03  0.75310758185E+03  0.00000000000E+00 0. -1.
          6    2    1    2  501    0 -0.12365775567E+02 -0.47533857906E+02 -0.58410714054E+03  0.61131333347E+03  0.17352365832E+03 0.  0.
         24    2    3    3    0    0  0.56317649658E+02 -0.33034966070E+01 -0.32068466854E+03  0.33547420188E+03  0.80756998076E+02 0.  0.
         -6    2    1    2    0  502  0.12365775567E+02  0.47533857906E+02 -0.10315353231E+03  0.20764115738E+03  0.17338344488E+03 0.  0.
        -24    2    5    5    0    0  0.17992548046E+02  0.72323517498E+02 -0.86866633585E+01  0.10970103730E+03  0.80027723301E+02 0.  0.
          5    1    3    3  501    0 -0.68683425225E+02 -0.44230361299E+02 -0.26342247200E+03  0.27583913158E+03  0.47000000000E+01 0. -1.
        -11    1    4    4    0    0  0.28729940021E+02 -0.31279306870E+02 -0.25815355396E+03  0.26162389400E+03  0.00000000000E+00 0.  1.
         12    1    4    4    0    0  0.27587709638E+02  0.27975810263E+02 -0.62531114586E+02  0.73850307882E+02  0.00000000000E+00 0. -1.
         -5    1    5    5    0  502 -0.56267724786E+01 -0.24789659592E+02 -0.94466868956E+02  0.97940120081E+02  0.47000000000E+01 0.  1.
         13    1    6    6    0    0  0.43696767207E+02  0.67991862032E+02 -0.16497679088E+02  0.82489236766E+02  0.00000000000E+00 0. -1.
        -14    1    6    6    0    0 -0.25704219161E+02  0.43316554654E+01  0.78110157291E+01  0.27211800537E+02  0.00000000000E+00 0.  1.
<mgrwt>
<rscale>  2 0.18030716E+03</rscale>
<asrwt>0</asrwt>
<pdfrwt beam="1">  1       21 0.10130294E-01 0.18034090E+03</pdfrwt>
<pdfrwt beam="2">  1       21 0.11586270E+00 0.18034090E+03</pdfrwt>
<totfact> 0.45952445E+04</totfact>
</mgrwt>
</event>
<event>
12    1  0.1071811E-001  0.3290366E+03  0.7546771E-02  0.1071604E+00
         21   -1    0    0  503  502  0.00000000000E+00  0.00000000000E+00  0.23394542187E+03  0.23394542187E+03  0.00000000000E+00 0. -1.
         21   -1    0    0  501  503 -0.00000000000E+00 -0.00000000000E+00 -0.97092974362E+03  0.97092974362E+03  0.00000000000E+00 0.  1.
          6    2    1    2  501    0 -0.25786260663E+03 -0.10796668737E+03 -0.80443980390E+03  0.86899520085E+03  0.17285638987E+03 0.  0.
         24    2    3    3    0    0 -0.10376807116E+03  0.12791930582E+02 -0.25977416748E+03  0.29019427205E+03  0.76148876319E+02 0.  0.
         -6    2    1    2    0  502  0.25786260663E+03  0.10796668737E+03  0.67455482144E+02  0.33587996464E+03  0.17353725563E+03 0.  0.
        -24    2    5    5    0    0  0.19396410461E+03  0.13606359871E+02  0.64491127892E+02  0.22178453369E+03  0.84982744724E+02 0.  0.
          5    1    3    3  501    0 -0.15409453547E+03 -0.12075861796E+03 -0.54466563642E+03  0.57880092879E+03  0.47000000000E+01 0. -1.
        -13    1    4    4    0    0 -0.83577333097E+02  0.22840215758E+02 -0.11666462616E+03  0.14531855029E+03  0.00000000000E+00 0.  1.
         14    1    4    4    0    0 -0.20190738063E+02 -0.10048285176E+02 -0.14310954132E+03  0.14487572176E+03  0.00000000000E+00 0. -1.
         -5    1    5    5    0  502  0.63898502019E+02  0.94360327503E+02  0.29643542520E+01  0.11409543095E+03  0.47000000000E+01 0.  1.
         13    1    6    6    0    0  0.11338712983E+03  0.27207816782E+02  0.76108679621E+02  0.13924596087E+03  0.00000000000E+00 0. -1.
        -14    1    6    6    0    0  0.80576974781E+02 -0.13601456911E+02 -0.11617551729E+02  0.82538572819E+02  0.00000000000E+00 0.  1.
<mgrwt>
<rscale>  2 0.32894695E+03</rscale>
<asrwt>0</asrwt>
<pdfrwt beam="1">  1       21 0.35991603E-01 0.32903664E+03</pdfrwt>
<pdfrwt beam="2">  1       21 0.14937381E+00 0.32903664E+03</pdfrwt>
<totfact> 0.20369928E+03</totfact>
</mgrwt>
</event>
<event>
12    1  0.1071811E-001  0.1792876E+03  0.7546771E-02  0.1168553E+00
         21   -1    0    0  503  502  0.00000000000E+00  0.00000000000E+00  0.26866502851E+04  0.26866502851E+04  0.00000000000E+00 0.  1.
         21   -1    0    0  501  503 -0.00000000000E+00 -0.00000000000E+00 -0.24654027275E+03  0.24654027275E+03  0.00000000000E+00 0.  1.
          6    2    1    2  501    0  0.41880932912E+02 -0.17098299892E+02 -0.21060003194E+03  0.27642413989E+03  0.17323846934E+03 0.  0.
         24    2    3    3    0    0 -0.60263577654E+00 -0.18594613058E+02 -0.25807346078E+02  0.86746731351E+02  0.80702252037E+02 0.  0.
         -6    2    1    2    0  502 -0.41880932912E+02  0.17098299892E+02  0.26507100443E+04  0.26567664180E+04  0.17348687649E+03 0.  0.
        -24    2    5    5    0    0 -0.37180772536E+02 -0.85194708374E+01  0.63944753299E+03  0.64532978187E+03  0.78117787232E+02 0.  0.
          5    1    3    3  501    0  0.42483568689E+02  0.14963131664E+01 -0.18479268586E+03  0.18967740854E+03  0.47000000000E+01 0. -1.
        -13    1    4    4    0    0  0.25557570348E+01 -0.12872864584E+02 -0.55147415374E+02  0.56687564413E+02  0.00000000000E+00 0.  1.
         14    1    4    4    0    0 -0.31583928113E+01 -0.57217484740E+01  0.29340069296E+02  0.30059166939E+02  0.00000000000E+00 0. -1.
         -5    1    5    5    0  502 -0.47001603762E+01  0.25617770729E+02  0.20112625113E+04  0.20114366361E+04  0.47000000000E+01 0.  1.
         11    1    6    6    0    0 -0.52215670663E+02 -0.11406761365E+02  0.25322628869E+03  0.25880522358E+03  0.00000000000E+00 0. -1.
        -12    1    6    6    0    0  0.15034898127E+02  0.28872905275E+01  0.38622124430E+03  0.38652455829E+03  0.00000000000E+00 0.  1.
<mgrwt>
<rscale>  2 0.17922753E+03</rscale>
<asrwt>0</asrwt>
<pdfrwt beam="1">  1       21 0.41333079E+00 0.17928765E+03</pdfrwt>
<pdfrwt beam="2">  1       21 0.37929275E-01 0.17928765E+03</pdfrwt>
<totfact> 0.49507497E+01</totfact>
</mgrwt>
</event>
<event>
12    1  0.1071811E-001  0.1825416E+03  0.7546771E-02  0.1165560E+00
         21   -1    0    0  501  502  0.00000000000E+00  0.00000000000E+00  0.86146200952E+03  0.86146200952E+03  0.00000000000E+00 0. -1.
         21   -1    0    0  502  503 -0.00000000000E+00 -0.00000000000E+00 -0.43298551095E+02  0.43298551095E+02  0.00000000000E+00 0. -1.
         -6    2    1    2    0  503 -0.53227511187E+01  0.59782324684E+02  0.25941446699E+03  0.31720230619E+03  0.17239251534E+03 0.  0.
        -24    2    3    3    0    0  0.51352388065E+02  0.26164698956E+02  0.83820156060E+02  0.12959189019E+03  0.80290598515E+02 0.  0.
          6    2    1    2  501    0  0.53227511187E+01 -0.59782324684E+02  0.55874899144E+03  0.58755825443E+03  0.17152844921E+03 0.  0.
         24    2    5    5    0    0 -0.48578822622E+02  0.11288346860E+02  0.28927674603E+03  0.30366778074E+03  0.77754462783E+02 0.  0.
          5    1    5    5  501    0  0.53901573741E+02 -0.71070671544E+02  0.26947224541E+03  0.28389047369E+03  0.47000000000E+01 0. -1.
        -11    1    6    6    0    0 -0.55705103031E+01  0.18401969658E+02  0.22607050007E+03  0.22688661061E+03  0.00000000000E+00 0.  1.
         12    1    6    6    0    0 -0.43008312319E+02 -0.71136227988E+01  0.63206245959E+02  0.76781170127E+02  0.00000000000E+00 0. -1.
         -5    1    3    3    0  503 -0.56675139183E+02  0.33617625728E+02  0.17559431093E+03  0.18761041600E+03  0.47000000000E+01 0.  1.
         11    1    4    4    0    0  0.70322607487E+02  0.34215396419E+02  0.67437822502E+02  0.10326578514E+03  0.00000000000E+00 0. -1.
        -12    1    4    4    0    0 -0.18970219422E+02 -0.80506974628E+01  0.16382333558E+02  0.26326105055E+02  0.00000000000E+00 0.  1.
<mgrwt>
<rscale>  2 0.18233731E+03</rscale>
<asrwt>0</asrwt>
<pdfrwt beam="1">  1       21 0.13253260E+00 0.18254160E+03</pdfrwt>
<pdfrwt beam="2">  1       21 0.66613162E-02 0.18254160E+03</pdfrwt>
<totfact> 0.68173219E+04</totfact>
</mgrwt>
</event>
<event>
12    1  0.1071811E-001  0.2150250E+03  0.7546771E-02  0.1138344E+00
         21   -1    0    0  501  502  0.00000000000E+00  0.00000000000E+00  0.57592846558E+02  0.57592846558E+02  0.00000000000E+00 0. -1.
         21   -1    0    0  502  503 -0.00000000000E+00 -0.00000000000E+00 -0.13943858644E+04  0.13943858644E+04  0.00000000000E+00 0. -1.
         -6    2    1    2    0  503 -0.10759390505E+03  0.57337268595E+02 -0.11433847131E+04  0.11627685243E+04  0.17273687532E+03 0.  0.
        -24    2    3    3    0    0 -0.15559516544E+02  0.36154276645E+02 -0.79847745069E+03  0.80513441308E+03  0.95529857114E+02 0.  0.
          6    2    1    2  501    0  0.10759390505E+03 -0.57337268595E+02 -0.19340830470E+03  0.28921018666E+03  0.17712071862E+03 0.  0.
         24    2    5    5    0    0  0.97858772082E+02  0.53986117430E+01 -0.18561451727E+03  0.22507441958E+03  0.81241990661E+02 0.  0.
          5    1    5    5  501    0  0.97351329720E+01 -0.62735880338E+02 -0.77937874344E+01  0.64135767075E+02  0.47000000000E+01 0. -1.
        -11    1    6    6    0    0 -0.17259630395E-01  0.20358145444E+02 -0.69782465954E+02  0.72691450243E+02  0.00000000000E+00 0.  1.
         12    1    6    6    0    0  0.97876031712E+02 -0.14959533701E+02 -0.11583205132E+03  0.15238296934E+03  0.00000000000E+00 0. -1.
         -5    1    3    3    0  503 -0.92034388510E+02  0.21182991950E+02 -0.34490726246E+03  0.35763411123E+03  0.47000000000E+01 0.  1.
         13    1    4    4    0    0 -0.34537737617E+02 -0.18630121368E+02 -0.46513345986E+03  0.46678589548E+03  0.00000000000E+00 0. -1.
        -14    1    4    4    0    0  0.18978221073E+02  0.54784398013E+02 -0.33334399083E+03  0.33834851760E+03  0.00000000000E+00 0.  1.
<mgrwt>
<rscale>  2 0.21412021E+03</rscale>
<asrwt>0</asrwt>
<pdfrwt beam="1">  1       21 0.88604381E-02 0.21502502E+03</pdfrwt>
<pdfrwt beam="2">  1       21 0.21452090E+00 0.21502502E+03</pdfrwt>
<totfact> 0.10714882E+04</totfact>
</mgrwt>
</event>
<event>
12    1  0.1071811E-001  0.2922668E+03  0.7546771E-02  0.1089256E+00
         21   -1    0    0  503  502  0.00000000000E+00  0.00000000000E+00  0.48257581613E+03  0.48257581613E+03  0.00000000000E+00 0.  1.
         21   -1    0    0  501  503 -0.00000000000E+00 -0.00000000000E+00 -0.17990735849E+03  0.17990735849E+03  0.00000000000E+00 0. -1.
          6    2    1    2  501    0 -0.23508820400E+03  0.23850383364E+02  0.10632829176E+03  0.31039037989E+03  0.17088352131E+03 0.  0.
         24    2    3    3    0    0 -0.12622264019E+03  0.63471580687E+02  0.10675062537E+03  0.19444289770E+03  0.80321528861E+02 0.  0.
         -6    2    1    2    0  502  0.23508820400E+03 -0.23850383364E+02  0.19634016589E+03  0.35209279473E+03  0.17200165962E+03 0.  0.
        -24    2    5    5    0    0  0.18765126490E+03 -0.59532386720E+02  0.91681447911E+02  0.23168097719E+03  0.80706164651E+02 0.  0.
          5    1    3    3  501    0 -0.10886556381E+03 -0.39621197323E+02 -0.42233361102E+00  0.11594748219E+03  0.47000000000E+01 0. -1.
        -11    1    4    4    0    0 -0.13476712143E+03  0.48428032885E+02  0.10386051141E+03  0.17690239461E+03  0.00000000000E+00 0.  1.
         12    1    4    4    0    0  0.85444812405E+01  0.15043547802E+02  0.28901139638E+01  0.17540503096E+02  0.00000000000E+00 0. -1.
         -5    1    5    5    0  502  0.47436939101E+02  0.35682003356E+02  0.10465871798E+03  0.12041181754E+03  0.47000000000E+01 0.  1.
         11    1    6    6    0    0  0.16386566262E+03 -0.26399305680E+02  0.94145410078E+02  0.19081990715E+03  0.00000000000E+00 0. -1.
        -12    1    6    6    0    0  0.23785602281E+02 -0.33133081041E+02 -0.24639621667E+01  0.40861070038E+02  0.00000000000E+00 0.  1.
<mgrwt>
<rscale>  2 0.29210249E+03</rscale>
<asrwt>0</asrwt>
<pdfrwt beam="1">  1       21 0.74242433E-01 0.29226679E+03</pdfrwt>
<pdfrwt beam="2">  1       21 0.27678055E-01 0.29226679E+03</pdfrwt>
<totfact> 0.19261056E+04</totfact>
</mgrwt>
</event>
<event>
12    1  0.1071811E-001  0.2457439E+03  0.7546771E-02  0.1117106E+00
         21   -1    0    0  503  502  0.00000000000E+00  0.00000000000E+00  0.11296577255E+03  0.11296577255E+03  0.00000000000E+00 0.  1.
         21   -1    0    0  501  503 -0.00000000000E+00 -0.00000000000E+00 -0.59638008821E+03  0.59638008821E+03  0.00000000000E+00 0. -1.
          6    2    1    2  501    0 -0.17234020221E+03 -0.40976731910E+00 -0.11793468446E+03  0.27257775073E+03  0.17518198306E+03 0.  0.
         24    2    3    3    0    0 -0.12199594178E+03  0.64674846961E+02 -0.55221752411E+02  0.16901350294E+03  0.80313614020E+02 0.  0.
         -6    2    1    2    0  502  0.17234020221E+03  0.40976731910E+00 -0.36547963120E+03  0.43676811003E+03  0.16580020480E+03 0.  0.
        -24    2    5    5    0    0  0.12194838035E+03  0.46640142131E+02 -0.16706131234E+03  0.22684311742E+03  0.80632546224E+02 0.  0.
          5    1    3    3  501    0 -0.50344260428E+02 -0.65084614280E+02 -0.62712932052E+02  0.10356424779E+03  0.47000000000E+01 0. -1.
        -11    1    4    4    0    0 -0.92465264686E+02  0.49425862889E+02 -0.33301915215E+00  0.10484680251E+03  0.00000000000E+00 0.  1.
         12    1    4    4    0    0 -0.29530677094E+02  0.15248984072E+02 -0.54888733259E+02  0.64166700426E+02  0.00000000000E+00 0. -1.
         -5    1    5    5    0  502  0.50391821862E+02 -0.46230374812E+02 -0.19841831885E+03  0.20992499261E+03  0.47000000000E+01 0.  1.
         13    1    6    6    0    0  0.13174869608E+03  0.46535927372E+02 -0.13887507089E+03  0.19700151464E+03  0.00000000000E+00 0. -1.
        -14    1    6    6    0    0 -0.98003157329E+01  0.10421475851E+00 -0.28186241452E+02  0.29841602778E+02  0.00000000000E+00 0.  1.
<mgrwt>
<rscale>  2 0.24407763E+03</rscale>
<asrwt>0</asrwt>
<pdfrwt beam="1">  1       21 0.17379350E-01 0.24574385E+03</pdfrwt>
<pdfrwt beam="2">  1       21 0.91750781E-01 0.24574385E+03</pdfrwt>
<totfact> 0.29270384E+04</totfact>
</mgrwt>
</event>
<event>
12    1  0.1071811E-001  0.1903498E+03  0.7546771E-02  0.1158163E+00
         21   -1    0    0  501  502  0.00000000000E+00  0.00000000000E+00  0.45016029461E+02  0.45016029461E+02  0.00000000000E+00 0. -1.
         21   -1    0    0  502  503 -0.00000000000E+00 -0.00000000000E+00 -0.80459028452E+03  0.80459028452E+03  0.00000000000E+00 0. -1.
         -6    2    1    2    0  503  0.22630409789E+02 -0.75944470069E+02 -0.37778666616E+03  0.42303168058E+03  0.17307033155E+03 0.  0.
        -24    2    3    3    0    0  0.64457512038E+02 -0.88538460932E+02 -0.33702521626E+03  0.36310087976E+03  0.79135469721E+02 0.  0.
          6    2    1    2  501    0 -0.22630409789E+02  0.75944470069E+02 -0.38178758890E+03  0.42657463341E+03  0.17298686900E+03 0.  0.
         24    2    5    5    0    0  0.48495793054E+01 -0.69198256900E+01 -0.28501867437E+03  0.29616008617E+03  0.80023430886E+02 0.  0.
          5    1    5    5  501    0 -0.27479989095E+02  0.82864295759E+02 -0.96768914528E+02  0.13041454724E+03  0.47000000000E+01 0. -1.
        -11    1    6    6    0    0  0.94048481082E+01 -0.74866363238E+01 -0.95435204306E+00  0.12058676511E+02  0.00000000000E+00 0.  1.
         12    1    6    6    0    0 -0.45552688028E+01  0.56681063387E+00 -0.28406432233E+03  0.28410140966E+03  0.00000000000E+00 0. -1.
         -5    1    3    3    0  503 -0.41827102248E+02  0.12593990863E+02 -0.40761449905E+02  0.59930800818E+02  0.47000000000E+01 0.  1.
         11    1    4    4    0    0  0.54049151602E+02 -0.49299425155E+02 -0.10761106236E+03  0.13012257626E+03  0.00000000000E+00 0. -1.
        -12    1    4    4    0    0  0.10408360436E+02 -0.39239035778E+02 -0.22941415389E+03  0.23297830350E+03  0.00000000000E+00 0.  1.
<mgrwt>
<rscale>  2 0.19033080E+03</rscale>
<asrwt>0</asrwt>
<pdfrwt beam="1">  1       21 0.69255435E-02 0.19034978E+03</pdfrwt>
<pdfrwt beam="2">  1       21 0.12378311E+00 0.19034978E+03</pdfrwt>
<totfact> 0.75405380E+04</totfact>
</mgrwt>
</event>
<event>
11    1  0.1071811E-001  0.2444459E+03  0.7546771E-02  0.1116908E+00
         21   -1    0    0  503  502  0.00000000000E+00  0.00000000000E+00  0.66964132489E+03  0.66964132489E+03  0.00000000000E+00 0. -1.
         21   -1    0    0  501  503 -0.00000000000E+00 -0.00000000000E+00 -0.90907683221E+02  0.90907683221E+02  0.00000000000E+00 0. -1.
          6    2    1    2  501    0 -0.25106283826E+02  0.17067310045E+03  0.23646739205E+03  0.34010382508E+03  0.17318819714E+03 0.  0.
         -6    2    1    2    0  502  0.25106283826E+02 -0.17067310045E+03  0.34226624961E+03  0.42044518302E+03  0.17282457464E+03 0.  0.
        -24    2    4    4    0    0 -0.20619517760E+02 -0.16268173042E+03  0.32133138386E+03  0.36930743249E+03  0.79016526843E+02 0.  0.
          5    1    3    3  501    0  0.56438692786E+02  0.97655026874E+02  0.59649809391E+02  0.12767936434E+03  0.47000000000E+01 0. -1.
        -13    1    3    3    0    0 -0.44466691769E+02  0.19516018580E+02  0.49003968656E+02  0.68989496318E+02  0.00000000000E+00 0.  1.
         14    1    3    3    0    0 -0.37078284843E+02  0.53502054996E+02  0.12781361401E+03  0.14343496443E+03  0.00000000000E+00 0. -1.
         -5    1    4    4    0  502  0.45725801586E+02 -0.79913700312E+01  0.20934865756E+02  0.51137750536E+02  0.47000000000E+01 0.  1.
         11    1    5    5    0    0 -0.10219823511E+02 -0.86379639371E+02  0.88574704528E+02  0.12414251960E+03  0.00000000000E+00 0. -1.
        -12    1    5    5    0    0 -0.10399694249E+02 -0.76302091047E+02  0.23275667933E+03  0.24516491289E+03  0.00000000000E+00 0.  1.
<mgrwt>
<rscale>  2 0.24438147E+03</rscale>
<asrwt>0</asrwt>
<pdfrwt beam="1">  1       21 0.10302174E+00 0.24444587E+03</pdfrwt>
<pdfrwt beam="2">  1       21 0.13985798E-01 0.24444587E+03</pdfrwt>
<totfact> 0.33160395E+04</totfact>
</mgrwt>
</event>
<event>
12    1  0.1071811E-001  0.1808666E+03  0.7546771E-02  0.1168466E+00
         21   -1    0    0  501  502  0.00000000000E+00  0.00000000000E+00  0.23586686595E+03  0.23586686595E+03  0.00000000000E+00 0.  1.
         21   -1    0    0  502  503 -0.00000000000E+00 -0.00000000000E+00 -0.14024354623E+03  0.14024354623E+03  0.00000000000E+00 0.  1.
         -6    2    1    2    0  503 -0.91119841661E+01  0.24830950845E+02  0.90490521223E+01  0.18109279392E+03  0.17892207882E+03 0.  0.
        -24    2    3    3    0    0  0.35502046327E+02  0.65999747845E+02 -0.23171223933E+02  0.11220507548E+03  0.80229117752E+02 0.  0.
          6    2    1    2  501    0  0.91119841661E+01 -0.24830950845E+02  0.86574267601E+02  0.19501761826E+03  0.17273437193E+03 0.  0.
         24    2    5    5    0    0 -0.13663388985E+02 -0.69643544624E+02  0.16999719644E+02  0.10905487106E+03  0.81037416832E+02 0.  0.
          5    1    5    5  501    0  0.22775373151E+02  0.44812593779E+02  0.69574547958E+02  0.85962747204E+02  0.47000000000E+01 0. -1.
        -11    1    6    6    0    0  0.25208595443E+02 -0.24528314214E+02  0.32099947896E+02  0.47618464248E+02  0.00000000000E+00 0.  1.
         12    1    6    6    0    0 -0.38871984428E+02 -0.45115230410E+02 -0.15100228253E+02  0.61436406809E+02  0.00000000000E+00 0. -1.
         -5    1    3    3    0  503 -0.44614030494E+02 -0.41168797000E+02  0.32220276055E+02  0.68887718444E+02  0.47000000000E+01 0.  1.
         11    1    4    4    0    0 -0.22239801109E+02  0.15376294041E+02  0.96305910451E+01  0.28701697784E+02  0.00000000000E+00 0. -1.
        -12    1    4    4    0    0  0.57741847436E+02  0.50623453804E+02 -0.32801814978E+02  0.83503377694E+02  0.00000000000E+00 0.  1.
<mgrwt>
<rscale>  2 0.17931706E+03</rscale>
<asrwt>0</asrwt>
<pdfrwt beam="1">  1       21 0.36287210E-01 0.18086657E+03</pdfrwt>
<pdfrwt beam="2">  1       21 0.21575930E-01 0.18086657E+03</pdfrwt>
<totfact> 0.14721068E+05</totfact>
</mgrwt>
</event>
<event>
12    1  0.1071811E-001  0.2037341E+03  0.7546771E-02  0.1146753E+00
         21   -1    0    0  501  502  0.00000000000E+00  0.00000000000E+00  0.12127923185E+03  0.12127923185E+03  0.00000000000E+00 0. -1.
         21   -1    0    0  502  503 -0.00000000000E+00 -0.00000000000E+00 -0.60232203307E+03  0.60232203307E+03  0.00000000000E+00 0. -1.
         -6    2    1    2    0  503  0.10004273815E+03  0.34523481108E+02 -0.47852725785E+03  0.51985167750E+03  0.17336957601E+03 0.  0.
        -24    2    3    3    0    0  0.68656352002E+02  0.78901667889E+02 -0.23298208581E+03  0.26831827970E+03  0.82309653406E+02 0.  0.
          6    2    1    2  501    0 -0.10004273815E+03 -0.34523481108E+02 -0.25155433657E+01  0.20374958742E+03  0.17408947759E+03 0.  0.
         24    2    5    5    0    0  0.76080374629E+00 -0.44788943269E+02  0.30766097720E+02  0.96995236656E+02  0.80342360579E+02 0.  0.
          5    1    5    5  501    0 -0.10080354190E+03  0.10265462161E+02 -0.33281641086E+02  0.10675435076E+03  0.47000000000E+01 0. -1.
        -11    1    6    6    0    0  0.30383863391E+02 -0.90611911761E+01 -0.11984123183E+02  0.33895479766E+02  0.00000000000E+00 0.  1.
         12    1    6    6    0    0 -0.29623059644E+02 -0.35727752093E+02  0.42750220903E+02  0.63099756890E+02  0.00000000000E+00 0. -1.
         -5    1    3    3    0  503  0.31386386151E+02 -0.44378186781E+02 -0.24554517204E+03  0.25153339780E+03  0.47000000000E+01 0.  1.
         13    1    4    4    0    0 -0.46479327635E+01  0.44605501840E+02 -0.12887116124E+03  0.13645156750E+03  0.00000000000E+00 0. -1.
        -14    1    4    4    0    0  0.73304284765E+02  0.34296166048E+02 -0.10411092457E+03  0.13186671220E+03  0.00000000000E+00 0.  1.
<mgrwt>
<rscale>  2 0.20358018E+03</rscale>
<asrwt>0</asrwt>
<pdfrwt beam="1">  1       21 0.18658343E-01 0.20373406E+03</pdfrwt>
<pdfrwt beam="2">  1       21 0.92664929E-01 0.20373406E+03</pdfrwt>
<totfact> 0.25622944E+04</totfact>
</mgrwt>
</event>
<event>
12    1  0.1071811E-001  0.1746352E+03  0.7546771E-02  0.1174186E+00
         21   -1    0    0  503  502  0.00000000000E+00  0.00000000000E+00  0.15707053791E+03  0.15707053791E+03  0.00000000000E+00 0. -1.
         21   -1    0    0  501  503 -0.00000000000E+00 -0.00000000000E+00 -0.26477657491E+03  0.26477657491E+03  0.00000000000E+00 0. -1.
          6    2    1    2  501    0 -0.22528322739E+02 -0.93092187970E+01 -0.16587067834E+03  0.23778035650E+03  0.16861859069E+03 0.  0.
         24    2    3    3    0    0 -0.85505188711E+01  0.54745374171E+02 -0.64766813593E+02  0.11718826992E+03  0.80425015370E+02 0.  0.
         -6    2    1    2    0  502  0.22528322739E+02  0.93092187970E+01  0.58164641345E+02  0.18406675632E+03  0.17292558630E+03 0.  0.
        -24    2    5    5    0    0  0.14999715088E+02 -0.56484765322E+02  0.61604037697E+01  0.99733731911E+02  0.80581303912E+02 0.  0.
          5    1    3    3  501    0 -0.13977803868E+02 -0.64054592968E+02 -0.10110386474E+03  0.12059208659E+03  0.47000000000E+01 0. -1.
        -11    1    4    4    0    0 -0.13686708257E+02 -0.76590782946E+01  0.10805706209E+02  0.19046016642E+02  0.00000000000E+00 0.  1.
         12    1    4    4    0    0  0.51361893863E+01  0.62404452465E+02 -0.75572519802E+02  0.98142253276E+02  0.00000000000E+00 0. -1.
         -5    1    5    5    0  502  0.75286076518E+01  0.65793984119E+02  0.52004237575E+02  0.84333024404E+02  0.47000000000E+01 0.  1.
         13    1    6    6    0    0  0.19331649604E+02 -0.24711729489E+02  0.41492612250E+02  0.52019411012E+02  0.00000000000E+00 0. -1.
        -14    1    6    6    0    0 -0.43319345165E+01 -0.31773035833E+02 -0.35332208480E+02  0.47714320899E+02  0.00000000000E+00 0.  1.
<mgrwt>
<rscale>  2 0.17355933E+03</rscale>
<asrwt>0</asrwt>
<pdfrwt beam="1">  1       21 0.24164698E-01 0.17463518E+03</pdfrwt>
<pdfrwt beam="2">  1       21 0.40734857E-01 0.17463518E+03</pdfrwt>
<totfact> 0.94479762E+04</totfact>
</mgrwt>
</event>
<event>
12    1  0.1071811E-001  0.2944882E+03  0.7546771E-02  0.1088085E+00
         21   -1    0    0  503  502  0.00000000000E+00  0.00000000000E+00  0.10815276406E+04  0.10815276406E+04  0.00000000000E+00 0.  1.
         21   -1    0    0  501  503 -0.00000000000E+00 -0.00000000000E+00 -0.12964782822E+03  0.12964782822E+03  0.00000000000E+00 0. -1.
          6    2    1    2  501    0  0.25615752361E+02 -0.23629776323E+03  0.10121601519E+03  0.31097984012E+03  0.17312128569E+03 0.  0.
         24    2    3    3    0    0  0.10931043966E+02 -0.84682460854E+02  0.10813587690E+03  0.15842553812E+03  0.78196396055E+02 0.  0.
         -6    2    1    2    0  502 -0.25615752361E+02  0.23629776323E+03  0.85066379715E+03  0.90019562864E+03  0.17386913003E+03 0.  0.
        -24    2    5    5    0    0  0.12578983564E+02  0.23606539254E+03  0.65980125655E+03  0.70549203019E+03  0.80599045465E+02 0.  0.
          5    1    3    3  501    0  0.14684708395E+02 -0.15161530237E+03 -0.69198617171E+01  0.15255430201E+03  0.47000000000E+01 0. -1.
        -11    1    4    4    0    0  0.34676319205E+02 -0.75861605289E+02  0.56012479757E+02  0.10047302205E+03  0.00000000000E+00 0.  1.
         12    1    4    4    0    0 -0.23745275238E+02 -0.88208555651E+01  0.52123397146E+02  0.57952516072E+02  0.00000000000E+00 0. -1.
         -5    1    5    5    0  502 -0.38194735925E+02  0.23237068629E+00  0.19086254059E+03  0.19470359845E+03  0.47000000000E+01 0.  1.
         11    1    6    6    0    0 -0.15871702643E+02  0.46849194887E+01  0.48676282589E+02  0.51412448902E+02  0.00000000000E+00 0. -1.
        -12    1    6    6    0    0  0.28450686207E+02  0.23138047305E+03  0.61112497396E+03  0.65407958129E+03  0.00000000000E+00 0.  1.
<mgrwt>
<rscale>  2 0.29437787E+03</rscale>
<asrwt>0</asrwt>
<pdfrwt beam="1">  1       21 0.16638886E+00 0.29448816E+03</pdfrwt>
<pdfrwt beam="2">  1       21 0.19945820E-01 0.29448816E+03</pdfrwt>
<totfact> 0.48836881E+03</totfact>
</mgrwt>
</event>
<event>
12    1  0.1071811E-001  0.1758002E+03  0.7546771E-02  0.1172036E+00
         21   -1    0    0  503  502  0.00000000000E+00  0.00000000000E+00  0.26083634545E+02  0.26083634545E+02  0.00000000000E+00 0.  1.
         21   -1    0    0  501  503 -0.00000000000E+00 -0.00000000000E+00 -0.11942571009E+04  0.11942571009E+04  0.00000000000E+00 0.  1.
          6    2    1    2  501    0 -0.20425828415E+02 -0.21990999764E+02 -0.64650090921E+03  0.66997695512E+03  0.17321915670E+03 0.  0.
         24    2    3    3    0    0 -0.62164692538E+00  0.39475686546E+02 -0.20362111014E+03  0.22238901342E+03  0.80228427153E+02 0.  0.
         -6    2    1    2    0  502  0.20425828415E+02  0.21990999764E+02 -0.52167255717E+03  0.55036378035E+03  0.17279240515E+03 0.  0.
        -24    2    5    5    0    0  0.61152035419E+02 -0.84184013451E+00 -0.19353079926E+03  0.21888366662E+03  0.81948820118E+02 0.  0.
          5    1    3    3  501    0 -0.19804181490E+02 -0.61466686310E+02 -0.44287979907E+03  0.44758794170E+03  0.47000000000E+01 0. -1.
        -11    1    4    4    0    0  0.36222335178E+02  0.31975661053E+02 -0.14412027417E+03  0.15200379565E+03  0.00000000000E+00 0.  1.
         12    1    4    4    0    0 -0.36843982103E+02  0.75000254930E+01 -0.59500835966E+02  0.70385217768E+02  0.00000000000E+00 0. -1.
         -5    1    5    5    0  502 -0.40726207003E+02  0.22832839898E+02 -0.32814175791E+03  0.33148011373E+03  0.47000000000E+01 0.  1.
         13    1    6    6    0    0 -0.13488733778E+02  0.15483761872E+02 -0.17478242625E+02  0.26966308348E+02  0.00000000000E+00 0. -1.
        -14    1    6    6    0    0  0.74640769197E+02 -0.16325602006E+02 -0.17605255664E+03  0.19191735827E+03  0.00000000000E+00 0.  1.
<mgrwt>
<rscale>  2 0.17569494E+03</rscale>
<asrwt>0</asrwt>
<pdfrwt beam="1">  1       21 0.40128662E-02 0.17580016E+03</pdfrwt>
<pdfrwt beam="2">  1       21 0.18373189E+00 0.17580016E+03</pdfrwt>
<totfact> 0.67587104E+04</totfact>
</mgrwt>
</event>
<event>
12    1  0.1071811E-001  0.1784123E+03  0.7546771E-02  0.1169908E+00
         21   -1    0    0  503  502  0.00000000000E+00  0.00000000000E+00  0.50648561045E+02  0.50648561045E+02  0.00000000000E+00 0. -1.
         21   -1    0    0  501  503 -0.00000000000E+00 -0.00000000000E+00 -0.65188234805E+03  0.65188234805E+03  0.00000000000E+00 0. -1.
          6    2    1    2  501    0  0.34371706919E+02 -0.12007418727E+02 -0.37953102248E+03  0.41937421953E+03  0.17465779868E+03 0.  0.
         24    2    3    3    0    0  0.81040853998E+02  0.73281352064E+01 -0.32771884154E+03  0.34685894508E+03  0.79310573695E+02 0.  0.
         -6    2    1    2    0  502 -0.34371706919E+02  0.12007418727E+02 -0.22170276453E+03  0.28315668957E+03  0.17233688725E+03 0.  0.
        -24    2    5    5    0    0 -0.14133270340E+02 -0.67145106698E+01 -0.23896067317E+02  0.83382606121E+02  0.78337749434E+02 0.  0.
          5    1    3    3  501    0 -0.46669147079E+02 -0.19335553933E+02 -0.51812180946E+02  0.72515274456E+02  0.47000000000E+01 0. -1.
        -13    1    4    4    0    0  0.21326174278E+02  0.25230761626E+02 -0.37308953017E+02  0.49833272186E+02  0.00000000000E+00 0.  1.
         14    1    4    4    0    0  0.59714679720E+02 -0.17902626419E+02 -0.29040988852E+03  0.29702567289E+03  0.00000000000E+00 0. -1.
         -5    1    5    5    0  502 -0.20238436579E+02  0.18721929396E+02 -0.19780669721E+03  0.19977408345E+03  0.47000000000E+01 0.  1.
         11    1    6    6    0    0 -0.41222966699E+02 -0.42578191372E+01  0.72059140777E+01  0.42064084502E+02  0.00000000000E+00 0. -1.
        -12    1    6    6    0    0  0.27089696359E+02 -0.24566915327E+01 -0.31101981395E+02  0.41318521619E+02  0.00000000000E+00 0.  1.
<mgrwt>
<rscale>  2 0.17784168E+03</rscale>
<asrwt>0</asrwt>
<pdfrwt beam="1">  1       21 0.77920865E-02 0.17841227E+03</pdfrwt>
<pdfrwt beam="2">  1       21 0.10028959E+00 0.17841227E+03</pdfrwt>
<totfact> 0.10302698E+05</totfact>
</mgrwt>
</event>
<event>
12    1  0.1071811E-001  0.2024873E+03  0.7546771E-02  0.1147679E+00
         21   -1    0    0  503  502  0.00000000000E+00  0.00000000000E+00  0.10357682095E+04  0.10357682095E+04  0.00000000000E+00 0. -1.
         21   -1    0    0  501  503 -0.00000000000E+00 -0.00000000000E+00 -0.53999075485E+02  0.53999075485E+02  0.00000000000E+00 0. -1.
          6    2    1    2  501    0  0.42877549226E+02 -0.93940386815E+02  0.20926457051E+03  0.29119196008E+03  0.17417754344E+03 0.  0.
         24    2    3    3    0    0 -0.19842825888E+02 -0.10754821766E+03  0.14073098585E+03  0.19718153118E+03  0.84350394184E+02 0.  0.
         -6    2    1    2    0  502 -0.42877549226E+02  0.93940386815E+02  0.77250456354E+03  0.79857532495E+03  0.17405737107E+03 0.  0.
        -24    2    5    5    0    0 -0.74376824152E+02  0.11500827653E+03  0.50545895828E+03  0.52881338251E+03  0.73457602588E+02 0.  0.
          5    1    3    3  501    0  0.62720375114E+02  0.13607830842E+02  0.68533584665E+02  0.94010428898E+02  0.47000000000E+01 0. -1.
        -11    1    4    4    0    0 -0.16855908799E+01  0.76921097590E-01  0.63387183693E+02  0.63409637990E+02  0.00000000000E+00 0.  1.
         12    1    4    4    0    0 -0.18157235009E+02 -0.10762513875E+03  0.77343802156E+02  0.13377189319E+03  0.00000000000E+00 0. -1.
         -5    1    5    5    0  502  0.31499274926E+02 -0.21067889711E+02  0.26704560526E+03  0.26976194243E+03  0.47000000000E+01 0.  1.
         13    1    6    6    0    0 -0.32451267739E+02  0.75608117899E+02  0.40293267062E+03  0.41124738215E+03  0.00000000000E+00 0. -1.
        -14    1    6    6    0    0 -0.41925556413E+02  0.39400158627E+02  0.10252628766E+03  0.11756600036E+03  0.00000000000E+00 0.  1.
<mgrwt>
<rscale>  2 0.20246143E+03</rscale>
<asrwt>0</asrwt>
<pdfrwt beam="1">  1       21 0.15934894E+00 0.20248728E+03</pdfrwt>
<pdfrwt beam="2">  1       21 0.83075509E-02 0.20248728E+03</pdfrwt>
<totfact> 0.28413269E+04</totfact>
</mgrwt>
</event>
<event>
12    1  0.1071811E-001  0.1776557E+03  0.7546771E-02  0.1170759E+00
         21   -1    0    0  501  502  0.00000000000E+00  0.00000000000E+00  0.21354268599E+03  0.21354268599E+03  0.00000000000E+00 0.  1.
         21   -1    0    0  502  503 -0.00000000000E+00 -0.00000000000E+00 -0.14951566022E+03  0.14951566022E+03  0.00000000000E+00 0.  1.
         -6    2    1    2    0  503 -0.10799681754E+01 -0.35950996651E+02  0.61259702962E+02  0.18538104788E+03  0.17123008268E+03 0.  0.
        -24    2    3    3    0    0  0.16725994135E+02  0.18317794295E+02  0.30848947839E+01  0.10371984368E+03  0.10066274847E+03 0.  0.
          6    2    1    2  501    0  0.10799681754E+01  0.35950996651E+02  0.27673228071E+01  0.17767729833E+03  0.17397679091E+03 0.  0.
         24    2    5    5    0    0  0.52217655351E+02  0.73428538293E+02  0.74401698823E+01  0.11393128138E+03  0.69329264982E+02 0.  0.
          5    1    5    5  501    0 -0.51137687176E+02 -0.37477541642E+02 -0.46728470752E+01  0.63746016950E+02  0.47000000000E+01 0. -1.
        -11    1    6    6    0    0  0.38577380760E+02  0.66537727396E+02  0.33365073475E+02  0.83837411705E+02  0.00000000000E+00 0.  1.
         12    1    6    6    0    0  0.13640274591E+02  0.68908108968E+01 -0.25924903593E+02  0.30093869676E+02  0.00000000000E+00 0. -1.
         -5    1    3    3    0  503 -0.17805962310E+02 -0.54268790946E+02  0.58174808178E+02  0.81661204198E+02  0.47000000000E+01 0.  1.
         13    1    4    4    0    0  0.17549501954E+01 -0.20005565239E+01  0.50200163334E+02  0.50270652227E+02  0.00000000000E+00 0. -1.
        -14    1    4    4    0    0  0.14971043939E+02  0.20318350819E+02 -0.47115268550E+02  0.53449191455E+02  0.00000000000E+00 0.  1.
<mgrwt>
<rscale>  2 0.17697966E+03</rscale>
<asrwt>0</asrwt>
<pdfrwt beam="1">  1       21 0.32852721E-01 0.17765575E+03</pdfrwt>
<pdfrwt beam="2">  1       21 0.23002409E-01 0.17765575E+03</pdfrwt>
<totfact> 0.15901222E+05</totfact>
</mgrwt>
</event>
<event>
12    1  0.1071811E-001  0.1732927E+03  0.7546771E-02  0.1174510E+00
         21   -1    0    0  503  502  0.00000000000E+00  0.00000000000E+00  0.35260439752E+02  0.35260439752E+02  0.00000000000E+00 0.  1.
         21   -1    0    0  501  503 -0.00000000000E+00 -0.00000000000E+00 -0.12472372429E+04  0.12472372429E+04  0.00000000000E+00 0.  1.
          6    2    1    2  501    0 -0.17184209840E+02 -0.33546998049E+02 -0.96733486594E+03  0.98269770388E+03  0.16892997427E+03 0.  0.
         24    2    3    3    0    0 -0.65286849125E+02  0.98282953024E+01 -0.46928115724E+03  0.48042798876E+03  0.78913115424E+02 0.  0.
         -6    2    1    2    0  502  0.17184209840E+02  0.33546998049E+02 -0.24464193721E+03  0.29979997877E+03  0.16914387865E+03 0.  0.
        -24    2    5    5    0    0  0.27855916058E+02  0.89202678100E+01 -0.42897164897E+02  0.96223446942E+02  0.81013960205E+02 0.  0.
          5    1    3    3  501    0  0.48102639286E+02 -0.43375293352E+02 -0.49805370870E+03  0.50226971512E+03  0.47000000000E+01 0. -1.
        -13    1    4    4    0    0 -0.33458170874E+02  0.72198683195E+01 -0.42191797660E+03  0.42330409244E+03  0.00000000000E+00 0.  1.
         14    1    4    4    0    0 -0.31828678251E+02  0.26084269829E+01 -0.47363180637E+02  0.57123896318E+02  0.00000000000E+00 0. -1.
         -5    1    5    5    0  502 -0.10671706219E+02  0.24626730239E+02 -0.20174477231E+03  0.20357653183E+03  0.47000000000E+01 0.  1.
         11    1    6    6    0    0  0.22452938831E+02  0.20562937092E+02 -0.64369840180E+02  0.71207058419E+02  0.00000000000E+00 0. -1.
        -12    1    6    6    0    0  0.54029772274E+01 -0.11642669282E+02  0.21472675283E+02  0.25016388523E+02  0.00000000000E+00 0.  1.
<mgrwt>
<rscale>  2 0.17324045E+03</rscale>
<asrwt>0</asrwt>
<pdfrwt beam="1">  1       21 0.54246835E-02 0.17329267E+03</pdfrwt>
<pdfrwt beam="2">  1       21 0.19188264E+00 0.17329267E+03</pdfrwt>
<totfact> 0.35981092E+04</totfact>
</mgrwt>
</event>
<event>
12    1  0.1071811E-001  0.1986960E+03  0.7546771E-02  0.1150963E+00
         21   -1    0    0  501  502  0.00000000000E+00  0.00000000000E+00  0.55660312271E+02  0.55660312271E+02  0.00000000000E+00 0.  1.
         21   -1    0    0  502  503 -0.00000000000E+00 -0.00000000000E+00 -0.82333760835E+03  0.82333760835E+03  0.00000000000E+00 0. -1.
         -6    2    1    2    0  503 -0.23230273763E+02  0.95006414775E+02 -0.54928951852E+03  0.58412247315E+03  0.17295728955E+03 0.  0.
        -24    2    3    3    0    0  0.53016282082E+02  0.56443917756E+02 -0.32589544141E+03  0.34489954961E+03  0.82165799296E+02 0.  0.
          6    2    1    2  501    0  0.23230273763E+02 -0.95006414775E+02 -0.21838777756E+03  0.29487544748E+03  0.17231495487E+03 0.  0.
         24    2    5    5    0    0 -0.14051832014E+01  0.14524814516E+01 -0.41900305313E+02  0.92190612671E+02  0.82093783182E+02 0.  0.
          5    1    5    5  501    0  0.24635456964E+02 -0.96458896226E+02 -0.17648747224E+03  0.20268483481E+03  0.47000000000E+01 0. -1.
        -11    1    6    6    0    0  0.36899537506E+02  0.54299171467E+01 -0.38383578619E+02  0.53519706426E+02  0.00000000000E+00 0.  1.
         12    1    6    6    0    0 -0.38304720707E+02 -0.39774356951E+01 -0.35167266939E+01  0.38670906245E+02  0.00000000000E+00 0. -1.
         -5    1    3    3    0  503 -0.76246555845E+02  0.38562497019E+02 -0.22339407711E+03  0.23922292353E+03  0.47000000000E+01 0.  1.
         11    1    4    4    0    0 -0.17809802887E+02  0.24399867877E+02 -0.51510338421E+02  0.59714802147E+02  0.00000000000E+00 0. -1.
        -12    1    4    4    0    0  0.70826084968E+02  0.32044049879E+02 -0.27438510299E+03  0.28518474746E+03  0.00000000000E+00 0.  1.
<mgrwt>
<rscale>  2 0.19855610E+03</rscale>
<asrwt>0</asrwt>
<pdfrwt beam="1">  1       21 0.85631257E-02 0.19869597E+03</pdfrwt>
<pdfrwt beam="2">  1       21 0.12666731E+00 0.19869597E+03</pdfrwt>
<totfact> 0.49017827E+04</totfact>
</mgrwt>
</event>
<event>
12    1  0.1071811E-001  0.1887664E+03  0.7546771E-02  0.1159602E+00
         21   -1    0    0  501  502  0.00000000000E+00  0.00000000000E+00  0.26466867470E+03  0.26466867470E+03  0.00000000000E+00 0. -1.
         21   -1    0    0  502  503 -0.00000000000E+00 -0.00000000000E+00 -0.14112551208E+03  0.14112551208E+03  0.00000000000E+00 0. -1.
         -6    2    1    2    0  503  0.32775264218E+01 -0.76089351928E+02  0.18019804025E+02  0.18962456244E+03  0.17272066954E+03 0.  0.
        -24    2    3    3    0    0 -0.52389881861E+02 -0.67751721542E+02 -0.22122649316E+02  0.12032894219E+03  0.81576021126E+02 0.  0.
          6    2    1    2  501    0 -0.32775264218E+01  0.76089351928E+02  0.10552335859E+03  0.21616962434E+03  0.17260879359E+03 0.  0.
         24    2    5    5    0    0 -0.17654949170E+02  0.57103955121E+02 -0.73179374042E+01  0.10074690709E+03  0.80770218271E+02 0.  0.
          5    1    5    5  501    0  0.14377422748E+02  0.18985396807E+02  0.11284129599E+03  0.11542271725E+03  0.47000000000E+01 0. -1.
        -13    1    6    6    0    0  0.25586518569E+01  0.47495162953E+02  0.30713549775E+02  0.56618542396E+02  0.00000000000E+00 0.  1.
         14    1    6    6    0    0 -0.20213601027E+02  0.96087921677E+01 -0.38031487179E+02  0.44128364693E+02  0.00000000000E+00 0. -1.
         -5    1    3    3    0  503  0.55667408283E+02 -0.83376303858E+01  0.40142453341E+02  0.69295620248E+02  0.47000000000E+01 0.  1.
         13    1    4    4    0    0 -0.33978784459E+02 -0.77129232557E+02 -0.39735210227E+02  0.93179199610E+02  0.00000000000E+00 0. -1.
        -14    1    4    4    0    0 -0.18411097402E+02  0.93775110144E+01  0.17612560912E+02  0.27149742582E+02  0.00000000000E+00 0.  1.
<mgrwt>
<rscale>  2 0.18874082E+03</rscale>
<asrwt>0</asrwt>
<pdfrwt beam="1">  1       21 0.40718258E-01 0.18876642E+03</pdfrwt>
<pdfrwt beam="2">  1       21 0.21711617E-01 0.18876642E+03</pdfrwt>
<totfact> 0.11514488E+05</totfact>
</mgrwt>
</event>
<event>
12    1  0.1071811E-001  0.1780602E+03  0.7546771E-02  0.1170198E+00
         21   -1    0    0  501  502  0.00000000000E+00  0.00000000000E+00  0.56670386734E+02  0.56670386734E+02  0.00000000000E+00 0.  1.
         21   -1    0    0  502  503 -0.00000000000E+00 -0.00000000000E+00 -0.55453505488E+03  0.55453505488E+03  0.00000000000E+00 0.  1.
         -6    2    1    2    0  503  0.14423502516E+02 -0.36473697340E+02 -0.26317314728E+03  0.31661160055E+03  0.17159379980E+03 0.  0.
        -24    2    3    3    0    0 -0.56084149189E+02 -0.33768625376E+01 -0.13840462876E+03  0.16945181448E+03  0.80007756975E+02 0.  0.
          6    2    1    2  501    0 -0.14423502516E+02  0.36473697340E+02 -0.23469152087E+03  0.29459384107E+03  0.17368665235E+03 0.  0.
         24    2    5    5    0    0  0.51816815777E+02  0.20742876552E+02 -0.18794412584E+03  0.21187354470E+03  0.80325308456E+02 0.  0.
          5    1    5    5  501    0 -0.66240318294E+02  0.15730820789E+02 -0.46747395025E+02  0.82720296373E+02  0.47000000000E+01 0. -1.
        -13    1    6    6    0    0 -0.30881098185E+01  0.11808345716E+02 -0.13343291425E+03  0.13398998491E+03  0.00000000000E+00 0.  1.
         14    1    6    6    0    0  0.54904925596E+02  0.89345308358E+01 -0.54511211596E+02  0.77883559790E+02  0.00000000000E+00 0. -1.
         -5    1    3    3    0  503  0.70507651705E+02 -0.33096834803E+02 -0.12476851852E+03  0.14715978607E+03  0.47000000000E+01 0.  1.
         13    1    4    4    0    0  0.20284872199E+02  0.50668115980E+01 -0.28119762034E+02  0.35040970830E+02  0.00000000000E+00 0. -1.
        -14    1    4    4    0    0 -0.76369021388E+02 -0.84436741356E+01 -0.11028486673E+03  0.13441084365E+03  0.00000000000E+00 0.  1.
<mgrwt>
<rscale>  2 0.17754774E+03</rscale>
<asrwt>0</asrwt>
<pdfrwt beam="1">  1       21 0.87185210E-02 0.17806016E+03</pdfrwt>
<pdfrwt beam="2">  1       21 0.85313085E-01 0.17806016E+03</pdfrwt>
<totfact> 0.12338203E+05</totfact>
</mgrwt>
</event>
<event>
12    1  0.1071811E-001  0.1751007E+03  0.7546771E-02  0.1173276E+00
         21   -1    0    0  501  502  0.00000000000E+00  0.00000000000E+00  0.31282568179E+03  0.31282568179E+03  0.00000000000E+00 0.  1.
         21   -1    0    0  502  503 -0.00000000000E+00 -0.00000000000E+00 -0.10701076951E+03  0.10701076951E+03  0.00000000000E+00 0.  1.
         -6    2    1    2    0  503 -0.22466135768E+02 -0.15890587083E+02  0.16774052164E+03  0.24064401201E+03  0.17033913204E+03 0.  0.
        -24    2    3    3    0    0  0.48809761737E+02 -0.27003094627E+02  0.70037338205E+02  0.11910495063E+03  0.78544258610E+02 0.  0.
          6    2    1    2  501    0  0.22466135768E+02  0.15890587083E+02  0.38074390642E+02  0.17919243929E+03  0.17292493476E+03 0.  0.
         24    2    5    5    0    0  0.32287882671E+02  0.31656478947E+02 -0.37510362164E+02  0.10121696292E+03  0.82420909274E+02 0.  0.
          5    1    5    5  501    0 -0.98217469035E+01 -0.15765891863E+02  0.75584752806E+02  0.77975476370E+02  0.47000000000E+01 0. -1.
        -11    1    6    6    0    0  0.24968386920E+02 -0.98071408200E+01  0.17435528028E+02  0.31993718040E+02  0.00000000000E+00 0.  1.
         12    1    6    6    0    0  0.73194957519E+01  0.41463619767E+02 -0.54945890191E+02  0.69223244876E+02  0.00000000000E+00 0. -1.
         -5    1    3    3    0  503 -0.71275897505E+02  0.11112507544E+02  0.97703183438E+02  0.12153906139E+03  0.47000000000E+01 0.  1.
         13    1    4    4    0    0  0.34872831112E+02 -0.20893592406E+02  0.87173967628E+02  0.96187094692E+02  0.00000000000E+00 0. -1.
        -14    1    4    4    0    0  0.13936930625E+02 -0.61095022208E+01 -0.17136629422E+02  0.22917855934E+02  0.00000000000E+00 0.  1.
<mgrwt>
<rscale>  2 0.17445893E+03</rscale>
<asrwt>0</asrwt>
<pdfrwt beam="1">  1       21 0.48127028E-01 0.17510075E+03</pdfrwt>
<pdfrwt beam="2">  1       21 0.16463195E-01 0.17510075E+03</pdfrwt>
<totfact> 0.13732627E+05</totfact>
</mgrwt>
</event>
<event>
12    1  0.1071811E-001  0.1772052E+03  0.7546771E-02  0.1172374E+00
         21   -1    0    0  501  502  0.00000000000E+00  0.00000000000E+00  0.67728309955E+03  0.67728309955E+03  0.00000000000E+00 0. -1.
         21   -1    0    0  502  503 -0.00000000000E+00 -0.00000000000E+00 -0.22354209545E+03  0.22354209545E+03  0.00000000000E+00 0. -1.
         -6    2    1    2    0  503  0.14549526617E+02  0.25249282152E+02 -0.17717833460E+03  0.24549254273E+03  0.16740732156E+03 0.  0.
        -24    2    3    3    0    0  0.62933275773E+02  0.50253597438E+02 -0.10447065564E+03  0.15452716720E+03  0.80489168580E+02 0.  0.
          6    2    1    2  501    0 -0.14549526617E+02 -0.25249282152E+02  0.63091933870E+03  0.65533265227E+03  0.17479261489E+03 0.  0.
         24    2    5    5    0    0  0.89739568362E+01  0.51044657224E+02  0.29815164419E+03  0.31308924771E+03  0.80276927988E+02 0.  0.
          5    1    5    5  501    0 -0.23523483453E+02 -0.76293939376E+02  0.33276769450E+03  0.34224340456E+03  0.47000000000E+01 0. -1.
        -11    1    6    6    0    0 -0.14789313516E+02  0.42066065301E+02  0.66603181135E+02  0.80151490201E+02  0.00000000000E+00 0.  1.
         12    1    6    6    0    0  0.23763270352E+02  0.89785919223E+01  0.23154846306E+03  0.23293775751E+03  0.00000000000E+00 0. -1.
         -5    1    3    3    0  503 -0.48383749156E+02 -0.25004315285E+02 -0.72707678955E+02  0.90965375524E+02  0.47000000000E+01 0.  1.
         13    1    4    4    0    0  0.58280702520E+02  0.64672535596E+02 -0.10824747783E+03  0.13891253940E+03  0.00000000000E+00 0. -1.
        -14    1    4    4    0    0  0.46525732528E+01 -0.14418938158E+02  0.37768221893E+01  0.15614627800E+02  0.00000000000E+00 0.  1.
<mgrwt>
<rscale>  2 0.17535634E+03</rscale>
<asrwt>0</asrwt>
<pdfrwt beam="1">  1       21 0.10419740E+00 0.17720517E+03</pdfrwt>
<pdfrwt beam="2">  1       21 0.34391092E-01 0.17720517E+03</pdfrwt>
<totfact> 0.61377871E+03</totfact>
</mgrwt>
</event>
<event>
12    1  0.1071811E-001  0.2725386E+03  0.7546771E-02  0.1099851E+00
         21   -1    0    0  503  502  0.00000000000E+00  0.00000000000E+00  0.42806442534E+03  0.42806442534E+03  0.00000000000E+00 0. -1.
         21   -1    0    0  501  503 -0.00000000000E+00 -0.00000000000E+00 -0.19229965046E+03  0.19229965046E+03  0.00000000000E+00 0. -1.
          6    2    1    2  501    0  0.10145427889E+03  0.18487687578E+03  0.20739293475E+02  0.27321387587E+03  0.17246238364E+03 0.  0.
         24    2    3    3    0    0  0.57397368470E+02  0.41694305887E+02 -0.52313597984E+02  0.10647733330E+03  0.59731373018E+02 0.  0.
         -6    2    1    2    0  502 -0.10145427889E+03 -0.18487687578E+03  0.21502548140E+03  0.34715019993E+03  0.17264088089E+03 0.  0.
        -24    2    5    5    0    0 -0.13567654506E+03 -0.17310853864E+03  0.16929336952E+03  0.28864230885E+03  0.79242958473E+02 0.  0.
          5    1    3    3  501    0  0.44056910418E+02  0.14318256989E+03  0.73052891459E+02  0.16673654257E+03  0.47000000000E+01 0. -1.
        -13    1    4    4    0    0  0.63736882073E+01 -0.46271083620E+01  0.10572275901E+02  0.13183590212E+02  0.00000000000E+00 0.  1.
         14    1    4    4    0    0  0.51023680263E+02  0.46321414249E+02 -0.62885873886E+02  0.93293743091E+02  0.00000000000E+00 0. -1.
         -5    1    5    5    0  502  0.34222266170E+02 -0.11768337141E+02  0.45732111876E+02  0.58507891070E+02  0.47000000000E+01 0.  1.
         11    1    6    6    0    0 -0.42263936822E+01  0.77826961231E+01  0.12819785540E+01  0.89485323665E+01  0.00000000000E+00 0. -1.
        -12    1    6    6    0    0 -0.13145015138E+03 -0.18089123476E+03  0.16801139097E+03  0.27969377649E+03  0.00000000000E+00 0.  1.
<mgrwt>
<rscale>  2 0.27251036E+03</rscale>
<asrwt>0</asrwt>
<pdfrwt beam="1">  1       21 0.65856065E-01 0.27253863E+03</pdfrwt>
<pdfrwt beam="2">  1       21 0.29584562E-01 0.27253863E+03</pdfrwt>
<totfact> 0.22264843E+04</totfact>
</mgrwt>
</event>
<event>
12    1  0.1071811E-001  0.2023630E+03  0.7546771E-02  0.1148479E+00
         21   -1    0    0  501  502  0.00000000000E+00  0.00000000000E+00  0.58121893948E+03  0.58121893948E+03  0.00000000000E+00 0. -1.
         21   -1    0    0  502  503 -0.00000000000E+00 -0.00000000000E+00 -0.10155675757E+03  0.10155675757E+03  0.00000000000E+00 0. -1.
         -6    2    1    2    0  503  0.47302240916E+02 -0.91789880944E+02  0.48739103104E+02  0.20814965229E+03  0.17403417290E+03 0.  0.
        -24    2    3    3    0    0  0.66526244643E+02 -0.12575825749E+03  0.38702372851E+02  0.16757578288E+03  0.79642255055E+02 0.  0.
          6    2    1    2  501    0 -0.47302240916E+02  0.91789880944E+02  0.43092307881E+03  0.47462604475E+03  0.17003616754E+03 0.  0.
         24    2    5    5    0    0  0.28691569182E+02  0.32814267717E+02  0.11835116607E+03  0.14755346449E+03  0.76583575686E+02 0.  0.
          5    1    5    5  501    0 -0.75993810098E+02  0.58975613227E+02  0.31257191273E+03  0.32707258026E+03  0.47000000000E+01 0. -1.
        -13    1    6    6    0    0 -0.64267664712E+01 -0.21936307726E+02  0.26387625376E+02  0.34911483739E+02  0.00000000000E+00 0.  1.
         14    1    6    6    0    0  0.35118335653E+02  0.54750575443E+02  0.91963540698E+02  0.11264198075E+03  0.00000000000E+00 0. -1.
         -5    1    3    3    0  503 -0.19224003728E+02  0.33968376547E+02  0.10036730252E+02  0.40573869408E+02  0.47000000000E+01 0.  1.
         11    1    4    4    0    0 -0.90543209674E+01 -0.21262280611E+01 -0.10981059899E+02  0.14390456923E+02  0.00000000000E+00 0. -1.
        -12    1    4    4    0    0  0.75580565611E+02 -0.12363202943E+03  0.49683432750E+02  0.15318532596E+03  0.00000000000E+00 0.  1.
<mgrwt>
<rscale>  2 0.20150052E+03</rscale>
<asrwt>0</asrwt>
<pdfrwt beam="1">  1       21 0.89418297E-01 0.20236298E+03</pdfrwt>
<pdfrwt beam="2">  1       21 0.15624117E-01 0.20236298E+03</pdfrwt>
<totfact> 0.38635951E+04</totfact>
</mgrwt>
</event>
<event>
12    1  0.1071811E-001  0.2375830E+03  0.7546771E-02  0.1124108E+00
         21   -1    0    0  501  502  0.00000000000E+00  0.00000000000E+00  0.90863653306E+02  0.90863653306E+02  0.00000000000E+00 0. -1.
         21   -1    0    0  502  503 -0.00000000000E+00 -0.00000000000E+00 -0.87092405220E+03  0.87092405220E+03  0.00000000000E+00 0.  1.
         -6    2    1    2    0  503  0.90185874361E+02  0.10660373171E+03 -0.65838055453E+03  0.69485759464E+03  0.17281283140E+03 0.  0.
        -24    2    3    3    0    0  0.71574137324E+02  0.51988538710E+02 -0.60252967983E+03  0.61441739159E+03  0.81492642098E+02 0.  0.
          6    2    1    2  501    0 -0.90185874361E+02 -0.10660373171E+03 -0.12167984437E+03  0.26693011087E+03  0.19221824059E+03 0.  0.
         24    2    5    5    0    0 -0.11132589158E+03 -0.23685341362E+02 -0.31002312647E+02  0.14216286939E+03  0.79339073058E+02 0.  0.
          5    1    5    5  501    0  0.21140017219E+02 -0.82918390352E+02 -0.90677531722E+02  0.12476724148E+03  0.47000000000E+01 0. -1.
        -11    1    6    6    0    0  0.36794480947E+00  0.18547420167E+02  0.86831699168E+00  0.18571379934E+02  0.00000000000E+00 0.  1.
         12    1    6    6    0    0 -0.11169383639E+03 -0.42232761529E+02 -0.31870629638E+02  0.12359148946E+03  0.00000000000E+00 0. -1.
         -5    1    3    3    0  503  0.18611737037E+02  0.54615193003E+02 -0.55850874694E+02  0.80440203048E+02  0.47000000000E+01 0.  1.
         11    1    4    4    0    0  0.14568795653E+02  0.58662217392E+02 -0.24721809365E+03  0.25450008131E+03  0.00000000000E+00 0. -1.
        -12    1    4    4    0    0  0.57005341671E+02 -0.66736786819E+01 -0.35531158618E+03  0.35991731028E+03  0.00000000000E+00 0.  1.
<mgrwt>
<rscale>  2 0.23363387E+03</rscale>
<asrwt>0</asrwt>
<pdfrwt beam="1">  1       21 0.13979024E-01 0.23758304E+03</pdfrwt>
<pdfrwt beam="2">  1       21 0.13398832E+00 0.23758304E+03</pdfrwt>
<totfact> 0.17358274E+04</totfact>
</mgrwt>
</event>
<event>
12    1  0.1071811E-001  0.1732970E+03  0.7546771E-02  0.1174526E+00
         21   -1    0    0  501  502  0.00000000000E+00  0.00000000000E+00  0.10060216153E+03  0.10060216153E+03  0.00000000000E+00 0. -1.
         21   -1    0    0  502  503 -0.00000000000E+00 -0.00000000000E+00 -0.38316987449E+03  0.38316987449E+03  0.00000000000E+00 0. -1.
         -6    2    1    2    0  503  0.59783254487E+01  0.92241083137E+01 -0.25521644892E+03  0.30832994565E+03  0.17265889794E+03 0.  0.
        -24    2    3    3    0    0 -0.32092612024E+02 -0.27714097496E+01 -0.25512960220E+03  0.26813807737E+03  0.75955896132E+02 0.  0.
          6    2    1    2  501    0 -0.59783254487E+01 -0.92241083137E+01 -0.27351264043E+02  0.17544209037E+03  0.17294800050E+03 0.  0.
         24    2    5    5    0    0  0.32623318786E+02 -0.54099690507E+02  0.17238502661E+02  0.10118414729E+03  0.77136296568E+02 0.  0.
          5    1    5    5  501    0 -0.38601644235E+02  0.44875582193E+02 -0.44589766704E+02  0.74257943074E+02  0.47000000000E+01 0. -1.
        -11    1    6    6    0    0 -0.23686178485E+02 -0.23779739291E+02  0.16088350339E+02  0.37220237353E+02  0.00000000000E+00 0.  1.
         12    1    6    6    0    0  0.56309497271E+02 -0.30319951216E+02  0.11501523223E+01  0.63963909942E+02  0.00000000000E+00 0. -1.
         -5    1    3    3    0  503  0.38070937472E+02  0.11995518063E+02 -0.86846715008E-01  0.40191868282E+02  0.47000000000E+01 0.  1.
         11    1    4    4    0    0  0.25599448252E+01 -0.14434887885E+02 -0.20786865153E+03  0.20838496970E+03  0.00000000000E+00 0. -1.
        -12    1    4    4    0    0 -0.34652556849E+02  0.11663478136E+02 -0.47260950672E+02  0.59753107675E+02  0.00000000000E+00 0.  1.
<mgrwt>
<rscale>  2 0.17322478E+03</rscale>
<asrwt>0</asrwt>
<pdfrwt beam="1">  1       21 0.15477256E-01 0.17329696E+03</pdfrwt>
<pdfrwt beam="2">  1       21 0.58949211E-01 0.17329696E+03</pdfrwt>
<totfact> 0.10046297E+05</totfact>
</mgrwt>
</event>
<event>
12    1  0.1071811E-001  0.1843044E+03  0.7546771E-02  0.1164220E+00
         21   -1    0    0  503  502  0.00000000000E+00  0.00000000000E+00  0.29913501775E+03  0.29913501775E+03  0.00000000000E+00 0.  1.
         21   -1    0    0  501  503 -0.00000000000E+00 -0.00000000000E+00 -0.11431956095E+03  0.11431956095E+03  0.00000000000E+00 0.  1.
          6    2    1    2  501    0 -0.27687344387E+01 -0.62016557837E+02  0.12106560943E+03  0.22051072843E+03  0.17353495391E+03 0.  0.
         24    2    3    3    0    0  0.19341589393E+02  0.14200906080E+02  0.11239839660E+03  0.14054086658E+03  0.80886171911E+02 0.  0.
         -6    2    1    2    0  502  0.27687344387E+01  0.62016557837E+02  0.63749847369E+02  0.19294385027E+03  0.17120037085E+03 0.  0.
        -24    2    5    5    0    0  0.17633236823E+02  0.78977340842E+02 -0.11479505090E+02  0.11426623552E+03  0.79853879902E+02 0.  0.
          5    1    3    3  501    0 -0.22110323831E+02 -0.76217463916E+02  0.86672128245E+01  0.79969861848E+02  0.47000000000E+01 0. -1.
        -11    1    4    4    0    0 -0.66782650684E+01 -0.30605204599E+02  0.54355947860E+02  0.62736327918E+02  0.00000000000E+00 0.  1.
         12    1    4    4    0    0  0.26019854461E+02  0.44806110679E+02  0.58042448743E+02  0.77804538662E+02  0.00000000000E+00 0. -1.
         -5    1    5    5    0  502 -0.14864502384E+02 -0.16960783005E+02  0.75229352459E+02  0.78677614749E+02  0.47000000000E+01 0.  1.
         13    1    6    6    0    0  0.34315499387E+01  0.18944751154E+02 -0.41434052145E+02  0.45688727367E+02  0.00000000000E+00 0. -1.
        -14    1    6    6    0    0  0.14201686884E+02  0.60032589688E+02  0.29954547056E+02  0.68577508152E+02  0.00000000000E+00 0.  1.
<mgrwt>
<rscale>  2 0.18375278E+03</rscale>
<asrwt>0</asrwt>
<pdfrwt beam="1">  1       21 0.46020772E-01 0.18430437E+03</pdfrwt>
<pdfrwt beam="2">  1       21 0.17587625E-01 0.18430437E+03</pdfrwt>
<totfact> 0.13297409E+05</totfact>
</mgrwt>
</event>
<event>
12    1  0.1071811E-001  0.2289313E+03  0.7546771E-02  0.1127463E+00
         21   -1    0    0  503  502  0.00000000000E+00  0.00000000000E+00  0.15649052511E+03  0.15649052511E+03  0.00000000000E+00 0.  1.
         21   -1    0    0  501  503 -0.00000000000E+00 -0.00000000000E+00 -0.47393073005E+03  0.47393073005E+03  0.00000000000E+00 0. -1.
          6    2    1    2  501    0 -0.78940810413E+02  0.12688797781E+03 -0.32969427974E+03  0.40116219730E+03  0.17291784172E+03 0.  0.
         24    2    3    3    0    0 -0.38634647474E+02  0.14314693439E+03 -0.18767344500E+03  0.25256560265E+03  0.81144198037E+02 0.  0.
         -6    2    1    2    0  502  0.78940810413E+02 -0.12688797781E+03  0.12254074793E+02  0.22925905787E+03  0.17342820648E+03 0.  0.
        -24    2    5    5    0    0  0.78364408915E+02 -0.15446597145E+03 -0.11664171535E+02  0.19244804757E+03  0.83063115742E+02 0.  0.
          5    1    3    3  501    0 -0.40306162938E+02 -0.16258956577E+02 -0.14202083474E+03  0.14859659464E+03  0.47000000000E+01 0. -1.
        -11    1    4    4    0    0 -0.14534122529E+02  0.16051072810E+02  0.32998002619E+01  0.21903569065E+02  0.00000000000E+00 0.  1.
         12    1    4    4    0    0 -0.24100524946E+02  0.12709586158E+03 -0.19097324526E+03  0.23066203359E+03  0.00000000000E+00 0. -1.
         -5    1    5    5    0  502  0.57640149823E+00  0.27577993633E+02  0.23918246328E+02  0.36811010295E+02  0.47000000000E+01 0.  1.
         13    1    6    6    0    0  0.81114248658E+02 -0.14991125874E+03 -0.30252727298E+02  0.17311306808E+03  0.00000000000E+00 0. -1.
        -14    1    6    6    0    0 -0.27498397439E+01 -0.45547127083E+01  0.18588555763E+02  0.19334979488E+02  0.00000000000E+00 0.  1.
<mgrwt>
<rscale>  2 0.22883467E+03</rscale>
<asrwt>0</asrwt>
<pdfrwt beam="1">  1       21 0.24075466E-01 0.22893133E+03</pdfrwt>
<pdfrwt beam="2">  1       21 0.72912418E-01 0.22893133E+03</pdfrwt>
<totfact> 0.27016780E+04</totfact>
</mgrwt>
</event>
<event>
11    1  0.1071811E-001  0.1736117E+03  0.7546771E-02  0.1174299E+00
         21   -1    0    0  501  502  0.00000000000E+00  0.00000000000E+00  0.48355183222E+02  0.48355183222E+02  0.00000000000E+00 0. -1.
         21   -1    0    0  502  503 -0.00000000000E+00 -0.00000000000E+00 -0.71114952460E+03  0.71114952460E+03  0.00000000000E+00 0. -1.
         -6    2    1    2    0  503 -0.68904497197E+01 -0.11891237257E+01 -0.19671882332E+03  0.26237246820E+03  0.17347081688E+03 0.  0.
          6    2    1    2  501    0  0.68904497197E+01  0.11891237257E+01 -0.46607551806E+03  0.49713223962E+03  0.17281545886E+03 0.  0.
         24    2    4    4    0    0  0.53383959697E+01  0.65641460438E+02 -0.21131606592E+03  0.23429962932E+03  0.76840983770E+02 0.  0.
          5    1    4    4  501    0  0.15520537499E+01 -0.64452336713E+02 -0.25475945214E+03  0.26283261029E+03  0.47000000000E+01 0. -1.
        -11    1    5    5    0    0 -0.12106954996E+02 -0.59540403071E+01 -0.36944308753E+01  0.13988487221E+02  0.00000000000E+00 0.  1.
         12    1    5    5    0    0  0.17445350965E+02  0.71595500745E+02 -0.20762163504E+03  0.22031114210E+03  0.00000000000E+00 0. -1.
         -5    1    3    3    0  503 -0.24970185774E+02 -0.65523315495E+02 -0.25085120081E+02  0.74620160148E+02  0.47000000000E+01 0.  1.
         13    1    3    3    0    0  0.56839834296E+01  0.39595611424E+01 -0.19123678948E+01  0.71863024590E+01  0.00000000000E+00 0. -1.
        -14    1    3    3    0    0  0.12395752624E+02  0.60374630627E+02 -0.16972133534E+03  0.18056600560E+03  0.00000000000E+00 0.  1.
<mgrwt>
<rscale>  2 0.17344775E+03</rscale>
<asrwt>0</asrwt>
<pdfrwt beam="1">  1       21 0.74392587E-02 0.17361168E+03</pdfrwt>
<pdfrwt beam="2">  1       21 0.10940762E+00 0.17361168E+03</pdfrwt>
<totfact> 0.90843063E+04</totfact>
</mgrwt>
</event>
<event>
12    1  0.1071811E-001  0.1737697E+03  0.7546771E-02  0.1174475E+00
         21   -1    0    0  503  502  0.00000000000E+00  0.00000000000E+00  0.99377869112E+03  0.99377869112E+03  0.00000000000E+00 0. -1.
         21   -1    0    0  501  503 -0.00000000000E+00 -0.00000000000E+00 -0.30294666085E+02  0.30294666085E+02  0.00000000000E+00 0. -1.
          6    2    1    2  501    0  0.73043193644E+01 -0.12908014184E+02  0.52584183094E+03  0.55319481696E+03  0.17115754273E+03 0.  0.
         24    2    3    3    0    0 -0.22413757514E+02  0.32438787301E+01  0.50802194105E+03  0.51467616935E+03  0.79324444100E+02 0.  0.
         -6    2    1    2    0  502 -0.73043193644E+01  0.12908014184E+02  0.43764219410E+03  0.47087854025E+03  0.17313561072E+03 0.  0.
        -24    2    5    5    0    0 -0.65619068318E+02  0.31886428827E+02  0.31522480237E+03  0.33387891264E+03  0.82376245386E+02 0.  0.
          5    1    3    3  501    0  0.29718076879E+02 -0.16151892914E+02  0.17819889887E+02  0.38518647609E+02  0.47000000000E+01 0. -1.
        -11    1    4    4    0    0  0.72665504848E+01 -0.28382390477E+02  0.33584261530E+03  0.33711811743E+03  0.00000000000E+00 0.  1.
         12    1    4    4    0    0 -0.29680307999E+02  0.31626269207E+02  0.17217932575E+03  0.17755805193E+03  0.00000000000E+00 0. -1.
         -5    1    5    5    0  502  0.58314748953E+02 -0.18978414643E+02  0.12241739173E+03  0.13699962761E+03  0.47000000000E+01 0.  1.
         11    1    6    6    0    0  0.10328023583E+02  0.31786422426E+02  0.80119771975E+02  0.86811419659E+02  0.00000000000E+00 0. -1.
        -12    1    6    6    0    0 -0.75947091901E+02  0.10000640035E+00  0.23510503039E+03  0.24706749298E+03  0.00000000000E+00 0.  1.
<mgrwt>
<rscale>  2 0.17327490E+03</rscale>
<asrwt>0</asrwt>
<pdfrwt beam="1">  1       21 0.15288900E+00 0.17376970E+03</pdfrwt>
<pdfrwt beam="2">  1       21 0.46607186E-02 0.17376970E+03</pdfrwt>
<totfact> 0.86933695E+04</totfact>
</mgrwt>
</event>
<event>
12    1  0.1071811E-001  0.2090682E+03  0.7546771E-02  0.1142590E+00
         21   -1    0    0  503  502  0.00000000000E+00  0.00000000000E+00  0.27862969399E+04  0.27862969399E+04  0.00000000000E+00 0. -1.
         21   -1    0    0  501  503 -0.00000000000E+00 -0.00000000000E+00 -0.15656679984E+02  0.15656679984E+02  0.00000000000E+00 0. -1.
          6    2    1    2  501    0  0.68667442134E+02  0.95483336145E+02  0.12831775606E+04  0.12998701326E+04  0.17112984706E+03 0.  0.
         24    2    3    3    0    0  0.28593367287E+02  0.19523988780E+02  0.10060177407E+04  0.10096712186E+04  0.78520750686E+02 0.  0.
         -6    2    1    2    0  502 -0.68667442134E+02 -0.95483336145E+02  0.14874626993E+04  0.15020834872E+04  0.17285032765E+03 0.  0.
        -24    2    5    5    0    0 -0.82506570796E+01 -0.29990747003E+02  0.33082057184E+03  0.34200479674E+03  0.80978466249E+02 0.  0.
          5    1    3    3  501    0  0.40074074847E+02  0.75959347364E+02  0.27715981989E+03  0.29019891401E+03  0.47000000000E+01 0. -1.
        -13    1    4    4    0    0 -0.24749672039E+02  0.20983039513E+02  0.37515578990E+03  0.37655637149E+03  0.00000000000E+00 0.  1.
         14    1    4    4    0    0  0.53343039327E+02 -0.14590507329E+01  0.63086195079E+03  0.63311484711E+03  0.00000000000E+00 0. -1.
         -5    1    5    5    0  502 -0.60416785055E+02 -0.65492589141E+02  0.11566421275E+04  0.11600786905E+04  0.47000000000E+01 0.  1.
         11    1    6    6    0    0  0.19555035198E+01 -0.30493561668E+02  0.33036606307E+03  0.33177615485E+03  0.00000000000E+00 0. -1.
        -12    1    6    6    0    0 -0.10206160599E+02  0.50281466424E+00  0.45450876628E+00  0.10228641894E+02  0.00000000000E+00 0.  1.
<mgrwt>
<rscale>  2 0.20871227E+03</rscale>
<asrwt>0</asrwt>
<pdfrwt beam="1">  1       21 0.42866067E+00 0.20906822E+03</pdfrwt>
<pdfrwt beam="2">  1       21 0.24087222E-02 0.20906822E+03</pdfrwt>
<totfact> 0.50981896E+03</totfact>
</mgrwt>
</event>
<event>
12    1  0.1071811E-001  0.2050508E+03  0.7546771E-02  0.1146040E+00
         21   -1    0    0  501  502  0.00000000000E+00  0.00000000000E+00  0.20811749542E+03  0.20811749542E+03  0.00000000000E+00 0. -1.
         21   -1    0    0  502  503 -0.00000000000E+00 -0.00000000000E+00 -0.20588876387E+03  0.20588876387E+03  0.00000000000E+00 0. -1.
         -6    2    1    2    0  503  0.66775131194E+02 -0.88372631213E+02  0.37083393841E+02  0.20601427001E+03  0.16969991531E+03 0.  0.
        -24    2    3    3    0    0  0.84744351201E+02 -0.86024829986E+02 -0.20120684750E+02  0.14582455622E+03  0.79234353712E+02 0.  0.
          6    2    1    2  501    0 -0.66775131194E+02  0.88372631213E+02 -0.34854662296E+02  0.20799198928E+03  0.17256065608E+03 0.  0.
         24    2    5    5    0    0  0.12561688605E+02  0.89666741686E+02 -0.35655733789E+02  0.12850150298E+03  0.83924873128E+02 0.  0.
          5    1    5    5  501    0 -0.79336819799E+02 -0.12941104731E+01  0.80107149350E+00  0.79490486306E+02  0.47000000000E+01 0. -1.
        -11    1    6    6    0    0  0.39901795318E+02  0.15317769898E+02 -0.30904495310E+01  0.42852517109E+02  0.00000000000E+00 0.  1.
         12    1    6    6    0    0 -0.27340106713E+02  0.74348971789E+02 -0.32565284258E+02  0.85648985866E+02  0.00000000000E+00 0. -1.
         -5    1    3    3    0  503 -0.17969220007E+02 -0.23478012269E+01  0.57204078591E+02  0.60189713787E+02  0.47000000000E+01 0.  1.
         13    1    4    4    0    0  0.14040893255E+02 -0.70685673143E+02 -0.89964647395E+01  0.72626079674E+02  0.00000000000E+00 0. -1.
        -14    1    4    4    0    0  0.70703457946E+02 -0.15339156843E+02 -0.11124220011E+02  0.73198476548E+02  0.00000000000E+00 0.  1.
<mgrwt>
<rscale>  2 0.20444773E+03</rscale>
<asrwt>0</asrwt>
<pdfrwt beam="1">  1       21 0.32018076E-01 0.20505077E+03</pdfrwt>
<pdfrwt beam="2">  1       21 0.31675195E-01 0.20505077E+03</pdfrwt>
<totfact> 0.89437241E+04</totfact>
</mgrwt>
</event>
<event>
12    1  0.1071811E-001  0.2599692E+03  0.7546771E-02  0.1107192E+00
         21   -1    0    0  503  502  0.00000000000E+00  0.00000000000E+00  0.18467464418E+03  0.18467464418E+03  0.00000000000E+00 0.  1.
         21   -1    0    0  501  503 -0.00000000000E+00 -0.00000000000E+00 -0.48439112315E+03  0.48439112315E+03  0.00000000000E+00 0. -1.
          6    2    1    2  501    0 -0.19299080836E+03 -0.82976920967E+01  0.15706920182E+02  0.26044327100E+03  0.17398185614E+03 0.  0.
         24    2    3    3    0    0 -0.18506239233E+03  0.12173557888E+02  0.60177042394E+02  0.21062747405E+03  0.79664118812E+02 0.  0.
         -6    2    1    2    0  502  0.19299080836E+03  0.82976920967E+01 -0.31542339915E+03  0.40862249633E+03  0.17368396580E+03 0.  0.
        -24    2    5    5    0    0  0.18245988272E+03  0.22937126591E+01 -0.32871333695E+03  0.39003054618E+03  0.10380028490E+03 0.  0.
          5    1    3    3  501    0 -0.79284160266E+01 -0.20471249985E+02 -0.44470122212E+02  0.49815796954E+02  0.47000000000E+01 0. -1.
        -13    1    4    4    0    0 -0.68835603706E+02 -0.25536361267E+02  0.48251000745E+02  0.87855592635E+02  0.00000000000E+00 0.  1.
         14    1    4    4    0    0 -0.11622678862E+03  0.37709919154E+02  0.11926041649E+02  0.12277188141E+03  0.00000000000E+00 0. -1.
         -5    1    5    5    0  502  0.10530925640E+02  0.60039794376E+01  0.13289937798E+02  0.18591950156E+02  0.47000000000E+01 0.  1.
         11    1    6    6    0    0  0.12886156895E+03  0.37944364407E+02 -0.15687334529E+03  0.20652923571E+03  0.00000000000E+00 0. -1.
        -12    1    6    6    0    0  0.53598313767E+02 -0.35650651748E+02 -0.17183999166E+03  0.18350131046E+03  0.00000000000E+00 0.  1.
<mgrwt>
<rscale>  2 0.25991938E+03</rscale>
<asrwt>0</asrwt>
<pdfrwt beam="1">  1       21 0.28411484E-01 0.25996921E+03</pdfrwt>
<pdfrwt beam="2">  1       21 0.74521710E-01 0.25996921E+03</pdfrwt>
<totfact> 0.18411021E+04</totfact>
</mgrwt>
</event>
<event>
12    1  0.1071811E-001  0.2428509E+03  0.7546771E-02  0.1117922E+00
         21   -1    0    0  503  502  0.00000000000E+00  0.00000000000E+00  0.59322137022E+03  0.59322137022E+03  0.00000000000E+00 0. -1.
         21   -1    0    0  501  503 -0.00000000000E+00 -0.00000000000E+00 -0.10445895328E+03  0.10445895328E+03  0.00000000000E+00 0.  1.
          6    2    1    2  501    0 -0.15931707376E+03 -0.61454982971E+02  0.16752706693E+03  0.29502863314E+03  0.17267869381E+03 0.  0.
         24    2    3    3    0    0 -0.15360014501E+03  0.57888510520E+01  0.10364800979E+03  0.20198541507E+03  0.80179065989E+02 0.  0.
         -6    2    1    2    0  502  0.15931707376E+03  0.61454982971E+02  0.32123535000E+03  0.40265169036E+03  0.17256184032E+03 0.  0.
        -24    2    5    5    0    0  0.84958047890E+02  0.24364696555E+02  0.29049117514E+03  0.31392599869E+03  0.79705090677E+02 0.  0.
          5    1    3    3  501    0 -0.57169287480E+01 -0.67243834023E+02  0.63879057141E+02  0.93043218075E+02  0.47000000000E+01 0. -1.
        -13    1    4    4    0    0 -0.82951696469E+02  0.27947560918E+02  0.19087339887E+02  0.89590047731E+02  0.00000000000E+00 0.  1.
         14    1    4    4    0    0 -0.70648448540E+02 -0.22158709866E+02  0.84560669905E+02  0.11239536734E+03  0.00000000000E+00 0. -1.
         -5    1    5    5    0  502  0.74359025868E+02  0.37090286417E+02  0.30744174866E+02  0.88725691672E+02  0.47000000000E+01 0.  1.
         11    1    6    6    0    0  0.79056838490E+02  0.39102056544E+02  0.16195842828E+03  0.18441661267E+03  0.00000000000E+00 0. -1.
        -12    1    6    6    0    0  0.59012093995E+01 -0.14737359989E+02  0.12853274686E+03  0.12950938602E+03  0.00000000000E+00 0.  1.
<mgrwt>
<rscale>  2 0.24283016E+03</rscale>
<asrwt>0</asrwt>
<pdfrwt beam="1">  1       21 0.91264824E-01 0.24285093E+03</pdfrwt>
<pdfrwt beam="2">  1       21 0.16070609E-01 0.24285093E+03</pdfrwt>
<totfact> 0.34293399E+04</totfact>
</mgrwt>
</event>
<event>
12    1  0.1071811E-001  0.2085431E+03  0.7546771E-02  0.1142797E+00
         21   -1    0    0  503  502  0.00000000000E+00  0.00000000000E+00  0.91709239246E+02  0.91709239246E+02  0.00000000000E+00 0. -1.
         21   -1    0    0  501  503 -0.00000000000E+00 -0.00000000000E+00 -0.83671302372E+03  0.83671302372E+03  0.00000000000E+00 0.  1.
          6    2    1    2  501    0  0.10921400657E+03  0.40756666442E+02 -0.67857564562E+03  0.70989796086E+03  0.17292022121E+03 0.  0.
         24    2    3    3    0    0  0.11244909504E+03  0.73641804481E+02 -0.64128274883E+03  0.65985050086E+03  0.78046173435E+02 0.  0.
         -6    2    1    2    0  502 -0.10921400657E+03 -0.40756666442E+02 -0.66428138852E+02  0.21852430211E+03  0.17248584838E+03 0.  0.
        -24    2    5    5    0    0 -0.79415395950E+02 -0.79090949300E+02 -0.89430366778E+02  0.16459224368E+03  0.80812330755E+02 0.  0.
          5    1    3    3  501    0 -0.32350884743E+01 -0.32885138039E+02 -0.37292896788E+02  0.50047459997E+02  0.47000000000E+01 0. -1.
        -11    1    4    4    0    0  0.74208860150E+02  0.33266731486E+01 -0.26955521849E+03  0.27960335745E+03  0.00000000000E+00 0.  1.
         12    1    4    4    0    0  0.38240234894E+02  0.70315131332E+02 -0.37172753034E+03  0.38024714341E+03  0.00000000000E+00 0. -1.
         -5    1    5    5    0  502 -0.29798610620E+02  0.38334282859E+02  0.23002227926E+02  0.53932058432E+02  0.47000000000E+01 0.  1.
         13    1    6    6    0    0 -0.23331080036E+02 -0.67147186688E+02 -0.18634291787E+02  0.73486875061E+02  0.00000000000E+00 0. -1.
        -14    1    6    6    0    0 -0.56084315913E+02 -0.11943762612E+02 -0.70796074992E+02  0.91105368618E+02  0.00000000000E+00 0.  1.
<mgrwt>
<rscale>  2 0.20845299E+03</rscale>
<asrwt>0</asrwt>
<pdfrwt beam="1">  1       21 0.14109114E-01 0.20854306E+03</pdfrwt>
<pdfrwt beam="2">  1       21 0.12872508E+00 0.20854306E+03</pdfrwt>
<totfact> 0.19229514E+04</totfact>
</mgrwt>
</event>
<event>
12    1  0.1071811E-001  0.1788959E+03  0.7546771E-02  0.1169176E+00
         21   -1    0    0  503  502  0.00000000000E+00  0.00000000000E+00  0.18952987403E+03  0.18952987403E+03  0.00000000000E+00 0.  1.
         21   -1    0    0  501  503 -0.00000000000E+00 -0.00000000000E+00 -0.19888180544E+03  0.19888180544E+03  0.00000000000E+00 0.  1.
          6    2    1    2  501    0  0.17945013013E+02  0.38274312654E+02 -0.81584865436E+02  0.19662106242E+03  0.17382981741E+03 0.  0.
         24    2    3    3    0    0  0.73368575544E+02  0.51890450721E+02 -0.70989279797E+02  0.13838424474E+03  0.77686257417E+02 0.  0.
         -6    2    1    2    0  502 -0.17945013013E+02 -0.38274312654E+02  0.72232934020E+02  0.19179061704E+03  0.17256621201E+03 0.  0.
        -24    2    5    5    0    0  0.28095795781E+02  0.59916950299E+00 -0.14845647404E+02  0.85792159355E+02  0.79687945232E+02 0.  0.
          5    1    3    3  501    0 -0.55423562531E+02 -0.13616138067E+02 -0.10595585639E+02  0.58236817689E+02  0.47000000000E+01 0. -1.
        -11    1    4    4    0    0  0.82038707849E+02  0.45293943665E+02 -0.33781985124E+02  0.99614825389E+02  0.00000000000E+00 0.  1.
         12    1    4    4    0    0 -0.86701323052E+01  0.65965070557E+01 -0.37207294674E+02  0.38769419347E+02  0.00000000000E+00 0. -1.
         -5    1    5    5    0  502 -0.46040808794E+02 -0.38873482157E+02  0.87078581424E+02  0.10599845769E+03  0.47000000000E+01 0.  1.
         11    1    6    6    0    0  0.19491955493E+02 -0.37868924028E+02 -0.18019600186E+02  0.46246056338E+02  0.00000000000E+00 0. -1.
        -12    1    6    6    0    0  0.86038402878E+01  0.38468093531E+02  0.31739527819E+01  0.39546103017E+02  0.00000000000E+00 0.  1.
<mgrwt>
<rscale>  2 0.17858824E+03</rscale>
<asrwt>0</asrwt>
<pdfrwt beam="1">  1       21 0.29158442E-01 0.17889592E+03</pdfrwt>
<pdfrwt beam="2">  1       21 0.30597201E-01 0.17889592E+03</pdfrwt>
<totfact> 0.11605710E+05</totfact>
</mgrwt>
</event>
<event>
12    1  0.1071811E-001  0.1876065E+03  0.7546771E-02  0.1160897E+00
         21   -1    0    0  503  502  0.00000000000E+00  0.00000000000E+00  0.20271979626E+03  0.20271979626E+03  0.00000000000E+00 0.  1.
         21   -1    0    0  501  503 -0.00000000000E+00 -0.00000000000E+00 -0.19442047230E+03  0.19442047230E+03  0.00000000000E+00 0.  1.
          6    2    1    2  501    0 -0.72060179975E+02  0.36453471374E+01 -0.62414230534E+02  0.19664935792E+03  0.17195777303E+03 0.  0.
         24    2    3    3    0    0 -0.91049145558E+01  0.15560163764E+02 -0.95486197395E+02  0.12439167119E+03  0.77657297174E+02 0.  0.
         -6    2    1    2    0  502  0.72060179975E+02 -0.36453471374E+01  0.70713554496E+02  0.20049091064E+03  0.17317690483E+03 0.  0.
        -24    2    5    5    0    0  0.90151615118E+02  0.47953425405E+02  0.68731959486E+02  0.14557506528E+03  0.77724980923E+02 0.  0.
          5    1    3    3  501    0 -0.62955265420E+02 -0.11914816627E+02  0.33071966861E+02  0.72257686728E+02  0.47000000000E+01 0. -1.
        -13    1    4    4    0    0 -0.14994059531E+02  0.42347078208E+02 -0.31766514401E+02  0.55020071712E+02  0.00000000000E+00 0.  1.
         14    1    4    4    0    0  0.58891449755E+01 -0.26786914444E+02 -0.63719682994E+02  0.69371599483E+02  0.00000000000E+00 0. -1.
         -5    1    5    5    0  502 -0.18091435143E+02 -0.51598772543E+02  0.19815950093E+01  0.54915845366E+02  0.47000000000E+01 0.  1.
         13    1    6    6    0    0  0.79553786495E+02  0.49042255050E+02  0.84867576638E+02  0.12623966607E+03  0.00000000000E+00 0. -1.
        -14    1    6    6    0    0  0.10597828624E+02 -0.10888296450E+01 -0.16135617152E+02  0.19335399205E+02  0.00000000000E+00 0.  1.
<mgrwt>
<rscale>  2 0.18732467E+03</rscale>
<asrwt>0</asrwt>
<pdfrwt beam="1">  1       21 0.31187661E-01 0.18760650E+03</pdfrwt>
<pdfrwt beam="2">  1       21 0.29910842E-01 0.18760650E+03</pdfrwt>
<totfact> 0.10607005E+05</totfact>
</mgrwt>
</event>
<event>
12    1  0.1071811E-001  0.1866829E+03  0.7546771E-02  0.1162742E+00
         21   -1    0    0  501  502  0.00000000000E+00  0.00000000000E+00  0.74496727675E+03  0.74496727675E+03  0.00000000000E+00 0.  1.
         21   -1    0    0  502  503 -0.00000000000E+00 -0.00000000000E+00 -0.50523487433E+02  0.50523487433E+02  0.00000000000E+00 0.  1.
         -6    2    1    2    0  503 -0.54224693735E+02 -0.76149766889E+01  0.22573050245E+03  0.29292448192E+03  0.17847181035E+03 0.  0.
        -24    2    3    3    0    0 -0.10444673141E+03 -0.98169982573E+01  0.13720100344E+03  0.19100949694E+03  0.81578302382E+02 0.  0.
          6    2    1    2  501    0  0.54224693735E+02  0.76149766889E+01  0.46871328687E+03  0.50256628227E+03  0.17286531609E+03 0.  0.
         24    2    5    5    0    0 -0.18536282537E+02  0.14687095675E+01  0.37596698797E+03  0.38443118068E+03  0.78041051754E+02 0.  0.
          5    1    5    5  501    0  0.72760976273E+02  0.61462671214E+01  0.92746298900E+02  0.11813510159E+03  0.47000000000E+01 0. -1.
        -11    1    6    6    0    0 -0.37000255980E+02 -0.27059026017E+02  0.19654711084E+03  0.20182164554E+03  0.00000000000E+00 0.  1.
         12    1    6    6    0    0  0.18463973442E+02  0.28527735584E+02  0.17941987714E+03  0.18260953514E+03  0.00000000000E+00 0. -1.
         -5    1    3    3    0  503  0.50222037676E+02  0.22020215685E+01  0.88529499009E+02  0.10191498497E+03  0.47000000000E+01 0.  1.
         11    1    4    4    0    0 -0.67510821635E+02 -0.38940799928E+02  0.11518727303E+03  0.13907625536E+03  0.00000000000E+00 0. -1.
        -12    1    4    4    0    0 -0.36935909777E+02  0.29123801670E+02  0.22013730414E+02  0.51933241585E+02  0.00000000000E+00 0.  1.
<mgrwt>
<rscale>  2 0.18533012E+03</rscale>
<asrwt>0</asrwt>
<pdfrwt beam="1">  1       21 0.11461034E+00 0.18668287E+03</pdfrwt>
<pdfrwt beam="2">  1       21 0.77728447E-02 0.18668287E+03</pdfrwt>
<totfact> 0.74786680E+04</totfact>
</mgrwt>
</event>
<event>
12    1  0.1071811E-001  0.2520075E+03  0.7546771E-02  0.1112271E+00
         21   -1    0    0  503  502  0.00000000000E+00  0.00000000000E+00  0.28574972470E+03  0.28574972470E+03  0.00000000000E+00 0. -1.
         21   -1    0    0  501  503 -0.00000000000E+00 -0.00000000000E+00 -0.40560521871E+03  0.40560521871E+03  0.00000000000E+00 0.  1.
          6    2    1    2  501    0  0.13191326827E+03 -0.12485305317E+03 -0.29305949888E+03  0.38556510530E+03  0.17258964427E+03 0.  0.
         24    2    3    3    0    0  0.19061133717E+02 -0.10665509430E+03 -0.17916247921E+03  0.22412969695E+03  0.79976816251E+02 0.  0.
         -6    2    1    2    0  502 -0.13191326827E+03  0.12485305317E+03  0.17320400487E+03  0.30578983811E+03  0.17469517038E+03 0.  0.
        -24    2    5    5    0    0 -0.24781231524E+02  0.64134042810E+02  0.13880799491E+03  0.17784747992E+03  0.87377238340E+02 0.  0.
          5    1    3    3  501    0  0.11285213455E+03 -0.18197958871E+02 -0.11389701967E+03  0.16143540835E+03  0.47000000000E+01 0. -1.
        -11    1    4    4    0    0 -0.21793064702E+02 -0.21059902122E+01 -0.22390707564E+02  0.31316395851E+02  0.00000000000E+00 0.  1.
         12    1    4    4    0    0  0.40854198419E+02 -0.10454910409E+03 -0.15677177165E+03  0.19281330110E+03  0.00000000000E+00 0. -1.
         -5    1    5    5    0  502 -0.10713203675E+03  0.60719010363E+02  0.34396009952E+02  0.12794235818E+03  0.47000000000E+01 0.  1.
         11    1    6    6    0    0  0.20573051034E+02  0.42730836391E+02  0.25295060798E+02  0.53749557285E+02  0.00000000000E+00 0. -1.
        -12    1    6    6    0    0 -0.45354282558E+02  0.21403206419E+02  0.11351293412E+03  0.12409792264E+03  0.00000000000E+00 0.  1.
<mgrwt>
<rscale>  2 0.25164300E+03</rscale>
<asrwt>0</asrwt>
<pdfrwt beam="1">  1       21 0.43961496E-01 0.25200754E+03</pdfrwt>
<pdfrwt beam="2">  1       21 0.62400803E-01 0.25200754E+03</pdfrwt>
<totfact> 0.11418976E+04</totfact>
</mgrwt>
</event>
<event>
12    1  0.1071811E-001  0.1860792E+03  0.7546771E-02  0.1162478E+00
         21   -1    0    0  503  502  0.00000000000E+00  0.00000000000E+00  0.54430713333E+03  0.54430713333E+03  0.00000000000E+00 0.  1.
         21   -1    0    0  501  503 -0.00000000000E+00 -0.00000000000E+00 -0.90143780120E+02  0.90143780120E+02  0.00000000000E+00 0.  1.
          6    2    1    2  501    0 -0.52644089672E+02 -0.39964122269E+02  0.53744258272E+02  0.19368508177E+03  0.17394520504E+03 0.  0.
         24    2    3    3    0    0 -0.82434478105E+02 -0.35415764903E+02 -0.13425743392E+02  0.11991480374E+03  0.78419321505E+02 0.  0.
         -6    2    1    2    0  502  0.52644089672E+02  0.39964122269E+02  0.40041909494E+03  0.44076583168E+03  0.17196085467E+03 0.  0.
        -24    2    5    5    0    0  0.79393594518E+02  0.81301099473E+01  0.37609496639E+03  0.39236445175E+03  0.78313458052E+02 0.  0.
          5    1    3    3  501    0  0.29790388432E+02 -0.45483573655E+01  0.67170001664E+02  0.73770278034E+02  0.47000000000E+01 0. -1.
        -11    1    4    4    0    0 -0.29522062662E+00  0.17717220266E+02 -0.13187308330E+02  0.22088280833E+02  0.00000000000E+00 0.  1.
         12    1    4    4    0    0 -0.82139257478E+02 -0.53132985169E+02 -0.23843506219E+00  0.97826522903E+02  0.00000000000E+00 0. -1.
         -5    1    5    5    0  502 -0.26749504846E+02  0.31834012322E+02  0.24324128552E+02  0.48401379937E+02  0.47000000000E+01 0.  1.
         13    1    6    6    0    0  0.31794859115E+02  0.39903013868E+02  0.12887842000E+03  0.13861028362E+03  0.00000000000E+00 0. -1.
        -14    1    6    6    0    0  0.47598735403E+02 -0.31772903921E+02  0.24721654639E+03  0.25375416813E+03  0.00000000000E+00 0.  1.
<mgrwt>
<rscale>  2 0.18561405E+03</rscale>
<asrwt>0</asrwt>
<pdfrwt beam="1">  1       21 0.83739557E-01 0.18607919E+03</pdfrwt>
<pdfrwt beam="2">  1       21 0.13868274E-01 0.18607919E+03</pdfrwt>
<totfact> 0.56253374E+04</totfact>
</mgrwt>
</event>
<event>
12    1  0.1071811E-001  0.2080994E+03  0.7546771E-02  0.1143287E+00
         21   -1    0    0  501  502  0.00000000000E+00  0.00000000000E+00  0.69542854046E+03  0.69542854046E+03  0.00000000000E+00 0.  1.
         21   -1    0    0  502  503 -0.00000000000E+00 -0.00000000000E+00 -0.74621051965E+02  0.74621051965E+02  0.00000000000E+00 0.  1.
         -6    2    1    2    0  503  0.87016379572E+02 -0.73233020648E+02  0.15118486419E+03  0.25638553941E+03  0.17303686322E+03 0.  0.
        -24    2    3    3    0    0  0.68241771379E+02 -0.11246095232E+03  0.73881145773E+02  0.16756396874E+03  0.72903050420E+02 0.  0.
          6    2    1    2  501    0 -0.87016379572E+02  0.73233020648E+02  0.46962262431E+03  0.51366405301E+03  0.17427112345E+03 0.  0.
         24    2    5    5    0    0 -0.11402065449E+03  0.33517725045E+02  0.42424219602E+03  0.44742200564E+03  0.77979886553E+02 0.  0.
          5    1    5    5  501    0  0.27004274915E+02  0.39715295603E+02  0.45380428293E+02  0.66242047376E+02  0.47000000000E+01 0. -1.
        -11    1    6    6    0    0 -0.16888234854E+02  0.25977743543E+02  0.20736806261E+03  0.20967014338E+03  0.00000000000E+00 0.  1.
         12    1    6    6    0    0 -0.97132419633E+02  0.75399815015E+01  0.21687413341E+03  0.23775186226E+03  0.00000000000E+00 0. -1.
         -5    1    3    3    0  503  0.18774608193E+02  0.39227931675E+02  0.77303718415E+02  0.88821570674E+02  0.47000000000E+01 0.  1.
         11    1    4    4    0    0  0.78677878141E+00 -0.53949111410E+02  0.53476413139E+02  0.75966126695E+02  0.00000000000E+00 0. -1.
        -12    1    4    4    0    0  0.67454992597E+02 -0.58511840912E+02  0.20404732634E+02  0.91597842044E+02  0.00000000000E+00 0.  1.
<mgrwt>
<rscale>  2 0.20784076E+03</rscale>
<asrwt>0</asrwt>
<pdfrwt beam="1">  1       21 0.10698900E+00 0.20809938E+03</pdfrwt>
<pdfrwt beam="2">  1       21 0.11480162E-01 0.20809938E+03</pdfrwt>
<totfact> 0.43993378E+04</totfact>
</mgrwt>
</event>
<event>
12    1  0.1071811E-001  0.2194145E+03  0.7546771E-02  0.1137168E+00
         21   -1    0    0  501  502  0.00000000000E+00  0.00000000000E+00  0.27937990973E+03  0.27937990973E+03  0.00000000000E+00 0. -1.
         21   -1    0    0  502  503 -0.00000000000E+00 -0.00000000000E+00 -0.21509451786E+03  0.21509451786E+03  0.00000000000E+00 0. -1.
         -6    2    1    2    0  503  0.94467632309E+02 -0.95477438749E+02 -0.92635545155E+02  0.22472102617E+03  0.15452546881E+03 0.  0.
        -24    2    3    3    0    0  0.92078702610E+02 -0.96757309952E+02 -0.12051798207E+03  0.19631565091E+03  0.78579808377E+02 0.  0.
          6    2    1    2  501    0 -0.94467632309E+02  0.95477438749E+02  0.15692093702E+03  0.26975340142E+03  0.17350113037E+03 0.  0.
         24    2    5    5    0    0 -0.13047172397E+03  0.81048704190E+02  0.95245608471E+02  0.19674368188E+03  0.77746943472E+02 0.  0.
          5    1    5    5  501    0  0.36004091658E+02  0.14428734559E+02  0.61675328546E+02  0.73009719548E+02  0.47000000000E+01 0. -1.
        -11    1    6    6    0    0 -0.43677199947E+02 -0.54104539283E+01  0.48828952709E+02  0.65736119672E+02  0.00000000000E+00 0.  1.
         12    1    6    6    0    0 -0.86794524020E+02  0.86459158118E+02  0.46416655762E+02  0.13100756220E+03  0.00000000000E+00 0. -1.
         -5    1    3    3    0  503  0.23889296991E+01  0.12798712030E+01  0.27882436915E+02  0.28405375261E+02  0.47000000000E+01 0.  1.
         13    1    4    4    0    0  0.42354449739E+02 -0.44051828127E+02 -0.68177014854E+01  0.61489381421E+02  0.00000000000E+00 0. -1.
        -14    1    4    4    0    0  0.49724252871E+02 -0.52705481826E+02 -0.11370028058E+03  0.13482626948E+03  0.00000000000E+00 0.  1.
<mgrwt>
<rscale>  2 0.21564992E+03</rscale>
<asrwt>0</asrwt>
<pdfrwt beam="1">  1       21 0.42981525E-01 0.21941449E+03</pdfrwt>
<pdfrwt beam="2">  1       21 0.33091464E-01 0.21941449E+03</pdfrwt>
<totfact> 0.45177180E+04</totfact>
</mgrwt>
</event>
<event>
12    1  0.1071811E-001  0.1778514E+03  0.7546771E-02  0.1170149E+00
         21   -1    0    0  503  502  0.00000000000E+00  0.00000000000E+00  0.24354344633E+03  0.24354344633E+03  0.00000000000E+00 0. -1.
         21   -1    0    0  501  503 -0.00000000000E+00 -0.00000000000E+00 -0.13429265013E+03  0.13429265013E+03  0.00000000000E+00 0. -1.
          6    2    1    2  501    0 -0.48498471765E+01  0.32900320141E+02  0.17761419487E+02  0.17873604565E+03  0.17471449256E+03 0.  0.
         24    2    3    3    0    0 -0.36508862206E+02  0.76398933119E+02 -0.11473701643E+02  0.11732590910E+03  0.80399186039E+02 0.  0.
         -6    2    1    2    0  502  0.48498471765E+01 -0.32900320141E+02  0.91489376712E+02  0.19910005080E+03  0.17367950972E+03 0.  0.
        -24    2    5    5    0    0 -0.16186546132E+02 -0.34934551081E+02  0.13095896876E+03  0.15408220284E+03  0.71474796939E+02 0.  0.
          5    1    3    3  501    0  0.31659015030E+02 -0.43498612978E+02  0.29235121130E+02  0.61410136551E+02  0.47000000000E+01 0. -1.
        -11    1    4    4    0    0 -0.59235574958E+01  0.33193559351E+02  0.33747015047E+02  0.47704946707E+02  0.00000000000E+00 0.  1.
         12    1    4    4    0    0 -0.30585304711E+02  0.43205373768E+02 -0.45220716690E+02  0.69620962394E+02  0.00000000000E+00 0. -1.
         -5    1    5    5    0  502  0.21036393308E+02  0.20342309403E+01 -0.39469592050E+02  0.45017847967E+02  0.47000000000E+01 0.  1.
         11    1    6    6    0    0  0.82562957566E+01  0.49180875831E+01  0.93990677887E+02  0.94480693979E+02  0.00000000000E+00 0. -1.
        -12    1    6    6    0    0 -0.24442841888E+02 -0.39852638664E+02  0.36968290875E+02  0.59601508859E+02  0.00000000000E+00 0.  1.
<mgrwt>
<rscale>  2 0.17759666E+03</rscale>
<asrwt>0</asrwt>
<pdfrwt beam="1">  1       21 0.37468222E-01 0.17785136E+03</pdfrwt>
<pdfrwt beam="2">  1       21 0.20660408E-01 0.17785136E+03</pdfrwt>
<totfact> 0.14994213E+05</totfact>
</mgrwt>
</event>
<event>
12    1  0.1071811E-001  0.1922802E+03  0.7546771E-02  0.1156433E+00
         21   -1    0    0  503  502  0.00000000000E+00  0.00000000000E+00  0.21080275965E+02  0.21080275965E+02  0.00000000000E+00 0. -1.
         21   -1    0    0  501  503 -0.00000000000E+00 -0.00000000000E+00 -0.17594048883E+04  0.17594048883E+04  0.00000000000E+00 0. -1.
          6    2    1    2  501    0  0.62607240981E+02  0.55068824575E+02 -0.92149089337E+03  0.94133794639E+03  0.17326113438E+03 0.  0.
         24    2    3    3    0    0  0.10726280076E+03  0.60051315797E+02 -0.67370345633E+03  0.68946566091E+03  0.79844107790E+02 0.  0.
         -6    2    1    2    0  502 -0.62607240981E+02 -0.55068824575E+02 -0.81683371893E+03  0.83914721784E+03  0.17320071237E+03 0.  0.
        -24    2    5    5    0    0 -0.79335083296E+02  0.83795114183E+01 -0.41693176075E+03  0.43387054912E+03  0.89706681036E+02 0.  0.
          5    1    3    3  501    0 -0.44655559775E+02 -0.49824912213E+01 -0.24778743705E+03  0.25187228548E+03  0.47000000000E+01 0. -1.
        -11    1    4    4    0    0  0.65522154002E+01  0.43658451577E+02 -0.18081745205E+03  0.18612883411E+03  0.00000000000E+00 0.  1.
         12    1    4    4    0    0  0.10071058536E+03  0.16392864220E+02 -0.49288600428E+03  0.50333682680E+03  0.00000000000E+00 0. -1.
         -5    1    5    5    0  502  0.16727842315E+02 -0.63448335994E+02 -0.39990195818E+03  0.40527666872E+03  0.47000000000E+01 0.  1.
         11    1    6    6    0    0 -0.79962844626E+02  0.14832096187E+02 -0.41918942021E+03  0.42700564120E+03  0.00000000000E+00 0. -1.
        -12    1    6    6    0    0  0.62776132929E+00 -0.64525847683E+01  0.22576594680E+01  0.68649079201E+01  0.00000000000E+00 0.  1.
<mgrwt>
<rscale>  2 0.19226655E+03</rscale>
<asrwt>0</asrwt>
<pdfrwt beam="1">  1       21 0.32431189E-02 0.19228017E+03</pdfrwt>
<pdfrwt beam="2">  1       21 0.27067771E+00 0.19228017E+03</pdfrwt>
<totfact> 0.28021335E+04</totfact>
</mgrwt>
</event>
<event>
12    1  0.1071811E-001  0.1974078E+03  0.7546771E-02  0.1151981E+00
         21   -1    0    0  503  502  0.00000000000E+00  0.00000000000E+00  0.52014424778E+03  0.52014424778E+03  0.00000000000E+00 0.  1.
         21   -1    0    0  501  503 -0.00000000000E+00 -0.00000000000E+00 -0.74979333003E+02  0.74979333003E+02  0.00000000000E+00 0. -1.
          6    2    1    2  501    0 -0.74747443002E+02 -0.58725758397E+02  0.21068036572E+03  0.28871451745E+03  0.17301433800E+03 0.  0.
         24    2    3    3    0    0 -0.36084691872E+02  0.81164145495E+00  0.19838144627E+03  0.21651435315E+03  0.78870166379E+02 0.  0.
         -6    2    1    2    0  502  0.74747443002E+02  0.58725758397E+02  0.23448454906E+03  0.30640906333E+03  0.17282249682E+03 0.  0.
        -24    2    5    5    0    0 -0.11153973886E+02  0.72759373680E+02  0.11892765965E+03  0.16166280096E+03  0.81072408323E+02 0.  0.
          5    1    3    3  501    0 -0.38662751130E+02 -0.59537399852E+02  0.12298919444E+02  0.72200164304E+02  0.47000000000E+01 0. -1.
        -11    1    4    4    0    0 -0.35006419264E+02 -0.27181737126E+02  0.56067213400E+02  0.71469074720E+02  0.00000000000E+00 0.  1.
         12    1    4    4    0    0 -0.10782726086E+01  0.27993378581E+02  0.14231423287E+03  0.14504527843E+03  0.00000000000E+00 0. -1.
         -5    1    5    5    0  502  0.85901416888E+02 -0.14033615283E+02  0.11555688941E+03  0.14474626237E+03  0.47000000000E+01 0.  1.
         13    1    6    6    0    0 -0.19762845415E+02 -0.11014597682E+02  0.12180804106E+02  0.25695591250E+02  0.00000000000E+00 0. -1.
        -14    1    6    6    0    0  0.86088715292E+01  0.83773971362E+02  0.10674685555E+03  0.13596720971E+03  0.00000000000E+00 0.  1.
<mgrwt>
<rscale>  2 0.19736580E+03</rscale>
<asrwt>0</asrwt>
<pdfrwt beam="1">  1       21 0.80022190E-01 0.19740784E+03</pdfrwt>
<pdfrwt beam="2">  1       21 0.11535282E-01 0.19740784E+03</pdfrwt>
<totfact> 0.86377158E+04</totfact>
</mgrwt>
</event>
<event>
12    1  0.1071811E-001  0.1906595E+03  0.7546771E-02  0.1158138E+00
         21   -1    0    0  501  502  0.00000000000E+00  0.00000000000E+00  0.62423818692E+02  0.62423818692E+02  0.00000000000E+00 0.  1.
         21   -1    0    0  502  503 -0.00000000000E+00 -0.00000000000E+00 -0.57909111359E+03  0.57909111359E+03  0.00000000000E+00 0.  1.
         -6    2    1    2    0  503 -0.25466931333E+02  0.71106148501E+02 -0.24883297221E+03  0.31275019830E+03  0.17375324322E+03 0.  0.
        -24    2    3    3    0    0 -0.49247384598E+02  0.50473687427E+02 -0.61121248476E+02  0.12235852402E+03  0.79138507517E+02 0.  0.
          6    2    1    2  501    0  0.25466931333E+02 -0.71106148501E+02 -0.26783432268E+03  0.32876473398E+03  0.17506106637E+03 0.  0.
         24    2    5    5    0    0  0.15421070753E+02  0.78949100310E+01 -0.52105598147E+02  0.98758083745E+02  0.82085484217E+02 0.  0.
          5    1    5    5  501    0  0.10045860580E+02 -0.79001058532E+02 -0.21572872454E+03  0.23000665024E+03  0.47000000000E+01 0. -1.
        -11    1    6    6    0    0  0.31065685828E+02 -0.29760695192E+02 -0.24376835130E+02  0.49447000974E+02  0.00000000000E+00 0.  1.
         12    1    6    6    0    0 -0.15644615075E+02  0.37655605223E+02 -0.27728763017E+02  0.49311082771E+02  0.00000000000E+00 0. -1.
         -5    1    3    3    0  503  0.23780453265E+02  0.20632461073E+02 -0.18771172374E+03  0.19039167428E+03  0.47000000000E+01 0.  1.
         11    1    4    4    0    0  0.43530648698E+01 -0.79647121968E+01  0.11624321333E+02  0.14748242627E+02  0.00000000000E+00 0. -1.
        -12    1    4    4    0    0 -0.53600449468E+02  0.58438399624E+02 -0.72745569810E+02  0.10761028139E+03  0.00000000000E+00 0.  1.
<mgrwt>
<rscale>  2 0.19035871E+03</rscale>
<asrwt>0</asrwt>
<pdfrwt beam="1">  1       21 0.96036647E-02 0.19065945E+03</pdfrwt>
<pdfrwt beam="2">  1       21 0.89090938E-01 0.19065945E+03</pdfrwt>
<totfact> 0.93807530E+04</totfact>
</mgrwt>
</event>
<event>
12    1  0.1071811E-001  0.2029656E+03  0.7546771E-02  0.1147530E+00
         21   -1    0    0  503  502  0.00000000000E+00  0.00000000000E+00  0.28082573789E+03  0.28082573789E+03  0.00000000000E+00 0. -1.
         21   -1    0    0  501  503 -0.00000000000E+00 -0.00000000000E+00 -0.15512751989E+03  0.15512751989E+03  0.00000000000E+00 0. -1.
          6    2    1    2  501    0  0.11549691330E+02  0.10586902936E+03  0.90825929326E+01  0.20187154036E+03  0.17125413445E+03 0.  0.
         24    2    3    3    0    0  0.54642069303E+02  0.46212435608E+02  0.47933928680E+02  0.11852060451E+03  0.81413311152E+02 0.  0.
         -6    2    1    2    0  502 -0.11549691330E+02 -0.10586902936E+03  0.11661562507E+03  0.23408171742E+03  0.17278136378E+03 0.  0.
        -24    2    5    5    0    0  0.23319031522E+02 -0.13061846387E+03  0.11154097566E+03  0.19076654215E+03  0.79658797501E+02 0.  0.
          5    1    3    3  501    0 -0.43092377972E+02  0.59656593752E+02 -0.38851335747E+02  0.83350935848E+02  0.47000000000E+01 0. -1.
        -13    1    4    4    0    0  0.15457302937E+02 -0.48657584651E+01  0.51554765489E+02  0.54041628993E+02  0.00000000000E+00 0.  1.
         14    1    4    4    0    0  0.39184766366E+02  0.51078194073E+02 -0.36208368094E+01  0.64478975520E+02  0.00000000000E+00 0. -1.
         -5    1    5    5    0  502 -0.34868722852E+02  0.24749434505E+02  0.50746494105E+01  0.43315175266E+02  0.47000000000E+01 0.  1.
         11    1    6    6    0    0  0.41451456853E+02 -0.94250140267E+02  0.10916232957E+03  0.15005907641E+03  0.00000000000E+00 0. -1.
        -12    1    6    6    0    0 -0.18132425331E+02 -0.36368323598E+02  0.23786460871E+01  0.40707465740E+02  0.00000000000E+00 0.  1.
<mgrwt>
<rscale>  2 0.20264022E+03</rscale>
<asrwt>0</asrwt>
<pdfrwt beam="1">  1       21 0.43203960E-01 0.20296563E+03</pdfrwt>
<pdfrwt beam="2">  1       21 0.23865772E-01 0.20296563E+03</pdfrwt>
<totfact> 0.84860429E+04</totfact>
</mgrwt>
</event>
<event>
12    1  0.1071811E-001  0.1994539E+03  0.7546771E-02  0.1150894E+00
         21   -1    0    0  501  502  0.00000000000E+00  0.00000000000E+00  0.90711338274E+03  0.90711338274E+03  0.00000000000E+00 0.  1.
         21   -1    0    0  502  503 -0.00000000000E+00 -0.00000000000E+00 -0.52976801817E+02  0.52976801817E+02  0.00000000000E+00 0.  1.
         -6    2    1    2    0  503  0.96402278109E+02 -0.17481616012E+01  0.22312084239E+03  0.29927374366E+03  0.17460071032E+03 0.  0.
        -24    2    3    3    0    0  0.30604642904E+02  0.18723730525E+01  0.21387521663E+03  0.23256535839E+03  0.86045846436E+02 0.  0.
          6    2    1    2  501    0 -0.96402278109E+02  0.17481616012E+01  0.63101573854E+03  0.66081644090E+03  0.17088315010E+03 0.  0.
         24    2    5    5    0    0 -0.12930158274E+03  0.84369128446E+01  0.41492762433E+03  0.44208540346E+03  0.80526329362E+02 0.  0.
          5    1    5    5  501    0  0.32899304632E+02 -0.66887512434E+01  0.21608811421E+03  0.21873103744E+03  0.47000000000E+01 0. -1.
        -13    1    6    6    0    0 -0.71885519037E+02 -0.28745506084E+02  0.28402589283E+03  0.29438841650E+03  0.00000000000E+00 0.  1.
         14    1    6    6    0    0 -0.57416063704E+02  0.37182418929E+02  0.13090173149E+03  0.14769698696E+03  0.00000000000E+00 0. -1.
         -5    1    3    3    0  503  0.65797635204E+02 -0.36205346537E+01  0.92456257641E+01  0.66708385271E+02  0.47000000000E+01 0.  1.
         11    1    4    4    0    0 -0.11697488878E+02  0.30631401900E+02  0.13210790460E+03  0.13611617276E+03  0.00000000000E+00 0. -1.
        -12    1    4    4    0    0  0.42302131782E+02 -0.28759028847E+02  0.81767312028E+02  0.96449185636E+02  0.00000000000E+00 0.  1.
<mgrwt>
<rscale>  2 0.19863739E+03</rscale>
<asrwt>0</asrwt>
<pdfrwt beam="1">  1       21 0.13955589E+00 0.19945391E+03</pdfrwt>
<pdfrwt beam="2">  1       21 0.81502779E-02 0.19945391E+03</pdfrwt>
<totfact> 0.41749497E+04</totfact>
</mgrwt>
</event>
<event>
12    1  0.1071811E-001  0.2061132E+03  0.7546771E-02  0.1145166E+00
         21   -1    0    0  503  502  0.00000000000E+00  0.00000000000E+00  0.47270720219E+03  0.47270720219E+03  0.00000000000E+00 0. -1.
         21   -1    0    0  501  503 -0.00000000000E+00 -0.00000000000E+00 -0.45197679885E+03  0.45197679885E+03  0.00000000000E+00 0. -1.
          6    2    1    2  501    0 -0.52910917041E+02 -0.99071211417E+02 -0.40404244232E+03  0.45357792504E+03  0.17282351928E+03 0.  0.
         24    2    3    3    0    0 -0.70460752582E+02 -0.30348090384E+02 -0.13328684933E+03  0.17364660270E+03  0.80635191949E+02 0.  0.
         -6    2    1    2    0  502  0.52910917041E+02  0.99071211417E+02  0.42477284566E+03  0.47110607600E+03  0.16998321787E+03 0.  0.
        -24    2    5    5    0    0  0.30934001551E+02  0.24365622216E+02  0.85699836510E+02  0.12317432205E+03  0.79226609394E+02 0.  0.
          5    1    3    3  501    0  0.17549835541E+02 -0.68723121033E+02 -0.27075559300E+03  0.27993132235E+03  0.47000000000E+01 0. -1.
        -11    1    4    4    0    0 -0.17388680216E+02  0.18801348425E+02 -0.45944946906E+01  0.26018575744E+02  0.00000000000E+00 0.  1.
         12    1    4    4    0    0 -0.53072072366E+02 -0.49149438810E+02 -0.12869235464E+03  0.14762802695E+03  0.00000000000E+00 0. -1.
         -5    1    5    5    0  502  0.21976915490E+02  0.74705589201E+02  0.33907300915E+03  0.34793175395E+03  0.47000000000E+01 0.  1.
         13    1    6    6    0    0  0.33302569933E+02  0.51228009396E+02  0.53876468764E+02  0.81461917467E+02  0.00000000000E+00 0. -1.
        -14    1    6    6    0    0 -0.23685683826E+01 -0.26862387180E+02  0.31823367745E+02  0.41712404580E+02  0.00000000000E+00 0.  1.
<mgrwt>
<rscale>  2 0.20551667E+03</rscale>
<asrwt>0</asrwt>
<pdfrwt beam="1">  1       21 0.72724185E-01 0.20611317E+03</pdfrwt>
<pdfrwt beam="2">  1       21 0.69534892E-01 0.20611317E+03</pdfrwt>
<totfact> 0.31661686E+03</totfact>
</mgrwt>
</event>
<event>
12    1  0.1071811E-001  0.1997728E+03  0.7546771E-02  0.1149931E+00
         21   -1    0    0  503  502  0.00000000000E+00  0.00000000000E+00  0.89343835881E+02  0.89343835881E+02  0.00000000000E+00 0. -1.
         21   -1    0    0  501  503 -0.00000000000E+00 -0.00000000000E+00 -0.47300120760E+03  0.47300120760E+03  0.00000000000E+00 0.  1.
          6    2    1    2  501    0 -0.47928683910E+02  0.87429531651E+02 -0.25814427708E+03  0.32641559225E+03  0.17311149391E+03 0.  0.
         24    2    3    3    0    0 -0.56295980213E+02 -0.10947918233E+02 -0.12491968305E+03  0.16052702498E+03  0.82915042272E+02 0.  0.
         -6    2    1    2    0  502  0.47928683910E+02 -0.87429531651E+02 -0.12551309463E+03  0.23592945123E+03  0.17311293218E+03 0.  0.
        -24    2    5    5    0    0  0.42068997846E+02 -0.12339933309E+03 -0.12674992127E+03  0.19916285938E+03  0.81259498085E+02 0.  0.
          5    1    3    3  501    0  0.83672963035E+01  0.98377449884E+02 -0.13322459404E+03  0.16588856727E+03  0.47000000000E+01 0. -1.
        -13    1    4    4    0    0 -0.23616263381E+01 -0.26567279575E+02 -0.91221414197E+02  0.95040749319E+02  0.00000000000E+00 0.  1.
         14    1    4    4    0    0 -0.53934353875E+02  0.15619361342E+02 -0.33698268850E+02  0.65486275663E+02  0.00000000000E+00 0. -1.
         -5    1    5    5    0  502  0.58596860639E+01  0.35969801435E+02  0.12368266414E+01  0.36766591848E+02  0.47000000000E+01 0.  1.
         13    1    6    6    0    0  0.16080340032E+02 -0.88190436223E+02 -0.32686039352E+02  0.95417543173E+02  0.00000000000E+00 0. -1.
        -14    1    6    6    0    0  0.25988657814E+02 -0.35208896863E+02 -0.94063881922E+02  0.10374531621E+03  0.00000000000E+00 0.  1.
<mgrwt>
<rscale>  2 0.19977248E+03</rscale>
<asrwt>0</asrwt>
<pdfrwt beam="1">  1       21 0.13745205E-01 0.19977279E+03</pdfrwt>
<pdfrwt beam="2">  1       21 0.72769417E-01 0.19977279E+03</pdfrwt>
<totfact> 0.77919140E+04</totfact>
</mgrwt>
</event>
<event>
12    1  0.1071811E-001  0.2614452E+03  0.7546771E-02  0.1106749E+00
         21   -1    0    0  501  502  0.00000000000E+00  0.00000000000E+00  0.14782475175E+04  0.14782475175E+04  0.00000000000E+00 0.  1.
         21   -1    0    0  502  503 -0.00000000000E+00 -0.00000000000E+00 -0.20031393778E+03  0.20031393778E+03  0.00000000000E+00 0. -1.
         -6    2    1    2    0  503  0.19019539017E+03  0.22423952605E+02 -0.99295905166E+02  0.27673599455E+03  0.17333786027E+03 0.  0.
        -24    2    3    3    0    0  0.20730430855E+03  0.25086184268E+02 -0.55888240135E+02  0.22976666467E+03  0.77877030142E+02 0.  0.
          6    2    1    2  501    0 -0.19019539017E+03 -0.22423952605E+02  0.13772294849E+04  0.14018254607E+04  0.17797878591E+03 0.  0.
         24    2    5    5    0    0 -0.12961645263E+03 -0.48189723809E+02  0.12312300276E+04  0.12416018228E+04  0.80777664752E+02 0.  0.
          5    1    5    5  501    0 -0.60578937545E+02  0.25765771203E+02  0.14599945723E+03  0.16022363793E+03  0.47000000000E+01 0. -1.
        -13    1    6    6    0    0 -0.12010451886E+03 -0.11896353776E+02  0.10137400989E+04  0.10208994107E+04  0.00000000000E+00 0.  1.
         14    1    6    6    0    0 -0.95119337736E+01 -0.36293370033E+02  0.21748992876E+03  0.22070241210E+03  0.00000000000E+00 0. -1.
         -5    1    3    3    0  503 -0.17108918380E+02 -0.26622316625E+01 -0.43407665032E+02  0.46969329877E+02  0.47000000000E+01 0.  1.
         11    1    4    4    0    0  0.52022858039E+02 -0.26148755835E+02 -0.24971936689E+02  0.63354027593E+02  0.00000000000E+00 0. -1.
        -12    1    4    4    0    0  0.15528145052E+03  0.51234940103E+02 -0.30916303445E+02  0.16641263708E+03  0.00000000000E+00 0.  1.
<mgrwt>
<rscale>  2 0.26065737E+03</rscale>
<asrwt>0</asrwt>
<pdfrwt beam="1">  1       21 0.22742269E+00 0.26144515E+03</pdfrwt>
<pdfrwt beam="2">  1       21 0.30817530E-01 0.26144515E+03</pdfrwt>
<totfact> 0.85340538E+02</totfact>
</mgrwt>
</event>
<event>
12    1  0.1071811E-001  0.1841904E+03  0.7546771E-02  0.1164226E+00
         21   -1    0    0  501  502  0.00000000000E+00  0.00000000000E+00  0.66156017918E+03  0.66156017918E+03  0.00000000000E+00 0.  1.
         21   -1    0    0  502  503 -0.00000000000E+00 -0.00000000000E+00 -0.72794853857E+02  0.72794853857E+02  0.00000000000E+00 0.  1.
         -6    2    1    2    0  503 -0.18411740887E+02  0.56837242180E+02  0.93500575052E+02  0.20656342904E+03  0.17423153670E+03 0.  0.
        -24    2    3    3    0    0 -0.11571496995E+02  0.19136606238E+02 -0.20957563645E+02  0.85770704089E+02  0.80107958188E+02 0.  0.
          6    2    1    2  501    0  0.18411740887E+02 -0.56837242180E+02  0.49526475027E+03  0.52779160400E+03  0.17235817384E+03 0.  0.
         24    2    5    5    0    0  0.14695234696E+02  0.13250633182E+02  0.40450189360E+03  0.41296082048E+03  0.80767122811E+02 0.  0.
          5    1    5    5  501    0  0.37165061920E+01 -0.70087875361E+02  0.90762856669E+02  0.11483078351E+03  0.47000000000E+01 0. -1.
        -11    1    6    6    0    0  0.42076263651E+02  0.12300287701E+02  0.13208155775E+03  0.13916625646E+03  0.00000000000E+00 0.  1.
         12    1    6    6    0    0 -0.27381028955E+02  0.95034548123E+00  0.27242033585E+03  0.27379456402E+03  0.00000000000E+00 0. -1.
         -5    1    3    3    0  503 -0.68402438928E+01  0.37700635941E+02  0.11445813870E+03  0.12079272495E+03  0.47000000000E+01 0.  1.
         13    1    4    4    0    0 -0.18429213886E+02  0.37646889476E+02 -0.40291016366E+02  0.58140263256E+02  0.00000000000E+00 0. -1.
        -14    1    4    4    0    0  0.68577168918E+01 -0.18510283238E+02  0.19333452721E+02  0.27630440833E+02  0.00000000000E+00 0.  1.
<mgrwt>
<rscale>  2 0.18374600E+03</rscale>
<asrwt>0</asrwt>
<pdfrwt beam="1">  1       21 0.10177849E+00 0.18419037E+03</pdfrwt>
<pdfrwt beam="2">  1       21 0.11199209E-01 0.18419037E+03</pdfrwt>
<totfact> 0.52472124E+04</totfact>
</mgrwt>
</event>
<event>
12    1  0.1071811E-001  0.1880424E+03  0.7546771E-02  0.1161063E+00
         21   -1    0    0  503  502  0.00000000000E+00  0.00000000000E+00  0.21915762966E+03  0.21915762966E+03  0.00000000000E+00 0. -1.
         21   -1    0    0  501  503 -0.00000000000E+00 -0.00000000000E+00 -0.26151726996E+03  0.26151726996E+03  0.00000000000E+00 0. -1.
          6    2    1    2  501    0  0.51818581172E+02 -0.39613702460E+02 -0.17229147500E+03  0.25503780566E+03  0.17636756839E+03 0.  0.
         24    2    3    3    0    0  0.48471872442E+01 -0.87839417375E+02 -0.90326749251E+02  0.14886653980E+03  0.79139538623E+02 0.  0.
         -6    2    1    2    0  502 -0.51818581172E+02  0.39613702460E+02  0.12993183471E+03  0.22563709396E+03  0.17255551491E+03 0.  0.
        -24    2    5    5    0    0 -0.61637532595E+02  0.78068893925E+02  0.13392671133E+03  0.18547165363E+03  0.81052036804E+02 0.  0.
          5    1    3    3  501    0  0.46971393928E+02  0.48225714914E+02 -0.81964725745E+02  0.10617126585E+03  0.47000000000E+01 0. -1.
        -11    1    4    4    0    0  0.36447976226E+02 -0.62737758835E+02 -0.78314109567E+02  0.10675945444E+03  0.00000000000E+00 0.  1.
         12    1    4    4    0    0 -0.31600788982E+02 -0.25101658539E+02 -0.12012639685E+02  0.42107085364E+02  0.00000000000E+00 0. -1.
         -5    1    5    5    0  502  0.98189514230E+01 -0.38455191465E+02 -0.39948766283E+01  0.40165440330E+02  0.47000000000E+01 0.  1.
         11    1    6    6    0    0 -0.35787070706E+02  0.66208224436E+02  0.13755657201E+03  0.15679940662E+03  0.00000000000E+00 0. -1.
        -12    1    6    6    0    0 -0.25850461889E+02  0.11860669489E+02 -0.36298606729E+01  0.28672247019E+02  0.00000000000E+00 0.  1.
<mgrwt>
<rscale>  2 0.18714327E+03</rscale>
<asrwt>0</asrwt>
<pdfrwt beam="1">  1       21 0.33716558E-01 0.18804236E+03</pdfrwt>
<pdfrwt beam="2">  1       21 0.40233426E-01 0.18804236E+03</pdfrwt>
<totfact> 0.50553324E+04</totfact>
</mgrwt>
</event>
<event>
12    1  0.1071811E-001  0.2263255E+03  0.7546771E-02  0.1129265E+00
         21   -1    0    0  503  502  0.00000000000E+00  0.00000000000E+00  0.43454016072E+03  0.43454016072E+03  0.00000000000E+00 0.  1.
         21   -1    0    0  501  503 -0.00000000000E+00 -0.00000000000E+00 -0.16040724538E+03  0.16040724538E+03  0.00000000000E+00 0. -1.
          6    2    1    2  501    0 -0.18333244754E+02  0.14439363518E+03 -0.16183441627E+02  0.22683490240E+03  0.17322395741E+03 0.  0.
         24    2    3    3    0    0  0.44975602942E+02  0.11883467311E+03  0.15851138481E+02  0.15127317227E+03  0.80547064896E+02 0.  0.
         -6    2    1    2    0  502  0.18333244754E+02 -0.14439363518E+03  0.29031635696E+03  0.36811250370E+03  0.17331358434E+03 0.  0.
        -24    2    5    5    0    0 -0.25542004163E+02 -0.13591202068E+03  0.28058561836E+03  0.32213693926E+03  0.76937942921E+02 0.  0.
          5    1    3    3  501    0 -0.63308847696E+02  0.25558962069E+02 -0.32034580108E+02  0.75561730137E+02  0.47000000000E+01 0. -1.
        -11    1    4    4    0    0 -0.82564989998E+01  0.37928298960E+02  0.35328201804E+02  0.52486259920E+02  0.00000000000E+00 0.  1.
         12    1    4    4    0    0  0.53232101942E+02  0.80906374150E+02 -0.19477063323E+02  0.98786912347E+02  0.00000000000E+00 0. -1.
         -5    1    5    5    0  502  0.43875248917E+02 -0.84816145031E+01  0.97307385973E+01  0.45975564442E+02  0.47000000000E+01 0.  1.
         11    1    6    6    0    0  0.13359435647E+01 -0.53043861045E+02  0.40550810831E+02  0.66781765467E+02  0.00000000000E+00 0. -1.
        -12    1    6    6    0    0 -0.26877947728E+02 -0.82868159631E+02  0.24003480753E+03  0.25535517379E+03  0.00000000000E+00 0.  1.
<mgrwt>
<rscale>  2 0.22630833E+03</rscale>
<asrwt>0</asrwt>
<pdfrwt beam="1">  1       21 0.66852332E-01 0.22632549E+03</pdfrwt>
<pdfrwt beam="2">  1       21 0.24678038E-01 0.22632549E+03</pdfrwt>
<totfact> 0.31267406E+04</totfact>
</mgrwt>
</event>
<event>
12    1  0.1071811E-001  0.2701799E+03  0.7546771E-02  0.1101239E+00
         21   -1    0    0  501  502  0.00000000000E+00  0.00000000000E+00  0.14712077995E+04  0.14712077995E+04  0.00000000000E+00 0. -1.
         21   -1    0    0  502  503 -0.00000000000E+00 -0.00000000000E+00 -0.68225084068E+02  0.68225084068E+02  0.00000000000E+00 0. -1.
         -6    2    1    2    0  503  0.71128365161E+02  0.19386677117E+03  0.29905357443E+03  0.40302633778E+03  0.17422290111E+03 0.  0.
        -24    2    3    3    0    0  0.50822600048E+02  0.19470565064E+03  0.31109348614E+03  0.37894154404E+03  0.79525528096E+02 0.  0.
          6    2    1    2  501    0 -0.71128365161E+02 -0.19386677117E+03  0.11039291410E+04  0.11364065458E+04  0.17354169430E+03 0.  0.
         24    2    5    5    0    0 -0.28568595490E+02 -0.56060107477E+02  0.70267376826E+03  0.70999128492E+03  0.79864258289E+02 0.  0.
          5    1    5    5  501    0 -0.42559769671E+02 -0.13780666369E+03  0.40125537271E+03  0.42641526084E+03  0.47000000000E+01 0. -1.
        -11    1    6    6    0    0  0.52054164318E+01  0.14348493540E+02  0.41426513818E+02  0.44148971383E+02  0.00000000000E+00 0.  1.
         12    1    6    6    0    0 -0.33774011922E+02 -0.70408601017E+02  0.66124725445E+03  0.66584231353E+03  0.00000000000E+00 0. -1.
         -5    1    3    3    0  503  0.20305765112E+02 -0.83887947364E+00 -0.12039911703E+02  0.24084793738E+02  0.47000000000E+01 0.  1.
         11    1    4    4    0    0  0.68363074948E+02  0.11617553209E+03  0.17584048336E+03  0.22156294785E+03  0.00000000000E+00 0. -1.
        -12    1    4    4    0    0 -0.17540474900E+02  0.78530118553E+02  0.13525300277E+03  0.15737859619E+03  0.00000000000E+00 0.  1.
<mgrwt>
<rscale>  2 0.27007016E+03</rscale>
<asrwt>0</asrwt>
<pdfrwt beam="1">  1       21 0.22633964E+00 0.27017992E+03</pdfrwt>
<pdfrwt beam="2">  1       21 0.10496168E-01 0.27017992E+03</pdfrwt>
<totfact> 0.64352811E+03</totfact>
</mgrwt>
</event>
<event>
12    1  0.1071811E-001  0.3214575E+03  0.7546771E-02  0.1075776E+00
         21   -1    0    0  501  502  0.00000000000E+00  0.00000000000E+00  0.48001330882E+03  0.48001330882E+03  0.00000000000E+00 0. -1.
         21   -1    0    0  502  503 -0.00000000000E+00 -0.00000000000E+00 -0.21245230207E+03  0.21245230207E+03  0.00000000000E+00 0.  1.
         -6    2    1    2    0  503 -0.69946232775E+02  0.26045720840E+03  0.16667292833E+03  0.36209774719E+03  0.17494136331E+03 0.  0.
        -24    2    3    3    0    0 -0.71917808129E+02  0.15270634917E+03  0.31800134730E+02  0.18939309982E+03  0.79794094297E+02 0.  0.
          6    2    1    2  501    0  0.69946232775E+02 -0.26045720840E+03  0.10088807843E+03  0.33036786370E+03  0.16196940485E+03 0.  0.
         24    2    5    5    0    0  0.72307287122E+02 -0.20734909553E+03  0.21898963304E+02  0.23503992163E+03  0.80883922868E+02 0.  0.
          5    1    5    5  501    0 -0.23610543469E+01 -0.53108112869E+02  0.78989115123E+02  0.95327942063E+02  0.47000000000E+01 0. -1.
        -11    1    6    6    0    0  0.42090962699E+02 -0.25383932209E+02  0.10288445073E+02  0.50217977432E+02  0.00000000000E+00 0.  1.
         12    1    6    6    0    0  0.30216324423E+02 -0.18196516332E+03  0.11610518231E+02  0.18482194420E+03  0.00000000000E+00 0. -1.
         -5    1    3    3    0  503  0.19715753537E+01  0.10775085923E+03  0.13487279360E+03  0.17270464738E+03  0.47000000000E+01 0.  1.
         11    1    4    4    0    0  0.11583553098E+02  0.15428506279E+02  0.20752089440E+02  0.28334902938E+02  0.00000000000E+00 0. -1.
        -12    1    4    4    0    0 -0.83501361227E+02  0.13727784290E+03  0.11048045290E+02  0.16105819688E+03  0.00000000000E+00 0.  1.
<mgrwt>
<rscale>  2 0.31972574E+03</rscale>
<asrwt>0</asrwt>
<pdfrwt beam="1">  1       21 0.73848201E-01 0.32145748E+03</pdfrwt>
<pdfrwt beam="2">  1       21 0.32684970E-01 0.32145748E+03</pdfrwt>
<totfact> 0.13880220E+04</totfact>
</mgrwt>
</event>
<event>
12    1  0.1071811E-001  0.2282563E+03  0.7546771E-02  0.1128082E+00
         21   -1    0    0  501  502  0.00000000000E+00  0.00000000000E+00  0.21049730779E+03  0.21049730779E+03  0.00000000000E+00 0.  1.
         21   -1    0    0  502  503 -0.00000000000E+00 -0.00000000000E+00 -0.27042744919E+03  0.27042744919E+03  0.00000000000E+00 0.  1.
         -6    2    1    2    0  503  0.28422199771E+02  0.14451321346E+03 -0.10180012364E+03  0.24886007221E+03  0.17284727381E+03 0.  0.
        -24    2    3    3    0    0 -0.50549170349E+02  0.89291586840E+02 -0.49322053507E+02  0.13903319394E+03  0.79808257416E+02 0.  0.
          6    2    1    2  501    0 -0.28422199771E+02 -0.14451321346E+03  0.41869982239E+02  0.23206468478E+03  0.17438185744E+03 0.  0.
         24    2    5    5    0    0  0.15786580795E+02 -0.48218810979E+01  0.68761284215E+01  0.81350569904E+02  0.79360994267E+02 0.  0.
          5    1    5    5  501    0 -0.44208780566E+02 -0.13969133237E+03  0.34993853818E+02  0.15071411487E+03  0.47000000000E+01 0. -1.
        -11    1    6    6    0    0 -0.17684268857E+02 -0.13022607827E+02  0.31923766237E+02  0.38748529396E+02  0.00000000000E+00 0.  1.
         12    1    6    6    0    0  0.33470849652E+02  0.82007267290E+01 -0.25047637815E+02  0.42602040508E+02  0.00000000000E+00 0. -1.
         -5    1    3    3    0  503  0.78971370120E+02  0.55221626624E+02 -0.52478070134E+02  0.10982687827E+03  0.47000000000E+01 0.  1.
         11    1    4    4    0    0 -0.20673578824E+02  0.16803494726E+02  0.20837021243E+02  0.33822119252E+02  0.00000000000E+00 0. -1.
        -12    1    4    4    0    0 -0.29875591525E+02  0.72488092114E+02 -0.70159074750E+02  0.10521107469E+03  0.00000000000E+00 0.  1.
<mgrwt>
<rscale>  2 0.22796315E+03</rscale>
<asrwt>0</asrwt>
<pdfrwt beam="1">  1       21 0.32384201E-01 0.22825626E+03</pdfrwt>
<pdfrwt beam="2">  1       21 0.41604223E-01 0.22825626E+03</pdfrwt>
<totfact> 0.50194158E+04</totfact>
</mgrwt>
</event>
<event>
12    1  0.1071811E-001  0.1787428E+03  0.7546771E-02  0.1169210E+00
         21   -1    0    0  503  502  0.00000000000E+00  0.00000000000E+00  0.45698764047E+03  0.45698764047E+03  0.00000000000E+00 0. -1.
         21   -1    0    0  501  503 -0.00000000000E+00 -0.00000000000E+00 -0.87841540058E+03  0.87841540058E+03  0.00000000000E+00 0. -1.
          6    2    1    2  501    0  0.17335820905E+02 -0.45190238966E+02 -0.85144599381E+03  0.87000532409E+03  0.17206479937E+03 0.  0.
         24    2    3    3    0    0 -0.24957972085E+01 -0.48779652000E+02 -0.23609691289E+03  0.25430835451E+03  0.80903049650E+02 0.  0.
         -6    2    1    2    0  502 -0.17335820905E+02  0.45190238966E+02  0.43001823370E+03  0.46539771696E+03  0.17127949456E+03 0.  0.
        -24    2    5    5    0    0 -0.86522571823E+01  0.58489200127E+02  0.43638799851E+03  0.44765143423E+03  0.80383289562E+02 0.  0.
          5    1    3    3  501    0  0.19831618113E+02  0.35894130340E+01 -0.61534908092E+03  0.61569696958E+03  0.47000000000E+01 0. -1.
        -11    1    4    4    0    0  0.28420492160E+02 -0.55475851090E+02 -0.16899833716E+03  0.18012698963E+03  0.00000000000E+00 0.  1.
         12    1    4    4    0    0 -0.30916289369E+02  0.66961990897E+01 -0.67098575728E+02  0.74181364879E+02  0.00000000000E+00 0. -1.
         -5    1    5    5    0  502 -0.86835637226E+01 -0.13298961161E+02 -0.63697648138E+01  0.17746282728E+02  0.47000000000E+01 0.  1.
         13    1    6    6    0    0  0.17013240134E+02  0.49886101759E+01  0.27715521483E+03  0.27772171265E+03  0.00000000000E+00 0. -1.
        -14    1    6    6    0    0 -0.25665497316E+02  0.53500589951E+02  0.15923278368E+03  0.16992972158E+03  0.00000000000E+00 0.  1.
<mgrwt>
<rscale>  2 0.17855353E+03</rscale>
<asrwt>0</asrwt>
<pdfrwt beam="1">  1       21 0.70305791E-01 0.17874279E+03</pdfrwt>
<pdfrwt beam="2">  1       21 0.13514083E+00 0.17874279E+03</pdfrwt>
<totfact> 0.73021736E+02</totfact>
</mgrwt>
</event>
<event>
12    1  0.1071811E-001  0.2173169E+03  0.7546771E-02  0.1137711E+00
         21   -1    0    0  503  502  0.00000000000E+00  0.00000000000E+00  0.32918418992E+03  0.32918418992E+03  0.00000000000E+00 0. -1.
         21   -1    0    0  501  503 -0.00000000000E+00 -0.00000000000E+00 -0.21431663724E+03  0.21431663724E+03  0.00000000000E+00 0.  1.
          6    2    1    2  501    0  0.10048618936E+03  0.76179846789E+02 -0.10618723308E+03  0.23351396670E+03  0.16538500799E+03 0.  0.
         24    2    3    3    0    0  0.11570583403E+03  0.76871447188E+02 -0.12868177628E+03  0.20594205402E+03  0.80969566171E+02 0.  0.
         -6    2    1    2    0  502 -0.10048618936E+03 -0.76179846789E+02  0.22105478576E+03  0.30998686046E+03  0.17699093773E+03 0.  0.
        -24    2    5    5    0    0 -0.90559686486E+01 -0.89690638294E+02  0.89925149786E+02  0.14949044873E+03  0.78322669329E+02 0.  0.
          5    1    3    3  501    0 -0.15219644669E+02 -0.69160039880E+00  0.22494543202E+02  0.27571912680E+02  0.47000000000E+01 0. -1.
        -13    1    4    4    0    0  0.15694707680E+02  0.41474718005E+02 -0.74790184668E+02  0.86948535384E+02  0.00000000000E+00 0.  1.
         14    1    4    4    0    0  0.10001112635E+03  0.35396729183E+02 -0.53891591614E+02  0.11899351864E+03  0.00000000000E+00 0. -1.
         -5    1    5    5    0  502 -0.91430220716E+02  0.13510791504E+02  0.13112963598E+03  0.16049641173E+03  0.47000000000E+01 0.  1.
         11    1    6    6    0    0 -0.25326280713E+02 -0.47947598434E+02  0.89548769458E+02  0.10468703263E+03  0.00000000000E+00 0. -1.
        -12    1    6    6    0    0  0.16270312065E+02 -0.41743039860E+02  0.37638032835E+00  0.44803416093E+02  0.00000000000E+00 0.  1.
<mgrwt>
<rscale>  2 0.21494246E+03</rscale>
<asrwt>0</asrwt>
<pdfrwt beam="1">  1       21 0.50643721E-01 0.21731690E+03</pdfrwt>
<pdfrwt beam="2">  1       21 0.32971790E-01 0.21731690E+03</pdfrwt>
<totfact> 0.32429035E+04</totfact>
</mgrwt>
</event>
<event>
12    1  0.1071811E-001  0.1918085E+03  0.7546771E-02  0.1157036E+00
         21   -1    0    0  501  502  0.00000000000E+00  0.00000000000E+00  0.81520718474E+03  0.81520718474E+03  0.00000000000E+00 0.  1.
         21   -1    0    0  502  503 -0.00000000000E+00 -0.00000000000E+00 -0.73090092277E+02  0.73090092277E+02  0.00000000000E+00 0.  1.
         -6    2    1    2    0  503  0.32505277688E+02 -0.75863139178E+02  0.94822269752E+02  0.21318165628E+03  0.17217243324E+03 0.  0.
        -24    2    3    3    0    0  0.89857024671E+02 -0.63008140431E+02  0.76311052161E+02  0.15138174486E+03  0.71054523791E+02 0.  0.
          6    2    1    2  501    0 -0.32505277688E+02  0.75863139178E+02  0.64729482271E+03  0.67511562074E+03  0.17314359616E+03 0.  0.
         24    2    5    5    0    0 -0.86949916615E+02  0.68346658413E+02  0.45738511968E+03  0.47735692562E+03  0.80230499270E+02 0.  0.
          5    1    5    5  501    0  0.54444638927E+02  0.75164807655E+01  0.18990970303E+03  0.19775869512E+03  0.47000000000E+01 0. -1.
        -13    1    6    6    0    0 -0.45231950898E+02  0.44455944649E+02  0.38674080082E+03  0.39190650342E+03  0.00000000000E+00 0.  1.
         14    1    6    6    0    0 -0.41717965718E+02  0.23890713763E+02  0.70644318857E+02  0.85450422202E+02  0.00000000000E+00 0. -1.
         -5    1    3    3    0  503 -0.57351746983E+02 -0.12854998746E+02  0.18511217590E+02  0.61799911419E+02  0.47000000000E+01 0.  1.
         13    1    4    4    0    0 -0.98585031811E+00  0.93350017078E+01 -0.39831632916E+01  0.10197046020E+02  0.00000000000E+00 0. -1.
        -14    1    4    4    0    0  0.90842874989E+02 -0.72343142139E+02  0.80294215453E+02  0.14118469884E+03  0.00000000000E+00 0.  1.
<mgrwt>
<rscale>  2 0.19158911E+03</rscale>
<asrwt>0</asrwt>
<pdfrwt beam="1">  1       21 0.12541648E+00 0.19180853E+03</pdfrwt>
<pdfrwt beam="2">  1       21 0.11244630E-01 0.19180853E+03</pdfrwt>
<totfact> 0.31193042E+04</totfact>
</mgrwt>
</event>
<event>
12    1  0.1071811E-001  0.2095199E+03  0.7546771E-02  0.1141975E+00
         21   -1    0    0  503  502  0.00000000000E+00  0.00000000000E+00  0.20498742333E+03  0.20498742333E+03  0.00000000000E+00 0. -1.
         21   -1    0    0  501  503 -0.00000000000E+00 -0.00000000000E+00 -0.52813546137E+03  0.52813546137E+03  0.00000000000E+00 0. -1.
          6    2    1    2  501    0  0.94453114541E+00  0.11789790723E+03 -0.44425223800E+03  0.49112116719E+03  0.17302930741E+03 0.  0.
         24    2    3    3    0    0 -0.45989155834E+02  0.30943329845E+02 -0.29904609050E+03  0.31542032833E+03  0.83599803629E+02 0.  0.
         -6    2    1    2    0  502 -0.94453114541E+00 -0.11789790723E+03  0.12110419996E+03  0.24200171751E+03  0.17319871639E+03 0.  0.
        -24    2    5    5    0    0 -0.18224066535E+02 -0.10670017526E+03  0.15279484024E+03  0.20391814853E+03  0.80742207650E+02 0.  0.
          5    1    3    3  501    0  0.46933686979E+02  0.86954577387E+02 -0.14520614750E+03  0.17570083885E+03  0.47000000000E+01 0. -1.
        -13    1    4    4    0    0 -0.14603814060E+02 -0.21875832330E+02 -0.17528640661E+03  0.17724883008E+03  0.00000000000E+00 0.  1.
         14    1    4    4    0    0 -0.31385341774E+02  0.52819162175E+02 -0.12375968389E+03  0.13817149825E+03  0.00000000000E+00 0. -1.
         -5    1    5    5    0  502  0.17279535389E+02 -0.11197731977E+02 -0.31690640279E+02  0.38083568976E+02  0.47000000000E+01 0.  1.
         13    1    6    6    0    0 -0.32019922886E+02 -0.79045023002E+02  0.55304226718E+02  0.10164619332E+03  0.00000000000E+00 0. -1.
        -14    1    6    6    0    0  0.13795856352E+02 -0.27655152253E+02  0.97490613519E+02  0.10227195521E+03  0.00000000000E+00 0.  1.
<mgrwt>
<rscale>  2 0.20948492E+03</rscale>
<asrwt>0</asrwt>
<pdfrwt beam="1">  1       21 0.31536527E-01 0.20951994E+03</pdfrwt>
<pdfrwt beam="2">  1       21 0.81251609E-01 0.20951994E+03</pdfrwt>
<totfact> 0.12692181E+04</totfact>
</mgrwt>
</event>
<event>
12    1  0.1071811E-001  0.1785995E+03  0.7546771E-02  0.1169273E+00
         21   -1    0    0  503  502  0.00000000000E+00  0.00000000000E+00  0.21972375277E+03  0.21972375277E+03  0.00000000000E+00 0.  1.
         21   -1    0    0  501  503 -0.00000000000E+00 -0.00000000000E+00 -0.14621668281E+03  0.14621668281E+03  0.00000000000E+00 0.  1.
          6    2    1    2  501    0  0.11798660784E+02  0.40564052252E+02  0.18874119812E+02  0.17959397706E+03  0.17353130399E+03 0.  0.
         24    2    3    3    0    0 -0.15603097797E+02  0.45755798843E+02  0.72655786875E+02  0.11882911617E+03  0.80650143804E+02 0.  0.
         -6    2    1    2    0  502 -0.11798660784E+02 -0.40564052252E+02  0.54632950153E+02  0.18634645853E+03  0.17307684025E+03 0.  0.
        -24    2    5    5    0    0 -0.69492040794E+02 -0.52844742997E+02  0.35957709348E+02  0.12429651025E+03  0.80839068541E+02 0.  0.
          5    1    3    3  501    0  0.27401758582E+02 -0.51917465904E+01 -0.53781667063E+02  0.60764860883E+02  0.47000000000E+01 0. -1.
        -11    1    4    4    0    0  0.29442391702E+02  0.34803857130E+02  0.23595734081E+02  0.51331487092E+02  0.00000000000E+00 0.  1.
         12    1    4    4    0    0 -0.45045489499E+02  0.10951941712E+02  0.49060052794E+02  0.67497629082E+02  0.00000000000E+00 0. -1.
         -5    1    5    5    0  502  0.57693380010E+02  0.12280690745E+02  0.18675240805E+02  0.62049948277E+02  0.47000000000E+01 0.  1.
         13    1    6    6    0    0 -0.48913408108E+01  0.77486396530E+01  0.34518334978E+02  0.35713891990E+02  0.00000000000E+00 0. -1.
        -14    1    6    6    0    0 -0.64600699983E+02 -0.60593382650E+02  0.14393743701E+01  0.88582618260E+02  0.00000000000E+00 0.  1.
<mgrwt>
<rscale>  2 0.17848897E+03</rscale>
<asrwt>0</asrwt>
<pdfrwt beam="1">  1       21 0.33803654E-01 0.17859945E+03</pdfrwt>
<pdfrwt beam="2">  1       21 0.22494874E-01 0.17859945E+03</pdfrwt>
<totfact> 0.15674134E+05</totfact>
</mgrwt>
</event>
<event>
12    1  0.1071811E-001  0.2065595E+03  0.7546771E-02  0.1145111E+00
         21   -1    0    0  501  502  0.00000000000E+00  0.00000000000E+00  0.23782641303E+02  0.23782641303E+02  0.00000000000E+00 0. -1.
         21   -1    0    0  502  503 -0.00000000000E+00 -0.00000000000E+00 -0.38576342123E+04  0.38576342123E+04  0.00000000000E+00 0. -1.
         -6    2    1    2    0  503 -0.92111896118E+02 -0.49651185269E+02 -0.33395097932E+04  0.33456551507E+04  0.17358826908E+03 0.  0.
        -24    2    3    3    0    0 -0.16878522377E+02 -0.32581334098E+02 -0.25073792833E+04  0.25099430497E+04  0.10731642218E+03 0.  0.
          6    2    1    2  501    0  0.92111896118E+02  0.49651185269E+02 -0.49434177781E+03  0.53576170288E+03  0.17809258092E+03 0.  0.
         24    2    5    5    0    0  0.30181869729E+02  0.36884325386E+02 -0.44870725266E+03  0.45764051007E+03  0.76323254324E+02 0.  0.
          5    1    5    5  501    0  0.61930026389E+02  0.12766859883E+02 -0.45634525151E+02  0.78121192807E+02  0.47000000000E+01 0. -1.
        -11    1    6    6    0    0  0.45962158878E+02  0.46449169008E+02 -0.40438180045E+03  0.40962749649E+03  0.00000000000E+00 0.  1.
         12    1    6    6    0    0 -0.15780289149E+02 -0.95648436219E+01 -0.44325452212E+02  0.48013013579E+02  0.00000000000E+00 0. -1.
         -5    1    3    3    0  503 -0.75233373741E+02 -0.17069851170E+02 -0.83213050986E+03  0.83571210102E+03  0.47000000000E+01 0.  1.
         13    1    4    4    0    0 -0.33366068614E+02 -0.40622506560E+01 -0.22741964324E+04  0.22744448134E+04  0.00000000000E+00 0. -1.
        -14    1    4    4    0    0  0.16487546237E+02 -0.28519083442E+02 -0.23318285099E+03  0.23549823629E+03  0.00000000000E+00 0.  1.
<mgrwt>
<rscale>  2 0.20558490E+03</rscale>
<asrwt>0</asrwt>
<pdfrwt beam="1">  1       21 0.36588714E-02 0.20655946E+03</pdfrwt>
<pdfrwt beam="2">  1       21 0.59348161E+00 0.20655946E+03</pdfrwt>
<totfact> 0.17049909E+02</totfact>
</mgrwt>
</event>
<event>
12    1  0.1071811E-001  0.2739160E+03  0.7546771E-02  0.1099137E+00
         21   -1    0    0  501  502  0.00000000000E+00  0.00000000000E+00  0.74462204438E+02  0.74462204438E+02  0.00000000000E+00 0.  1.
         21   -1    0    0  502  503 -0.00000000000E+00 -0.00000000000E+00 -0.11821716264E+04  0.11821716264E+04  0.00000000000E+00 0. -1.
         -6    2    1    2    0  503  0.20851614675E+03  0.36783311250E+02 -0.79621638398E+03  0.84183524169E+03  0.17289895487E+03 0.  0.
        -24    2    3    3    0    0  0.23830460202E+02 -0.55454866253E+01 -0.25305138376E+03  0.26655197459E+03  0.80101866886E+02 0.  0.
          6    2    1    2  501    0 -0.20851614675E+03 -0.36783311250E+02 -0.31149303801E+03  0.41479858918E+03  0.17377560648E+03 0.  0.
         24    2    5    5    0    0 -0.17459870321E+03  0.15031715308E+02 -0.29159920453E+03  0.34958321856E+03  0.80421831563E+02 0.  0.
          5    1    5    5  501    0 -0.33917443540E+02 -0.51815026558E+02 -0.19893833488E+02  0.65215370614E+02  0.47000000000E+01 0. -1.
        -11    1    6    6    0    0  0.67983289528E+00 -0.70974110615E+01 -0.48757848518E+02  0.49276396060E+02  0.00000000000E+00 0.  1.
         12    1    6    6    0    0 -0.17527853611E+03  0.22129126370E+02 -0.24284135601E+03  0.30030682250E+03  0.00000000000E+00 0. -1.
         -5    1    3    3    0  503  0.18468568655E+03  0.42328797875E+02 -0.54316500021E+03  0.57528326710E+03  0.47000000000E+01 0.  1.
         11    1    4    4    0    0 -0.21007119526E+02  0.18691278477E+02 -0.13613705302E+03  0.13901064768E+03  0.00000000000E+00 0. -1.
        -12    1    4    4    0    0  0.44837579728E+02 -0.24236765102E+02 -0.11691433074E+03  0.12754132691E+03  0.00000000000E+00 0.  1.
<mgrwt>
<rscale>  2 0.27377703E+03</rscale>
<asrwt>0</asrwt>
<pdfrwt beam="1">  1       21 0.11455723E-01 0.27391597E+03</pdfrwt>
<pdfrwt beam="2">  1       21 0.18187257E+00 0.27391597E+03</pdfrwt>
<totfact> 0.10655547E+04</totfact>
</mgrwt>
</event>
<event>
12    1  0.1071811E-001  0.1876518E+03  0.7546771E-02  0.1161064E+00
         21   -1    0    0  503  502  0.00000000000E+00  0.00000000000E+00  0.10606312916E+04  0.10606312916E+04  0.00000000000E+00 0.  1.
         21   -1    0    0  501  503 -0.00000000000E+00 -0.00000000000E+00 -0.66239731188E+02  0.66239731188E+02  0.00000000000E+00 0.  1.
          6    2    1    2  501    0  0.50374398286E+02  0.46699377164E+02  0.95782063905E+02  0.20887743692E+03  0.17244468115E+03 0.  0.
         24    2    3    3    0    0 -0.49926382140E+01  0.57884476972E+02  0.11268063060E+03  0.14973128958E+03  0.79668032848E+02 0.  0.
         -6    2    1    2    0  502 -0.50374398286E+02 -0.46699377164E+02  0.89860949649E+03  0.91799358585E+03  0.17462755983E+03 0.  0.
        -24    2    5    5    0    0 -0.53924187979E+02  0.21058474658E+01  0.30658994814E+03  0.32393652918E+03  0.89583625684E+02 0.  0.
          5    1    3    3  501    0  0.55367036500E+02 -0.11185099808E+02 -0.16898566693E+02  0.59146147337E+02  0.47000000000E+01 0. -1.
        -13    1    4    4    0    0  0.17499916317E+02  0.56365504231E+02  0.34496160179E+02  0.68361555025E+02  0.00000000000E+00 0.  1.
         14    1    4    4    0    0 -0.22492554531E+02  0.15189727408E+01  0.78184470419E+02  0.81369734559E+02  0.00000000000E+00 0. -1.
         -5    1    5    5    0  502  0.35497896927E+01 -0.48805224630E+02  0.59201954835E+03  0.59405705668E+03  0.47000000000E+01 0.  1.
         13    1    6    6    0    0 -0.83256544134E+00 -0.18988504811E+02  0.92131778006E+01  0.21122005714E+02  0.00000000000E+00 0. -1.
        -14    1    6    6    0    0 -0.53091622538E+02  0.21094352277E+02  0.29737677034E+03  0.30281452346E+03  0.00000000000E+00 0.  1.
<mgrwt>
<rscale>  2 0.18714231E+03</rscale>
<asrwt>0</asrwt>
<pdfrwt beam="1">  1       21 0.16317403E+00 0.18765180E+03</pdfrwt>
<pdfrwt beam="2">  1       21 0.10190729E-01 0.18765180E+03</pdfrwt>
<totfact> 0.18796151E+04</totfact>
</mgrwt>
</event>
<event>
12    1  0.1071811E-001  0.2307227E+03  0.7546771E-02  0.1126203E+00
         21   -1    0    0  503  502  0.00000000000E+00  0.00000000000E+00  0.21024288756E+03  0.21024288756E+03  0.00000000000E+00 0.  1.
         21   -1    0    0  501  503 -0.00000000000E+00 -0.00000000000E+00 -0.33748849494E+03  0.33748849494E+03  0.00000000000E+00 0. -1.
          6    2    1    2  501    0  0.21549806643E+02 -0.15069590244E+03 -0.20080882534E+03  0.30556509713E+03  0.17283574593E+03 0.  0.
         24    2    3    3    0    0 -0.12870768803E+02 -0.38079051837E+02 -0.15707377002E+03  0.17985839040E+03  0.77853712109E+02 0.  0.
         -6    2    1    2    0  502 -0.21549806643E+02  0.15069590244E+03  0.73563217964E+02  0.24216628538E+03  0.17337621971E+03 0.  0.
        -24    2    5    5    0    0 -0.43296524272E+02  0.72827549180E+02 -0.20711529378E+02  0.11788347018E+03  0.79303872288E+02 0.  0.
          5    1    3    3  501    0  0.34420575445E+02 -0.11261685060E+03 -0.43735055317E+02  0.12570670673E+03  0.47000000000E+01 0. -1.
        -13    1    4    4    0    0  0.18037783309E+02  0.15966777098E+02 -0.31093713926E+02  0.39333429082E+02  0.00000000000E+00 0.  1.
         14    1    4    4    0    0 -0.30908552112E+02 -0.54045828935E+02 -0.12598005610E+03  0.14052496132E+03  0.00000000000E+00 0. -1.
         -5    1    5    5    0  502  0.21746717630E+02  0.77868353255E+02  0.94274747343E+02  0.12428281519E+03  0.47000000000E+01 0.  1.
         13    1    6    6    0    0 -0.53078759698E+02  0.71510583135E+02 -0.38905790147E+02  0.97184251494E+02  0.00000000000E+00 0. -1.
        -14    1    6    6    0    0  0.97822354260E+01  0.13169660452E+01  0.18194260769E+02  0.20699218691E+02  0.00000000000E+00 0.  1.
<mgrwt>
<rscale>  2 0.23062116E+03</rscale>
<asrwt>0</asrwt>
<pdfrwt beam="1">  1       21 0.32345060E-01 0.23072270E+03</pdfrwt>
<pdfrwt beam="2">  1       21 0.51921307E-01 0.23072270E+03</pdfrwt>
<totfact> 0.31755379E+04</totfact>
</mgrwt>
</event>
<event>
12    1  0.1071811E-001  0.1837309E+03  0.7546771E-02  0.1165129E+00
         21   -1    0    0  501  502  0.00000000000E+00  0.00000000000E+00  0.59612946522E+03  0.59612946522E+03  0.00000000000E+00 0.  1.
         21   -1    0    0  502  503 -0.00000000000E+00 -0.00000000000E+00 -0.57171300697E+02  0.57171300697E+02  0.00000000000E+00 0.  1.
         -6    2    1    2    0  503 -0.27687617197E+02  0.41345183897E+02  0.32292301295E+03  0.36970207880E+03  0.17298649195E+03 0.  0.
        -24    2    3    3    0    0  0.41320671399E+02  0.38071008737E+02  0.11579026074E+03  0.15130122909E+03  0.79547959426E+02 0.  0.
          6    2    1    2  501    0  0.27687617197E+02 -0.41345183897E+02  0.21603515157E+03  0.28359868712E+03  0.17686435549E+03 0.  0.
         24    2    5    5    0    0  0.14677689565E+02 -0.16665114269E+02  0.19623162996E+02  0.85159468943E+02  0.79836746051E+02 0.  0.
          5    1    5    5  501    0  0.13009927632E+02 -0.24680069627E+02  0.19641198858E+03  0.19843921818E+03  0.47000000000E+01 0. -1.
        -13    1    6    6    0    0 -0.23489503465E+02 -0.27701406894E+02  0.26339130208E+02  0.44865069899E+02  0.00000000000E+00 0.  1.
         14    1    6    6    0    0  0.38167193030E+02  0.11036292625E+02 -0.67159672121E+01  0.40294399043E+02  0.00000000000E+00 0. -1.
         -5    1    3    3    0  503 -0.69008288596E+02  0.32741751593E+01  0.20713275221E+03  0.21840084971E+03  0.47000000000E+01 0.  1.
         13    1    4    4    0    0  0.33083795349E+02  0.26461113701E+01  0.10946441129E+03  0.11438529957E+03  0.00000000000E+00 0. -1.
        -14    1    4    4    0    0  0.82368760497E+01  0.35424897367E+02  0.63258494584E+01  0.36915929514E+02  0.00000000000E+00 0.  1.
<mgrwt>
<rscale>  2 0.18279121E+03</rscale>
<asrwt>0</asrwt>
<pdfrwt beam="1">  1       21 0.91712221E-01 0.18373086E+03</pdfrwt>
<pdfrwt beam="2">  1       21 0.87955851E-02 0.18373086E+03</pdfrwt>
<totfact> 0.10263575E+05</totfact>
</mgrwt>
</event>
<event>
12    1  0.1071811E-001  0.2029415E+03  0.7546771E-02  0.1147319E+00
         21   -1    0    0  501  502  0.00000000000E+00  0.00000000000E+00  0.47406897305E+03  0.47406897305E+03  0.00000000000E+00 0.  1.
         21   -1    0    0  502  503 -0.00000000000E+00 -0.00000000000E+00 -0.12993417978E+03  0.12993417978E+03  0.00000000000E+00 0. -1.
         -6    2    1    2    0  503 -0.84232698110E+02 -0.65451004749E+02 -0.18903969785E+01  0.20295031016E+03  0.17264493430E+03 0.  0.
        -24    2    3    3    0    0 -0.96504336453E+02 -0.26653613128E+02  0.49433717012E+02  0.13728383940E+03  0.79872762172E+02 0.  0.
          6    2    1    2  501    0  0.84232698110E+02  0.65451004749E+02  0.34602519025E+03  0.40105284267E+03  0.17242670579E+03 0.  0.
         24    2    5    5    0    0  0.63668989108E+02 -0.56644048684E+01  0.29185819055E+03  0.30920284828E+03  0.79620175432E+02 0.  0.
          5    1    5    5  501    0  0.20563709002E+02  0.71115409617E+02  0.54166999703E+02  0.91849994391E+02  0.47000000000E+01 0. -1.
        -13    1    6    6    0    0  0.80460262574E+02 -0.82377038837E+01  0.19908598213E+03  0.21488820792E+03  0.00000000000E+00 0.  1.
         14    1    6    6    0    0 -0.16791273467E+02  0.25732990154E+01  0.92772208413E+02  0.94314640360E+02  0.00000000000E+00 0. -1.
         -5    1    3    3    0  503  0.12271638343E+02 -0.38797391621E+02 -0.51324113991E+02  0.65666470753E+02  0.47000000000E+01 0.  1.
         11    1    4    4    0    0 -0.30569807005E+02 -0.10739705803E+02 -0.21698954878E+02  0.38996141140E+02  0.00000000000E+00 0. -1.
        -12    1    4    4    0    0 -0.65934529449E+02 -0.15913907325E+02  0.71132671890E+02  0.98287698264E+02  0.00000000000E+00 0.  1.
<mgrwt>
<rscale>  2 0.20289509E+03</rscale>
<asrwt>0</asrwt>
<pdfrwt beam="1">  1       21 0.72933687E-01 0.20294151E+03</pdfrwt>
<pdfrwt beam="2">  1       21 0.19989874E-01 0.20294151E+03</pdfrwt>
<totfact> 0.38881993E+04</totfact>
</mgrwt>
</event>
<event>
12    1  0.1071811E-001  0.1822930E+03  0.7546771E-02  0.1165651E+00
         21   -1    0    0  503  502  0.00000000000E+00  0.00000000000E+00  0.16776617700E+03  0.16776617700E+03  0.00000000000E+00 0. -1.
         21   -1    0    0  501  503 -0.00000000000E+00 -0.00000000000E+00 -0.29172426950E+03  0.29172426950E+03  0.00000000000E+00 0. -1.
          6    2    1    2  501    0  0.25078614333E+02 -0.51846856498E+02 -0.19227794849E+03  0.26481549448E+03  0.17274085566E+03 0.  0.
         24    2    3    3    0    0  0.49652628305E+02  0.25991664447E+02 -0.80827791376E+02  0.12659123819E+03  0.79694790358E+02 0.  0.
         -6    2    1    2    0  502 -0.25078614333E+02  0.51846856498E+02  0.68319855982E+02  0.19467495202E+03  0.17295577700E+03 0.  0.
        -24    2    5    5    0    0 -0.28439658787E+02  0.25746452218E+02  0.11141800587E+03  0.14395938984E+03  0.82696069418E+02 0.  0.
          5    1    3    3  501    0 -0.24574013972E+02 -0.77838520944E+02 -0.11145015711E+03  0.13822425629E+03  0.47000000000E+01 0. -1.
        -11    1    4    4    0    0  0.56066134894E+02  0.18315246174E+02 -0.93437170482E+02  0.11049599338E+03  0.00000000000E+00 0.  1.
         12    1    4    4    0    0 -0.64135065890E+01  0.76764182732E+01  0.12609379106E+02  0.16095244817E+02  0.00000000000E+00 0. -1.
         -5    1    5    5    0  502  0.33610444532E+01  0.26100404280E+02 -0.43098149888E+02  0.50715562179E+02  0.47000000000E+01 0.  1.
         11    1    6    6    0    0 -0.28275053748E+02  0.48363690585E+02  0.39444389639E+02  0.68515582939E+02  0.00000000000E+00 0. -1.
        -12    1    6    6    0    0 -0.16460503840E+00 -0.22617238368E+02  0.71973616231E+02  0.75443806900E+02  0.00000000000E+00 0.  1.
<mgrwt>
<rscale>  2 0.18224199E+03</rscale>
<asrwt>0</asrwt>
<pdfrwt beam="1">  1       21 0.25810181E-01 0.18229299E+03</pdfrwt>
<pdfrwt beam="2">  1       21 0.44880657E-01 0.18229299E+03</pdfrwt>
<totfact> 0.68198687E+04</totfact>
</mgrwt>
</event>
<event>
12    1  0.1071811E-001  0.1827277E+03  0.7546771E-02  0.1165839E+00
         21   -1    0    0  501  502  0.00000000000E+00  0.00000000000E+00  0.18628974827E+04  0.18628974827E+04  0.00000000000E+00 0.  1.
         21   -1    0    0  502  503 -0.00000000000E+00 -0.00000000000E+00 -0.44919667579E+02  0.44919667579E+02  0.00000000000E+00 0.  1.
         -6    2    1    2    0  503 -0.13243887069E+02 -0.52975480778E+02  0.16854116995E+03  0.24858706943E+03  0.17437775950E+03 0.  0.
        -24    2    3    3    0    0  0.30051304298E+02 -0.52681287674E+01  0.15960452528E+03  0.18337649782E+03  0.84985301028E+02 0.  0.
          6    2    1    2  501    0  0.13243887069E+02  0.52975480778E+02  0.16494366451E+04  0.16592300808E+04  0.17152671121E+03 0.  0.
         24    2    5    5    0    0  0.16893214236E+02  0.67938437718E+02  0.67051458088E+03  0.68017558511E+03  0.90266335941E+02 0.  0.
          5    1    5    5  501    0 -0.36493271673E+01 -0.14962956940E+02  0.97892206426E+03  0.97905449571E+03  0.47000000000E+01 0. -1.
        -11    1    6    6    0    0 -0.17957905173E+02  0.74228333438E+02  0.51825954205E+03  0.52385616802E+03  0.00000000000E+00 0.  1.
         12    1    6    6    0    0  0.34851119409E+02 -0.62898957195E+01  0.15225503882E+03  0.15631941709E+03  0.00000000000E+00 0. -1.
         -5    1    3    3    0  503 -0.43295191367E+02 -0.47707352010E+02  0.89366446645E+01  0.65210571606E+02  0.47000000000E+01 0.  1.
         11    1    4    4    0    0  0.12827759585E+01  0.37200165170E+02  0.49723179437E+02  0.62111934249E+02  0.00000000000E+00 0. -1.
        -12    1    4    4    0    0  0.28768528340E+02 -0.42468293938E+02  0.10988134585E+03  0.12126456357E+03  0.00000000000E+00 0.  1.
<mgrwt>
<rscale>  2 0.18204417E+03</rscale>
<asrwt>0</asrwt>
<pdfrwt beam="1">  1       21 0.28659955E+00 0.18272768E+03</pdfrwt>
<pdfrwt beam="2">  1       21 0.69107196E-02 0.18272768E+03</pdfrwt>
<totfact> 0.63762432E+03</totfact>
</mgrwt>
</event>
<event>
12    1  0.1071811E-001  0.1744688E+03  0.7546771E-02  0.1173631E+00
         21   -1    0    0  503  502  0.00000000000E+00  0.00000000000E+00  0.59401029232E+02  0.59401029232E+02  0.00000000000E+00 0.  1.
         21   -1    0    0  501  503 -0.00000000000E+00 -0.00000000000E+00 -0.50914493099E+03  0.50914493099E+03  0.00000000000E+00 0.  1.
          6    2    1    2  501    0 -0.23800491130E+01  0.47661200055E+01 -0.23795878752E+03  0.29506568529E+03  0.17438748104E+03 0.  0.
         24    2    3    3    0    0  0.14565414855E+02 -0.61847950917E+02 -0.11851179940E+03  0.15717349492E+03  0.81370391212E+02 0.  0.
         -6    2    1    2    0  502  0.23800491130E+01 -0.47661200055E+01 -0.21178511424E+03  0.27348027493E+03  0.17294549901E+03 0.  0.
        -24    2    5    5    0    0  0.10603194410E+02  0.37456634731E+02 -0.90399259901E+02  0.14461213779E+03  0.10594912453E+03 0.  0.
          5    1    3    3  501    0 -0.16945463968E+02  0.66614070923E+02 -0.11944698812E+03  0.13789219037E+03  0.47000000000E+01 0. -1.
        -13    1    4    4    0    0 -0.28324916573E+02 -0.36021116089E+02 -0.86091267729E+02  0.97527063333E+02  0.00000000000E+00 0.  1.
         14    1    4    4    0    0  0.42890331428E+02 -0.25826834828E+02 -0.32420531667E+02  0.59646431585E+02  0.00000000000E+00 0. -1.
         -5    1    5    5    0  502 -0.82231452968E+01 -0.42222754736E+02 -0.12138585434E+03  0.12886813714E+03  0.47000000000E+01 0.  1.
         11    1    6    6    0    0  0.28326966857E+02  0.86894019847E+01 -0.10403763853E+03  0.10817464115E+03  0.00000000000E+00 0. -1.
        -12    1    6    6    0    0 -0.17723772447E+02  0.28767232746E+02  0.13638378629E+02  0.36437496638E+02  0.00000000000E+00 0.  1.
<mgrwt>
<rscale>  2 0.17410739E+03</rscale>
<asrwt>0</asrwt>
<pdfrwt beam="1">  1       21 0.91386199E-02 0.17446883E+03</pdfrwt>
<pdfrwt beam="2">  1       21 0.78329990E-01 0.17446883E+03</pdfrwt>
<totfact> 0.13805523E+05</totfact>
</mgrwt>
</event>
<event>
12    1  0.1071811E-001  0.2259761E+03  0.7546771E-02  0.1129580E+00
         21   -1    0    0  503  502  0.00000000000E+00  0.00000000000E+00  0.32204866491E+03  0.32204866491E+03  0.00000000000E+00 0. -1.
         21   -1    0    0  501  503 -0.00000000000E+00 -0.00000000000E+00 -0.20100262176E+03  0.20100262176E+03  0.00000000000E+00 0. -1.
          6    2    1    2  501    0 -0.51796319279E+02  0.13695769934E+03 -0.60109266166E+02  0.23342665697E+03  0.17156517772E+03 0.  0.
         24    2    3    3    0    0 -0.45044068618E+02  0.75671102298E+02  0.32391902819E+02  0.12216032725E+03  0.78222927237E+02 0.  0.
         -6    2    1    2    0  502  0.51796319279E+02 -0.13695769934E+03  0.18115530931E+03  0.28962462970E+03  0.17211888316E+03 0.  0.
        -24    2    5    5    0    0  0.70274962327E+02 -0.16199562113E+03  0.16366884082E+03  0.25362151377E+03  0.79719703934E+02 0.  0.
          5    1    3    3  501    0 -0.67522506611E+01  0.61286597037E+02 -0.92501168984E+02  0.11126632972E+03  0.47000000000E+01 0. -1.
        -13    1    4    4    0    0  0.12486274062E+02  0.26870945058E+02  0.36010234817E+02  0.46633590252E+02  0.00000000000E+00 0.  1.
         14    1    4    4    0    0 -0.57530342679E+02  0.48800157240E+02 -0.36183319981E+01  0.75526737000E+02  0.00000000000E+00 0. -1.
         -5    1    5    5    0  502 -0.18478643049E+02  0.25037921793E+02  0.17486468491E+02  0.36003115934E+02  0.47000000000E+01 0.  1.
         11    1    6    6    0    0  0.39810459363E+02 -0.13758115132E+03  0.15948594893E+03  0.21435767721E+03  0.00000000000E+00 0. -1.
        -12    1    6    6    0    0  0.30464502965E+02 -0.24414469805E+02  0.41828918977E+01  0.39263836560E+02  0.00000000000E+00 0.  1.
<mgrwt>
<rscale>  2 0.22587062E+03</rscale>
<asrwt>0</asrwt>
<pdfrwt beam="1">  1       21 0.49545948E-01 0.22597606E+03</pdfrwt>
<pdfrwt beam="2">  1       21 0.30923480E-01 0.22597606E+03</pdfrwt>
<totfact> 0.38362039E+04</totfact>
</mgrwt>
</event>
<event>
12    1  0.1071811E-001  0.2506620E+03  0.7546771E-02  0.1113141E+00
         21   -1    0    0  503  502  0.00000000000E+00  0.00000000000E+00  0.19870808098E+03  0.19870808098E+03  0.00000000000E+00 0.  1.
         21   -1    0    0  501  503 -0.00000000000E+00 -0.00000000000E+00 -0.32149254791E+03  0.32149254791E+03  0.00000000000E+00 0.  1.
          6    2    1    2  501    0 -0.80362410243E+02 -0.16104467297E+03 -0.10082370577E+03  0.27017928540E+03  0.17446467534E+03 0.  0.
         24    2    3    3    0    0 -0.38356608445E+02 -0.51793588745E+02  0.15160207365E+02  0.10533194725E+03  0.81921804042E+02 0.  0.
         -6    2    1    2    0  502  0.80362410243E+02  0.16104467297E+03 -0.21960761162E+02  0.25002134350E+03  0.17214788266E+03 0.  0.
        -24    2    5    5    0    0 -0.34656709178E+01  0.13460296097E+03 -0.35960632295E+02  0.16088999258E+03  0.80389393970E+02 0.  0.
          5    1    3    3  501    0 -0.42005801798E+02 -0.10925108422E+03 -0.11598391313E+03  0.16484733815E+03  0.47000000000E+01 0. -1.
        -11    1    4    4    0    0 -0.30650883379E+02 -0.71210798901E+02 -0.30954958348E+01  0.77588894995E+02  0.00000000000E+00 0.  1.
         12    1    4    4    0    0 -0.77057250656E+01  0.19417210156E+02  0.18255703200E+02  0.27743052254E+02  0.00000000000E+00 0. -1.
         -5    1    5    5    0  502  0.83828081161E+02  0.26441712001E+02  0.13999871133E+02  0.89131350918E+02  0.47000000000E+01 0.  1.
         11    1    6    6    0    0 -0.23204720436E+02  0.12806538664E+02 -0.25960157830E+02  0.37099815062E+02  0.00000000000E+00 0. -1.
        -12    1    6    6    0    0  0.19739049519E+02  0.12179642230E+03 -0.10000474466E+02  0.12379017752E+03  0.00000000000E+00 0.  1.
<mgrwt>
<rscale>  2 0.25025927E+03</rscale>
<asrwt>0</asrwt>
<pdfrwt beam="1">  1       21 0.30570474E-01 0.25066198E+03</pdfrwt>
<pdfrwt beam="2">  1       21 0.49460392E-01 0.25066198E+03</pdfrwt>
<totfact> 0.38954759E+04</totfact>
</mgrwt>
</event>
<event>
12    1  0.1071811E-001  0.1942792E+03  0.7546771E-02  0.1154985E+00
         21   -1    0    0  503  502  0.00000000000E+00  0.00000000000E+00  0.73286292787E+03  0.73286292787E+03  0.00000000000E+00 0.  1.
         21   -1    0    0  501  503 -0.00000000000E+00 -0.00000000000E+00 -0.54796336168E+02  0.54796336168E+02  0.00000000000E+00 0. -1.
          6    2    1    2  501    0  0.36504362625E+02  0.81030005319E+02  0.23808341292E+03  0.30729160982E+03  0.17275992505E+03 0.  0.
         24    2    3    3    0    0  0.23559034922E+02  0.10382703926E+03  0.24555927472E+03  0.27962819037E+03  0.80978301049E+02 0.  0.
         -6    2    1    2    0  502 -0.36504362625E+02 -0.81030005319E+02  0.43998317878E+03  0.48036765421E+03  0.17108318257E+03 0.  0.
        -24    2    5    5    0    0 -0.43905405215E+02 -0.84758676121E+01  0.11977255715E+03  0.15192312232E+03  0.82070973615E+02 0.  0.
          5    1    3    3  501    0  0.12945327702E+02 -0.22797033945E+02 -0.74758617965E+01  0.27663419449E+02  0.47000000000E+01 0. -1.
        -11    1    4    4    0    0  0.50135854834E+02  0.81469418441E+02  0.14952274247E+03  0.17750470584E+03  0.00000000000E+00 0.  1.
         12    1    4    4    0    0 -0.26576819912E+02  0.22357620823E+02  0.96036532248E+02  0.10212348453E+03  0.00000000000E+00 0. -1.
         -5    1    5    5    0  502  0.74010425904E+01 -0.72554137707E+02  0.32021062163E+03  0.32844453190E+03  0.47000000000E+01 0.  1.
         11    1    6    6    0    0 -0.62191928262E+02 -0.64153168279E+01  0.50860829524E+02  0.80596626548E+02  0.00000000000E+00 0. -1.
        -12    1    6    6    0    0  0.18286523047E+02 -0.20605507842E+01  0.68911727625E+02  0.71326495770E+02  0.00000000000E+00 0.  1.
<mgrwt>
<rscale>  2 0.19390579E+03</rscale>
<asrwt>0</asrwt>
<pdfrwt beam="1">  1       21 0.11274814E+00 0.19427924E+03</pdfrwt>
<pdfrwt beam="2">  1       21 0.84302061E-02 0.19427924E+03</pdfrwt>
<totfact> 0.67327930E+04</totfact>
</mgrwt>
</event>
<event>
12    1  0.1071811E-001  0.1898348E+03  0.7546771E-02  0.1158935E+00
         21   -1    0    0  503  502  0.00000000000E+00  0.00000000000E+00  0.12856752272E+04  0.12856752272E+04  0.00000000000E+00 0.  1.
         21   -1    0    0  501  503 -0.00000000000E+00 -0.00000000000E+00 -0.38129594635E+02  0.38129594635E+02  0.00000000000E+00 0.  1.
          6    2    1    2  501    0 -0.45115148739E+01  0.80953632623E+02  0.28130030800E+03  0.33936283331E+03  0.17164913326E+03 0.  0.
         24    2    3    3    0    0  0.14545717457E+02 -0.13343074310E+02  0.18550051084E+03  0.20351461588E+03  0.81351974941E+02 0.  0.
         -6    2    1    2    0  502  0.45115148739E+01 -0.80953632623E+02  0.96624532457E+03  0.98444198854E+03  0.17006515554E+03 0.  0.
        -24    2    5    5    0    0 -0.57113209150E+02 -0.28456692542E+02  0.64477909078E+03  0.65290591991E+03  0.80463422362E+02 0.  0.
          5    1    3    3  501    0 -0.19057232331E+02  0.94296706934E+02  0.95799797164E+02  0.13584821743E+03  0.47000000000E+01 0. -1.
        -13    1    4    4    0    0 -0.30721263340E+02  0.10601416770E+02  0.71100846156E+02  0.78176188081E+02  0.00000000000E+00 0.  1.
         14    1    4    4    0    0  0.45266980797E+02 -0.23944491081E+02  0.11439966468E+03  0.12533842780E+03  0.00000000000E+00 0. -1.
         -5    1    5    5    0  502  0.61624724024E+02 -0.52496940081E+02  0.32146623379E+03  0.33153606862E+03  0.47000000000E+01 0.  1.
         13    1    6    6    0    0 -0.59070676373E+01  0.12374284716E+02  0.17572181781E+02  0.22288964598E+02  0.00000000000E+00 0. -1.
        -14    1    6    6    0    0 -0.51206141513E+02 -0.40830977258E+02  0.62720690900E+03  0.63061695531E+03  0.00000000000E+00 0.  1.
<mgrwt>
<rscale>  2 0.18947608E+03</rscale>
<asrwt>0</asrwt>
<pdfrwt beam="1">  1       21 0.19779616E+00 0.18983485E+03</pdfrwt>
<pdfrwt beam="2">  1       21 0.58660925E-02 0.18983485E+03</pdfrwt>
<totfact> 0.28488411E+04</totfact>
</mgrwt>
</event>
<event>
12    1  0.1071811E-001  0.1914406E+03  0.7546771E-02  0.1157469E+00
         21   -1    0    0  501  502  0.00000000000E+00  0.00000000000E+00  0.26115742241E+02  0.26115742241E+02  0.00000000000E+00 0.  1.
         21   -1    0    0  502  503 -0.00000000000E+00 -0.00000000000E+00 -0.14224872292E+04  0.14224872292E+04  0.00000000000E+00 0.  1.
         -6    2    1    2    0  503  0.77323497899E+02 -0.21150619388E+02 -0.59245909974E+03  0.62221043461E+03  0.17237101859E+03 0.  0.
        -24    2    3    3    0    0  0.73174109018E+02 -0.68365938437E+02 -0.51910700851E+03  0.53475116942E+03  0.80364016449E+02 0.  0.
          6    2    1    2  501    0 -0.77323497899E+02  0.21150619388E+02 -0.80391238726E+03  0.82639253687E+03  0.17384828607E+03 0.  0.
         24    2    5    5    0    0 -0.75061481391E+02  0.76357503693E+02 -0.50315002486E+03  0.52056087495E+03  0.79743229521E+02 0.  0.
          5    1    5    5  501    0 -0.22620165080E+01 -0.55206884305E+02 -0.30076236240E+03  0.30583166192E+03  0.47000000000E+01 0. -1.
        -11    1    6    6    0    0 -0.80108076434E+02  0.84257233659E+02 -0.49387147281E+03  0.50737128121E+03  0.00000000000E+00 0.  1.
         12    1    6    6    0    0  0.50465950424E+01 -0.78997299659E+01 -0.92785520428E+01  0.13189593742E+02  0.00000000000E+00 0. -1.
         -5    1    3    3    0  503  0.41493888816E+01  0.47215319049E+02 -0.73352091227E+02  0.87459265194E+02  0.47000000000E+01 0.  1.
         11    1    4    4    0    0  0.47654007325E+02 -0.39387570453E+02 -0.13242575893E+03  0.14614673020E+03  0.00000000000E+00 0. -1.
        -12    1    4    4    0    0  0.25520101693E+02 -0.28978367984E+02 -0.38668124959E+03  0.38860443922E+03  0.00000000000E+00 0.  1.
<mgrwt>
<rscale>  2 0.19110458E+03</rscale>
<asrwt>0</asrwt>
<pdfrwt beam="1">  1       21 0.40178065E-02 0.19144059E+03</pdfrwt>
<pdfrwt beam="2">  1       21 0.21884419E+00 0.19144059E+03</pdfrwt>
<totfact> 0.39807064E+04</totfact>
</mgrwt>
</event>
<event>
12    1  0.1071811E-001  0.2333276E+03  0.7546771E-02  0.1124716E+00
         21   -1    0    0  501  502  0.00000000000E+00  0.00000000000E+00  0.36221314852E+02  0.36221314852E+02  0.00000000000E+00 0.  1.
         21   -1    0    0  502  503 -0.00000000000E+00 -0.00000000000E+00 -0.16022253300E+04  0.16022253300E+04  0.00000000000E+00 0.  1.
         -6    2    1    2    0  503  0.90291766596E+02 -0.12751682415E+03 -0.99781149914E+03  0.10242117564E+04  0.17020220502E+03 0.  0.
        -24    2    3    3    0    0  0.73529849162E+02 -0.12629056249E+02 -0.38822467846E+03  0.40364883209E+03  0.81534329609E+02 0.  0.
          6    2    1    2  501    0 -0.90291766596E+02  0.12751682415E+03 -0.56819251605E+03  0.61423488849E+03  0.17328767810E+03 0.  0.
         24    2    5    5    0    0 -0.19278299341E+02  0.20778652608E+02 -0.35732450727E+03  0.36740831592E+03  0.80651484074E+02 0.  0.
          5    1    5    5  501    0 -0.71013467254E+02  0.10673817155E+03 -0.21086800879E+03  0.24682657257E+03  0.47000000000E+01 0. -1.
        -13    1    6    6    0    0 -0.22043126514E+02  0.50553106052E+02 -0.24883706454E+03  0.25487526488E+03  0.00000000000E+00 0.  1.
         14    1    6    6    0    0  0.27648271727E+01 -0.29774453443E+02 -0.10848744273E+03  0.11253305104E+03  0.00000000000E+00 0. -1.
         -5    1    3    3    0  503  0.16761917434E+02 -0.11488776791E+03 -0.60958682068E+03  0.62056292432E+03  0.47000000000E+01 0.  1.
         11    1    4    4    0    0  0.67561864208E+01  0.88983657125E+01 -0.23102104390E+01  0.11408945595E+02  0.00000000000E+00 0. -1.
        -12    1    4    4    0    0  0.66773662741E+02 -0.21527421962E+02 -0.38591446802E+03  0.39223988650E+03  0.00000000000E+00 0.  1.
<mgrwt>
<rscale>  2 0.23275491E+03</rscale>
<asrwt>0</asrwt>
<pdfrwt beam="1">  1       21 0.55725117E-02 0.23332759E+03</pdfrwt>
<pdfrwt beam="2">  1       21 0.24649613E+00 0.23332759E+03</pdfrwt>
<totfact> 0.15076851E+04</totfact>
</mgrwt>
</event>
<event>
12    1  0.1071811E-001  0.2112291E+03  0.7546771E-02  0.1140625E+00
         21   -1    0    0  503  502  0.00000000000E+00  0.00000000000E+00  0.10258648324E+04  0.10258648324E+04  0.00000000000E+00 0.  1.
         21   -1    0    0  501  503 -0.00000000000E+00 -0.00000000000E+00 -0.71385618815E+02  0.71385618815E+02  0.00000000000E+00 0. -1.
          6    2    1    2  501    0 -0.11977582895E+02  0.12092947602E+03  0.13421561156E+03  0.25026301622E+03  0.17277252745E+03 0.  0.
         24    2    3    3    0    0  0.58770543080E+02  0.50599891988E+02  0.77075902222E+02  0.13520397007E+03  0.79530453386E+02 0.  0.
         -6    2    1    2    0  502  0.11977582895E+02 -0.12092947602E+03  0.82026360207E+03  0.84698743504E+03  0.17259182356E+03 0.  0.
        -24    2    5    5    0    0 -0.30211925088E+02 -0.13945116874E+03  0.59341259556E+03  0.61545670956E+03  0.79303618386E+02 0.  0.
          5    1    3    3  501    0 -0.70748125975E+02  0.70329584034E+02  0.57139709334E+02  0.11505904615E+03  0.47000000000E+01 0. -1.
        -11    1    4    4    0    0  0.27631650454E+02 -0.68232149462E+01  0.61917346099E+02  0.68145594993E+02  0.00000000000E+00 0.  1.
         12    1    4    4    0    0  0.31138892626E+02  0.57423106935E+02  0.15158556123E+02  0.67058375075E+02  0.00000000000E+00 0. -1.
         -5    1    5    5    0  502  0.42189507983E+02  0.18521692719E+02  0.22685100651E+03  0.23153072548E+03  0.47000000000E+01 0.  1.
         13    1    6    6    0    0 -0.49053183291E+02 -0.10459879354E+03  0.51256061814E+03  0.52541936552E+03  0.00000000000E+00 0. -1.
        -14    1    6    6    0    0  0.18841258203E+02 -0.34852375197E+02  0.80851977426E+02  0.90037344038E+02  0.00000000000E+00 0.  1.
<mgrwt>
<rscale>  2 0.21119218E+03</rscale>
<asrwt>0</asrwt>
<pdfrwt beam="1">  1       21 0.15782535E+00 0.21122913E+03</pdfrwt>
<pdfrwt beam="2">  1       21 0.10982404E-01 0.21122913E+03</pdfrwt>
<totfact> 0.17719404E+04</totfact>
</mgrwt>
</event>
<event>
12    1  0.1071811E-001  0.2308115E+03  0.7546771E-02  0.1126896E+00
         21   -1    0    0  501  502  0.00000000000E+00  0.00000000000E+00  0.10334244118E+04  0.10334244118E+04  0.00000000000E+00 0. -1.
         21   -1    0    0  502  503 -0.00000000000E+00 -0.00000000000E+00 -0.50535297701E+02  0.50535297701E+02  0.00000000000E+00 0.  1.
         -6    2    1    2    0  503 -0.10057889107E+03 -0.10629354621E+03  0.50741204760E+03  0.55744141073E+03  0.17849232210E+03 0.  0.
        -24    2    3    3    0    0  0.75969976146E+01 -0.50268504481E+02  0.32037665234E+03  0.33418112032E+03  0.80319268524E+02 0.  0.
          6    2    1    2  501    0  0.10057889107E+03  0.10629354621E+03  0.47547706645E+03  0.52651829872E+03  0.17241997238E+03 0.  0.
         24    2    5    5    0    0  0.11362101442E+03  0.13266980273E+03  0.44103785981E+03  0.48097762632E+03  0.79461133659E+02 0.  0.
          5    1    5    5  501    0 -0.13042123348E+02 -0.26376256512E+02  0.34439206643E+02  0.45540672406E+02  0.47000000000E+01 0. -1.
        -13    1    6    6    0    0  0.31564045409E+02  0.20963027814E+02  0.33720609835E+02  0.50722943776E+02  0.00000000000E+00 0.  1.
         14    1    6    6    0    0  0.82056969013E+02  0.11170677491E+03  0.40731724997E+03  0.43025468254E+03  0.00000000000E+00 0. -1.
         -5    1    3    3    0  503 -0.10817588869E+03 -0.56025041733E+02  0.18703539527E+03  0.22326029042E+03  0.47000000000E+01 0.  1.
         11    1    4    4    0    0 -0.30934831411E+02 -0.36755775042E+02  0.23065470825E+03  0.23560463755E+03  0.00000000000E+00 0. -1.
        -12    1    4    4    0    0  0.38531829026E+02 -0.13512729440E+02  0.89721944084E+02  0.98576482769E+02  0.00000000000E+00 0.  1.
<mgrwt>
<rscale>  2 0.22963676E+03</rscale>
<asrwt>0</asrwt>
<pdfrwt beam="1">  1       21 0.15898836E+00 0.23081148E+03</pdfrwt>
<pdfrwt beam="2">  1       21 0.77746619E-02 0.23081148E+03</pdfrwt>
<totfact> 0.31555980E+04</totfact>
</mgrwt>
</event>
<event>
12    1  0.1071811E-001  0.2127263E+03  0.7546771E-02  0.1139464E+00
         21   -1    0    0  501  502  0.00000000000E+00  0.00000000000E+00  0.32208243620E+02  0.32208243620E+02  0.00000000000E+00 0. -1.
         21   -1    0    0  502  503 -0.00000000000E+00 -0.00000000000E+00 -0.26640424890E+04  0.26640424890E+04  0.00000000000E+00 0. -1.
         -6    2    1    2    0  503 -0.12258694774E+03  0.13456611341E+02 -0.22435267677E+04  0.22535893205E+04  0.17333155376E+03 0.  0.
        -24    2    3    3    0    0 -0.71928962717E+01 -0.32590494700E+02 -0.10416813347E+04  0.10453299700E+04  0.80627941581E+02 0.  0.
          6    2    1    2  501    0  0.12258694774E+03 -0.13456611341E+02 -0.38830747767E+03  0.44266141220E+03  0.17308318374E+03 0.  0.
         24    2    5    5    0    0  0.99230647956E+02 -0.70903747959E+02 -0.22790344891E+03  0.27062294939E+03  0.80141972408E+02 0.  0.
          5    1    5    5  501    0  0.23356299782E+02  0.57447136618E+02 -0.16040402876E+03  0.17203846281E+03  0.47000000000E+01 0. -1.
        -11    1    6    6    0    0  0.28079529875E+02 -0.28793388888E+02 -0.15584178486E+03  0.16094775907E+03  0.00000000000E+00 0.  1.
         12    1    6    6    0    0  0.71151118081E+02 -0.42110359071E+02 -0.72061664052E+02  0.10967519032E+03  0.00000000000E+00 0. -1.
         -5    1    3    3    0  503 -0.11539405147E+03  0.46047106041E+02 -0.12018454330E+04  0.12082593505E+04  0.47000000000E+01 0.  1.
         11    1    4    4    0    0  0.78073476437E+01  0.16348163126E+02 -0.65800524735E+03  0.65825460322E+03  0.00000000000E+00 0. -1.
        -12    1    4    4    0    0 -0.15000243915E+02 -0.48938657826E+02 -0.38367608736E+03  0.38707536677E+03  0.00000000000E+00 0.  1.
<mgrwt>
<rscale>  2 0.21267567E+03</rscale>
<asrwt>0</asrwt>
<pdfrwt beam="1">  1       21 0.49551137E-02 0.21272627E+03</pdfrwt>
<pdfrwt beam="2">  1       21 0.40985275E+00 0.21272627E+03</pdfrwt>
<totfact> 0.20072530E+03</totfact>
</mgrwt>
</event>
<event>
12    1  0.1071811E-001  0.2010023E+03  0.7546771E-02  0.1149600E+00
         21   -1    0    0  501  502  0.00000000000E+00  0.00000000000E+00  0.93913090632E+02  0.93913090632E+02  0.00000000000E+00 0. -1.
         21   -1    0    0  502  503 -0.00000000000E+00 -0.00000000000E+00 -0.17369292732E+04  0.17369292732E+04  0.00000000000E+00 0. -1.
         -6    2    1    2    0  503  0.64949402767E+02  0.74262765241E+02 -0.16193269167E+04  0.16317541416E+04  0.17512433326E+03 0.  0.
        -24    2    3    3    0    0  0.23699390732E+02 -0.27273081715E+02 -0.58096007540E+03  0.58760909472E+03  0.80401224385E+02 0.  0.
          6    2    1    2  501    0 -0.64949402767E+02 -0.74262765241E+02 -0.23689265845E+02  0.19908822226E+03  0.17129377019E+03 0.  0.
         24    2    5    5    0    0  0.55290432046E+01 -0.27744286025E+01 -0.49282257554E+02  0.95382461345E+02  0.81429756538E+02 0.  0.
          5    1    5    5  501    0 -0.70478445972E+02 -0.71488336638E+02  0.25592991709E+02  0.10370576091E+03  0.47000000000E+01 0. -1.
        -13    1    6    6    0    0 -0.22854310517E+02 -0.25792701917E+02 -0.54412334522E+00  0.34465621300E+02  0.00000000000E+00 0.  1.
         14    1    6    6    0    0  0.28383353722E+02  0.23018273315E+02 -0.48738134209E+02  0.60916840045E+02  0.00000000000E+00 0. -1.
         -5    1    3    3    0  503  0.41250012035E+02  0.10153584696E+03 -0.10383668413E+04  0.10441450468E+04  0.47000000000E+01 0.  1.
         11    1    4    4    0    0 -0.53965400098E+01 -0.32714303176E+02 -0.50497131740E+03  0.50605867217E+03  0.00000000000E+00 0. -1.
        -12    1    4    4    0    0  0.29095930741E+02  0.54412214608E+01 -0.75988757998E+02  0.81550422554E+02  0.00000000000E+00 0.  1.
<mgrwt>
<rscale>  2 0.20016494E+03</rscale>
<asrwt>0</asrwt>
<pdfrwt beam="1">  1       21 0.14448170E-01 0.20100228E+03</pdfrwt>
<pdfrwt beam="2">  1       21 0.26721985E+00 0.20100228E+03</pdfrwt>
<totfact> 0.21941431E+03</totfact>
</mgrwt>
</event>
<event>
12    1  0.1071811E-001  0.1922701E+03  0.7546771E-02  0.1156463E+00
         21   -1    0    0  503  502  0.00000000000E+00  0.00000000000E+00  0.55128145186E+03  0.55128145186E+03  0.00000000000E+00 0. -1.
         21   -1    0    0  501  503 -0.00000000000E+00 -0.00000000000E+00 -0.74470397604E+02  0.74470397604E+02  0.00000000000E+00 0.  1.
          6    2    1    2  501    0 -0.11661071437E+02  0.82632579745E+02  0.13926435678E+03  0.23728619260E+03  0.17304927710E+03 0.  0.
         24    2    3    3    0    0 -0.17642384379E+01  0.11947113244E+03  0.13448283024E+03  0.19855662683E+03  0.84039505032E+02 0.  0.
         -6    2    1    2    0  502  0.11661071437E+02 -0.82632579745E+02  0.33754669748E+03  0.38846565687E+03  0.17321567413E+03 0.  0.
        -24    2    5    5    0    0 -0.41987979137E+02 -0.22487859736E+02  0.25753302820E+03  0.27479998376E+03  0.83205025277E+02 0.  0.
          5    1    3    3  501    0 -0.98968329988E+01 -0.36838552698E+02  0.47815265424E+01  0.38729565765E+02  0.47000000000E+01 0. -1.
        -13    1    4    4    0    0  0.99960402568E+01  0.75007875584E+02  0.24816334753E+02  0.79636377937E+02  0.00000000000E+00 0.  1.
         14    1    4    4    0    0 -0.11760278695E+02  0.44463256860E+02  0.10966649548E+03  0.11892024890E+03  0.00000000000E+00 0. -1.
         -5    1    5    5    0  502  0.53649050574E+02 -0.60144720009E+02  0.80013669282E+02  0.11366567311E+03  0.47000000000E+01 0.  1.
         11    1    6    6    0    0  0.76003349993E+01 -0.41918856201E+02  0.11229291932E+03  0.12010268659E+03  0.00000000000E+00 0. -1.
        -12    1    6    6    0    0 -0.49588314137E+02  0.19430996465E+02  0.14524010888E+03  0.15469729716E+03  0.00000000000E+00 0.  1.
<mgrwt>
<rscale>  2 0.19223262E+03</rscale>
<asrwt>0</asrwt>
<pdfrwt beam="1">  1       21 0.84812528E-01 0.19227011E+03</pdfrwt>
<pdfrwt beam="2">  1       21 0.11456985E-01 0.19227011E+03</pdfrwt>
<totfact> 0.76782254E+04</totfact>
</mgrwt>
</event>
<event>
12    1  0.1071811E-001  0.3200897E+03  0.7546771E-02  0.1075644E+00
         21   -1    0    0  501  502  0.00000000000E+00  0.00000000000E+00  0.59179479972E+03  0.59179479972E+03  0.00000000000E+00 0. -1.
         21   -1    0    0  502  503 -0.00000000000E+00 -0.00000000000E+00 -0.19255255540E+03  0.19255255540E+03  0.00000000000E+00 0.  1.
         -6    2    1    2    0  503 -0.26898339936E+03  0.78815442999E+01  0.74433099285E+02  0.32832279319E+03  0.17274658430E+03 0.  0.
        -24    2    3    3    0    0 -0.18263606918E+03 -0.61358466752E+02  0.49054621184E+02  0.21467334220E+03  0.80978347622E+02 0.  0.
          6    2    1    2  501    0  0.26898339936E+03 -0.78815442999E+01  0.32480914503E+03  0.45602456193E+03  0.17332983734E+03 0.  0.
         24    2    5    5    0    0  0.14714950766E+03  0.10549594955E+02  0.91490630107E+02  0.19212529428E+03  0.82324490551E+02 0.  0.
          5    1    5    5  501    0  0.12183389170E+03 -0.18431139255E+02  0.23331851492E+03  0.26389926765E+03  0.47000000000E+01 0. -1.
        -11    1    6    6    0    0  0.81241998433E+02 -0.12049629506E+02  0.90818315979E+02  0.12244763125E+03  0.00000000000E+00 0.  1.
         12    1    6    6    0    0  0.65907509229E+02  0.22599224461E+02  0.67231412764E+00  0.69677663029E+02  0.00000000000E+00 0. -1.
         -5    1    3    3    0  503 -0.86347330182E+02  0.69240011052E+02  0.25378478101E+02  0.11364945099E+03  0.47000000000E+01 0.  1.
         13    1    4    4    0    0 -0.18912172701E+03 -0.66692309883E+02  0.46060353671E+02  0.20575822706E+03  0.00000000000E+00 0. -1.
        -14    1    4    4    0    0  0.64856578255E+01  0.53338431308E+01  0.29942675129E+01  0.89151151373E+01  0.00000000000E+00 0.  1.
<mgrwt>
<rscale>  2 0.32001081E+03</rscale>
<asrwt>0</asrwt>
<pdfrwt beam="1">  1       21 0.91045353E-01 0.32008971E+03</pdfrwt>
<pdfrwt beam="2">  1       21 0.29623470E-01 0.32008971E+03</pdfrwt>
<totfact> 0.10419414E+04</totfact>
</mgrwt>
</event>
<event>
12    1  0.1071811E-001  0.2295011E+03  0.7546771E-02  0.1127367E+00
         21   -1    0    0  501  502  0.00000000000E+00  0.00000000000E+00  0.41845477908E+03  0.41845477908E+03  0.00000000000E+00 0.  1.
         21   -1    0    0  502  503 -0.00000000000E+00 -0.00000000000E+00 -0.18758230277E+03  0.18758230277E+03  0.00000000000E+00 0. -1.
         -6    2    1    2    0  503  0.13594053343E+03  0.62508262664E+02 -0.60345894625E+02  0.23525561188E+03  0.17122051393E+03 0.  0.
        -24    2    3    3    0    0  0.15084404933E+03  0.86021021061E+02 -0.33500006215E+02  0.19629721974E+03  0.85186881488E+02 0.  0.
          6    2    1    2  501    0 -0.13594053343E+03 -0.62508262664E+02  0.29121837094E+03  0.37078146998E+03  0.17402197383E+03 0.  0.
         24    2    5    5    0    0 -0.63330590018E+02  0.20745788221E+02  0.21558466043E+03  0.23681882952E+03  0.71869749163E+02 0.  0.
          5    1    5    5  501    0 -0.72609943415E+02 -0.83254050885E+02  0.75633710509E+02  0.13396264045E+03  0.47000000000E+01 0. -1.
        -11    1    6    6    0    0 -0.36561756658E+02  0.44445227999E+02  0.95262362476E+02  0.11129716100E+03  0.00000000000E+00 0.  1.
         12    1    6    6    0    0 -0.26768833360E+02 -0.23699439778E+02  0.12032229795E+03  0.12552166853E+03  0.00000000000E+00 0. -1.
         -5    1    3    3    0  503 -0.14903515898E+02 -0.23512758398E+02 -0.26845888410E+02  0.38958392140E+02  0.47000000000E+01 0.  1.
         13    1    4    4    0    0  0.33938117586E+02  0.64711282439E+02 -0.24728372612E+02  0.77141676883E+02  0.00000000000E+00 0. -1.
        -14    1    4    4    0    0  0.11690593175E+03  0.21309738622E+02 -0.87716336022E+01  0.11915554286E+03  0.00000000000E+00 0.  1.
<mgrwt>
<rscale>  2 0.22897004E+03</rscale>
<asrwt>0</asrwt>
<pdfrwt beam="1">  1       21 0.64377658E-01 0.22950111E+03</pdfrwt>
<pdfrwt beam="2">  1       21 0.28858816E-01 0.22950111E+03</pdfrwt>
<totfact> 0.25063297E+04</totfact>
</mgrwt>
</event>
<event>
12    1  0.1071811E-001  0.2210917E+03  0.7546771E-02  0.1133206E+00
         21   -1    0    0  503  502  0.00000000000E+00  0.00000000000E+00  0.10373560167E+03  0.10373560167E+03  0.00000000000E+00 0.  1.
         21   -1    0    0  501  503 -0.00000000000E+00 -0.00000000000E+00 -0.54819334184E+03  0.54819334184E+03  0.00000000000E+00 0.  1.
          6    2    1    2  501    0  0.98026643306E+02  0.96283011120E+02 -0.34528571940E+03  0.40961378610E+03  0.17228344294E+03 0.  0.
         24    2    3    3    0    0  0.58356568223E+02  0.49756187264E+02 -0.32662476394E+03  0.34551400877E+03  0.82553174440E+02 0.  0.
         -6    2    1    2    0  502 -0.98026643306E+02 -0.96283011120E+02 -0.99172020770E+02  0.24231515742E+03  0.17321057930E+03 0.  0.
        -24    2    5    5    0    0 -0.10803682696E+03 -0.12195634183E+03 -0.55270695333E+02  0.19026959986E+03  0.81254941866E+02 0.  0.
          5    1    3    3  501    0  0.39670075083E+02  0.46526823856E+02 -0.18660955461E+02  0.64099777331E+02  0.47000000000E+01 0. -1.
        -13    1    4    4    0    0 -0.29516430846E+01 -0.19226359207E+02 -0.41660778744E+02  0.45978098817E+02  0.00000000000E+00 0.  1.
         14    1    4    4    0    0  0.61308211308E+02  0.68982546471E+02 -0.28496398520E+03  0.29953590995E+03  0.00000000000E+00 0. -1.
         -5    1    5    5    0  502  0.10010183656E+02  0.25673330705E+02 -0.43901325437E+02  0.52045557557E+02  0.47000000000E+01 0.  1.
         11    1    6    6    0    0  0.64263997354E+00 -0.17590402251E+02  0.15817804800E+02  0.23665125949E+02  0.00000000000E+00 0. -1.
        -12    1    6    6    0    0 -0.10867946694E+03 -0.10436593957E+03 -0.71088500134E+02  0.16660447391E+03  0.00000000000E+00 0.  1.
<mgrwt>
<rscale>  2 0.22091009E+03</rscale>
<asrwt>0</asrwt>
<pdfrwt beam="1">  1       21 0.15959324E-01 0.22109171E+03</pdfrwt>
<pdfrwt beam="2">  1       21 0.84337435E-01 0.22109171E+03</pdfrwt>
<totfact> 0.42123066E+04</totfact>
</mgrwt>
</event>
<event>
12    1  0.1071811E-001  0.1926476E+03  0.7546771E-02  0.1156391E+00
         21   -1    0    0  503  502  0.00000000000E+00  0.00000000000E+00  0.32001652945E+03  0.32001652945E+03  0.00000000000E+00 0. -1.
         21   -1    0    0  501  503 -0.00000000000E+00 -0.00000000000E+00 -0.11829504793E+03  0.11829504793E+03  0.00000000000E+00 0. -1.
          6    2    1    2  501    0  0.67791624792E+02 -0.50559137153E+02  0.13681895081E+03  0.23628906317E+03  0.17309293841E+03 0.  0.
         24    2    3    3    0    0  0.33700069593E+02 -0.87690293826E+02  0.43987571765E+02  0.13055017785E+03  0.79266387233E+02 0.  0.
         -6    2    1    2    0  502 -0.67791624792E+02  0.50559137153E+02  0.64902530709E+02  0.20202251422E+03  0.17160660540E+03 0.  0.
        -24    2    5    5    0    0 -0.63025063695E+02  0.96433184767E+02  0.25165969232E+02  0.14096325884E+03  0.77238569111E+02 0.  0.
          5    1    3    3  501    0  0.34091555199E+02  0.37131156673E+02  0.92831379049E+02  0.10573888532E+03  0.47000000000E+01 0. -1.
        -13    1    4    4    0    0 -0.71113810996E+01 -0.17643654591E+02  0.45660225868E+02  0.49464396436E+02  0.00000000000E+00 0.  1.
         14    1    4    4    0    0  0.40811450693E+02 -0.70046639235E+02 -0.16726541031E+01  0.81085781414E+02  0.00000000000E+00 0. -1.
         -5    1    5    5    0  502 -0.47665610977E+01 -0.45874047614E+02  0.39736561477E+02  0.61059255377E+02  0.47000000000E+01 0.  1.
         11    1    6    6    0    0 -0.53130622255E+02  0.20405977025E+02  0.29629260713E+02  0.64165099625E+02  0.00000000000E+00 0. -1.
        -12    1    6    6    0    0 -0.98944414395E+01  0.76027207742E+02 -0.44632914800E+01  0.76798159218E+02  0.00000000000E+00 0.  1.
<mgrwt>
<rscale>  2 0.19231314E+03</rscale>
<asrwt>0</asrwt>
<pdfrwt beam="1">  1       21 0.49233312E-01 0.19264760E+03</pdfrwt>
<pdfrwt beam="2">  1       21 0.18199238E-01 0.19264760E+03</pdfrwt>
<totfact> 0.10825951E+05</totfact>
</mgrwt>
</event>
<event>
12    1  0.1071811E-001  0.2437340E+03  0.7546771E-02  0.1117589E+00
         21   -1    0    0  503  502  0.00000000000E+00  0.00000000000E+00  0.41443132417E+03  0.41443132417E+03  0.00000000000E+00 0. -1.
         21   -1    0    0  501  503 -0.00000000000E+00 -0.00000000000E+00 -0.22503895191E+03  0.22503895191E+03  0.00000000000E+00 0. -1.
          6    2    1    2  501    0 -0.16683191315E+03  0.32010107356E+02 -0.98843901401E+02  0.26301405298E+03  0.17478198135E+03 0.  0.
         24    2    3    3    0    0 -0.12840342792E+03  0.64419969587E+02 -0.11268744272E+03  0.21066062632E+03  0.10508123978E+03 0.  0.
         -6    2    1    2    0  502  0.16683191315E+03 -0.32010107356E+02  0.28823627366E+03  0.37645622309E+03  0.17257347488E+03 0.  0.
        -24    2    5    5    0    0  0.38615323111E+02 -0.60818710617E+02  0.15052869083E+03  0.18604903323E+03  0.82251427110E+02 0.  0.
          5    1    3    3  501    0 -0.38428485231E+02 -0.32409862230E+02  0.13843541316E+02  0.52353426660E+02  0.47000000000E+01 0. -1.
        -11    1    4    4    0    0  0.91863210838E+01 -0.12051415988E+02 -0.28185251945E+02  0.32000524208E+02  0.00000000000E+00 0.  1.
         12    1    4    4    0    0 -0.13758974900E+03  0.76471385575E+02 -0.84502190772E+02  0.17866010211E+03  0.00000000000E+00 0. -1.
         -5    1    5    5    0  502  0.12821659004E+03  0.28808603261E+02  0.13770758283E+03  0.19040718986E+03  0.47000000000E+01 0.  1.
         13    1    6    6    0    0  0.63049064245E+02 -0.56216594246E+02  0.11552218555E+03  0.14311137385E+03  0.00000000000E+00 0. -1.
        -14    1    6    6    0    0 -0.24433741134E+02 -0.46021163710E+01  0.35006505280E+02  0.42937659377E+02  0.00000000000E+00 0.  1.
<mgrwt>
<rscale>  2 0.24333836E+03</rscale>
<asrwt>0</asrwt>
<pdfrwt beam="1">  1       21 0.63758665E-01 0.24373403E+03</pdfrwt>
<pdfrwt beam="2">  1       21 0.34621377E-01 0.24373403E+03</pdfrwt>
<totfact> 0.17752581E+04</totfact>
</mgrwt>
</event>
<event>
12    1  0.1071811E-001  0.2528253E+03  0.7546771E-02  0.1111703E+00
         21   -1    0    0  501  502  0.00000000000E+00  0.00000000000E+00  0.42077518149E+03  0.42077518149E+03  0.00000000000E+00 0.  1.
         21   -1    0    0  502  503 -0.00000000000E+00 -0.00000000000E+00 -0.19355156275E+03  0.19355156275E+03  0.00000000000E+00 0. -1.
         -6    2    1    2    0  503  0.25844900138E+02 -0.18264136160E+03 -0.29787938510E+02  0.25457406673E+03  0.17290115193E+03 0.  0.
        -24    2    3    3    0    0 -0.19425949516E+01 -0.16204952529E+02  0.10045717425E+02  0.81132337911E+02  0.78836321925E+02 0.  0.
          6    2    1    2  501    0 -0.25844900138E+02  0.18264136160E+03  0.25701155725E+03  0.35975267751E+03  0.17129279781E+03 0.  0.
         24    2    5    5    0    0 -0.65062297600E+02  0.57762304705E+02  0.14158679405E+03  0.18517390138E+03  0.81688231018E+02 0.  0.
          5    1    5    5  501    0  0.39217397462E+02  0.12487905690E+03  0.11542476320E+03  0.17457877613E+03  0.47000000000E+01 0. -1.
        -11    1    6    6    0    0 -0.33831213955E+02  0.67959844531E+02  0.12960834729E+03  0.15020457781E+03  0.00000000000E+00 0.  1.
         12    1    6    6    0    0 -0.31231083645E+02 -0.10197539826E+02  0.11978446763E+02  0.34969323571E+02  0.00000000000E+00 0. -1.
         -5    1    3    3    0  503  0.27787495089E+02 -0.16643640907E+03 -0.39833655936E+02  0.17344172881E+03  0.47000000000E+01 0.  1.
         11    1    4    4    0    0 -0.40178550477E+02 -0.84925684032E+01  0.93733778542E+00  0.41076979424E+02  0.00000000000E+00 0. -1.
        -12    1    4    4    0    0  0.38235955525E+02 -0.77123841257E+01  0.91083796400E+01  0.40055358487E+02  0.00000000000E+00 0.  1.
<mgrwt>
<rscale>  2 0.25255056E+03</rscale>
<asrwt>0</asrwt>
<pdfrwt beam="1">  1       21 0.64734643E-01 0.25282530E+03</pdfrwt>
<pdfrwt beam="2">  1       21 0.29777164E-01 0.25282530E+03</pdfrwt>
<totfact> 0.23030949E+04</totfact>
</mgrwt>
</event>
<event>
12    1  0.1071811E-001  0.1789991E+03  0.7546771E-02  0.1169863E+00
         21   -1    0    0  503  502  0.00000000000E+00  0.00000000000E+00  0.70926137821E+03  0.70926137821E+03  0.00000000000E+00 0.  1.
         21   -1    0    0  501  503 -0.00000000000E+00 -0.00000000000E+00 -0.49535998464E+02  0.49535998464E+02  0.00000000000E+00 0.  1.
          6    2    1    2  501    0  0.92151104151E+01 -0.17149248247E+02  0.20018246310E+03  0.26562358720E+03  0.17350462983E+03 0.  0.
         24    2    3    3    0    0  0.44084540049E+02 -0.42837227296E+01  0.20753787033E+03  0.22744517857E+03  0.81838528117E+02 0.  0.
         -6    2    1    2    0  502 -0.92151104151E+01  0.17149248247E+02  0.45954291665E+03  0.49317378947E+03  0.17793729065E+03 0.  0.
        -24    2    5    5    0    0  0.80846408990E+01  0.77182527834E+02  0.25141017055E+03  0.27581554589E+03  0.82732324267E+02 0.  0.
          5    1    3    3  501    0 -0.34869429634E+02 -0.12865525517E+02 -0.73554072316E+01  0.38178408628E+02  0.47000000000E+01 0. -1.
        -13    1    4    4    0    0  0.60346770641E+02  0.96390104313E+01  0.95493425592E+02  0.11337388403E+03  0.00000000000E+00 0.  1.
         14    1    4    4    0    0 -0.16262230592E+02 -0.13922733161E+02  0.11204444474E+03  0.11407129454E+03  0.00000000000E+00 0. -1.
         -5    1    5    5    0  502 -0.17299751314E+02 -0.60033279587E+02  0.20813274610E+03  0.21735824358E+03  0.47000000000E+01 0.  1.
         11    1    6    6    0    0 -0.23599443890E+02  0.51892841498E+02  0.71757639218E+02  0.91645837531E+02  0.00000000000E+00 0. -1.
        -12    1    6    6    0    0  0.31684084789E+02  0.25289686336E+02  0.17965253133E+03  0.18416970836E+03  0.00000000000E+00 0.  1.
<mgrwt>
<rscale>  2 0.17788741E+03</rscale>
<asrwt>0</asrwt>
<pdfrwt beam="1">  1       21 0.10911713E+00 0.17899915E+03</pdfrwt>
<pdfrwt beam="2">  1       21 0.76209234E-02 0.17899915E+03</pdfrwt>
<totfact> 0.87474497E+04</totfact>
</mgrwt>
</event>
<event>
12    1  0.1071811E-001  0.1772225E+03  0.7546771E-02  0.1171457E+00
         21   -1    0    0  501  502  0.00000000000E+00  0.00000000000E+00  0.14803553851E+02  0.14803553851E+02  0.00000000000E+00 0.  1.
         21   -1    0    0  502  503 -0.00000000000E+00 -0.00000000000E+00 -0.28126467554E+04  0.28126467554E+04  0.00000000000E+00 0.  1.
         -6    2    1    2    0  503  0.15274734055E+02 -0.18127724087E+01 -0.21108804871E+04  0.21179958736E+04  0.17278161419E+03 0.  0.
        -24    2    3    3    0    0  0.76976796399E+02 -0.28132500497E+01 -0.14008911990E+04  0.14053143004E+04  0.80490932289E+02 0.  0.
          6    2    1    2  501    0 -0.15274734055E+02  0.18127724087E+01 -0.68696271446E+03  0.70945443564E+03  0.17655373559E+03 0.  0.
         24    2    5    5    0    0 -0.29229868684E+02  0.64279789843E+02 -0.49929226327E+03  0.51111341039E+03  0.83413892790E+02 0.  0.
          5    1    5    5  501    0  0.13955134629E+02 -0.62467017434E+02 -0.18767045119E+03  0.19834102525E+03  0.47000000000E+01 0. -1.
        -11    1    6    6    0    0 -0.29540389133E+01  0.28157244533E+02 -0.36610736832E+02  0.46280695943E+02  0.00000000000E+00 0.  1.
         12    1    6    6    0    0 -0.26275829771E+02  0.36122545310E+02 -0.46268152644E+03  0.46483271444E+03  0.00000000000E+00 0. -1.
         -5    1    3    3    0  503 -0.61702062344E+02  0.10004776409E+01 -0.70998928812E+03  0.71268157314E+03  0.47000000000E+01 0.  1.
         13    1    4    4    0    0  0.34451058533E+01 -0.31945971106E+02 -0.44249548280E+03  0.44366053027E+03  0.00000000000E+00 0. -1.
        -14    1    4    4    0    0  0.73531690545E+02  0.29132721057E+02 -0.95839571615E+03  0.96165377017E+03  0.00000000000E+00 0.  1.
<mgrwt>
<rscale>  2 0.17627557E+03</rscale>
<asrwt>0</asrwt>
<pdfrwt beam="1">  1       21 0.22774721E-02 0.17722253E+03</pdfrwt>
<pdfrwt beam="2">  1       21 0.43271445E+00 0.17722253E+03</pdfrwt>
<totfact> 0.55005979E+03</totfact>
</mgrwt>
</event>
<event>
12    1  0.1071811E-001  0.3103414E+03  0.7546771E-02  0.1080989E+00
         21   -1    0    0  501  502  0.00000000000E+00  0.00000000000E+00  0.15416533044E+03  0.15416533044E+03  0.00000000000E+00 0. -1.
         21   -1    0    0  502  503 -0.00000000000E+00 -0.00000000000E+00 -0.12090034580E+04  0.12090034580E+04  0.00000000000E+00 0.  1.
         -6    2    1    2    0  503 -0.69700147138E+02 -0.24775804162E+03 -0.10094939144E+04  0.10561201378E+04  0.17340595279E+03 0.  0.
        -24    2    3    3    0    0  0.14169446796E+02 -0.49664197118E+02 -0.25271931497E+03  0.26935132523E+03  0.77561450138E+02 0.  0.
          6    2    1    2  501    0  0.69700147138E+02  0.24775804162E+03 -0.45344213111E+02  0.30704865063E+03  0.16118504427E+03 0.  0.
         24    2    5    5    0    0  0.49978235919E+02  0.54057290575E+02 -0.15990463292E+02  0.11009010838E+03  0.80275290827E+02 0.  0.
          5    1    5    5  501    0  0.19721911218E+02  0.19370075104E+03 -0.29353749819E+02  0.19695854225E+03  0.47000000000E+01 0. -1.
        -11    1    6    6    0    0 -0.58701941132E+00  0.53250044771E+02 -0.24820257685E+02  0.58753357789E+02  0.00000000000E+00 0.  1.
         12    1    6    6    0    0  0.50565255331E+02  0.80724580380E+00  0.88297943932E+01  0.51336750593E+02  0.00000000000E+00 0. -1.
         -5    1    3    3    0  503 -0.83869593933E+02 -0.19809384450E+03 -0.75677459947E+03  0.78676881256E+03  0.47000000000E+01 0.  1.
         11    1    4    4    0    0  0.36426512365E+02 -0.56113654861E+02 -0.21414617023E+03  0.22435288117E+03  0.00000000000E+00 0. -1.
        -12    1    4    4    0    0 -0.22257065569E+02  0.64494577428E+01 -0.38573144740E+02  0.44998444063E+02  0.00000000000E+00 0.  1.
<mgrwt>
<rscale>  2 0.30866299E+03</rscale>
<asrwt>0</asrwt>
<pdfrwt beam="1">  1       21 0.23717743E-01 0.31034140E+03</pdfrwt>
<pdfrwt beam="2">  1       21 0.18600053E+00 0.31034140E+03</pdfrwt>
<totfact> 0.25337782E+03</totfact>
</mgrwt>
</event>
<event>
12    1  0.1071811E-001  0.2550781E+03  0.7546771E-02  0.1110876E+00
         21   -1    0    0  503  502  0.00000000000E+00  0.00000000000E+00  0.11366879534E+04  0.11366879534E+04  0.00000000000E+00 0. -1.
         21   -1    0    0  501  503 -0.00000000000E+00 -0.00000000000E+00 -0.62928788161E+02  0.62928788161E+02  0.00000000000E+00 0.  1.
          6    2    1    2  501    0 -0.94717628718E+02  0.15394778393E+03  0.33595582318E+03  0.41896406988E+03  0.17318552873E+03 0.  0.
         24    2    3    3    0    0 -0.34210627488E+02  0.16543483846E+02  0.71080842979E+02  0.11446138679E+03  0.81270344747E+02 0.  0.
         -6    2    1    2    0  502  0.94717628718E+02 -0.15394778393E+03  0.73780334210E+03  0.78065267172E+03  0.17998186820E+03 0.  0.
        -24    2    5    5    0    0  0.75008150167E+02 -0.18175686446E+03  0.68924721002E+03  0.72114135794E+03  0.79506988620E+02 0.  0.
          5    1    3    3  501    0 -0.60507001230E+02  0.13740430008E+03  0.26487498020E+03  0.30450268310E+03  0.47000000000E+01 0. -1.
        -13    1    4    4    0    0  0.19627628880E+02  0.19889891405E+01  0.51836367641E+02  0.55463581776E+02  0.00000000000E+00 0.  1.
         14    1    4    4    0    0 -0.53838256368E+02  0.14554494705E+02  0.19244475338E+02  0.58997805009E+02  0.00000000000E+00 0. -1.
         -5    1    5    5    0  502  0.19709478551E+02  0.27809080537E+02  0.48556132086E+02  0.59511313784E+02  0.47000000000E+01 0.  1.
         11    1    6    6    0    0  0.63506079985E+02 -0.61753631835E+02  0.35272528901E+03  0.36367796572E+03  0.00000000000E+00 0. -1.
        -12    1    6    6    0    0  0.11502070182E+02 -0.12000323263E+03  0.33652192101E+03  0.35746339222E+03  0.00000000000E+00 0.  1.
<mgrwt>
<rscale>  2 0.25388241E+03</rscale>
<asrwt>0</asrwt>
<pdfrwt beam="1">  1       21 0.17487505E+00 0.25507807E+03</pdfrwt>
<pdfrwt beam="2">  1       21 0.96813529E-02 0.25507807E+03</pdfrwt>
<totfact> 0.16269487E+04</totfact>
</mgrwt>
</event>
<event>
12    1  0.1071811E-001  0.2256475E+03  0.7546771E-02  0.1129760E+00
         21   -1    0    0  503  502  0.00000000000E+00  0.00000000000E+00  0.13798788437E+03  0.13798788437E+03  0.00000000000E+00 0.  1.
         21   -1    0    0  501  503 -0.00000000000E+00 -0.00000000000E+00 -0.38695250892E+03  0.38695250892E+03  0.00000000000E+00 0.  1.
          6    2    1    2  501    0  0.14598919573E+03  0.59949746201E+01 -0.18132305955E+03  0.28947338387E+03  0.17195349096E+03 0.  0.
         24    2    3    3    0    0  0.74142089956E+02  0.53561588342E+02 -0.15840593956E+03  0.20018803380E+03  0.81344415533E+02 0.  0.
         -6    2    1    2    0  502 -0.14598919573E+03 -0.59949746201E+01 -0.67641565007E+02  0.23546700942E+03  0.17181544231E+03 0.  0.
        -24    2    5    5    0    0 -0.12452245034E+03  0.41796930622E+01  0.15408829150E+02  0.14895803306E+03  0.80173269399E+02 0.  0.
          5    1    3    3  501    0  0.71847105778E+02 -0.47566613722E+02 -0.22917119990E+02  0.89285350076E+02  0.47000000000E+01 0. -1.
        -11    1    4    4    0    0  0.83535907262E+01  0.16072406795E+02 -0.10733935697E+03  0.10885698091E+03  0.00000000000E+00 0.  1.
         12    1    4    4    0    0  0.65788499229E+02  0.37489181547E+02 -0.51066582592E+02  0.91331052888E+02  0.00000000000E+00 0. -1.
         -5    1    5    5    0  502 -0.21466745397E+02 -0.10174667682E+02 -0.83050394157E+02  0.86508976355E+02  0.47000000000E+01 0.  1.
         13    1    6    6    0    0 -0.48296479705E+02  0.21792895173E+02 -0.27534161204E+02  0.59712731181E+02  0.00000000000E+00 0. -1.
        -14    1    6    6    0    0 -0.76225970632E+02 -0.17613202111E+02  0.42942990354E+02  0.89245301882E+02  0.00000000000E+00 0.  1.
<mgrwt>
<rscale>  2 0.22562119E+03</rscale>
<asrwt>0</asrwt>
<pdfrwt beam="1">  1       21 0.21228906E-01 0.22564749E+03</pdfrwt>
<pdfrwt beam="2">  1       21 0.59531155E-01 0.22564749E+03</pdfrwt>
<totfact> 0.53574140E+04</totfact>
</mgrwt>
</event>
<event>
12    1  0.1071811E-001  0.1960759E+03  0.7546771E-02  0.1153173E+00
         21   -1    0    0  503  502  0.00000000000E+00  0.00000000000E+00  0.91402299123E+02  0.91402299123E+02  0.00000000000E+00 0.  1.
         21   -1    0    0  501  503 -0.00000000000E+00 -0.00000000000E+00 -0.43244303925E+03  0.43244303925E+03  0.00000000000E+00 0. -1.
          6    2    1    2  501    0  0.50416253756E+02 -0.74010397343E+02 -0.21510569794E+03  0.29081019498E+03  0.17401370825E+03 0.  0.
         24    2    3    3    0    0  0.30584733485E+02 -0.11362638422E+03 -0.19578056921E+03  0.24224821177E+03  0.80670835562E+02 0.  0.
         -6    2    1    2    0  502 -0.50416253756E+02  0.74010397343E+02 -0.12593504219E+03  0.23303514340E+03  0.17443166470E+03 0.  0.
        -24    2    5    5    0    0 -0.96139340221E+02  0.81342796747E+02 -0.10040491856E+03  0.17994802698E+03  0.80254105338E+02 0.  0.
          5    1    3    3  501    0  0.19831520271E+02  0.39615986879E+02 -0.19325128729E+02  0.48561983208E+02  0.47000000000E+01 0. -1.
        -13    1    4    4    0    0 -0.20827450775E+02 -0.62173719454E+02 -0.63438069560E+02  0.91234548094E+02  0.00000000000E+00 0.  1.
         14    1    4    4    0    0  0.51412184259E+02 -0.51452664769E+02 -0.13234249965E+03  0.15101366368E+03  0.00000000000E+00 0. -1.
         -5    1    5    5    0  502  0.45723086465E+02 -0.73323994035E+01 -0.25530123626E+02  0.53087116415E+02  0.47000000000E+01 0.  1.
         13    1    6    6    0    0 -0.92313184187E+02  0.36368825760E+02 -0.89249048759E+02  0.13345339324E+03  0.00000000000E+00 0. -1.
        -14    1    6    6    0    0 -0.38261560336E+01  0.44973970986E+02 -0.11155869803E+02  0.46494633748E+02  0.00000000000E+00 0.  1.
<mgrwt>
<rscale>  2 0.19598286E+03</rscale>
<asrwt>0</asrwt>
<pdfrwt beam="1">  1       21 0.14061892E-01 0.19607586E+03</pdfrwt>
<pdfrwt beam="2">  1       21 0.66529699E-01 0.19607586E+03</pdfrwt>
<totfact> 0.91253769E+04</totfact>
</mgrwt>
</event>
<event>
12    1  0.1071811E-001  0.1792547E+03  0.7546771E-02  0.1169561E+00
         21   -1    0    0  503  502  0.00000000000E+00  0.00000000000E+00  0.15734279461E+03  0.15734279461E+03  0.00000000000E+00 0. -1.
         21   -1    0    0  501  503 -0.00000000000E+00 -0.00000000000E+00 -0.19962714683E+03  0.19962714683E+03  0.00000000000E+00 0. -1.
          6    2    1    2  501    0 -0.35255834247E+02  0.16515077296E+02 -0.16276387280E+02  0.17999218179E+03  0.17497583575E+03 0.  0.
         24    2    3    3    0    0  0.41426136999E+02 -0.11113983044E+02 -0.31239639162E+02  0.96989298727E+02  0.81187213074E+02 0.  0.
         -6    2    1    2    0  502  0.35255834247E+02 -0.16515077296E+02 -0.26007964934E+02  0.17697775965E+03  0.17067217566E+03 0.  0.
        -24    2    5    5    0    0  0.12269753809E+02  0.41754350577E+02  0.28838519114E+02  0.93587634750E+02  0.77672469658E+02 0.  0.
          5    1    3    3  501    0 -0.76681971246E+02  0.27629060340E+02  0.14963251883E+02  0.83002883061E+02  0.47000000000E+01 0. -1.
        -11    1    4    4    0    0 -0.17704780237E+02 -0.25378619820E+02 -0.12041651767E+02  0.33204441938E+02  0.00000000000E+00 0.  1.
         12    1    4    4    0    0  0.59130917235E+02  0.14264636775E+02 -0.19197987396E+02  0.63784856788E+02  0.00000000000E+00 0. -1.
         -5    1    5    5    0  502  0.22986080438E+02 -0.58269427873E+02 -0.54846484048E+02  0.83390124901E+02  0.47000000000E+01 0.  1.
         13    1    6    6    0    0 -0.20082148504E+02  0.25351790478E+02  0.43718956481E+02  0.54381551328E+02  0.00000000000E+00 0. -1.
        -14    1    6    6    0    0  0.32351902313E+02  0.16402560099E+02 -0.14880437367E+02  0.39206083423E+02  0.00000000000E+00 0.  1.
<mgrwt>
<rscale>  2 0.17819579E+03</rscale>
<asrwt>0</asrwt>
<pdfrwt beam="1">  1       21 0.24206584E-01 0.17925475E+03</pdfrwt>
<pdfrwt beam="2">  1       21 0.30711869E-01 0.17925475E+03</pdfrwt>
<totfact> 0.16464012E+05</totfact>
</mgrwt>
</event>
<event>
12    1  0.1071811E-001  0.3367116E+03  0.7546771E-02  0.1068308E+00
         21   -1    0    0  501  502  0.00000000000E+00  0.00000000000E+00  0.32251222918E+03  0.32251222918E+03  0.00000000000E+00 0. -1.
         21   -1    0    0  502  503 -0.00000000000E+00 -0.00000000000E+00 -0.41763807162E+03  0.41763807162E+03  0.00000000000E+00 0.  1.
         -6    2    1    2    0  503 -0.10103335132E+03  0.27052816335E+03 -0.19583636145E+03  0.38870000170E+03  0.17129677642E+03 0.  0.
        -24    2    3    3    0    0 -0.61514416185E+02  0.26728804874E+03 -0.19934295943E+03  0.34861720232E+03  0.81051920922E+02 0.  0.
          6    2    1    2  501    0  0.10103335132E+03 -0.27052816335E+03  0.10071051901E+03  0.35145029910E+03  0.17315160655E+03 0.  0.
         24    2    5    5    0    0  0.22417790550E+02 -0.21744879558E+03  0.10700273411E+03  0.25626885317E+03  0.80234680563E+02 0.  0.
          5    1    5    5  501    0  0.78615560770E+02 -0.53079367772E+02 -0.62922151031E+01  0.95181445929E+02  0.47000000000E+01 0. -1.
        -13    1    6    6    0    0  0.16319569410E+02 -0.19040037893E+02 -0.86568433827E+01  0.26529084531E+02  0.00000000000E+00 0.  1.
         14    1    6    6    0    0  0.60982211392E+01 -0.19840875769E+03  0.11565957749E+03  0.22973976864E+03  0.00000000000E+00 0. -1.
         -5    1    3    3    0  503 -0.39518935134E+02  0.32401146151E+01  0.35065979734E+01  0.40082799381E+02  0.47000000000E+01 0.  1.
         13    1    4    4    0    0  0.18813242506E+02  0.31251517701E+02 -0.29813844147E+02  0.47111153192E+02  0.00000000000E+00 0. -1.
        -14    1    4    4    0    0 -0.80327658691E+02  0.23603653104E+03 -0.16952911528E+03  0.30150604913E+03  0.00000000000E+00 0.  1.
<mgrwt>
<rscale>  2 0.33647384E+03</rscale>
<asrwt>0</asrwt>
<pdfrwt beam="1">  1       21 0.49617266E-01 0.33671160E+03</pdfrwt>
<pdfrwt beam="2">  1       21 0.64252011E-01 0.33671160E+03</pdfrwt>
<totfact> 0.79977241E+03</totfact>
</mgrwt>
</event>
<event>
12    1  0.1071811E-001  0.2140835E+03  0.7546771E-02  0.1140858E+00
         21   -1    0    0  501  502  0.00000000000E+00  0.00000000000E+00  0.87126508265E+02  0.87126508265E+02  0.00000000000E+00 0. -1.
         21   -1    0    0  502  503 -0.00000000000E+00 -0.00000000000E+00 -0.51120073310E+03  0.51120073310E+03  0.00000000000E+00 0.  1.
         -6    2    1    2    0  503 -0.11904296280E+03 -0.32066720552E+02 -0.16638165013E+03  0.27113572190E+03  0.17502064058E+03 0.  0.
        -24    2    3    3    0    0 -0.14124978452E+03 -0.27167580456E+02 -0.72377136198E+02  0.17430554508E+03  0.66741247706E+02 0.  0.
          6    2    1    2  501    0  0.11904296280E+03  0.32066720552E+02 -0.25769257470E+03  0.32719151946E+03  0.15952844822E+03 0.  0.
         24    2    5    5    0    0  0.11230506524E+03  0.20055616722E+02 -0.27250995184E+03  0.30642350213E+03  0.81357441966E+02 0.  0.
          5    1    5    5  501    0  0.67378975633E+01  0.12011103831E+02  0.14817377138E+02  0.20768017336E+02  0.47000000000E+01 0. -1.
        -13    1    6    6    0    0  0.12906778890E+02  0.18119916914E+02 -0.13453628291E+03  0.13636321993E+03  0.00000000000E+00 0.  1.
         14    1    6    6    0    0  0.99398286349E+02  0.19356998080E+01 -0.13797366893E+03  0.17006028220E+03  0.00000000000E+00 0. -1.
         -5    1    3    3    0  503  0.22206821717E+02 -0.48991400958E+01 -0.94004513930E+02  0.96830176824E+02  0.47000000000E+01 0.  1.
         13    1    4    4    0    0 -0.50389478958E+02  0.43794041791E+01  0.50512099888E+01  0.50831028841E+02  0.00000000000E+00 0. -1.
        -14    1    4    4    0    0 -0.90860305560E+02 -0.31546984636E+02 -0.77428346187E+02  0.12347451623E+03  0.00000000000E+00 0.  1.
<mgrwt>
<rscale>  2 0.21089600E+03</rscale>
<asrwt>0</asrwt>
<pdfrwt beam="1">  1       21 0.13404078E-01 0.21408346E+03</pdfrwt>
<pdfrwt beam="2">  1       21 0.78646267E-01 0.21408346E+03</pdfrwt>
<totfact> 0.68087700E+04</totfact>
</mgrwt>
</event>
<event>
12    1  0.1071811E-001  0.1780039E+03  0.7546771E-02  0.1172930E+00
         21   -1    0    0  501  502  0.00000000000E+00  0.00000000000E+00  0.94110535777E+03  0.94110535777E+03  0.00000000000E+00 0.  1.
         21   -1    0    0  502  503 -0.00000000000E+00 -0.00000000000E+00 -0.64497317068E+02  0.64497317068E+02  0.00000000000E+00 0.  1.
         -6    2    1    2    0  503  0.31697996545E+02  0.21764017121E+02  0.70244396148E+02  0.17982563630E+03  0.16101102091E+03 0.  0.
        -24    2    3    3    0    0  0.27369246894E+02  0.57007146538E+02  0.91406992522E+02  0.13822321173E+03  0.82167679460E+02 0.  0.
          6    2    1    2  501    0 -0.31697996545E+02 -0.21764017121E+02  0.80636364456E+03  0.82577703854E+03  0.17380148069E+03 0.  0.
         24    2    5    5    0    0 -0.69897877463E+02  0.13009417182E+02  0.69079935992E+03  0.69910574535E+03  0.80561338758E+02 0.  0.
          5    1    5    5  501    0  0.38199880917E+02 -0.34773434303E+02  0.11556428463E+03  0.12667129319E+03  0.47000000000E+01 0. -1.
        -11    1    6    6    0    0 -0.18472936958E+02  0.43615760205E+02  0.28229127068E+03  0.28623756819E+03  0.00000000000E+00 0.  1.
         12    1    6    6    0    0 -0.51424940505E+02 -0.30606343023E+02  0.40850808924E+03  0.41286817716E+03  0.00000000000E+00 0. -1.
         -5    1    3    3    0  503  0.43287496509E+01 -0.35243129417E+02 -0.21162596374E+02  0.41602424568E+02  0.47000000000E+01 0.  1.
         13    1    4    4    0    0 -0.23967137707E+02  0.23578382537E+02  0.76956229723E+01  0.34490381643E+02  0.00000000000E+00 0. -1.
        -14    1    4    4    0    0  0.51336384602E+02  0.33428764001E+02  0.83711369550E+02  0.10373283009E+03  0.00000000000E+00 0.  1.
<mgrwt>
<rscale>  2 0.17480219E+03</rscale>
<asrwt>0</asrwt>
<pdfrwt beam="1">  1       21 0.14478543E+00 0.17800390E+03</pdfrwt>
<pdfrwt beam="2">  1       21 0.99226648E-02 0.17800390E+03</pdfrwt>
<totfact> 0.27228735E+04</totfact>
</mgrwt>
</event>
<event>
12    1  0.1071811E-001  0.1824555E+03  0.7546771E-02  0.1165478E+00
         21   -1    0    0  501  502  0.00000000000E+00  0.00000000000E+00  0.15182981367E+04  0.15182981367E+04  0.00000000000E+00 0.  1.
         21   -1    0    0  502  503 -0.00000000000E+00 -0.00000000000E+00 -0.38632906627E+02  0.38632906627E+02  0.00000000000E+00 0.  1.
         -6    2    1    2    0  503  0.25239321364E+01 -0.58703392251E+02  0.22751727255E+03  0.29155974594E+03  0.17259929794E+03 0.  0.
        -24    2    3    3    0    0  0.84743776685E+01  0.19894572767E+02  0.18911474174E+03  0.20375375366E+03  0.72688358671E+02 0.  0.
          6    2    1    2  501    0 -0.25239321364E+01  0.58703392251E+02  0.12521479575E+04  0.12653712974E+04  0.17273550367E+03 0.  0.
         24    2    5    5    0    0  0.77618443598E+01  0.85490381274E+02  0.11993704113E+04  0.12051143529E+04  0.80264365894E+02 0.  0.
          5    1    5    5  501    0 -0.10285776496E+02 -0.26786989023E+02  0.52777546206E+02  0.60256944517E+02  0.47000000000E+01 0. -1.
        -11    1    6    6    0    0 -0.35229199814E+02  0.41988700081E+02  0.47029733738E+03  0.47348044627E+03  0.00000000000E+00 0.  1.
         12    1    6    6    0    0  0.42991044174E+02  0.43501681193E+02  0.72907307392E+03  0.73163390658E+03  0.00000000000E+00 0. -1.
         -5    1    3    3    0  503 -0.59504455321E+01 -0.78597965018E+02  0.38402530812E+02  0.87805992277E+02  0.47000000000E+01 0.  1.
         13    1    4    4    0    0 -0.31344453201E+02  0.10132864000E+02  0.10728037928E+03  0.11222401462E+03  0.00000000000E+00 0. -1.
        -14    1    4    4    0    0  0.39818830870E+02  0.97617087663E+01  0.81834362457E+02  0.91529739039E+02  0.00000000000E+00 0.  1.
<mgrwt>
<rscale>  2 0.18242326E+03</rscale>
<asrwt>0</asrwt>
<pdfrwt beam="1">  1       21 0.23358428E+00 0.18245551E+03</pdfrwt>
<pdfrwt beam="2">  1       21 0.59435253E-02 0.18245551E+03</pdfrwt>
<totfact> 0.16824640E+04</totfact>
</mgrwt>
</event>
<event>
12    1  0.1071811E-001  0.1788346E+03  0.7546771E-02  0.1169433E+00
         21   -1    0    0  503  502  0.00000000000E+00  0.00000000000E+00  0.27758766112E+02  0.27758766112E+02  0.00000000000E+00 0.  1.
         21   -1    0    0  501  503 -0.00000000000E+00 -0.00000000000E+00 -0.15695762746E+04  0.15695762746E+04  0.00000000000E+00 0.  1.
          6    2    1    2  501    0 -0.36936599352E+02  0.23945193176E+02 -0.11859697839E+04  0.11990770492E+04  0.17124180784E+03 0.  0.
         24    2    3    3    0    0  0.22393820971E+02  0.56373219726E+02 -0.51868070801E+03  0.52835469487E+03  0.80309299668E+02 0.  0.
         -6    2    1    2    0  502  0.36936599352E+02 -0.23945193176E+02 -0.35584772457E+03  0.39825799157E+03  0.17333245549E+03 0.  0.
        -24    2    5    5    0    0  0.77949422892E+02 -0.92827228027E+01 -0.33302119523E+03  0.34885981171E+03  0.68101176801E+02 0.  0.
          5    1    3    3  501    0 -0.59330420323E+02 -0.32428026550E+02 -0.66728907594E+03  0.67072235429E+03  0.47000000000E+01 0. -1.
        -13    1    4    4    0    0 -0.18187725787E+02 -0.67031733730E+01 -0.20134108634E+03  0.20227199250E+03  0.00000000000E+00 0.  1.
         14    1    4    4    0    0  0.40581546757E+02  0.63076393099E+02 -0.31733962167E+03  0.32608270237E+03  0.00000000000E+00 0. -1.
         -5    1    5    5    0  502 -0.41012823540E+02 -0.14662470373E+02 -0.22826529333E+02  0.49398179861E+02  0.47000000000E+01 0.  1.
         13    1    6    6    0    0  0.17810898291E+02  0.27826547909E+02 -0.95813455287E+02  0.10134970686E+03  0.00000000000E+00 0. -1.
        -14    1    6    6    0    0  0.60138524601E+02 -0.37109270712E+02 -0.23720773994E+03  0.24751010485E+03  0.00000000000E+00 0.  1.
<mgrwt>
<rscale>  2 0.17832607E+03</rscale>
<asrwt>0</asrwt>
<pdfrwt beam="1">  1       21 0.42705792E-02 0.17883463E+03</pdfrwt>
<pdfrwt beam="2">  1       21 0.24147328E+00 0.17883463E+03</pdfrwt>
<totfact> 0.26519716E+04</totfact>
</mgrwt>
</event>
<event>
12    1  0.1071811E-001  0.2230776E+03  0.7546771E-02  0.1131987E+00
         21   -1    0    0  501  502  0.00000000000E+00  0.00000000000E+00  0.78716521524E+02  0.78716521524E+02  0.00000000000E+00 0.  1.
         21   -1    0    0  502  503 -0.00000000000E+00 -0.00000000000E+00 -0.66500874557E+03  0.66500874557E+03  0.00000000000E+00 0. -1.
         -6    2    1    2    0  503 -0.72541836187E+02  0.11599711333E+03 -0.38403917469E+03  0.44412801266E+03  0.17619862554E+03 0.  0.
        -24    2    3    3    0    0 -0.41784860782E+02 -0.21614709605E+02 -0.13335550159E+03  0.15646953581E+03  0.66976530004E+02 0.  0.
          6    2    1    2  501    0  0.72541836187E+02 -0.11599711333E+03 -0.20225304936E+03  0.29959725443E+03  0.17359311792E+03 0.  0.
         24    2    5    5    0    0  0.11242031155E+03 -0.84245530119E+02 -0.11452167029E+03  0.19802294317E+03  0.79763633708E+02 0.  0.
          5    1    5    5  501    0 -0.39878475365E+02 -0.31751583211E+02 -0.87731379075E+02  0.10157431126E+03  0.47000000000E+01 0. -1.
        -13    1    6    6    0    0 -0.72961441532E+01 -0.10779836272E+02  0.46463666194E+01  0.13821263050E+02  0.00000000000E+00 0.  1.
         14    1    6    6    0    0  0.11971645570E+03 -0.73465693847E+02 -0.11916803691E+03  0.18420168012E+03  0.00000000000E+00 0. -1.
         -5    1    3    3    0  503 -0.30756975405E+02  0.13761182294E+03 -0.25068367310E+03  0.28765847685E+03  0.47000000000E+01 0.  1.
         13    1    4    4    0    0 -0.15915638379E+02  0.14375592084E+02 -0.96413436659E+02  0.98770015496E+02  0.00000000000E+00 0. -1.
        -14    1    4    4    0    0 -0.25869222402E+02 -0.35990301689E+02 -0.36942064929E+02  0.57699520315E+02  0.00000000000E+00 0.  1.
<mgrwt>
<rscale>  2 0.22256275E+03</rscale>
<asrwt>0</asrwt>
<pdfrwt beam="1">  1       21 0.12110234E-01 0.22307757E+03</pdfrwt>
<pdfrwt beam="2">  1       21 0.10230904E+00 0.22307757E+03</pdfrwt>
<totfact> 0.44191490E+04</totfact>
</mgrwt>
</event>
<event>
12    1  0.1071811E-001  0.2715834E+03  0.7546771E-02  0.1100429E+00
         21   -1    0    0  501  502  0.00000000000E+00  0.00000000000E+00  0.12467616783E+03  0.12467616783E+03  0.00000000000E+00 0.  1.
         21   -1    0    0  502  503 -0.00000000000E+00 -0.00000000000E+00 -0.95098927405E+03  0.95098927405E+03  0.00000000000E+00 0.  1.
         -6    2    1    2    0  503 -0.18418105155E+03  0.98269111429E+02 -0.74398427181E+03  0.79187748806E+03  0.17314121806E+03 0.  0.
        -24    2    3    3    0    0 -0.40502266972E+02 -0.25675245677E+01 -0.18002188980E+03  0.20121067960E+03  0.80192462029E+02 0.  0.
          6    2    1    2  501    0  0.18418105155E+03 -0.98269111429E+02 -0.82328834405E+02  0.28378795382E+03  0.17371841511E+03 0.  0.
         24    2    5    5    0    0  0.33589176685E+02  0.77118097266E+01 -0.26359642606E+02  0.91266503446E+02  0.80293456105E+02 0.  0.
          5    1    5    5  501    0  0.15059187486E+03 -0.10598092116E+03 -0.55969191799E+02  0.19252145037E+03  0.47000000000E+01 0. -1.
        -13    1    6    6    0    0  0.46799757097E+02  0.32635484813E+02 -0.26842537505E+02  0.63054055802E+02  0.00000000000E+00 0.  1.
         14    1    6    6    0    0 -0.13210580412E+02 -0.24923675086E+02  0.48289489876E+00  0.28212447645E+02  0.00000000000E+00 0. -1.
         -5    1    3    3    0  503 -0.14367878457E+03  0.10083663600E+03 -0.56396238201E+03  0.59066680846E+03  0.47000000000E+01 0.  1.
         13    1    4    4    0    0 -0.45196655091E+02  0.20804309263E+02 -0.55965058447E+02  0.74884208497E+02  0.00000000000E+00 0. -1.
        -14    1    4    4    0    0  0.46943881192E+01 -0.23371833830E+02 -0.12405683135E+03  0.12632647110E+03  0.00000000000E+00 0.  1.
<mgrwt>
<rscale>  2 0.27149118E+03</rscale>
<asrwt>0</asrwt>
<pdfrwt beam="1">  1       21 0.19180949E-01 0.27158344E+03</pdfrwt>
<pdfrwt beam="2">  1       21 0.14630604E+00 0.27158344E+03</pdfrwt>
<totfact> 0.75485981E+03</totfact>
</mgrwt>
</event>
<event>
12    1  0.1071811E-001  0.2163223E+03  0.7546771E-02  0.1138131E+00
         21   -1    0    0  501  502  0.00000000000E+00  0.00000000000E+00  0.16711099586E+03  0.16711099586E+03  0.00000000000E+00 0.  1.
         21   -1    0    0  502  503 -0.00000000000E+00 -0.00000000000E+00 -0.57108906008E+03  0.57108906008E+03  0.00000000000E+00 0. -1.
         -6    2    1    2    0  503  0.27712444909E+02 -0.11210226714E+03 -0.47156054383E+03  0.51881084736E+03  0.18292198048E+03 0.  0.
        -24    2    3    3    0    0  0.76479366622E+01 -0.14121742294E+03 -0.44610613533E+03  0.47498969150E+03  0.81262977926E+02 0.  0.
          6    2    1    2  501    0 -0.27712444909E+02  0.11210226714E+03  0.67582479607E+02  0.21938920857E+03  0.17386585458E+03 0.  0.
         24    2    5    5    0    0  0.35482890458E+02  0.70401187089E+02  0.85891616056E+02  0.14135110911E+03  0.79921234227E+02 0.  0.
          5    1    5    5  501    0 -0.63195335367E+02  0.41701080053E+02 -0.18309136449E+02  0.78038099460E+02  0.47000000000E+01 0. -1.
        -11    1    6    6    0    0  0.44552378524E+02  0.71729896742E+01  0.52653908065E+02  0.69345513536E+02  0.00000000000E+00 0.  1.
         12    1    6    6    0    0 -0.90694880660E+01  0.63228197415E+02  0.33237707991E+02  0.72005595578E+02  0.00000000000E+00 0. -1.
         -5    1    3    3    0  503  0.20064508246E+02  0.29115155802E+02 -0.25454408506E+02  0.43821155860E+02  0.47000000000E+01 0.  1.
         13    1    4    4    0    0 -0.21632228281E+02 -0.10053028351E+03 -0.36868788782E+03  0.38275978084E+03  0.00000000000E+00 0. -1.
        -14    1    4    4    0    0  0.29280164943E+02 -0.40687139432E+02 -0.77418247508E+02  0.92229910666E+02  0.00000000000E+00 0.  1.
<mgrwt>
<rscale>  2 0.21439629E+03</rscale>
<asrwt>0</asrwt>
<pdfrwt beam="1">  1       21 0.25709384E-01 0.21632233E+03</pdfrwt>
<pdfrwt beam="2">  1       21 0.87859856E-01 0.21632233E+03</pdfrwt>
<totfact> 0.15710909E+04</totfact>
</mgrwt>
</event>
<event>
12    1  0.1071811E-001  0.1754328E+03  0.7546771E-02  0.1172965E+00
         21   -1    0    0  503  502  0.00000000000E+00  0.00000000000E+00  0.11864659386E+03  0.11864659386E+03  0.00000000000E+00 0.  1.
         21   -1    0    0  501  503 -0.00000000000E+00 -0.00000000000E+00 -0.26189243858E+03  0.26189243858E+03  0.00000000000E+00 0. -1.
          6    2    1    2  501    0  0.27161133198E+02 -0.23496025171E+02 -0.10187756347E+03  0.20286871335E+03  0.17171746144E+03 0.  0.
         24    2    3    3    0    0  0.19543444454E+02  0.47161787285E+02 -0.28308756901E+02  0.10047235139E+03  0.81774857235E+02 0.  0.
         -6    2    1    2    0  502 -0.27161133198E+02  0.23496025171E+02 -0.41368281251E+02  0.17767031909E+03  0.16901365991E+03 0.  0.
        -24    2    5    5    0    0 -0.70197661970E+02  0.33348662903E+02  0.16997202116E+00  0.11686954801E+03  0.87284691091E+02 0.  0.
          5    1    3    3  501    0  0.76176887448E+01 -0.70657812457E+02 -0.73568806566E+02  0.10239636196E+03  0.47000000000E+01 0. -1.
        -13    1    4    4    0    0  0.15378645263E+02 -0.21449711095E+02 -0.15323205589E+02  0.30518739582E+02  0.00000000000E+00 0.  1.
         14    1    4    4    0    0  0.41647991906E+01  0.68611498380E+02 -0.12985551312E+02  0.69953611809E+02  0.00000000000E+00 0. -1.
         -5    1    5    5    0  502  0.43036528771E+02 -0.98526377321E+01 -0.41538253272E+02  0.60800771080E+02  0.47000000000E+01 0.  1.
         11    1    6    6    0    0  0.19562192347E+02  0.16321369330E+02 -0.10929232911E+01  0.25500214657E+02  0.00000000000E+00 0. -1.
        -12    1    6    6    0    0 -0.89759854317E+02  0.17027293573E+02  0.12628953123E+01  0.91369333356E+02  0.00000000000E+00 0.  1.
<mgrwt>
<rscale>  2 0.17476764E+03</rscale>
<asrwt>0</asrwt>
<pdfrwt beam="1">  1       21 0.18253322E-01 0.17543283E+03</pdfrwt>
<pdfrwt beam="2">  1       21 0.40291144E-01 0.17543283E+03</pdfrwt>
<totfact> 0.16327911E+05</totfact>
</mgrwt>
</event>
<event>
12    1  0.1071811E-001  0.1795407E+03  0.7546771E-02  0.1169086E+00
         21   -1    0    0  501  502  0.00000000000E+00  0.00000000000E+00  0.12075318486E+03  0.12075318486E+03  0.00000000000E+00 0. -1.
         21   -1    0    0  502  503 -0.00000000000E+00 -0.00000000000E+00 -0.26764074691E+03  0.26764074691E+03  0.00000000000E+00 0. -1.
         -6    2    1    2    0  503 -0.50726925830E+02 -0.34060195286E+02 -0.45673146663E+02  0.18525900735E+03  0.16882400769E+03 0.  0.
        -24    2    3    3    0    0 -0.33566818215E+02  0.21121364820E+02 -0.77870473937E+02  0.11893984155E+03  0.80684768448E+02 0.  0.
          6    2    1    2  501    0  0.50726925830E+02  0.34060195286E+02 -0.10121441539E+03  0.20313492442E+03  0.16518511352E+03 0.  0.
         24    2    5    5    0    0 -0.22210174463E+01 -0.34921964773E+02 -0.48537207032E+02  0.10135574490E+03  0.81808618218E+02 0.  0.
          5    1    5    5  501    0  0.52947943277E+02  0.68982160059E+02 -0.52677208359E+02  0.10177917952E+03  0.47000000000E+01 0. -1.
        -11    1    6    6    0    0  0.12525846609E+02  0.82645068781E+01 -0.53394366691E+02  0.55463116587E+02  0.00000000000E+00 0.  1.
         12    1    6    6    0    0 -0.14746864055E+02 -0.43186471651E+02  0.48571596587E+01  0.45892628309E+02  0.00000000000E+00 0. -1.
         -5    1    3    3    0  503 -0.17160107616E+02 -0.55181560106E+02  0.32197327274E+02  0.66319165802E+02  0.47000000000E+01 0.  1.
         11    1    4    4    0    0 -0.13294660363E+01 -0.29381249205E+02 -0.32148303979E+02  0.43572224335E+02  0.00000000000E+00 0. -1.
        -12    1    4    4    0    0 -0.32237352178E+02  0.50502614025E+02 -0.45722169958E+02  0.75367617214E+02  0.00000000000E+00 0.  1.
<mgrwt>
<rscale>  2 0.17868020E+03</rscale>
<asrwt>0</asrwt>
<pdfrwt beam="1">  1       21 0.18577413E-01 0.17954070E+03</pdfrwt>
<pdfrwt beam="2">  1       21 0.41175499E-01 0.17954070E+03</pdfrwt>
<totfact> 0.15106279E+05</totfact>
</mgrwt>
</event>
<event>
12    1  0.1071811E-001  0.1959838E+03  0.7546771E-02  0.1154093E+00
         21   -1    0    0  501  502  0.00000000000E+00  0.00000000000E+00  0.42559045046E+03  0.42559045046E+03  0.00000000000E+00 0.  1.
         21   -1    0    0  502  503 -0.00000000000E+00 -0.00000000000E+00 -0.92607034974E+02  0.92607034974E+02  0.00000000000E+00 0.  1.
         -6    2    1    2    0  503  0.18791300362E+02 -0.85736278627E+02  0.10906362370E+03  0.22062445887E+03  0.17051819666E+03 0.  0.
        -24    2    3    3    0    0  0.31690866098E+02  0.11912855856E+02  0.20256297041E+02  0.87919585069E+02  0.78570406262E+02 0.  0.
          6    2    1    2  501    0 -0.18791300362E+02  0.85736278627E+02  0.22391979178E+03  0.29757302656E+03  0.17523073516E+03 0.  0.
         24    2    5    5    0    0 -0.11736232877E+02  0.54155787737E+00  0.18821508460E+03  0.20481080076E+03  0.79903151322E+02 0.  0.
          5    1    5    5  501    0 -0.70550674850E+01  0.85194720750E+02  0.35704707186E+02  0.92762225804E+02  0.47000000000E+01 0. -1.
        -13    1    6    6    0    0 -0.25033417215E+02  0.35406841785E+02  0.10582410672E+03  0.11436370922E+03  0.00000000000E+00 0.  1.
         14    1    6    6    0    0  0.13297184338E+02 -0.34865283908E+02  0.82390977873E+02  0.90447091541E+02  0.00000000000E+00 0. -1.
         -5    1    3    3    0  503 -0.12899565735E+02 -0.97649134483E+02  0.88807326663E+02  0.13270487380E+03  0.47000000000E+01 0.  1.
         13    1    4    4    0    0 -0.22408782957E+02  0.20648120979E+02  0.38343792159E+01  0.30711576279E+02  0.00000000000E+00 0. -1.
        -14    1    4    4    0    0  0.54099649055E+02 -0.87352651232E+01  0.16421917825E+02  0.57208008790E+02  0.00000000000E+00 0.  1.
<mgrwt>
<rscale>  2 0.19492473E+03</rscale>
<asrwt>0</asrwt>
<pdfrwt beam="1">  1       21 0.65475453E-01 0.19598376E+03</pdfrwt>
<pdfrwt beam="2">  1       21 0.14247236E-01 0.19598376E+03</pdfrwt>
<totfact> 0.92278613E+04</totfact>
</mgrwt>
</event>
<event>
12    1  0.1071811E-001  0.2023578E+03  0.7546771E-02  0.1148012E+00
         21   -1    0    0  503  502  0.00000000000E+00  0.00000000000E+00  0.57111628738E+03  0.57111628738E+03  0.00000000000E+00 0. -1.
         21   -1    0    0  501  503 -0.00000000000E+00 -0.00000000000E+00 -0.21499625807E+03  0.21499625807E+03  0.00000000000E+00 0. -1.
          6    2    1    2  501    0 -0.41892941104E+02 -0.94527683244E+02 -0.14347255993E+03  0.24709357982E+03  0.17256987085E+03 0.  0.
         24    2    3    3    0    0 -0.72848985065E+02 -0.24986781640E+02 -0.37387313162E+02  0.11643990312E+03  0.78924812146E+02 0.  0.
         -6    2    1    2    0  502  0.41892941104E+02  0.94527683244E+02  0.49959258924E+03  0.53901896563E+03  0.17394881050E+03 0.  0.
        -24    2    5    5    0    0  0.17485726580E+01  0.12353334453E+03  0.42044317684E+03  0.44553304055E+03  0.80397018324E+02 0.  0.
          5    1    3    3  501    0  0.30956043962E+02 -0.69540901603E+02 -0.10608524677E+03  0.13065367670E+03  0.47000000000E+01 0. -1.
        -13    1    4    4    0    0 -0.18887898994E+01 -0.18844611180E+02  0.18065260267E+02  0.26173278861E+02  0.00000000000E+00 0.  1.
         14    1    4    4    0    0 -0.70960195166E+02 -0.61421704600E+01 -0.55452573429E+02  0.90266624263E+02  0.00000000000E+00 0. -1.
         -5    1    5    5    0  502  0.40144368446E+02 -0.29005661290E+02  0.79149412399E+02  0.93485925079E+02  0.47000000000E+01 0.  1.
         13    1    6    6    0    0  0.28096312516E+02  0.84521675049E+01  0.84765316603E+02  0.89699502849E+02  0.00000000000E+00 0. -1.
        -14    1    6    6    0    0 -0.26347739858E+02  0.11508117703E+03  0.33567786024E+03  0.35583353770E+03  0.00000000000E+00 0.  1.
<mgrwt>
<rscale>  2 0.20206115E+03</rscale>
<asrwt>0</asrwt>
<pdfrwt beam="1">  1       21 0.87864043E-01 0.20235783E+03</pdfrwt>
<pdfrwt beam="2">  1       21 0.33076348E-01 0.20235783E+03</pdfrwt>
<totfact> 0.97064267E+03</totfact>
</mgrwt>
</event>
<event>
12    1  0.1071811E-001  0.2201533E+03  0.7546771E-02  0.1133785E+00
         21   -1    0    0  501  502  0.00000000000E+00  0.00000000000E+00  0.13288471166E+04  0.13288471166E+04  0.00000000000E+00 0. -1.
         21   -1    0    0  502  503 -0.00000000000E+00 -0.00000000000E+00 -0.56472038196E+02  0.56472038196E+02  0.00000000000E+00 0.  1.
         -6    2    1    2    0  503  0.12248154264E+03 -0.59476657165E+02  0.22392269804E+03  0.31402048021E+03  0.17299793715E+03 0.  0.
        -24    2    3    3    0    0  0.13167754931E+03 -0.96066275900E+02  0.19858365103E+03  0.26833104991E+03  0.77449206137E+02 0.  0.
          6    2    1    2  501    0 -0.12248154264E+03  0.59476657165E+02  0.10484523804E+04  0.10712986746E+04  0.17288509259E+03 0.  0.
         24    2    5    5    0    0 -0.15140250066E+02 -0.22809686447E+02  0.42061583907E+03  0.42904171041E+03  0.80059953996E+02 0.  0.
          5    1    5    5  501    0 -0.10734129258E+03  0.82286343611E+02  0.62783654134E+03  0.64225696421E+03  0.47000000000E+01 0. -1.
        -13    1    6    6    0    0  0.27533859661E+02  0.11516189164E+02  0.14824348809E+03  0.15121794801E+03  0.00000000000E+00 0.  1.
         14    1    6    6    0    0 -0.42674109727E+02 -0.34325875611E+02  0.27237235098E+03  0.27782376240E+03  0.00000000000E+00 0. -1.
         -5    1    3    3    0  503 -0.91960066722E+01  0.36589618735E+02  0.25339047014E+02  0.45689430304E+02  0.47000000000E+01 0.  1.
         13    1    4    4    0    0 -0.42815533081E+01  0.72498887506E+00  0.32818457776E+02  0.33104508430E+02  0.00000000000E+00 0. -1.
        -14    1    4    4    0    0  0.13595910262E+03 -0.96791264776E+02  0.16576519325E+03  0.23522654148E+03  0.00000000000E+00 0.  1.
<mgrwt>
<rscale>  2 0.22013116E+03</rscale>
<asrwt>0</asrwt>
<pdfrwt beam="1">  1       21 0.20443800E+00 0.22015333E+03</pdfrwt>
<pdfrwt beam="2">  1       21 0.86880068E-02 0.22015333E+03</pdfrwt>
<totfact> 0.12790200E+04</totfact>
</mgrwt>
</event>
<event>
12    1  0.1071811E-001  0.2560243E+03  0.7546771E-02  0.1109635E+00
         21   -1    0    0  501  502  0.00000000000E+00  0.00000000000E+00  0.25674161072E+03  0.25674161072E+03  0.00000000000E+00 0. -1.
         21   -1    0    0  502  503 -0.00000000000E+00 -0.00000000000E+00 -0.30346035719E+03  0.30346035719E+03  0.00000000000E+00 0. -1.
         -6    2    1    2    0  503  0.83546562494E+02  0.16877993327E+03 -0.13550733655E+03  0.28921883998E+03  0.17268064501E+03 0.  0.
        -24    2    3    3    0    0  0.42534322385E+02  0.16598536111E+03 -0.54464245309E+02  0.19822496046E+03  0.83465395516E+02 0.  0.
          6    2    1    2  501    0 -0.83546562494E+02 -0.16877993327E+03  0.88788590078E+02  0.27098312793E+03  0.17344090612E+03 0.  0.
         24    2    5    5    0    0 -0.53579151810E+02 -0.16246407930E+03  0.12239140160E+03  0.22527563777E+03  0.80648342904E+02 0.  0.
          5    1    5    5  501    0 -0.29967410684E+02 -0.63158539699E+01 -0.33602811527E+02  0.45707490162E+02  0.47000000000E+01 0. -1.
        -11    1    6    6    0    0  0.78458193907E+01 -0.11049276620E+02 -0.84289684815E+01  0.15959038361E+02  0.00000000000E+00 0.  1.
         12    1    6    6    0    0 -0.61424971201E+02 -0.15141480268E+03  0.13082037009E+03  0.20931659941E+03  0.00000000000E+00 0. -1.
         -5    1    3    3    0  503  0.41012240108E+02  0.27945721625E+01 -0.81043091239E+02  0.90993879519E+02  0.47000000000E+01 0.  1.
         13    1    4    4    0    0 -0.19183935991E+02  0.33895774245E+02 -0.32613599443E+02  0.50799545081E+02  0.00000000000E+00 0. -1.
        -14    1    4    4    0    0  0.61718258376E+02  0.13208958687E+03 -0.21850645866E+02  0.14742541538E+03  0.00000000000E+00 0.  1.
<mgrwt>
<rscale>  2 0.25589560E+03</rscale>
<asrwt>0</asrwt>
<pdfrwt beam="1">  1       21 0.39498710E-01 0.25602430E+03</pdfrwt>
<pdfrwt beam="2">  1       21 0.46686208E-01 0.25602430E+03</pdfrwt>
<totfact> 0.26283994E+04</totfact>
</mgrwt>
</event>
<event>
12    1  0.1071811E-001  0.1807990E+03  0.7546771E-02  0.1167990E+00
         21   -1    0    0  501  502  0.00000000000E+00  0.00000000000E+00  0.14756064390E+03  0.14756064390E+03  0.00000000000E+00 0. -1.
         21   -1    0    0  502  503 -0.00000000000E+00 -0.00000000000E+00 -0.27616989811E+03  0.27616989811E+03  0.00000000000E+00 0. -1.
         -6    2    1    2    0  503 -0.11653483034E+02 -0.38997835290E+02 -0.16314648297E+03  0.24352627697E+03  0.17615799114E+03 0.  0.
        -24    2    3    3    0    0  0.39991803578E+02  0.40363436051E+01 -0.15108646166E+03  0.17506672470E+03  0.78775648378E+02 0.  0.
          6    2    1    2  501    0  0.11653483034E+02  0.38997835290E+02  0.34537228751E+02  0.18020426504E+03  0.17211659463E+03 0.  0.
         24    2    5    5    0    0 -0.25138390653E+02  0.81278842276E+02  0.34094632632E+02  0.12395827485E+03  0.83456701608E+02 0.  0.
          5    1    5    5  501    0  0.36791873688E+02 -0.42281006987E+02  0.44259611884E+00  0.56245990191E+02  0.47000000000E+01 0. -1.
        -13    1    6    6    0    0 -0.26254647642E+02  0.95907790143E+01 -0.19808601099E+02  0.34258871003E+02  0.00000000000E+00 0.  1.
         14    1    6    6    0    0  0.11162569885E+01  0.71688063262E+02  0.53903233731E+02  0.89699403848E+02  0.00000000000E+00 0. -1.
         -5    1    3    3    0  503 -0.51645286612E+02 -0.43034178895E+02 -0.12060021307E+02  0.68459552265E+02  0.47000000000E+01 0.  1.
         13    1    4    4    0    0  0.11616693951E+02  0.39478610297E+02 -0.89941389597E+02  0.98908856084E+02  0.00000000000E+00 0. -1.
        -14    1    4    4    0    0  0.28375109627E+02 -0.35442266691E+02 -0.61145072065E+02  0.76157868618E+02  0.00000000000E+00 0.  1.
<mgrwt>
<rscale>  2 0.17980702E+03</rscale>
<asrwt>0</asrwt>
<pdfrwt beam="1">  1       21 0.22701638E-01 0.18079898E+03</pdfrwt>
<pdfrwt beam="2">  1       21 0.42487676E-01 0.18079898E+03</pdfrwt>
<totfact> 0.97393630E+04</totfact>
</mgrwt>
</event>
<event>
12    1  0.1071811E-001  0.1787115E+03  0.7546771E-02  0.1169233E+00
         21   -1    0    0  503  502  0.00000000000E+00  0.00000000000E+00  0.18020725092E+03  0.18020725092E+03  0.00000000000E+00 0.  1.
         21   -1    0    0  501  503 -0.00000000000E+00 -0.00000000000E+00 -0.19273849947E+03  0.19273849947E+03  0.00000000000E+00 0.  1.
          6    2    1    2  501    0 -0.40868631513E+02  0.20758543977E+02 -0.60380588331E+02  0.18863618585E+03  0.17273283699E+03 0.  0.
         24    2    3    3    0    0 -0.75496653051E+02  0.21832565029E+02 -0.88884970641E+02  0.14352694946E+03  0.80765349611E+02 0.  0.
         -6    2    1    2    0  502  0.40868631513E+02 -0.20758543977E+02  0.47849339783E+02  0.18430956454E+03  0.17198631944E+03 0.  0.
        -24    2    5    5    0    0 -0.28813144558E+02 -0.16873449439E+02 -0.16056854613E+02  0.89563928452E+02  0.81541180420E+02 0.  0.
          5    1    3    3  501    0  0.34628021539E+02 -0.10740210517E+01  0.28504382310E+02  0.45109236391E+02  0.47000000000E+01 0. -1.
        -13    1    4    4    0    0 -0.48141057772E+02 -0.21735385218E+01 -0.77535658215E+00  0.48196336904E+02  0.00000000000E+00 0.  1.
         14    1    4    4    0    0 -0.27355595279E+02  0.24006103551E+02 -0.88109614059E+02  0.95330612557E+02  0.00000000000E+00 0. -1.
         -5    1    5    5    0  502  0.69681776071E+02 -0.38850945386E+01  0.63906194396E+02  0.94745636091E+02  0.47000000000E+01 0.  1.
         11    1    6    6    0    0  0.14948724856E+01 -0.45298471711E+02 -0.15840377386E+02  0.48011495903E+02  0.00000000000E+00 0. -1.
        -12    1    6    6    0    0 -0.30308017044E+02  0.28425022272E+02 -0.21647722780E+00  0.41552432549E+02  0.00000000000E+00 0.  1.
<mgrwt>
<rscale>  2 0.17853085E+03</rscale>
<asrwt>0</asrwt>
<pdfrwt beam="1">  1       21 0.27724192E-01 0.17871149E+03</pdfrwt>
<pdfrwt beam="2">  1       21 0.29652077E-01 0.17871149E+03</pdfrwt>
<totfact> 0.13601163E+05</totfact>
</mgrwt>
</event>
<event>
12    1  0.1071811E-001  0.2630415E+03  0.7546771E-02  0.1105671E+00
         21   -1    0    0  501  502  0.00000000000E+00  0.00000000000E+00  0.64649824409E+03  0.64649824409E+03  0.00000000000E+00 0.  1.
         21   -1    0    0  502  503 -0.00000000000E+00 -0.00000000000E+00 -0.10909108739E+03  0.10909108739E+03  0.00000000000E+00 0. -1.
         -6    2    1    2    0  503 -0.13958041144E+03 -0.14061259869E+03  0.33248231974E+03  0.42395203122E+03  0.17302091686E+03 0.  0.
        -24    2    3    3    0    0 -0.74514470506E+02 -0.91562288224E+02  0.94345383270E+02  0.17221645540E+03  0.82591750345E+02 0.  0.
          6    2    1    2  501    0  0.13958041144E+03  0.14061259869E+03  0.20492483697E+03  0.33163730027E+03  0.16951258347E+03 0.  0.
         24    2    5    5    0    0  0.90745420625E+02  0.19866720247E+02  0.70553357495E+02  0.14444165934E+03  0.85183324425E+02 0.  0.
          5    1    5    5  501    0  0.48834990813E+02  0.12074587844E+03  0.13437147947E+03  0.18719564093E+03  0.47000000000E+01 0. -1.
        -13    1    6    6    0    0  0.96171577743E+02  0.64628945783E+00  0.77271327173E+02  0.12337036945E+03  0.00000000000E+00 0.  1.
         14    1    6    6    0    0 -0.54261571178E+01  0.19220430789E+02 -0.67179696776E+01  0.21071289884E+02  0.00000000000E+00 0. -1.
         -5    1    3    3    0  503 -0.65065940931E+02 -0.49050310466E+02  0.23813693647E+03  0.25173557582E+03  0.47000000000E+01 0.  1.
         13    1    4    4    0    0 -0.70089117502E+02 -0.94851266369E+02  0.10647627941E+03  0.15889129995E+03  0.00000000000E+00 0. -1.
        -14    1    4    4    0    0 -0.44253530044E+01  0.32889781447E+01 -0.12130896139E+02  0.13325155443E+02  0.00000000000E+00 0.  1.
<mgrwt>
<rscale>  2 0.26246604E+03</rscale>
<asrwt>0</asrwt>
<pdfrwt beam="1">  1       21 0.99461266E-01 0.26304150E+03</pdfrwt>
<pdfrwt beam="2">  1       21 0.16783245E-01 0.26304150E+03</pdfrwt>
<totfact> 0.25600977E+04</totfact>
</mgrwt>
</event>
<event>
12    1  0.1071811E-001  0.1776317E+03  0.7546771E-02  0.1170237E+00
         21   -1    0    0  501  502  0.00000000000E+00  0.00000000000E+00  0.14554098753E+04  0.14554098753E+04  0.00000000000E+00 0. -1.
         21   -1    0    0  502  503 -0.00000000000E+00 -0.00000000000E+00 -0.47336310026E+02  0.47336310026E+02  0.00000000000E+00 0. -1.
         -6    2    1    2    0  503 -0.33867160138E+02  0.19247993931E+02  0.15066653468E+03  0.23292368205E+03  0.17330772394E+03 0.  0.
        -24    2    3    3    0    0  0.23324459300E+02 -0.48984274782E+01  0.33348322507E+02  0.10010958675E+03  0.91333420784E+02 0.  0.
          6    2    1    2  501    0  0.33867160138E+02 -0.19247993931E+02  0.12574070306E+04  0.12698225033E+04  0.17279837804E+03 0.  0.
         24    2    5    5    0    0  0.29200009888E+02 -0.52133204989E+02  0.11955261026E+04  0.11994338774E+04  0.76081881900E+02 0.  0.
          5    1    5    5  501    0  0.46671502493E+01  0.32885211058E+02  0.61880928071E+02  0.70388625904E+02  0.47000000000E+01 0. -1.
        -13    1    6    6    0    0  0.31005591354E+02 -0.31498016127E+01  0.17655543443E+03  0.17928493905E+03  0.00000000000E+00 0.  1.
         14    1    6    6    0    0 -0.18055814651E+01 -0.48983403376E+02  0.10189706681E+04  0.10201489384E+04  0.00000000000E+00 0. -1.
         -5    1    3    3    0  503 -0.57191619438E+02  0.24146421409E+02  0.11731821218E+03  0.13281409530E+03  0.47000000000E+01 0.  1.
         13    1    4    4    0    0  0.11179276647E+02 -0.32024358008E+02 -0.19756452320E+02  0.39253702252E+02  0.00000000000E+00 0. -1.
        -14    1    4    4    0    0  0.12145182652E+02  0.27125930530E+02  0.53104774827E+02  0.60855884500E+02  0.00000000000E+00 0.  1.
<mgrwt>
<rscale>  2 0.17750739E+03</rscale>
<asrwt>0</asrwt>
<pdfrwt beam="1">  1       21 0.22390918E+00 0.17763175E+03</pdfrwt>
<pdfrwt beam="2">  1       21 0.72825103E-02 0.17763175E+03</pdfrwt>
<totfact> 0.13628906E+04</totfact>
</mgrwt>
</event>
<event>
12    1  0.1071811E-001  0.2138089E+03  0.7546771E-02  0.1138612E+00
         21   -1    0    0  501  502  0.00000000000E+00  0.00000000000E+00  0.20070893301E+04  0.20070893301E+04  0.00000000000E+00 0. -1.
         21   -1    0    0  502  503 -0.00000000000E+00 -0.00000000000E+00 -0.26062214101E+02  0.26062214101E+02  0.00000000000E+00 0. -1.
         -6    2    1    2    0  503  0.31378368253E+02 -0.12018625869E+03  0.62843509097E+03  0.66376502728E+03  0.17385053668E+03 0.  0.
        -24    2    3    3    0    0  0.79617994489E+02 -0.84158775774E+02  0.53098557234E+03  0.54911974938E+03  0.78518128691E+02 0.  0.
          6    2    1    2  501    0 -0.31378368253E+02  0.12018625869E+03  0.13525920250E+04  0.13693865169E+04  0.17402559520E+03 0.  0.
         24    2    5    5    0    0 -0.35806202668E+02  0.29574904680E+02  0.10216352439E+04  0.10261890459E+04  0.84667745044E+02 0.  0.
          5    1    5    5  501    0  0.44278344154E+01  0.90611354008E+02  0.33095678106E+03  0.34319747103E+03  0.47000000000E+01 0. -1.
        -11    1    6    6    0    0  0.25966492341E+02  0.13751038504E+02  0.46180576760E+03  0.46273957770E+03  0.00000000000E+00 0.  1.
         12    1    6    6    0    0 -0.61772695009E+02  0.15823866176E+02  0.55982947635E+03  0.56344946817E+03  0.00000000000E+00 0. -1.
         -5    1    3    3    0  503 -0.48239626236E+02 -0.36027482914E+02  0.97449518631E+02  0.11464527791E+03  0.47000000000E+01 0.  1.
         11    1    4    4    0    0 -0.99146294381E+00 -0.34503721451E+02  0.64826575300E+02  0.73443683580E+02  0.00000000000E+00 0. -1.
        -12    1    4    4    0    0  0.80609457433E+02 -0.49655054323E+02  0.46615899704E+03  0.47567606580E+03  0.00000000000E+00 0.  1.
<mgrwt>
<rscale>  2 0.21377328E+03</rscale>
<asrwt>0</asrwt>
<pdfrwt beam="1">  1       21 0.30878285E+00 0.21380890E+03</pdfrwt>
<pdfrwt beam="2">  1       21 0.40095730E-02 0.21380890E+03</pdfrwt>
<totfact> 0.11600613E+04</totfact>
</mgrwt>
</event>
<event>
12    1  0.1071811E-001  0.1774511E+03  0.7546771E-02  0.1170896E+00
         21   -1    0    0  501  502  0.00000000000E+00  0.00000000000E+00  0.13436206156E+04  0.13436206156E+04  0.00000000000E+00 0. -1.
         21   -1    0    0  502  503 -0.00000000000E+00 -0.00000000000E+00 -0.24741340923E+02  0.24741340923E+02  0.00000000000E+00 0. -1.
         -6    2    1    2    0  503 -0.30271162244E+02  0.17056070084E+02  0.48833628437E+03  0.51957792370E+03  0.17401620437E+03 0.  0.
        -24    2    3    3    0    0 -0.74011218825E+02  0.25871755143E+02  0.43456455338E+03  0.44954651713E+03  0.84253853258E+02 0.  0.
          6    2    1    2  501    0  0.30271162244E+02 -0.17056070084E+02  0.83054299029E+03  0.84878403279E+03  0.17153840043E+03 0.  0.
         24    2    5    5    0    0  0.74827298242E+02  0.12887331250E+02  0.67855073370E+03  0.68752153684E+03  0.80557790105E+02 0.  0.
          5    1    5    5  501    0 -0.44556135999E+02 -0.29943401334E+02  0.15199225659E+03  0.16126249595E+03  0.47000000000E+01 0. -1.
        -11    1    6    6    0    0  0.31082968972E+02  0.36759997701E+02  0.17466776037E+03  0.18118022768E+03  0.00000000000E+00 0.  1.
         12    1    6    6    0    0  0.43744329270E+02 -0.23872666451E+02  0.50388297333E+03  0.50634130916E+03  0.00000000000E+00 0. -1.
         -5    1    3    3    0  503  0.43740056581E+02 -0.88156850587E+01  0.53771730991E+02  0.70031406572E+02  0.47000000000E+01 0.  1.
         13    1    4    4    0    0 -0.53813960084E+02 -0.15420509043E+02  0.33794047379E+03  0.34254561481E+03  0.00000000000E+00 0. -1.
        -14    1    4    4    0    0 -0.20197258741E+02  0.41292264186E+02  0.96624079582E+02  0.10700090232E+03  0.00000000000E+00 0.  1.
<mgrwt>
<rscale>  2 0.17684066E+03</rscale>
<asrwt>0</asrwt>
<pdfrwt beam="1">  1       21 0.20671081E+00 0.17745110E+03</pdfrwt>
<pdfrwt beam="2">  1       21 0.38063612E-02 0.17745110E+03</pdfrwt>
<totfact> 0.52351564E+04</totfact>
</mgrwt>
</event>
<event>
12    1  0.1071811E-001  0.2522050E+03  0.7546771E-02  0.1112436E+00
         21   -1    0    0  501  502  0.00000000000E+00  0.00000000000E+00  0.34665667585E+03  0.34665667585E+03  0.00000000000E+00 0. -1.
         21   -1    0    0  502  503 -0.00000000000E+00 -0.00000000000E+00 -0.23875492973E+03  0.23875492973E+03  0.00000000000E+00 0.  1.
         -6    2    1    2    0  503  0.13761444444E+03  0.11715935565E+03  0.19751063706E+03  0.31776049370E+03  0.17116433527E+03 0.  0.
        -24    2    3    3    0    0  0.12502904597E+03  0.91460018907E+02  0.72874367705E+02  0.18979511634E+03  0.81940925820E+02 0.  0.
          6    2    1    2  501    0 -0.13761444444E+03 -0.11715935565E+03 -0.89608890941E+02  0.26765111187E+03  0.17590711872E+03 0.  0.
         24    2    5    5    0    0 -0.12584694197E+03 -0.14573035274E+03 -0.10558570495E+03  0.23254947979E+03  0.76525361468E+02 0.  0.
          5    1    5    5  501    0 -0.11767502473E+02  0.28570997094E+02  0.15976814007E+02  0.35101632087E+02  0.47000000000E+01 0. -1.
        -11    1    6    6    0    0 -0.11776378508E+03 -0.10322140176E+03 -0.54986109591E+02  0.16597119963E+03  0.00000000000E+00 0.  1.
         12    1    6    6    0    0 -0.80831568859E+01 -0.42508950983E+02 -0.50599595357E+02  0.66578280162E+02  0.00000000000E+00 0. -1.
         -5    1    3    3    0  503  0.12585398472E+02  0.25699336738E+02  0.12463626936E+03  0.12796537736E+03  0.47000000000E+01 0.  1.
         11    1    4    4    0    0  0.10426770094E+03  0.27971168712E+02  0.51901699772E+02  0.11978282923E+03  0.00000000000E+00 0. -1.
        -12    1    4    4    0    0  0.20761345026E+02  0.63488850195E+02  0.20972667934E+02  0.70012287112E+02  0.00000000000E+00 0.  1.
<mgrwt>
<rscale>  2 0.25137977E+03</rscale>
<asrwt>0</asrwt>
<pdfrwt beam="1">  1       21 0.53331796E-01 0.25220500E+03</pdfrwt>
<pdfrwt beam="2">  1       21 0.36731528E-01 0.25220500E+03</pdfrwt>
<totfact> 0.23058629E+04</totfact>
</mgrwt>
</event>
<event>
12    1  0.1071811E-001  0.2355031E+03  0.7546771E-02  0.1123097E+00
         21   -1    0    0  503  502  0.00000000000E+00  0.00000000000E+00  0.65213921950E+02  0.65213921950E+02  0.00000000000E+00 0.  1.
         21   -1    0    0  501  503 -0.00000000000E+00 -0.00000000000E+00 -0.13401245214E+04  0.13401245214E+04  0.00000000000E+00 0.  1.
          6    2    1    2  501    0 -0.70490581417E+02  0.14062367848E+03 -0.10660347162E+04  0.10917379443E+04  0.17526489046E+03 0.  0.
         24    2    3    3    0    0  0.14466480869E+02  0.12089312959E+03 -0.74696592141E+03  0.76092986881E+03  0.78941431731E+02 0.  0.
         -6    2    1    2    0  502  0.70490581417E+02 -0.14062367848E+03 -0.20887588325E+03  0.31360049907E+03  0.17312480295E+03 0.  0.
        -24    2    5    5    0    0  0.60818017314E+01 -0.37895061203E+02 -0.25814692108E+02  0.93975479067E+02  0.81804451965E+02 0.  0.
          5    1    3    3  501    0 -0.84957062286E+02  0.19730548887E+02 -0.31906879481E+03  0.33080807549E+03  0.47000000000E+01 0. -1.
        -13    1    4    4    0    0 -0.30443663295E+01  0.35605796995E+02 -0.45125541333E+03  0.45266818864E+03  0.00000000000E+00 0.  1.
         14    1    4    4    0    0  0.17510847199E+02  0.85287332597E+02 -0.29571050808E+03  0.30826168017E+03  0.00000000000E+00 0. -1.
         -5    1    5    5    0  502  0.64408779686E+02 -0.10272861728E+03 -0.18306119115E+03  0.21962502000E+03  0.47000000000E+01 0.  1.
         13    1    6    6    0    0  0.68811111891E+01 -0.58967150280E+02  0.15999702987E+01  0.59388840772E+02  0.00000000000E+00 0. -1.
        -14    1    6    6    0    0 -0.79930945767E+00  0.21072089076E+02 -0.27414662406E+02  0.34586638294E+02  0.00000000000E+00 0.  1.
<mgrwt>
<rscale>  2 0.23510504E+03</rscale>
<asrwt>0</asrwt>
<pdfrwt beam="1">  1       21 0.10032912E-01 0.23550313E+03</pdfrwt>
<pdfrwt beam="2">  1       21 0.20617299E+00 0.23550313E+03</pdfrwt>
<totfact> 0.95614806E+03</totfact>
</mgrwt>
</event>
<event>
12    1  0.1071811E-001  0.1802837E+03  0.7546771E-02  0.1168918E+00
         21   -1    0    0  501  502  0.00000000000E+00  0.00000000000E+00  0.57784441500E+03  0.57784441500E+03  0.00000000000E+00 0. -1.
         21   -1    0    0  502  503 -0.00000000000E+00 -0.00000000000E+00 -0.13761274345E+03  0.13761274345E+03  0.00000000000E+00 0. -1.
         -6    2    1    2    0  503  0.42854562157E+02  0.10326788159E+02 -0.56495658977E+02  0.18892845376E+03  0.17481145588E+03 0.  0.
        -24    2    3    3    0    0  0.35549381471E+01  0.16819275619E+02 -0.10144416980E+03  0.12868667867E+03  0.77290465550E+02 0.  0.
          6    2    1    2  501    0 -0.42854562157E+02 -0.10326788159E+02  0.49672733052E+03  0.52652870469E+03  0.16897123993E+03 0.  0.
         24    2    5    5    0    0 -0.30037785573E+02  0.10699878990E+02  0.49381059478E+03  0.50129008665E+03  0.80162905913E+02 0.  0.
          5    1    5    5  501    0 -0.12816776584E+02 -0.21026667149E+02  0.29167357461E+01  0.25238618045E+02  0.47000000000E+01 0. -1.
        -13    1    6    6    0    0 -0.27271659073E+02  0.37342078977E+02  0.16401682034E+03  0.17041036238E+03  0.00000000000E+00 0.  1.
         14    1    6    6    0    0 -0.27661264998E+01 -0.26642199987E+02  0.32979377444E+03  0.33087972427E+03  0.00000000000E+00 0. -1.
         -5    1    3    3    0  503  0.39299624010E+02 -0.64924874599E+01  0.44948510820E+02  0.60241775087E+02  0.47000000000E+01 0.  1.
         13    1    4    4    0    0 -0.27046852605E+02 -0.12971507654E+02 -0.18092038474E+02  0.35030188449E+02  0.00000000000E+00 0. -1.
        -14    1    4    4    0    0  0.30601790752E+02  0.29790783272E+02 -0.83352131323E+02  0.93656490226E+02  0.00000000000E+00 0.  1.
<mgrwt>
<rscale>  2 0.17885244E+03</rscale>
<asrwt>0</asrwt>
<pdfrwt beam="1">  1       21 0.88899139E-01 0.18028367E+03</pdfrwt>
<pdfrwt beam="2">  1       21 0.21171192E-01 0.18028367E+03</pdfrwt>
<totfact> 0.22593492E+04</totfact>
</mgrwt>
</event>
<event>
12    1  0.1071811E-001  0.1803821E+03  0.7546771E-02  0.1167824E+00
         21   -1    0    0  503  502  0.00000000000E+00  0.00000000000E+00  0.24650314494E+04  0.24650314494E+04  0.00000000000E+00 0.  1.
         21   -1    0    0  501  503 -0.00000000000E+00 -0.00000000000E+00 -0.22007429850E+02  0.22007429850E+02  0.00000000000E+00 0.  1.
          6    2    1    2  501    0  0.37880829015E+02  0.34772666272E+02  0.43285544072E+03  0.46893658517E+03  0.17289763683E+03 0.  0.
         24    2    3    3    0    0  0.54413440495E+02  0.40363247254E+02  0.13817894243E+03  0.17370631829E+03  0.80563333142E+02 0.  0.
         -6    2    1    2    0  502 -0.37880829015E+02 -0.34772666272E+02  0.20101685788E+04  0.20181022940E+04  0.17121640849E+03 0.  0.
        -24    2    5    5    0    0 -0.35687466155E+02 -0.66877105375E+02  0.78724372023E+03  0.79474510763E+03  0.78236619324E+02 0.  0.
          5    1    3    3  501    0 -0.16532611480E+02 -0.55905809818E+01  0.29467649829E+03  0.29523026688E+03  0.47000000000E+01 0. -1.
        -11    1    4    4    0    0  0.26796776431E+02  0.52259595872E+02  0.12983518748E+03  0.14250020525E+03  0.00000000000E+00 0.  1.
         12    1    4    4    0    0  0.27616664064E+02 -0.11896348618E+02  0.83437549520E+01  0.31206113042E+02  0.00000000000E+00 0. -1.
         -5    1    5    5    0  502 -0.21933628600E+01  0.32104439102E+02  0.12229248586E+04  0.12233571864E+04  0.47000000000E+01 0.  1.
         13    1    6    6    0    0  0.15394897380E+02 -0.36303229514E+02  0.16441145934E+03  0.16907411186E+03  0.00000000000E+00 0. -1.
        -14    1    6    6    0    0 -0.51082363535E+02 -0.30573875861E+02  0.62283226089E+03  0.62567099578E+03  0.00000000000E+00 0.  1.
<mgrwt>
<rscale>  2 0.17997800E+03</rscale>
<asrwt>0</asrwt>
<pdfrwt beam="1">  1       21 0.37923539E+00 0.18038206E+03</pdfrwt>
<pdfrwt beam="2">  1       21 0.33857604E-02 0.18038206E+03</pdfrwt>
<totfact> 0.61524618E+03</totfact>
</mgrwt>
</event>
<event>
12    1  0.1071811E-001  0.2425534E+03  0.7546771E-02  0.1118266E+00
         21   -1    0    0  501  502  0.00000000000E+00  0.00000000000E+00  0.34036572647E+03  0.34036572647E+03  0.00000000000E+00 0.  1.
         21   -1    0    0  502  503 -0.00000000000E+00 -0.00000000000E+00 -0.30363756413E+03  0.30363756413E+03  0.00000000000E+00 0.  1.
         -6    2    1    2    0  503 -0.16948937364E+03  0.76668366224E+00 -0.19351324190E+03  0.31028942708E+03  0.17350768912E+03 0.  0.
        -24    2    3    3    0    0 -0.80915652722E+02 -0.72240649732E+02 -0.11013406886E+03  0.16834031202E+03  0.66655031317E+02 0.  0.
          6    2    1    2  501    0  0.16948937364E+03 -0.76668366224E+00  0.23024140425E+03  0.33371386352E+03  0.17212380108E+03 0.  0.
         24    2    5    5    0    0  0.10813181487E+03 -0.18817975749E+02  0.23770232851E+03  0.26915106808E+03  0.62396272884E+02 0.  0.
          5    1    5    5  501    0  0.61357558776E+02  0.18051292087E+02 -0.74609242670E+01  0.64562795447E+02  0.47000000000E+01 0. -1.
        -13    1    6    6    0    0  0.15775579816E+02  0.10350436295E+02  0.93881460564E+02  0.95758702412E+02  0.00000000000E+00 0.  1.
         14    1    6    6    0    0  0.92356235050E+02 -0.29168412044E+02  0.14382086795E+03  0.17339236567E+03  0.00000000000E+00 0. -1.
         -5    1    3    3    0  503 -0.88573720920E+02  0.73007333394E+02 -0.83379173046E+02  0.14194911505E+03  0.47000000000E+01 0.  1.
         13    1    4    4    0    0  0.11482269964E+02 -0.38146374693E+01 -0.13690116423E+02  0.18270557469E+02  0.00000000000E+00 0. -1.
        -14    1    4    4    0    0 -0.92397922685E+02 -0.68426012263E+02 -0.96443952432E+02  0.15006975455E+03  0.00000000000E+00 0.  1.
<mgrwt>
<rscale>  2 0.24230602E+03</rscale>
<asrwt>0</asrwt>
<pdfrwt beam="1">  1       21 0.52363958E-01 0.24255340E+03</pdfrwt>
<pdfrwt beam="2">  1       21 0.46713472E-01 0.24255340E+03</pdfrwt>
<totfact> 0.14739197E+04</totfact>
</mgrwt>
</event>
<event>
12    1  0.1071811E-001  0.2016224E+03  0.7546771E-02  0.1148991E+00
         21   -1    0    0  501  502  0.00000000000E+00  0.00000000000E+00  0.88071785704E+03  0.88071785704E+03  0.00000000000E+00 0. -1.
         21   -1    0    0  502  503 -0.00000000000E+00 -0.00000000000E+00 -0.60614086667E+02  0.60614086667E+02  0.00000000000E+00 0. -1.
         -6    2    1    2    0  503 -0.64000478717E+02  0.81144527534E+02  0.17720755151E+03  0.26842899407E+03  0.17312167085E+03 0.  0.
        -24    2    3    3    0    0 -0.48066517057E+02  0.42971330621E+01  0.16415569939E+03  0.18873047454E+03  0.79644478539E+02 0.  0.
          6    2    1    2  501    0  0.64000478717E+02 -0.81144527534E+02  0.64289621886E+03  0.67290294964E+03  0.16971250920E+03 0.  0.
         24    2    5    5    0    0  0.76111450317E+02 -0.26521245473E+02  0.56814412212E+03  0.57941313980E+03  0.80221653829E+02 0.  0.
          5    1    5    5  501    0 -0.12110971600E+02 -0.54623282061E+02  0.74752096749E+02  0.93489809843E+02  0.47000000000E+01 0. -1.
        -11    1    6    6    0    0 -0.89337874979E+01 -0.25974060855E+02  0.10550554120E+03  0.10902239962E+03  0.00000000000E+00 0.  1.
         12    1    6    6    0    0  0.85045237815E+02 -0.54718461864E+00  0.46263858092E+03  0.47039074017E+03  0.00000000000E+00 0. -1.
         -5    1    3    3    0  503 -0.15933961660E+02  0.76847394472E+02  0.13051852115E+02  0.79698519528E+02  0.47000000000E+01 0.  1.
         11    1    4    4    0    0 -0.31693176123E+02  0.41645470240E+02  0.90832451270E+02  0.10483003772E+03  0.00000000000E+00 0. -1.
        -12    1    4    4    0    0 -0.16373340934E+02 -0.37348337178E+02  0.73323248122E+02  0.83900436819E+02  0.00000000000E+00 0.  1.
<mgrwt>
<rscale>  2 0.20088855E+03</rscale>
<asrwt>0</asrwt>
<pdfrwt beam="1">  1       21 0.13549505E+00 0.20162244E+03</pdfrwt>
<pdfrwt beam="2">  1       21 0.93252447E-02 0.20162244E+03</pdfrwt>
<totfact> 0.35531000E+04</totfact>
</mgrwt>
</event>
<event>
11    1  0.1071811E-001  0.2320021E+03  0.7546771E-02  0.1125682E+00
         21   -1    0    0  503  502  0.00000000000E+00  0.00000000000E+00  0.68834832061E+03  0.68834832061E+03  0.00000000000E+00 0. -1.
         21   -1    0    0  501  503 -0.00000000000E+00 -0.00000000000E+00 -0.12308004691E+03  0.12308004691E+03  0.00000000000E+00 0. -1.
          6    2    1    2  501    0  0.92744343201E+02  0.11938998052E+03  0.53092761248E+03  0.57940410215E+03  0.17598154236E+03 0.  0.
         24    2    3    3    0    0  0.10600473119E+03  0.32852513409E+02  0.23653140490E+03  0.27223022933E+03  0.76458495855E+02 0.  0.
         -6    2    1    2    0  502 -0.92744343201E+02 -0.11938998052E+03  0.34340661224E+02  0.23202426538E+03  0.17262820762E+03 0.  0.
          5    1    3    3  501    0 -0.13260387987E+02  0.86537467109E+02  0.29439620758E+03  0.30717387282E+03  0.47000000000E+01 0. -1.
        -11    1    4    4    0    0 -0.73265169881E+01 -0.99729364085E+01  0.34558404688E+02  0.36707228803E+02  0.00000000000E+00 0.  1.
         12    1    4    4    0    0  0.11333124818E+03  0.42825449817E+02  0.20197300021E+03  0.23552300053E+03  0.00000000000E+00 0. -1.
         -5    1    5    5    0  502 -0.11491583201E+03 -0.16456363241E+02  0.25551342753E+02  0.11895974720E+03  0.47000000000E+01 0.  1.
         13    1    5    5    0    0 -0.74230581271E+01 -0.57948815899E+02  0.96331339646E+01  0.59211184130E+02  0.00000000000E+00 0. -1.
        -14    1    5    5    0    0  0.29594546936E+02 -0.44984801378E+02 -0.84381549339E+00  0.53853334047E+02  0.00000000000E+00 0.  1.
<mgrwt>
<rscale>  2 0.23136621E+03</rscale>
<asrwt>0</asrwt>
<pdfrwt beam="1">  1       21 0.10589974E+00 0.23200212E+03</pdfrwt>
<pdfrwt beam="2">  1       21 0.18935392E-01 0.23200212E+03</pdfrwt>
<totfact> 0.17865057E+04</totfact>
</mgrwt>
</event>
<event>
12    1  0.1071811E-001  0.2068299E+03  0.7546771E-02  0.1144375E+00
         21   -1    0    0  501  502  0.00000000000E+00  0.00000000000E+00  0.11581860786E+03  0.11581860786E+03  0.00000000000E+00 0. -1.
         21   -1    0    0  502  503 -0.00000000000E+00 -0.00000000000E+00 -0.42509553624E+03  0.42509553624E+03  0.00000000000E+00 0.  1.
         -6    2    1    2    0  503  0.11201693443E+03 -0.13981809454E+02 -0.25422813994E+03  0.32688386213E+03  0.17169108186E+03 0.  0.
        -24    2    3    3    0    0  0.64056930804E+02  0.47134355012E+02 -0.20609477748E+03  0.23537288963E+03  0.81242858529E+02 0.  0.
          6    2    1    2  501    0 -0.11201693443E+03  0.13981809454E+02 -0.55048788441E+02  0.21403028196E+03  0.17330697589E+03 0.  0.
         24    2    5    5    0    0  0.10095537972E+02 -0.10219018280E+02  0.27701614706E+01  0.76690349866E+02  0.75282054611E+02 0.  0.
          5    1    5    5  501    0 -0.12211247240E+03  0.24200827734E+02 -0.57818949912E+02  0.13733993210E+03  0.47000000000E+01 0. -1.
        -11    1    6    6    0    0 -0.73946509330E+01  0.30824429088E+02  0.46383722235E+01  0.32036553933E+02  0.00000000000E+00 0.  1.
         12    1    6    6    0    0  0.17490188905E+02 -0.41043447368E+02 -0.18682107529E+01  0.44653795933E+02  0.00000000000E+00 0. -1.
         -5    1    3    3    0  503  0.47960003626E+02 -0.61116164466E+02 -0.48133362461E+02  0.91510972504E+02  0.47000000000E+01 0.  1.
         11    1    4    4    0    0  0.28157873356E+02  0.70723329321E+01 -0.80147946952E+01  0.30118443835E+02  0.00000000000E+00 0. -1.
        -12    1    4    4    0    0  0.35899057448E+02  0.40062022080E+02 -0.19807998278E+03  0.20525444579E+03  0.00000000000E+00 0.  1.
<mgrwt>
<rscale>  2 0.20649101E+03</rscale>
<asrwt>0</asrwt>
<pdfrwt beam="1">  1       21 0.17818247E-01 0.20682986E+03</pdfrwt>
<pdfrwt beam="2">  1       21 0.65399314E-01 0.20682986E+03</pdfrwt>
<totfact> 0.61117134E+04</totfact>
</mgrwt>
</event>
<event>
12    1  0.1071811E-001  0.2317913E+03  0.7546771E-02  0.1125589E+00
         21   -1    0    0  501  502  0.00000000000E+00  0.00000000000E+00  0.79518724684E+03  0.79518724684E+03  0.00000000000E+00 0. -1.
         21   -1    0    0  502  503 -0.00000000000E+00 -0.00000000000E+00 -0.13010311334E+03  0.13010311334E+03  0.00000000000E+00 0.  1.
         -6    2    1    2    0  503 -0.12992460897E+03  0.85266109287E+02  0.11349284061E+02  0.23206898836E+03  0.17197818380E+03 0.  0.
        -24    2    3    3    0    0 -0.55999683082E+02  0.97850907859E+02 -0.37430342303E+02  0.14248766346E+03  0.78682520552E+02 0.  0.
          6    2    1    2  501    0  0.12992460897E+03 -0.85266109287E+02  0.65373484943E+03  0.69322137181E+03  0.17039924756E+03 0.  0.
         24    2    5    5    0    0  0.30389579960E+02  0.26741465240E+02  0.21168892992E+03  0.22644561869E+03  0.69475050469E+02 0.  0.
          5    1    5    5  501    0  0.99535029010E+02 -0.11200757453E+03  0.44204591951E+03  0.46677575313E+03  0.47000000000E+01 0. -1.
        -11    1    6    6    0    0  0.47385752276E+02  0.19654576726E+02  0.91893790208E+02  0.10524343487E+03  0.00000000000E+00 0.  1.
         12    1    6    6    0    0 -0.16996172316E+02  0.70868885138E+01  0.11979513971E+03  0.12120218381E+03  0.00000000000E+00 0. -1.
         -5    1    3    3    0  503 -0.73924925888E+02 -0.12584798571E+02  0.48779626365E+02  0.89581324900E+02  0.47000000000E+01 0.  1.
         13    1    4    4    0    0 -0.39726417177E+02  0.97446795538E+01 -0.33387036075E+02  0.52800011166E+02  0.00000000000E+00 0. -1.
        -14    1    4    4    0    0 -0.16273265905E+02  0.88106228305E+02 -0.40433062283E+01  0.89687652297E+02  0.00000000000E+00 0.  1.
<mgrwt>
<rscale>  2 0.23149848E+03</rscale>
<asrwt>0</asrwt>
<pdfrwt beam="1">  1       21 0.12233650E+00 0.23179131E+03</pdfrwt>
<pdfrwt beam="2">  1       21 0.20015864E-01 0.23179131E+03</pdfrwt>
<totfact> 0.11302273E+04</totfact>
</mgrwt>
</event>
<event>
12    1  0.1071811E-001  0.2288839E+03  0.7546771E-02  0.1128316E+00
         21   -1    0    0  503  502  0.00000000000E+00  0.00000000000E+00  0.53629160811E+02  0.53629160811E+02  0.00000000000E+00 0. -1.
         21   -1    0    0  501  503 -0.00000000000E+00 -0.00000000000E+00 -0.14223044477E+04  0.14223044477E+04  0.00000000000E+00 0.  1.
          6    2    1    2  501    0 -0.10044612842E+03  0.10229707414E+03 -0.11019180613E+04  0.11244407395E+04  0.17201583325E+03 0.  0.
         24    2    3    3    0    0 -0.12224452717E+03  0.96970685218E+02 -0.69189884763E+03  0.71378104325E+03  0.80076988766E+02 0.  0.
         -6    2    1    2    0  502  0.10044612842E+03 -0.10229707414E+03 -0.26675722567E+03  0.35149286903E+03  0.17842001972E+03 0.  0.
        -24    2    5    5    0    0  0.10957171881E+03 -0.86410213141E+02 -0.11345476242E+03  0.19702797337E+03  0.80469576082E+02 0.  0.
          5    1    3    3  501    0  0.21798398743E+02  0.53263889173E+01 -0.41001921363E+03  0.41065969629E+03  0.47000000000E+01 0. -1.
        -11    1    4    4    0    0 -0.90011573336E+01  0.33852816277E+02 -0.67314572360E+02  0.75883368766E+02  0.00000000000E+00 0.  1.
         12    1    4    4    0    0 -0.11324336983E+03  0.63117868941E+02 -0.62458427527E+03  0.63789767448E+03  0.00000000000E+00 0. -1.
         -5    1    5    5    0  502 -0.91255903888E+01 -0.15886860994E+02 -0.15330246325E+03  0.15446489566E+03  0.47000000000E+01 0.  1.
         11    1    6    6    0    0  0.10269405322E+03 -0.93178346649E+02 -0.12157647279E+03  0.18441559475E+03  0.00000000000E+00 0. -1.
        -12    1    6    6    0    0  0.68776655864E+01  0.67681335075E+01  0.81217103660E+01  0.12612378616E+02  0.00000000000E+00 0.  1.
<mgrwt>
<rscale>  2 0.22763460E+03</rscale>
<asrwt>0</asrwt>
<pdfrwt beam="1">  1       21 0.82506395E-02 0.22888386E+03</pdfrwt>
<pdfrwt beam="2">  1       21 0.21881608E+00 0.22888386E+03</pdfrwt>
<totfact> 0.11293564E+04</totfact>
</mgrwt>
</event>
<event>
12    1  0.1071811E-001  0.1925116E+03  0.7546771E-02  0.1156437E+00
         21   -1    0    0  501  502  0.00000000000E+00  0.00000000000E+00  0.60006411462E+03  0.60006411462E+03  0.00000000000E+00 0.  1.
         21   -1    0    0  502  503 -0.00000000000E+00 -0.00000000000E+00 -0.10411311963E+03  0.10411311963E+03  0.00000000000E+00 0.  1.
         -6    2    1    2    0  503 -0.82123789332E+02  0.94237554234E+01  0.22948375890E+02  0.19387460045E+03  0.17386088922E+03 0.  0.
        -24    2    3    3    0    0 -0.45151705621E+02 -0.39776138005E+02 -0.47432294888E+02  0.10026320527E+03  0.64668926523E+02 0.  0.
          6    2    1    2  501    0  0.82123789332E+02 -0.94237554234E+01  0.47300261911E+03  0.51030263381E+03  0.17275467127E+03 0.  0.
         24    2    5    5    0    0  0.45621635231E+02 -0.21156693240E+01  0.10257586173E+03  0.13798034336E+03  0.80193254628E+02 0.  0.
          5    1    5    5  501    0  0.36502154101E+02 -0.73080860994E+01  0.37042675738E+03  0.37232229044E+03  0.47000000000E+01 0. -1.
        -13    1    6    6    0    0  0.88059462581E+01 -0.24140739980E+02  0.89522328191E+02  0.93137356957E+02  0.00000000000E+00 0.  1.
         14    1    6    6    0    0  0.36815688973E+02  0.22025070656E+02  0.13053533535E+02  0.44842986405E+02  0.00000000000E+00 0. -1.
         -5    1    3    3    0  503 -0.36972083711E+02  0.49199893429E+02  0.70380670778E+02  0.93611395174E+02  0.47000000000E+01 0.  1.
         13    1    4    4    0    0 -0.30843835095E+01 -0.11459407993E+02  0.15449932708E+02  0.19481577807E+02  0.00000000000E+00 0. -1.
        -14    1    4    4    0    0 -0.42067322112E+02 -0.28316730012E+02 -0.62882227596E+02  0.80781627464E+02  0.00000000000E+00 0.  1.
<mgrwt>
<rscale>  2 0.19226154E+03</rscale>
<asrwt>0</asrwt>
<pdfrwt beam="1">  1       21 0.92317554E-01 0.19251164E+03</pdfrwt>
<pdfrwt beam="2">  1       21 0.16017403E-01 0.19251164E+03</pdfrwt>
<totfact> 0.34469032E+04</totfact>
</mgrwt>
</event>
<event>
12    1  0.1071811E-001  0.2097023E+03  0.7546771E-02  0.1141948E+00
         21   -1    0    0  503  502  0.00000000000E+00  0.00000000000E+00  0.37322519721E+02  0.37322519721E+02  0.00000000000E+00 0.  1.
         21   -1    0    0  501  503 -0.00000000000E+00 -0.00000000000E+00 -0.11812877096E+04  0.11812877096E+04  0.00000000000E+00 0.  1.
          6    2    1    2  501    0 -0.21310621597E+01  0.11726701593E+03 -0.52547191443E+03  0.56577008373E+03  0.17383601565E+03 0.  0.
         24    2    3    3    0    0 -0.64645883723E+02  0.51295632270E+02 -0.34092835809E+03  0.36000628573E+03  0.81006470416E+02 0.  0.
         -6    2    1    2    0  502  0.21310621597E+01 -0.11726701593E+03 -0.61849327541E+03  0.65284014555E+03  0.17294574139E+03 0.  0.
        -24    2    5    5    0    0 -0.52917834550E+02 -0.58912294002E+02 -0.23144907903E+03  0.25754158174E+03  0.80548336684E+02 0.  0.
          5    1    3    3  501    0  0.62514821563E+02  0.65971383663E+02 -0.18454355635E+03  0.20576379800E+03  0.47000000000E+01 0. -1.
        -11    1    4    4    0    0 -0.42844894555E+02 -0.11462318031E+02 -0.88636858682E+02  0.99113886217E+02  0.00000000000E+00 0.  1.
         12    1    4    4    0    0 -0.21800989168E+02  0.62757950301E+02 -0.25229149940E+03  0.26089239952E+03  0.00000000000E+00 0. -1.
         -5    1    5    5    0  502  0.55048896710E+02 -0.58354721931E+02 -0.38704419638E+03  0.39529856381E+03  0.47000000000E+01 0.  1.
         13    1    6    6    0    0 -0.13596778422E+02 -0.48049557743E+02 -0.46796143962E+02  0.68436185403E+02  0.00000000000E+00 0. -1.
        -14    1    6    6    0    0 -0.39321056128E+02 -0.10862736259E+02 -0.18465293507E+03  0.18910539634E+03  0.00000000000E+00 0.  1.
<mgrwt>
<rscale>  2 0.20951770E+03</rscale>
<asrwt>0</asrwt>
<pdfrwt beam="1">  1       21 0.57419261E-02 0.20970230E+03</pdfrwt>
<pdfrwt beam="2">  1       21 0.18173657E+00 0.20970230E+03</pdfrwt>
<totfact> 0.37231911E+04</totfact>
</mgrwt>
</event>
<event>
12    1  0.1071811E-001  0.2170707E+03  0.7546771E-02  0.1137262E+00
         21   -1    0    0  501  502  0.00000000000E+00  0.00000000000E+00  0.62339334851E+02  0.62339334851E+02  0.00000000000E+00 0. -1.
         21   -1    0    0  502  503 -0.00000000000E+00 -0.00000000000E+00 -0.77467383361E+03  0.77467383361E+03  0.00000000000E+00 0. -1.
         -6    2    1    2    0  503 -0.16876299127E+02 -0.12263689532E+03 -0.44635862374E+03  0.49370157095E+03  0.17082330812E+03 0.  0.
        -24    2    3    3    0    0 -0.53783554490E+02 -0.13731310177E+03 -0.38804734612E+03  0.42299208338E+03  0.81203455080E+02 0.  0.
          6    2    1    2  501    0  0.16876299127E+02  0.12263689532E+03 -0.26597587501E+03  0.34331159751E+03  0.17831171956E+03 0.  0.
         24    2    5    5    0    0 -0.31827515852E+02  0.91490203307E+02 -0.25751951203E+03  0.28469608684E+03  0.73158148655E+02 0.  0.
          5    1    5    5  501    0  0.48703814979E+02  0.31146692016E+02 -0.84563629764E+01  0.58615510676E+02  0.47000000000E+01 0. -1.
        -11    1    6    6    0    0  0.23373670694E+02  0.35747701286E+02 -0.82566939956E+02  0.92959809609E+02  0.00000000000E+00 0.  1.
         12    1    6    6    0    0 -0.55201186546E+02  0.55742502021E+02 -0.17495257208E+03  0.19173627723E+03  0.00000000000E+00 0. -1.
         -5    1    3    3    0  503  0.36907255364E+02  0.14676206447E+02 -0.58311277625E+02  0.70709487570E+02  0.47000000000E+01 0.  1.
         11    1    4    4    0    0  0.52481827729E+01 -0.53028784456E+02 -0.65556740803E+02  0.84482434079E+02  0.00000000000E+00 0. -1.
        -12    1    4    4    0    0 -0.59031737263E+02 -0.84284317315E+02 -0.32249060532E+03  0.33850964930E+03  0.00000000000E+00 0.  1.
<mgrwt>
<rscale>  2 0.21552729E+03</rscale>
<asrwt>0</asrwt>
<pdfrwt beam="1">  1       21 0.95906661E-02 0.21707070E+03</pdfrwt>
<pdfrwt beam="2">  1       21 0.11918060E+00 0.21707070E+03</pdfrwt>
<totfact> 0.46322198E+04</totfact>
</mgrwt>
</event>
<event>
12    1  0.1071811E-001  0.1859719E+03  0.7546771E-02  0.1162404E+00
         21   -1    0    0  501  502  0.00000000000E+00  0.00000000000E+00  0.17503199565E+03  0.17503199565E+03  0.00000000000E+00 0.  1.
         21   -1    0    0  502  503 -0.00000000000E+00 -0.00000000000E+00 -0.19652483348E+03  0.19652483348E+03  0.00000000000E+00 0. -1.
         -6    2    1    2    0  503  0.66538219809E+02 -0.68262198320E+01 -0.15072276333E+02  0.18547414575E+03  0.17233558326E+03 0.  0.
        -24    2    3    3    0    0  0.21494427453E+02 -0.65156505071E+02  0.13821582654E+02  0.10617527758E+03  0.79842174684E+02 0.  0.
          6    2    1    2  501    0 -0.66538219809E+02  0.68262198320E+01 -0.64205614903E+01  0.18608268338E+03  0.17352697044E+03 0.  0.
         24    2    5    5    0    0 -0.92736320557E+02 -0.30981865919E+02 -0.35384326155E+02  0.13152279432E+03  0.80537529893E+02 0.  0.
          5    1    5    5  501    0  0.26198100748E+02  0.37808085750E+02  0.28963764664E+02  0.54559889062E+02  0.47000000000E+01 0. -1.
        -13    1    6    6    0    0 -0.45615064314E+02  0.13332292559E+02  0.14666281521E+02  0.49735137789E+02  0.00000000000E+00 0.  1.
         14    1    6    6    0    0 -0.47121256243E+02 -0.44314158478E+02 -0.50050607676E+02  0.81787656528E+02  0.00000000000E+00 0. -1.
         -5    1    3    3    0  503  0.45043792355E+02  0.58330285239E+02 -0.28893858987E+02  0.79298868169E+02  0.47000000000E+01 0.  1.
         13    1    4    4    0    0  0.15315337979E+01 -0.50232073396E+02 -0.27970539781E+02  0.57514849292E+02  0.00000000000E+00 0. -1.
        -14    1    4    4    0    0  0.19962893656E+02 -0.14924431675E+02  0.41792122435E+02  0.48660428292E+02  0.00000000000E+00 0.  1.
<mgrwt>
<rscale>  2 0.18569347E+03</rscale>
<asrwt>0</asrwt>
<pdfrwt beam="1">  1       21 0.26927999E-01 0.18597188E+03</pdfrwt>
<pdfrwt beam="2">  1       21 0.30234590E-01 0.18597188E+03</pdfrwt>
<totfact> 0.13818125E+05</totfact>
</mgrwt>
</event>
<event>
12    1  0.1071811E-001  0.2393127E+03  0.7546771E-02  0.1120420E+00
         21   -1    0    0  501  502  0.00000000000E+00  0.00000000000E+00  0.32813573275E+03  0.32813573275E+03  0.00000000000E+00 0.  1.
         21   -1    0    0  502  503 -0.00000000000E+00 -0.00000000000E+00 -0.18635880415E+03  0.18635880415E+03  0.00000000000E+00 0. -1.
         -6    2    1    2    0  503  0.12546383358E+03 -0.10694107391E+03  0.13781116196E+03  0.27615660003E+03  0.17347329637E+03 0.  0.
        -24    2    3    3    0    0 -0.71991895131E+01 -0.25484926117E+02  0.44805749691E+02  0.94754619828E+02  0.79180635161E+02 0.  0.
          6    2    1    2  501    0 -0.12546383358E+03  0.10694107391E+03  0.39657666428E+01  0.23833793687E+03  0.17208044055E+03 0.  0.
         24    2    5    5    0    0 -0.26905961150E+02  0.26790585784E+02  0.49932091176E+02  0.10316120827E+03  0.81898442782E+02 0.  0.
          5    1    5    5  501    0 -0.98557872426E+02  0.80150488128E+02 -0.45966324533E+02  0.13517672860E+03  0.47000000000E+01 0. -1.
        -11    1    6    6    0    0  0.22111000541E+02  0.27227619260E+02  0.28444920290E+01  0.35189923706E+02  0.00000000000E+00 0.  1.
         12    1    6    6    0    0 -0.49016961691E+02 -0.43703347642E+00  0.47087599147E+02  0.67971284562E+02  0.00000000000E+00 0. -1.
         -5    1    3    3    0  503  0.13266302309E+03 -0.81456147795E+02  0.93005412269E+02  0.18140198020E+03  0.47000000000E+01 0.  1.
         11    1    4    4    0    0  0.14500515709E+02  0.14117529365E+02 -0.10946205270E+02  0.23008454990E+02  0.00000000000E+00 0. -1.
        -12    1    4    4    0    0 -0.21699705222E+02 -0.39602455482E+02  0.55751954961E+02  0.71746164838E+02  0.00000000000E+00 0.  1.
<mgrwt>
<rscale>  2 0.23906033E+03</rscale>
<asrwt>0</asrwt>
<pdfrwt beam="1">  1       21 0.50482420E-01 0.23931266E+03</pdfrwt>
<pdfrwt beam="2">  1       21 0.28670585E-01 0.23931266E+03</pdfrwt>
<totfact> 0.42515559E+04</totfact>
</mgrwt>
</event>
<event>
12    1  0.1071811E-001  0.2099075E+03  0.7546771E-02  0.1141641E+00
         21   -1    0    0  503  502  0.00000000000E+00  0.00000000000E+00  0.81256487166E+03  0.81256487166E+03  0.00000000000E+00 0.  1.
         21   -1    0    0  501  503 -0.00000000000E+00 -0.00000000000E+00 -0.57023323403E+02  0.57023323403E+02  0.00000000000E+00 0. -1.
          6    2    1    2  501    0  0.10495371962E+02  0.11728440999E+03  0.28142533519E+03  0.35108598291E+03  0.17376812841E+03 0.  0.
         24    2    3    3    0    0 -0.85778949634E+01  0.33740478348E+02  0.24295734290E+03  0.25703676997E+03  0.76338918538E+02 0.  0.
         -6    2    1    2    0  502 -0.10495371962E+02 -0.11728440999E+03  0.47411621307E+03  0.51850221216E+03  0.17376010721E+03 0.  0.
        -24    2    5    5    0    0  0.49807567721E+02 -0.34429241028E+02  0.29843804546E+03  0.31506590239E+03  0.80839899988E+02 0.  0.
          5    1    3    3  501    0  0.19073266926E+02  0.83543931638E+02  0.38467992291E+02  0.94049212945E+02  0.47000000000E+01 0. -1.
        -13    1    4    4    0    0  0.21179859360E+02 -0.15539722533E+02  0.80906708685E+02  0.85064475130E+02  0.00000000000E+00 0.  1.
         14    1    4    4    0    0 -0.29757754323E+02  0.49280200880E+02  0.16205063422E+03  0.17197229484E+03  0.00000000000E+00 0. -1.
         -5    1    5    5    0  502 -0.60302939684E+02 -0.82855168958E+02  0.17567816761E+03  0.20343630977E+03  0.47000000000E+01 0.  1.
         13    1    6    6    0    0  0.24908596525E+02 -0.72805218967E+01  0.26189476094E+03  0.26317733563E+03  0.00000000000E+00 0. -1.
        -14    1    6    6    0    0  0.24898971197E+02 -0.27148719131E+02  0.36543284520E+02  0.51888566762E+02  0.00000000000E+00 0.  1.
<mgrwt>
<rscale>  2 0.20990582E+03</rscale>
<asrwt>0</asrwt>
<pdfrwt beam="1">  1       21 0.12500997E+00 0.20990748E+03</pdfrwt>
<pdfrwt beam="2">  1       21 0.87728195E-02 0.20990748E+03</pdfrwt>
<totfact> 0.48274574E+04</totfact>
</mgrwt>
</event>
<event>
12    1  0.1071811E-001  0.2878720E+03  0.7546771E-02  0.1091535E+00
         21   -1    0    0  503  502  0.00000000000E+00  0.00000000000E+00  0.47383939021E+03  0.47383939021E+03  0.00000000000E+00 0. -1.
         21   -1    0    0  501  503 -0.00000000000E+00 -0.00000000000E+00 -0.17957112403E+03  0.17957112403E+03  0.00000000000E+00 0.  1.
          6    2    1    2  501    0 -0.25460800623E+02 -0.22790884511E+03  0.20179020909E+03  0.35155311576E+03  0.17401037517E+03 0.  0.
         24    2    3    3    0    0 -0.82653877537E+02 -0.16351440158E+03  0.13017830628E+03  0.23944581435E+03  0.82578953664E+02 0.  0.
         -6    2    1    2    0  502  0.25460800623E+02  0.22790884511E+03  0.92478057090E+02  0.30185739848E+03  0.17313290827E+03 0.  0.
        -24    2    5    5    0    0  0.81341525575E+02  0.16348992717E+03  0.82175597681E+02  0.21583017558E+03  0.80525994362E+02 0.  0.
          5    1    3    3  501    0  0.57193076913E+02 -0.64394443529E+02  0.71611902810E+02  0.11210730140E+03  0.47000000000E+01 0. -1.
        -13    1    4    4    0    0  0.89488104218E+00 -0.18930075610E+02  0.51450488662E+02  0.54829748843E+02  0.00000000000E+00 0.  1.
         14    1    4    4    0    0 -0.83548758579E+02 -0.14458432597E+03  0.78727817615E+02  0.18461606551E+03  0.00000000000E+00 0. -1.
         -5    1    5    5    0  502 -0.55880724951E+02  0.64418917941E+02  0.10302459409E+02  0.86027222899E+02  0.47000000000E+01 0.  1.
         13    1    6    6    0    0  0.30063498042E+01  0.94114692196E+02  0.48411576617E+02  0.10587867669E+03  0.00000000000E+00 0. -1.
        -14    1    6    6    0    0  0.78335175770E+02  0.69375234974E+02  0.33764021065E+02  0.10995149889E+03  0.00000000000E+00 0.  1.
<mgrwt>
<rscale>  2 0.28773955E+03</rscale>
<asrwt>0</asrwt>
<pdfrwt beam="1">  1       21 0.72898368E-01 0.28787203E+03</pdfrwt>
<pdfrwt beam="2">  1       21 0.27626327E-01 0.28787203E+03</pdfrwt>
<totfact> 0.20178877E+04</totfact>
</mgrwt>
</event>
<event>
12    1  0.1071811E-001  0.1839517E+03  0.7546771E-02  0.1167155E+00
         21   -1    0    0  503  502  0.00000000000E+00  0.00000000000E+00  0.16018922281E+03  0.16018922281E+03  0.00000000000E+00 0. -1.
         21   -1    0    0  501  503 -0.00000000000E+00 -0.00000000000E+00 -0.23893462862E+03  0.23893462862E+03  0.00000000000E+00 0. -1.
          6    2    1    2  501    0  0.35641730348E+02 -0.50237691034E+02 -0.12427557063E+03  0.22199698533E+03  0.17333229791E+03 0.  0.
         24    2    3    3    0    0  0.73506411527E+02 -0.79419608826E+02 -0.76477967887E+02  0.15423254602E+03  0.78918514170E+02 0.  0.
         -6    2    1    2    0  502 -0.35641730348E+02  0.50237691034E+02  0.45530164819E+02  0.17712686610E+03  0.15970839753E+03 0.  0.
        -24    2    5    5    0    0 -0.61143861152E+02 -0.13086996662E+02  0.37405083355E+02  0.10821763815E+03  0.80012972124E+02 0.  0.
          5    1    3    3  501    0 -0.37864681179E+02  0.29181917793E+02 -0.47797602740E+02  0.67764439307E+02  0.47000000000E+01 0. -1.
        -13    1    4    4    0    0  0.12403481852E+02 -0.41654032666E+02  0.70892978096E+01  0.44035927864E+02  0.00000000000E+00 0.  1.
         14    1    4    4    0    0  0.61102929675E+02 -0.37765576160E+02 -0.83567265697E+02  0.11019661816E+03  0.00000000000E+00 0. -1.
         -5    1    5    5    0  502  0.25502130804E+02  0.63324687695E+02  0.81250814644E+01  0.68909227946E+02  0.47000000000E+01 0.  1.
         13    1    6    6    0    0 -0.37630519334E+02  0.31081831847E+02  0.30881876386E+02  0.57756614733E+02  0.00000000000E+00 0. -1.
        -14    1    6    6    0    0 -0.23513341818E+02 -0.44168828509E+02  0.65232069682E+01  0.50461023419E+02  0.00000000000E+00 0.  1.
<mgrwt>
<rscale>  2 0.18067086E+03</rscale>
<asrwt>0</asrwt>
<pdfrwt beam="1">  1       21 0.24644496E-01 0.18395174E+03</pdfrwt>
<pdfrwt beam="2">  1       21 0.36759173E-01 0.18395174E+03</pdfrwt>
<totfact> 0.11145089E+05</totfact>
</mgrwt>
</event>
<event>
12    1  0.1071811E-001  0.1869044E+03  0.7546771E-02  0.1161430E+00
         21   -1    0    0  503  502  0.00000000000E+00  0.00000000000E+00  0.65358335811E+03  0.65358335811E+03  0.00000000000E+00 0. -1.
         21   -1    0    0  501  503 -0.00000000000E+00 -0.00000000000E+00 -0.62458503594E+02  0.62458503594E+02  0.00000000000E+00 0. -1.
          6    2    1    2  501    0 -0.46036923484E+02 -0.49308266178E+02  0.15778868113E+03  0.24411654859E+03  0.17362291890E+03 0.  0.
         24    2    3    3    0    0 -0.21783795099E+02 -0.86359022896E+02  0.15870501948E+03  0.19957552833E+03  0.81918824056E+02 0.  0.
         -6    2    1    2    0  502  0.46036923484E+02  0.49308266178E+02  0.43333617339E+03  0.47192531311E+03  0.17430593378E+03 0.  0.
        -24    2    5    5    0    0  0.79168434188E+02  0.52132308783E+01  0.37602618643E+03  0.39224724998E+03  0.78532754227E+02 0.  0.
          5    1    3    3  501    0 -0.24253128384E+02  0.37050756718E+02 -0.91633835590E+00  0.44541020260E+02  0.47000000000E+01 0. -1.
        -13    1    4    4    0    0 -0.37050203943E+01 -0.85212479624E+02  0.16010437756E+03  0.18140646508E+03  0.00000000000E+00 0.  1.
         14    1    4    4    0    0 -0.18078774705E+02 -0.11465432717E+01 -0.13993580758E+01  0.18169063249E+02  0.00000000000E+00 0. -1.
         -5    1    5    5    0  502 -0.33131510704E+02  0.44095035300E+02  0.57309986956E+02  0.79678063133E+02  0.47000000000E+01 0.  1.
         11    1    6    6    0    0  0.66335300366E+02  0.15527728257E+02  0.36739351488E+03  0.37365689770E+03  0.00000000000E+00 0. -1.
        -12    1    6    6    0    0  0.12833133822E+02 -0.10314497378E+02  0.86326715475E+01  0.18590352281E+02  0.00000000000E+00 0.  1.
<mgrwt>
<rscale>  2 0.18674501E+03</rscale>
<asrwt>0</asrwt>
<pdfrwt beam="1">  1       21 0.10055128E+00 0.18690442E+03</pdfrwt>
<pdfrwt beam="2">  1       21 0.96090010E-02 0.18690442E+03</pdfrwt>
<totfact> 0.70729449E+04</totfact>
</mgrwt>
</event>
<event>
12    1  0.1071811E-001  0.2266483E+03  0.7546771E-02  0.1129314E+00
         21   -1    0    0  503  502  0.00000000000E+00  0.00000000000E+00  0.24214910589E+02  0.24214910589E+02  0.00000000000E+00 0. -1.
         21   -1    0    0  501  503 -0.00000000000E+00 -0.00000000000E+00 -0.22441316261E+04  0.22441316261E+04  0.00000000000E+00 0.  1.
          6    2    1    2  501    0 -0.53391495148E+02 -0.13439346244E+03 -0.13948762148E+04  0.14131698825E+04  0.17451993453E+03 0.  0.
         24    2    3    3    0    0  0.94337666491E+01 -0.14006575520E+03 -0.99567248624E+03  0.10089856481E+04  0.83551938469E+02 0.  0.
         -6    2    1    2    0  502  0.53391495148E+02  0.13439346244E+03 -0.82504050070E+03  0.85517665423E+03  0.17240367642E+03 0.  0.
        -24    2    5    5    0    0  0.83406921454E+02  0.13514041121E+03 -0.54091811420E+03  0.56943358037E+03  0.80265502507E+02 0.  0.
          5    1    3    3  501    0 -0.62825261797E+02  0.56722927657E+01 -0.39920372860E+03  0.40418423442E+03  0.47000000000E+01 0. -1.
        -13    1    4    4    0    0  0.22081761887E+02 -0.34643250949E+02 -0.51934997187E+03  0.52097231435E+03  0.00000000000E+00 0.  1.
         14    1    4    4    0    0 -0.12647995238E+02 -0.10542250425E+03 -0.47632251437E+03  0.48801333372E+03  0.00000000000E+00 0. -1.
         -5    1    5    5    0  502 -0.30015426307E+02 -0.74694877201E+00 -0.28412238650E+03  0.28574307386E+03  0.47000000000E+01 0.  1.
         11    1    6    6    0    0  0.55775129398E+02  0.11853303593E+03 -0.31390914371E+03  0.34014687441E+03  0.00000000000E+00 0. -1.
        -12    1    6    6    0    0  0.27631792056E+02  0.16607375277E+02 -0.22700897049E+03  0.22928670596E+03  0.00000000000E+00 0.  1.
<mgrwt>
<rscale>  2 0.22624086E+03</rscale>
<asrwt>0</asrwt>
<pdfrwt beam="1">  1       21 0.37253720E-02 0.22664832E+03</pdfrwt>
<pdfrwt beam="2">  1       21 0.34525091E+00 0.22664832E+03</pdfrwt>
<totfact> 0.79224444E+03</totfact>
</mgrwt>
</event>
<event>
12    1  0.1071811E-001  0.2224313E+03  0.7546771E-02  0.1132935E+00
         21   -1    0    0  501  502  0.00000000000E+00  0.00000000000E+00  0.53940425985E+03  0.53940425985E+03  0.00000000000E+00 0.  1.
         21   -1    0    0  502  503 -0.00000000000E+00 -0.00000000000E+00 -0.92195397613E+02  0.92195397613E+02  0.00000000000E+00 0.  1.
         -6    2    1    2    0  503 -0.13381298030E+03 -0.11974849392E+01  0.17087718048E+03  0.27686753320E+03  0.17189901822E+03 0.  0.
        -24    2    3    3    0    0 -0.84097072601E+01  0.33080848187E+01  0.26148062984E+02  0.85256237867E+02  0.80642658042E+02 0.  0.
          6    2    1    2  501    0  0.13381298030E+03  0.11974849392E+01  0.27633168175E+03  0.35473212426E+03  0.17767479837E+03 0.  0.
         24    2    5    5    0    0  0.15164924673E+03 -0.31709174155E+02  0.17553190451E+03  0.24710468489E+03  0.79033600665E+02 0.  0.
          5    1    5    5  501    0 -0.17836266439E+02  0.32906659094E+02  0.10079977724E+03  0.10762743937E+03  0.47000000000E+01 0. -1.
        -13    1    6    6    0    0  0.90248527189E+02  0.20281586170E+02  0.80821830495E+02  0.12283447269E+03  0.00000000000E+00 0.  1.
         14    1    6    6    0    0  0.61400719545E+02 -0.51990760325E+02  0.94710074016E+02  0.12427021220E+03  0.00000000000E+00 0. -1.
         -5    1    3    3    0  503 -0.12540327303E+03 -0.45055697579E+01  0.14472911750E+03  0.19161129533E+03  0.47000000000E+01 0.  1.
         11    1    4    4    0    0  0.43796857402E+01  0.40933928667E+02  0.16577584467E+02  0.44380000789E+02  0.00000000000E+00 0. -1.
        -12    1    4    4    0    0 -0.12789393000E+02 -0.37625843848E+02  0.95704785165E+01  0.40876237078E+02  0.00000000000E+00 0.  1.
<mgrwt>
<rscale>  2 0.22127585E+03</rscale>
<asrwt>0</asrwt>
<pdfrwt beam="1">  1       21 0.82985269E-01 0.22243130E+03</pdfrwt>
<pdfrwt beam="2">  1       21 0.14183908E-01 0.22243130E+03</pdfrwt>
<totfact> 0.54189607E+04</totfact>
</mgrwt>
</event>
<event>
12    1  0.1071811E-001  0.2202127E+03  0.7546771E-02  0.1134371E+00
         21   -1    0    0  501  502  0.00000000000E+00  0.00000000000E+00  0.25357519371E+03  0.25357519371E+03  0.00000000000E+00 0.  1.
         21   -1    0    0  502  503 -0.00000000000E+00 -0.00000000000E+00 -0.57976346934E+03  0.57976346934E+03  0.00000000000E+00 0. -1.
         -6    2    1    2    0  503  0.11830668406E+03  0.52128594620E+02 -0.50507316209E+03  0.54962500922E+03  0.17399680982E+03 0.  0.
        -24    2    3    3    0    0  0.13895321537E+03  0.81596904683E+02 -0.42074984591E+03  0.45782537848E+03  0.81287104925E+02 0.  0.
          6    2    1    2  501    0 -0.11830668406E+03 -0.52128594620E+02  0.17888488646E+03  0.28371365382E+03  0.17826882199E+03 0.  0.
         24    2    5    5    0    0 -0.61608609908E+02 -0.88103578456E+02  0.12916440652E+03  0.20002920366E+03  0.10849136857E+03 0.  0.
          5    1    5    5  501    0 -0.56698074148E+02  0.35974983835E+02  0.49720479943E+02  0.83684450168E+02  0.47000000000E+01 0. -1.
        -11    1    6    6    0    0 -0.36667649023E+02  0.17012827942E+02  0.57873039776E+02  0.70592078397E+02  0.00000000000E+00 0.  1.
         12    1    6    6    0    0 -0.24940960884E+02 -0.10511640640E+03  0.71291366741E+02  0.12943712526E+03  0.00000000000E+00 0. -1.
         -5    1    3    3    0  503 -0.20646531316E+02 -0.29468310062E+02 -0.84323316178E+02  0.91799630743E+02  0.47000000000E+01 0.  1.
         11    1    4    4    0    0 -0.11211670451E+00  0.82598421767E+01 -0.10277542984E+03  0.10310686952E+03  0.00000000000E+00 0. -1.
        -12    1    4    4    0    0  0.13906533208E+03  0.73337062506E+02 -0.31797441607E+03  0.35471850896E+03  0.00000000000E+00 0.  1.
<mgrwt>
<rscale>  2 0.21934665E+03</rscale>
<asrwt>0</asrwt>
<pdfrwt beam="1">  1       21 0.39011569E-01 0.22021270E+03</pdfrwt>
<pdfrwt beam="2">  1       21 0.89194379E-01 0.22021270E+03</pdfrwt>
<totfact> 0.66614029E+03</totfact>
</mgrwt>
</event>
<event>
12    1  0.1071811E-001  0.2337911E+03  0.7546771E-02  0.1124068E+00
         21   -1    0    0  503  502  0.00000000000E+00  0.00000000000E+00  0.10876874354E+03  0.10876874354E+03  0.00000000000E+00 0.  1.
         21   -1    0    0  501  503 -0.00000000000E+00 -0.00000000000E+00 -0.54451714761E+03  0.54451714761E+03  0.00000000000E+00 0.  1.
          6    2    1    2  501    0 -0.64528324632E+02 -0.14246534103E+03 -0.30933877783E+03  0.38750840121E+03  0.17323972832E+03 0.  0.
         24    2    3    3    0    0 -0.10676595689E+03 -0.10470308646E+03 -0.18616834203E+03  0.25185055329E+03  0.80052131462E+02 0.  0.
         -6    2    1    2    0  502  0.64528324632E+02  0.14246534103E+03 -0.12640962624E+03  0.26577748993E+03  0.17377572463E+03 0.  0.
        -24    2    5    5    0    0  0.23200288922E+02  0.85945302112E+01 -0.85561988200E+02  0.11976372325E+03  0.80064825157E+02 0.  0.
          5    1    3    3  501    0  0.42237632260E+02 -0.37762254572E+02 -0.12317043580E+03  0.13565784793E+03  0.47000000000E+01 0. -1.
        -13    1    4    4    0    0 -0.30035655912E+02 -0.84611996233E+02 -0.89020644146E+02  0.12643577665E+03  0.00000000000E+00 0.  1.
         14    1    4    4    0    0 -0.76730300980E+02 -0.20091090225E+02 -0.97147697885E+02  0.12541477664E+03  0.00000000000E+00 0. -1.
         -5    1    5    5    0  502  0.41328035710E+02  0.13387081082E+03 -0.40847638044E+02  0.14601376668E+03  0.47000000000E+01 0.  1.
         13    1    6    6    0    0 -0.21289059018E+02  0.21485945882E+02 -0.59170937364E+02  0.66453515579E+02  0.00000000000E+00 0. -1.
        -14    1    6    6    0    0  0.44489347940E+02 -0.12891415671E+02 -0.26391050837E+02  0.53310207675E+02  0.00000000000E+00 0.  1.
<mgrwt>
<rscale>  2 0.23369151E+03</rscale>
<asrwt>0</asrwt>
<pdfrwt beam="1">  1       21 0.16733652E-01 0.23379110E+03</pdfrwt>
<pdfrwt beam="2">  1       21 0.83771871E-01 0.23379110E+03</pdfrwt>
<totfact> 0.38972249E+04</totfact>
</mgrwt>
</event>
<event>
12    1  0.1071811E-001  0.1988754E+03  0.7546771E-02  0.1150742E+00
         21   -1    0    0  501  502  0.00000000000E+00  0.00000000000E+00  0.21797834483E+03  0.21797834483E+03  0.00000000000E+00 0.  1.
         21   -1    0    0  502  503 -0.00000000000E+00 -0.00000000000E+00 -0.19265479770E+03  0.19265479770E+03  0.00000000000E+00 0. -1.
         -6    2    1    2    0  503  0.69201401667E+02 -0.70608443201E+02 -0.37342006778E+02  0.20211836025E+03  0.17228760790E+03 0.  0.
        -24    2    3    3    0    0  0.23183820946E+02  0.19929955024E+02  0.18618055842E+02  0.86064761011E+02  0.78267607755E+02 0.  0.
          6    2    1    2  501    0 -0.69201401667E+02  0.70608443201E+02  0.62665553909E+02  0.20851478227E+03  0.17256029826E+03 0.  0.
         24    2    5    5    0    0  0.53770370965E+01  0.33857125699E+02 -0.19769248037E+02  0.91338891241E+02  0.82321032529E+02 0.  0.
          5    1    5    5  501    0 -0.74578438763E+02  0.36751317502E+02  0.82434801947E+02  0.11717589103E+03  0.47000000000E+01 0. -1.
        -13    1    6    6    0    0  0.15234414728E+02 -0.24698321156E+02 -0.89734027510E+00  0.29032734621E+02  0.00000000000E+00 0.  1.
         14    1    6    6    0    0 -0.98573776314E+01  0.58555446855E+02 -0.18871907762E+02  0.62306156620E+02  0.00000000000E+00 0. -1.
         -5    1    3    3    0  503  0.46017580721E+02 -0.90538398224E+02 -0.55960062620E+02  0.11605359924E+03  0.47000000000E+01 0.  1.
         11    1    4    4    0    0  0.29172538662E+02 -0.12987722985E+02 -0.17842195911E+02  0.36579528636E+02  0.00000000000E+00 0. -1.
        -12    1    4    4    0    0 -0.59887177163E+01  0.32917678009E+02  0.36460251753E+02  0.49485232375E+02  0.00000000000E+00 0.  1.
<mgrwt>
<rscale>  2 0.19881628E+03</rscale>
<asrwt>0</asrwt>
<pdfrwt beam="1">  1       21 0.33535130E-01 0.19887545E+03</pdfrwt>
<pdfrwt beam="2">  1       21 0.29639200E-01 0.19887545E+03</pdfrwt>
<totfact> 0.93203033E+04</totfact>
</mgrwt>
</event>
<event>
12    1  0.1071811E-001  0.2444416E+03  0.7546771E-02  0.1117080E+00
         21   -1    0    0  501  502  0.00000000000E+00  0.00000000000E+00  0.15173108227E+03  0.15173108227E+03  0.00000000000E+00 0.  1.
         21   -1    0    0  502  503 -0.00000000000E+00 -0.00000000000E+00 -0.39344585489E+03  0.39344585489E+03  0.00000000000E+00 0.  1.
         -6    2    1    2    0  503  0.16981302302E+03 -0.59642154779E+01 -0.10248156501E+03  0.26386289538E+03  0.17392274647E+03 0.  0.
        -24    2    3    3    0    0  0.60100483731E+02 -0.66269231329E+02 -0.29658829623E+02  0.11895334772E+03  0.72571162277E+02 0.  0.
          6    2    1    2  501    0 -0.16981302302E+03  0.59642154779E+01 -0.13923320761E+03  0.28131404178E+03  0.17572612028E+03 0.  0.
         24    2    5    5    0    0 -0.15617186924E+03 -0.43296832842E+02 -0.66682663342E+02  0.19244107946E+03  0.79515551918E+02 0.  0.
          5    1    5    5  501    0 -0.13641153779E+02  0.49261048320E+02 -0.72550544268E+02  0.88872962320E+02  0.47000000000E+01 0. -1.
        -13    1    6    6    0    0 -0.13766620773E+03 -0.10338307386E+02 -0.69455519123E+02  0.15454104467E+03  0.00000000000E+00 0.  1.
         14    1    6    6    0    0 -0.18505661516E+02 -0.32958525456E+02  0.27728557805E+01  0.37900034796E+02  0.00000000000E+00 0. -1.
         -5    1    3    3    0  503  0.10971253929E+03  0.60305015851E+02 -0.72822735382E+02  0.14490954766E+03  0.47000000000E+01 0.  1.
         13    1    4    4    0    0  0.44055950487E+02 -0.54745979388E+02 -0.53261573901E+02  0.88175077470E+02  0.00000000000E+00 0. -1.
        -14    1    4    4    0    0  0.16044533244E+02 -0.11523251941E+02  0.23602744278E+02  0.30778270253E+02  0.00000000000E+00 0.  1.
<mgrwt>
<rscale>  2 0.24411768E+03</rscale>
<asrwt>0</asrwt>
<pdfrwt beam="1">  1       21 0.23343244E-01 0.24444162E+03</pdfrwt>
<pdfrwt beam="2">  1       21 0.60530130E-01 0.24444162E+03</pdfrwt>
<totfact> 0.42825367E+04</totfact>
</mgrwt>
</event>
<event>
12    1  0.1071811E-001  0.1902625E+03  0.7546771E-02  0.1158479E+00
         21   -1    0    0  501  502  0.00000000000E+00  0.00000000000E+00  0.12497206472E+03  0.12497206472E+03  0.00000000000E+00 0.  1.
         21   -1    0    0  502  503 -0.00000000000E+00 -0.00000000000E+00 -0.42699140559E+03  0.42699140559E+03  0.00000000000E+00 0.  1.
         -6    2    1    2    0  503 -0.60132548654E+02  0.47769148117E+02 -0.30879464219E+03  0.36270367500E+03  0.17407472504E+03 0.  0.
        -24    2    3    3    0    0  0.30133217289E+02  0.42832890752E+01 -0.10844632964E+03  0.13864907278E+03  0.80849252440E+02 0.  0.
          6    2    1    2  501    0  0.60132548654E+02 -0.47769148117E+02  0.67753013154E+01  0.18925979531E+03  0.17284545263E+03 0.  0.
         24    2    5    5    0    0 -0.24926815163E+02  0.21350052283E+02  0.34014347998E+01  0.79505377576E+02  0.72335084559E+02 0.  0.
          5    1    5    5  501    0  0.85059363817E+02 -0.69119200400E+02  0.33738665156E+01  0.10975441773E+03  0.47000000000E+01 0. -1.
        -11    1    6    6    0    0 -0.20368017305E+02  0.28439674052E+01  0.36163805652E+02  0.41602465297E+02  0.00000000000E+00 0.  1.
         12    1    6    6    0    0 -0.45587978577E+01  0.18506084877E+02 -0.32762370852E+02  0.37902912279E+02  0.00000000000E+00 0. -1.
         -5    1    3    3    0  503 -0.90265765943E+02  0.43485859042E+02 -0.20034831255E+03  0.22405460223E+03  0.47000000000E+01 0.  1.
         13    1    4    4    0    0 -0.89840642059E+01  0.29872459538E+02 -0.16002456397E+02  0.35059319149E+02  0.00000000000E+00 0. -1.
        -14    1    4    4    0    0  0.39117281495E+02 -0.25589170463E+02 -0.92443873241E+02  0.10358975363E+03  0.00000000000E+00 0.  1.
<mgrwt>
<rscale>  2 0.18998088E+03</rscale>
<asrwt>0</asrwt>
<pdfrwt beam="1">  1       21 0.19226472E-01 0.19026252E+03</pdfrwt>
<pdfrwt beam="2">  1       21 0.65690985E-01 0.19026252E+03</pdfrwt>
<totfact> 0.52976154E+04</totfact>
</mgrwt>
</event>
<event>
12    1  0.1071811E-001  0.2090342E+03  0.7546771E-02  0.1142429E+00
         21   -1    0    0  501  502  0.00000000000E+00  0.00000000000E+00  0.13063363842E+03  0.13063363842E+03  0.00000000000E+00 0. -1.
         21   -1    0    0  502  503 -0.00000000000E+00 -0.00000000000E+00 -0.35724238390E+03  0.35724238390E+03  0.00000000000E+00 0.  1.
         -6    2    1    2    0  503  0.10365229191E+03 -0.51620129625E+02 -0.17602262168E+03  0.27327507043E+03  0.17403121954E+03 0.  0.
        -24    2    3    3    0    0  0.12723165587E+01 -0.40236235938E+02 -0.29378269208E+02  0.94004580667E+02  0.79706994755E+02 0.  0.
          6    2    1    2  501    0 -0.10365229191E+03  0.51620129625E+02 -0.50586123807E+02  0.21460095189E+03  0.17345367459E+03 0.  0.
         24    2    5    5    0    0 -0.41473180252E+02  0.95969331958E+02 -0.40529801523E+02  0.13742379664E+03  0.79451228527E+02 0.  0.
          5    1    5    5  501    0 -0.62179111659E+02 -0.44349202333E+02 -0.10056322283E+02  0.77177155247E+02  0.47000000000E+01 0. -1.
        -11    1    6    6    0    0 -0.57767944964E+01  0.86754988841E+02 -0.48708512781E+02  0.99661018763E+02  0.00000000000E+00 0.  1.
         12    1    6    6    0    0 -0.35696385755E+02  0.92143431167E+01  0.81787112579E+01  0.37762777876E+02  0.00000000000E+00 0. -1.
         -5    1    3    3    0  503  0.10237997535E+03 -0.11383893687E+02 -0.14664435247E+03  0.17927048976E+03  0.47000000000E+01 0.  1.
         11    1    4    4    0    0 -0.83446803767E+01  0.17444984751E+02  0.11644147255E+02  0.22573155491E+02  0.00000000000E+00 0. -1.
        -12    1    4    4    0    0  0.96169969354E+01 -0.57681220688E+02 -0.41022416463E+02  0.71431425176E+02  0.00000000000E+00 0.  1.
<mgrwt>
<rscale>  2 0.20891396E+03</rscale>
<asrwt>0</asrwt>
<pdfrwt beam="1">  1       21 0.20097483E-01 0.20903421E+03</pdfrwt>
<pdfrwt beam="2">  1       21 0.54960366E-01 0.20903421E+03</pdfrwt>
<totfact> 0.70939647E+04</totfact>
</mgrwt>
</event>
<event>
12    1  0.1071811E-001  0.1737405E+03  0.7546771E-02  0.1174116E+00
         21   -1    0    0  501  502  0.00000000000E+00  0.00000000000E+00  0.50759787385E+03  0.50759787385E+03  0.00000000000E+00 0. -1.
         21   -1    0    0  502  503 -0.00000000000E+00 -0.00000000000E+00 -0.59317768947E+02  0.59317768947E+02  0.00000000000E+00 0. -1.
         -6    2    1    2    0  503  0.88445116249E+00  0.26023073291E+02  0.22189692009E+03  0.28154729309E+03  0.17132615826E+03 0.  0.
        -24    2    3    3    0    0 -0.65060914967E+02  0.23600874060E+02  0.15314869770E+03  0.18613730177E+03  0.80016545719E+02 0.  0.
          6    2    1    2  501    0 -0.88445116249E+00 -0.26023073291E+02  0.22638318482E+03  0.28536834971E+03  0.17177824673E+03 0.  0.
         24    2    5    5    0    0 -0.39258430366E+02 -0.68922991072E+02  0.12752664911E+03  0.17087961717E+03  0.81518061056E+02 0.  0.
          5    1    5    5  501    0  0.38373979203E+02  0.42899917781E+02  0.98856535714E+02  0.11448873254E+03  0.47000000000E+01 0. -1.
        -11    1    6    6    0    0 -0.56977335558E+02 -0.18937027453E+02  0.76874720045E+02  0.97543581839E+02  0.00000000000E+00 0.  1.
         12    1    6    6    0    0  0.17718905193E+02 -0.49985963619E+02  0.50651929061E+02  0.73336035329E+02  0.00000000000E+00 0. -1.
         -5    1    3    3    0  503  0.65945366130E+02  0.24221992312E+01  0.68748222384E+02  0.95409991322E+02  0.47000000000E+01 0.  1.
         13    1    4    4    0    0 -0.34517682179E+01  0.38528426472E+02  0.83106422398E+02  0.91668052200E+02  0.00000000000E+00 0. -1.
        -14    1    4    4    0    0 -0.61609146750E+02 -0.14927552412E+02  0.70042275305E+02  0.94469249569E+02  0.00000000000E+00 0.  1.
<mgrwt>
<rscale>  2 0.17362861E+03</rscale>
<asrwt>0</asrwt>
<pdfrwt beam="1">  1       21 0.78091978E-01 0.17374046E+03</pdfrwt>
<pdfrwt beam="2">  1       21 0.91258109E-02 0.17374046E+03</pdfrwt>
<totfact> 0.13938057E+05</totfact>
</mgrwt>
</event>
<event>
12    1  0.1071811E-001  0.1790982E+03  0.7546771E-02  0.1168739E+00
         21   -1    0    0  503  502  0.00000000000E+00  0.00000000000E+00  0.66126547647E+03  0.66126547647E+03  0.00000000000E+00 0.  1.
         21   -1    0    0  501  503 -0.00000000000E+00 -0.00000000000E+00 -0.53914475499E+02  0.53914475499E+02  0.00000000000E+00 0.  1.
          6    2    1    2  501    0  0.12579514099E+02 -0.44520889176E+02  0.18954405504E+03  0.26060452920E+03  0.17276405323E+03 0.  0.
         24    2    3    3    0    0  0.14590658584E+02 -0.31687835747E+02  0.16479928079E+02  0.86989973346E+02  0.77965769290E+02 0.  0.
         -6    2    1    2    0  502 -0.12579514099E+02  0.44520889176E+02  0.41780694593E+03  0.45457542277E+03  0.17301970169E+03 0.  0.
        -24    2    5    5    0    0  0.12503273208E+02  0.36414732274E+02  0.41850498548E+03  0.42779047815E+03  0.79849268999E+02 0.  0.
          5    1    3    3  501    0 -0.20111444843E+01 -0.12833053430E+02  0.17306412696E+03  0.17361455585E+03  0.47000000000E+01 0. -1.
        -11    1    4    4    0    0 -0.14747552073E+02 -0.28088276262E+02  0.38678198646E+02  0.50024440087E+02  0.00000000000E+00 0.  1.
         12    1    4    4    0    0  0.29338210657E+02 -0.35995594851E+01 -0.22198270566E+02  0.36965533260E+02  0.00000000000E+00 0. -1.
         -5    1    5    5    0  502 -0.25082787307E+02  0.81061569020E+01 -0.69803955216E+00  0.26784944615E+02  0.47000000000E+01 0.  1.
         11    1    6    6    0    0  0.22452669224E+02 -0.18701772056E+02  0.92385856486E+02  0.96896981955E+02  0.00000000000E+00 0. -1.
        -12    1    6    6    0    0 -0.99493960163E+01  0.55116504330E+02  0.32611912899E+03  0.33089349620E+03  0.00000000000E+00 0.  1.
<mgrwt>
<rscale>  2 0.17903644E+03</rscale>
<asrwt>0</asrwt>
<pdfrwt beam="1">  1       21 0.10173314E+00 0.17909822E+03</pdfrwt>
<pdfrwt beam="2">  1       21 0.82945352E-02 0.17909822E+03</pdfrwt>
<totfact> 0.89308601E+04</totfact>
</mgrwt>
</event>
<event>
12    1  0.1071811E-001  0.1741923E+03  0.7546771E-02  0.1174457E+00
         21   -1    0    0  501  502  0.00000000000E+00  0.00000000000E+00  0.31238001732E+03  0.31238001732E+03  0.00000000000E+00 0. -1.
         21   -1    0    0  502  503 -0.00000000000E+00 -0.00000000000E+00 -0.10052281390E+03  0.10052281390E+03  0.00000000000E+00 0. -1.
         -6    2    1    2    0  503  0.45893851742E+01 -0.47393735594E+01  0.59259767810E+02  0.18399642670E+03  0.17406734570E+03 0.  0.
        -24    2    3    3    0    0  0.70051585987E+02  0.17230212389E+02  0.44484924620E+02  0.11322674086E+03  0.75081831422E+02 0.  0.
          6    2    1    2  501    0 -0.45893851742E+01  0.47393735594E+01  0.15259743561E+03  0.22890640452E+03  0.17049528016E+03 0.  0.
         24    2    5    5    0    0  0.50495169256E+02 -0.21903786464E+02  0.13176136518E+03  0.16409592741E+03  0.80850962005E+02 0.  0.
          5    1    5    5  501    0 -0.55084554430E+02  0.26643160023E+02  0.20836070426E+02  0.64810477113E+02  0.47000000000E+01 0. -1.
        -13    1    6    6    0    0  0.92801585940E+01 -0.18718187743E+02  0.11901877453E+03  0.12083857243E+03  0.00000000000E+00 0.  1.
         14    1    6    6    0    0  0.41215010662E+02 -0.31855987205E+01  0.12742590651E+02  0.43257354977E+02  0.00000000000E+00 0. -1.
         -5    1    3    3    0  503 -0.65462200813E+02 -0.21969585949E+02  0.14774843191E+02  0.70769685836E+02  0.47000000000E+01 0.  1.
         11    1    4    4    0    0  0.44769268409E+02 -0.51654315322E+01  0.60829501779E+02  0.75704672006E+02  0.00000000000E+00 0. -1.
        -12    1    4    4    0    0  0.25282317578E+02  0.22395643922E+02 -0.16344577160E+02  0.37522068857E+02  0.00000000000E+00 0.  1.
<mgrwt>
<rscale>  2 0.17329302E+03</rscale>
<asrwt>0</asrwt>
<pdfrwt beam="1">  1       21 0.48058464E-01 0.17419232E+03</pdfrwt>
<pdfrwt beam="2">  1       21 0.15465048E-01 0.17419232E+03</pdfrwt>
<totfact> 0.15444041E+05</totfact>
</mgrwt>
</event>
<event>
12    1  0.1071811E-001  0.2191440E+03  0.7546771E-02  0.1134958E+00
         21   -1    0    0  501  502  0.00000000000E+00  0.00000000000E+00  0.13335604628E+03  0.13335604628E+03  0.00000000000E+00 0.  1.
         21   -1    0    0  502  503 -0.00000000000E+00 -0.00000000000E+00 -0.40261308578E+03  0.40261308578E+03  0.00000000000E+00 0.  1.
         -6    2    1    2    0  503  0.13324391868E+03  0.23110637631E+02 -0.22612048725E+03  0.31488816728E+03  0.17244140948E+03 0.  0.
        -24    2    3    3    0    0  0.16298439483E+03  0.53514789116E+01 -0.20537938024E+03  0.27424130811E+03  0.80218788092E+02 0.  0.
          6    2    1    2  501    0 -0.13324391868E+03 -0.23110637631E+02 -0.43136552246E+02  0.22108096477E+03  0.16949332556E+03 0.  0.
         24    2    5    5    0    0 -0.44876486679E+02  0.38938708116E+02 -0.52594082365E+02  0.11258921752E+03  0.79875355127E+02 0.  0.
          5    1    5    5  501    0 -0.88367431996E+02 -0.62049345747E+02  0.94575301184E+01  0.10849174725E+03  0.47000000000E+01 0. -1.
        -13    1    6    6    0    0 -0.32773775283E+02 -0.19935911834E+02 -0.12533093637E+02  0.40356404238E+02  0.00000000000E+00 0.  1.
         14    1    6    6    0    0 -0.12102711397E+02  0.58874619950E+02 -0.40060988728E+02  0.72232813286E+02  0.00000000000E+00 0. -1.
         -5    1    3    3    0  503 -0.29740476154E+02  0.17759158720E+02 -0.20741107017E+02  0.40646859173E+02  0.47000000000E+01 0.  1.
         11    1    4    4    0    0 -0.64534750419E+01 -0.41492999023E+01  0.18896499432E+00  0.76746164441E+01  0.00000000000E+00 0. -1.
        -12    1    4    4    0    0  0.16943786987E+03  0.95007788139E+01 -0.20556834523E+03  0.26656669166E+03  0.00000000000E+00 0.  1.
<mgrwt>
<rscale>  2 0.21856363E+03</rscale>
<asrwt>0</asrwt>
<pdfrwt beam="1">  1       21 0.20516315E-01 0.21914398E+03</pdfrwt>
<pdfrwt beam="2">  1       21 0.61940475E-01 0.21914398E+03</pdfrwt>
<totfact> 0.52589065E+04</totfact>
</mgrwt>
</event>
<event>
12    1  0.1071811E-001  0.1985716E+03  0.7546771E-02  0.1151768E+00
         21   -1    0    0  503  502  0.00000000000E+00  0.00000000000E+00  0.17921523664E+03  0.17921523664E+03  0.00000000000E+00 0.  1.
         21   -1    0    0  501  503 -0.00000000000E+00 -0.00000000000E+00 -0.28878394183E+03  0.28878394183E+03  0.00000000000E+00 0. -1.
          6    2    1    2  501    0  0.82355352345E+02  0.35518892566E+02  0.63224277645E+02  0.20477282262E+03  0.17288899274E+03 0.  0.
         24    2    3    3    0    0 -0.21947613974E+02 -0.77531506803E+00  0.33361361076E+02  0.90272769883E+02  0.80956122047E+02 0.  0.
         -6    2    1    2    0  502 -0.82355352345E+02 -0.35518892566E+02 -0.17279298283E+03  0.26322635585E+03  0.17716292983E+03 0.  0.
        -24    2    5    5    0    0 -0.40020944555E+02  0.40712095908E+02 -0.47276169183E+02  0.11032139780E+03  0.81710610589E+02 0.  0.
          5    1    3    3  501    0  0.10430296632E+03  0.36294207634E+02  0.29862916569E+02  0.11450005274E+03  0.47000000000E+01 0. -1.
        -11    1    4    4    0    0  0.13392785512E+02 -0.28981800261E+02 -0.32511927742E+01  0.32091770045E+02  0.00000000000E+00 0.  1.
         12    1    4    4    0    0 -0.35340399485E+02  0.28206485193E+02  0.36612553851E+02  0.58180999838E+02  0.00000000000E+00 0. -1.
         -5    1    5    5    0  502 -0.42334407790E+02 -0.76230988474E+02 -0.12551681365E+03  0.15290495805E+03  0.47000000000E+01 0.  1.
         13    1    6    6    0    0  0.17943005890E+02 -0.94201318772E+01 -0.21306054879E+02  0.29404732943E+02  0.00000000000E+00 0. -1.
        -14    1    6    6    0    0 -0.57963950445E+02  0.50132227785E+02 -0.25970114304E+02  0.80916664853E+02  0.00000000000E+00 0.  1.
<mgrwt>
<rscale>  2 0.19761385E+03</rscale>
<asrwt>0</asrwt>
<pdfrwt beam="1">  1       21 0.27571575E-01 0.19857165E+03</pdfrwt>
<pdfrwt beam="2">  1       21 0.44428298E-01 0.19857165E+03</pdfrwt>
<totfact> 0.60893455E+04</totfact>
</mgrwt>
</event>
<event>
12    1  0.1071811E-001  0.1960011E+03  0.7546771E-02  0.1154465E+00
         21   -1    0    0  501  502  0.00000000000E+00  0.00000000000E+00  0.28171768567E+03  0.28171768567E+03  0.00000000000E+00 0. -1.
         21   -1    0    0  502  503 -0.00000000000E+00 -0.00000000000E+00 -0.13473027492E+03  0.13473027492E+03  0.00000000000E+00 0. -1.
         -6    2    1    2    0  503 -0.79046394574E+02  0.85757325585E+01  0.10278065552E+03  0.22131495385E+03  0.17914957428E+03 0.  0.
        -24    2    3    3    0    0 -0.26076260451E+02  0.38086629347E+01  0.13434456130E+03  0.15929132762E+03  0.81429654492E+02 0.  0.
          6    2    1    2  501    0  0.79046394574E+02 -0.85757325585E+01  0.44206755234E+02  0.19513300674E+03  0.17262901676E+03 0.  0.
         24    2    5    5    0    0 -0.68790140459E+01 -0.14094885776E+02 -0.23198311066E+02  0.85683612677E+02  0.80978597208E+02 0.  0.
          5    1    5    5  501    0  0.85925408620E+02  0.55191532177E+01  0.67405066299E+02  0.10944939407E+03  0.47000000000E+01 0. -1.
        -13    1    6    6    0    0 -0.12477819293E+02 -0.20238979510E+02  0.26321964862E+02  0.35470524384E+02  0.00000000000E+00 0.  1.
         14    1    6    6    0    0  0.55988052474E+01  0.61440937333E+01 -0.49520275927E+02  0.50213088293E+02  0.00000000000E+00 0. -1.
         -5    1    3    3    0  503 -0.52970134123E+02  0.47670696238E+01 -0.31563905787E+02  0.62023626227E+02  0.47000000000E+01 0.  1.
         13    1    4    4    0    0  0.11684329210E+02 -0.29169544363E+02  0.76749072752E+02  0.82932539065E+02  0.00000000000E+00 0. -1.
        -14    1    4    4    0    0 -0.37760589661E+02  0.32978207298E+02  0.57595488551E+02  0.76358788555E+02  0.00000000000E+00 0.  1.
<mgrwt>
<rscale>  2 0.19449856E+03</rscale>
<asrwt>0</asrwt>
<pdfrwt beam="1">  1       21 0.43341182E-01 0.19600114E+03</pdfrwt>
<pdfrwt beam="2">  1       21 0.20727735E-01 0.19600114E+03</pdfrwt>
<totfact> 0.11034766E+05</totfact>
</mgrwt>
</event>
<event>
12    1  0.1071811E-001  0.2395413E+03  0.7546771E-02  0.1122545E+00
         21   -1    0    0  501  502  0.00000000000E+00  0.00000000000E+00  0.22071325131E+03  0.22071325131E+03  0.00000000000E+00 0. -1.
         21   -1    0    0  502  503 -0.00000000000E+00 -0.00000000000E+00 -0.74372633996E+03  0.74372633996E+03  0.00000000000E+00 0.  1.
         -6    2    1    2    0  503  0.13830439012E+03 -0.39731605232E+02 -0.65377950279E+03  0.69152952649E+03  0.17343224312E+03 0.  0.
        -24    2    3    3    0    0  0.48124866720E+02  0.33845008830E+02 -0.41068282439E+03  0.42196701124E+03  0.77034335883E+02 0.  0.
          6    2    1    2  501    0 -0.13830439012E+03  0.39731605232E+02  0.13076641414E+03  0.27291006478E+03  0.19150285536E+03 0.  0.
         24    2    5    5    0    0 -0.96943488001E+02  0.37128441057E+02 -0.50485205910E+01  0.13083512968E+03  0.79471898158E+02 0.  0.
          5    1    5    5  501    0 -0.41360902122E+02  0.26031641746E+01  0.13581493473E+03  0.14207493510E+03  0.47000000000E+01 0. -1.
        -13    1    6    6    0    0 -0.96604707219E+02  0.15479768278E+02  0.17705376974E+02  0.99426219161E+02  0.00000000000E+00 0.  1.
         14    1    6    6    0    0 -0.33878078221E+00  0.21648672780E+02 -0.22753897565E+02  0.31408910518E+02  0.00000000000E+00 0. -1.
         -5    1    3    3    0  503  0.90179523403E+02 -0.73576614062E+02 -0.24309667840E+03  0.26956251525E+03  0.47000000000E+01 0.  1.
         11    1    4    4    0    0  0.28753474897E+01 -0.69150265742E+01 -0.74031703197E+00  0.75255089539E+01  0.00000000000E+00 0. -1.
        -12    1    4    4    0    0  0.45249519230E+02  0.40760035404E+02 -0.40994250736E+03  0.41444150228E+03  0.00000000000E+00 0.  1.
<mgrwt>
<rscale>  2 0.23591348E+03</rscale>
<asrwt>0</asrwt>
<pdfrwt beam="1">  1       21 0.33955886E-01 0.23954133E+03</pdfrwt>
<pdfrwt beam="2">  1       21 0.11441943E+00 0.23954133E+03</pdfrwt>
<totfact> 0.47891830E+03</totfact>
</mgrwt>
</event>
<event>
12    1  0.1071811E-001  0.1931370E+03  0.7546771E-02  0.1155890E+00
         21   -1    0    0  501  502  0.00000000000E+00  0.00000000000E+00  0.20350976329E+03  0.20350976329E+03  0.00000000000E+00 0.  1.
         21   -1    0    0  502  503 -0.00000000000E+00 -0.00000000000E+00 -0.32260380012E+03  0.32260380012E+03  0.00000000000E+00 0.  1.
         -6    2    1    2    0  503  0.73859441378E+02  0.46997330085E+02 -0.23292595026E+03  0.30192706038E+03  0.17100141919E+03 0.  0.
        -24    2    3    3    0    0 -0.31530542435E+02 -0.69993961863E+01 -0.66329069593E+02  0.97478275137E+02  0.63712651784E+02 0.  0.
          6    2    1    2  501    0 -0.73859441378E+02 -0.46997330085E+02  0.11383191344E+03  0.22418650304E+03  0.17215666560E+03 0.  0.
         24    2    5    5    0    0 -0.25444910769E+02  0.19891168258E+02  0.51629353121E+01  0.87624887671E+02  0.81291838334E+02 0.  0.
          5    1    5    5  501    0 -0.48414530610E+02 -0.66888498343E+02  0.10866897812E+03  0.13656161537E+03  0.47000000000E+01 0. -1.
        -13    1    6    6    0    0 -0.51938744679E+02  0.10933216641E+02 -0.12523476130E+02  0.54534446723E+02  0.00000000000E+00 0.  1.
         14    1    6    6    0    0  0.26493833911E+02  0.89579516162E+01  0.17686411442E+02  0.33090440948E+02  0.00000000000E+00 0. -1.
         -5    1    3    3    0  503  0.10538998381E+03  0.53996726272E+02 -0.16659688067E+03  0.20444878524E+03  0.47000000000E+01 0.  1.
         13    1    4    4    0    0  0.80662214475E+00 -0.22638429841E+02 -0.55525264059E+02  0.59968359105E+02  0.00000000000E+00 0. -1.
        -14    1    4    4    0    0 -0.32337164579E+02  0.15639033654E+02 -0.10803805534E+02  0.37509916032E+02  0.00000000000E+00 0.  1.
<mgrwt>
<rscale>  2 0.19287918E+03</rscale>
<asrwt>0</asrwt>
<pdfrwt beam="1">  1       21 0.31309194E-01 0.19313696E+03</pdfrwt>
<pdfrwt beam="2">  1       21 0.49631354E-01 0.19313696E+03</pdfrwt>
<totfact> 0.37927470E+04</totfact>
</mgrwt>
</event>
<event>
12    1  0.1071811E-001  0.1849894E+03  0.7546771E-02  0.1165244E+00
         21   -1    0    0  503  502  0.00000000000E+00  0.00000000000E+00  0.73311326803E+03  0.73311326803E+03  0.00000000000E+00 0.  1.
         21   -1    0    0  501  503 -0.00000000000E+00 -0.00000000000E+00 -0.78616074460E+02  0.78616074460E+02  0.00000000000E+00 0.  1.
          6    2    1    2  501    0 -0.25144115750E+02 -0.53443050055E+02  0.64241899061E+02  0.19582671706E+03  0.17530743100E+03 0.  0.
         24    2    3    3    0    0 -0.38480926279E+02 -0.12850318159E+02  0.10368917354E+03  0.13748446941E+03  0.80651238402E+02 0.  0.
         -6    2    1    2    0  502  0.25144115750E+02  0.53443050055E+02  0.59025529451E+03  0.61590262543E+03  0.16566938509E+03 0.  0.
        -24    2    5    5    0    0 -0.45917883109E+02  0.44558386571E+02  0.38949567037E+03  0.40270022954E+03  0.79791577452E+02 0.  0.
          5    1    3    3  501    0  0.13336810530E+02 -0.40592731897E+02 -0.39447274475E+02  0.58342247655E+02  0.47000000000E+01 0. -1.
        -11    1    4    4    0    0 -0.39702137661E+02  0.23704543349E+02  0.29722791217E+02  0.54969167976E+02  0.00000000000E+00 0.  1.
         12    1    4    4    0    0  0.12212113822E+01 -0.36554861508E+02  0.73966382318E+02  0.82515301431E+02  0.00000000000E+00 0. -1.
         -5    1    5    5    0  502  0.71061998859E+02  0.88846634845E+01  0.20075962414E+03  0.21320239589E+03  0.47000000000E+01 0.  1.
         13    1    6    6    0    0  0.52546934486E+01  0.28030771150E+02  0.27190886938E+03  0.27340038256E+03  0.00000000000E+00 0. -1.
        -14    1    6    6    0    0 -0.51172576558E+02  0.16527615421E+02  0.11758680099E+03  0.12929984698E+03  0.00000000000E+00 0.  1.
<mgrwt>
<rscale>  2 0.18266946E+03</rscale>
<asrwt>0</asrwt>
<pdfrwt beam="1">  1       21 0.11278665E+00 0.18498941E+03</pdfrwt>
<pdfrwt beam="2">  1       21 0.12094781E-01 0.18498941E+03</pdfrwt>
<totfact> 0.35715715E+04</totfact>
</mgrwt>
</event>
<event>
12    1  0.1071811E-001  0.1774612E+03  0.7546771E-02  0.1170569E+00
         21   -1    0    0  503  502  0.00000000000E+00  0.00000000000E+00  0.12229439754E+03  0.12229439754E+03  0.00000000000E+00 0.  1.
         21   -1    0    0  501  503 -0.00000000000E+00 -0.00000000000E+00 -0.33064867431E+03  0.33064867431E+03  0.00000000000E+00 0.  1.
          6    2    1    2  501    0 -0.36851965201E+02 -0.59887199212E+01 -0.21163700399E+03  0.27545152793E+03  0.17230609588E+03 0.  0.
         24    2    3    3    0    0 -0.58408500149E+02  0.13519500603E+02 -0.42950610324E+02  0.10421355237E+03  0.73630019584E+02 0.  0.
         -6    2    1    2    0  502  0.36851965201E+02  0.59887199212E+01  0.32827272263E+01  0.17749154392E+03  0.17348930733E+03 0.  0.
        -24    2    5    5    0    0 -0.66271986709E+00  0.13471325486E+02 -0.65721986375E+02  0.98453062901E+02  0.72053523810E+02 0.  0.
          5    1    3    3  501    0  0.21556534948E+02 -0.19508220524E+02 -0.16868639367E+03  0.17123797556E+03  0.47000000000E+01 0. -1.
        -11    1    4    4    0    0  0.70320074354E+01 -0.18351116211E+02 -0.19638680593E+02  0.27782915078E+02  0.00000000000E+00 0.  1.
         12    1    4    4    0    0 -0.65440507584E+02  0.31870616814E+02 -0.23311929731E+02  0.76430637291E+02  0.00000000000E+00 0. -1.
         -5    1    5    5    0  502  0.37514685068E+02 -0.74826055652E+01  0.69004713602E+02  0.79038481014E+02  0.47000000000E+01 0.  1.
         13    1    6    6    0    0  0.25343175406E+02  0.28466277545E+02 -0.18180499738E+02  0.42227195830E+02  0.00000000000E+00 0. -1.
        -14    1    6    6    0    0 -0.26005895273E+02 -0.14994952059E+02 -0.47541486637E+02  0.56225867071E+02  0.00000000000E+00 0.  1.
<mgrwt>
<rscale>  2 0.17717134E+03</rscale>
<asrwt>0</asrwt>
<pdfrwt beam="1">  1       21 0.18814523E-01 0.17746118E+03</pdfrwt>
<pdfrwt beam="2">  1       21 0.50869026E-01 0.17746118E+03</pdfrwt>
<totfact> 0.95636463E+04</totfact>
</mgrwt>
</event>
<event>
12    1  0.1071811E-001  0.1980465E+03  0.7546771E-02  0.1151761E+00
         21   -1    0    0  501  502  0.00000000000E+00  0.00000000000E+00  0.24429198978E+03  0.24429198978E+03  0.00000000000E+00 0. -1.
         21   -1    0    0  502  503 -0.00000000000E+00 -0.00000000000E+00 -0.16101931470E+03  0.16101931470E+03  0.00000000000E+00 0.  1.
         -6    2    1    2    0  503  0.89632825184E+02 -0.35033981318E+02  0.63432268442E+02  0.20795691493E+03  0.17309246833E+03 0.  0.
        -24    2    3    3    0    0 -0.31613874854E+01 -0.34162043930E+02  0.74537817372E+02  0.11437834155E+03  0.79683619271E+02 0.  0.
          6    2    1    2  501    0 -0.89632825184E+02  0.35033981318E+02  0.19840406636E+02  0.19735438955E+03  0.17115399540E+03 0.  0.
         24    2    5    5    0    0 -0.67982930964E+02 -0.18898071784E+02  0.63789181562E+02  0.12434090389E+03  0.80079864358E+02 0.  0.
          5    1    5    5  501    0 -0.21649894219E+02  0.53932053102E+02 -0.43948774926E+02  0.73013485665E+02  0.47000000000E+01 0. -1.
        -11    1    6    6    0    0 -0.48174038587E+02  0.27383145750E+02  0.41776714058E+02  0.69396458861E+02  0.00000000000E+00 0.  1.
         12    1    6    6    0    0 -0.19808892378E+02 -0.46281217535E+02  0.22012467504E+02  0.54944445027E+02  0.00000000000E+00 0. -1.
         -5    1    3    3    0  503  0.92794212669E+02 -0.87193738723E+00 -0.11105548931E+02  0.93578573385E+02  0.47000000000E+01 0.  1.
         11    1    4    4    0    0 -0.14772556752E+02  0.11277670046E+02  0.63545549644E+02  0.66207636676E+02  0.00000000000E+00 0. -1.
        -12    1    4    4    0    0  0.11611169267E+02 -0.45439713977E+02  0.10992267729E+02  0.48170704872E+02  0.00000000000E+00 0.  1.
<mgrwt>
<rscale>  2 0.19762217E+03</rscale>
<asrwt>0</asrwt>
<pdfrwt beam="1">  1       21 0.37583383E-01 0.19804652E+03</pdfrwt>
<pdfrwt beam="2">  1       21 0.24772202E-01 0.19804652E+03</pdfrwt>
<totfact> 0.10501785E+05</totfact>
</mgrwt>
</event>
<event>
12    1  0.1071811E-001  0.1757433E+03  0.7546771E-02  0.1175213E+00
         21   -1    0    0  503  502  0.00000000000E+00  0.00000000000E+00  0.14657936722E+03  0.14657936722E+03  0.00000000000E+00 0. -1.
         21   -1    0    0  501  503 -0.00000000000E+00 -0.00000000000E+00 -0.19794825823E+03  0.19794825823E+03  0.00000000000E+00 0. -1.
          6    2    1    2  501    0  0.92566875757E+01  0.18601261975E+02 -0.80168061033E+01  0.16351623542E+03  0.16199258271E+03 0.  0.
         24    2    3    3    0    0 -0.52857414168E+02  0.22584768801E+02  0.10836358830E+02  0.98312234086E+02  0.79018293351E+02 0.  0.
         -6    2    1    2    0  502 -0.92566875757E+01 -0.18601261975E+02 -0.43352084913E+02  0.18101139003E+03  0.17451082156E+03 0.  0.
        -24    2    5    5    0    0 -0.15543081901E+02 -0.45161622089E+02 -0.88096144373E+02  0.12838922417E+03  0.80260218814E+02 0.  0.
          5    1    3    3  501    0  0.62114101743E+02 -0.39835068259E+01 -0.18853164933E+02  0.65204001334E+02  0.47000000000E+01 0. -1.
        -11    1    4    4    0    0  0.12863992583E+02  0.14023651170E+02 -0.17852098790E+02  0.26092959367E+02  0.00000000000E+00 0.  1.
         12    1    4    4    0    0 -0.65721406750E+02  0.85611176306E+01  0.28688457620E+02  0.72219274719E+02  0.00000000000E+00 0. -1.
         -5    1    5    5    0  502  0.62863943253E+01  0.26560360114E+02  0.44744059460E+02  0.52622165861E+02  0.47000000000E+01 0.  1.
         13    1    6    6    0    0  0.24716424922E+02 -0.43333492252E+02 -0.31820260094E+02  0.59171126101E+02  0.00000000000E+00 0. -1.
        -14    1    6    6    0    0 -0.40259506823E+02 -0.18281298367E+01 -0.56275884279E+02  0.69218098065E+02  0.00000000000E+00 0.  1.
<mgrwt>
<rscale>  2 0.17255149E+03</rscale>
<asrwt>0</asrwt>
<pdfrwt beam="1">  1       21 0.22550672E-01 0.17574334E+03</pdfrwt>
<pdfrwt beam="2">  1       21 0.30453578E-01 0.17574334E+03</pdfrwt>
<totfact> 0.19159538E+05</totfact>
</mgrwt>
</event>
<event>
12    1  0.1071811E-001  0.1811312E+03  0.7546771E-02  0.1166846E+00
         21   -1    0    0  503  502  0.00000000000E+00  0.00000000000E+00  0.70715447569E+03  0.70715447569E+03  0.00000000000E+00 0. -1.
         21   -1    0    0  501  503 -0.00000000000E+00 -0.00000000000E+00 -0.43680927289E+03  0.43680927289E+03  0.00000000000E+00 0. -1.
          6    2    1    2  501    0 -0.12156626328E+02 -0.54211636809E+02 -0.40565697620E+03  0.44425902248E+03  0.17240014962E+03 0.  0.
         24    2    3    3    0    0  0.27766807879E+02  0.26977827480E+02 -0.19047952842E+03  0.21078732453E+03  0.81547818129E+02 0.  0.
         -6    2    1    2    0  502  0.12156626328E+02  0.54211636809E+02  0.67600217900E+03  0.69970472611E+03  0.17181697413E+03 0.  0.
        -24    2    5    5    0    0 -0.37861332513E+02  0.84092197319E+02  0.45112384701E+03  0.46735370222E+03  0.80011121044E+02 0.  0.
          5    1    3    3  501    0 -0.39923434207E+02 -0.81189464290E+02 -0.21517744778E+03  0.23347169795E+03  0.47000000000E+01 0. -1.
        -11    1    4    4    0    0  0.53977595146E+00  0.31116408514E+02 -0.17773952960E+03  0.18044351642E+03  0.00000000000E+00 0.  1.
         12    1    4    4    0    0  0.27227031928E+02 -0.41385810336E+01 -0.12739998816E+02  0.30343808107E+02  0.00000000000E+00 0. -1.
         -5    1    5    5    0  502  0.50017958841E+02 -0.29880560509E+02  0.22487833198E+03  0.23235102388E+03  0.47000000000E+01 0.  1.
         13    1    6    6    0    0 -0.35388778728E+01  0.53149300731E+02  0.37143686484E+03  0.37523688036E+03  0.00000000000E+00 0. -1.
        -14    1    6    6    0    0 -0.34322454640E+02  0.30942896587E+02  0.79686982176E+02  0.92116821863E+02  0.00000000000E+00 0.  1.
<mgrwt>
<rscale>  2 0.18099226E+03</rscale>
<asrwt>0</asrwt>
<pdfrwt beam="1">  1       21 0.10879300E+00 0.18113116E+03</pdfrwt>
<pdfrwt beam="2">  1       21 0.67201426E-01 0.18113116E+03</pdfrwt>
<totfact> 0.13750400E+03</totfact>
</mgrwt>
</event>
<event>
12    1  0.1071811E-001  0.1919605E+03  0.7546771E-02  0.1156923E+00
         21   -1    0    0  503  502  0.00000000000E+00  0.00000000000E+00  0.44479055244E+03  0.44479055244E+03  0.00000000000E+00 0.  1.
         21   -1    0    0  501  503 -0.00000000000E+00 -0.00000000000E+00 -0.83425157569E+02  0.83425157569E+02  0.00000000000E+00 0.  1.
          6    2    1    2  501    0  0.38649882330E+02 -0.65791517088E+02  0.15128051411E+03  0.24363794636E+03  0.17507517766E+03 0.  0.
         24    2    3    3    0    0 -0.34335774198E+01  0.50455979108E+01  0.13025178253E+02  0.82623840335E+02  0.81362130080E+02 0.  0.
         -6    2    1    2    0  502 -0.38649882330E+02  0.65791517088E+02  0.21008488076E+03  0.28457776365E+03  0.17614343392E+03 0.  0.
        -24    2    5    5    0    0 -0.94479448651E+02  0.49867788815E+02  0.14892875529E+03  0.20012264374E+03  0.80350082785E+02 0.  0.
          5    1    3    3  501    0  0.42083459750E+02 -0.70837114999E+02  0.13825533586E+03  0.16101410603E+03  0.47000000000E+01 0. -1.
        -13    1    4    4    0    0  0.62532912077E+01  0.39414165699E+02  0.22321966750E+02  0.45725816649E+02  0.00000000000E+00 0.  1.
         14    1    4    4    0    0 -0.96868686274E+01 -0.34368567788E+02 -0.92967884971E+01  0.36898023686E+02  0.00000000000E+00 0. -1.
         -5    1    5    5    0  502  0.55829566321E+02  0.15923728273E+02  0.61156125470E+02  0.84455119917E+02  0.47000000000E+01 0.  1.
         11    1    6    6    0    0 -0.47950620965E+02  0.22148361432E+02  0.13870345868E+02  0.54609508875E+02  0.00000000000E+00 0. -1.
        -12    1    6    6    0    0 -0.46528827686E+02  0.27719427383E+02  0.13505840943E+03  0.14551313486E+03  0.00000000000E+00 0.  1.
<mgrwt>
<rscale>  2 0.19171512E+03</rscale>
<asrwt>0</asrwt>
<pdfrwt beam="1">  1       21 0.68429315E-01 0.19196053E+03</pdfrwt>
<pdfrwt beam="2">  1       21 0.12834640E-01 0.19196053E+03</pdfrwt>
<totfact> 0.10134684E+05</totfact>
</mgrwt>
</event>
<event>
12    1  0.1071811E-001  0.2310849E+03  0.7546771E-02  0.1125881E+00
         21   -1    0    0  501  502  0.00000000000E+00  0.00000000000E+00  0.13571845714E+04  0.13571845714E+04  0.00000000000E+00 0. -1.
         21   -1    0    0  502  503 -0.00000000000E+00 -0.00000000000E+00 -0.21959075674E+03  0.21959075674E+03  0.00000000000E+00 0.  1.
         -6    2    1    2    0  503 -0.81110449920E+02  0.13098891263E+03 -0.14548283858E+03  0.27305529718E+03  0.17221190051E+03 0.  0.
        -24    2    3    3    0    0  0.15671242156E+02  0.63925875819E+02 -0.22638422226E+02  0.10282901408E+03  0.75691495864E+02 0.  0.
          6    2    1    2  501    0  0.81110449920E+02 -0.13098891263E+03  0.12830766533E+04  0.13037200310E+04  0.17223013880E+03 0.  0.
         24    2    5    5    0    0 -0.28513073957E+02 -0.47372467058E+02  0.42863961556E+03  0.43821799842E+03  0.72428917534E+02 0.  0.
          5    1    5    5  501    0  0.10962352388E+03 -0.83616445575E+02  0.85443703773E+03  0.86550203258E+03  0.47000000000E+01 0. -1.
        -11    1    6    6    0    0 -0.65023165289E+01 -0.63475088660E+02  0.30630152451E+03  0.31287695811E+03  0.00000000000E+00 0.  1.
         12    1    6    6    0    0 -0.22010757428E+02  0.16102621602E+02  0.12233809105E+03  0.12534104031E+03  0.00000000000E+00 0. -1.
         -5    1    3    3    0  503 -0.96781692076E+02  0.67063036814E+02 -0.12284441635E+03  0.17022628310E+03  0.47000000000E+01 0.  1.
         11    1    4    4    0    0 -0.78063616879E+01 -0.14237058332E+01  0.19881113266E+02  0.21406188026E+02  0.00000000000E+00 0. -1.
        -12    1    4    4    0    0  0.23477603844E+02  0.65349581652E+02 -0.42519535492E+02  0.81422826055E+02  0.00000000000E+00 0.  1.
<mgrwt>
<rscale>  2 0.23108148E+03</rscale>
<asrwt>0</asrwt>
<pdfrwt beam="1">  1       21 0.20879762E+00 0.23108488E+03</pdfrwt>
<pdfrwt beam="2">  1       21 0.33783194E-01 0.23108488E+03</pdfrwt>
<totfact> 0.95645589E+02</totfact>
</mgrwt>
</event>
<event>
12    1  0.1071811E-001  0.2069445E+03  0.7546771E-02  0.1144164E+00
         21   -1    0    0  501  502  0.00000000000E+00  0.00000000000E+00  0.15231632960E+03  0.15231632960E+03  0.00000000000E+00 0.  1.
         21   -1    0    0  502  503 -0.00000000000E+00 -0.00000000000E+00 -0.72498814747E+03  0.72498814747E+03  0.00000000000E+00 0. -1.
         -6    2    1    2    0  503  0.10737856344E+03  0.39256841966E+02 -0.62974284702E+03  0.66263469650E+03  0.17157340152E+03 0.  0.
        -24    2    3    3    0    0  0.61847915545E+02 -0.28388930904E+02 -0.48377975629E+03  0.49537351051E+03  0.81981499509E+02 0.  0.
          6    2    1    2  501    0 -0.10737856344E+03 -0.39256841966E+02  0.57071029158E+02  0.21466978057E+03  0.17249567181E+03 0.  0.
         24    2    5    5    0    0 -0.34247901997E+02  0.13702309747E+02  0.82716547686E+02  0.12068814399E+03  0.79767968225E+02 0.  0.
          5    1    5    5  501    0 -0.73130661443E+02 -0.52959151713E+02 -0.25645518528E+02  0.93981636578E+02  0.47000000000E+01 0. -1.
        -13    1    6    6    0    0 -0.38193842385E+02  0.43244022770E+02  0.49082868417E+02  0.75749211702E+02  0.00000000000E+00 0.  1.
         14    1    6    6    0    0  0.39459403881E+01 -0.29541713023E+02  0.33633679269E+02  0.44938932286E+02  0.00000000000E+00 0. -1.
         -5    1    3    3    0  503  0.45530647895E+02  0.67645772871E+02 -0.14596309072E+03  0.16726118599E+03  0.47000000000E+01 0.  1.
         11    1    4    4    0    0  0.57111407757E+01 -0.46643803577E+02 -0.23906240949E+03  0.24363722452E+03  0.00000000000E+00 0. -1.
        -12    1    4    4    0    0  0.56136774769E+02  0.18254872672E+02 -0.24471734681E+03  0.25173628599E+03  0.00000000000E+00 0.  1.
<mgrwt>
<rscale>  2 0.20675217E+03</rscale>
<asrwt>0</asrwt>
<pdfrwt beam="1">  1       21 0.23433281E-01 0.20694447E+03</pdfrwt>
<pdfrwt beam="2">  1       21 0.11153664E+00 0.20694447E+03</pdfrwt>
<totfact> 0.10711155E+04</totfact>
</mgrwt>
</event>
<event>
12    1  0.1071811E-001  0.3955287E+03  0.7546771E-02  0.1045359E+00
         21   -1    0    0  501  502  0.00000000000E+00  0.00000000000E+00  0.18727582874E+03  0.18727582874E+03  0.00000000000E+00 0. -1.
         21   -1    0    0  502  503 -0.00000000000E+00 -0.00000000000E+00 -0.11132434520E+04  0.11132434520E+04  0.00000000000E+00 0.  1.
         -6    2    1    2    0  503 -0.93554506104E+02  0.34315393631E+03 -0.78823844822E+03  0.88190860270E+03  0.17301983308E+03 0.  0.
        -24    2    3    3    0    0  0.15749514572E+02  0.13033754789E+03 -0.35390336593E+03  0.38601825411E+03  0.80787229732E+02 0.  0.
          6    2    1    2  501    0  0.93554506104E+02 -0.34315393631E+03 -0.13772917506E+03  0.41861067808E+03  0.17250653471E+03 0.  0.
         24    2    5    5    0    0 -0.13302380390E+02 -0.20332441372E+03 -0.82194496075E+02  0.23401143607E+03  0.80545927816E+02 0.  0.
          5    1    5    5  501    0  0.10685688649E+03 -0.13982952259E+03 -0.55534678989E+02  0.18459924200E+03  0.47000000000E+01 0. -1.
        -13    1    6    6    0    0 -0.25322855722E+02 -0.59035826056E+02  0.59341334791E+01  0.64511159656E+02  0.00000000000E+00 0.  1.
         14    1    6    6    0    0  0.12020475332E+02 -0.14428858767E+03 -0.88128629554E+02  0.16950027641E+03  0.00000000000E+00 0. -1.
         -5    1    3    3    0  503 -0.10930402068E+03  0.21281638842E+03 -0.43433508229E+03  0.49589034859E+03  0.47000000000E+01 0.  1.
         13    1    4    4    0    0 -0.15421403359E+02 -0.29613844408E+01 -0.56122585566E+02  0.58278075551E+02  0.00000000000E+00 0. -1.
        -14    1    4    4    0    0  0.31170917931E+02  0.13329893233E+03 -0.29778078036E+03  0.32774017856E+03  0.00000000000E+00 0.  1.
<mgrwt>
<rscale>  2 0.39547260E+03</rscale>
<asrwt>0</asrwt>
<pdfrwt beam="1">  1       21 0.28811666E-01 0.39552867E+03</pdfrwt>
<pdfrwt beam="2">  1       21 0.17126822E+00 0.39552867E+03</pdfrwt>
<totfact> 0.21036916E+03</totfact>
</mgrwt>
</event>
<event>
12    1  0.1071811E-001  0.3131683E+03  0.7546771E-02  0.1078978E+00
         21   -1    0    0  503  502  0.00000000000E+00  0.00000000000E+00  0.29301636203E+04  0.29301636203E+04  0.00000000000E+00 0.  1.
         21   -1    0    0  501  503 -0.00000000000E+00 -0.00000000000E+00 -0.42993397867E+02  0.42993397867E+02  0.00000000000E+00 0.  1.
          6    2    1    2  501    0  0.24806487070E+03 -0.78083719913E+02  0.21457358547E+04  0.21682972127E+04  0.17232874746E+03 0.  0.
         24    2    3    3    0    0  0.25026502777E+03 -0.57856357331E+02  0.21083873717E+04  0.21255071897E+04  0.80644665974E+02 0.  0.
         -6    2    1    2    0  502 -0.24806487070E+03  0.78083719913E+02  0.74143436772E+03  0.80485980543E+03  0.17447388733E+03 0.  0.
        -24    2    5    5    0    0 -0.17774498194E+03  0.11507189353E+03  0.49499994609E+03  0.54589064528E+03  0.90204382865E+02 0.  0.
          5    1    3    3  501    0 -0.22001570759E+01 -0.20227362581E+02  0.37348483035E+02  0.42790023056E+02  0.47000000000E+01 0. -1.
        -13    1    4    4    0    0  0.13488583005E+03 -0.70608642879E+02  0.12812243095E+04  0.12902385434E+04  0.00000000000E+00 0.  1.
         14    1    4    4    0    0  0.11537919772E+03  0.12752285548E+02  0.82716306216E+03  0.83526864628E+03  0.00000000000E+00 0. -1.
         -5    1    5    5    0  502 -0.70319888763E+02 -0.36988173614E+02  0.24643442163E+03  0.25896916015E+03  0.47000000000E+01 0.  1.
         13    1    6    6    0    0  0.48429213925E+01  0.30544353064E+01 -0.81248592750E+00  0.57830438384E+01  0.00000000000E+00 0. -1.
        -14    1    6    6    0    0 -0.18258790333E+03  0.11201745822E+03  0.49581243202E+03  0.54010760144E+03  0.00000000000E+00 0.  1.
<mgrwt>
<rscale>  2 0.31287037E+03</rscale>
<asrwt>0</asrwt>
<pdfrwt beam="1">  1       21 0.45079425E+00 0.31316830E+03</pdfrwt>
<pdfrwt beam="2">  1       21 0.66143712E-02 0.31316830E+03</pdfrwt>
<totfact> 0.58921723E+02</totfact>
</mgrwt>
</event>
<event>
12    1  0.1071811E-001  0.1986868E+03  0.7546771E-02  0.1151883E+00
         21   -1    0    0  503  502  0.00000000000E+00  0.00000000000E+00  0.31458609035E+03  0.31458609035E+03  0.00000000000E+00 0. -1.
         21   -1    0    0  501  503 -0.00000000000E+00 -0.00000000000E+00 -0.15008584287E+03  0.15008584287E+03  0.00000000000E+00 0. -1.
          6    2    1    2  501    0 -0.71255699424E+02 -0.49749721640E+02  0.18269724304E+03  0.26991615144E+03  0.17867298814E+03 0.  0.
         24    2    3    3    0    0 -0.45248055849E+02  0.25647990128E+02  0.35773683307E+02  0.10267430599E+03  0.80975618172E+02 0.  0.
         -6    2    1    2    0  502  0.71255699424E+02  0.49749721640E+02 -0.18196995557E+02  0.19475578179E+03  0.17333861194E+03 0.  0.
        -24    2    5    5    0    0  0.21865536495E+02  0.65904155935E+02 -0.65458442136E+02  0.12435629120E+03  0.79738447813E+02 0.  0.
          5    1    3    3  501    0 -0.26007643575E+02 -0.75397711768E+02  0.14692355973E+03  0.16724184545E+03  0.47000000000E+01 0. -1.
        -13    1    4    4    0    0 -0.23362999581E+02  0.29887058530E+02  0.59216121104E+02  0.70325066766E+02  0.00000000000E+00 0.  1.
         14    1    4    4    0    0 -0.21885056268E+02 -0.42390684019E+01 -0.23442437797E+02  0.32349239228E+02  0.00000000000E+00 0. -1.
         -5    1    5    5    0  502  0.49390162929E+02 -0.16154434295E+02  0.47261446579E+02  0.70399490582E+02  0.47000000000E+01 0.  1.
         11    1    6    6    0    0  0.49166424220E+02  0.51283006403E+02 -0.59826142399E+02  0.92878691478E+02  0.00000000000E+00 0. -1.
        -12    1    6    6    0    0 -0.27300887726E+02  0.14621149532E+02 -0.56322997374E+01  0.31477599727E+02  0.00000000000E+00 0.  1.
<mgrwt>
<rscale>  2 0.19748010E+03</rscale>
<asrwt>0</asrwt>
<pdfrwt beam="1">  1       21 0.48397860E-01 0.19868680E+03</pdfrwt>
<pdfrwt beam="2">  1       21 0.23090130E-01 0.19868680E+03</pdfrwt>
<totfact> 0.71643322E+04</totfact>
</mgrwt>
</event>
<event>
12    1  0.1071811E-001  0.1862394E+03  0.7546771E-02  0.1161928E+00
         21   -1    0    0  503  502  0.00000000000E+00  0.00000000000E+00  0.10344921986E+03  0.10344921986E+03  0.00000000000E+00 0.  1.
         21   -1    0    0  501  503 -0.00000000000E+00 -0.00000000000E+00 -0.34025353943E+03  0.34025353943E+03  0.00000000000E+00 0. -1.
          6    2    1    2  501    0 -0.69099649388E+02  0.25418832421E+01 -0.90930277235E+02  0.20713489321E+03  0.17278693802E+03 0.  0.
         24    2    3    3    0    0  0.12192412164E+02 -0.16363503930E+02 -0.29841130755E+01  0.85798869185E+02  0.83283382780E+02 0.  0.
         -6    2    1    2    0  502  0.69099649388E+02 -0.25418832421E+01 -0.14587404233E+03  0.23656786608E+03  0.17292743079E+03 0.  0.
        -24    2    5    5    0    0  0.49856094203E+02  0.63502246529E+02 -0.95252323991E+02  0.15102962983E+03  0.84963394574E+02 0.  0.
          5    1    3    3  501    0 -0.81292061552E+02  0.18905387172E+02 -0.87946164159E+02  0.12133602402E+03  0.47000000000E+01 0. -1.
        -11    1    4    4    0    0 -0.32251601043E+02  0.44323844590E+01  0.11678734101E+02  0.34586191349E+02  0.00000000000E+00 0.  1.
         12    1    4    4    0    0  0.44444013207E+02 -0.20795888389E+02 -0.14662847177E+02  0.51212677836E+02  0.00000000000E+00 0. -1.
         -5    1    5    5    0  502  0.19243555184E+02 -0.66044129771E+02 -0.50621718339E+02  0.85538236251E+02  0.47000000000E+01 0.  1.
         11    1    6    6    0    0  0.96616471246E+01  0.71580376575E+02 -0.41086864983E+02  0.83097702796E+02  0.00000000000E+00 0. -1.
        -12    1    6    6    0    0  0.40194447079E+02 -0.80781300466E+01 -0.54165459009E+02  0.67931927035E+02  0.00000000000E+00 0.  1.
<mgrwt>
<rscale>  2 0.18620679E+03</rscale>
<asrwt>0</asrwt>
<pdfrwt beam="1">  1       21 0.15915265E-01 0.18623941E+03</pdfrwt>
<pdfrwt beam="2">  1       21 0.52346698E-01 0.18623941E+03</pdfrwt>
<totfact> 0.12215946E+05</totfact>
</mgrwt>
</event>
<event>
12    1  0.1071811E-001  0.2932778E+03  0.7546771E-02  0.1088652E+00
         21   -1    0    0  503  502  0.00000000000E+00  0.00000000000E+00  0.16334486392E+03  0.16334486392E+03  0.00000000000E+00 0. -1.
         21   -1    0    0  501  503 -0.00000000000E+00 -0.00000000000E+00 -0.60424918320E+03  0.60424918320E+03  0.00000000000E+00 0.  1.
          6    2    1    2  501    0  0.75506775719E+01  0.23708940729E+03 -0.35809639073E+03  0.46286597608E+03  0.17246300175E+03 0.  0.
         24    2    3    3    0    0  0.16009164951E+02  0.22749733791E+03 -0.22895293671E+03  0.33300576077E+03  0.80386922821E+02 0.  0.
         -6    2    1    2    0  502 -0.75506775719E+01 -0.23708940729E+03 -0.82807928548E+02  0.30472807105E+03  0.17243446428E+03 0.  0.
        -24    2    5    5    0    0  0.60916931104E+02 -0.13135795175E+03 -0.36643304075E+02  0.17048867042E+03  0.82206271193E+02 0.  0.
          5    1    3    3  501    0 -0.84584873793E+01  0.95920693867E+01 -0.12914345402E+03  0.12986021531E+03  0.47000000000E+01 0. -1.
        -11    1    4    4    0    0 -0.26101585244E+02  0.14849838407E+03 -0.12528416877E+03  0.19603363428E+03  0.00000000000E+00 0.  1.
         12    1    4    4    0    0  0.42110750195E+02  0.78998953833E+02 -0.10366876795E+03  0.13697212650E+03  0.00000000000E+00 0. -1.
         -5    1    5    5    0  502 -0.68467608676E+02 -0.10573145554E+03 -0.46164624473E+02  0.13423940063E+03  0.47000000000E+01 0.  1.
         11    1    6    6    0    0  0.47202023253E+01 -0.43455229376E+02  0.23946094066E+02  0.49840271781E+02  0.00000000000E+00 0. -1.
        -12    1    6    6    0    0  0.56196728779E+02 -0.87902722375E+02 -0.60589398141E+02  0.12064839864E+03  0.00000000000E+00 0.  1.
<mgrwt>
<rscale>  2 0.29327364E+03</rscale>
<asrwt>0</asrwt>
<pdfrwt beam="1">  1       21 0.25129978E-01 0.29327783E+03</pdfrwt>
<pdfrwt beam="2">  1       21 0.92961415E-01 0.29327783E+03</pdfrwt>
<totfact> 0.13830593E+04</totfact>
</mgrwt>
</event>
<event>
12    1  0.1071811E-001  0.3096349E+03  0.7546771E-02  0.1080656E+00
         21   -1    0    0  503  502  0.00000000000E+00  0.00000000000E+00  0.16401742041E+04  0.16401742041E+04  0.00000000000E+00 0. -1.
         21   -1    0    0  501  503 -0.00000000000E+00 -0.00000000000E+00 -0.78431941359E+02  0.78431941359E+02  0.00000000000E+00 0.  1.
          6    2    1    2  501    0 -0.13547827061E+03 -0.21833289460E+03  0.34383724376E+03  0.46195726897E+03  0.17075378029E+03 0.  0.
         24    2    3    3    0    0 -0.12045960624E+03 -0.18534087949E+03  0.18409969046E+03  0.29809083166E+03  0.78126113093E+02 0.  0.
         -6    2    1    2    0  502  0.13547827061E+03  0.21833289460E+03  0.12179050189E+04  0.12566488765E+04  0.17277195622E+03 0.  0.
        -24    2    5    5    0    0  0.17679170927E+02  0.52925341629E+02  0.23166156449E+03  0.24970571623E+03  0.74647299925E+02 0.  0.
          5    1    3    3  501    0 -0.15018664373E+02 -0.32992015105E+02  0.15973755330E+03  0.16386643731E+03  0.47000000000E+01 0. -1.
        -13    1    4    4    0    0 -0.71466260371E+02 -0.16463673769E+03  0.12581483587E+03  0.21918497826E+03  0.00000000000E+00 0.  1.
         14    1    4    4    0    0 -0.48993345868E+02 -0.20704141804E+02  0.58284854585E+02  0.78905853402E+02  0.00000000000E+00 0. -1.
         -5    1    5    5    0  502  0.11779909969E+03  0.16540755297E+03  0.98624345445E+03  0.10069431602E+04  0.47000000000E+01 0.  1.
         11    1    6    6    0    0 -0.89264495587E+01  0.43830187619E+02  0.20859668762E+03  0.21333856879E+03  0.00000000000E+00 0. -1.
        -12    1    6    6    0    0  0.26605620485E+02  0.90951540105E+01  0.23064876870E+02  0.36367147440E+02  0.00000000000E+00 0.  1.
<mgrwt>
<rscale>  2 0.30935411E+03</rscale>
<asrwt>0</asrwt>
<pdfrwt beam="1">  1       21 0.25233447E+00 0.30963489E+03</pdfrwt>
<pdfrwt beam="2">  1       21 0.12066454E-01 0.30963489E+03</pdfrwt>
<totfact> 0.33876973E+03</totfact>
</mgrwt>
</event>
<event>
12    1  0.1071811E-001  0.1848443E+03  0.7546771E-02  0.1163340E+00
         21   -1    0    0  501  502  0.00000000000E+00  0.00000000000E+00  0.11767349391E+04  0.11767349391E+04  0.00000000000E+00 0.  1.
         21   -1    0    0  502  503 -0.00000000000E+00 -0.00000000000E+00 -0.36869982593E+02  0.36869982593E+02  0.00000000000E+00 0.  1.
         -6    2    1    2    0  503  0.33385731247E+02 -0.57395127340E+02  0.28775025091E+03  0.34167208547E+03  0.17184527750E+03 0.  0.
        -24    2    3    3    0    0  0.54405278756E+02  0.10916131450E+02  0.22799538091E+03  0.24839302059E+03  0.81474552367E+02 0.  0.
          6    2    1    2  501    0 -0.33385731247E+02  0.57395127340E+02  0.85211470560E+03  0.87193283622E+03  0.17250678739E+03 0.  0.
         24    2    5    5    0    0 -0.42105832238E+02 -0.18163636568E+02  0.64086473880E+03  0.64735811494E+03  0.79133411068E+02 0.  0.
          5    1    5    5  501    0  0.87201009914E+01  0.75558763908E+02  0.21124996680E+03  0.22457472128E+03  0.47000000000E+01 0. -1.
        -11    1    6    6    0    0 -0.40719847620E+02  0.81290223165E+01  0.57394573342E+03  0.57544582013E+03  0.00000000000E+00 0.  1.
         12    1    6    6    0    0 -0.13859846177E+01 -0.26292658885E+02  0.66919005375E+02  0.71912294811E+02  0.00000000000E+00 0. -1.
         -5    1    3    3    0  503 -0.21019547509E+02 -0.68311258790E+02  0.59754870004E+02  0.93279064876E+02  0.47000000000E+01 0.  1.
         13    1    4    4    0    0  0.65412210378E+02 -0.12285106535E+02  0.11835126360E+03  0.13578182023E+03  0.00000000000E+00 0. -1.
        -14    1    4    4    0    0 -0.11006931623E+02  0.23201237985E+02  0.10964411731E+03  0.11261120037E+03  0.00000000000E+00 0.  1.
<mgrwt>
<rscale>  2 0.18468976E+03</rscale>
<asrwt>0</asrwt>
<pdfrwt beam="1">  1       21 0.18103612E+00 0.18484426E+03</pdfrwt>
<pdfrwt beam="2">  1       21 0.56723059E-02 0.18484426E+03</pdfrwt>
<totfact> 0.39054185E+04</totfact>
</mgrwt>
</event>
<event>
12    1  0.1071811E-001  0.2029613E+03  0.7546771E-02  0.1147437E+00
         21   -1    0    0  503  502  0.00000000000E+00  0.00000000000E+00  0.24172726000E+03  0.24172726000E+03  0.00000000000E+00 0. -1.
         21   -1    0    0  501  503 -0.00000000000E+00 -0.00000000000E+00 -0.59526525920E+03  0.59526525920E+03  0.00000000000E+00 0.  1.
          6    2    1    2  501    0 -0.10952353932E+03 -0.16467234472E+01 -0.53050986819E+03  0.56771140051E+03  0.16987464985E+03 0.  0.
         24    2    3    3    0    0 -0.13044998954E+03  0.30673735213E+02 -0.47541489848E+03  0.50033132887E+03  0.79712202045E+02 0.  0.
         -6    2    1    2    0  502  0.10952353932E+03  0.16467234472E+01  0.17697186899E+03  0.26928111869E+03  0.17086591557E+03 0.  0.
        -24    2    5    5    0    0  0.10744936645E+03 -0.32908151069E+02  0.18757941902E+03  0.23277150813E+03  0.79801151617E+02 0.  0.
          5    1    3    3  501    0  0.20926450216E+02 -0.32320458660E+02 -0.55094969713E+02  0.67380071640E+02  0.47000000000E+01 0. -1.
        -11    1    4    4    0    0 -0.45932374464E+02 -0.24957604907E+02 -0.20639686188E+03  0.21291390199E+03  0.00000000000E+00 0.  1.
         12    1    4    4    0    0 -0.84517615071E+02  0.55631340120E+02 -0.26901803660E+03  0.28741742688E+03  0.00000000000E+00 0. -1.
         -5    1    5    5    0  502  0.20741728705E+01  0.34554874516E+02 -0.10607550023E+02  0.36509610562E+02  0.47000000000E+01 0.  1.
         13    1    6    6    0    0  0.75052067142E+02  0.93470053933E+01  0.67324301972E+02  0.10125581923E+03  0.00000000000E+00 0. -1.
        -14    1    6    6    0    0  0.32397299307E+02 -0.42255156462E+02  0.12025511704E+03  0.13151568890E+03  0.00000000000E+00 0.  1.
<mgrwt>
<rscale>  2 0.20275250E+03</rscale>
<asrwt>0</asrwt>
<pdfrwt beam="1">  1       21 0.37188810E-01 0.20296127E+03</pdfrwt>
<pdfrwt beam="2">  1       21 0.91579270E-01 0.20296127E+03</pdfrwt>
<totfact> 0.69829340E+03</totfact>
</mgrwt>
</event>
<event>
11    1  0.1071811E-001  0.1749447E+03  0.7546771E-02  0.1174327E+00
         21   -1    0    0  501  502  0.00000000000E+00  0.00000000000E+00  0.46281685016E+03  0.46281685016E+03  0.00000000000E+00 0.  1.
         21   -1    0    0  502  503 -0.00000000000E+00 -0.00000000000E+00 -0.11555720602E+03  0.11555720602E+03  0.00000000000E+00 0.  1.
         -6    2    1    2    0  503 -0.81264252795E+01 -0.12120943640E+02 -0.21432036231E+02  0.17028190175E+03  0.16829627989E+03 0.  0.
        -24    2    3    3    0    0 -0.64159623939E+02 -0.34247838201E+02 -0.10535964564E+02  0.10888049141E+03  0.80340420052E+02 0.  0.
          6    2    1    2  501    0  0.81264252795E+01  0.12120943640E+02  0.36869168037E+03  0.40809215442E+03  0.17433500872E+03 0.  0.
          5    1    5    5  501    0 -0.28038666273E+02 -0.15367107038E+02  0.33134569601E+03  0.33291797045E+03  0.47000000000E+01 0. -1.
        -11    1    5    5    0    0  0.16395485118E+02  0.35590344804E+02  0.36868916575E+02  0.53803360350E+02  0.00000000000E+00 0.  1.
         12    1    5    5    0    0  0.19769606434E+02 -0.81022941265E+01  0.47706778601E+00  0.21370823624E+02  0.00000000000E+00 0. -1.
         -5    1    3    3    0  503  0.56033198660E+02  0.22126894561E+02 -0.10896071667E+02  0.61401410348E+02  0.47000000000E+01 0.  1.
         11    1    4    4    0    0 -0.33944575756E+02 -0.17240474897E+01  0.32518195308E+02  0.47038703098E+02  0.00000000000E+00 0. -1.
        -12    1    4    4    0    0 -0.30215048183E+02 -0.32523790711E+02 -0.43054159872E+02  0.61841788309E+02  0.00000000000E+00 0.  1.
<mgrwt>
<rscale>  2 0.17342068E+03</rscale>
<asrwt>0</asrwt>
<pdfrwt beam="1">  1       21 0.71202591E-01 0.17494471E+03</pdfrwt>
<pdfrwt beam="2">  1       21 0.17778032E-01 0.17494471E+03</pdfrwt>
<totfact> 0.51700793E+04</totfact>
</mgrwt>
</event>
<event>
12    1  0.1071811E-001  0.1762258E+03  0.7546771E-02  0.1171509E+00
         21   -1    0    0  503  502  0.00000000000E+00  0.00000000000E+00  0.49237083027E+03  0.49237083027E+03  0.00000000000E+00 0. -1.
         21   -1    0    0  501  503 -0.00000000000E+00 -0.00000000000E+00 -0.17348617285E+03  0.17348617285E+03  0.00000000000E+00 0.  1.
          6    2    1    2  501    0 -0.17491888930E+02  0.31372409826E+02 -0.10616405900E+03  0.20572448612E+03  0.17251539783E+03 0.  0.
         24    2    3    3    0    0  0.41506744265E+02  0.40840111008E+02 -0.21636503652E+02  0.10210270415E+03  0.81031471775E+02 0.  0.
         -6    2    1    2    0  502  0.17491888930E+02 -0.31372409826E+02  0.42504871642E+03  0.46013251700E+03  0.17252630986E+03 0.  0.
        -24    2    5    5    0    0  0.67902211898E+02 -0.59356060468E+01  0.18348549499E+03  0.21201336902E+03  0.81466557380E+02 0.  0.
          5    1    3    3  501    0 -0.58998633195E+02 -0.94677011823E+01 -0.84527555351E+02  0.10362178197E+03  0.47000000000E+01 0. -1.
        -13    1    4    4    0    0  0.20971244778E+02  0.35877139238E+02 -0.51089145056E+02  0.65856381391E+02  0.00000000000E+00 0.  1.
         14    1    4    4    0    0  0.20535499487E+02  0.49629717707E+01  0.29452641403E+02  0.36246322760E+02  0.00000000000E+00 0. -1.
         -5    1    5    5    0  502 -0.50410322968E+02 -0.25436803779E+02  0.24156322142E+03  0.24811914798E+03  0.47000000000E+01 0.  1.
         13    1    6    6    0    0  0.21881899680E+02 -0.40689971327E+02  0.10410415521E+03  0.11389541884E+03  0.00000000000E+00 0. -1.
        -14    1    6    6    0    0  0.46020312217E+02  0.34754365280E+02  0.79381339787E+02  0.98117950187E+02  0.00000000000E+00 0.  1.
<mgrwt>
<rscale>  2 0.17622310E+03</rscale>
<asrwt>0</asrwt>
<pdfrwt beam="1">  1       21 0.75749358E-01 0.17622577E+03</pdfrwt>
<pdfrwt beam="2">  1       21 0.26690181E-01 0.17622577E+03</pdfrwt>
<totfact> 0.20985222E+04</totfact>
</mgrwt>
</event>
<event>
12    1  0.1071811E-001  0.1805840E+03  0.7546771E-02  0.1168908E+00
         21   -1    0    0  501  502  0.00000000000E+00  0.00000000000E+00  0.28485202155E+02  0.28485202155E+02  0.00000000000E+00 0.  1.
         21   -1    0    0  502  503 -0.00000000000E+00 -0.00000000000E+00 -0.21296480380E+04  0.21296480380E+04  0.00000000000E+00 0.  1.
         -6    2    1    2    0  503  0.27340722403E+02  0.40507419097E+02 -0.18104263213E+04  0.18194103586E+04  0.17384539715E+03 0.  0.
        -24    2    3    3    0    0 -0.18099106013E+02  0.67336598741E+02 -0.15545587073E+04  0.15581156805E+04  0.78802946777E+02 0.  0.
          6    2    1    2  501    0 -0.27340722403E+02 -0.40507419097E+02 -0.29073651456E+03  0.33872288155E+03  0.16678460205E+03 0.  0.
         24    2    5    5    0    0  0.18018317845E+02 -0.37690868390E+02 -0.72775665291E+02  0.11602488581E+03  0.80126246205E+02 0.  0.
          5    1    5    5  501    0 -0.45359040247E+02 -0.28165507067E+01 -0.21796084927E+03  0.22269799573E+03  0.47000000000E+01 0. -1.
        -11    1    6    6    0    0  0.11188669754E+02 -0.26830052596E+02 -0.89982471337E+02  0.94561531296E+02  0.00000000000E+00 0.  1.
         12    1    6    6    0    0  0.68296480908E+01 -0.10860815794E+02  0.17206806046E+02  0.21463354515E+02  0.00000000000E+00 0. -1.
         -5    1    3    3    0  503  0.45439828416E+02 -0.26829179644E+02 -0.25586761400E+03  0.26129467805E+03  0.47000000000E+01 0.  1.
         11    1    4    4    0    0 -0.37718772379E+02  0.31907229412E+02 -0.43014436439E+03  0.43297222924E+03  0.00000000000E+00 0. -1.
        -12    1    4    4    0    0  0.19619666366E+02  0.35429369329E+02 -0.11244143429E+04  0.11251434513E+04  0.00000000000E+00 0.  1.
<mgrwt>
<rscale>  2 0.17886287E+03</rscale>
<asrwt>0</asrwt>
<pdfrwt beam="1">  1       21 0.43823384E-02 0.18058402E+03</pdfrwt>
<pdfrwt beam="2">  1       21 0.32763819E+00 0.18058402E+03</pdfrwt>
<totfact> 0.80613603E+03</totfact>
</mgrwt>
</event>
<event>
12    1  0.1071811E-001  0.1967939E+03  0.7546771E-02  0.1152818E+00
         21   -1    0    0  501  502  0.00000000000E+00  0.00000000000E+00  0.40423326891E+03  0.40423326891E+03  0.00000000000E+00 0. -1.
         21   -1    0    0  502  503 -0.00000000000E+00 -0.00000000000E+00 -0.31429962314E+03  0.31429962314E+03  0.00000000000E+00 0. -1.
         -6    2    1    2    0  503 -0.89319367223E+02 -0.31225203518E+02 -0.25516541924E+03  0.32126570923E+03  0.17073166682E+03 0.  0.
        -24    2    3    3    0    0 -0.33889324493E+02 -0.47181260864E+02 -0.24199639328E+03  0.26191422527E+03  0.81622603172E+02 0.  0.
          6    2    1    2  501    0  0.89319367223E+02  0.31225203518E+02  0.34509906500E+03  0.39726718282E+03  0.17255401237E+03 0.  0.
         24    2    5    5    0    0  0.79473085544E+02  0.64801579958E+02  0.14855214406E+03  0.19757465805E+03  0.80329259346E+02 0.  0.
          5    1    5    5  501    0  0.98462816791E+01 -0.33576376440E+02  0.19654692094E+03  0.19969252477E+03  0.47000000000E+01 0. -1.
        -11    1    6    6    0    0 -0.14287099690E+02 -0.28704218966E+01  0.14818519892E+02  0.20783384498E+02  0.00000000000E+00 0.  1.
         12    1    6    6    0    0  0.93760185235E+02  0.67672001855E+02  0.13373362417E+03  0.17679127355E+03  0.00000000000E+00 0. -1.
         -5    1    3    3    0  503 -0.55430042730E+02  0.15956057346E+02 -0.13169025962E+02  0.59351483957E+02  0.47000000000E+01 0.  1.
         11    1    4    4    0    0 -0.37895468605E+02 -0.17789349746E+02 -0.22253025990E+03  0.22643375207E+03  0.00000000000E+00 0. -1.
        -12    1    4    4    0    0  0.40061441120E+01 -0.29391911118E+02 -0.19466133375E+02  0.35480473198E+02  0.00000000000E+00 0.  1.
<mgrwt>
<rscale>  2 0.19639373E+03</rscale>
<asrwt>0</asrwt>
<pdfrwt beam="1">  1       21 0.62189734E-01 0.19679393E+03</pdfrwt>
<pdfrwt beam="2">  1       21 0.48353788E-01 0.19679393E+03</pdfrwt>
<totfact> 0.97711979E+03</totfact>
</mgrwt>
</event>
<event>
12    1  0.1071811E-001  0.1843482E+03  0.7546771E-02  0.1164143E+00
         21   -1    0    0  503  502  0.00000000000E+00  0.00000000000E+00  0.14664614253E+04  0.14664614253E+04  0.00000000000E+00 0. -1.
         21   -1    0    0  501  503 -0.00000000000E+00 -0.00000000000E+00 -0.21957648245E+03  0.21957648245E+03  0.00000000000E+00 0. -1.
          6    2    1    2  501    0  0.48664178887E+02 -0.31700652447E+02 -0.17400583739E+03  0.25350010975E+03  0.17496039702E+03 0.  0.
         24    2    3    3    0    0  0.35468742879E+02 -0.52219018659E+02 -0.28343197053E+02  0.10573401867E+03  0.79946783891E+02 0.  0.
         -6    2    1    2    0  502 -0.48664178887E+02  0.31700652447E+02  0.14208907803E+04  0.14325377980E+04  0.17280277679E+03 0.  0.
        -24    2    5    5    0    0 -0.83193047686E+02 -0.27003612625E+02  0.80310358086E+03  0.81099009489E+03  0.71269166923E+02 0.  0.
          5    1    3    3  501    0  0.13195436008E+02  0.20518366212E+02 -0.14566264033E+03  0.14776609108E+03  0.47000000000E+01 0. -1.
        -13    1    4    4    0    0  0.32713305522E+02 -0.72237979561E+02 -0.12993204201E+02  0.80357385501E+02  0.00000000000E+00 0.  1.
         14    1    4    4    0    0  0.27554373572E+01  0.20018960901E+02 -0.15349992852E+02  0.25376633172E+02  0.00000000000E+00 0. -1.
         -5    1    5    5    0  502  0.34528868799E+02  0.58704265072E+02  0.61778719940E+03  0.62154770313E+03  0.47000000000E+01 0.  1.
         13    1    6    6    0    0 -0.87578007355E+02 -0.78763954975E+01  0.53581978077E+03  0.54298690817E+03  0.00000000000E+00 0. -1.
        -14    1    6    6    0    0  0.43849596685E+01 -0.19127217127E+02  0.26728380008E+03  0.26800318672E+03  0.00000000000E+00 0.  1.
<mgrwt>
<rscale>  2 0.18383448E+03</rscale>
<asrwt>0</asrwt>
<pdfrwt beam="1">  1       21 0.22560944E+00 0.18434824E+03</pdfrwt>
<pdfrwt beam="2">  1       21 0.33780998E-01 0.18434824E+03</pdfrwt>
<totfact> 0.79297005E+02</totfact>
</mgrwt>
</event>
<event>
12    1  0.1071811E-001  0.2297061E+03  0.7546771E-02  0.1127057E+00
         21   -1    0    0  501  502  0.00000000000E+00  0.00000000000E+00  0.11153747684E+04  0.11153747684E+04  0.00000000000E+00 0.  1.
         21   -1    0    0  502  503 -0.00000000000E+00 -0.00000000000E+00 -0.69035651526E+02  0.69035651526E+02  0.00000000000E+00 0.  1.
         -6    2    1    2    0  503  0.14724816614E+03  0.24412171741E+02  0.18814316469E+03  0.29600443371E+03  0.17303987344E+03 0.  0.
        -24    2    3    3    0    0  0.14932954079E+03  0.31241384637E+01  0.20649675962E+03  0.26743072327E+03  0.81050650968E+02 0.  0.
          6    2    1    2  501    0 -0.14724816614E+03 -0.24412171741E+02  0.85819595223E+03  0.88840598625E+03  0.17460506129E+03 0.  0.
         24    2    5    5    0    0 -0.44393939552E+02  0.30541867636E+02  0.22828025318E+03  0.24776972731E+03  0.79839440313E+02 0.  0.
          5    1    5    5  501    0 -0.10285422659E+03 -0.54954039378E+02  0.62991569904E+03  0.64063625894E+03  0.47000000000E+01 0. -1.
        -13    1    6    6    0    0 -0.11264746294E+02 -0.95479287885E+01  0.16589067493E+03  0.16654661054E+03  0.00000000000E+00 0.  1.
         14    1    6    6    0    0 -0.33129193258E+02  0.40089796425E+02  0.62389578257E+02  0.81223116773E+02  0.00000000000E+00 0. -1.
         -5    1    3    3    0  503 -0.20813746560E+01  0.21288033278E+02 -0.18353594934E+02  0.28573710440E+02  0.47000000000E+01 0.  1.
         13    1    4    4    0    0  0.14761394281E+02 -0.72514778831E+01  0.82591152974E+02  0.84212714255E+02  0.00000000000E+00 0. -1.
        -14    1    4    4    0    0  0.13456814651E+03  0.10375616347E+02  0.12390560665E+03  0.18321800902E+03  0.00000000000E+00 0.  1.
<mgrwt>
<rscale>  2 0.22940868E+03</rscale>
<asrwt>0</asrwt>
<pdfrwt beam="1">  1       21 0.17159610E+00 0.22970613E+03</pdfrwt>
<pdfrwt beam="2">  1       21 0.10620870E-01 0.22970613E+03</pdfrwt>
<totfact> 0.14776962E+04</totfact>
</mgrwt>
</event>
<event>
12    1  0.1071811E-001  0.1927222E+03  0.7546771E-02  0.1156172E+00
         21   -1    0    0  501  502  0.00000000000E+00  0.00000000000E+00  0.19258958776E+03  0.19258958776E+03  0.00000000000E+00 0.  1.
         21   -1    0    0  502  503 -0.00000000000E+00 -0.00000000000E+00 -0.22011499387E+03  0.22011499387E+03  0.00000000000E+00 0.  1.
         -6    2    1    2    0  503 -0.83459740894E+02  0.20187250909E+02 -0.87216229585E+02  0.21095013474E+03  0.17181453720E+03 0.  0.
        -24    2    3    3    0    0  0.32107245573E+01  0.12337109406E+02  0.68162918023E+01  0.82740933114E+02  0.81468319966E+02 0.  0.
          6    2    1    2  501    0  0.83459740894E+02 -0.20187250909E+02  0.59690823478E+02  0.20175444690E+03  0.17253639902E+03 0.  0.
         24    2    5    5    0    0  0.79156865032E+02 -0.75749038976E+02  0.50492140876E+02  0.14507700168E+03  0.80586313603E+02 0.  0.
          5    1    5    5  501    0  0.43028758618E+01  0.55561788067E+02  0.91986826023E+01  0.56677445210E+02  0.47000000000E+01 0. -1.
        -13    1    6    6    0    0 -0.36693441447E+01 -0.43016226486E+02  0.32941030765E+02  0.54304432006E+02  0.00000000000E+00 0.  1.
         14    1    6    6    0    0  0.82826209176E+02 -0.32732812490E+02  0.17551110111E+02  0.90772569679E+02  0.00000000000E+00 0. -1.
         -5    1    3    3    0  503 -0.86670465451E+02  0.78501415026E+01 -0.94032521387E+02  0.12820920163E+03  0.47000000000E+01 0.  1.
         13    1    4    4    0    0  0.26748278052E+02  0.38306616591E+02  0.91716839785E+01  0.47612887335E+02  0.00000000000E+00 0. -1.
        -14    1    4    4    0    0 -0.23537553495E+02 -0.25969507185E+02 -0.23553921762E+01  0.35128045779E+02  0.00000000000E+00 0.  1.
<mgrwt>
<rscale>  2 0.19256054E+03</rscale>
<asrwt>0</asrwt>
<pdfrwt beam="1">  1       21 0.29629168E-01 0.19272224E+03</pdfrwt>
<pdfrwt beam="2">  1       21 0.33863845E-01 0.19272224E+03</pdfrwt>
<totfact> 0.91721379E+04</totfact>
</mgrwt>
</event>
<event>
12    1  0.1071811E-001  0.2250544E+03  0.7546771E-02  0.1130809E+00
         21   -1    0    0  503  502  0.00000000000E+00  0.00000000000E+00  0.13186951528E+04  0.13186951528E+04  0.00000000000E+00 0.  1.
         21   -1    0    0  501  503 -0.00000000000E+00 -0.00000000000E+00 -0.48527680777E+02  0.48527680777E+02  0.00000000000E+00 0. -1.
          6    2    1    2  501    0 -0.14362538461E+03  0.17775895267E+02  0.31776131991E+03  0.38938636754E+03  0.17235211992E+03 0.  0.
         24    2    3    3    0    0 -0.12094119607E+03  0.48104114907E+01  0.32974520808E+03  0.36025940830E+03  0.80031406631E+02 0.  0.
         -6    2    1    2    0  502  0.14362538461E+03 -0.17775895267E+02  0.95240615216E+03  0.97783646608E+03  0.16775709273E+03 0.  0.
        -24    2    5    5    0    0  0.65109085263E+02 -0.12998947514E+02  0.24686694233E+03  0.26791020575E+03  0.80152514061E+02 0.  0.
          5    1    3    3  501    0 -0.22684188535E+02  0.12965483776E+02 -0.11983888175E+02  0.29126959245E+02  0.47000000000E+01 0. -1.
        -11    1    4    4    0    0 -0.67691645685E+02 -0.34154927246E+02  0.13768885706E+03  0.15718441179E+03  0.00000000000E+00 0.  1.
         12    1    4    4    0    0 -0.53249550389E+02  0.38965338737E+02  0.19205635102E+03  0.20307499651E+03  0.00000000000E+00 0. -1.
         -5    1    5    5    0  502  0.78516299347E+02 -0.47769477528E+01  0.70553920983E+03  0.70992626033E+03  0.47000000000E+01 0.  1.
         13    1    6    6    0    0  0.44208765917E+02 -0.16035688576E+02  0.24161248024E+03  0.24614660042E+03  0.00000000000E+00 0. -1.
        -14    1    6    6    0    0  0.20900319346E+02  0.30367410623E+01  0.52544620895E+01  0.21763605329E+02  0.00000000000E+00 0.  1.
<mgrwt>
<rscale>  2 0.22417444E+03</rscale>
<asrwt>0</asrwt>
<pdfrwt beam="1">  1       21 0.20287615E+00 0.22505441E+03</pdfrwt>
<pdfrwt beam="2">  1       21 0.74657980E-02 0.22505441E+03</pdfrwt>
<totfact> 0.16996937E+04</totfact>
</mgrwt>
</event>
<event>
12    1  0.1071811E-001  0.2126494E+03  0.7546771E-02  0.1141706E+00
         21   -1    0    0  503  502  0.00000000000E+00  0.00000000000E+00  0.13958027878E+03  0.13958027878E+03  0.00000000000E+00 0. -1.
         21   -1    0    0  501  503 -0.00000000000E+00 -0.00000000000E+00 -0.46031777861E+03  0.46031777861E+03  0.00000000000E+00 0. -1.
          6    2    1    2  501    0  0.53632207530E+02 -0.90148874948E+02  0.15385799639E+02  0.20215614186E+03  0.17212538896E+03 0.  0.
         24    2    3    3    0    0 -0.47471398066E+01 -0.79339496015E+02 -0.39659229143E+02  0.12105721424E+03  0.82247818806E+02 0.  0.
         -6    2    1    2    0  502 -0.53632207530E+02  0.90148874948E+02 -0.33612329947E+03  0.39774191552E+03  0.18497709473E+03 0.  0.
        -24    2    5    5    0    0 -0.10086864495E+03  0.85340759850E+02 -0.19389461236E+03  0.24772362188E+03  0.79462842309E+02 0.  0.
          5    1    3    3  501    0  0.58379347337E+02 -0.10809378933E+02  0.55045028782E+02  0.81098927625E+02  0.47000000000E+01 0. -1.
        -13    1    4    4    0    0 -0.34993875815E+02 -0.38829353153E+02  0.64051775866E+01  0.52662285468E+02  0.00000000000E+00 0.  1.
         14    1    4    4    0    0  0.30246736008E+02 -0.40510142863E+02 -0.46064406730E+02  0.68394928769E+02  0.00000000000E+00 0. -1.
         -5    1    5    5    0  502  0.47236437419E+02  0.48081150983E+01 -0.14222868711E+03  0.15001829364E+03  0.47000000000E+01 0.  1.
         11    1    6    6    0    0 -0.45780956066E+02  0.87512948882E+02 -0.11709561753E+03  0.15318549476E+03  0.00000000000E+00 0. -1.
        -12    1    6    6    0    0 -0.55087688883E+02 -0.21721890326E+01 -0.76798994832E+02  0.94538127117E+02  0.00000000000E+00 0.  1.
<mgrwt>
<rscale>  2 0.20982366E+03</rscale>
<asrwt>0</asrwt>
<pdfrwt beam="1">  1       21 0.21473889E-01 0.21264938E+03</pdfrwt>
<pdfrwt beam="2">  1       21 0.70818119E-01 0.21264938E+03</pdfrwt>
<totfact> 0.36104891E+04</totfact>
</mgrwt>
</event>
<event>
12    1  0.1071811E-001  0.1828155E+03  0.7546771E-02  0.1166153E+00
         21   -1    0    0  501  502  0.00000000000E+00  0.00000000000E+00  0.34922774328E+03  0.34922774328E+03  0.00000000000E+00 0.  1.
         21   -1    0    0  502  503 -0.00000000000E+00 -0.00000000000E+00 -0.11945773246E+03  0.11945773246E+03  0.00000000000E+00 0.  1.
         -6    2    1    2    0  503  0.41516112273E+02 -0.27904808724E+02  0.65944650735E+01  0.18293438325E+03  0.17583866377E+03 0.  0.
        -24    2    3    3    0    0  0.89500266444E+02 -0.20257834504E+02 -0.25536992219E+02  0.12449231095E+03  0.80159341079E+02 0.  0.
          6    2    1    2  501    0 -0.41516112273E+02  0.27904808724E+02  0.22317554575E+03  0.28575109249E+03  0.17130118713E+03 0.  0.
         24    2    5    5    0    0  0.42682104396E+02  0.19926859534E+02  0.11665759116E+03  0.14965865327E+03  0.81054778749E+02 0.  0.
          5    1    5    5  501    0 -0.84198216668E+02  0.79779491895E+01  0.10651795459E+03  0.13609243922E+03  0.47000000000E+01 0. -1.
        -11    1    6    6    0    0  0.65919841584E+01 -0.25298537937E+02  0.71906653518E+02  0.76511679481E+02  0.00000000000E+00 0.  1.
         12    1    6    6    0    0  0.36090120237E+02  0.45225397471E+02  0.44750937640E+02  0.73146973791E+02  0.00000000000E+00 0. -1.
         -5    1    3    3    0  503 -0.47984154171E+02 -0.76469742200E+01  0.32131457293E+02  0.58442072294E+02  0.47000000000E+01 0.  1.
         13    1    4    4    0    0  0.35288831455E+02  0.31197026276E+02 -0.10069597319E+02  0.48165889010E+02  0.00000000000E+00 0. -1.
        -14    1    4    4    0    0  0.54211434989E+02 -0.51454860780E+02 -0.15467394900E+02  0.76326421942E+02  0.00000000000E+00 0.  1.
<mgrwt>
<rscale>  2 0.18171560E+03</rscale>
<asrwt>0</asrwt>
<pdfrwt beam="1">  1       21 0.53727345E-01 0.18281549E+03</pdfrwt>
<pdfrwt beam="2">  1       21 0.18378113E-01 0.18281549E+03</pdfrwt>
<totfact> 0.88882870E+04</totfact>
</mgrwt>
</event>
<event>
12    1  0.1071811E-001  0.3654680E+03  0.7546771E-02  0.1056515E+00
         21   -1    0    0  503  502  0.00000000000E+00  0.00000000000E+00  0.31778307443E+03  0.31778307443E+03  0.00000000000E+00 0.  1.
         21   -1    0    0  501  503 -0.00000000000E+00 -0.00000000000E+00 -0.45343565771E+03  0.45343565771E+03  0.00000000000E+00 0. -1.
          6    2    1    2  501    0 -0.24220743701E+03  0.21180922067E+03 -0.17350629145E+03  0.40456308883E+03  0.17331840978E+03 0.  0.
         24    2    3    3    0    0 -0.15182367251E+03  0.19407414800E+03 -0.17461629909E+03  0.31232925662E+03  0.79646156062E+02 0.  0.
         -6    2    1    2    0  502  0.24220743701E+03 -0.21180922067E+03  0.37853708175E+02  0.36665564331E+03  0.17168537807E+03 0.  0.
        -24    2    5    5    0    0  0.23207695256E+03 -0.13192145220E+03  0.55456652802E+02  0.28409272230E+03  0.79813865091E+02 0.  0.
          5    1    3    3  501    0 -0.90383764497E+02  0.17735072665E+02  0.11100076388E+01  0.92233832210E+02  0.47000000000E+01 0. -1.
        -11    1    4    4    0    0 -0.70089786605E+01  0.45315320809E+02 -0.89379600199E+01  0.46717140443E+02  0.00000000000E+00 0.  1.
         12    1    4    4    0    0 -0.14481469385E+03  0.14875882719E+03 -0.16567833907E+03  0.26561211618E+03  0.00000000000E+00 0. -1.
         -5    1    5    5    0  502  0.10130484442E+02 -0.79887768469E+02 -0.17602944627E+02  0.82562921009E+02  0.47000000000E+01 0.  1.
         13    1    6    6    0    0  0.13795336463E+03 -0.32797351652E+02  0.32680938048E+02  0.14551577509E+03  0.00000000000E+00 0. -1.
        -14    1    6    6    0    0  0.94123587933E+02 -0.99124100548E+02  0.22775714754E+02  0.13857694721E+03  0.00000000000E+00 0.  1.
<mgrwt>
<rscale>  2 0.36527495E+03</rscale>
<asrwt>0</asrwt>
<pdfrwt beam="1">  1       21 0.48889704E-01 0.36546800E+03</pdfrwt>
<pdfrwt beam="2">  1       21 0.69759332E-01 0.36546800E+03</pdfrwt>
<totfact> 0.67948349E+03</totfact>
</mgrwt>
</event>
<event>
12    1  0.1071811E-001  0.1775884E+03  0.7546771E-02  0.1170873E+00
         21   -1    0    0  503  502  0.00000000000E+00  0.00000000000E+00  0.35628934174E+02  0.35628934174E+02  0.00000000000E+00 0. -1.
         21   -1    0    0  501  503 -0.00000000000E+00 -0.00000000000E+00 -0.89095364789E+03  0.89095364789E+03  0.00000000000E+00 0. -1.
          6    2    1    2  501    0  0.64389614654E+01 -0.11641219677E+02 -0.35469810816E+03  0.39539087689E+03  0.17420166295E+03 0.  0.
         24    2    3    3    0    0  0.36986676822E+02 -0.33496337764E+02 -0.99385947833E+02  0.13728779998E+03  0.80500649002E+02 0.  0.
         -6    2    1    2    0  502 -0.64389614654E+01  0.11641219677E+02 -0.50062660555E+03  0.53119170517E+03  0.17708938770E+03 0.  0.
        -24    2    5    5    0    0  0.48129034096E+02 -0.35739427571E+02 -0.35140569673E+03  0.36532561008E+03  0.79894474629E+02 0.  0.
          5    1    3    3  501    0 -0.30547715357E+02  0.21855118087E+02 -0.25531216033E+03  0.25810307691E+03  0.47000000000E+01 0. -1.
        -13    1    4    4    0    0 -0.42730858044E+01 -0.36976481179E+02 -0.96401804497E+01  0.38450650213E+02  0.00000000000E+00 0.  1.
         14    1    4    4    0    0  0.41259762626E+02  0.34801434155E+01 -0.89745767383E+02  0.98837149764E+02  0.00000000000E+00 0. -1.
         -5    1    5    5    0  502 -0.54567995561E+02  0.47380647248E+02 -0.14922090882E+03  0.16586609510E+03  0.47000000000E+01 0.  1.
         11    1    6    6    0    0 -0.15491211899E+02 -0.12693626715E+02 -0.25268549049E+02  0.32242912032E+02  0.00000000000E+00 0. -1.
        -12    1    6    6    0    0  0.63620245995E+02 -0.23045800856E+02 -0.32613714768E+03  0.33308269805E+03  0.00000000000E+00 0.  1.
<mgrwt>
<rscale>  2 0.17686408E+03</rscale>
<asrwt>0</asrwt>
<pdfrwt beam="1">  1       21 0.54813745E-02 0.17758837E+03</pdfrwt>
<pdfrwt beam="2">  1       21 0.13706979E+00 0.17758837E+03</pdfrwt>
<totfact> 0.87569722E+04</totfact>
</mgrwt>
</event>
<event>
12    1  0.1071811E-001  0.2337460E+03  0.7546771E-02  0.1124205E+00
         21   -1    0    0  501  502  0.00000000000E+00  0.00000000000E+00  0.18649711939E+03  0.18649711939E+03  0.00000000000E+00 0.  1.
         21   -1    0    0  502  503 -0.00000000000E+00 -0.00000000000E+00 -0.35662519984E+03  0.35662519984E+03  0.00000000000E+00 0. -1.
         -6    2    1    2    0  503 -0.59262602454E+02  0.14611599520E+03 -0.20108178884E+03  0.30833600311E+03  0.17255510688E+03 0.  0.
        -24    2    3    3    0    0 -0.34933815210E+02  0.51239187752E+01 -0.52296567778E+02  0.10186618084E+03  0.79969755587E+02 0.  0.
          6    2    1    2  501    0  0.59262602454E+02 -0.14611599520E+03  0.30953708391E+02  0.23478631612E+03  0.17118569470E+03 0.  0.
         24    2    5    5    0    0  0.83525929432E+02 -0.78658387451E+02  0.67436991020E+02  0.15421114754E+03  0.77907685531E+02 0.  0.
          5    1    5    5  501    0 -0.24263326978E+02 -0.67457607750E+02 -0.36483282628E+02  0.80575168574E+02  0.47000000000E+01 0. -1.
        -13    1    6    6    0    0  0.24185797101E+02 -0.70039557965E+02  0.56681496092E+02  0.93291395426E+02  0.00000000000E+00 0.  1.
         14    1    6    6    0    0  0.59340132331E+02 -0.86188294851E+01  0.10755494928E+02  0.60919752116E+02  0.00000000000E+00 0. -1.
         -5    1    3    3    0  503 -0.24328787243E+02  0.14099207643E+03 -0.14878522106E+03  0.20646982227E+03  0.47000000000E+01 0.  1.
         13    1    4    4    0    0 -0.17302289802E+02  0.23207714502E+02 -0.66756910464E+02  0.72762987428E+02  0.00000000000E+00 0. -1.
        -14    1    4    4    0    0 -0.17631525409E+02 -0.18083795727E+02  0.14460342686E+02  0.29103193411E+02  0.00000000000E+00 0.  1.
<mgrwt>
<rscale>  2 0.23349335E+03</rscale>
<asrwt>0</asrwt>
<pdfrwt beam="1">  1       21 0.28691865E-01 0.23374603E+03</pdfrwt>
<pdfrwt beam="2">  1       21 0.54865415E-01 0.23374603E+03</pdfrwt>
<totfact> 0.35695425E+04</totfact>
</mgrwt>
</event>
<event>
12    1  0.1071811E-001  0.2224354E+03  0.7546771E-02  0.1132281E+00
         21   -1    0    0  501  502  0.00000000000E+00  0.00000000000E+00  0.45173069145E+03  0.45173069145E+03  0.00000000000E+00 0.  1.
         21   -1    0    0  502  503 -0.00000000000E+00 -0.00000000000E+00 -0.13684281303E+03  0.13684281303E+03  0.00000000000E+00 0.  1.
         -6    2    1    2    0  503 -0.78092173912E+02 -0.11593410825E+03  0.24989722551E+02  0.22383472124E+03  0.17302713983E+03 0.  0.
        -24    2    3    3    0    0 -0.22672064168E+02 -0.12724238218E+03 -0.17299228984E+02  0.15305540897E+03  0.80137685113E+02 0.  0.
          6    2    1    2  501    0  0.78092173912E+02  0.11593410825E+03  0.28989815587E+03  0.36473878324E+03  0.17162265044E+03 0.  0.
         24    2    5    5    0    0  0.50387205079E+02  0.13856820643E+02  0.20306765214E+03  0.22781192568E+03  0.89055714165E+02 0.  0.
          5    1    5    5  501    0  0.27704968833E+02  0.10207728760E+03  0.86830503732E+02  0.13692685756E+03  0.47000000000E+01 0. -1.
        -13    1    6    6    0    0 -0.82286963445E+00 -0.31828233441E+02  0.90914212542E+02  0.96328124660E+02  0.00000000000E+00 0.  1.
         14    1    6    6    0    0  0.51210074713E+02  0.45685054083E+02  0.11215343960E+03  0.13148380102E+03  0.00000000000E+00 0. -1.
         -5    1    3    3    0  503 -0.55420109744E+02  0.11308273931E+02  0.42288951535E+02  0.70779312268E+02  0.47000000000E+01 0.  1.
         13    1    4    4    0    0  0.80404814105E+01 -0.24682775090E+02  0.26761622413E+02  0.37283684926E+02  0.00000000000E+00 0. -1.
        -14    1    4    4    0    0 -0.30712545578E+02 -0.10255960709E+03 -0.44060851398E+02  0.11577172404E+03  0.00000000000E+00 0.  1.
<mgrwt>
<rscale>  2 0.22216218E+03</rscale>
<asrwt>0</asrwt>
<pdfrwt beam="1">  1       21 0.69497029E-01 0.22243538E+03</pdfrwt>
<pdfrwt beam="2">  1       21 0.21052741E-01 0.22243538E+03</pdfrwt>
<totfact> 0.38884823E+04</totfact>
</mgrwt>
</event>
<event>
12    1  0.1071811E-001  0.1887125E+03  0.7546771E-02  0.1159825E+00
         21   -1    0    0  503  502  0.00000000000E+00  0.00000000000E+00  0.17621655765E+04  0.17621655765E+04  0.00000000000E+00 0. -1.
         21   -1    0    0  501  503 -0.00000000000E+00 -0.00000000000E+00 -0.34242771993E+02  0.34242771993E+02  0.00000000000E+00 0. -1.
          6    2    1    2  501    0 -0.34577112809E+02  0.67574922520E+02  0.28823351786E+03  0.34451555073E+03  0.17277284796E+03 0.  0.
         24    2    3    3    0    0 -0.10767292041E+02  0.96207857562E+02  0.27865158903E+03  0.30577725063E+03  0.80505481207E+02 0.  0.
         -6    2    1    2    0  502  0.34577112809E+02 -0.67574922520E+02  0.14396892867E+04  0.14518927978E+04  0.17182987874E+03 0.  0.
        -24    2    5    5    0    0  0.80120207594E+02 -0.16536459052E+02  0.10376918338E+04  0.10440899774E+04  0.81405385201E+02 0.  0.
          5    1    3    3  501    0 -0.23809820768E+02 -0.28632935042E+02  0.95819288342E+01  0.38738300096E+02  0.47000000000E+01 0. -1.
        -11    1    4    4    0    0  0.19508792698E+02 -0.10456330661E+01  0.82200693630E+02  0.84490475050E+02  0.00000000000E+00 0.  1.
         12    1    4    4    0    0 -0.30276084739E+02  0.97253490628E+02  0.19645089540E+03  0.22128677558E+03  0.00000000000E+00 0. -1.
         -5    1    5    5    0  502 -0.45543094785E+02 -0.51038463468E+02  0.40199745283E+03  0.40780282038E+03  0.47000000000E+01 0.  1.
         11    1    6    6    0    0  0.80530980644E+02 -0.75713442218E+01  0.51434908868E+03  0.52067028830E+03  0.00000000000E+00 0. -1.
        -12    1    6    6    0    0 -0.41077305016E+00 -0.89651148305E+01  0.52334274515E+03  0.52341968908E+03  0.00000000000E+00 0.  1.
<mgrwt>
<rscale>  2 0.18849638E+03</rscale>
<asrwt>0</asrwt>
<pdfrwt beam="1">  1       21 0.27110233E+00 0.18871249E+03</pdfrwt>
<pdfrwt beam="2">  1       21 0.52681201E-02 0.18871249E+03</pdfrwt>
<totfact> 0.12379137E+04</totfact>
</mgrwt>
</event>
<event>
12    1  0.1071811E-001  0.2329152E+03  0.7546771E-02  0.1125696E+00
         21   -1    0    0  503  502  0.00000000000E+00  0.00000000000E+00  0.11715045770E+04  0.11715045770E+04  0.00000000000E+00 0.  1.
         21   -1    0    0  501  503 -0.00000000000E+00 -0.00000000000E+00 -0.54400969526E+02  0.54400969526E+02  0.00000000000E+00 0.  1.
          6    2    1    2  501    0  0.11356717048E+03  0.93342566493E+02  0.29860059861E+03  0.37490808331E+03  0.17257872556E+03 0.  0.
         24    2    3    3    0    0  0.14121591757E+03  0.49568559530E+02  0.25848542982E+03  0.30924276775E+03  0.80108641909E+02 0.  0.
         -6    2    1    2    0  502 -0.11356717048E+03 -0.93342566493E+02  0.81850300883E+03  0.85099746317E+03  0.18066313940E+03 0.  0.
        -24    2    5    5    0    0 -0.99462959799E+02 -0.47332567841E+02  0.76810490705E+03  0.78115544575E+03  0.89919018256E+02 0.  0.
          5    1    3    3  501    0 -0.27648747088E+02  0.43774006964E+02  0.40115168788E+02  0.65665315564E+02  0.47000000000E+01 0. -1.
        -11    1    4    4    0    0  0.14284318852E+03  0.27916464008E+02  0.20407050336E+03  0.25065569176E+03  0.00000000000E+00 0.  1.
         12    1    4    4    0    0 -0.16272709583E+01  0.21652095522E+02  0.54414926464E+02  0.58587075993E+02  0.00000000000E+00 0. -1.
         -5    1    5    5    0  502 -0.14104210679E+02 -0.46009998652E+02  0.50398101779E+02  0.69842017423E+02  0.47000000000E+01 0.  1.
         13    1    6    6    0    0 -0.67801567060E+02  0.15060401214E+02  0.45943659430E+03  0.46465670377E+03  0.00000000000E+00 0. -1.
        -14    1    6    6    0    0 -0.31661392739E+02 -0.62392969056E+02  0.30866831275E+03  0.31649874198E+03  0.00000000000E+00 0.  1.
<mgrwt>
<rscale>  2 0.23134612E+03</rscale>
<asrwt>0</asrwt>
<pdfrwt beam="1">  1       21 0.18023145E+00 0.23291524E+03</pdfrwt>
<pdfrwt beam="2">  1       21 0.83693808E-02 0.23291524E+03</pdfrwt>
<totfact> 0.19564224E+04</totfact>
</mgrwt>
</event>
<event>
12    1  0.1071811E-001  0.1849075E+03  0.7546771E-02  0.1163535E+00
         21   -1    0    0  501  502  0.00000000000E+00  0.00000000000E+00  0.48384693990E+03  0.48384693990E+03  0.00000000000E+00 0. -1.
         21   -1    0    0  502  503 -0.00000000000E+00 -0.00000000000E+00 -0.85201514291E+02  0.85201514291E+02  0.00000000000E+00 0. -1.
         -6    2    1    2    0  503  0.61378484427E+02 -0.21610726013E+02  0.78451217102E+02  0.19929837737E+03  0.17126268692E+03 0.  0.
        -24    2    3    3    0    0  0.36788848948E+02  0.36248473292E+02 -0.41140113071E+01  0.95416501863E+02  0.80124980598E+02 0.  0.
          6    2    1    2  501    0 -0.61378484427E+02  0.21610726013E+02  0.32019420851E+03  0.36975007682E+03  0.17307930643E+03 0.  0.
         24    2    5    5    0    0 -0.27669166848E+02 -0.29219396820E+02  0.75874403313E+02  0.11788845471E+03  0.80755227273E+02 0.  0.
          5    1    5    5  501    0 -0.33709317578E+02  0.50830122833E+02  0.24431980520E+03  0.25186162211E+03  0.47000000000E+01 0. -1.
        -13    1    6    6    0    0  0.15860605769E+02 -0.38483803376E+02  0.19228632854E+02  0.45850869775E+02  0.00000000000E+00 0.  1.
         14    1    6    6    0    0 -0.43529772617E+02  0.92644065558E+01  0.56645770458E+02  0.72037584938E+02  0.00000000000E+00 0. -1.
         -5    1    3    3    0  503  0.24589635479E+02 -0.57859199305E+02  0.82565228409E+02  0.10388187551E+03  0.47000000000E+01 0.  1.
         13    1    4    4    0    0 -0.13796150771E+02  0.10178920172E+02 -0.28695265269E+02  0.33426971757E+02  0.00000000000E+00 0. -1.
        -14    1    4    4    0    0  0.50584999718E+02  0.26069553120E+02  0.24581253962E+02  0.61989530106E+02  0.00000000000E+00 0.  1.
<mgrwt>
<rscale>  2 0.18448122E+03</rscale>
<asrwt>0</asrwt>
<pdfrwt beam="1">  1       21 0.74437989E-01 0.18490751E+03</pdfrwt>
<pdfrwt beam="2">  1       21 0.13107926E-01 0.18490751E+03</pdfrwt>
<totfact> 0.81231007E+04</totfact>
</mgrwt>
</event>
<event>
12    1  0.1071811E-001  0.2643690E+03  0.7546771E-02  0.1105854E+00
         21   -1    0    0  503  502  0.00000000000E+00  0.00000000000E+00  0.23496532844E+03  0.23496532844E+03  0.00000000000E+00 0. -1.
         21   -1    0    0  501  503 -0.00000000000E+00 -0.00000000000E+00 -0.31352512135E+03  0.31352512135E+03  0.00000000000E+00 0.  1.
          6    2    1    2  501    0 -0.11084371833E+03  0.15191424278E+03 -0.11858295706E+03  0.28974625537E+03  0.18581363714E+03 0.  0.
         24    2    3    3    0    0 -0.22369242882E+02 -0.19779286644E+02 -0.54682324431E+02  0.86247405988E+02  0.59639376482E+02 0.  0.
         -6    2    1    2    0  502  0.11084371833E+03 -0.15191424278E+03  0.40023164143E+02  0.25874419441E+03  0.17315437454E+03 0.  0.
        -24    2    5    5    0    0  0.30242849679E+02 -0.35005049469E+02  0.72264060389E+02  0.11305334056E+03  0.73613721151E+02 0.  0.
          5    1    3    3  501    0 -0.88474475447E+02  0.17169352942E+03 -0.63900632626E+02  0.20349884938E+03  0.47000000000E+01 0. -1.
        -13    1    4    4    0    0 -0.36431956778E+02 -0.12449881933E+02 -0.11402097207E+02  0.40153391582E+02  0.00000000000E+00 0.  1.
         14    1    4    4    0    0  0.14062713895E+02 -0.73294047115E+01 -0.43280227224E+02  0.46094014407E+02  0.00000000000E+00 0. -1.
         -5    1    5    5    0  502  0.80600868651E+02 -0.11690919331E+03 -0.32240896247E+02  0.14569085386E+03  0.47000000000E+01 0.  1.
         13    1    6    6    0    0 -0.50762690122E+01 -0.47394583952E+02  0.28785293064E+02  0.55683105085E+02  0.00000000000E+00 0. -1.
        -14    1    6    6    0    0  0.35319118691E+02  0.12389534484E+02  0.43478767326E+02  0.57370235471E+02  0.00000000000E+00 0.  1.
<mgrwt>
<rscale>  2 0.26215665E+03</rscale>
<asrwt>0</asrwt>
<pdfrwt beam="1">  1       21 0.36148512E-01 0.26436901E+03</pdfrwt>
<pdfrwt beam="2">  1       21 0.48234634E-01 0.26436901E+03</pdfrwt>
<totfact> 0.29261143E+04</totfact>
</mgrwt>
</event>
<event>
12    1  0.1071811E-001  0.2052668E+03  0.7546771E-02  0.1146281E+00
         21   -1    0    0  503  502  0.00000000000E+00  0.00000000000E+00  0.90674594559E+02  0.90674594559E+02  0.00000000000E+00 0.  1.
         21   -1    0    0  501  503 -0.00000000000E+00 -0.00000000000E+00 -0.74985611741E+03  0.74985611741E+03  0.00000000000E+00 0. -1.
          6    2    1    2  501    0 -0.93030901101E+02  0.60547284962E+02 -0.59106201512E+03  0.62425604354E+03  0.16739348823E+03 0.  0.
         24    2    3    3    0    0 -0.18122969421E+02  0.64739124100E+02 -0.19633300575E+03  0.22243288519E+03  0.80063369022E+02 0.  0.
         -6    2    1    2    0  502  0.93030901101E+02 -0.60547284962E+02 -0.68119507726E+02  0.21627466843E+03  0.17266656478E+03 0.  0.
        -24    2    5    5    0    0  0.56572252886E+01 -0.58104764186E+02  0.88863524102E+01  0.99689430818E+02  0.80317168392E+02 0.  0.
          5    1    3    3  501    0 -0.74907931679E+02 -0.41918391380E+01 -0.39472900937E+03  0.40182315835E+03  0.47000000000E+01 0. -1.
        -11    1    4    4    0    0  0.31107513241E+02  0.21402477870E+02 -0.88525228704E+02  0.96241672659E+02  0.00000000000E+00 0.  1.
         12    1    4    4    0    0 -0.49230482663E+02  0.43336646230E+02 -0.10780777705E+03  0.12619121254E+03  0.00000000000E+00 0. -1.
         -5    1    5    5    0  502  0.87373675812E+02 -0.24425207767E+01 -0.77005860136E+02  0.11658523761E+03  0.47000000000E+01 0.  1.
         13    1    6    6    0    0  0.74198640957E+01 -0.18376183464E+02 -0.35151551409E+02  0.40353067645E+02  0.00000000000E+00 0. -1.
        -14    1    6    6    0    0 -0.17626388071E+01 -0.39728580722E+02  0.44037903820E+02  0.59336363173E+02  0.00000000000E+00 0.  1.
<mgrwt>
<rscale>  2 0.20415395E+03</rscale>
<asrwt>0</asrwt>
<pdfrwt beam="1">  1       21 0.13949937E-01 0.20526681E+03</pdfrwt>
<pdfrwt beam="2">  1       21 0.11536248E+00 0.20526681E+03</pdfrwt>
<totfact> 0.25839624E+04</totfact>
</mgrwt>
</event>
<event>
12    1  0.1071811E-001  0.1790501E+03  0.7546771E-02  0.1169367E+00
         21   -1    0    0  501  502  0.00000000000E+00  0.00000000000E+00  0.18057067065E+03  0.18057067065E+03  0.00000000000E+00 0.  1.
         21   -1    0    0  502  503 -0.00000000000E+00 -0.00000000000E+00 -0.19488335113E+03  0.19488335113E+03  0.00000000000E+00 0.  1.
         -6    2    1    2    0  503 -0.48018372655E+02  0.37533809916E+01 -0.67129434845E+02  0.18877632040E+03  0.16973593061E+03 0.  0.
        -24    2    3    3    0    0  0.14970518340E+01 -0.12494469810E+02  0.22955323208E+02  0.84597994668E+02  0.80445763706E+02 0.  0.
          6    2    1    2  501    0  0.48018372655E+02 -0.37533809916E+01  0.52816754369E+02  0.18667770138E+03  0.17245029043E+03 0.  0.
         24    2    5    5    0    0  0.84804070514E+02  0.18262230712E+02  0.73662654873E+02  0.13877659186E+03  0.79419873327E+02 0.  0.
          5    1    5    5  501    0 -0.36785697858E+02 -0.22015611703E+02 -0.20845900505E+02  0.47901109522E+02  0.47000000000E+01 0. -1.
        -13    1    6    6    0    0  0.94998902039E+02  0.23090255400E+02  0.44322307451E+02  0.10734252755E+03  0.00000000000E+00 0.  1.
         14    1    6    6    0    0 -0.10194831525E+02 -0.48280246881E+01  0.29340347422E+02  0.31434064311E+02  0.00000000000E+00 0. -1.
         -5    1    3    3    0  503 -0.49515424490E+02  0.16247850801E+02 -0.90084758054E+02  0.10417832573E+03  0.47000000000E+01 0.  1.
         11    1    4    4    0    0  0.90862200339E+01  0.32173522122E+02 -0.79689816248E+00  0.33441440862E+02  0.00000000000E+00 0. -1.
        -12    1    4    4    0    0 -0.75891681999E+01 -0.44667991932E+02  0.23752221371E+02  0.51156553806E+02  0.00000000000E+00 0.  1.
<mgrwt>
<rscale>  2 0.17839334E+03</rscale>
<asrwt>0</asrwt>
<pdfrwt beam="1">  1       21 0.27780103E-01 0.17905015E+03</pdfrwt>
<pdfrwt beam="2">  1       21 0.29982054E-01 0.17905015E+03</pdfrwt>
<totfact> 0.13258518E+05</totfact>
</mgrwt>
</event>
<event>
12    1  0.1071811E-001  0.3085626E+03  0.7546771E-02  0.1082556E+00
         21   -1    0    0  503  502  0.00000000000E+00  0.00000000000E+00  0.14492278573E+04  0.14492278573E+04  0.00000000000E+00 0. -1.
         21   -1    0    0  501  503 -0.00000000000E+00 -0.00000000000E+00 -0.10318678801E+03  0.10318678801E+03  0.00000000000E+00 0.  1.
          6    2    1    2  501    0 -0.14912387511E+03  0.19371699501E+03  0.19766101611E+03  0.36644340735E+03  0.18827291152E+03 0.  0.
         24    2    3    3    0    0 -0.17831006873E+03  0.13416772644E+03  0.18443746920E+03  0.29865770474E+03  0.73374281080E+02 0.  0.
         -6    2    1    2    0  502  0.14912387511E+03 -0.19371699501E+03  0.11483800532E+04  0.11859712380E+04  0.16729263716E+03 0.  0.
        -24    2    5    5    0    0  0.14912834466E+02 -0.37512497575E+02  0.29348020694E+03  0.30660312076E+03  0.79026968109E+02 0.  0.
          5    1    3    3  501    0  0.29186193615E+02  0.59549268575E+02  0.13223546909E+02  0.67785702611E+02  0.47000000000E+01 0. -1.
        -13    1    4    4    0    0 -0.82653487121E+02  0.73171540601E+02  0.45786950870E+02  0.11950781630E+03  0.00000000000E+00 0.  1.
         14    1    4    4    0    0 -0.95656581607E+02  0.60996185834E+02  0.13865051833E+03  0.17914988843E+03  0.00000000000E+00 0. -1.
         -5    1    5    5    0  502  0.13421104065E+03 -0.15620449744E+03  0.85489984624E+03  0.87936811721E+03  0.47000000000E+01 0.  1.
         11    1    6    6    0    0  0.16232658558E+02 -0.51965033022E+01  0.25812052262E+03  0.25868263770E+03  0.00000000000E+00 0. -1.
        -12    1    6    6    0    0 -0.13198240920E+01 -0.32315994273E+02  0.35359684321E+02  0.47920483061E+02  0.00000000000E+00 0.  1.
<mgrwt>
<rscale>  2 0.30543164E+03</rscale>
<asrwt>0</asrwt>
<pdfrwt beam="1">  1       21 0.22295812E+00 0.30856262E+03</pdfrwt>
<pdfrwt beam="2">  1       21 0.15874892E-01 0.30856262E+03</pdfrwt>
<totfact> 0.31058542E+03</totfact>
</mgrwt>
</event>
<event>
12    1  0.1071811E-001  0.2150326E+03  0.7546771E-02  0.1138131E+00
         21   -1    0    0  501  502  0.00000000000E+00  0.00000000000E+00  0.45845866710E+03  0.45845866710E+03  0.00000000000E+00 0. -1.
         21   -1    0    0  502  503 -0.00000000000E+00 -0.00000000000E+00 -0.48983855057E+03  0.48983855057E+03  0.00000000000E+00 0. -1.
         -6    2    1    2    0  503 -0.11620542919E+02  0.12460039191E+03 -0.43887523714E+03  0.48872333789E+03  0.17486775730E+03 0.  0.
        -24    2    3    3    0    0 -0.54690199283E+02  0.96523679088E+02 -0.18886113136E+03  0.23343440317E+03  0.80717130289E+02 0.  0.
          6    2    1    2  501    0  0.11620542919E+02 -0.12460039191E+03  0.40749535367E+03  0.45957387978E+03  0.17174222843E+03 0.  0.
         24    2    5    5    0    0  0.44092751974E+02 -0.26580065276E+02  0.12028570875E+03  0.15432988077E+03  0.81843690789E+02 0.  0.
          5    1    5    5  501    0 -0.32472209055E+02 -0.98020326633E+02  0.28720964492E+03  0.30524399900E+03  0.47000000000E+01 0. -1.
        -11    1    6    6    0    0  0.68473141333E+02 -0.20723843444E+02  0.91707898842E+02  0.11631159650E+03  0.00000000000E+00 0.  1.
         12    1    6    6    0    0 -0.24380389358E+02 -0.58562218324E+01  0.28577809913E+02  0.38018284270E+02  0.00000000000E+00 0. -1.
         -5    1    3    3    0  503  0.43069656363E+02  0.28076712821E+02 -0.25001410578E+03  0.25528893472E+03  0.47000000000E+01 0.  1.
         11    1    4    4    0    0 -0.55012957832E+02  0.25449714930E+02 -0.12016446853E+03  0.13458682334E+03  0.00000000000E+00 0. -1.
        -12    1    4    4    0    0  0.32275854927E+00  0.71073964158E+02 -0.68696662829E+02  0.98847579829E+02  0.00000000000E+00 0.  1.
<mgrwt>
<rscale>  2 0.21439631E+03</rscale>
<asrwt>0</asrwt>
<pdfrwt beam="1">  1       21 0.70532103E-01 0.21503262E+03</pdfrwt>
<pdfrwt beam="2">  1       21 0.75359776E-01 0.21503262E+03</pdfrwt>
<totfact> 0.28133896E+03</totfact>
</mgrwt>
</event>
<event>
12    1  0.1071811E-001  0.2499552E+03  0.7546771E-02  0.1113733E+00
         21   -1    0    0  501  502  0.00000000000E+00  0.00000000000E+00  0.39868834988E+03  0.39868834988E+03  0.00000000000E+00 0.  1.
         21   -1    0    0  502  503 -0.00000000000E+00 -0.00000000000E+00 -0.20842750713E+03  0.20842750713E+03  0.00000000000E+00 0.  1.
         -6    2    1    2    0  503 -0.17182427444E+03 -0.54900524256E+02 -0.58009229690E+02  0.25659826551E+03  0.17303164531E+03 0.  0.
        -24    2    3    3    0    0 -0.14865926655E+03 -0.96759040382E+02 -0.21268390376E+02  0.19609428021E+03  0.80862431791E+02 0.  0.
          6    2    1    2  501    0  0.17182427444E+03  0.54900524256E+02  0.24827007244E+03  0.35051759150E+03  0.16937208811E+03 0.  0.
         24    2    5    5    0    0  0.18088903052E+03  0.39101678452E+02  0.15044970388E+03  0.25090490236E+03  0.77899769008E+02 0.  0.
          5    1    5    5  501    0 -0.90647560793E+01  0.15798845804E+02  0.97820368561E+02  0.99612689136E+02  0.47000000000E+01 0. -1.
        -11    1    6    6    0    0  0.11489996536E+03  0.13836655771E+02  0.13636535780E+03  0.17885459427E+03  0.00000000000E+00 0.  1.
         12    1    6    6    0    0  0.65989065160E+02  0.25265022681E+02  0.14084346077E+02  0.72050308092E+02  0.00000000000E+00 0. -1.
         -5    1    3    3    0  503 -0.23165007891E+02  0.41858516126E+02 -0.36740839314E+02  0.60503985293E+02  0.47000000000E+01 0.  1.
         11    1    4    4    0    0 -0.31573205214E+01 -0.36368237530E+02  0.32970200240E+01  0.36653618034E+02  0.00000000000E+00 0. -1.
        -12    1    4    4    0    0 -0.14550194603E+03 -0.60390802852E+02 -0.24565410400E+02  0.15944066218E+03  0.00000000000E+00 0.  1.
<mgrwt>
<rscale>  2 0.24932299E+03</rscale>
<asrwt>0</asrwt>
<pdfrwt beam="1">  1       21 0.61336669E-01 0.24995519E+03</pdfrwt>
<pdfrwt beam="2">  1       21 0.32065770E-01 0.24995519E+03</pdfrwt>
<totfact> 0.22420404E+04</totfact>
</mgrwt>
</event>
<event>
12    1  0.1071811E-001  0.1738083E+03  0.7546771E-02  0.1174848E+00
         21   -1    0    0  503  502  0.00000000000E+00  0.00000000000E+00  0.80822484903E+02  0.80822484903E+02  0.00000000000E+00 0. -1.
         21   -1    0    0  501  503 -0.00000000000E+00 -0.00000000000E+00 -0.43214922023E+03  0.43214922023E+03  0.00000000000E+00 0. -1.
          6    2    1    2  501    0  0.42854674994E+01 -0.16353760909E+02 -0.27435759157E+03  0.32288336650E+03  0.16939825733E+03 0.  0.
         24    2    3    3    0    0 -0.11513818226E+02 -0.64387518016E+02 -0.24001009801E+03  0.26157513244E+03  0.80860263877E+02 0.  0.
         -6    2    1    2    0  502 -0.42854674994E+01  0.16353760909E+02 -0.76969143763E+02  0.19008833863E+03  0.17298415148E+03 0.  0.
        -24    2    5    5    0    0 -0.57009437133E+02  0.39270708469E+02 -0.19858250229E+02  0.10891723774E+03  0.81708935306E+02 0.  0.
          5    1    3    3  501    0  0.15799285725E+02  0.48033757107E+02 -0.34347493552E+02  0.61308234068E+02  0.47000000000E+01 0. -1.
        -11    1    4    4    0    0  0.64998158184E+01 -0.77477976832E+02 -0.21190093618E+03  0.22571462348E+03  0.00000000000E+00 0.  1.
         12    1    4    4    0    0 -0.18013634044E+02  0.13090458816E+02 -0.28109161834E+02  0.35860508955E+02  0.00000000000E+00 0. -1.
         -5    1    5    5    0  502  0.52723969633E+02 -0.22916947560E+02 -0.57110893534E+02  0.81171100890E+02  0.47000000000E+01 0.  1.
         11    1    6    6    0    0 -0.16831430176E+02  0.40930210702E+02  0.23228048144E+02  0.49981210574E+02  0.00000000000E+00 0. -1.
        -12    1    6    6    0    0 -0.40178006956E+02 -0.16595022324E+01 -0.43086298372E+02  0.58936027166E+02  0.00000000000E+00 0.  1.
<mgrwt>
<rscale>  2 0.17290922E+03</rscale>
<asrwt>0</asrwt>
<pdfrwt beam="1">  1       21 0.12434229E-01 0.17380831E+03</pdfrwt>
<pdfrwt beam="2">  1       21 0.66484494E-01 0.17380831E+03</pdfrwt>
<totfact> 0.11504497E+05</totfact>
</mgrwt>
</event>
<event>
12    1  0.1071811E-001  0.1839535E+03  0.7546771E-02  0.1164232E+00
         21   -1    0    0  503  502  0.00000000000E+00  0.00000000000E+00  0.73418202428E+02  0.73418202428E+02  0.00000000000E+00 0.  1.
         21   -1    0    0  501  503 -0.00000000000E+00 -0.00000000000E+00 -0.67312316974E+03  0.67312316974E+03  0.00000000000E+00 0.  1.
          6    2    1    2  501    0 -0.59927952953E+02  0.40906953486E+01 -0.51001661189E+03  0.54188826884E+03  0.17296779517E+03 0.  0.
         24    2    3    3    0    0 -0.47105547278E+02 -0.49223024057E+02 -0.44146342280E+03  0.45397696980E+03  0.81014176255E+02 0.  0.
         -6    2    1    2    0  502  0.59927952953E+02 -0.40906953486E+01 -0.89688355422E+02  0.20465310333E+03  0.17387006146E+03 0.  0.
        -24    2    5    5    0    0  0.63539785755E+01 -0.63497601735E+02 -0.41795582618E+02  0.11129808770E+03  0.81043661871E+02 0.  0.
          5    1    3    3  501    0 -0.12822405675E+02  0.53313719406E+02 -0.68553189087E+02  0.87911299036E+02  0.47000000000E+01 0. -1.
        -13    1    4    4    0    0 -0.51882330133E+02 -0.52959373214E+02 -0.21483777036E+03  0.22727018934E+03  0.00000000000E+00 0.  1.
         14    1    4    4    0    0  0.47767828552E+01  0.37363491566E+01 -0.22662565244E+03  0.22670678046E+03  0.00000000000E+00 0. -1.
         -5    1    5    5    0  502  0.53573974378E+02  0.59406906386E+02 -0.47892772804E+02  0.93355015633E+02  0.47000000000E+01 0.  1.
         13    1    6    6    0    0  0.30957882762E+02 -0.54750635229E+02 -0.53603527206E+02  0.82639946104E+02  0.00000000000E+00 0. -1.
        -14    1    6    6    0    0 -0.24603904187E+02 -0.87469665054E+01  0.11807944589E+02  0.28658141595E+02  0.00000000000E+00 0.  1.
<mgrwt>
<rscale>  2 0.18373999E+03</rscale>
<asrwt>0</asrwt>
<pdfrwt beam="1">  1       21 0.11295108E-01 0.18395350E+03</pdfrwt>
<pdfrwt beam="2">  1       21 0.10355741E+00 0.18395350E+03</pdfrwt>
<totfact> 0.49593659E+04</totfact>
</mgrwt>
</event>
<event>
12    1  0.1071811E-001  0.2162747E+03  0.7546771E-02  0.1136865E+00
         21   -1    0    0  501  502  0.00000000000E+00  0.00000000000E+00  0.13473398863E+03  0.13473398863E+03  0.00000000000E+00 0. -1.
         21   -1    0    0  502  503 -0.00000000000E+00 -0.00000000000E+00 -0.34579561696E+03  0.34579561696E+03  0.00000000000E+00 0. -1.
         -6    2    1    2    0  503  0.89676402563E+02 -0.92212922097E+02 -0.10184640608E+03  0.23905530085E+03  0.17386680607E+03 0.  0.
        -24    2    3    3    0    0  0.29164168642E+02 -0.91371692172E+01  0.93240888493E+01  0.87581606388E+02  0.81544849934E+02 0.  0.
          6    2    1    2  501    0 -0.89676402563E+02  0.92212922097E+02 -0.10921522225E+03  0.24147430473E+03  0.17273330570E+03 0.  0.
         24    2    5    5    0    0 -0.40153647867E+02 -0.16311376085E+02 -0.64179773878E+02  0.11387999397E+03  0.83493911308E+02 0.  0.
          5    1    5    5  501    0 -0.49522754696E+02  0.10852429818E+03 -0.45035448372E+02  0.12759431076E+03  0.47000000000E+01 0. -1.
        -11    1    6    6    0    0 -0.65154580179E+02 -0.62464056209E+01 -0.54731257185E+02  0.85320849823E+02  0.00000000000E+00 0.  1.
         12    1    6    6    0    0  0.25000932312E+02 -0.10064970464E+02 -0.94485166928E+01  0.28559144150E+02  0.00000000000E+00 0. -1.
         -5    1    3    3    0  503  0.60512233921E+02 -0.83075752880E+02 -0.11117049493E+03  0.15147369446E+03  0.47000000000E+01 0.  1.
         11    1    4    4    0    0  0.44132600982E+02 -0.27773823377E+02  0.26165243387E+02  0.58341166392E+02  0.00000000000E+00 0. -1.
        -12    1    4    4    0    0 -0.14968432340E+02  0.18636654160E+02 -0.16841154538E+02  0.29240439996E+02  0.00000000000E+00 0.  1.
<mgrwt>
<rscale>  2 0.21604680E+03</rscale>
<asrwt>0</asrwt>
<pdfrwt beam="1">  1       21 0.20728306E-01 0.21627470E+03</pdfrwt>
<pdfrwt beam="2">  1       21 0.53199325E-01 0.21627470E+03</pdfrwt>
<totfact> 0.71497497E+04</totfact>
</mgrwt>
</event>
<event>
12    1  0.1071811E-001  0.2002612E+03  0.7546771E-02  0.1149610E+00
         21   -1    0    0  501  502  0.00000000000E+00  0.00000000000E+00  0.18303497431E+04  0.18303497431E+04  0.00000000000E+00 0. -1.
         21   -1    0    0  502  503 -0.00000000000E+00 -0.00000000000E+00 -0.21925595207E+02  0.21925595207E+02  0.00000000000E+00 0.  1.
         -6    2    1    2    0  503 -0.85511336912E+02 -0.50732715118E+02  0.95439204502E+03  0.97517625918E+03  0.17383487497E+03 0.  0.
        -24    2    3    3    0    0 -0.86268254846E+02 -0.55453919593E+01  0.38511732613E+03  0.40409109682E+03  0.86610025295E+02 0.  0.
          6    2    1    2  501    0  0.85511336912E+02  0.50732715118E+02  0.85403210287E+03  0.87709907912E+03  0.17333771874E+03 0.  0.
         24    2    5    5    0    0  0.28845004628E+02 -0.22460583188E+02  0.23085650219E+03  0.24706872159E+03  0.80073194601E+02 0.  0.
          5    1    5    5  501    0  0.56666332284E+02  0.73193298306E+02  0.62317560068E+03  0.63003035753E+03  0.47000000000E+01 0. -1.
        -13    1    6    6    0    0  0.41518497823E+02  0.13399525396E+02  0.76211104056E+02  0.87814949318E+02  0.00000000000E+00 0.  1.
         14    1    6    6    0    0 -0.12673493195E+02 -0.35860108584E+02  0.15464539814E+03  0.15925377227E+03  0.00000000000E+00 0. -1.
         -5    1    3    3    0  503  0.75691793386E+00 -0.45187323159E+02  0.56927471889E+03  0.57108516236E+03  0.47000000000E+01 0.  1.
         13    1    4    4    0    0 -0.69294342874E+02 -0.16695780288E+02  0.37440687374E+03  0.38113116133E+03  0.00000000000E+00 0. -1.
        -14    1    4    4    0    0 -0.16973911973E+02  0.11150388329E+02  0.10710452391E+02  0.22959935496E+02  0.00000000000E+00 0.  1.
<mgrwt>
<rscale>  2 0.20015329E+03</rscale>
<asrwt>0</asrwt>
<pdfrwt beam="1">  1       21 0.28159215E+00 0.20026123E+03</pdfrwt>
<pdfrwt beam="2">  1       21 0.33731699E-02 0.20026123E+03</pdfrwt>
<totfact> 0.22535353E+04</totfact>
</mgrwt>
</event>
<event>
12    1  0.1071811E-001  0.2274659E+03  0.7546771E-02  0.1128526E+00
         21   -1    0    0  501  502  0.00000000000E+00  0.00000000000E+00  0.10367230073E+03  0.10367230073E+03  0.00000000000E+00 0. -1.
         21   -1    0    0  502  503 -0.00000000000E+00 -0.00000000000E+00 -0.51731625151E+03  0.51731625151E+03  0.00000000000E+00 0. -1.
         -6    2    1    2    0  503 -0.13778504026E+03 -0.51479838970E+02 -0.14656020321E+03  0.27016887528E+03  0.17284801667E+03 0.  0.
        -24    2    3    3    0    0 -0.11351521556E+03 -0.37787156344E+02 -0.17664211245E+03  0.22889509169E+03  0.82927400528E+02 0.  0.
          6    2    1    2  501    0  0.13778504026E+03  0.51479838970E+02 -0.26708374757E+03  0.35081967697E+03  0.17351030629E+03 0.  0.
         24    2    5    5    0    0  0.13174973594E+03  0.62929542685E+02 -0.12361391783E+03  0.20669055895E+03  0.78246189777E+02 0.  0.
          5    1    5    5  501    0  0.60353043160E+01 -0.11449703715E+02 -0.14346982974E+03  0.14412911802E+03  0.47000000000E+01 0. -1.
        -11    1    6    6    0    0  0.81850247360E+01 -0.16686038791E+02 -0.11969384229E+02  0.22106213590E+02  0.00000000000E+00 0.  1.
         12    1    6    6    0    0  0.12356471121E+03  0.79615581476E+02 -0.11164453360E+03  0.18458434536E+03  0.00000000000E+00 0. -1.
         -5    1    3    3    0  503 -0.24269824699E+02 -0.13692682626E+02  0.30081909243E+02  0.41273783594E+02  0.47000000000E+01 0.  1.
         13    1    4    4    0    0 -0.61408074119E+02  0.13983902887E+01 -0.29886210955E+02  0.68308803734E+02  0.00000000000E+00 0. -1.
        -14    1    4    4    0    0 -0.52107141441E+02 -0.39185546633E+02 -0.14675590150E+03  0.16058628795E+03  0.00000000000E+00 0.  1.
<mgrwt>
<rscale>  2 0.22733956E+03</rscale>
<asrwt>0</asrwt>
<pdfrwt beam="1">  1       21 0.15949584E-01 0.22746586E+03</pdfrwt>
<pdfrwt beam="2">  1       21 0.79587117E-01 0.22746586E+03</pdfrwt>
<totfact> 0.47988370E+04</totfact>
</mgrwt>
</event>
<event>
12    1  0.1071811E-001  0.1804263E+03  0.7546771E-02  0.1168092E+00
         21   -1    0    0  501  502  0.00000000000E+00  0.00000000000E+00  0.32839868348E+02  0.32839868348E+02  0.00000000000E+00 0.  1.
         21   -1    0    0  502  503 -0.00000000000E+00 -0.00000000000E+00 -0.10121889534E+04  0.10121889534E+04  0.00000000000E+00 0. -1.
         -6    2    1    2    0  503  0.41815538148E+01 -0.45898923432E+02 -0.38642212632E+03  0.42525786949E+03  0.17145844769E+03 0.  0.
        -24    2    3    3    0    0  0.45006381375E+02 -0.71073478491E+02 -0.33597086127E+03  0.35548792672E+03  0.80113873413E+02 0.  0.
          6    2    1    2  501    0 -0.41815538148E+01  0.45898923432E+02 -0.59292695875E+03  0.61977095228E+03  0.17444041480E+03 0.  0.
         24    2    5    5    0    0 -0.20748465581E+02 -0.30724840764E+02 -0.19708122860E+03  0.21620980960E+03  0.80815570509E+02 0.  0.
          5    1    5    5  501    0  0.16566911766E+02  0.76623764196E+02 -0.39584573015E+03  0.40356114268E+03  0.47000000000E+01 0. -1.
        -13    1    6    6    0    0  0.22633992841E+02 -0.78172687910E+01 -0.16492470962E+02  0.29075916524E+02  0.00000000000E+00 0.  1.
         14    1    6    6    0    0 -0.43382458422E+02 -0.22907571973E+02 -0.18058875764E+03  0.18713389307E+03  0.00000000000E+00 0. -1.
         -5    1    3    3    0  503 -0.40824827561E+02  0.25174555059E+02 -0.50451265050E+02  0.69769942762E+02  0.47000000000E+01 0.  1.
         11    1    4    4    0    0 -0.50039113911E+01 -0.56519736724E+00 -0.15344067868E+03  0.15352328960E+03  0.00000000000E+00 0. -1.
        -12    1    4    4    0    0  0.50010292767E+02 -0.70508281124E+02 -0.18253018259E+03  0.20196463712E+03  0.00000000000E+00 0.  1.
<mgrwt>
<rscale>  2 0.17970161E+03</rscale>
<asrwt>0</asrwt>
<pdfrwt beam="1">  1       21 0.50522876E-02 0.18042631E+03</pdfrwt>
<pdfrwt beam="2">  1       21 0.15572137E+00 0.18042631E+03</pdfrwt>
<totfact> 0.72003991E+04</totfact>
</mgrwt>
</event>
<event>
12    1  0.1071811E-001  0.2237236E+03  0.7546771E-02  0.1131489E+00
         21   -1    0    0  501  502  0.00000000000E+00  0.00000000000E+00  0.59410254948E+03  0.59410254948E+03  0.00000000000E+00 0. -1.
         21   -1    0    0  502  503 -0.00000000000E+00 -0.00000000000E+00 -0.11764600578E+03  0.11764600578E+03  0.00000000000E+00 0. -1.
         -6    2    1    2    0  503  0.10399496946E+03  0.96316924102E+02  0.45849201542E+02  0.22649096194E+03  0.17059924683E+03 0.  0.
        -24    2    3    3    0    0  0.11276686574E+03  0.12628829353E+03  0.49674916518E+02  0.19467971795E+03  0.82264792947E+02 0.  0.
          6    2    1    2  501    0 -0.10399496946E+03 -0.96316924102E+02  0.43060734216E+03  0.48525759332E+03  0.17309056939E+03 0.  0.
         24    2    5    5    0    0 -0.81765634092E+02  0.94340065213E+01  0.20771601458E+03  0.23750764561E+03  0.80556313314E+02 0.  0.
          5    1    5    5  501    0 -0.22229335368E+02 -0.10575093062E+03  0.22289132758E+03  0.24774994771E+03  0.47000000000E+01 0. -1.
        -13    1    6    6    0    0 -0.15651620696E+02  0.82685966704E+01 -0.18113064507E+01  0.17793924592E+02  0.00000000000E+00 0.  1.
         14    1    6    6    0    0 -0.66114013396E+02  0.11654098509E+01  0.20952732103E+03  0.21971372102E+03  0.00000000000E+00 0. -1.
         -5    1    3    3    0  503 -0.87718962762E+01 -0.29971369425E+02 -0.38257149760E+01  0.31811243996E+02  0.47000000000E+01 0.  1.
         11    1    4    4    0    0 -0.10189487889E+02  0.14738229765E+02 -0.70274036840E+01  0.19246440777E+02  0.00000000000E+00 0. -1.
        -12    1    4    4    0    0  0.12295635363E+03  0.11155006376E+03  0.56702320202E+02  0.17543327717E+03  0.00000000000E+00 0.  1.
<mgrwt>
<rscale>  2 0.22324158E+03</rscale>
<asrwt>0</asrwt>
<pdfrwt beam="1">  1       21 0.91400391E-01 0.22372360E+03</pdfrwt>
<pdfrwt beam="2">  1       21 0.18099386E-01 0.22372360E+03</pdfrwt>
<totfact> 0.27688827E+04</totfact>
</mgrwt>
</event>
<event>
12    1  0.1071811E-001  0.1893889E+03  0.7546771E-02  0.1160188E+00
         21   -1    0    0  501  502  0.00000000000E+00  0.00000000000E+00  0.11662998101E+04  0.11662998101E+04  0.00000000000E+00 0. -1.
         21   -1    0    0  502  503 -0.00000000000E+00 -0.00000000000E+00 -0.56297770610E+02  0.56297770610E+02  0.00000000000E+00 0. -1.
         -6    2    1    2    0  503 -0.24406471289E+02 -0.59403501348E+02  0.14069949826E+03  0.23593323952E+03  0.17816759775E+03 0.  0.
        -24    2    3    3    0    0 -0.71408210748E+02  0.12535501663E+02  0.80160555033E+02  0.13071234182E+03  0.73510069759E+02 0.  0.
          6    2    1    2  501    0  0.24406471289E+02  0.59403501348E+02  0.96930254119E+03  0.98666434114E+03  0.17272710824E+03 0.  0.
         24    2    5    5    0    0  0.49904172823E+02  0.56947804813E+02  0.36935569273E+03  0.38615249763E+03  0.83406502953E+02 0.  0.
          5    1    5    5  501    0 -0.25497701535E+02  0.24556965349E+01  0.59994684846E+03  0.60051184352E+03  0.47000000000E+01 0. -1.
        -11    1    6    6    0    0  0.72469083198E+02  0.44895622823E+02  0.25159885545E+03  0.26564895827E+03  0.00000000000E+00 0.  1.
         12    1    6    6    0    0 -0.22564910375E+02  0.12052181990E+02  0.11775683728E+03  0.12050353936E+03  0.00000000000E+00 0. -1.
         -5    1    3    3    0  503  0.47001739459E+02 -0.71939003011E+02  0.60538943223E+02  0.10522089770E+03  0.47000000000E+01 0.  1.
         11    1    4    4    0    0 -0.74050353527E+02 -0.80575920326E+01  0.80858763028E+02  0.10993870658E+03  0.00000000000E+00 0. -1.
        -12    1    4    4    0    0  0.26421427793E+01  0.20593093695E+02 -0.69820799483E+00  0.20773635233E+02  0.00000000000E+00 0.  1.
<mgrwt>
<rscale>  2 0.18809852E+03</rscale>
<asrwt>0</asrwt>
<pdfrwt beam="1">  1       21 0.17943072E+00 0.18938887E+03</pdfrwt>
<pdfrwt beam="2">  1       21 0.86611964E-02 0.18938887E+03</pdfrwt>
<totfact> 0.19226176E+04</totfact>
</mgrwt>
</event>
<event>
12    1  0.1071811E-001  0.2176029E+03  0.7546771E-02  0.1135799E+00
         21   -1    0    0  503  502  0.00000000000E+00  0.00000000000E+00  0.38468377677E+03  0.38468377677E+03  0.00000000000E+00 0. -1.
         21   -1    0    0  501  503 -0.00000000000E+00 -0.00000000000E+00 -0.42870743083E+03  0.42870743083E+03  0.00000000000E+00 0. -1.
          6    2    1    2  501    0 -0.67353248901E+02  0.11710658621E+03 -0.36557935925E+03  0.42512702890E+03  0.16980668455E+03 0.  0.
         24    2    3    3    0    0 -0.81058013842E+02  0.12724974989E+03 -0.22064499455E+03  0.27911756200E+03  0.80371010596E+02 0.  0.
         -6    2    1    2    0  502  0.67353248901E+02 -0.11710658621E+03  0.32155570520E+03  0.38826417870E+03  0.17058894524E+03 0.  0.
        -24    2    5    5    0    0  0.80552899305E+02 -0.58018652670E+02  0.29606101123E+03  0.32240308182E+03  0.80228991959E+02 0.  0.
          5    1    3    3  501    0  0.13704764941E+02 -0.10143163678E+02 -0.14493436471E+03  0.14600946690E+03  0.47000000000E+01 0. -1.
        -13    1    4    4    0    0 -0.39401829465E+02  0.34530044560E+02 -0.23729380675E+02  0.57514447313E+02  0.00000000000E+00 0.  1.
         14    1    4    4    0    0 -0.41656184377E+02  0.92719705332E+02 -0.19691561387E+03  0.22160311469E+03  0.00000000000E+00 0. -1.
         -5    1    5    5    0  502 -0.13199650404E+02 -0.59087933543E+02  0.25494693967E+02  0.65861096876E+02  0.47000000000E+01 0.  1.
         13    1    6    6    0    0  0.62696062647E+02 -0.71014079230E+02  0.17172188843E+03  0.19611782858E+03  0.00000000000E+00 0. -1.
        -14    1    6    6    0    0  0.17856836658E+02  0.12995426560E+02  0.12433912280E+03  0.12628525324E+03  0.00000000000E+00 0.  1.
<mgrwt>
<rscale>  2 0.21744951E+03</rscale>
<asrwt>0</asrwt>
<pdfrwt beam="1">  1       21 0.59182119E-01 0.21760285E+03</pdfrwt>
<pdfrwt beam="2">  1       21 0.65954989E-01 0.21760285E+03</pdfrwt>
<totfact> 0.55307738E+03</totfact>
</mgrwt>
</event>
<event>
12    1  0.1071811E-001  0.2312047E+03  0.7546771E-02  0.1125802E+00
         21   -1    0    0  503  502  0.00000000000E+00  0.00000000000E+00  0.81834159849E+02  0.81834159849E+02  0.00000000000E+00 0. -1.
         21   -1    0    0  501  503 -0.00000000000E+00 -0.00000000000E+00 -0.11602120453E+04  0.11602120453E+04  0.00000000000E+00 0. -1.
          6    2    1    2  501    0 -0.14570471239E+03 -0.44238691709E+02 -0.94978694467E+03  0.97752282119E+03  0.17397902355E+03 0.  0.
         24    2    3    3    0    0 -0.45825500034E+02 -0.72258400898E+02 -0.63536914310E+03  0.64640108360E+03  0.82578204886E+02 0.  0.
         -6    2    1    2    0  502  0.14570471239E+03  0.44238691709E+02 -0.12859094081E+03  0.26452338398E+03  0.17392545977E+03 0.  0.
        -24    2    5    5    0    0  0.97822173933E+02 -0.94861957629E+01 -0.13524377922E+03  0.19209789619E+03  0.94612664475E+02 0.  0.
          5    1    3    3  501    0 -0.99879212358E+02  0.28019709189E+02 -0.31441780156E+03  0.33112173759E+03  0.47000000000E+01 0. -1.
        -11    1    4    4    0    0 -0.24516360611E+02 -0.18237676059E+02 -0.47253166412E+03  0.47351857235E+03  0.00000000000E+00 0.  1.
         12    1    4    4    0    0 -0.21309139424E+02 -0.54020724839E+02 -0.16283747898E+03  0.17288251125E+03  0.00000000000E+00 0. -1.
         -5    1    5    5    0  502  0.47882538459E+02  0.53724887472E+02  0.66528384117E+01  0.72425487793E+02  0.47000000000E+01 0.  1.
         11    1    6    6    0    0  0.81304181493E+02  0.33438226049E+02 -0.70542573747E+02  0.11271530331E+03  0.00000000000E+00 0. -1.
        -12    1    6    6    0    0  0.16517992439E+02 -0.42924421812E+02 -0.64701205477E+02  0.79382592879E+02  0.00000000000E+00 0.  1.
<mgrwt>
<rscale>  2 0.23119465E+03</rscale>
<asrwt>0</asrwt>
<pdfrwt beam="1">  1       21 0.12589872E-01 0.23120473E+03</pdfrwt>
<pdfrwt beam="2">  1       21 0.17849415E+00 0.23120473E+03</pdfrwt>
<totfact> 0.97432877E+03</totfact>
</mgrwt>
</event>
<event>
12    1  0.1071811E-001  0.1835239E+03  0.7546771E-02  0.1165553E+00
         21   -1    0    0  503  502  0.00000000000E+00  0.00000000000E+00  0.10000853354E+04  0.10000853354E+04  0.00000000000E+00 0. -1.
         21   -1    0    0  501  503 -0.00000000000E+00 -0.00000000000E+00 -0.54338760368E+02  0.54338760368E+02  0.00000000000E+00 0. -1.
          6    2    1    2  501    0 -0.52636004296E+02 -0.30294752307E+02  0.14485054961E+03  0.23380057806E+03  0.17318402818E+03 0.  0.
         24    2    3    3    0    0 -0.46773668540E+02 -0.79614749106E+02  0.13665141122E+03  0.18324224606E+03  0.79861306075E+02 0.  0.
         -6    2    1    2    0  502  0.52636004296E+02  0.30294752307E+02  0.80089602543E+03  0.82062351771E+03  0.16822661297E+03 0.  0.
        -24    2    5    5    0    0  0.42665287069E+02  0.79057404346E+02  0.44755774567E+03  0.46376606525E+03  0.81857361702E+02 0.  0.
          5    1    3    3  501    0 -0.58623357557E+01  0.49319996799E+02  0.81991383889E+01  0.50558332005E+02  0.47000000000E+01 0. -1.
        -11    1    4    4    0    0  0.13716019534E+01 -0.68219537877E+02  0.10246339524E+03  0.12310375301E+03  0.00000000000E+00 0.  1.
         12    1    4    4    0    0 -0.48145270494E+02 -0.11395211229E+02  0.34188015979E+02  0.60138493051E+02  0.00000000000E+00 0. -1.
         -5    1    5    5    0  502  0.99707172268E+01 -0.48762652039E+02  0.35333827976E+03  0.35685745246E+03  0.47000000000E+01 0.  1.
         11    1    6    6    0    0  0.55949534468E+01  0.48408372776E+02  0.36484088307E+03  0.36808089331E+03  0.00000000000E+00 0. -1.
        -12    1    6    6    0    0  0.37070333622E+02  0.30649031571E+02  0.82716862601E+02  0.95685171943E+02  0.00000000000E+00 0.  1.
<mgrwt>
<rscale>  2 0.18234496E+03</rscale>
<asrwt>0</asrwt>
<pdfrwt beam="1">  1       21 0.15385927E+00 0.18352392E+03</pdfrwt>
<pdfrwt beam="2">  1       21 0.83598100E-02 0.18352392E+03</pdfrwt>
<totfact> 0.31242293E+04</totfact>
</mgrwt>
</event>
<event>
12    1  0.1071811E-001  0.2688698E+03  0.7546771E-02  0.1101995E+00
         21   -1    0    0  501  502  0.00000000000E+00  0.00000000000E+00  0.17063795604E+04  0.17063795604E+04  0.00000000000E+00 0. -1.
         21   -1    0    0  502  503 -0.00000000000E+00 -0.00000000000E+00 -0.24344075624E+03  0.24344075624E+03  0.00000000000E+00 0.  1.
         -6    2    1    2    0  503  0.12583500003E+03  0.16265534959E+03 -0.15461032630E+03  0.31015368490E+03  0.17320434543E+03 0.  0.
        -24    2    3    3    0    0  0.16058130241E+02  0.40589992525E+02 -0.10194923752E+03  0.13768283865E+03  0.81593541335E+02 0.  0.
          6    2    1    2  501    0 -0.12583500003E+03 -0.16265534959E+03  0.16175491305E+04  0.16396666318E+04  0.17248264796E+03 0.  0.
         24    2    5    5    0    0 -0.93978801513E+00 -0.72467955840E+02  0.50343585884E+03  0.51494308706E+03  0.80412879094E+02 0.  0.
          5    1    5    5  501    0 -0.12489521201E+03 -0.90187393751E+02  0.11141132716E+04  0.11247235447E+04  0.47000000000E+01 0. -1.
        -13    1    6    6    0    0  0.11385159327E+02  0.14198502013E+02  0.51858352813E+02  0.54959149091E+02  0.00000000000E+00 0.  1.
         14    1    6    6    0    0 -0.12324947342E+02 -0.86666457853E+02  0.45157750603E+03  0.45998393797E+03  0.00000000000E+00 0. -1.
         -5    1    3    3    0  503  0.10977686978E+03  0.12206535707E+03 -0.52661088780E+02  0.17247084625E+03  0.47000000000E+01 0.  1.
         11    1    4    4    0    0 -0.21103503919E+02 -0.13530468085E+02 -0.16858917036E+02  0.30210172589E+02  0.00000000000E+00 0. -1.
        -12    1    4    4    0    0  0.37161634160E+02  0.54120460610E+02 -0.85090320482E+02  0.10747266606E+03  0.00000000000E+00 0.  1.
<mgrwt>
<rscale>  2 0.26875361E+03</rscale>
<asrwt>0</asrwt>
<pdfrwt beam="1">  1       21 0.26251992E+00 0.26886977E+03</pdfrwt>
<pdfrwt beam="2">  1       21 0.37452425E-01 0.26886977E+03</pdfrwt>
<totfact> 0.35311433E+02</totfact>
</mgrwt>
</event>
<event>
12    1  0.1071811E-001  0.2547019E+03  0.7546771E-02  0.1110615E+00
         21   -1    0    0  503  502  0.00000000000E+00  0.00000000000E+00  0.40872427612E+02  0.40872427612E+02  0.00000000000E+00 0. -1.
         21   -1    0    0  501  503 -0.00000000000E+00 -0.00000000000E+00 -0.15799874859E+04  0.15799874859E+04  0.00000000000E+00 0.  1.
          6    2    1    2  501    0  0.18570886735E+03  0.11719096657E+02 -0.73375696429E+03  0.77618558928E+03  0.17157991061E+03 0.  0.
         24    2    3    3    0    0  0.18003392766E+03  0.45222331287E+02 -0.48790184912E+03  0.52794880851E+03  0.78895219616E+02 0.  0.
         -6    2    1    2    0  502 -0.18570886735E+03 -0.11719096657E+02 -0.80535809399E+03  0.84467432422E+03  0.17391933132E+03 0.  0.
        -24    2    5    5    0    0 -0.82854252860E+02 -0.22356412918E+02 -0.61853112420E+03  0.63108914014E+03  0.91258505255E+02 0.  0.
          5    1    3    3  501    0  0.56749396896E+01 -0.33503234630E+02 -0.24585511517E+03  0.24823678077E+03  0.47000000000E+01 0. -1.
        -11    1    4    4    0    0  0.12375873867E+02  0.85518220260E+01 -0.13172033085E+03  0.13257654948E+03  0.00000000000E+00 0.  1.
         12    1    4    4    0    0  0.16765805379E+03  0.36670509261E+02 -0.35618151827E+03  0.39537225903E+03  0.00000000000E+00 0. -1.
         -5    1    5    5    0  502 -0.10285461449E+03  0.10637316260E+02 -0.18682696979E+03  0.21358518408E+03  0.47000000000E+01 0.  1.
         11    1    6    6    0    0 -0.29348591577E+02  0.13857410725E+02 -0.44055202155E+03  0.44174591266E+03  0.00000000000E+00 0. -1.
        -12    1    6    6    0    0 -0.53505661283E+02 -0.36213823642E+02 -0.17797910265E+03  0.18934322748E+03  0.00000000000E+00 0.  1.
<mgrwt>
<rscale>  2 0.25430304E+03</rscale>
<asrwt>0</asrwt>
<pdfrwt beam="1">  1       21 0.62880652E-02 0.25470189E+03</pdfrwt>
<pdfrwt beam="2">  1       21 0.24307502E+00 0.25470189E+03</pdfrwt>
<totfact> 0.12644447E+04</totfact>
</mgrwt>
</event>
<event>
11    1  0.1071811E-001  0.1742594E+03  0.7546771E-02  0.1173637E+00
         21   -1    0    0  501  502  0.00000000000E+00  0.00000000000E+00  0.12374371091E+03  0.12374371091E+03  0.00000000000E+00 0.  1.
         21   -1    0    0  502  503 -0.00000000000E+00 -0.00000000000E+00 -0.27682087898E+03  0.27682087898E+03  0.00000000000E+00 0.  1.
         -6    2    1    2    0  503 -0.18081830517E+02  0.17405108409E+02 -0.14484435369E+03  0.22611084533E+03  0.17180319318E+03 0.  0.
        -24    2    3    3    0    0 -0.40423663029E+02  0.67266096761E+02 -0.12388626539E+03  0.16740303406E+03  0.80728983354E+02 0.  0.
          6    2    1    2  501    0  0.18081830517E+02 -0.17405108409E+02 -0.82328143755E+01  0.17445374455E+03  0.17244256830E+03 0.  0.
          5    1    5    5  501    0 -0.21407528545E+01 -0.21868263870E+02 -0.40718222114E+02  0.46506638232E+02  0.47000000000E+01 0. -1.
        -13    1    5    5    0    0 -0.17668113390E+01  0.62068921218E+02  0.16453047111E+02  0.64236869186E+02  0.00000000000E+00 0.  1.
         14    1    5    5    0    0  0.21989394710E+02 -0.57605765758E+02  0.16032360628E+02  0.63710237133E+02  0.00000000000E+00 0. -1.
         -5    1    3    3    0  503  0.22341832512E+02 -0.49860988351E+02 -0.20958088297E+02  0.58707811273E+02  0.47000000000E+01 0.  1.
         13    1    4    4    0    0 -0.59530287909E+02  0.22043995566E+02 -0.71175100909E+02  0.95371315963E+02  0.00000000000E+00 0. -1.
        -14    1    4    4    0    0  0.19106624880E+02  0.45222101194E+02 -0.52711164486E+02  0.72031718098E+02  0.00000000000E+00 0.  1.
<mgrwt>
<rscale>  2 0.17410099E+03</rscale>
<asrwt>0</asrwt>
<pdfrwt beam="1">  1       21 0.19037494E-01 0.17425937E+03</pdfrwt>
<pdfrwt beam="2">  1       21 0.42587827E-01 0.17425937E+03</pdfrwt>
<totfact> 0.13506316E+05</totfact>
</mgrwt>
</event>
<event>
12    1  0.1071811E-001  0.1952764E+03  0.7546771E-02  0.1155616E+00
         21   -1    0    0  503  502  0.00000000000E+00  0.00000000000E+00  0.12011847988E+04  0.12011847988E+04  0.00000000000E+00 0.  1.
         21   -1    0    0  501  503 -0.00000000000E+00 -0.00000000000E+00 -0.46240367347E+02  0.46240367347E+02  0.00000000000E+00 0.  1.
          6    2    1    2  501    0  0.73389479039E+02 -0.14593699846E+01  0.22092187909E+03  0.29485478257E+03  0.18095502410E+03 0.  0.
         24    2    3    3    0    0 -0.14347444149E+02  0.40508193935E+02  0.69513887429E+02  0.11483946641E+03  0.80679362734E+02 0.  0.
         -6    2    1    2    0  502 -0.73389479039E+02  0.14593699846E+01  0.93402255236E+03  0.95257038357E+03  0.17205830974E+03 0.  0.
        -24    2    5    5    0    0 -0.68554900146E+02  0.61545924090E+02  0.56367058774E+03  0.57731522393E+03  0.84146664809E+02 0.  0.
          5    1    3    3  501    0  0.87736923188E+02 -0.41967563919E+02  0.15140799166E+03  0.18001531615E+03  0.47000000000E+01 0. -1.
        -13    1    4    4    0    0  0.23071364069E+02  0.47305678533E+01 -0.50290870740E+01  0.24082313614E+02  0.00000000000E+00 0.  1.
         14    1    4    4    0    0 -0.37418808218E+02  0.35777626081E+02  0.74542974503E+02  0.90757152800E+02  0.00000000000E+00 0. -1.
         -5    1    5    5    0  502 -0.48345788927E+01 -0.60086554105E+02  0.37035196462E+03  0.37525515964E+03  0.47000000000E+01 0.  1.
         11    1    6    6    0    0 -0.16018085198E+02  0.67734490307E+02  0.37319823621E+03  0.37963332802E+03  0.00000000000E+00 0. -1.
        -12    1    6    6    0    0 -0.52536814948E+02 -0.61885662178E+01  0.19047235152E+03  0.19768189591E+03  0.00000000000E+00 0.  1.
<mgrwt>
<rscale>  2 0.19318959E+03</rscale>
<asrwt>0</asrwt>
<pdfrwt beam="1">  1       21 0.18479764E+00 0.19527638E+03</pdfrwt>
<pdfrwt beam="2">  1       21 0.71139036E-02 0.19527638E+03</pdfrwt>
<totfact> 0.24798096E+04</totfact>
</mgrwt>
</event>
<event>
12    1  0.1071811E-001  0.2052819E+03  0.7546771E-02  0.1146033E+00
         21   -1    0    0  501  502  0.00000000000E+00  0.00000000000E+00  0.34711802974E+03  0.34711802974E+03  0.00000000000E+00 0.  1.
         21   -1    0    0  502  503 -0.00000000000E+00 -0.00000000000E+00 -0.15084128156E+03  0.15084128156E+03  0.00000000000E+00 0. -1.
         -6    2    1    2    0  503 -0.12495349851E+02 -0.11020177425E+03 -0.14783217510E+02  0.20581346409E+03  0.17274279627E+03 0.  0.
        -24    2    3    3    0    0 -0.74562766523E+02 -0.65832272694E+02 -0.22701570172E+01  0.12835583978E+03  0.81096077045E+02 0.  0.
          6    2    1    2  501    0  0.12495349851E+02  0.11020177425E+03  0.21105996569E+03  0.29214584721E+03  0.16882630752E+03 0.  0.
         24    2    5    5    0    0  0.50068582792E+02  0.11894865102E+03  0.20120806683E+03  0.25205338411E+03  0.79941089048E+02 0.  0.
          5    1    5    5  501    0 -0.37573232941E+02 -0.87468767692E+01  0.98518988549E+01  0.40092463106E+02  0.47000000000E+01 0. -1.
        -13    1    6    6    0    0  0.15069028529E+02  0.65214328100E+02  0.16579854480E+03  0.17879916573E+03  0.00000000000E+00 0.  1.
         14    1    6    6    0    0  0.34999554263E+02  0.53734322922E+02  0.35409522034E+02  0.73254218371E+02  0.00000000000E+00 0. -1.
         -5    1    3    3    0  503  0.62067416673E+02 -0.44369501558E+02 -0.12513060493E+02  0.77457624310E+02  0.47000000000E+01 0.  1.
         13    1    4    4    0    0 -0.51563494467E+02 -0.48046657976E+02  0.36916138992E+02  0.79561778653E+02  0.00000000000E+00 0. -1.
        -14    1    4    4    0    0 -0.22999272056E+02 -0.17785614718E+02 -0.39186296009E+02  0.48794061123E+02  0.00000000000E+00 0.  1.
<mgrwt>
<rscale>  2 0.20445573E+03</rscale>
<asrwt>0</asrwt>
<pdfrwt beam="1">  1       21 0.53402774E-01 0.20528185E+03</pdfrwt>
<pdfrwt beam="2">  1       21 0.23206351E-01 0.20528185E+03</pdfrwt>
<totfact> 0.57581628E+04</totfact>
</mgrwt>
</event>
<event>
12    1  0.1071811E-001  0.1800185E+03  0.7546771E-02  0.1167923E+00
         21   -1    0    0  503  502  0.00000000000E+00  0.00000000000E+00  0.90455591418E+03  0.90455591418E+03  0.00000000000E+00 0.  1.
         21   -1    0    0  501  503 -0.00000000000E+00 -0.00000000000E+00 -0.58746130666E+02  0.58746130666E+02  0.00000000000E+00 0.  1.
          6    2    1    2  501    0  0.21097633777E+02  0.44276359101E+02  0.12090960414E+03  0.21638374963E+03  0.17261891149E+03 0.  0.
         24    2    3    3    0    0 -0.54749594744E+02  0.15548292265E+02  0.61142275774E+02  0.11552579289E+03  0.79803279499E+02 0.  0.
         -6    2    1    2    0  502 -0.21097633777E+02 -0.44276359101E+02  0.72490017938E+03  0.74691829522E+03  0.17320843957E+03 0.  0.
        -24    2    5    5    0    0  0.44039948340E+02 -0.36134463534E+02  0.27234941158E+03  0.28960715113E+03  0.80329841869E+02 0.  0.
          5    1    3    3  501    0  0.75847228521E+02  0.28728066836E+02  0.59767328362E+02  0.10085795674E+03  0.47000000000E+01 0. -1.
        -11    1    4    4    0    0 -0.20777075037E+02  0.11645299239E+02 -0.17642045072E+02  0.29640202357E+02  0.00000000000E+00 0.  1.
         12    1    4    4    0    0 -0.33972519707E+02  0.39029930261E+01  0.78784320846E+02  0.85885590532E+02  0.00000000000E+00 0. -1.
         -5    1    5    5    0  502 -0.65137582117E+02 -0.81418955675E+01  0.45255076780E+03  0.45731114408E+03  0.47000000000E+01 0.  1.
         11    1    6    6    0    0 -0.20853865610E+02 -0.56623822837E+01  0.11045801004E+03  0.11255184701E+03  0.00000000000E+00 0. -1.
        -12    1    6    6    0    0  0.64893813950E+02 -0.30472081250E+02  0.16189140155E+03  0.17705530413E+03  0.00000000000E+00 0.  1.
<mgrwt>
<rscale>  2 0.17987657E+03</rscale>
<asrwt>0</asrwt>
<pdfrwt beam="1">  1       21 0.13916244E+00 0.18001853E+03</pdfrwt>
<pdfrwt beam="2">  1       21 0.90378669E-02 0.18001853E+03</pdfrwt>
<totfact> 0.35501930E+04</totfact>
</mgrwt>
</event>
<event>
12    1  0.1071811E-001  0.2385840E+03  0.7546771E-02  0.1121337E+00
         21   -1    0    0  501  502  0.00000000000E+00  0.00000000000E+00  0.40320059973E+02  0.40320059973E+02  0.00000000000E+00 0. -1.
         21   -1    0    0  502  503 -0.00000000000E+00 -0.00000000000E+00 -0.13917841608E+04  0.13917841608E+04  0.00000000000E+00 0. -1.
         -6    2    1    2    0  503 -0.10144137906E+03  0.12607498010E+03 -0.69838631881E+03  0.73801474087E+03  0.17531986038E+03 0.  0.
        -24    2    3    3    0    0 -0.87500717849E+02  0.38914599898E+02 -0.55956102832E+03  0.57343702308E+03  0.80936724154E+02 0.  0.
          6    2    1    2  501    0  0.10144137906E+03 -0.12607498010E+03 -0.65307778202E+03  0.69408947991E+03  0.17048273449E+03 0.  0.
         24    2    5    5    0    0  0.54773083466E+02 -0.41042496465E+01 -0.31346727958E+03  0.33020464611E+03  0.88070638744E+02 0.  0.
          5    1    5    5  501    0  0.46668295597E+02 -0.12197073045E+03 -0.33961050244E+03  0.36388483380E+03  0.47000000000E+01 0. -1.
        -11    1    6    6    0    0 -0.15889758846E+02  0.19821306497E+02 -0.46239400410E+02  0.52758419022E+02  0.00000000000E+00 0.  1.
         12    1    6    6    0    0  0.70662842312E+02 -0.23925556144E+02 -0.26722787917E+03  0.27744622709E+03  0.00000000000E+00 0. -1.
         -5    1    3    3    0  503 -0.13940661214E+02  0.87160380200E+02 -0.13882529049E+03  0.16457771778E+03  0.47000000000E+01 0.  1.
         11    1    4    4    0    0 -0.99756389894E+02  0.47148592794E+02 -0.50502186492E+03  0.51693462950E+03  0.00000000000E+00 0. -1.
        -12    1    4    4    0    0  0.12255672045E+02 -0.82339928960E+01 -0.54539163406E+02  0.56502393589E+02  0.00000000000E+00 0.  1.
<mgrwt>
<rscale>  2 0.23769612E+03</rscale>
<asrwt>0</asrwt>
<pdfrwt beam="1">  1       21 0.62030864E-02 0.23858396E+03</pdfrwt>
<pdfrwt beam="2">  1       21 0.21412063E+00 0.23858396E+03</pdfrwt>
<totfact> 0.19695402E+04</totfact>
</mgrwt>
</event>
<event>
12    1  0.1071811E-001  0.1823790E+03  0.7546771E-02  0.1165669E+00
         21   -1    0    0  503  502  0.00000000000E+00  0.00000000000E+00  0.10650602993E+03  0.10650602993E+03  0.00000000000E+00 0.  1.
         21   -1    0    0  501  503 -0.00000000000E+00 -0.00000000000E+00 -0.37531812454E+03  0.37531812454E+03  0.00000000000E+00 0.  1.
          6    2    1    2  501    0  0.26578019341E+02 -0.51003155151E+02 -0.23376245473E+03  0.29610774549E+03  0.17241577291E+03 0.  0.
         24    2    3    3    0    0  0.83412392861E+02 -0.40879453023E+02 -0.16894871581E+03  0.20918510108E+03  0.81154057060E+02 0.  0.
         -6    2    1    2    0  502 -0.26578019341E+02  0.51003155151E+02 -0.35049639870E+02  0.18571640898E+03  0.17307337855E+03 0.  0.
        -24    2    5    5    0    0  0.20666853473E+02 -0.12928035889E+02 -0.59919415318E+02  0.10229056810E+03  0.79238696648E+02 0.  0.
          5    1    3    3  501    0 -0.56834373520E+02 -0.10123702128E+02 -0.64813738928E+02  0.86922644414E+02  0.47000000000E+01 0. -1.
        -13    1    4    4    0    0 -0.13637410387E+02 -0.16246507144E+02 -0.45760183480E+02  0.50437311076E+02  0.00000000000E+00 0.  1.
         14    1    4    4    0    0  0.97049803248E+02 -0.24632945880E+02 -0.12318853233E+03  0.15874779000E+03  0.00000000000E+00 0. -1.
         -5    1    5    5    0  502 -0.47244872814E+02  0.63931191040E+02  0.24869775449E+02  0.83425840876E+02  0.47000000000E+01 0.  1.
         11    1    6    6    0    0  0.35501077317E+01  0.20149901012E+02 -0.61699858919E+02  0.65003802707E+02  0.00000000000E+00 0. -1.
        -12    1    6    6    0    0  0.17116745742E+02 -0.33077936901E+02  0.17804436006E+01  0.37286765398E+02  0.00000000000E+00 0.  1.
<mgrwt>
<rscale>  2 0.18222284E+03</rscale>
<asrwt>0</asrwt>
<pdfrwt beam="1">  1       21 0.16385543E-01 0.18237902E+03</pdfrwt>
<pdfrwt beam="2">  1       21 0.57741251E-01 0.18237902E+03</pdfrwt>
<totfact> 0.94272752E+04</totfact>
</mgrwt>
</event>
<event>
12    1  0.1071811E-001  0.1830849E+03  0.7546771E-02  0.1166074E+00
         21   -1    0    0  503  502  0.00000000000E+00  0.00000000000E+00  0.21722768211E+03  0.21722768211E+03  0.00000000000E+00 0. -1.
         21   -1    0    0  501  503 -0.00000000000E+00 -0.00000000000E+00 -0.16248917531E+03  0.16248917531E+03  0.00000000000E+00 0. -1.
          6    2    1    2  501    0  0.30565242429E+02 -0.25520582949E+02 -0.25518287339E+02  0.17981384165E+03  0.17348285350E+03 0.  0.
         24    2    3    3    0    0  0.46770958936E+01  0.94909323533E+01 -0.77809162931E+02  0.11160513249E+03  0.79306284359E+02 0.  0.
         -6    2    1    2    0  502 -0.30565242429E+02  0.25520582949E+02  0.80256794133E+02  0.19990301578E+03  0.17870234613E+03 0.  0.
        -24    2    5    5    0    0 -0.17233763601E+01  0.17671479849E+02 -0.30284755792E+02  0.85295049571E+02  0.77735627751E+02 0.  0.
          5    1    3    3  501    0  0.25888146536E+02 -0.35011515302E+02  0.52290875592E+02  0.68208709158E+02  0.47000000000E+01 0. -1.
        -11    1    4    4    0    0  0.95881534623E+01 -0.31264545845E+02 -0.56677591086E+02  0.65435111714E+02  0.00000000000E+00 0.  1.
         12    1    4    4    0    0 -0.49110575688E+01  0.40755478199E+02 -0.21131571845E+02  0.46170020774E+02  0.00000000000E+00 0. -1.
         -5    1    5    5    0  502 -0.28841866069E+02  0.78491030996E+01  0.11054154992E+03  0.11460796620E+03  0.47000000000E+01 0.  1.
         11    1    6    6    0    0 -0.32988339665E+02 -0.12726052316E+02 -0.19484706974E+02  0.40371236880E+02  0.00000000000E+00 0. -1.
        -12    1    6    6    0    0  0.31264963305E+02  0.30397532165E+02 -0.10800048818E+02  0.44923812691E+02  0.00000000000E+00 0.  1.
<mgrwt>
<rscale>  2 0.18179863E+03</rscale>
<asrwt>0</asrwt>
<pdfrwt beam="1">  1       21 0.33419643E-01 0.18308485E+03</pdfrwt>
<pdfrwt beam="2">  1       21 0.24998335E-01 0.18308485E+03</pdfrwt>
<totfact> 0.13104980E+05</totfact>
</mgrwt>
</event>
<event>
12    1  0.1071811E-001  0.2439843E+03  0.7546771E-02  0.1117349E+00
         21   -1    0    0  503  502  0.00000000000E+00  0.00000000000E+00  0.63984589606E+03  0.63984589606E+03  0.00000000000E+00 0. -1.
         21   -1    0    0  501  503 -0.00000000000E+00 -0.00000000000E+00 -0.21050680335E+03  0.21050680335E+03  0.00000000000E+00 0. -1.
          6    2    1    2  501    0  0.70283170408E+02  0.15375159334E+03 -0.10373678694E+03  0.26409486672E+03  0.17437173270E+03 0.  0.
         24    2    3    3    0    0  0.83226204520E+02  0.84719393691E+02 -0.12517261530E+03  0.19051123092E+03  0.80761183107E+02 0.  0.
         -6    2    1    2    0  502 -0.70283170408E+02 -0.15375159334E+03  0.53307587965E+03  0.58625783269E+03  0.17592349596E+03 0.  0.
        -24    2    5    5    0    0 -0.97648864211E+02 -0.79060790808E+02  0.43418082248E+03  0.45925421261E+03  0.81335944505E+02 0.  0.
          5    1    3    3  501    0 -0.12943034112E+02  0.69032199653E+02  0.21435828363E+02  0.73583635807E+02  0.47000000000E+01 0. -1.
        -13    1    4    4    0    0  0.91895748321E+02  0.68855723126E+02 -0.74928792292E+02  0.13711405136E+03  0.00000000000E+00 0.  1.
         14    1    4    4    0    0 -0.86695438004E+01  0.15863670566E+02 -0.50243823010E+02  0.53397179553E+02  0.00000000000E+00 0. -1.
         -5    1    5    5    0  502  0.27365693803E+02 -0.74690802536E+02  0.98895057171E+02  0.12700362008E+03  0.47000000000E+01 0.  1.
         11    1    6    6    0    0  0.60382145039E+01 -0.35804506640E+02  0.84576506665E+02  0.92041339679E+02  0.00000000000E+00 0. -1.
        -12    1    6    6    0    0 -0.10368707872E+03 -0.43256284168E+02  0.34960431581E+03  0.36721287293E+03  0.00000000000E+00 0.  1.
<mgrwt>
<rscale>  2 0.24370472E+03</rscale>
<asrwt>0</asrwt>
<pdfrwt beam="1">  1       21 0.98437830E-01 0.24398433E+03</pdfrwt>
<pdfrwt beam="2">  1       21 0.32385662E-01 0.24398433E+03</pdfrwt>
<totfact> 0.75501031E+03</totfact>
</mgrwt>
</event>
<event>
11    1  0.1071811E-001  0.2060870E+03  0.7546771E-02  0.1144982E+00
         21   -1    0    0  503  502  0.00000000000E+00  0.00000000000E+00  0.27538993521E+03  0.27538993521E+03  0.00000000000E+00 0. -1.
         21   -1    0    0  501  503 -0.00000000000E+00 -0.00000000000E+00 -0.15342101747E+03  0.15342101747E+03  0.00000000000E+00 0. -1.
          6    2    1    2  501    0  0.31065227468E+02  0.10642284568E+03  0.53013606182E+02  0.21279639795E+03  0.17372678004E+03 0.  0.
         -6    2    1    2    0  502 -0.31065227468E+02 -0.10642284568E+03  0.68955311553E+02  0.21601455473E+03  0.17209469028E+03 0.  0.
        -24    2    4    4    0    0  0.37734408161E+02 -0.16632188518E+02  0.26711273621E+02  0.95174161163E+02  0.81511432085E+02 0.  0.
          5    1    3    3  501    0  0.41095245939E+02  0.61181520782E+02  0.10472364429E+03  0.12814495463E+03  0.47000000000E+01 0. -1.
        -13    1    3    3    0    0  0.18943195378E+02  0.15598611174E+02 -0.12270209463E+02  0.27435731482E+02  0.00000000000E+00 0.  1.
         14    1    3    3    0    0 -0.28973213849E+02  0.29642713720E+02 -0.39439828647E+02  0.57215711838E+02  0.00000000000E+00 0. -1.
         -5    1    4    4    0  502 -0.68799635629E+02 -0.89790657158E+02  0.42244037932E+02  0.12084039356E+03  0.47000000000E+01 0.  1.
         11    1    5    5    0    0  0.36654027717E+01 -0.40291443208E+02  0.34259421540E+02  0.53014559675E+02  0.00000000000E+00 0. -1.
        -12    1    5    5    0    0  0.34069005389E+02  0.23659254690E+02 -0.75481479184E+01  0.42159601489E+02  0.00000000000E+00 0.  1.
<mgrwt>
<rscale>  2 0.20574269E+03</rscale>
<asrwt>0</asrwt>
<pdfrwt beam="1">  1       21 0.42367682E-01 0.20608703E+03</pdfrwt>
<pdfrwt beam="2">  1       21 0.23603233E-01 0.20608703E+03</pdfrwt>
<totfact> 0.90077144E+04</totfact>
</mgrwt>
</event>
<event>
12    1  0.1071811E-001  0.2219952E+03  0.7546771E-02  0.1132445E+00
         21   -1    0    0  501  502  0.00000000000E+00  0.00000000000E+00  0.90941837257E+03  0.90941837257E+03  0.00000000000E+00 0.  1.
         21   -1    0    0  502  503 -0.00000000000E+00 -0.00000000000E+00 -0.10174709730E+03  0.10174709730E+03  0.00000000000E+00 0.  1.
         -6    2    1    2    0  503 -0.11204330326E+03  0.82898701671E+02  0.58096025525E+02  0.22947117849E+03  0.17278882207E+03 0.  0.
        -24    2    3    3    0    0 -0.32591586484E+02  0.23341148392E+02  0.88014988467E+02  0.12565927265E+03  0.80228385808E+02 0.  0.
          6    2    1    2  501    0  0.11204330326E+03 -0.82898701671E+02  0.74957524974E+03  0.78169429138E+03  0.17250221331E+03 0.  0.
         24    2    5    5    0    0  0.12358880551E+03 -0.86599605408E+02  0.74925891287E+03  0.76868716334E+03  0.81959453790E+02 0.  0.
          5    1    5    5  501    0 -0.11545502247E+02  0.37009037370E+01  0.31633686852E+00  0.13007128031E+02  0.47000000000E+01 0. -1.
        -11    1    6    6    0    0  0.10660715383E+02 -0.51492986194E+01  0.25267637453E+03  0.25295358542E+03  0.00000000000E+00 0.  1.
         12    1    6    6    0    0  0.11292809013E+03 -0.81450306789E+02  0.49658253834E+03  0.51573357793E+03  0.00000000000E+00 0. -1.
         -5    1    3    3    0  503 -0.79451716780E+02  0.59557553279E+02 -0.29918962942E+02  0.10381190585E+03  0.47000000000E+01 0.  1.
         13    1    4    4    0    0  0.87982070800E+01  0.42621130811E+02  0.49629149414E+02  0.66007739781E+02  0.00000000000E+00 0. -1.
        -14    1    4    4    0    0 -0.41389793564E+02 -0.19279982419E+02  0.38385839053E+02  0.59651532865E+02  0.00000000000E+00 0.  1.
<mgrwt>
<rscale>  2 0.22193944E+03</rscale>
<asrwt>0</asrwt>
<pdfrwt beam="1">  1       21 0.13991051E+00 0.22199521E+03</pdfrwt>
<pdfrwt beam="2">  1       21 0.15653400E-01 0.22199521E+03</pdfrwt>
<totfact> 0.12748201E+04</totfact>
</mgrwt>
</event>
<event>
12    1  0.1071811E-001  0.1869079E+03  0.7546771E-02  0.1161386E+00
         21   -1    0    0  501  502  0.00000000000E+00  0.00000000000E+00  0.22504981188E+04  0.22504981188E+04  0.00000000000E+00 0.  1.
         21   -1    0    0  502  503 -0.00000000000E+00 -0.00000000000E+00 -0.18979804483E+02  0.18979804483E+02  0.00000000000E+00 0.  1.
         -6    2    1    2    0  503 -0.62967923686E+02  0.33566931964E+02  0.16015632046E+04  0.16123797572E+04  0.17225587038E+03 0.  0.
        -24    2    3    3    0    0 -0.95471419178E+02 -0.26633594371E+01  0.13809497758E+04  0.13864118697E+04  0.77419014310E+02 0.  0.
          6    2    1    2  501    0  0.62967923686E+02 -0.33566931964E+02  0.62995510976E+03  0.65709816609E+03  0.17275086463E+03 0.  0.
         24    2    5    5    0    0 -0.26005092715E+02 -0.41890914407E+02  0.27319308447E+03  0.28928473645E+03  0.81363897316E+02 0.  0.
          5    1    5    5  501    0  0.88973016401E+02  0.83239824435E+01  0.35676202529E+03  0.36781342964E+03  0.47000000000E+01 0. -1.
        -11    1    6    6    0    0 -0.24763484270E+02 -0.53741364466E+02  0.10386446556E+03  0.11953740676E+03  0.00000000000E+00 0.  1.
         12    1    6    6    0    0 -0.12416084453E+01  0.11850450058E+02  0.16932861891E+03  0.16974732969E+03  0.00000000000E+00 0. -1.
         -5    1    3    3    0  503  0.32503495492E+02  0.36230291401E+02  0.22061342881E+03  0.22596788756E+03  0.47000000000E+01 0.  1.
         13    1    4    4    0    0 -0.71632210561E+02 -0.32654804941E+02  0.70599554413E+03  0.71037118341E+03  0.00000000000E+00 0. -1.
        -14    1    4    4    0    0 -0.23839208617E+02  0.29991445504E+02  0.67495423163E+03  0.67604068625E+03  0.00000000000E+00 0.  1.
<mgrwt>
<rscale>  2 0.18679343E+03</rscale>
<asrwt>0</asrwt>
<pdfrwt beam="1">  1       21 0.34623027E+00 0.18690789E+03</pdfrwt>
<pdfrwt beam="2">  1       21 0.29199717E-02 0.18690789E+03</pdfrwt>
<totfact> 0.12261276E+04</totfact>
</mgrwt>
</event>
<event>
12    1  0.1071811E-001  0.2161719E+03  0.7546771E-02  0.1136940E+00
         21   -1    0    0  503  502  0.00000000000E+00  0.00000000000E+00  0.23456428045E+03  0.23456428045E+03  0.00000000000E+00 0.  1.
         21   -1    0    0  501  503 -0.00000000000E+00 -0.00000000000E+00 -0.21573711717E+03  0.21573711717E+03  0.00000000000E+00 0.  1.
          6    2    1    2  501    0 -0.12121357585E+03  0.43499765521E+02 -0.54396308959E+02  0.22291089036E+03  0.17362415166E+03 0.  0.
         24    2    3    3    0    0 -0.45070058001E+01  0.32553961816E+02  0.54810455138E+01  0.91200519885E+02  0.84896521932E+02 0.  0.
         -6    2    1    2    0  502  0.12121357585E+03 -0.43499765521E+02  0.73223472238E+02  0.22739050726E+03  0.17251030501E+03 0.  0.
        -24    2    5    5    0    0  0.33734294295E+02  0.12716376244E+02 -0.18349155383E+02  0.88752433754E+02  0.78997431336E+02 0.  0.
          5    1    3    3  501    0 -0.11670657005E+03  0.10945803705E+02 -0.59877354473E+02  0.13171037047E+03  0.47000000000E+01 0. -1.
        -11    1    4    4    0    0 -0.22724831802E+02 -0.69683830022E+00 -0.31094421676E+02  0.38519691372E+02  0.00000000000E+00 0.  1.
         12    1    4    4    0    0  0.18217826002E+02  0.33250800116E+02  0.36575467190E+02  0.52680828513E+02  0.00000000000E+00 0. -1.
         -5    1    5    5    0  502  0.87479281551E+02 -0.56216141765E+02  0.91572627621E+02  0.13863807350E+03  0.47000000000E+01 0.  1.
         11    1    6    6    0    0 -0.14208546592E+02  0.12718489765E+02  0.19795443972E+02  0.27486403552E+02  0.00000000000E+00 0. -1.
        -12    1    6    6    0    0  0.47942840887E+02 -0.21135216966E-02 -0.38144599355E+02  0.61266030202E+02  0.00000000000E+00 0.  1.
<mgrwt>
<rscale>  2 0.21594819E+03</rscale>
<asrwt>0</asrwt>
<pdfrwt beam="1">  1       21 0.36086812E-01 0.21617194E+03</pdfrwt>
<pdfrwt beam="2">  1       21 0.33190326E-01 0.21617194E+03</pdfrwt>
<totfact> 0.64050128E+04</totfact>
</mgrwt>
</event>
<event>
12    1  0.1071811E-001  0.2543106E+03  0.7546771E-02  0.1111161E+00
         21   -1    0    0  503  502  0.00000000000E+00  0.00000000000E+00  0.11642553669E+04  0.11642553669E+04  0.00000000000E+00 0. -1.
         21   -1    0    0  501  503 -0.00000000000E+00 -0.00000000000E+00 -0.17468330195E+03  0.17468330195E+03  0.00000000000E+00 0.  1.
          6    2    1    2  501    0  0.18453943756E+03  0.26793088534E+02 -0.60949667038E+02  0.25807337560E+03  0.16767328849E+03 0.  0.
         24    2    3    3    0    0  0.19862093731E+03  0.52289785019E+01 -0.27608083531E+02  0.21568174119E+03  0.79238805228E+02 0.  0.
         -6    2    1    2    0  502 -0.18453943756E+03 -0.26793088534E+02  0.10505217319E+04  0.10808652932E+04  0.17291963207E+03 0.  0.
        -24    2    5    5    0    0 -0.64559201628E+02 -0.22588131132E+02  0.75513264483E+03  0.76197700325E+03  0.75534945663E+02 0.  0.
          5    1    3    3  501    0 -0.14081499752E+02  0.21564110032E+02 -0.33341583507E+02  0.42391634405E+02  0.47000000000E+01 0. -1.
        -13    1    4    4    0    0  0.10083406176E+03  0.41061349782E+02 -0.23923074888E+02  0.11147132353E+03  0.00000000000E+00 0.  1.
         14    1    4    4    0    0  0.97786875551E+02 -0.35832371280E+02 -0.36850086432E+01  0.10421041767E+03  0.00000000000E+00 0. -1.
         -5    1    5    5    0  502 -0.11998023593E+03 -0.42049574022E+01  0.29538908712E+03  0.31888828995E+03  0.47000000000E+01 0.  1.
         11    1    6    6    0    0  0.16719043826E+02 -0.10177315018E+02  0.15943815330E+03  0.16063507990E+03  0.00000000000E+00 0. -1.
        -12    1    6    6    0    0 -0.81278245454E+02 -0.12410816113E+02  0.59569449153E+03  0.60134192335E+03  0.00000000000E+00 0.  1.
<mgrwt>
<rscale>  2 0.25342149E+03</rscale>
<asrwt>0</asrwt>
<pdfrwt beam="1">  1       21 0.17911621E+00 0.25431058E+03</pdfrwt>
<pdfrwt beam="2">  1       21 0.26874355E-01 0.25431058E+03</pdfrwt>
<totfact> 0.23060039E+03</totfact>
</mgrwt>
</event>
<event>
12    1  0.1071811E-001  0.2038852E+03  0.7546771E-02  0.1147746E+00
         21   -1    0    0  503  502  0.00000000000E+00  0.00000000000E+00  0.98692880915E+03  0.98692880915E+03  0.00000000000E+00 0. -1.
         21   -1    0    0  501  503 -0.00000000000E+00 -0.00000000000E+00 -0.42045189881E+02  0.42045189881E+02  0.00000000000E+00 0. -1.
          6    2    1    2  501    0 -0.29741911679E+02  0.95223075265E+02  0.39432702145E+03  0.44391774386E+03  0.17781211458E+03 0.  0.
         24    2    3    3    0    0  0.19720363111E+02  0.43588351649E+02  0.83617225482E+02  0.12505205329E+03  0.79732919886E+02 0.  0.
         -6    2    1    2    0  502  0.29741911679E+02 -0.95223075265E+02  0.55055659782E+03  0.58505625518E+03  0.17095683357E+03 0.  0.
        -24    2    5    5    0    0  0.79707440928E+02 -0.91732918882E+02  0.43432432633E+03  0.45840410857E+03  0.82027445197E+02 0.  0.
          5    1    3    3  501    0 -0.49462274790E+02  0.51634723616E+02  0.31070979597E+03  0.31886569057E+03  0.47000000000E+01 0. -1.
        -11    1    4    4    0    0 -0.92622852817E+00  0.13697590371E+01 -0.15378520146E+02  0.15467159435E+02  0.00000000000E+00 0.  1.
         12    1    4    4    0    0  0.20646591639E+02  0.42218592612E+02  0.98995745628E+02  0.10958489385E+03  0.00000000000E+00 0. -1.
         -5    1    5    5    0  502 -0.49965529248E+02 -0.34901563825E+01  0.11623227149E+03  0.12665214660E+03  0.47000000000E+01 0.  1.
         11    1    6    6    0    0  0.43552492959E+02 -0.29107717849E+02  0.31149846208E+03  0.31587239632E+03  0.00000000000E+00 0. -1.
        -12    1    6    6    0    0  0.36154947968E+02 -0.62625201034E+02  0.12282586426E+03  0.14253171225E+03  0.00000000000E+00 0.  1.
<mgrwt>
<rscale>  2 0.20238106E+03</rscale>
<asrwt>0</asrwt>
<pdfrwt beam="1">  1       21 0.15183518E+00 0.20388517E+03</pdfrwt>
<pdfrwt beam="2">  1       21 0.64684915E-02 0.20388517E+03</pdfrwt>
<totfact> 0.49849535E+04</totfact>
</mgrwt>
</event>
<event>
12    1  0.1071811E-001  0.2167162E+03  0.7546771E-02  0.1136525E+00
         21   -1    0    0  501  502  0.00000000000E+00  0.00000000000E+00  0.57125891317E+03  0.57125891317E+03  0.00000000000E+00 0. -1.
         21   -1    0    0  502  503 -0.00000000000E+00 -0.00000000000E+00 -0.13245619359E+03  0.13245619359E+03  0.00000000000E+00 0. -1.
         -6    2    1    2    0  503  0.22917733144E+02  0.12834588350E+03  0.16925179472E+01  0.21583065610E+03  0.17199453245E+03 0.  0.
        -24    2    3    3    0    0 -0.40645277001E+02  0.44624440364E+02  0.34190068928E+02  0.10570474127E+03  0.79756832261E+02 0.  0.
          6    2    1    2  501    0 -0.22917733144E+02 -0.12834588350E+03  0.43711020163E+03  0.48788445065E+03  0.17311273932E+03 0.  0.
         24    2    5    5    0    0  0.35680578380E+02 -0.11711025085E+03  0.36988936763E+03  0.39788038364E+03  0.80639573864E+02 0.  0.
          5    1    5    5  501    0 -0.58598311524E+02 -0.11235632643E+02  0.67220834002E+02  0.90004067009E+02  0.47000000000E+01 0. -1.
        -13    1    6    6    0    0 -0.17264240180E+01 -0.61260772570E+02  0.82720710016E+02  0.10294939855E+03  0.00000000000E+00 0.  1.
         14    1    6    6    0    0  0.37407002398E+02 -0.55849478284E+02  0.28716865761E+03  0.29493098509E+03  0.00000000000E+00 0. -1.
         -5    1    3    3    0  503  0.63563010145E+02  0.83721443133E+02 -0.32497550981E+02  0.11012591484E+03  0.47000000000E+01 0.  1.
         13    1    4    4    0    0  0.56930817190E+01 -0.52990152881E+01 -0.18187260502E+02  0.19780474894E+02  0.00000000000E+00 0. -1.
        -14    1    4    4    0    0 -0.46338358720E+02  0.49923455652E+02  0.52377329430E+02  0.85924266371E+02  0.00000000000E+00 0.  1.
<mgrwt>
<rscale>  2 0.21649281E+03</rscale>
<asrwt>0</asrwt>
<pdfrwt beam="1">  1       21 0.87885985E-01 0.21671619E+03</pdfrwt>
<pdfrwt beam="2">  1       21 0.20377876E-01 0.21671619E+03</pdfrwt>
<totfact> 0.24397565E+04</totfact>
</mgrwt>
</event>
<event>
11    1  0.1071811E-001  0.1876896E+03  0.7546771E-02  0.1162729E+00
         21   -1    0    0  503  502  0.00000000000E+00  0.00000000000E+00  0.51615058692E+02  0.51615058692E+02  0.00000000000E+00 0. -1.
         21   -1    0    0  501  503 -0.00000000000E+00 -0.00000000000E+00 -0.73717388954E+03  0.73717388954E+03  0.00000000000E+00 0. -1.
          6    2    1    2  501    0 -0.42988846048E+02  0.95752107175E+01 -0.47121575103E+03  0.50388485188E+03  0.17296223399E+03 0.  0.
         -6    2    1    2    0  502  0.42988846048E+02 -0.95752107175E+01 -0.21434307981E+03  0.28490409635E+03  0.18244906881E+03 0.  0.
        -24    2    4    4    0    0 -0.25896786646E+02 -0.57231754229E+02 -0.13218466658E+03  0.16747977435E+03  0.81428321172E+02 0.  0.
          5    1    3    3  501    0 -0.20976764168E+02  0.49199152891E+02 -0.13043074139E+03  0.14104910343E+03  0.47000000000E+01 0. -1.
        -11    1    3    3    0    0  0.43912526134E+02 -0.32429172545E+02 -0.11138633439E+03  0.12404384980E+03  0.00000000000E+00 0.  1.
         12    1    3    3    0    0 -0.65924608014E+02 -0.71947696286E+01 -0.22939867525E+03  0.23879189864E+03  0.00000000000E+00 0. -1.
         -5    1    4    4    0  502  0.68885632694E+02  0.47656543511E+02 -0.82158413237E+02  0.11742432200E+03  0.47000000000E+01 0.  1.
         13    1    5    5    0    0  0.19065958520E+02 -0.52034091901E+02 -0.89484623722E+02  0.10525471665E+03  0.00000000000E+00 0. -1.
        -14    1    5    5    0    0 -0.44962745166E+02 -0.51976623271E+01 -0.42700042856E+02  0.62225057705E+02  0.00000000000E+00 0.  1.
<mgrwt>
<rscale>  2 0.18534398E+03</rscale>
<asrwt>0</asrwt>
<pdfrwt beam="1">  1       21 0.79407787E-02 0.18768961E+03</pdfrwt>
<pdfrwt beam="2">  1       21 0.11341136E+00 0.18768961E+03</pdfrwt>
<totfact> 0.73892727E+04</totfact>
</mgrwt>
</event>
<event>
12    1  0.1071811E-001  0.2152838E+03  0.7546771E-02  0.1137627E+00
         21   -1    0    0  501  502  0.00000000000E+00  0.00000000000E+00  0.24192522643E+03  0.24192522643E+03  0.00000000000E+00 0.  1.
         21   -1    0    0  502  503 -0.00000000000E+00 -0.00000000000E+00 -0.19406420979E+03  0.19406420979E+03  0.00000000000E+00 0.  1.
         -6    2    1    2    0  503 -0.14693656474E+02 -0.12545322135E+03 -0.45918570018E+01  0.21440783892E+03  0.17319128717E+03 0.  0.
        -24    2    3    3    0    0 -0.35304602422E+02 -0.14808259264E+02 -0.34707445542E+02  0.97805277196E+02  0.83039544657E+02 0.  0.
          6    2    1    2  501    0  0.14693656474E+02  0.12545322135E+03  0.52452873641E+02  0.22158159730E+03  0.17433498221E+03 0.  0.
         24    2    5    5    0    0 -0.10994635641E+02  0.63217531194E+02 -0.36904717792E+02  0.10959928340E+03  0.80825159837E+02 0.  0.
          5    1    5    5  501    0  0.25688292115E+02  0.62235690152E+02  0.89357591433E+02  0.11198231390E+03  0.47000000000E+01 0. -1.
        -11    1    6    6    0    0 -0.66482699137E+01  0.82745297690E+02 -0.27125468767E+02  0.87331408087E+02  0.00000000000E+00 0.  1.
         12    1    6    6    0    0 -0.43463657273E+01 -0.19527766495E+02 -0.97792490248E+01  0.22267875310E+02  0.00000000000E+00 0. -1.
         -5    1    3    3    0  503  0.20610945947E+02 -0.11064496208E+03  0.30115588540E+02  0.11660256172E+03  0.47000000000E+01 0.  1.
         11    1    4    4    0    0  0.10350933602E+02 -0.25669896883E+02 -0.42012469285E+02  0.50310366803E+02  0.00000000000E+00 0. -1.
        -12    1    4    4    0    0 -0.45655536024E+02  0.10861637619E+02  0.73050237430E+01  0.47494910393E+02  0.00000000000E+00 0.  1.
<mgrwt>
<rscale>  2 0.21505212E+03</rscale>
<asrwt>0</asrwt>
<pdfrwt beam="1">  1       21 0.37219266E-01 0.21528377E+03</pdfrwt>
<pdfrwt beam="2">  1       21 0.29856032E-01 0.21528377E+03</pdfrwt>
<totfact> 0.74162100E+04</totfact>
</mgrwt>
</event>
<event>
12    1  0.1071811E-001  0.2595285E+03  0.7546771E-02  0.1107592E+00
         21   -1    0    0  501  502  0.00000000000E+00  0.00000000000E+00  0.67753851758E+02  0.67753851758E+02  0.00000000000E+00 0.  1.
         21   -1    0    0  502  503 -0.00000000000E+00 -0.00000000000E+00 -0.11444609477E+04  0.11444609477E+04  0.00000000000E+00 0. -1.
         -6    2    1    2    0  503  0.10112896694E+03 -0.16361802534E+03 -0.76009482784E+03  0.80282702066E+03  0.17259534068E+03 0.  0.
        -24    2    3    3    0    0  0.12804899307E+03 -0.16397475709E+03 -0.59310452258E+03  0.63361512063E+03  0.80067976044E+02 0.  0.
          6    2    1    2  501    0 -0.10112896694E+03  0.16361802534E+03 -0.31661226815E+03  0.40938777885E+03  0.17423288712E+03 0.  0.
         24    2    5    5    0    0 -0.13045461695E+03  0.92768333597E+02 -0.19151690306E+03  0.26258650863E+03  0.81538822375E+02 0.  0.
          5    1    5    5  501    0  0.29325650017E+02  0.70849691744E+02 -0.12509536509E+03  0.14680127021E+03  0.47000000000E+01 0. -1.
        -13    1    6    6    0    0 -0.31286754378E+02  0.35767423851E+02 -0.10830863451E+02  0.48738867566E+02  0.00000000000E+00 0.  1.
         14    1    6    6    0    0 -0.99167862577E+02  0.57000909745E+02 -0.18068603961E+03  0.21384764107E+03  0.00000000000E+00 0. -1.
         -5    1    3    3    0  503 -0.26920026127E+02  0.35673174843E+00 -0.16699030525E+03  0.16921190003E+03  0.47000000000E+01 0.  1.
         11    1    4    4    0    0  0.97957884581E+02 -0.67319848703E+02 -0.36989867219E+03  0.38852636573E+03  0.00000000000E+00 0. -1.
        -12    1    4    4    0    0  0.30091108484E+02 -0.96654908387E+02 -0.22320585040E+03  0.24508875489E+03  0.00000000000E+00 0.  1.
<mgrwt>
<rscale>  2 0.25925390E+03</rscale>
<asrwt>0</asrwt>
<pdfrwt beam="1">  1       21 0.10423670E-01 0.25952847E+03</pdfrwt>
<pdfrwt beam="2">  1       21 0.17607091E+00 0.25952847E+03</pdfrwt>
<totfact> 0.13957741E+04</totfact>
</mgrwt>
</event>
<event>
12    1  0.1071811E-001  0.4939888E+03  0.7546771E-02  0.1015382E+00
         21   -1    0    0  501  502  0.00000000000E+00  0.00000000000E+00  0.13418227564E+04  0.13418227564E+04  0.00000000000E+00 0.  1.
         21   -1    0    0  502  503 -0.00000000000E+00 -0.00000000000E+00 -0.24213934551E+03  0.24213934551E+03  0.00000000000E+00 0. -1.
         -6    2    1    2    0  503 -0.15268345736E+03 -0.43610814465E+03  0.15414198332E+03  0.51715681394E+03  0.17374943797E+03 0.  0.
        -24    2    3    3    0    0 -0.11392892983E+02 -0.22200070984E+03  0.89642432491E+02  0.25260568602E+03  0.79748064100E+02 0.  0.
          6    2    1    2  501    0  0.15268345736E+03  0.43610814465E+03  0.94554142752E+03  0.10668052879E+04  0.17470655167E+03 0.  0.
         24    2    5    5    0    0  0.18039956870E+03  0.41091268486E+03  0.88002787273E+03  0.99119371550E+03  0.81379886346E+02 0.  0.
          5    1    5    5  501    0 -0.27716111347E+02  0.25195459789E+02  0.65513554793E+02  0.75611572420E+02  0.47000000000E+01 0. -1.
        -13    1    6    6    0    0  0.10025228412E+03  0.29407040592E+03  0.54314334502E+03  0.62572567260E+03  0.00000000000E+00 0.  1.
         14    1    6    6    0    0  0.80147284588E+02  0.11684227895E+03  0.33688452771E+03  0.36546804290E+03  0.00000000000E+00 0. -1.
         -5    1    3    3    0  503 -0.14129056438E+03 -0.21410743481E+03  0.64499550833E+02  0.26455112791E+03  0.47000000000E+01 0.  1.
         13    1    4    4    0    0 -0.31079623611E+02 -0.18552857492E+03  0.48630096860E+02  0.19429791928E+03  0.00000000000E+00 0. -1.
        -14    1    4    4    0    0  0.19686730629E+02 -0.36472134916E+02  0.41012335631E+02  0.58307766739E+02  0.00000000000E+00 0.  1.
<mgrwt>
<rscale>  2 0.49390435E+03</rscale>
<asrwt>0</asrwt>
<pdfrwt beam="1">  1       21 0.20643427E+00 0.49398880E+03</pdfrwt>
<pdfrwt beam="2">  1       21 0.37252208E-01 0.49398880E+03</pdfrwt>
<totfact> 0.68840240E+02</totfact>
</mgrwt>
</event>
<event>
12    1  0.1071811E-001  0.2510698E+03  0.7546771E-02  0.1112682E+00
         21   -1    0    0  501  502  0.00000000000E+00  0.00000000000E+00  0.14348140622E+04  0.14348140622E+04  0.00000000000E+00 0.  1.
         21   -1    0    0  502  503 -0.00000000000E+00 -0.00000000000E+00 -0.44105930675E+02  0.44105930675E+02  0.00000000000E+00 0.  1.
         -6    2    1    2    0  503  0.12368262225E+03  0.13358331622E+03  0.74834064107E+03  0.78923018372E+03  0.17242005217E+03 0.  0.
        -24    2    3    3    0    0  0.76749516238E+01  0.85246088940E+02  0.35644398396E+03  0.37764866440E+03  0.90776646017E+02 0.  0.
          6    2    1    2  501    0 -0.12368262225E+03 -0.13358331622E+03  0.64236749050E+03  0.68968980920E+03  0.17289923843E+03 0.  0.
         24    2    5    5    0    0 -0.97647667973E+02 -0.84618684471E+02  0.59391219801E+03  0.61589713086E+03  0.99509738409E+02 0.  0.
          5    1    5    5  501    0 -0.26034954280E+02 -0.48964631748E+02  0.48455292490E+02  0.73792678342E+02  0.47000000000E+01 0. -1.
        -11    1    6    6    0    0 -0.21725677868E+02  0.21000540928E+02  0.73356033131E+02  0.79335587190E+02  0.00000000000E+00 0.  1.
         12    1    6    6    0    0 -0.75921990105E+02 -0.10561922540E+03  0.52055616488E+03  0.53656154367E+03  0.00000000000E+00 0. -1.
         -5    1    3    3    0  503  0.11600767063E+03  0.48337227279E+02  0.39189665712E+03  0.41158151932E+03  0.47000000000E+01 0.  1.
         13    1    4    4    0    0  0.35743866944E+02  0.25380846603E+02  0.62382977087E+02  0.76245965327E+02  0.00000000000E+00 0. -1.
        -14    1    4    4    0    0 -0.28068915320E+02  0.59865242337E+02  0.29406100687E+03  0.30140269907E+03  0.00000000000E+00 0.  1.
<mgrwt>
<rscale>  2 0.25098731E+03</rscale>
<asrwt>0</asrwt>
<pdfrwt beam="1">  1       21 0.22074059E+00 0.25106979E+03</pdfrwt>
<pdfrwt beam="2">  1       21 0.67855289E-02 0.25106979E+03</pdfrwt>
<totfact> 0.15208774E+04</totfact>
</mgrwt>
</event>
<event>
12    1  0.1071811E-001  0.1750752E+03  0.7546771E-02  0.1173152E+00
         21   -1    0    0  503  502  0.00000000000E+00  0.00000000000E+00  0.47255283252E+03  0.47255283252E+03  0.00000000000E+00 0.  1.
         21   -1    0    0  501  503 -0.00000000000E+00 -0.00000000000E+00 -0.12890986139E+03  0.12890986139E+03  0.00000000000E+00 0.  1.
          6    2    1    2  501    0  0.41384850074E+01  0.17499647498E+02 -0.40866393989E+02  0.17978147370E+03  0.17414922167E+03 0.  0.
         24    2    3    3    0    0  0.22593677421E+02  0.36229499244E+02 -0.87384673042E+02  0.12613968253E+03  0.80324887498E+02 0.  0.
         -6    2    1    2    0  502 -0.41384850074E+01 -0.17499647498E+02  0.38450936511E+03  0.42168122021E+03  0.17217501241E+03 0.  0.
        -24    2    5    5    0    0  0.63759374926E+02 -0.68238341780E+01  0.23758364882E+03  0.25940568760E+03  0.82057894028E+02 0.  0.
          5    1    3    3  501    0 -0.18455192413E+02 -0.18729851746E+02  0.46518279053E+02  0.53641791166E+02  0.47000000000E+01 0. -1.
        -13    1    4    4    0    0 -0.10118022470E+02  0.31302450765E+02 -0.20824795208E+00  0.32897738065E+02  0.00000000000E+00 0.  1.
         14    1    4    4    0    0  0.32711699890E+02  0.49270484793E+01 -0.87176425090E+02  0.93241944466E+02  0.00000000000E+00 0. -1.
         -5    1    5    5    0  502 -0.67897859933E+02 -0.10675813320E+02  0.14692571630E+03  0.16227553261E+03  0.47000000000E+01 0.  1.
         13    1    6    6    0    0 -0.43746402990E+01  0.17899595542E+02  0.10883520310E+02  0.21400561036E+02  0.00000000000E+00 0. -1.
        -14    1    6    6    0    0  0.68134015225E+02 -0.24723429720E+02  0.22670012851E+03  0.23800512657E+03  0.00000000000E+00 0.  1.
<mgrwt>
<rscale>  2 0.17458218E+03</rscale>
<asrwt>0</asrwt>
<pdfrwt beam="1">  1       21 0.72700435E-01 0.17507517E+03</pdfrwt>
<pdfrwt beam="2">  1       21 0.19832287E-01 0.17507517E+03</pdfrwt>
<totfact> 0.40320823E+04</totfact>
</mgrwt>
</event>
<event>
11    1  0.1071811E-001  0.4413884E+03  0.7546771E-02  0.1030576E+00
         21   -1    0    0  501  502  0.00000000000E+00  0.00000000000E+00  0.86244492987E+03  0.86244492987E+03  0.00000000000E+00 0.  1.
         21   -1    0    0  502  503 -0.00000000000E+00 -0.00000000000E+00 -0.35523859172E+03  0.35523859172E+03  0.00000000000E+00 0. -1.
         -6    2    1    2    0  503  0.25520608053E+03  0.31602974474E+03 -0.11677835361E+03  0.45336644335E+03  0.16400916128E+03 0.  0.
          6    2    1    2  501    0 -0.25520608053E+03 -0.31602974474E+03  0.62398469176E+03  0.76431707823E+03  0.17268108591E+03 0.  0.
         24    2    4    4    0    0 -0.49225312022E+02 -0.66889572209E+02  0.16205928333E+03  0.20049434411E+03  0.83889358635E+02 0.  0.
          5    1    4    4  501    0 -0.20598076850E+03 -0.24914017253E+03  0.46192540843E+03  0.56382273413E+03  0.47000000000E+01 0. -1.
        -13    1    5    5    0    0 -0.21258554017E+02 -0.82566910459E+02  0.12722354200E+03  0.15315041776E+03  0.00000000000E+00 0.  1.
         14    1    5    5    0    0 -0.27966758004E+02  0.15677338250E+02  0.34835741330E+02  0.47343926347E+02  0.00000000000E+00 0. -1.
         -5    1    3    3    0  503  0.21096087608E+03  0.30408162214E+03 -0.82777566477E+02  0.37926816327E+03  0.47000000000E+01 0.  1.
         13    1    3    3    0    0  0.27288431224E+02  0.26966830939E+02 -0.72473606470E+01  0.39043471745E+02  0.00000000000E+00 0. -1.
        -14    1    3    3    0    0  0.16956773225E+02 -0.15018708342E+02 -0.26753426485E+02  0.35054808332E+02  0.00000000000E+00 0.  1.
<mgrwt>
<rscale>  2 0.44055604E+03</rscale>
<asrwt>0</asrwt>
<pdfrwt beam="1">  1       21 0.13268383E+00 0.44138838E+03</pdfrwt>
<pdfrwt beam="2">  1       21 0.54652091E-01 0.44138838E+03</pdfrwt>
<totfact> 0.11055717E+03</totfact>
</mgrwt>
</event>
<event>
12    1  0.1071811E-001  0.2316792E+03  0.7546771E-02  0.1126726E+00
         21   -1    0    0  501  502  0.00000000000E+00  0.00000000000E+00  0.10710225988E+04  0.10710225988E+04  0.00000000000E+00 0. -1.
         21   -1    0    0  502  503 -0.00000000000E+00 -0.00000000000E+00 -0.48853497215E+02  0.48853497215E+02  0.00000000000E+00 0. -1.
         -6    2    1    2    0  503 -0.11088858307E+03 -0.92858998367E+02  0.56036688412E+03  0.60637141619E+03  0.18098667941E+03 0.  0.
        -24    2    3    3    0    0 -0.10367163592E+03 -0.28433223471E+02  0.21346301607E+03  0.25343070096E+03  0.84287630597E+02 0.  0.
          6    2    1    2  501    0  0.11088858307E+03  0.92858998367E+02  0.46180221746E+03  0.51350467981E+03  0.17177513413E+03 0.  0.
         24    2    5    5    0    0  0.12227833728E+02 -0.96563630373E+01  0.18844430664E+03  0.20530023437E+03  0.79963518317E+02 0.  0.
          5    1    5    5  501    0  0.98660749347E+02  0.10251536140E+03  0.27335791082E+03  0.30820444544E+03  0.47000000000E+01 0. -1.
        -13    1    6    6    0    0 -0.18103157182E+02 -0.21247897411E+02  0.21517987734E+02  0.35245159106E+02  0.00000000000E+00 0.  1.
         14    1    6    6    0    0  0.30330990909E+02  0.11591534373E+02  0.16692631891E+03  0.17005507526E+03  0.00000000000E+00 0. -1.
         -5    1    3    3    0  503 -0.72169471565E+01 -0.64425774896E+02  0.34690386805E+03  0.35294071523E+03  0.47000000000E+01 0.  1.
         13    1    4    4    0    0 -0.92178263196E+02 -0.22933050445E+00  0.19982420159E+03  0.22006043792E+03  0.00000000000E+00 0. -1.
        -14    1    4    4    0    0 -0.11493372722E+02 -0.28203892967E+02  0.13638814477E+02  0.33370263040E+02  0.00000000000E+00 0.  1.
<mgrwt>
<rscale>  2 0.22987770E+03</rscale>
<asrwt>0</asrwt>
<pdfrwt beam="1">  1       21 0.16477269E+00 0.23167920E+03</pdfrwt>
<pdfrwt beam="2">  1       21 0.75159235E-02 0.23167920E+03</pdfrwt>
<totfact> 0.30349843E+04</totfact>
</mgrwt>
</event>
<event>
12    1  0.1071811E-001  0.2637434E+03  0.7546771E-02  0.1104983E+00
         21   -1    0    0  503  502  0.00000000000E+00  0.00000000000E+00  0.96108162687E+02  0.96108162687E+02  0.00000000000E+00 0. -1.
         21   -1    0    0  501  503 -0.00000000000E+00 -0.00000000000E+00 -0.81648388598E+03  0.81648388598E+03  0.00000000000E+00 0.  1.
          6    2    1    2  501    0  0.18441673451E+03  0.71965648096E+02 -0.51527946457E+03  0.57885534289E+03  0.17427562915E+03 0.  0.
         24    2    3    3    0    0  0.51838967092E+02  0.16144901978E+01 -0.30924133250E+03  0.32390446194E+03  0.81203532259E+02 0.  0.
         -6    2    1    2    0  502 -0.18441673451E+03 -0.71965648096E+02 -0.20509625873E+03  0.33373670578E+03  0.17357167674E+03 0.  0.
        -24    2    5    5    0    0 -0.14823805966E+03 -0.11659200396E+03 -0.15661254017E+03  0.25841626289E+03  0.81751204704E+02 0.  0.
          5    1    3    3  501    0  0.13257776742E+03  0.70351157898E+02 -0.20603813207E+03  0.25495088095E+03  0.47000000000E+01 0. -1.
        -13    1    4    4    0    0 -0.46957644313E+01  0.31675412446E+02 -0.11549039170E+03  0.11984745526E+03  0.00000000000E+00 0.  1.
         14    1    4    4    0    0  0.56534731523E+02 -0.30060922249E+02 -0.19375094080E+03  0.20405700668E+03  0.00000000000E+00 0. -1.
         -5    1    5    5    0  502 -0.36178674848E+02  0.44626355862E+02 -0.48483718560E+02  0.75320442887E+02  0.47000000000E+01 0.  1.
         11    1    6    6    0    0 -0.69834127612E+01  0.81436902431E+01  0.33432002946E+01  0.11236758108E+02  0.00000000000E+00 0. -1.
        -12    1    6    6    0    0 -0.14125464690E+03 -0.12473569420E+03 -0.15995574046E+03  0.24717950479E+03  0.00000000000E+00 0.  1.
<mgrwt>
<rscale>  2 0.26362717E+03</rscale>
<asrwt>0</asrwt>
<pdfrwt beam="1">  1       21 0.14785871E-01 0.26374340E+03</pdfrwt>
<pdfrwt beam="2">  1       21 0.12561291E+00 0.26374340E+03</pdfrwt>
<totfact> 0.18212285E+04</totfact>
</mgrwt>
</event>
<event>
12    1  0.1071811E-001  0.1845536E+03  0.7546771E-02  0.1164217E+00
         21   -1    0    0  501  502  0.00000000000E+00  0.00000000000E+00  0.61626896419E+02  0.61626896419E+02  0.00000000000E+00 0. -1.
         21   -1    0    0  502  503 -0.00000000000E+00 -0.00000000000E+00 -0.65111172016E+03  0.65111172016E+03  0.00000000000E+00 0. -1.
         -6    2    1    2    0  503 -0.29849214474E+02 -0.52197692848E+02 -0.44193233929E+03  0.47891986170E+03  0.17448342809E+03 0.  0.
        -24    2    3    3    0    0 -0.65232676795E+02 -0.51592707238E+02 -0.42288571740E+03  0.43845729605E+03  0.80593801987E+02 0.  0.
          6    2    1    2  501    0  0.29849214474E+02  0.52197692848E+02 -0.14755248445E+03  0.23381875488E+03  0.17112539181E+03 0.  0.
         24    2    5    5    0    0  0.58564433587E+02  0.69413334325E+02 -0.48364724988E+02  0.12902732514E+03  0.77851783188E+02 0.  0.
          5    1    5    5  501    0 -0.28715219113E+02 -0.17215641477E+02 -0.99187759457E+02  0.10479142974E+03  0.47000000000E+01 0. -1.
        -13    1    6    6    0    0 -0.10443146089E+01  0.92413052860E+01  0.18770801540E+02  0.20948396283E+02  0.00000000000E+00 0.  1.
         14    1    6    6    0    0  0.59608748196E+02  0.60172029039E+02 -0.67135526528E+02  0.10807892885E+03  0.00000000000E+00 0. -1.
         -5    1    3    3    0  503  0.35383462321E+02 -0.60498561049E+00 -0.19046621892E+02  0.40462565649E+02  0.47000000000E+01 0.  1.
         13    1    4    4    0    0 -0.34046319425E+02 -0.69829087116E+02 -0.24816172030E+03  0.26003748325E+03  0.00000000000E+00 0. -1.
        -14    1    4    4    0    0 -0.31186357370E+02  0.18236379878E+02 -0.17472399710E+03  0.17841981280E+03  0.00000000000E+00 0.  1.
<mgrwt>
<rscale>  2 0.18375559E+03</rscale>
<asrwt>0</asrwt>
<pdfrwt beam="1">  1       21 0.94810610E-02 0.18455363E+03</pdfrwt>
<pdfrwt beam="2">  1       21 0.10017103E+00 0.18455363E+03</pdfrwt>
<totfact> 0.73150038E+04</totfact>
</mgrwt>
</event>
<event>
12    1  0.1071811E-001  0.1787998E+03  0.7546771E-02  0.1169799E+00
         21   -1    0    0  503  502  0.00000000000E+00  0.00000000000E+00  0.48175295690E+02  0.48175295690E+02  0.00000000000E+00 0.  1.
         21   -1    0    0  501  503 -0.00000000000E+00 -0.00000000000E+00 -0.10421036912E+04  0.10421036912E+04  0.00000000000E+00 0.  1.
          6    2    1    2  501    0  0.31640880619E+02 -0.56955113993E+01 -0.82789055697E+03  0.84627501837E+03  0.17246752803E+03 0.  0.
         24    2    3    3    0    0 -0.12049843662E+02  0.29926188325E+02 -0.72088778641E+03  0.72524003258E+03  0.72478471115E+02 0.  0.
         -6    2    1    2    0  502 -0.31640880619E+02  0.56955113993E+01 -0.16603783854E+03  0.24400396852E+03  0.17588572611E+03 0.  0.
        -24    2    5    5    0    0 -0.82065264596E+02  0.33012191715E+02 -0.13363428287E+03  0.17796685817E+03  0.77392303197E+02 0.  0.
          5    1    3    3  501    0  0.43690724281E+02 -0.35621699724E+02 -0.10700277056E+03  0.12103498579E+03  0.47000000000E+01 0. -1.
        -11    1    4    4    0    0 -0.37665899547E+02  0.13054318495E+01 -0.25480001624E+03  0.25757226640E+03  0.00000000000E+00 0.  1.
         12    1    4    4    0    0  0.25616055885E+02  0.28620756475E+02 -0.46608777017E+03  0.46766776618E+03  0.00000000000E+00 0. -1.
         -5    1    5    5    0  502  0.50424383976E+02 -0.27316680316E+02 -0.32403555674E+02  0.66037110349E+02  0.47000000000E+01 0.  1.
         13    1    6    6    0    0 -0.23575581751E+02  0.50511820162E+02 -0.53864585742E+02  0.77515454125E+02  0.00000000000E+00 0. -1.
        -14    1    6    6    0    0 -0.58489682844E+02 -0.17499628447E+02 -0.79769697124E+02  0.10045140404E+03  0.00000000000E+00 0.  1.
<mgrwt>
<rscale>  2 0.17795347E+03</rscale>
<asrwt>0</asrwt>
<pdfrwt beam="1">  1       21 0.74115842E-02 0.17879981E+03</pdfrwt>
<pdfrwt beam="2">  1       21 0.16032364E+00 0.17879981E+03</pdfrwt>
<totfact> 0.34601420E+04</totfact>
</mgrwt>
</event>
<event>
12    1  0.1071811E-001  0.1748223E+03  0.7546771E-02  0.1173392E+00
         21   -1    0    0  501  502  0.00000000000E+00  0.00000000000E+00  0.50028208045E+02  0.50028208045E+02  0.00000000000E+00 0.  1.
         21   -1    0    0  502  503 -0.00000000000E+00 -0.00000000000E+00 -0.64220732518E+03  0.64220732518E+03  0.00000000000E+00 0.  1.
         -6    2    1    2    0  503  0.19234438564E+02 -0.90135953974E+00 -0.37868383837E+03  0.41629521984E+03  0.17184145175E+03 0.  0.
        -24    2    3    3    0    0 -0.50082610567E+02 -0.23487270296E+02 -0.23446885749E+03  0.25463190496E+03  0.82473281409E+02 0.  0.
          6    2    1    2  501    0 -0.19234438564E+02  0.90135953974E+00 -0.21349527876E+03  0.27594031338E+03  0.17375858661E+03 0.  0.
         24    2    5    5    0    0 -0.69628509498E+02  0.32779258088E+02 -0.16569752579E+03  0.19937349296E+03  0.79821742308E+02 0.  0.
          5    1    5    5  501    0  0.50394070934E+02 -0.31877898548E+02 -0.47797752968E+02  0.76566820425E+02  0.47000000000E+01 0. -1.
        -13    1    6    6    0    0 -0.34120275556E+02  0.22704925921E+02 -0.14091405085E+02  0.43339065084E+02  0.00000000000E+00 0.  1.
         14    1    6    6    0    0 -0.35508233943E+02  0.10074332166E+02 -0.15160612071E+03  0.15603442787E+03  0.00000000000E+00 0. -1.
         -5    1    3    3    0  503  0.69317049131E+02  0.22585910756E+02 -0.14421498089E+03  0.16166331488E+03  0.47000000000E+01 0.  1.
         13    1    4    4    0    0 -0.20144431475E+01  0.49723577665E+01  0.58315740070E+01  0.79239875284E+01  0.00000000000E+00 0. -1.
        -14    1    4    4    0    0 -0.48068167420E+02 -0.28459628062E+02 -0.24030043149E+03  0.24670791743E+03  0.00000000000E+00 0.  1.
<mgrwt>
<rscale>  2 0.17434397E+03</rscale>
<asrwt>0</asrwt>
<pdfrwt beam="1">  1       21 0.76966474E-02 0.17482226E+03</pdfrwt>
<pdfrwt beam="2">  1       21 0.98801127E-01 0.17482226E+03</pdfrwt>
<totfact> 0.10919784E+05</totfact>
</mgrwt>
</event>
<event>
12    1  0.1071811E-001  0.1817931E+03  0.7546771E-02  0.1166744E+00
         21   -1    0    0  501  502  0.00000000000E+00  0.00000000000E+00  0.38000567290E+03  0.38000567290E+03  0.00000000000E+00 0.  1.
         21   -1    0    0  502  503 -0.00000000000E+00 -0.00000000000E+00 -0.87154737438E+02  0.87154737438E+02  0.00000000000E+00 0.  1.
         -6    2    1    2    0  503 -0.55678261512E+02  0.30239147366E+01  0.17818156368E+03  0.25455333375E+03  0.17303039393E+03 0.  0.
        -24    2    3    3    0    0 -0.10684784620E+03  0.26492157878E+01  0.12055239438E+03  0.17734143085E+03  0.74118976811E+02 0.  0.
          6    2    1    2  501    0  0.55678261512E+02 -0.30239147366E+01  0.11466937178E+03  0.21260707658E+03  0.17012786757E+03 0.  0.
         24    2    5    5    0    0  0.38566203113E+02 -0.56217290945E+02  0.22959322204E+02  0.10511204875E+03  0.76639914488E+02 0.  0.
          5    1    5    5  501    0  0.17112058399E+02  0.53193376208E+02  0.91710049579E+02  0.10749502783E+03  0.47000000000E+01 0. -1.
        -13    1    6    6    0    0 -0.20979853055E+02 -0.16628780417E+02  0.20230124831E+02  0.33554858411E+02  0.00000000000E+00 0.  1.
         14    1    6    6    0    0  0.59546056167E+02 -0.39588510528E+02  0.27291973735E+01  0.71557190339E+02  0.00000000000E+00 0. -1.
         -5    1    3    3    0  503  0.51169584684E+02  0.37469894879E+00  0.57629169293E+02  0.77211902901E+02  0.47000000000E+01 0.  1.
         13    1    4    4    0    0 -0.21491551457E+02  0.20945453017E+01 -0.80027771651E+01  0.23028641871E+02  0.00000000000E+00 0. -1.
        -14    1    4    4    0    0 -0.85356294739E+02  0.55467048608E+00  0.12855517155E+03  0.15431278898E+03  0.00000000000E+00 0.  1.
<mgrwt>
<rscale>  2 0.18109903E+03</rscale>
<asrwt>0</asrwt>
<pdfrwt beam="1">  1       21 0.58462410E-01 0.18179310E+03</pdfrwt>
<pdfrwt beam="2">  1       21 0.13408421E-01 0.18179310E+03</pdfrwt>
<totfact> 0.13218867E+05</totfact>
</mgrwt>
</event>
<event>
12    1  0.1071811E-001  0.1818831E+03  0.7546771E-02  0.1166150E+00
         21   -1    0    0  501  502  0.00000000000E+00  0.00000000000E+00  0.98542597346E+03  0.98542597346E+03  0.00000000000E+00 0.  1.
         21   -1    0    0  502  503 -0.00000000000E+00 -0.00000000000E+00 -0.70041587260E+02  0.70041587260E+02  0.00000000000E+00 0.  1.
         -6    2    1    2    0  503  0.21532889563E+02  0.51912656495E+02  0.75854744080E+02  0.19646144979E+03  0.17229210608E+03 0.  0.
        -24    2    3    3    0    0 -0.25872923524E+02  0.71374089723E+02  0.90237048227E+02  0.14302925752E+03  0.80938092268E+02 0.  0.
          6    2    1    2  501    0 -0.21532889563E+02 -0.51912656495E+02  0.83952964212E+03  0.85900611093E+03  0.17298233834E+03 0.  0.
         24    2    5    5    0    0  0.53769431905E+02 -0.29495396454E+02  0.52064676973E+03  0.53055314706E+03  0.81562569929E+02 0.  0.
          5    1    5    5  501    0 -0.75302321468E+02 -0.22417260041E+02  0.31888287239E+03  0.32845296387E+03  0.47000000000E+01 0. -1.
        -13    1    6    6    0    0 -0.11814616151E+02 -0.20528436609E+02  0.27901581198E+03  0.28001933004E+03  0.00000000000E+00 0.  1.
         14    1    6    6    0    0  0.65584048056E+02 -0.89669598444E+01  0.24163095775E+03  0.25053381702E+03  0.00000000000E+00 0. -1.
         -5    1    3    3    0  503  0.47405813087E+02 -0.19461433228E+02 -0.14382304147E+02  0.53432192266E+02  0.47000000000E+01 0.  1.
         11    1    4    4    0    0  0.16345627143E+02  0.23737348757E+02  0.70853077395E+02  0.76490521172E+02  0.00000000000E+00 0. -1.
        -12    1    4    4    0    0 -0.42218550667E+02  0.47636740966E+02  0.19383970832E+02  0.66538736353E+02  0.00000000000E+00 0.  1.
<mgrwt>
<rscale>  2 0.18171884E+03</rscale>
<asrwt>0</asrwt>
<pdfrwt beam="1">  1       21 0.15160399E+00 0.18188315E+03</pdfrwt>
<pdfrwt beam="2">  1       21 0.10775630E-01 0.18188315E+03</pdfrwt>
<totfact> 0.20811515E+04</totfact>
</mgrwt>
</event>
<event>
12    1  0.1071811E-001  0.2523084E+03  0.7546771E-02  0.1111950E+00
         21   -1    0    0  503  502  0.00000000000E+00  0.00000000000E+00  0.11661239539E+04  0.11661239539E+04  0.00000000000E+00 0. -1.
         21   -1    0    0  501  503 -0.00000000000E+00 -0.00000000000E+00 -0.56409818540E+02  0.56409818540E+02  0.00000000000E+00 0. -1.
          6    2    1    2  501    0  0.11146009627E+03 -0.14628189518E+03  0.66916351593E+03  0.71514987099E+03  0.17273616012E+03 0.  0.
         24    2    3    3    0    0  0.12137647218E+03 -0.93805221726E+02  0.61508904415E+03  0.63900347077E+03  0.80369371041E+02 0.  0.
         -6    2    1    2    0  502 -0.11146009627E+03  0.14628189518E+03  0.44055061941E+03  0.50738390142E+03  0.17184827391E+03 0.  0.
        -24    2    5    5    0    0 -0.75142555189E+02  0.16717735033E+03  0.40824528677E+03  0.45426791181E+03  0.78105386918E+02 0.  0.
          5    1    3    3  501    0 -0.99163759134E+01 -0.52476673458E+02  0.54074471776E+02  0.76146400219E+02  0.47000000000E+01 0. -1.
        -13    1    4    4    0    0  0.15830309212E+02 -0.13245045709E+01  0.20409611570E+03  0.20471340319E+03  0.00000000000E+00 0.  1.
         14    1    4    4    0    0  0.10554616297E+03 -0.92480717155E+02  0.41099292845E+03  0.43429006758E+03  0.00000000000E+00 0. -1.
         -5    1    5    5    0  502 -0.36317541078E+02 -0.20895455149E+02  0.32305332635E+02  0.53115989612E+02  0.47000000000E+01 0.  1.
         11    1    6    6    0    0 -0.34145764128E+02  0.82801441213E+01  0.71736958801E+02  0.79879191612E+02  0.00000000000E+00 0. -1.
        -12    1    6    6    0    0 -0.40996791061E+02  0.15889720621E+03  0.33650832797E+03  0.37438872020E+03  0.00000000000E+00 0.  1.
<mgrwt>
<rscale>  2 0.25215650E+03</rscale>
<asrwt>0</asrwt>
<pdfrwt beam="1">  1       21 0.17940367E+00 0.25230840E+03</pdfrwt>
<pdfrwt beam="2">  1       21 0.86784345E-02 0.25230840E+03</pdfrwt>
<totfact> 0.18386564E+04</totfact>
</mgrwt>
</event>
<event>
12    1  0.1071811E-001  0.1770911E+03  0.7546771E-02  0.1171014E+00
         21   -1    0    0  501  502  0.00000000000E+00  0.00000000000E+00  0.44230948674E+02  0.44230948674E+02  0.00000000000E+00 0. -1.
         21   -1    0    0  502  503 -0.00000000000E+00 -0.00000000000E+00 -0.14482100691E+04  0.14482100691E+04  0.00000000000E+00 0. -1.
         -6    2    1    2    0  503  0.31435167524E+02 -0.53274290760E+01 -0.12358016640E+04  0.12482179081E+04  0.17270101994E+03 0.  0.
        -24    2    3    3    0    0 -0.45440957164E+02  0.11721095909E+02 -0.53641709247E+03  0.54439871290E+03  0.80152335153E+02 0.  0.
          6    2    1    2  501    0 -0.31435167524E+02  0.53274290760E+01 -0.16817745651E+03  0.24422310968E+03  0.17419735695E+03 0.  0.
         24    2    5    5    0    0  0.41553210984E+02  0.17561808286E+01 -0.13554215010E+03  0.16405322484E+03  0.82535038695E+02 0.  0.
          5    1    5    5  501    0 -0.72988378509E+02  0.35712482474E+01 -0.32635306411E+02  0.80169884844E+02  0.47000000000E+01 0. -1.
        -11    1    6    6    0    0  0.54616569614E+02 -0.26933507958E+02 -0.89750993534E+02  0.10846024326E+03  0.00000000000E+00 0.  1.
         12    1    6    6    0    0 -0.13063358630E+02  0.28689688787E+02 -0.45791156565E+02  0.55592981580E+02  0.00000000000E+00 0. -1.
         -5    1    3    3    0  503  0.76876124689E+02 -0.17048524985E+02 -0.69938457149E+03  0.70381919524E+03  0.47000000000E+01 0.  1.
         13    1    4    4    0    0 -0.29766637572E+02 -0.21867102166E+02 -0.43240585640E+03  0.43398046905E+03  0.00000000000E+00 0. -1.
        -14    1    4    4    0    0 -0.15674319592E+02  0.33588198075E+02 -0.10401123607E+03  0.11041824384E+03  0.00000000000E+00 0.  1.
<mgrwt>
<rscale>  2 0.17672206E+03</rscale>
<asrwt>0</asrwt>
<pdfrwt beam="1">  1       21 0.68047616E-02 0.17709114E+03</pdfrwt>
<pdfrwt beam="2">  1       21 0.22280154E+00 0.17709114E+03</pdfrwt>
<totfact> 0.15567146E+04</totfact>
</mgrwt>
</event>
<event>
12    1  0.1071811E-001  0.2423283E+03  0.7546771E-02  0.1118587E+00
         21   -1    0    0  501  502  0.00000000000E+00  0.00000000000E+00  0.13061241354E+03  0.13061241354E+03  0.00000000000E+00 0.  1.
         21   -1    0    0  502  503 -0.00000000000E+00 -0.00000000000E+00 -0.45573548216E+03  0.45573548216E+03  0.00000000000E+00 0.  1.
         -6    2    1    2    0  503 -0.26308483098E+02  0.16678885634E+03 -0.12003238926E+03  0.27042707181E+03  0.17381705271E+03 0.  0.
        -24    2    3    3    0    0  0.37818423519E+02  0.12397474530E+03 -0.36573113081E+02  0.15670438701E+03  0.80116800229E+02 0.  0.
          6    2    1    2  501    0  0.26308483098E+02 -0.16678885634E+03 -0.20509067935E+03  0.31592082389E+03  0.17097696139E+03 0.  0.
         24    2    5    5    0    0 -0.38322132915E+01 -0.12928178518E+03 -0.58364837331E+02  0.16143521070E+03  0.76983161645E+02 0.  0.
          5    1    5    5  501    0  0.30140696389E+02 -0.37507071159E+02 -0.14672584202E+03  0.15448561319E+03  0.47000000000E+01 0. -1.
        -11    1    6    6    0    0  0.32707258694E+02 -0.49643112175E+02 -0.40712938214E+02  0.72053776416E+02  0.00000000000E+00 0.  1.
         12    1    6    6    0    0 -0.36539471986E+02 -0.79638673009E+02 -0.17651899116E+02  0.89381434281E+02  0.00000000000E+00 0. -1.
         -5    1    3    3    0  503 -0.64126906617E+02  0.42814111046E+02 -0.83459276181E+02  0.11372268480E+03  0.47000000000E+01 0.  1.
         13    1    4    4    0    0  0.31639276025E+02  0.32139930727E+02  0.19272075612E+02  0.49045201936E+02  0.00000000000E+00 0. -1.
        -14    1    4    4    0    0  0.61791474946E+01  0.91834814571E+02 -0.55845188692E+02  0.10765918508E+03  0.00000000000E+00 0.  1.
<mgrwt>
<rscale>  2 0.24181950E+03</rscale>
<asrwt>0</asrwt>
<pdfrwt beam="1">  1       21 0.20094217E-01 0.24232834E+03</pdfrwt>
<pdfrwt beam="2">  1       21 0.70113152E-01 0.24232834E+03</pdfrwt>
<totfact> 0.41252540E+04</totfact>
</mgrwt>
</event>
<event>
12    1  0.1071811E-001  0.2089077E+03  0.7546771E-02  0.1142785E+00
         21   -1    0    0  503  502  0.00000000000E+00  0.00000000000E+00  0.34763967436E+03  0.34763967436E+03  0.00000000000E+00 0. -1.
         21   -1    0    0  501  503 -0.00000000000E+00 -0.00000000000E+00 -0.13444973204E+03  0.13444973204E+03  0.00000000000E+00 0.  1.
          6    2    1    2  501    0  0.30947833921E+02  0.11107347622E+03  0.40570863036E+02  0.21109167315E+03  0.17210059268E+03 0.  0.
         24    2    3    3    0    0 -0.32753474022E+02  0.77179088701E+02 -0.18501015522E+02  0.11772003412E+03  0.80537674813E+02 0.  0.
         -6    2    1    2    0  502 -0.30947833921E+02 -0.11107347622E+03  0.17261907928E+03  0.27099773325E+03  0.17420487753E+03 0.  0.
        -24    2    5    5    0    0  0.37576895241E+02 -0.33735570360E+02  0.12622076532E+03  0.15763246641E+03  0.79788477258E+02 0.  0.
          5    1    3    3  501    0  0.63701307943E+02  0.33894387519E+02  0.59071878558E+02  0.93371639031E+02  0.47000000000E+01 0. -1.
        -13    1    4    4    0    0 -0.14656109824E+02 -0.23707770718E+00 -0.33724550409E+02  0.36772313788E+02  0.00000000000E+00 0.  1.
         14    1    4    4    0    0 -0.18097364198E+02  0.77416166408E+02  0.15223534887E+02  0.80947720331E+02  0.00000000000E+00 0. -1.
         -5    1    5    5    0  502 -0.68524729162E+02 -0.77337905860E+02  0.46398313956E+02  0.11336526685E+03  0.47000000000E+01 0.  1.
         11    1    6    6    0    0 -0.13306790649E+02  0.81998743348E+01  0.67668645305E+02  0.69450372022E+02  0.00000000000E+00 0. -1.
        -12    1    6    6    0    0  0.50883685890E+02 -0.41935444695E+02  0.58552120016E+02  0.88182094383E+02  0.00000000000E+00 0.  1.
<mgrwt>
<rscale>  2 0.20846844E+03</rscale>
<asrwt>0</asrwt>
<pdfrwt beam="1">  1       21 0.53483027E-01 0.20890769E+03</pdfrwt>
<pdfrwt beam="2">  1       21 0.20684574E-01 0.20890769E+03</pdfrwt>
<totfact> 0.71202964E+04</totfact>
</mgrwt>
</event>
<event>
12    1  0.1071811E-001  0.2024976E+03  0.7546771E-02  0.1147656E+00
         21   -1    0    0  501  502  0.00000000000E+00  0.00000000000E+00  0.84402846169E+03  0.84402846169E+03  0.00000000000E+00 0. -1.
         21   -1    0    0  502  503 -0.00000000000E+00 -0.00000000000E+00 -0.53550055866E+02  0.53550055866E+02  0.00000000000E+00 0. -1.
         -6    2    1    2    0  503 -0.10261841350E+03  0.16552985026E+02  0.25847200653E+03  0.32834897791E+03  0.17378358102E+03 0.  0.
        -24    2    3    3    0    0 -0.78254517752E+02 -0.10387468299E+02  0.26778876234E+03  0.29055639424E+03  0.80501726379E+02 0.  0.
          6    2    1    2  501    0  0.10261841350E+03 -0.16552985026E+02  0.53200639930E+03  0.56922953965E+03  0.17374383388E+03 0.  0.
         24    2    5    5    0    0  0.81409141015E+02  0.55875266430E+02  0.35377095371E+03  0.37561743023E+03  0.78645232313E+02 0.  0.
          5    1    5    5  501    0  0.21209272486E+02 -0.72428251455E+02  0.17823544559E+03  0.19361210941E+03  0.47000000000E+01 0. -1.
        -13    1    6    6    0    0 -0.14781152098E+02  0.15933150056E+02  0.72220976875E+02  0.75420270676E+02  0.00000000000E+00 0.  1.
         14    1    6    6    0    0  0.96190293112E+02  0.39942116373E+02  0.28154997684E+03  0.30019715956E+03  0.00000000000E+00 0. -1.
         -5    1    3    3    0  503 -0.24363895749E+02  0.26940453324E+02 -0.93167558181E+01  0.37792583669E+02  0.47000000000E+01 0.  1.
         11    1    4    4    0    0 -0.38952870753E+02  0.92356683748E+01  0.33544889328E+02  0.52229142346E+02  0.00000000000E+00 0. -1.
        -12    1    4    4    0    0 -0.39301646999E+02 -0.19623136674E+02  0.23424387302E+03  0.23832725189E+03  0.00000000000E+00 0.  1.
<mgrwt>
<rscale>  2 0.20248906E+03</rscale>
<asrwt>0</asrwt>
<pdfrwt beam="1">  1       21 0.12985052E+00 0.20249759E+03</pdfrwt>
<pdfrwt beam="2">  1       21 0.82384708E-02 0.20249759E+03</pdfrwt>
<totfact> 0.49162375E+04</totfact>
</mgrwt>
</event>
<event>
12    1  0.1071811E-001  0.2244142E+03  0.7546771E-02  0.1130725E+00
         21   -1    0    0  501  502  0.00000000000E+00  0.00000000000E+00  0.27186037814E+03  0.27186037814E+03  0.00000000000E+00 0.  1.
         21   -1    0    0  502  503 -0.00000000000E+00 -0.00000000000E+00 -0.18996184842E+03  0.18996184842E+03  0.00000000000E+00 0. -1.
         -6    2    1    2    0  503 -0.10564563861E+03  0.95729743746E+02  0.29737482892E+01  0.22393388457E+03  0.17266255148E+03 0.  0.
        -24    2    3    3    0    0 -0.87079496119E+02  0.11020569524E+02  0.43513794268E+02  0.12809062100E+03  0.82519484361E+02 0.  0.
          6    2    1    2  501    0  0.10564563861E+03 -0.95729743746E+02  0.78924781431E+02  0.23788834198E+03  0.17331058056E+03 0.  0.
         24    2    5    5    0    0  0.11037708311E+03 -0.30757981231E+02  0.57828973323E+01  0.13982947344E+03  0.79935510600E+02 0.  0.
          5    1    5    5  501    0 -0.47314444974E+01 -0.64971762515E+02  0.73141884098E+02  0.98058868547E+02  0.47000000000E+01 0. -1.
        -13    1    6    6    0    0  0.63034132914E+02  0.10108844479E+02  0.32716790043E+02  0.71734782356E+02  0.00000000000E+00 0.  1.
         14    1    6    6    0    0  0.47342950195E+02 -0.40866825710E+02 -0.26933892711E+02  0.68094691080E+02  0.00000000000E+00 0. -1.
         -5    1    3    3    0  503 -0.18566142493E+02  0.84709174222E+02 -0.40540045979E+02  0.95843263573E+02  0.47000000000E+01 0.  1.
         13    1    4    4    0    0 -0.17030539020E+02 -0.16134191584E+02 -0.19131113179E+02  0.30271288192E+02  0.00000000000E+00 0. -1.
        -14    1    4    4    0    0 -0.70048957099E+02  0.27154761108E+02  0.62644907447E+02  0.97819332806E+02  0.00000000000E+00 0.  1.
<mgrwt>
<rscale>  2 0.22428910E+03</rscale>
<asrwt>0</asrwt>
<pdfrwt beam="1">  1       21 0.41824674E-01 0.22441422E+03</pdfrwt>
<pdfrwt beam="2">  1       21 0.29224900E-01 0.22441422E+03</pdfrwt>
<totfact> 0.60835870E+04</totfact>
</mgrwt>
</event>
<event>
12    1  0.1071811E-001  0.2136198E+03  0.7546771E-02  0.1142662E+00
         21   -1    0    0  503  502  0.00000000000E+00  0.00000000000E+00  0.50516791146E+03  0.50516791146E+03  0.00000000000E+00 0.  1.
         21   -1    0    0  501  503 -0.00000000000E+00 -0.00000000000E+00 -0.31044158630E+03  0.31044158630E+03  0.00000000000E+00 0. -1.
          6    2    1    2  501    0  0.84970719299E+02  0.18392669466E+02 -0.25330611864E+03  0.31925632220E+03  0.17378807811E+03 0.  0.
         24    2    3    3    0    0  0.39138484682E+02 -0.11262654328E+02 -0.40001276350E+02  0.99026719953E+02  0.80916752216E+02 0.  0.
         -6    2    1    2    0  502 -0.84970719299E+02 -0.18392669466E+02  0.44803244380E+03  0.49635317556E+03  0.19512839558E+03 0.  0.
        -24    2    5    5    0    0 -0.12760775967E+02 -0.60151402236E+02  0.36494492134E+03  0.37852408718E+03  0.79464837345E+02 0.  0.
          5    1    3    3  501    0  0.45832234616E+02  0.29655323794E+02 -0.21330484229E+03  0.22022960225E+03  0.47000000000E+01 0. -1.
        -13    1    4    4    0    0  0.54565073747E+02  0.17705317203E+02 -0.20906729446E+02  0.61056669303E+02  0.00000000000E+00 0.  1.
         14    1    4    4    0    0 -0.15426589065E+02 -0.28967971531E+02 -0.19094546905E+02  0.37970050649E+02  0.00000000000E+00 0. -1.
         -5    1    5    5    0  502 -0.72209943332E+02  0.41758732770E+02  0.83087522468E+02  0.11782908838E+03  0.47000000000E+01 0.  1.
         11    1    6    6    0    0 -0.11663305917E+02 -0.52802029616E+02  0.10176910241E+03  0.11524338264E+03  0.00000000000E+00 0. -1.
        -12    1    6    6    0    0 -0.10974700498E+01 -0.73493726204E+01  0.26317581892E+03  0.26328070454E+03  0.00000000000E+00 0.  1.
<mgrwt>
<rscale>  2 0.20862241E+03</rscale>
<asrwt>0</asrwt>
<pdfrwt beam="1">  1       21 0.77718140E-01 0.21361977E+03</pdfrwt>
<pdfrwt beam="2">  1       21 0.47760244E-01 0.21361977E+03</pdfrwt>
<totfact> 0.60580580E+03</totfact>
</mgrwt>
</event>
<event>
12    1  0.1071811E-001  0.1804810E+03  0.7546771E-02  0.1167384E+00
         21   -1    0    0  501  502  0.00000000000E+00  0.00000000000E+00  0.16498568356E+03  0.16498568356E+03  0.00000000000E+00 0.  1.
         21   -1    0    0  502  503 -0.00000000000E+00 -0.00000000000E+00 -0.23673969255E+03  0.23673969255E+03  0.00000000000E+00 0.  1.
         -6    2    1    2    0  503  0.28776830826E+02  0.35079256494E+02 -0.11792391666E+03  0.21543248935E+03  0.17448910316E+03 0.  0.
        -24    2    3    3    0    0  0.13712658403E+02  0.87245216653E+02 -0.67046292800E+02  0.14087486533E+03  0.86895094652E+02 0.  0.
          6    2    1    2  501    0 -0.28776830826E+02 -0.35079256494E+02  0.46169907666E+02  0.18629288676E+03  0.17468462741E+03 0.  0.
         24    2    5    5    0    0 -0.47383426036E+02 -0.36743657864E+02  0.90613872407E+02  0.13785393942E+03  0.84838371535E+02 0.  0.
          5    1    5    5  501    0  0.18606595210E+02  0.16644013705E+01 -0.44443964741E+02  0.48438947337E+02  0.47000000000E+01 0. -1.
        -13    1    6    6    0    0 -0.41209334568E+02  0.15115344566E+02  0.15875625841E+02  0.46676743596E+02  0.00000000000E+00 0.  1.
         14    1    6    6    0    0 -0.61740914684E+01 -0.51859002430E+02  0.74738246565E+02  0.91177195823E+02  0.00000000000E+00 0. -1.
         -5    1    3    3    0  503  0.15064172423E+02 -0.52165960160E+02 -0.50877623859E+02  0.74557624021E+02  0.47000000000E+01 0.  1.
         13    1    4    4    0    0  0.47926170775E+02  0.61417172239E+02 -0.57843855122E+02  0.97030399702E+02  0.00000000000E+00 0. -1.
        -14    1    4    4    0    0 -0.34213512372E+02  0.25828044414E+02 -0.92024376776E+01  0.43844465629E+02  0.00000000000E+00 0.  1.
<mgrwt>
<rscale>  2 0.18043364E+03</rscale>
<asrwt>0</asrwt>
<pdfrwt beam="1">  1       21 0.25382413E-01 0.18048097E+03</pdfrwt>
<pdfrwt beam="2">  1       21 0.36421491E-01 0.18048097E+03</pdfrwt>
<totfact> 0.10744707E+05</totfact>
</mgrwt>
</event>
<event>
12    1  0.1071811E-001  0.1802139E+03  0.7546771E-02  0.1167784E+00
         21   -1    0    0  501  502  0.00000000000E+00  0.00000000000E+00  0.35737657669E+03  0.35737657669E+03  0.00000000000E+00 0. -1.
         21   -1    0    0  502  503 -0.00000000000E+00 -0.00000000000E+00 -0.14295889056E+03  0.14295889056E+03  0.00000000000E+00 0. -1.
         -6    2    1    2    0  503 -0.18799458944E+02  0.48151817942E+02 -0.44208293064E+02  0.18555709147E+03  0.17264137334E+03 0.  0.
        -24    2    3    3    0    0 -0.41937412841E+02 -0.77886558821E+01  0.21066391170E+02  0.96407913545E+02  0.83852747128E+02 0.  0.
          6    2    1    2  501    0  0.18799458944E+02 -0.48151817942E+02  0.25862597919E+03  0.31477837578E+03  0.17183134615E+03 0.  0.
         24    2    5    5    0    0 -0.31527782267E+01 -0.54340793475E+01  0.25408604870E+03  0.26630769520E+03  0.79502195863E+02 0.  0.
          5    1    5    5  501    0  0.21952237170E+02 -0.42717738595E+02  0.45399304844E+01  0.48470680583E+02  0.47000000000E+01 0. -1.
        -11    1    6    6    0    0  0.32394880800E+02  0.17306973758E+02  0.13744562925E+03  0.14226826998E+03  0.00000000000E+00 0.  1.
         12    1    6    6    0    0 -0.35547659026E+02 -0.22741053105E+02  0.11664041946E+03  0.12403942522E+03  0.00000000000E+00 0. -1.
         -5    1    3    3    0  503  0.23137953898E+02  0.55940473824E+02 -0.65274684234E+02  0.89149177921E+02  0.47000000000E+01 0.  1.
         11    1    4    4    0    0 -0.22424955350E+02  0.27801545912E+02  0.38248163204E+02  0.52332844047E+02  0.00000000000E+00 0. -1.
        -12    1    4    4    0    0 -0.19512457491E+02 -0.35590201794E+02 -0.17181772033E+02  0.44075069499E+02  0.00000000000E+00 0.  1.
<mgrwt>
<rscale>  2 0.18001966E+03</rscale>
<asrwt>0</asrwt>
<pdfrwt beam="1">  1       21 0.54981012E-01 0.18021393E+03</pdfrwt>
<pdfrwt beam="2">  1       21 0.21993675E-01 0.18021393E+03</pdfrwt>
<totfact> 0.60622530E+04</totfact>
</mgrwt>
</event>
<event>
12    1  0.1071811E-001  0.1761908E+03  0.7546771E-02  0.1171655E+00
         21   -1    0    0  503  502  0.00000000000E+00  0.00000000000E+00  0.77969684500E+03  0.77969684500E+03  0.00000000000E+00 0.  1.
         21   -1    0    0  501  503 -0.00000000000E+00 -0.00000000000E+00 -0.42812879011E+02  0.42812879011E+02  0.00000000000E+00 0.  1.
          6    2    1    2  501    0  0.22927732642E+02 -0.25809843268E+02  0.47869342432E+03  0.50993083151E+03  0.17230852998E+03 0.  0.
         24    2    3    3    0    0 -0.27928024865E+02  0.36957118899E+02  0.18152211560E+03  0.20193914925E+03  0.75387919062E+02 0.  0.
         -6    2    1    2    0  502 -0.22927732642E+02  0.25809843268E+02  0.25819054167E+03  0.31257889250E+03  0.17277551706E+03 0.  0.
        -24    2    5    5    0    0  0.18828977976E+02 -0.14285461240E+02  0.33707487974E+02  0.80703952669E+02  0.69414180226E+02 0.  0.
          5    1    3    3  501    0  0.50855757507E+02 -0.62766962167E+02  0.29717130872E+03  0.30799168226E+03  0.47000000000E+01 0. -1.
        -13    1    4    4    0    0 -0.33613676571E+02  0.47847136334E+02  0.18035683605E+03  0.18959909287E+03  0.00000000000E+00 0.  1.
         14    1    4    4    0    0  0.56856517055E+01 -0.10890017435E+02  0.11652795445E+01  0.12340056380E+02  0.00000000000E+00 0. -1.
         -5    1    5    5    0  502 -0.41756710618E+02  0.40095304508E+02  0.22448305370E+03  0.23187493984E+03  0.47000000000E+01 0.  1.
         13    1    6    6    0    0 -0.85259301838E+00 -0.15195584053E+01  0.51332211618E+02  0.51361774912E+02  0.00000000000E+00 0. -1.
        -14    1    6    6    0    0  0.19681570994E+02 -0.12765902835E+02 -0.17624723644E+02  0.29342177757E+02  0.00000000000E+00 0.  1.
<mgrwt>
<rscale>  2 0.17607624E+03</rscale>
<asrwt>0</asrwt>
<pdfrwt beam="1">  1       21 0.11995335E+00 0.17619083E+03</pdfrwt>
<pdfrwt beam="2">  1       21 0.65865973E-02 0.17619083E+03</pdfrwt>
<totfact> 0.89469411E+04</totfact>
</mgrwt>
</event>
<event>
12    1  0.1071811E-001  0.2481558E+03  0.7546771E-02  0.1114739E+00
         21   -1    0    0  501  502  0.00000000000E+00  0.00000000000E+00  0.19917012258E+03  0.19917012258E+03  0.00000000000E+00 0. -1.
         21   -1    0    0  502  503 -0.00000000000E+00 -0.00000000000E+00 -0.31148808338E+03  0.31148808338E+03  0.00000000000E+00 0.  1.
         -6    2    1    2    0  503 -0.21614795166E+01  0.17771871925E+03 -0.25835415234E+02  0.24786451451E+03  0.17082369187E+03 0.  0.
        -24    2    3    3    0    0  0.21875854779E+02  0.30609779231E+02 -0.30258356297E+02  0.98665030319E+02  0.86044805044E+02 0.  0.
          6    2    1    2  501    0  0.21614795166E+01 -0.17771871925E+03 -0.86482545562E+02  0.26279369145E+03  0.17318394387E+03 0.  0.
         24    2    5    5    0    0  0.52387086261E+02 -0.57701434468E+02 -0.44386623374E+02  0.12596928981E+03  0.88454662366E+02 0.  0.
          5    1    5    5  501    0 -0.50225606745E+02 -0.12001728479E+03 -0.42095922188E+02  0.13682440164E+03  0.47000000000E+01 0. -1.
        -11    1    6    6    0    0  0.45552966272E+02 -0.43200536695E+02 -0.71078106696E+02  0.94833835515E+02  0.00000000000E+00 0.  1.
         12    1    6    6    0    0  0.68341199896E+01 -0.14500897773E+02  0.26691483323E+02  0.31135454296E+02  0.00000000000E+00 0. -1.
         -5    1    3    3    0  503 -0.24037334295E+02  0.14710894002E+03  0.44229410635E+01  0.14919948419E+03  0.47000000000E+01 0.  1.
         13    1    4    4    0    0  0.45643937166E+02  0.44548618692E+02 -0.31393215020E+02  0.71087849712E+02  0.00000000000E+00 0. -1.
        -14    1    4    4    0    0 -0.23768082388E+02 -0.13938839460E+02  0.11348587229E+01  0.27577180607E+02  0.00000000000E+00 0.  1.
<mgrwt>
<rscale>  2 0.24774442E+03</rscale>
<asrwt>0</asrwt>
<pdfrwt beam="1">  1       21 0.30641557E-01 0.24815578E+03</pdfrwt>
<pdfrwt beam="2">  1       21 0.47921244E-01 0.24815578E+03</pdfrwt>
<totfact> 0.41469397E+04</totfact>
</mgrwt>
</event>
<event>
12    1  0.1071811E-001  0.2128839E+03  0.7546771E-02  0.1142345E+00
         21   -1    0    0  503  502  0.00000000000E+00  0.00000000000E+00  0.14223594577E+03  0.14223594577E+03  0.00000000000E+00 0. -1.
         21   -1    0    0  501  503 -0.00000000000E+00 -0.00000000000E+00 -0.41858264080E+03  0.41858264080E+03  0.00000000000E+00 0. -1.
          6    2    1    2  501    0 -0.12318763181E+03 -0.63550216873E+01 -0.29311780324E+03  0.36226728450E+03  0.17350492763E+03 0.  0.
         24    2    3    3    0    0 -0.63856275880E+02 -0.16148806876E+01 -0.55656851366E+02  0.11741534475E+03  0.81292350629E+02 0.  0.
         -6    2    1    2    0  502  0.12318763181E+03  0.63550216873E+01  0.16771108215E+02  0.19855130207E+03  0.15467957380E+03 0.  0.
        -24    2    5    5    0    0  0.14966781020E+03 -0.12715422607E+01  0.15010211662E+02  0.17054139165E+03  0.80355395487E+02 0.  0.
          5    1    3    3  501    0 -0.59331355932E+02 -0.47401409996E+01 -0.23746095188E+03  0.24485193975E+03  0.47000000000E+01 0. -1.
        -11    1    4    4    0    0 -0.31556965581E+02  0.34263553838E+02 -0.50756998878E+02  0.68891988891E+02  0.00000000000E+00 0.  1.
         12    1    4    4    0    0 -0.32299310299E+02 -0.35878434525E+02 -0.48998524881E+01  0.48523355863E+02  0.00000000000E+00 0. -1.
         -5    1    5    5    0  502 -0.26480178383E+02  0.76265639479E+01  0.17608965527E+01  0.28009910416E+02  0.47000000000E+01 0.  1.
         13    1    6    6    0    0  0.70459311312E+01  0.10510383750E+02 -0.19579816459E+02  0.23312711654E+02  0.00000000000E+00 0. -1.
        -14    1    6    6    0    0  0.14262187906E+03 -0.11781926011E+02  0.34590028121E+02  0.14722868000E+03  0.00000000000E+00 0.  1.
<mgrwt>
<rscale>  2 0.20901937E+03</rscale>
<asrwt>0</asrwt>
<pdfrwt beam="1">  1       21 0.21882453E-01 0.21288386E+03</pdfrwt>
<pdfrwt beam="2">  1       21 0.64397330E-01 0.21288386E+03</pdfrwt>
<totfact> 0.42928337E+04</totfact>
</mgrwt>
</event>
<event>
12    1  0.1071811E-001  0.1971858E+03  0.7546771E-02  0.1152136E+00
         21   -1    0    0  503  502  0.00000000000E+00  0.00000000000E+00  0.69639857043E+02  0.69639857043E+02  0.00000000000E+00 0. -1.
         21   -1    0    0  501  503 -0.00000000000E+00 -0.00000000000E+00 -0.58084678502E+03  0.58084678502E+03  0.00000000000E+00 0. -1.
          6    2    1    2  501    0  0.49083012943E+02 -0.82399428206E+02 -0.31965930414E+03  0.37558527784E+03  0.17228877583E+03 0.  0.
         24    2    3    3    0    0 -0.22760091786E+02 -0.89322804663E+02 -0.16960286633E+03  0.20900679974E+03  0.80138161059E+02 0.  0.
         -6    2    1    2    0  502 -0.49083012943E+02  0.82399428206E+02 -0.19154762383E+03  0.27490136422E+03  0.17228308079E+03 0.  0.
        -24    2    5    5    0    0  0.14212961820E+02  0.10267661189E+03 -0.12219919200E+03  0.17873047675E+03  0.79167202055E+02 0.  0.
          5    1    3    3  501    0  0.71843104729E+02  0.69233764578E+01 -0.15005643782E+03  0.16657847811E+03  0.47000000000E+01 0. -1.
        -11    1    4    4    0    0  0.25130952650E+02 -0.44795325074E+02 -0.45003268060E+02  0.68289677592E+02  0.00000000000E+00 0.  1.
         12    1    4    4    0    0 -0.47891044435E+02 -0.44527479590E+02 -0.12459959827E+03  0.14071712214E+03  0.00000000000E+00 0. -1.
         -5    1    5    5    0  502 -0.63295974763E+02 -0.20277183681E+02 -0.69348431828E+02  0.96170887467E+02  0.47000000000E+01 0.  1.
         11    1    6    6    0    0 -0.12306005869E+02  0.60883171502E+02 -0.20133145239E+02  0.65295803003E+02  0.00000000000E+00 0. -1.
        -12    1    6    6    0    0  0.26518967688E+02  0.41793440385E+02 -0.10206604676E+03  0.11343467375E+03  0.00000000000E+00 0.  1.
<mgrwt>
<rscale>  2 0.19718453E+03</rscale>
<asrwt>0</asrwt>
<pdfrwt beam="1">  1       21 0.10713824E-01 0.19718578E+03</pdfrwt>
<pdfrwt beam="2">  1       21 0.89361041E-01 0.19718578E+03</pdfrwt>
<totfact> 0.76548321E+04</totfact>
</mgrwt>
</event>
<event>
12    1  0.1071811E-001  0.2034876E+03  0.7546771E-02  0.1147104E+00
         21   -1    0    0  503  502  0.00000000000E+00  0.00000000000E+00  0.74532039946E+03  0.74532039946E+03  0.00000000000E+00 0. -1.
         21   -1    0    0  501  503 -0.00000000000E+00 -0.00000000000E+00 -0.59117428374E+02  0.59117428374E+02  0.00000000000E+00 0.  1.
          6    2    1    2  501    0 -0.10690305364E+03 -0.32637719623E+01  0.24054174859E+03  0.31506748862E+03  0.17311347287E+03 0.  0.
         24    2    3    3    0    0 -0.12480827928E+03 -0.47166288039E+02  0.19108684562E+03  0.24639503817E+03  0.79966036292E+02 0.  0.
         -6    2    1    2    0  502  0.10690305364E+03  0.32637719623E+01  0.44566122250E+03  0.48937033921E+03  0.17155316546E+03 0.  0.
        -24    2    5    5    0    0 -0.60142842375E+01 -0.20306748264E+02  0.22731150367E+03  0.24237927799E+03  0.81416577272E+02 0.  0.
          5    1    3    3  501    0  0.17905225649E+02  0.43902516077E+02  0.49454902972E+02  0.68672450454E+02  0.47000000000E+01 0. -1.
        -11    1    4    4    0    0 -0.56261343697E+02  0.19733005919E+02  0.78581612641E+02  0.98639749404E+02  0.00000000000E+00 0.  1.
         12    1    4    4    0    0 -0.68546935587E+02 -0.66899293958E+02  0.11250523298E+03  0.14775528876E+03  0.00000000000E+00 0. -1.
         -5    1    5    5    0  502  0.11291733787E+03  0.23570520226E+02  0.21834971882E+03  0.24699106123E+03  0.47000000000E+01 0.  1.
         11    1    6    6    0    0  0.11219908414E+02 -0.31907277870E+02  0.21618072362E+03  0.21881057102E+03  0.00000000000E+00 0. -1.
        -12    1    6    6    0    0 -0.17234192651E+02  0.11600529606E+02  0.11130780058E+02  0.23568706969E+02  0.00000000000E+00 0.  1.
<mgrwt>
<rscale>  2 0.20315532E+03</rscale>
<asrwt>0</asrwt>
<pdfrwt beam="1">  1       21 0.11466467E+00 0.20348757E+03</pdfrwt>
<pdfrwt beam="2">  1       21 0.90949895E-02 0.20348757E+03</pdfrwt>
<totfact> 0.56310028E+04</totfact>
</mgrwt>
</event>
<event>
12    1  0.1071811E-001  0.1825939E+03  0.7546771E-02  0.1165665E+00
         21   -1    0    0  503  502  0.00000000000E+00  0.00000000000E+00  0.26513849005E+03  0.26513849005E+03  0.00000000000E+00 0. -1.
         21   -1    0    0  501  503 -0.00000000000E+00 -0.00000000000E+00 -0.24098299738E+03  0.24098299738E+03  0.00000000000E+00 0.  1.
          6    2    1    2  501    0 -0.19260795804E+02  0.50430200828E+02  0.18780845579E+03  0.26092194658E+03  0.17289899576E+03 0.  0.
         24    2    3    3    0    0  0.15921305327E+02  0.93506671123E+02  0.13229609533E+03  0.18220044573E+03  0.81839844068E+02 0.  0.
         -6    2    1    2    0  502  0.19260795804E+02 -0.50430200828E+02 -0.16365296312E+03  0.24519954085E+03  0.17443147390E+03 0.  0.
        -24    2    5    5    0    0  0.71078586902E+02 -0.59669410590E+02 -0.81052739023E+02  0.14714173396E+03  0.80427229806E+02 0.  0.
          5    1    3    3  501    0 -0.35182101131E+02 -0.43076470294E+02  0.55512360452E+02  0.78721500849E+02  0.47000000000E+01 0. -1.
        -11    1    4    4    0    0 -0.23652916398E+02  0.22515538299E+01  0.39913098232E+02  0.46449815493E+02  0.00000000000E+00 0.  1.
         12    1    4    4    0    0  0.39574221725E+02  0.91255117293E+02  0.92382997101E+02  0.13575063024E+03  0.00000000000E+00 0. -1.
         -5    1    5    5    0  502 -0.51817791098E+02  0.92392097613E+01 -0.82600224093E+02  0.98057806887E+02  0.47000000000E+01 0.  1.
         13    1    6    6    0    0  0.50319349967E+02  0.54222054504E+01 -0.53004977345E+02  0.73286867285E+02  0.00000000000E+00 0. -1.
        -14    1    6    6    0    0  0.20759236935E+02 -0.65091616040E+02 -0.28047761677E+02  0.73854866677E+02  0.00000000000E+00 0.  1.
<mgrwt>
<rscale>  2 0.18222692E+03</rscale>
<asrwt>0</asrwt>
<pdfrwt beam="1">  1       21 0.40790537E-01 0.18259387E+03</pdfrwt>
<pdfrwt beam="2">  1       21 0.37074307E-01 0.18259387E+03</pdfrwt>
<totfact> 0.40827078E+04</totfact>
</mgrwt>
</event>
<event>
12    1  0.1071811E-001  0.2323874E+03  0.7546771E-02  0.1125607E+00
         21   -1    0    0  503  502  0.00000000000E+00  0.00000000000E+00  0.50657346970E+03  0.50657346970E+03  0.00000000000E+00 0. -1.
         21   -1    0    0  501  503 -0.00000000000E+00 -0.00000000000E+00 -0.18048057110E+03  0.18048057110E+03  0.00000000000E+00 0.  1.
          6    2    1    2  501    0  0.64056829147E+02  0.13410809672E+03 -0.58441011094E+02  0.23962317647E+03  0.17864953389E+03 0.  0.
         24    2    3    3    0    0  0.76695937178E+02  0.15830251389E+03 -0.22399496281E+02  0.19416772944E+03  0.79103837068E+02 0.  0.
         -6    2    1    2    0  502 -0.64056829147E+02 -0.13410809672E+03  0.38453390969E+03  0.44743086433E+03  0.17389592199E+03 0.  0.
        -24    2    5    5    0    0 -0.10866623539E+03 -0.93747056884E+02  0.31322357939E+03  0.35401638006E+03  0.81373984061E+02 0.  0.
          5    1    3    3  501    0 -0.12639108030E+02 -0.24194417178E+02 -0.36041514813E+02  0.45455447027E+02  0.47000000000E+01 0. -1.
        -13    1    4    4    0    0  0.34002117385E+02  0.11828268362E+03  0.16099093376E+02  0.12412138429E+03  0.00000000000E+00 0.  1.
         14    1    4    4    0    0  0.42693819793E+02  0.40019830276E+02 -0.38498589657E+02  0.70046345154E+02  0.00000000000E+00 0. -1.
         -5    1    5    5    0  502  0.44609406242E+02 -0.40361039832E+02  0.71310330308E+02  0.93414484264E+02  0.47000000000E+01 0.  1.
         11    1    6    6    0    0 -0.27556030764E+02 -0.67798438527E+02  0.19526849309E+03  0.20853236557E+03  0.00000000000E+00 0. -1.
        -12    1    6    6    0    0 -0.81110204625E+02 -0.25948618357E+02  0.11795508630E+03  0.14548401449E+03  0.00000000000E+00 0.  1.
<mgrwt>
<rscale>  2 0.23147350E+03</rscale>
<asrwt>0</asrwt>
<pdfrwt beam="1">  1       21 0.77934379E-01 0.23238742E+03</pdfrwt>
<pdfrwt beam="2">  1       21 0.27766242E-01 0.23238742E+03</pdfrwt>
<totfact> 0.17647410E+04</totfact>
</mgrwt>
</event>
<event>
12    1  0.1071811E-001  0.2033242E+03  0.7546771E-02  0.1147951E+00
         21   -1    0    0  503  502  0.00000000000E+00  0.00000000000E+00  0.71286242979E+03  0.71286242979E+03  0.00000000000E+00 0.  1.
         21   -1    0    0  501  503 -0.00000000000E+00 -0.00000000000E+00 -0.69500236936E+02  0.69500236936E+02  0.00000000000E+00 0. -1.
          6    2    1    2  501    0 -0.81012543965E+02  0.72785435787E+02  0.15659405859E+03  0.25663677434E+03  0.17169735821E+03 0.  0.
         24    2    3    3    0    0 -0.43892418999E+02  0.89040551496E+02  0.17194640223E+03  0.21304873792E+03  0.77262120287E+02 0.  0.
         -6    2    1    2    0  502  0.81012543965E+02 -0.72785435787E+02  0.48676813426E+03  0.52572589238E+03  0.16608354959E+03 0.  0.
        -24    2    5    5    0    0  0.30924969309E+02 -0.77835638527E+02  0.18490199323E+03  0.21965477845E+03  0.83932915137E+02 0.  0.
          5    1    3    3  501    0 -0.37120124965E+02 -0.16255115709E+02 -0.15352343642E+02  0.43588036426E+02  0.47000000000E+01 0. -1.
        -13    1    4    4    0    0 -0.51166664920E+02  0.18247587991E+02  0.67138248587E+02  0.86362876804E+02  0.00000000000E+00 0.  1.
         14    1    4    4    0    0  0.72742459207E+01  0.70792963505E+02  0.10480815365E+03  0.12668586112E+03  0.00000000000E+00 0. -1.
         -5    1    5    5    0  502  0.50087574656E+02  0.50502027398E+01  0.30186614103E+03  0.30607111393E+03  0.47000000000E+01 0.  1.
         13    1    6    6    0    0  0.34588429291E+02 -0.19446448438E+02  0.14109187690E+03  0.14656548545E+03  0.00000000000E+00 0. -1.
        -14    1    6    6    0    0 -0.36634599817E+01 -0.58389190089E+02  0.43810116328E+02  0.73089292998E+02  0.00000000000E+00 0.  1.
<mgrwt>
<rscale>  2 0.20213435E+03</rscale>
<asrwt>0</asrwt>
<pdfrwt beam="1">  1       21 0.10967114E+00 0.20332421E+03</pdfrwt>
<pdfrwt beam="2">  1       21 0.10692345E-01 0.20332421E+03</pdfrwt>
<totfact> 0.47148224E+04</totfact>
</mgrwt>
</event>
<event>
12    1  0.1071811E-001  0.1963128E+03  0.7546771E-02  0.1153029E+00
         21   -1    0    0  503  502  0.00000000000E+00  0.00000000000E+00  0.82872385492E+02  0.82872385492E+02  0.00000000000E+00 0. -1.
         21   -1    0    0  501  503 -0.00000000000E+00 -0.00000000000E+00 -0.46359403851E+03  0.46359403851E+03  0.00000000000E+00 0.  1.
          6    2    1    2  501    0  0.79648781355E+02  0.43731412038E+02 -0.18600702458E+03  0.26996594301E+03  0.17328194489E+03 0.  0.
         24    2    3    3    0    0  0.11909084974E+03  0.50168958954E+02 -0.11678105512E+03  0.18989445236E+03  0.75647427357E+02 0.  0.
         -6    2    1    2    0  502 -0.79648781355E+02 -0.43731412038E+02 -0.19471462844E+03  0.27650048099E+03  0.17401828838E+03 0.  0.
        -24    2    5    5    0    0  0.21726329559E+02  0.19923641951E+01 -0.10093018294E+03  0.13094915312E+03  0.80528106676E+02 0.  0.
          5    1    3    3  501    0 -0.39442068385E+02 -0.64375469157E+01 -0.69225969456E+02  0.80071490656E+02  0.47000000000E+01 0. -1.
        -13    1    4    4    0    0  0.11441085958E+03  0.63526621371E+02 -0.11728655604E+03  0.17573164951E+03  0.00000000000E+00 0.  1.
         14    1    4    4    0    0  0.46799901626E+01 -0.13357662417E+02  0.50550092169E+00  0.14162802842E+02  0.00000000000E+00 0. -1.
         -5    1    5    5    0  502 -0.10137511091E+03 -0.45723776233E+02 -0.93784445504E+02  0.14555132787E+03  0.47000000000E+01 0.  1.
         13    1    6    6    0    0  0.24840035274E+00 -0.58298311243E+00  0.13993249044E+02  0.14007590473E+02  0.00000000000E+00 0. -1.
        -14    1    6    6    0    0  0.21477929206E+02  0.25753473075E+01 -0.11492343198E+03  0.11694156265E+03  0.00000000000E+00 0.  1.
<mgrwt>
<rscale>  2 0.19614953E+03</rscale>
<asrwt>0</asrwt>
<pdfrwt beam="1">  1       21 0.12749598E-01 0.19631284E+03</pdfrwt>
<pdfrwt beam="2">  1       21 0.71322160E-01 0.19631284E+03</pdfrwt>
<totfact> 0.93448089E+04</totfact>
</mgrwt>
</event>
<event>
12    1  0.1071811E-001  0.2089050E+03  0.7546771E-02  0.1144011E+00
         21   -1    0    0  503  502  0.00000000000E+00  0.00000000000E+00  0.17974987100E+03  0.17974987100E+03  0.00000000000E+00 0.  1.
         21   -1    0    0  501  503 -0.00000000000E+00 -0.00000000000E+00 -0.23973563493E+03  0.23973563493E+03  0.00000000000E+00 0.  1.
          6    2    1    2  501    0 -0.97225534954E+02  0.39189925165E+02 -0.63338313661E+02  0.21829572672E+03  0.18070038031E+03 0.  0.
         24    2    3    3    0    0 -0.13520383437E+03  0.24149968787E+02 -0.30029886465E+02  0.16537982328E+03  0.87094167696E+02 0.  0.
         -6    2    1    2    0  502  0.97225534954E+02 -0.39189925165E+02  0.33525497275E+01  0.20118977921E+03  0.17168993211E+03 0.  0.
        -24    2    5    5    0    0  0.27535820322E+02  0.21165628262E+02 -0.41415916474E+02  0.98594678349E+02  0.82458639576E+02 0.  0.
          5    1    3    3  501    0  0.37978299415E+02  0.15039956378E+02 -0.33308427197E+02  0.52915903438E+02  0.47000000000E+01 0. -1.
        -13    1    4    4    0    0 -0.12590860668E+02 -0.15647693111E+01 -0.37786264789E+02  0.39859504288E+02  0.00000000000E+00 0.  1.
         14    1    4    4    0    0 -0.12261297370E+03  0.25714738098E+02  0.77563783246E+01  0.12552031899E+03  0.00000000000E+00 0. -1.
         -5    1    5    5    0  502  0.69689714631E+02 -0.60355553427E+02  0.44768466201E+02  0.10259510086E+03  0.47000000000E+01 0.  1.
         13    1    6    6    0    0 -0.49138805604E+01  0.10014519808E+02 -0.58995718311E+02  0.60041082670E+02  0.00000000000E+00 0. -1.
        -14    1    6    6    0    0  0.32449700883E+02  0.11151108454E+02  0.17579801837E+02  0.38553595679E+02  0.00000000000E+00 0.  1.
<mgrwt>
<rscale>  2 0.20694168E+03</rscale>
<asrwt>0</asrwt>
<pdfrwt beam="1">  1       21 0.27653826E-01 0.20890496E+03</pdfrwt>
<pdfrwt beam="2">  1       21 0.36882405E-01 0.20890496E+03</pdfrwt>
<totfact> 0.87885509E+04</totfact>
</mgrwt>
</event>
<event>
12    1  0.1071811E-001  0.1897170E+03  0.7546771E-02  0.1159151E+00
         21   -1    0    0  503  502  0.00000000000E+00  0.00000000000E+00  0.12046310692E+04  0.12046310692E+04  0.00000000000E+00 0.  1.
         21   -1    0    0  501  503 -0.00000000000E+00 -0.00000000000E+00 -0.18065623782E+03  0.18065623782E+03  0.00000000000E+00 0.  1.
          6    2    1    2  501    0  0.62866271770E+02  0.45316768580E+02 -0.12184383563E+03  0.22386879688E+03  0.17107174020E+03 0.  0.
         24    2    3    3    0    0  0.21824024880E+02 -0.40332747878E+02 -0.69357190508E+02  0.11525368000E+03  0.79812106003E+02 0.  0.
         -6    2    1    2    0  502 -0.62866271770E+02 -0.45316768580E+02  0.11458186670E+04  0.11614185101E+04  0.17316685716E+03 0.  0.
        -24    2    5    5    0    0  0.16226454314E+02 -0.43677355481E+02  0.85248729570E+03  0.85757030728E+03  0.80754154048E+02 0.  0.
          5    1    3    3  501    0  0.41042246890E+02  0.85649516458E+02 -0.52486645117E+02  0.10861511688E+03  0.47000000000E+01 0. -1.
        -11    1    4    4    0    0  0.35334606668E+02 -0.29120337421E+02 -0.22013979815E+01  0.45840752971E+02  0.00000000000E+00 0.  1.
         12    1    4    4    0    0 -0.13510581788E+02 -0.11212410457E+02 -0.67155792527E+02  0.69412927027E+02  0.00000000000E+00 0. -1.
         -5    1    5    5    0  502 -0.79092726084E+02 -0.16394130989E+01  0.29333137125E+03  0.30384820282E+03  0.47000000000E+01 0.  1.
         11    1    6    6    0    0  0.27130100627E+02 -0.56818895937E+02  0.41493957989E+03  0.41968950935E+03  0.00000000000E+00 0. -1.
        -12    1    6    6    0    0 -0.10903646313E+02  0.13141540456E+02  0.43754771581E+03  0.43788079793E+03  0.00000000000E+00 0.  1.
<mgrwt>
<rscale>  2 0.18923758E+03</rscale>
<asrwt>0</asrwt>
<pdfrwt beam="1">  1       21 0.18532785E+00 0.18971699E+03</pdfrwt>
<pdfrwt beam="2">  1       21 0.27793268E-01 0.18971699E+03</pdfrwt>
<totfact> 0.20765486E+03</totfact>
</mgrwt>
</event>
<event>
12    1  0.1071811E-001  0.1833802E+03  0.7546771E-02  0.1165772E+00
         21   -1    0    0  503  502  0.00000000000E+00  0.00000000000E+00  0.24409236360E+04  0.24409236360E+04  0.00000000000E+00 0.  1.
         21   -1    0    0  501  503 -0.00000000000E+00 -0.00000000000E+00 -0.33033061628E+02  0.33033061628E+02  0.00000000000E+00 0.  1.
          6    2    1    2  501    0 -0.16803815495E+02 -0.57757306359E+02  0.24366128824E+03  0.30197218892E+03  0.16792291338E+03 0.  0.
         24    2    3    3    0    0  0.42808389158E+02 -0.78007609807E+01  0.88291073623E+02  0.12815830869E+03  0.82072092397E+02 0.  0.
         -6    2    1    2    0  502  0.16803815495E+02  0.57757306359E+02  0.21642292862E+04  0.21719845087E+04  0.17323402806E+03 0.  0.
        -24    2    5    5    0    0  0.21436873825E+02  0.79301273031E+02  0.12252856168E+04  0.12327705225E+04  0.10793556840E+03 0.  0.
          5    1    3    3  501    0 -0.59612204653E+02 -0.49956545378E+02  0.15537021462E+03  0.17381388023E+03  0.47000000000E+01 0. -1.
        -11    1    4    4    0    0  0.53896286451E+02 -0.34418870008E+02  0.63693875588E+02  0.90257288311E+02  0.00000000000E+00 0.  1.
         12    1    4    4    0    0 -0.11087897293E+02  0.26618109027E+02  0.24597198034E+02  0.37901020378E+02  0.00000000000E+00 0. -1.
         -5    1    5    5    0  502 -0.46330583301E+01 -0.21543966672E+02  0.93894366938E+03  0.93921398627E+03  0.47000000000E+01 0.  1.
         11    1    6    6    0    0 -0.10122646625E+02  0.58017380952E+02  0.25396313120E+03  0.26070242898E+03  0.00000000000E+00 0. -1.
        -12    1    6    6    0    0  0.31559520450E+02  0.21283892079E+02  0.97132248557E+03  0.97206809349E+03  0.00000000000E+00 0.  1.
<mgrwt>
<rscale>  2 0.18211499E+03</rscale>
<asrwt>0</asrwt>
<pdfrwt beam="1">  1       21 0.37552657E+00 0.18338021E+03</pdfrwt>
<pdfrwt beam="2">  1       21 0.50820114E-02 0.18338021E+03</pdfrwt>
<totfact> 0.32636974E+03</totfact>
</mgrwt>
</event>
<event>
12    1  0.1071811E-001  0.2441800E+03  0.7546771E-02  0.1117226E+00
         21   -1    0    0  503  502  0.00000000000E+00  0.00000000000E+00  0.67204908142E+02  0.67204908142E+02  0.00000000000E+00 0. -1.
         21   -1    0    0  501  503 -0.00000000000E+00 -0.00000000000E+00 -0.10318281932E+04  0.10318281932E+04  0.00000000000E+00 0.  1.
          6    2    1    2  501    0  0.16392190119E+03  0.51660154105E+02 -0.69000897672E+03  0.73155944771E+03  0.17183619049E+03 0.  0.
         24    2    3    3    0    0  0.96136158961E+02 -0.32239856142E+02 -0.28524879785E+03  0.31264774941E+03  0.78103579643E+02 0.  0.
         -6    2    1    2    0  502 -0.16392190119E+03 -0.51660154105E+02 -0.27461430837E+03  0.36747365367E+03  0.17344943519E+03 0.  0.
        -24    2    5    5    0    0 -0.11213046128E+03 -0.57530223941E+01 -0.76706190101E+02  0.15776068014E+03  0.79989092912E+02 0.  0.
          5    1    3    3  501    0  0.67785742231E+02  0.83900010247E+02 -0.40476017888E+03  0.41891169830E+03  0.47000000000E+01 0. -1.
        -13    1    4    4    0    0  0.82494096843E+01 -0.44840442295E+00 -0.13797409777E+03  0.13822121937E+03  0.00000000000E+00 0.  1.
         14    1    4    4    0    0  0.87886749276E+02 -0.31791451719E+02 -0.14727470008E+03  0.17442653004E+03  0.00000000000E+00 0. -1.
         -5    1    5    5    0  502 -0.51791439914E+02 -0.45907131711E+02 -0.19790811827E+03  0.20971297353E+03  0.47000000000E+01 0.  1.
         13    1    6    6    0    0  0.77479297868E+01  0.39539113535E+01 -0.25680246244E+02  0.27113444601E+02  0.00000000000E+00 0. -1.
        -14    1    6    6    0    0 -0.11987839106E+03 -0.97069337476E+01 -0.51025943856E+02  0.13064723554E+03  0.00000000000E+00 0.  1.
<mgrwt>
<rscale>  2 0.24389366E+03</rscale>
<asrwt>0</asrwt>
<pdfrwt beam="1">  1       21 0.10339217E-01 0.24417999E+03</pdfrwt>
<pdfrwt beam="2">  1       21 0.15874280E+00 0.24417999E+03</pdfrwt>
<totfact> 0.19033174E+04</totfact>
</mgrwt>
</event>
<event>
12    1  0.1071811E-001  0.1811276E+03  0.7546771E-02  0.1166951E+00
         21   -1    0    0  503  502  0.00000000000E+00  0.00000000000E+00  0.48768850417E+03  0.48768850417E+03  0.00000000000E+00 0.  1.
         21   -1    0    0  501  503 -0.00000000000E+00 -0.00000000000E+00 -0.68170153005E+02  0.68170153005E+02  0.00000000000E+00 0.  1.
          6    2    1    2  501    0 -0.19200200114E+02 -0.46446071569E+02  0.17139479100E+03  0.24865755127E+03  0.17299860743E+03 0.  0.
         24    2    3    3    0    0 -0.51557269872E+02 -0.70284745481E+02  0.17134667630E+03  0.20819331209E+03  0.79916670342E+02 0.  0.
         -6    2    1    2    0  502  0.19200200114E+02  0.46446071569E+02  0.24812356016E+03  0.30720110590E+03  0.17401532436E+03 0.  0.
        -24    2    5    5    0    0 -0.13819649830E+02  0.20323957247E+02  0.37784110404E+02  0.92637713237E+02  0.80932446863E+02 0.  0.
          5    1    3    3  501    0  0.32357069758E+02  0.23838673912E+02  0.48114703860E-01  0.40464239178E+02  0.47000000000E+01 0. -1.
        -13    1    4    4    0    0  0.13354696147E+02 -0.30155943039E-01  0.59699893585E+02  0.61175371782E+02  0.00000000000E+00 0.  1.
         14    1    4    4    0    0 -0.64911966019E+02 -0.70254589538E+02  0.11164678271E+03  0.14701794031E+03  0.00000000000E+00 0. -1.
         -5    1    5    5    0  502  0.33019849945E+02  0.26122114322E+02  0.21033944976E+03  0.21456339267E+03  0.47000000000E+01 0.  1.
         13    1    6    6    0    0  0.19265418844E+02  0.37501636547E+02  0.40381866803E+01  0.42353701829E+02  0.00000000000E+00 0. -1.
        -14    1    6    6    0    0 -0.33085068674E+02 -0.17177679300E+02  0.33745923724E+02  0.50284011408E+02  0.00000000000E+00 0.  1.
<mgrwt>
<rscale>  2 0.18088299E+03</rscale>
<asrwt>0</asrwt>
<pdfrwt beam="1">  1       21 0.75028999E-01 0.18112763E+03</pdfrwt>
<pdfrwt beam="2">  1       21 0.10487716E-01 0.18112763E+03</pdfrwt>
<totfact> 0.11899036E+05</totfact>
</mgrwt>
</event>
<event>
12    1  0.1071811E-001  0.2220016E+03  0.7546771E-02  0.1132564E+00
         21   -1    0    0  501  502  0.00000000000E+00  0.00000000000E+00  0.73978910608E+02  0.73978910608E+02  0.00000000000E+00 0. -1.
         21   -1    0    0  502  503 -0.00000000000E+00 -0.00000000000E+00 -0.72046036132E+03  0.72046036132E+03  0.00000000000E+00 0. -1.
         -6    2    1    2    0  503 -0.88644723070E+02  0.10405941464E+03 -0.43430730233E+03  0.48735205249E+03  0.17378993497E+03 0.  0.
        -24    2    3    3    0    0 -0.47953132347E+02  0.26970861661E+01 -0.29891056980E+03  0.31332765083E+03  0.80745965005E+02 0.  0.
          6    2    1    2  501    0  0.88644723070E+02 -0.10405941464E+03 -0.21217414837E+03  0.30708721944E+03  0.17492410469E+03 0.  0.
         24    2    5    5    0    0  0.86933966279E+02 -0.51368979526E+02 -0.21922105799E+03  0.25369286041E+03  0.78140313576E+02 0.  0.
          5    1    5    5  501    0  0.17107567914E+01 -0.52690435111E+02  0.70469096173E+01  0.53394359029E+02  0.47000000000E+01 0. -1.
        -11    1    6    6    0    0 -0.47656833496E+01  0.13822165401E+02 -0.18394668606E+02  0.23497400437E+02  0.00000000000E+00 0.  1.
         12    1    6    6    0    0  0.91699649628E+02 -0.65191144927E+02 -0.20082638938E+03  0.23019545997E+03  0.00000000000E+00 0. -1.
         -5    1    3    3    0  503 -0.40691590723E+02  0.10136232847E+03 -0.13539673254E+03  0.17402440165E+03  0.47000000000E+01 0.  1.
         11    1    4    4    0    0 -0.69442375511E+02 -0.76895412457E+01 -0.21320682189E+03  0.22436247783E+03  0.00000000000E+00 0. -1.
        -12    1    4    4    0    0  0.21489243164E+02  0.10386627412E+02 -0.85703747909E+02  0.88965172998E+02  0.00000000000E+00 0.  1.
<mgrwt>
<rscale>  2 0.22177808E+03</rscale>
<asrwt>0</asrwt>
<pdfrwt beam="1">  1       21 0.11381370E-01 0.22200156E+03</pdfrwt>
<pdfrwt beam="2">  1       21 0.11084006E+00 0.22200156E+03</pdfrwt>
<totfact> 0.40718931E+04</totfact>
</mgrwt>
</event>
<event>
12    1  0.1071811E-001  0.2337510E+03  0.7546771E-02  0.1124146E+00
         21   -1    0    0  501  502  0.00000000000E+00  0.00000000000E+00  0.13554908197E+03  0.13554908197E+03  0.00000000000E+00 0.  1.
         21   -1    0    0  502  503 -0.00000000000E+00 -0.00000000000E+00 -0.12848184038E+04  0.12848184038E+04  0.00000000000E+00 0. -1.
         -6    2    1    2    0  503 -0.15241158373E+03 -0.34368327033E+02 -0.11636204465E+04  0.11868664962E+04  0.17386507320E+03 0.  0.
        -24    2    3    3    0    0 -0.37211198794E+02 -0.40489637836E+02 -0.78241095556E+03  0.78855585729E+03  0.81420836392E+02 0.  0.
          6    2    1    2  501    0  0.15241158373E+03  0.34368327033E+02  0.14351124609E+02  0.23350098957E+03  0.17293433608E+03 0.  0.
         24    2    5    5    0    0  0.13402239547E+03 -0.29234416332E+02 -0.17863932306E+02  0.15972178450E+03  0.79845317849E+02 0.  0.
          5    1    5    5  501    0  0.18389188261E+02  0.63602743365E+02  0.32215056915E+02  0.73779205068E+02  0.47000000000E+01 0. -1.
        -11    1    6    6    0    0  0.10584537842E+03  0.14307257748E+02 -0.10176795465E+02  0.10729170016E+03  0.00000000000E+00 0.  1.
         12    1    6    6    0    0  0.28177017045E+02 -0.43541674080E+02 -0.76871368416E+01  0.52430084342E+02  0.00000000000E+00 0. -1.
         -5    1    3    3    0  503 -0.11520038493E+03  0.61213108034E+01 -0.38120949089E+03  0.39831063893E+03  0.47000000000E+01 0.  1.
         13    1    4    4    0    0  0.11494936196E+02  0.92617105362E+01 -0.37112318423E+03  0.37141665379E+03  0.00000000000E+00 0. -1.
        -14    1    4    4    0    0 -0.48706134990E+02 -0.49751348373E+02 -0.41128777133E+03  0.41713920350E+03  0.00000000000E+00 0.  1.
<mgrwt>
<rscale>  2 0.23357796E+03</rscale>
<asrwt>0</asrwt>
<pdfrwt beam="1">  1       21 0.20853705E-01 0.23375101E+03</pdfrwt>
<pdfrwt beam="2">  1       21 0.19766437E+00 0.23375101E+03</pdfrwt>
<totfact> 0.28569142E+03</totfact>
</mgrwt>
</event>
<event>
12    1  0.1071811E-001  0.1850527E+03  0.7546771E-02  0.1163098E+00
         21   -1    0    0  503  502  0.00000000000E+00  0.00000000000E+00  0.20096216299E+04  0.20096216299E+04  0.00000000000E+00 0. -1.
         21   -1    0    0  501  503 -0.00000000000E+00 -0.00000000000E+00 -0.21753827318E+02  0.21753827318E+02  0.00000000000E+00 0. -1.
          6    2    1    2  501    0 -0.39272268020E+02  0.52073874985E+02  0.52010327355E+03  0.55204340565E+03  0.17317767490E+03 0.  0.
         24    2    3    3    0    0  0.13295408197E+02  0.41131697004E+02  0.12983123405E+03  0.15806695121E+03  0.79122862394E+02 0.  0.
         -6    2    1    2    0  502  0.39272268020E+02 -0.52073874985E+02  0.14677645290E+04  0.14793320516E+04  0.17273276063E+03 0.  0.
        -24    2    5    5    0    0 -0.94980651048E+01 -0.40518466462E+02  0.39417874833E+03  0.40456668582E+03  0.81026898485E+02 0.  0.
          5    1    3    3  501    0 -0.52567676217E+02  0.10942177981E+02  0.39027203950E+03  0.39397645444E+03  0.47000000000E+01 0. -1.
        -13    1    4    4    0    0  0.23748313571E+02  0.19077614198E+02  0.13014155102E+03  0.13365912264E+03  0.00000000000E+00 0.  1.
         14    1    4    4    0    0 -0.10452905373E+02  0.22054082806E+02 -0.31031697520E+00  0.24407828576E+02  0.00000000000E+00 0. -1.
         -5    1    5    5    0  502  0.48770333125E+02 -0.11555408523E+02  0.10735857807E+04  0.10747653658E+04  0.47000000000E+01 0.  1.
         13    1    6    6    0    0 -0.16704403101E+02 -0.22357698637E+02  0.37846722463E+03  0.37949485357E+03  0.00000000000E+00 0. -1.
        -14    1    6    6    0    0  0.72063379959E+01 -0.18160767825E+02  0.15711523701E+02  0.25071832248E+02  0.00000000000E+00 0.  1.
<mgrwt>
<rscale>  2 0.18494855E+03</rscale>
<asrwt>0</asrwt>
<pdfrwt beam="1">  1       21 0.30917241E+00 0.18505271E+03</pdfrwt>
<pdfrwt beam="2">  1       21 0.33467443E-02 0.18505271E+03</pdfrwt>
<totfact> 0.16081070E+04</totfact>
</mgrwt>
</event>
<event>
12    1  0.1071811E-001  0.1807878E+03  0.7546771E-02  0.1167431E+00
         21   -1    0    0  501  502  0.00000000000E+00  0.00000000000E+00  0.59767206891E+03  0.59767206891E+03  0.00000000000E+00 0. -1.
         21   -1    0    0  502  503 -0.00000000000E+00 -0.00000000000E+00 -0.64462232788E+02  0.64462232788E+02  0.00000000000E+00 0. -1.
         -6    2    1    2    0  503  0.41970943920E+02  0.21630588534E+02  0.13352050024E+03  0.22345927770E+03  0.17284930521E+03 0.  0.
        -24    2    3    3    0    0  0.14883147257E+02  0.45541047348E+02  0.47872154954E+01  0.89669115994E+02  0.75644813868E+02 0.  0.
          6    2    1    2  501    0 -0.41970943920E+02 -0.21630588534E+02  0.39968933588E+03  0.43867502399E+03  0.17451294785E+03 0.  0.
         24    2    5    5    0    0  0.36428306387E+02  0.14146154295E+02  0.25502839934E+03  0.27022534505E+03  0.80343745548E+02 0.  0.
          5    1    5    5  501    0 -0.78399250308E+02 -0.35776742829E+02  0.14466093654E+03  0.16844967894E+03  0.47000000000E+01 0. -1.
        -11    1    6    6    0    0  0.27307776877E+02  0.28132482516E+02  0.45621219956E+02  0.60153528249E+02  0.00000000000E+00 0.  1.
         12    1    6    6    0    0  0.91205295108E+01 -0.13986328221E+02  0.20940717939E+03  0.21007181680E+03  0.00000000000E+00 0. -1.
         -5    1    3    3    0  503  0.27087796663E+02 -0.23910458814E+02  0.12873328474E+03  0.13379016171E+03  0.47000000000E+01 0.  1.
         11    1    4    4    0    0  0.30817136572E+02  0.45563179191E+01  0.26250400547E+02  0.40737445530E+02  0.00000000000E+00 0. -1.
        -12    1    4    4    0    0 -0.15933989315E+02  0.40984729429E+02 -0.21463185051E+02  0.48931670464E+02  0.00000000000E+00 0.  1.
<mgrwt>
<rscale>  2 0.18038507E+03</rscale>
<asrwt>0</asrwt>
<pdfrwt beam="1">  1       21 0.91949545E-01 0.18078775E+03</pdfrwt>
<pdfrwt beam="2">  1       21 0.99172670E-02 0.18078775E+03</pdfrwt>
<totfact> 0.82732732E+04</totfact>
</mgrwt>
</event>
<event>
12    1  0.1071811E-001  0.2015173E+03  0.7546771E-02  0.1149009E+00
         21   -1    0    0  503  502  0.00000000000E+00  0.00000000000E+00  0.11103696805E+03  0.11103696805E+03  0.00000000000E+00 0. -1.
         21   -1    0    0  501  503 -0.00000000000E+00 -0.00000000000E+00 -0.68922534427E+03  0.68922534427E+03  0.00000000000E+00 0.  1.
          6    2    1    2  501    0  0.90667323502E+02  0.53090807736E+02 -0.13969566402E+02  0.20200089874E+03  0.17195934662E+03 0.  0.
         24    2    3    3    0    0  0.57841707478E+01  0.70630306455E+02 -0.34329673230E+02  0.11284144839E+03  0.80824310634E+02 0.  0.
         -6    2    1    2    0  502 -0.90667323502E+02 -0.53090807736E+02 -0.56421880982E+03  0.59826141358E+03  0.16892204181E+03 0.  0.
        -24    2    5    5    0    0 -0.10193810790E+03 -0.87562779062E+02 -0.50406110684E+03  0.52785980412E+03  0.80621059583E+02 0.  0.
          5    1    3    3  501    0  0.84883152755E+02 -0.17539498720E+02  0.20360106829E+02  0.89159450351E+02  0.47000000000E+01 0. -1.
        -13    1    4    4    0    0  0.12678898314E+02  0.75753182700E+01 -0.46029156429E+02  0.48340698701E+02  0.00000000000E+00 0.  1.
         14    1    4    4    0    0 -0.68947275657E+01  0.63054988185E+02  0.11699483199E+02  0.64500749688E+02  0.00000000000E+00 0. -1.
         -5    1    5    5    0  502  0.11270784401E+02  0.34471971326E+02 -0.60157702975E+02  0.70401609465E+02  0.47000000000E+01 0.  1.
         11    1    6    6    0    0 -0.73122293605E+01 -0.50274415290E+02 -0.11495516494E+03  0.12568084770E+03  0.00000000000E+00 0. -1.
        -12    1    6    6    0    0 -0.94625878543E+02 -0.37288363772E+02 -0.38910594190E+03  0.40217895642E+03  0.00000000000E+00 0.  1.
<mgrwt>
<rscale>  2 0.20086777E+03</rscale>
<asrwt>0</asrwt>
<pdfrwt beam="1">  1       21 0.17082610E-01 0.20151728E+03</pdfrwt>
<pdfrwt beam="2">  1       21 0.10603467E+00 0.20151728E+03</pdfrwt>
<totfact> 0.21944181E+04</totfact>
</mgrwt>
</event>
<event>
12    1  0.1071811E-001  0.2475375E+03  0.7546771E-02  0.1114971E+00
         21   -1    0    0  503  502  0.00000000000E+00  0.00000000000E+00  0.45101570172E+03  0.45101570172E+03  0.00000000000E+00 0. -1.
         21   -1    0    0  501  503 -0.00000000000E+00 -0.00000000000E+00 -0.24976607133E+03  0.24976607133E+03  0.00000000000E+00 0. -1.
          6    2    1    2  501    0 -0.14933481231E+03 -0.91489814837E+02 -0.13642401372E+03  0.28209535846E+03  0.17405461028E+03 0.  0.
         24    2    3    3    0    0 -0.53312923270E+02 -0.52644474530E+01 -0.11585906603E+03  0.15132829751E+03  0.81283136338E+02 0.  0.
         -6    2    1    2    0  502  0.14933481231E+03  0.91489814837E+02  0.33767364411E+03  0.41868641459E+03  0.17493870769E+03 0.  0.
        -24    2    5    5    0    0  0.17330501315E+03  0.53112155190E+02  0.24289245352E+03  0.31355326389E+03  0.80395128602E+02 0.  0.
          5    1    3    3  501    0 -0.96021889042E+02 -0.86225367384E+02 -0.20564947695E+02  0.13076706095E+03  0.47000000000E+01 0. -1.
        -11    1    4    4    0    0  0.65550600128E+01 -0.28312010810E+02 -0.17578758140E+02  0.33963973643E+02  0.00000000000E+00 0.  1.
         12    1    4    4    0    0 -0.59867983283E+02  0.23047563357E+02 -0.98280307887E+02  0.11736432387E+03  0.00000000000E+00 0. -1.
         -5    1    5    5    0  502 -0.23970200838E+02  0.38377659647E+02  0.94781190586E+02  0.10513315070E+03  0.47000000000E+01 0.  1.
         11    1    6    6    0    0  0.11517174353E+03  0.73321590951E+02  0.17405584888E+03  0.22121488362E+03  0.00000000000E+00 0. -1.
        -12    1    6    6    0    0  0.58133269623E+02 -0.20209435761E+02  0.68836604641E+02  0.92338380262E+02  0.00000000000E+00 0.  1.
<mgrwt>
<rscale>  2 0.24738137E+03</rscale>
<asrwt>0</asrwt>
<pdfrwt beam="1">  1       21 0.69387031E-01 0.24753752E+03</pdfrwt>
<pdfrwt beam="2">  1       21 0.38425549E-01 0.24753752E+03</pdfrwt>
<totfact> 0.11933010E+04</totfact>
</mgrwt>
</event>
<event>
12    1  0.1071811E-001  0.2351584E+03  0.7546771E-02  0.1123163E+00
         21   -1    0    0  503  502  0.00000000000E+00  0.00000000000E+00  0.98003404432E+02  0.98003404432E+02  0.00000000000E+00 0.  1.
         21   -1    0    0  501  503 -0.00000000000E+00 -0.00000000000E+00 -0.79255053581E+03  0.79255053581E+03  0.00000000000E+00 0. -1.
          6    2    1    2  501    0  0.31653645862E+02  0.15525928673E+03 -0.58668598192E+03  0.63183883317E+03  0.17295221974E+03 0.  0.
         24    2    3    3    0    0  0.46223111100E+02  0.91838688484E+02 -0.52878019811E+03  0.54460574657E+03  0.80099941234E+02 0.  0.
         -6    2    1    2    0  502 -0.31653645862E+02 -0.15525928673E+03 -0.10786114946E+03  0.25871510707E+03  0.17375868223E+03 0.  0.
        -24    2    5    5    0    0  0.31337479071E+02 -0.41513418887E+02 -0.83339410036E+02  0.12631642892E+03  0.79403913046E+02 0.  0.
          5    1    3    3  501    0 -0.14569465238E+02  0.63420598245E+02 -0.57905783812E+02  0.87233086601E+02  0.47000000000E+01 0. -1.
        -11    1    4    4    0    0 -0.14231536197E+02  0.22200067628E+02 -0.45359990988E+02  0.52468165659E+02  0.00000000000E+00 0.  1.
         12    1    4    4    0    0  0.60454647298E+02  0.69638620856E+02 -0.48342020712E+03  0.49213758091E+03  0.00000000000E+00 0. -1.
         -5    1    5    5    0  502 -0.62991124933E+02 -0.11374586784E+03 -0.24521739420E+02  0.13239867815E+03  0.47000000000E+01 0.  1.
         11    1    6    6    0    0  0.14407946439E+00  0.23074852667E+02 -0.23081414873E+02  0.32637728123E+02  0.00000000000E+00 0. -1.
        -12    1    6    6    0    0  0.31193399607E+02 -0.64588271555E+02 -0.60257995164E+02  0.93678700795E+02  0.00000000000E+00 0.  1.
<mgrwt>
<rscale>  2 0.23500945E+03</rscale>
<asrwt>0</asrwt>
<pdfrwt beam="1">  1       21 0.15077447E-01 0.23515841E+03</pdfrwt>
<pdfrwt beam="2">  1       21 0.12193085E+00 0.23515841E+03</pdfrwt>
<totfact> 0.19223716E+04</totfact>
</mgrwt>
</event>
<event>
12    1  0.1071811E-001  0.2175615E+03  0.7546771E-02  0.1135928E+00
         21   -1    0    0  501  502  0.00000000000E+00  0.00000000000E+00  0.20138596980E+03  0.20138596980E+03  0.00000000000E+00 0.  1.
         21   -1    0    0  502  503 -0.00000000000E+00 -0.00000000000E+00 -0.30182782957E+03  0.30182782957E+03  0.00000000000E+00 0.  1.
         -6    2    1    2    0  503 -0.12354565300E+03  0.42994290272E+02 -0.16975288786E+03  0.27595116715E+03  0.17384178538E+03 0.  0.
        -24    2    3    3    0    0 -0.72723323834E+02 -0.39388815299E+02 -0.10839990907E+03  0.16125084792E+03  0.86087949606E+02 0.  0.
          6    2    1    2  501    0  0.12354565300E+03 -0.42994290272E+02  0.69311028084E+02  0.22726263222E+03  0.17243041500E+03 0.  0.
         24    2    5    5    0    0  0.80459604788E+02  0.24026866268E+02  0.87809593091E+02  0.14533260182E+03  0.79749621985E+02 0.  0.
          5    1    5    5  501    0  0.43086048214E+02 -0.67021156540E+02 -0.18498565007E+02  0.81930030404E+02  0.47000000000E+01 0. -1.
        -11    1    6    6    0    0  0.91639841059E+02  0.26547854722E+01  0.68822973203E+02  0.11463642526E+03  0.00000000000E+00 0.  1.
         12    1    6    6    0    0 -0.11180236271E+02  0.21372080796E+02  0.18986619887E+02  0.30696176560E+02  0.00000000000E+00 0. -1.
         -5    1    3    3    0  503 -0.50822329168E+02  0.82383105571E+02 -0.61352978790E+02  0.11470031923E+03  0.47000000000E+01 0.  1.
         13    1    4    4    0    0  0.17772718269E+02 -0.14008257696E+02 -0.36373279288E+02  0.42838256786E+02  0.00000000000E+00 0. -1.
        -14    1    4    4    0    0 -0.90496042103E+02 -0.25380557604E+02 -0.72026629785E+02  0.11841259113E+03  0.00000000000E+00 0.  1.
<mgrwt>
<rscale>  2 0.21727942E+03</rscale>
<asrwt>0</asrwt>
<pdfrwt beam="1">  1       21 0.30982457E-01 0.21756149E+03</pdfrwt>
<pdfrwt beam="2">  1       21 0.46435051E-01 0.21756149E+03</pdfrwt>
<totfact> 0.43909047E+04</totfact>
</mgrwt>
</event>
<event>
11    1  0.1071811E-001  0.3115619E+03  0.7546771E-02  0.1080305E+00
         21   -1    0    0  501  502  0.00000000000E+00  0.00000000000E+00  0.45367951859E+03  0.45367951859E+03  0.00000000000E+00 0. -1.
         21   -1    0    0  502  503 -0.00000000000E+00 -0.00000000000E+00 -0.26363894655E+03  0.26363894655E+03  0.00000000000E+00 0. -1.
         -6    2    1    2    0  503  0.23285703104E+03  0.99066103897E+02 -0.67538418810E+02  0.31306882979E+03  0.17150558104E+03 0.  0.
          6    2    1    2  501    0 -0.23285703104E+03 -0.99066103897E+02  0.25757899085E+03  0.40424963535E+03  0.18175351801E+03 0.  0.
         24    2    4    4    0    0 -0.24656711460E+03 -0.61399201572E+02  0.19595282122E+03  0.33058392620E+03  0.79517420489E+02 0.  0.
          5    1    4    4  501    0  0.13710083562E+02 -0.37666902325E+02  0.61626169626E+02  0.73665709152E+02  0.47000000000E+01 0. -1.
        -13    1    5    5    0    0 -0.16702531106E+03 -0.43491842295E+02  0.83629241166E+02  0.19178854204E+03  0.00000000000E+00 0.  1.
         14    1    5    5    0    0 -0.79541803539E+02 -0.17907359277E+02  0.11232358006E+03  0.13879538416E+03  0.00000000000E+00 0. -1.
         -5    1    3    3    0  503  0.12317238177E+03  0.72274233074E+02 -0.11422880958E+02  0.14334424511E+03  0.47000000000E+01 0.  1.
         13    1    3    3    0    0 -0.16726185462E+02  0.28540233779E+02 -0.18106844624E+02  0.37711643381E+02  0.00000000000E+00 0. -1.
        -14    1    3    3    0    0  0.12641083473E+03 -0.17483629556E+01 -0.38008693228E+02  0.13201294130E+03  0.00000000000E+00 0.  1.
<mgrwt>
<rscale>  2 0.31008523E+03</rscale>
<asrwt>0</asrwt>
<pdfrwt beam="1">  1       21 0.69796849E-01 0.31156192E+03</pdfrwt>
<pdfrwt beam="2">  1       21 0.40559838E-01 0.31156192E+03</pdfrwt>
<totfact> 0.10230779E+04</totfact>
</mgrwt>
</event>
<event>
12    1  0.1071811E-001  0.1904906E+03  0.7546771E-02  0.1158101E+00
         21   -1    0    0  503  502  0.00000000000E+00  0.00000000000E+00  0.35173043562E+02  0.35173043562E+02  0.00000000000E+00 0.  1.
         21   -1    0    0  501  503 -0.00000000000E+00 -0.00000000000E+00 -0.14362145235E+04  0.14362145235E+04  0.00000000000E+00 0.  1.
          6    2    1    2  501    0  0.54098998897E+02  0.62063051843E+02 -0.10914469249E+04  0.11078831297E+04  0.17137711375E+03 0.  0.
         24    2    3    3    0    0  0.62668802636E+02 -0.22927219444E+02 -0.59698502276E+03  0.60607494880E+03  0.80515153548E+02 0.  0.
         -6    2    1    2    0  502 -0.54098998897E+02 -0.62063051843E+02 -0.30959455504E+03  0.36350443737E+03  0.17177940327E+03 0.  0.
        -24    2    5    5    0    0  0.33638513942E+02 -0.50131792882E+02 -0.18321382528E+03  0.20912048433E+03  0.80742336571E+02 0.  0.
          5    1    3    3  501    0 -0.85698037394E+01  0.84990271287E+02 -0.49446190214E+03  0.50180818090E+03  0.47000000000E+01 0. -1.
        -11    1    4    4    0    0  0.35990959842E+02  0.43820803371E+01 -0.81773192837E+02  0.89450583481E+02  0.00000000000E+00 0.  1.
         12    1    4    4    0    0  0.26677842794E+02 -0.27309299781E+02 -0.51521182992E+03  0.51662436532E+03  0.00000000000E+00 0. -1.
         -5    1    5    5    0  502 -0.87737512838E+02 -0.11931258961E+02 -0.12638072976E+03  0.15438395303E+03  0.47000000000E+01 0.  1.
         11    1    6    6    0    0  0.86611295165E+01 -0.13540675328E+02  0.41411542044E+01  0.16598620756E+02  0.00000000000E+00 0. -1.
        -12    1    6    6    0    0  0.24977384425E+02 -0.36591117554E+02 -0.18735497949E+03  0.19252186358E+03  0.00000000000E+00 0.  1.
<mgrwt>
<rscale>  2 0.19039991E+03</rscale>
<asrwt>0</asrwt>
<pdfrwt beam="1">  1       21 0.54112361E-02 0.19049065E+03</pdfrwt>
<pdfrwt beam="2">  1       21 0.22095614E+00 0.19049065E+03</pdfrwt>
<totfact> 0.23382375E+04</totfact>
</mgrwt>
</event>
<event>
12    1  0.1071811E-001  0.1982021E+03  0.7546771E-02  0.1152026E+00
         21   -1    0    0  503  502  0.00000000000E+00  0.00000000000E+00  0.19843407802E+04  0.19843407802E+04  0.00000000000E+00 0.  1.
         21   -1    0    0  501  503 -0.00000000000E+00 -0.00000000000E+00 -0.26082418286E+02  0.26082418286E+02  0.00000000000E+00 0.  1.
          6    2    1    2  501    0  0.99098871922E+01 -0.88337331924E+02  0.46551967867E+03  0.50458361362E+03  0.17318880398E+03 0.  0.
         24    2    3    3    0    0 -0.27684139354E+02 -0.11519655567E+03  0.29459343229E+03  0.32746049137E+03  0.80052639231E+02 0.  0.
         -6    2    1    2    0  502 -0.99098871922E+01  0.88337331924E+02  0.14927386832E+04  0.15058395848E+04  0.17715075173E+03 0.  0.
        -24    2    5    5    0    0  0.55686290539E+02  0.63375208834E+02  0.11547678272E+04  0.11606260920E+04  0.80292033581E+02 0.  0.
          5    1    3    3  501    0  0.37594026546E+02  0.26859223750E+02  0.17092624638E+03  0.17712312224E+03  0.47000000000E+01 0. -1.
        -13    1    4    4    0    0  0.19090805827E+02 -0.10536923163E+02  0.18800787610E+02  0.28791582652E+02  0.00000000000E+00 0.  1.
         14    1    4    4    0    0 -0.46774945180E+02 -0.10465963251E+03  0.27579264468E+03  0.29866890872E+03  0.00000000000E+00 0. -1.
         -5    1    5    5    0  502 -0.65596177731E+02  0.24962123090E+02  0.33797085602E+03  0.34521349285E+03  0.47000000000E+01 0.  1.
         13    1    6    6    0    0  0.61539560604E+02  0.78765573185E+02  0.98002485349E+03  0.98510905310E+03  0.00000000000E+00 0. -1.
        -14    1    6    6    0    0 -0.58532700652E+01 -0.15390364351E+02  0.17474297370E+03  0.17551703890E+03  0.00000000000E+00 0.  1.
<mgrwt>
<rscale>  2 0.19731289E+03</rscale>
<asrwt>0</asrwt>
<pdfrwt beam="1">  1       21 0.30528308E+00 0.19820212E+03</pdfrwt>
<pdfrwt beam="2">  1       21 0.40126813E-02 0.19820212E+03</pdfrwt>
<totfact> 0.12332791E+04</totfact>
</mgrwt>
</event>
<event>
12    1  0.1071811E-001  0.1916530E+03  0.7546771E-02  0.1156989E+00
         21   -1    0    0  503  502  0.00000000000E+00  0.00000000000E+00  0.16822459764E+03  0.16822459764E+03  0.00000000000E+00 0.  1.
         21   -1    0    0  501  503 -0.00000000000E+00 -0.00000000000E+00 -0.24487865504E+03  0.24487865504E+03  0.00000000000E+00 0. -1.
          6    2    1    2  501    0  0.51285383258E+02 -0.63670725867E+02 -0.10638030191E+03  0.21915858496E+03  0.17329040613E+03 0.  0.
         24    2    3    3    0    0 -0.24991506510E+02 -0.18123555674E+02 -0.13816373504E+02  0.90772918051E+02  0.84236522998E+02 0.  0.
         -6    2    1    2    0  502 -0.51285383258E+02  0.63670725867E+02  0.29726244521E+02  0.19394466772E+03  0.17333993382E+03 0.  0.
        -24    2    5    5    0    0 -0.54868226320E+02  0.52166711376E+02 -0.42830129174E+02  0.12024462378E+03  0.83020850074E+02 0.  0.
          5    1    3    3  501    0  0.76276889767E+02 -0.45547170193E+02 -0.92563928410E+02  0.12838566691E+03  0.47000000000E+01 0. -1.
        -13    1    4    4    0    0 -0.48795377685E+02 -0.34710456554E+02 -0.35121330826E+01  0.59984495967E+02  0.00000000000E+00 0.  1.
         14    1    4    4    0    0  0.23803871175E+02  0.16586900880E+02 -0.10304240422E+02  0.30788422084E+02  0.00000000000E+00 0. -1.
         -5    1    5    5    0  502  0.35828430623E+01  0.11504014491E+02  0.72556373694E+02  0.73700043945E+02  0.47000000000E+01 0.  1.
         11    1    6    6    0    0 -0.63600422637E+02  0.65636382432E+02 -0.22106593401E+02  0.94031111501E+02  0.00000000000E+00 0. -1.
        -12    1    6    6    0    0  0.87321963173E+01 -0.13469671056E+02 -0.20723535773E+02  0.26213512276E+02  0.00000000000E+00 0.  1.
<mgrwt>
<rscale>  2 0.19164183E+03</rscale>
<asrwt>0</asrwt>
<pdfrwt beam="1">  1       21 0.25880707E-01 0.19165303E+03</pdfrwt>
<pdfrwt beam="2">  1       21 0.37673639E-01 0.19165303E+03</pdfrwt>
<totfact> 0.96370051E+04</totfact>
</mgrwt>
</event>
<event>
12    1  0.1071811E-001  0.2207416E+03  0.7546771E-02  0.1135171E+00
         21   -1    0    0  501  502  0.00000000000E+00  0.00000000000E+00  0.11321358178E+04  0.11321358178E+04  0.00000000000E+00 0.  1.
         21   -1    0    0  502  503 -0.00000000000E+00 -0.00000000000E+00 -0.65542501327E+02  0.65542501327E+02  0.00000000000E+00 0. -1.
         -6    2    1    2    0  503 -0.44416054295E+02 -0.12930359329E+03  0.16069430482E+03  0.26527289893E+03  0.16079442212E+03 0.  0.
        -24    2    3    3    0    0 -0.51022039887E+02 -0.15515290689E+03  0.14923545249E+03  0.23585825366E+03  0.81744862032E+02 0.  0.
          6    2    1    2  501    0  0.44416054295E+02  0.12930359329E+03  0.90589901162E+03  0.93240542017E+03  0.17330505818E+03 0.  0.
         24    2    5    5    0    0 -0.10642111640E+02  0.55588259190E+01  0.21788896413E+03  0.23117501258E+03  0.76302887651E+02 0.  0.
          5    1    5    5  501    0  0.55058165936E+02  0.12374476737E+03  0.68801004748E+03  0.70123040759E+03  0.47000000000E+01 0. -1.
        -11    1    6    6    0    0  0.16819251172E+02  0.47213587679E+01  0.19394843585E+03  0.19473359805E+03  0.00000000000E+00 0.  1.
         12    1    6    6    0    0 -0.27461362812E+02  0.83746715110E+00  0.23940528281E+02  0.36441414532E+02  0.00000000000E+00 0. -1.
         -5    1    3    3    0  503  0.66059855913E+01  0.25849313602E+02  0.11458852331E+02  0.29414645266E+02  0.47000000000E+01 0.  1.
         13    1    4    4    0    0  0.22093137247E+02 -0.48928226970E+02  0.43513252924E+02  0.69104857195E+02  0.00000000000E+00 0. -1.
        -14    1    4    4    0    0 -0.73115177134E+02 -0.10622467992E+03  0.10572219957E+03  0.16675339647E+03  0.00000000000E+00 0.  1.
<mgrwt>
<rscale>  2 0.21828078E+03</rscale>
<asrwt>0</asrwt>
<pdfrwt beam="1">  1       21 0.17417473E+00 0.22074159E+03</pdfrwt>
<pdfrwt beam="2">  1       21 0.10083463E-01 0.22074159E+03</pdfrwt>
<totfact> 0.15638185E+04</totfact>
</mgrwt>
</event>
<event>
12    1  0.1071811E-001  0.1906296E+03  0.7546771E-02  0.1157962E+00
         21   -1    0    0  503  502  0.00000000000E+00  0.00000000000E+00  0.11549790297E+04  0.11549790297E+04  0.00000000000E+00 0. -1.
         21   -1    0    0  501  503 -0.00000000000E+00 -0.00000000000E+00 -0.40975606929E+02  0.40975606929E+02  0.00000000000E+00 0. -1.
          6    2    1    2  501    0  0.49431142481E+02  0.69370983679E+02  0.26848048119E+03  0.32927405548E+03  0.17053991792E+03 0.  0.
         24    2    3    3    0    0  0.33665279549E+02  0.10056835222E+03  0.13191748186E+03  0.18823015797E+03  0.82346984346E+02 0.  0.
         -6    2    1    2    0  502 -0.49431142481E+02 -0.69370983679E+02  0.84552294161E+03  0.86668058118E+03  0.17020697340E+03 0.  0.
        -24    2    5    5    0    0 -0.44253917326E+02  0.25389143668E+02  0.40578446635E+03  0.41679359313E+03  0.80329623001E+02 0.  0.
          5    1    3    3  501    0  0.15765862931E+02 -0.31197368545E+02  0.13656299933E+03  0.14104389751E+03  0.47000000000E+01 0. -1.
        -13    1    4    4    0    0  0.14464704133E+02 -0.45450769798E+01  0.53724683439E+02  0.55823176199E+02  0.00000000000E+00 0.  1.
         14    1    4    4    0    0  0.19200575417E+02  0.10511342920E+03  0.78192798425E+02  0.13240698177E+03  0.00000000000E+00 0. -1.
         -5    1    5    5    0  502 -0.51772251550E+01 -0.94760127347E+02  0.43973847526E+03  0.44988698805E+03  0.47000000000E+01 0.  1.
         13    1    6    6    0    0 -0.62246646098E+02  0.23127246021E+02  0.21185599863E+03  0.22201909515E+03  0.00000000000E+00 0. -1.
        -14    1    6    6    0    0  0.17992728773E+02  0.22618976462E+01  0.19392846772E+03  0.19477449798E+03  0.00000000000E+00 0.  1.
<mgrwt>
<rscale>  2 0.19055508E+03</rscale>
<asrwt>0</asrwt>
<pdfrwt beam="1">  1       21 0.17768906E+00 0.19062957E+03</pdfrwt>
<pdfrwt beam="2">  1       21 0.63039404E-02 0.19062957E+03</pdfrwt>
<totfact> 0.34230551E+04</totfact>
</mgrwt>
</event>
<event>
12    1  0.1071811E-001  0.2460153E+03  0.7546771E-02  0.1115900E+00
         21   -1    0    0  503  502  0.00000000000E+00  0.00000000000E+00  0.23854473504E+03  0.23854473504E+03  0.00000000000E+00 0.  1.
         21   -1    0    0  501  503 -0.00000000000E+00 -0.00000000000E+00 -0.28938956369E+03  0.28938956369E+03  0.00000000000E+00 0.  1.
          6    2    1    2  501    0  0.11056829997E+03 -0.13656541970E+03  0.67659419971E+02  0.25514958254E+03  0.17218608987E+03 0.  0.
         24    2    3    3    0    0  0.61492662039E+02 -0.55486071121E+01  0.38846122203E+02  0.11222960652E+03  0.85289676063E+02 0.  0.
         -6    2    1    2    0  502 -0.11056829997E+03  0.13656541970E+03 -0.11850424862E+03  0.27278471618E+03  0.17173462559E+03 0.  0.
        -24    2    5    5    0    0  0.78662144562E+01  0.36666782760E+02 -0.24852074706E+02  0.91678969316E+02  0.79881646890E+02 0.  0.
          5    1    3    3  501    0  0.49075637930E+02 -0.13101681259E+03  0.28813297769E+02  0.14291997603E+03  0.47000000000E+01 0. -1.
        -13    1    4    4    0    0  0.36378689837E+02 -0.43753747852E+02  0.33919910000E+02  0.66244696541E+02  0.00000000000E+00 0.  1.
         14    1    4    4    0    0  0.25113972202E+02  0.38205140740E+02  0.49262122023E+01  0.45984909975E+02  0.00000000000E+00 0. -1.
         -5    1    5    5    0  502 -0.11843451442E+03  0.99898636941E+02 -0.93652173915E+02  0.18110574687E+03  0.47000000000E+01 0.  1.
         13    1    6    6    0    0  0.55010523106E+01  0.35550484533E+02 -0.52645683779E+02  0.63762579525E+02  0.00000000000E+00 0. -1.
        -14    1    6    6    0    0  0.23651621455E+01  0.11162982267E+01  0.27793609073E+02  0.27916389792E+02  0.00000000000E+00 0.  1.
<mgrwt>
<rscale>  2 0.24593629E+03</rscale>
<asrwt>0</asrwt>
<pdfrwt beam="1">  1       21 0.36699190E-01 0.24601527E+03</pdfrwt>
<pdfrwt beam="2">  1       21 0.44521471E-01 0.24601527E+03</pdfrwt>
<totfact> 0.33787780E+04</totfact>
</mgrwt>
</event>
<event>
12    1  0.1071811E-001  0.1922570E+03  0.7546771E-02  0.1156712E+00
         21   -1    0    0  503  502  0.00000000000E+00  0.00000000000E+00  0.71679377806E+03  0.71679377806E+03  0.00000000000E+00 0. -1.
         21   -1    0    0  501  503 -0.00000000000E+00 -0.00000000000E+00 -0.51335290997E+02  0.51335290997E+02  0.00000000000E+00 0. -1.
          6    2    1    2  501    0 -0.83600766933E+02  0.72391472714E+01  0.31734959295E+03  0.37104381073E+03  0.17297760506E+03 0.  0.
         24    2    3    3    0    0 -0.95703288427E+02  0.46599209321E+02  0.24555554978E+03  0.28814531771E+03  0.10676886420E+03 0.  0.
         -6    2    1    2    0  502  0.83600766933E+02 -0.72391472714E+01  0.34810889412E+03  0.39708525833E+03  0.17162577526E+03 0.  0.
        -24    2    5    5    0    0  0.12073978055E+03 -0.28927596566E+01  0.31670106357E+03  0.34802672964E+03  0.78972009045E+02 0.  0.
          5    1    3    3  501    0  0.12102521494E+02 -0.39360062049E+02  0.71794043168E+02  0.82898493023E+02  0.47000000000E+01 0. -1.
        -11    1    4    4    0    0 -0.36152280972E+02 -0.43613817550E+01  0.18646477112E+03  0.18998715730E+03  0.00000000000E+00 0.  1.
         12    1    4    4    0    0 -0.59551007455E+02  0.50960591076E+02  0.59090778663E+02  0.98158160408E+02  0.00000000000E+00 0. -1.
         -5    1    5    5    0  502 -0.37139013615E+02 -0.43463876147E+01  0.31407830550E+02  0.49058528693E+02  0.47000000000E+01 0.  1.
         13    1    6    6    0    0  0.85382076353E+02  0.32881702484E+02  0.23373016559E+03  0.25100019049E+03  0.00000000000E+00 0. -1.
        -14    1    6    6    0    0  0.35357704196E+02 -0.35774462140E+02  0.82970897977E+02  0.97026539145E+02  0.00000000000E+00 0.  1.
<mgrwt>
<rscale>  2 0.19195241E+03</rscale>
<asrwt>0</asrwt>
<pdfrwt beam="1">  1       21 0.11027596E+00 0.19225698E+03</pdfrwt>
<pdfrwt beam="2">  1       21 0.78977376E-02 0.19225698E+03</pdfrwt>
<totfact> 0.79681521E+04</totfact>
</mgrwt>
</event>
<event>
12    1  0.1071811E-001  0.3361313E+03  0.7546771E-02  0.1068979E+00
         21   -1    0    0  503  502  0.00000000000E+00  0.00000000000E+00  0.27496732334E+03  0.27496732334E+03  0.00000000000E+00 0. -1.
         21   -1    0    0  501  503 -0.00000000000E+00 -0.00000000000E+00 -0.54342281190E+03  0.54342281190E+03  0.00000000000E+00 0. -1.
          6    2    1    2  501    0  0.20101867414E+03  0.19937982993E+03 -0.34142982544E+03  0.47912273300E+03  0.18117241413E+03 0.  0.
         24    2    3    3    0    0  0.22745016052E+03  0.18745409584E+03 -0.28876883375E+03  0.41882251201E+03  0.71779130998E+02 0.  0.
         -6    2    1    2    0  502 -0.20101867414E+03 -0.19937982993E+03  0.72974336878E+02  0.33926740224E+03  0.17209384778E+03 0.  0.
        -24    2    5    5    0    0 -0.60620766873E+02 -0.35442728852E+02 -0.11110106207E+02  0.10757961870E+03  0.80739553466E+02 0.  0.
          5    1    3    3  501    0 -0.26431486387E+02  0.11925734086E+02 -0.52660991688E+02  0.60300220993E+02  0.47000000000E+01 0. -1.
        -11    1    4    4    0    0  0.15410238410E+03  0.14566224216E+03 -0.16349858054E+03  0.26776261766E+03  0.00000000000E+00 0.  1.
         12    1    4    4    0    0  0.73347776426E+02  0.41791853680E+02 -0.12527025322E+03  0.15105989435E+03  0.00000000000E+00 0. -1.
         -5    1    5    5    0  502 -0.14039790726E+03 -0.16393710108E+03  0.84084443085E+02  0.23168778354E+03  0.47000000000E+01 0.  1.
         11    1    6    6    0    0 -0.71847055673E+02 -0.90306684959E+01  0.83690597675E+01  0.72894399948E+02  0.00000000000E+00 0. -1.
        -12    1    6    6    0    0  0.11226288800E+02 -0.26412060356E+02 -0.19479165974E+02  0.34685218747E+02  0.00000000000E+00 0.  1.
<mgrwt>
<rscale>  2 0.33492357E+03</rscale>
<asrwt>0</asrwt>
<pdfrwt beam="1">  1       21 0.42302666E-01 0.33613132E+03</pdfrwt>
<pdfrwt beam="2">  1       21 0.83603508E-01 0.33613132E+03</pdfrwt>
<totfact> 0.61605391E+03</totfact>
</mgrwt>
</event>
<event>
12    1  0.1071811E-001  0.1837839E+03  0.7546771E-02  0.1164437E+00
         21   -1    0    0  501  502  0.00000000000E+00  0.00000000000E+00  0.16804213558E+03  0.16804213558E+03  0.00000000000E+00 0.  1.
         21   -1    0    0  502  503 -0.00000000000E+00 -0.00000000000E+00 -0.29185633706E+03  0.29185633706E+03  0.00000000000E+00 0.  1.
         -6    2    1    2    0  503 -0.61632267285E+02 -0.32520707410E+01 -0.19112776919E+03  0.26515341330E+03  0.17311093580E+03 0.  0.
        -24    2    3    3    0    0 -0.53600547125E+02  0.48164369002E+02 -0.17257075211E+03  0.20970423218E+03  0.94880848512E+02 0.  0.
          6    2    1    2  501    0  0.61632267285E+02  0.32520707410E+01  0.67313567713E+02  0.19474505934E+03  0.17200409706E+03 0.  0.
         24    2    5    5    0    0  0.47167110091E+02  0.39834194503E+02  0.10094773273E+03  0.14277545661E+03  0.79892971795E+02 0.  0.
          5    1    5    5  501    0  0.14465157194E+02 -0.36582123762E+02 -0.33634165013E+02  0.51969602728E+02  0.47000000000E+01 0. -1.
        -11    1    6    6    0    0  0.48841493407E+02 -0.58684302935E+01  0.27791269895E+02  0.56500306501E+02  0.00000000000E+00 0.  1.
         12    1    6    6    0    0 -0.16743833163E+01  0.45702624797E+02  0.73156462830E+02  0.86275150111E+02  0.00000000000E+00 0. -1.
         -5    1    3    3    0  503 -0.80317201592E+01 -0.51416439743E+02 -0.18557017080E+02  0.55449181126E+02  0.47000000000E+01 0.  1.
         11    1    4    4    0    0  0.11099006210E+02  0.47313639358E+02 -0.43064074965E+02  0.64932911229E+02  0.00000000000E+00 0. -1.
        -12    1    4    4    0    0 -0.64699553336E+02  0.85072964439E+00 -0.12950667715E+03  0.14477132095E+03  0.00000000000E+00 0.  1.
<mgrwt>
<rscale>  2 0.18352276E+03</rscale>
<asrwt>0</asrwt>
<pdfrwt beam="1">  1       21 0.25852637E-01 0.18378386E+03</pdfrwt>
<pdfrwt beam="2">  1       21 0.44900974E-01 0.18378386E+03</pdfrwt>
<totfact> 0.67877933E+04</totfact>
</mgrwt>
</event>
<event>
12    1  0.1071811E-001  0.2337686E+03  0.7546771E-02  0.1125063E+00
         21   -1    0    0  501  502  0.00000000000E+00  0.00000000000E+00  0.12648762960E+03  0.12648762960E+03  0.00000000000E+00 0.  1.
         21   -1    0    0  502  503 -0.00000000000E+00 -0.00000000000E+00 -0.50541884385E+03  0.50541884385E+03  0.00000000000E+00 0. -1.
         -6    2    1    2    0  503 -0.14008025708E+03  0.47345827918E+02 -0.32061067545E+03  0.39678576511E+03  0.18106250947E+03 0.  0.
        -24    2    3    3    0    0 -0.14201910490E+03 -0.22039776137E+02 -0.23939533201E+03  0.28984586053E+03  0.77751655859E+02 0.  0.
          6    2    1    2  501    0  0.14008025708E+03 -0.47345827918E+02 -0.58320538794E+02  0.23512070834E+03  0.17325229119E+03 0.  0.
         24    2    5    5    0    0  0.16559250493E+03 -0.54289360761E+02 -0.73027484811E+02  0.20450254869E+03  0.78230853905E+02 0.  0.
          5    1    5    5  501    0 -0.25512247855E+02  0.69435328437E+01  0.14706946017E+02  0.30618159646E+02  0.47000000000E+01 0. -1.
        -13    1    6    6    0    0  0.46465244808E+02  0.19746320074E+02 -0.24202407319E+02  0.55988326029E+02  0.00000000000E+00 0.  1.
         14    1    6    6    0    0  0.11912726013E+03 -0.74035680835E+02 -0.48825077492E+02  0.14851422267E+03  0.00000000000E+00 0. -1.
         -5    1    3    3    0  503  0.19388478218E+01  0.69385604055E+02 -0.81215343447E+02  0.10693990458E+03  0.47000000000E+01 0.  1.
         11    1    4    4    0    0 -0.72175906143E+02  0.10125312337E+02 -0.17492494139E+03  0.18950097229E+03  0.00000000000E+00 0. -1.
        -12    1    4    4    0    0 -0.69843198757E+02 -0.32165088475E+02 -0.64470390612E+02  0.10034488824E+03  0.00000000000E+00 0.  1.
<mgrwt>
<rscale>  2 0.23225499E+03</rscale>
<asrwt>0</asrwt>
<pdfrwt beam="1">  1       21 0.19459635E-01 0.23376856E+03</pdfrwt>
<pdfrwt beam="2">  1       21 0.77756745E-01 0.23376856E+03</pdfrwt>
<totfact> 0.34884053E+04</totfact>
</mgrwt>
</event>
<event>
12    1  0.1071811E-001  0.1934329E+03  0.7546771E-02  0.1156472E+00
         21   -1    0    0  503  502  0.00000000000E+00  0.00000000000E+00  0.70788175186E+03  0.70788175186E+03  0.00000000000E+00 0.  1.
         21   -1    0    0  501  503 -0.00000000000E+00 -0.00000000000E+00 -0.67505132879E+02  0.67505132879E+02  0.00000000000E+00 0.  1.
          6    2    1    2  501    0 -0.73804526885E+02 -0.35483356305E+01  0.12866751873E+03  0.22833799275E+03  0.17356039204E+03 0.  0.
         24    2    3    3    0    0  0.13219764669E+00  0.51002635908E+01  0.12844538693E+03  0.15374860446E+03  0.84346818473E+02 0.  0.
         -6    2    1    2    0  502  0.73804526885E+02  0.35483356305E+01  0.51170910025E+03  0.54704889198E+03  0.17876405698E+03 0.  0.
        -24    2    5    5    0    0  0.81371522074E+02  0.18857323287E+02  0.51586333668E+03  0.52885625062E+03  0.81222093368E+02 0.  0.
          5    1    3    3  501    0 -0.73936724532E+02 -0.86485992213E+01  0.22213180153E+00  0.74589388291E+02  0.47000000000E+01 0. -1.
        -13    1    4    4    0    0 -0.24947641992E+02  0.18167089350E+02  0.10713868218E+02  0.32668255977E+02  0.00000000000E+00 0.  1.
         14    1    4    4    0    0  0.25079839638E+02 -0.13066825760E+02  0.11773151871E+03  0.12108034849E+03  0.00000000000E+00 0. -1.
         -5    1    5    5    0  502 -0.75669951883E+01 -0.15308987657E+02 -0.41542364293E+01  0.18192641358E+02  0.47000000000E+01 0.  1.
         11    1    6    6    0    0  0.12770147045E+00  0.33478997873E+02  0.12801949342E+03  0.13232479096E+03  0.00000000000E+00 0. -1.
        -12    1    6    6    0    0  0.81243820603E+02 -0.14621674586E+02  0.38784384325E+03  0.39653145966E+03  0.00000000000E+00 0.  1.
<mgrwt>
<rscale>  2 0.19222193E+03</rscale>
<asrwt>0</asrwt>
<pdfrwt beam="1">  1       21 0.10890488E+00 0.19343290E+03</pdfrwt>
<pdfrwt beam="2">  1       21 0.10385406E-01 0.19343290E+03</pdfrwt>
<totfact> 0.50763567E+04</totfact>
</mgrwt>
</event>
<event>
12    1  0.1071811E-001  0.2032604E+03  0.7546771E-02  0.1147379E+00
         21   -1    0    0  503  502  0.00000000000E+00  0.00000000000E+00  0.16783710748E+03  0.16783710748E+03  0.00000000000E+00 0. -1.
         21   -1    0    0  501  503 -0.00000000000E+00 -0.00000000000E+00 -0.54667716654E+03  0.54667716654E+03  0.00000000000E+00 0.  1.
          6    2    1    2  501    0  0.64598033130E+02  0.85220862356E+02 -0.45559106106E+03  0.49887675204E+03  0.17285629160E+03 0.  0.
         24    2    3    3    0    0  0.65443593353E+02  0.43744914979E+02 -0.44008698433E+03  0.45434097341E+03  0.80948655617E+02 0.  0.
         -6    2    1    2    0  502 -0.64598033130E+02 -0.85220862356E+02  0.76751002003E+02  0.21563752198E+03  0.17080200032E+03 0.  0.
        -24    2    5    5    0    0 -0.32640318703E+02 -0.22275302670E+02  0.10682866973E+03  0.13875972875E+03  0.79248458245E+02 0.  0.
          5    1    3    3  501    0 -0.84556022357E+00  0.41475947377E+02 -0.15504076728E+02  0.44535778629E+02  0.47000000000E+01 0. -1.
        -13    1    4    4    0    0  0.66964510271E+02 -0.20906775431E+01 -0.26813080911E+03  0.27637428854E+03  0.00000000000E+00 0.  1.
         14    1    4    4    0    0 -0.15209169180E+01  0.45835592522E+02 -0.17195617522E+03  0.17796668487E+03  0.00000000000E+00 0. -1.
         -5    1    5    5    0  502 -0.31957714426E+02 -0.62945559686E+02 -0.30077667725E+02  0.76877793226E+02  0.47000000000E+01 0.  1.
         11    1    6    6    0    0 -0.21972255261E+02 -0.21399035233E+02  0.11880322297E+03  0.12269842907E+03  0.00000000000E+00 0. -1.
        -12    1    6    6    0    0 -0.10668063442E+02 -0.87626743678E+00 -0.11974553237E+02  0.16061299681E+02  0.00000000000E+00 0.  1.
<mgrwt>
<rscale>  2 0.20282298E+03</rscale>
<asrwt>0</asrwt>
<pdfrwt beam="1">  1       21 0.25821094E-01 0.20326042E+03</pdfrwt>
<pdfrwt beam="2">  1       21 0.84104179E-01 0.20326042E+03</pdfrwt>
<totfact> 0.17364038E+04</totfact>
</mgrwt>
</event>
<event>
12    1  0.1071811E-001  0.2063269E+03  0.7546771E-02  0.1144641E+00
         21   -1    0    0  503  502  0.00000000000E+00  0.00000000000E+00  0.49071211091E+02  0.49071211091E+02  0.00000000000E+00 0. -1.
         21   -1    0    0  501  503 -0.00000000000E+00 -0.00000000000E+00 -0.11915697732E+04  0.11915697732E+04  0.00000000000E+00 0. -1.
          6    2    1    2  501    0 -0.93048721546E+02 -0.59744485831E+02 -0.24573626269E+03  0.32044893353E+03  0.17341781925E+03 0.  0.
         24    2    3    3    0    0 -0.87832184138E+02  0.20074613002E+02 -0.11444992250E+03  0.16664225643E+03  0.80952913531E+02 0.  0.
         -6    2    1    2    0  502  0.93048721546E+02  0.59744485831E+02 -0.89676229947E+03  0.92019205081E+03  0.17419334218E+03 0.  0.
        -24    2    5    5    0    0  0.30677836590E+02  0.39887516728E+02 -0.78213640017E+03  0.78811020761E+03  0.82753895538E+02 0.  0.
          5    1    3    3  501    0 -0.52165374076E+01 -0.79819098834E+02 -0.13128634019E+03  0.15380667711E+03  0.47000000000E+01 0. -1.
        -13    1    4    4    0    0 -0.39057787023E+01  0.12901774374E+02 -0.70222644304E+02  0.71504759718E+02  0.00000000000E+00 0.  1.
         14    1    4    4    0    0 -0.83926405436E+02  0.71728386280E+01 -0.44227278194E+02  0.95137496708E+02  0.00000000000E+00 0. -1.
         -5    1    5    5    0  502  0.62370884955E+02  0.19856969103E+02 -0.11462589930E+03  0.13208184320E+03  0.47000000000E+01 0.  1.
         11    1    6    6    0    0  0.13140276593E+02 -0.23547980477E+02 -0.34435046890E+03  0.34540471868E+03  0.00000000000E+00 0. -1.
        -12    1    6    6    0    0  0.17537559998E+02  0.63435497205E+02 -0.43778593127E+03  0.44270548893E+03  0.00000000000E+00 0.  1.
<mgrwt>
<rscale>  2 0.20616312E+03</rscale>
<asrwt>0</asrwt>
<pdfrwt beam="1">  1       21 0.75494166E-02 0.20632690E+03</pdfrwt>
<pdfrwt beam="2">  1       21 0.18331844E+00 0.20632690E+03</pdfrwt>
<totfact> 0.22712130E+04</totfact>
</mgrwt>
</event>
<event>
12    1  0.1071811E-001  0.2061552E+03  0.7546771E-02  0.1144854E+00
         21   -1    0    0  503  502  0.00000000000E+00  0.00000000000E+00  0.92330509626E+02  0.92330509626E+02  0.00000000000E+00 0.  1.
         21   -1    0    0  501  503 -0.00000000000E+00 -0.00000000000E+00 -0.53013480824E+03  0.53013480824E+03  0.00000000000E+00 0.  1.
          6    2    1    2  501    0  0.13870148377E+02 -0.11146871515E+03 -0.33414226095E+03  0.39262070591E+03  0.17286501288E+03 0.  0.
         24    2    3    3    0    0 -0.44555205540E+01  0.13706069876E+02 -0.13484035939E+03  0.15651078466E+03  0.78140867526E+02 0.  0.
         -6    2    1    2    0  502 -0.13870148377E+02  0.11146871515E+03 -0.10366203766E+03  0.22984461196E+03  0.17165393128E+03 0.  0.
        -24    2    5    5    0    0 -0.68992009303E+02  0.20674253565E+02 -0.31020478680E+02  0.10107761348E+03  0.63773754333E+02 0.  0.
          5    1    3    3  501    0  0.18325668931E+02 -0.12517478502E+03 -0.19930190156E+03  0.23610992125E+03  0.47000000000E+01 0. -1.
        -11    1    4    4    0    0  0.13225279796E+02 -0.13215978510E+02 -0.86351178141E+00  0.18716724240E+02  0.00000000000E+00 0.  1.
         12    1    4    4    0    0 -0.17680800350E+02  0.26922048386E+02 -0.13397684761E+03  0.13779406042E+03  0.00000000000E+00 0. -1.
         -5    1    5    5    0  502  0.55121860926E+02  0.90794461580E+02 -0.72641558980E+02  0.12876699848E+03  0.47000000000E+01 0.  1.
         11    1    6    6    0    0 -0.38992691921E+02  0.14686712219E+02  0.16290403017E+02  0.44738202573E+02  0.00000000000E+00 0. -1.
        -12    1    6    6    0    0 -0.29999317382E+02  0.59875413462E+01 -0.47310881697E+02  0.56339410910E+02  0.00000000000E+00 0.  1.
<mgrwt>
<rscale>  2 0.20590112E+03</rscale>
<asrwt>0</asrwt>
<pdfrwt beam="1">  1       21 0.14204694E-01 0.20615520E+03</pdfrwt>
<pdfrwt beam="2">  1       21 0.81559202E-01 0.20615520E+03</pdfrwt>
<totfact> 0.56647453E+04</totfact>
</mgrwt>
</event>
<event>
12    1  0.1071811E-001  0.1913451E+03  0.7546771E-02  0.1157343E+00
         21   -1    0    0  503  502  0.00000000000E+00  0.00000000000E+00  0.57522788171E+03  0.57522788171E+03  0.00000000000E+00 0. -1.
         21   -1    0    0  501  503 -0.00000000000E+00 -0.00000000000E+00 -0.77103764482E+02  0.77103764482E+02  0.00000000000E+00 0.  1.
          6    2    1    2  501    0  0.40547743805E+02 -0.70665645669E+02  0.38619266000E+03  0.43099618615E+03  0.17313344226E+03 0.  0.
         24    2    3    3    0    0  0.43276967717E+02 -0.11388249701E+03  0.31900302551E+03  0.35092320764E+03  0.80882929699E+02 0.  0.
         -6    2    1    2    0  502 -0.40547743805E+02  0.70665645669E+02  0.11193145722E+03  0.22133546004E+03  0.17269331704E+03 0.  0.
        -24    2    5    5    0    0 -0.33005761104E+01  0.76847263339E+02  0.13642809940E+03  0.17608350565E+03  0.80475952760E+02 0.  0.
          5    1    3    3  501    0 -0.27292239125E+01  0.43216851345E+02  0.67189634490E+02  0.80072978502E+02  0.47000000000E+01 0. -1.
        -13    1    4    4    0    0  0.28388951278E+02 -0.65585018254E+02  0.82811650619E+02  0.10938508423E+03  0.00000000000E+00 0.  1.
         14    1    4    4    0    0  0.14888016439E+02 -0.48297478760E+02  0.23619137489E+03  0.24153812341E+03  0.00000000000E+00 0. -1.
         -5    1    5    5    0  502 -0.37247167694E+02 -0.61816176702E+01 -0.24496642174E+02  0.45251954390E+02  0.47000000000E+01 0.  1.
         11    1    6    6    0    0 -0.55430367173E+01  0.85101182509E+02  0.73521686166E+02  0.11259828976E+03  0.00000000000E+00 0. -1.
        -12    1    6    6    0    0  0.22424606069E+01 -0.82539191699E+01  0.62906413232E+02  0.63485215893E+02  0.00000000000E+00 0.  1.
<mgrwt>
<rscale>  2 0.19124547E+03</rscale>
<asrwt>0</asrwt>
<pdfrwt beam="1">  1       21 0.88496594E-01 0.19134509E+03</pdfrwt>
<pdfrwt beam="2">  1       21 0.11862118E-01 0.19134509E+03</pdfrwt>
<totfact> 0.65476887E+04</totfact>
</mgrwt>
</event>
<event>
12    1  0.1071811E-001  0.2740797E+03  0.7546771E-02  0.1099149E+00
         21   -1    0    0  503  502  0.00000000000E+00  0.00000000000E+00  0.22725943222E+03  0.22725943222E+03  0.00000000000E+00 0. -1.
         21   -1    0    0  501  503 -0.00000000000E+00 -0.00000000000E+00 -0.41802037257E+03  0.41802037257E+03  0.00000000000E+00 0.  1.
          6    2    1    2  501    0  0.73233419877E+02 -0.19934064073E+03 -0.24409954594E+03  0.36605826187E+03  0.17121401204E+03 0.  0.
         24    2    3    3    0    0  0.11263827696E+03 -0.15068024320E+03 -0.21542461303E+03  0.29702987041E+03  0.80168964632E+02 0.  0.
         -6    2    1    2    0  502 -0.73233419877E+02  0.19934064073E+03  0.53338605591E+02  0.27922154293E+03  0.17326233969E+03 0.  0.
        -24    2    5    5    0    0 -0.85414392760E+02  0.11668009345E+03  0.90315772307E+02  0.18773087108E+03  0.78588030456E+02 0.  0.
          5    1    3    3  501    0 -0.39404857083E+02 -0.48660397527E+02 -0.28674932913E+02  0.69028391454E+02  0.47000000000E+01 0. -1.
        -11    1    4    4    0    0  0.40338792763E+02 -0.83889799417E+01 -0.23575159784E+02  0.47469794026E+02  0.00000000000E+00 0.  1.
         12    1    4    4    0    0  0.72299484198E+02 -0.14229126326E+03 -0.19184945325E+03  0.24956007639E+03  0.00000000000E+00 0. -1.
         -5    1    5    5    0  502  0.12180972883E+02  0.82660547279E+02 -0.36977166716E+02  0.91490671848E+02  0.47000000000E+01 0.  1.
         11    1    6    6    0    0 -0.12647908323E+02  0.80002063335E+02  0.30096304479E+02  0.86406523285E+02  0.00000000000E+00 0. -1.
        -12    1    6    6    0    0 -0.72766484438E+02  0.36678030111E+02  0.60219467828E+02  0.10132434779E+03  0.00000000000E+00 0.  1.
<mgrwt>
<rscale>  2 0.27375653E+03</rscale>
<asrwt>0</asrwt>
<pdfrwt beam="1">  1       21 0.34962990E-01 0.27407967E+03</pdfrwt>
<pdfrwt beam="2">  1       21 0.64310825E-01 0.27407967E+03</pdfrwt>
<totfact> 0.16835780E+04</totfact>
</mgrwt>
</event>
<event>
12    1  0.1071811E-001  0.1837903E+03  0.7546771E-02  0.1164930E+00
         21   -1    0    0  501  502  0.00000000000E+00  0.00000000000E+00  0.47541931061E+02  0.47541931061E+02  0.00000000000E+00 0.  1.
         21   -1    0    0  502  503 -0.00000000000E+00 -0.00000000000E+00 -0.15203689426E+04  0.15203689426E+04  0.00000000000E+00 0.  1.
         -6    2    1    2    0  503 -0.33833315159E+02 -0.50093254009E+02 -0.13157285632E+04  0.13285031173E+04  0.17356512717E+03 0.  0.
        -24    2    3    3    0    0 -0.79639584918E+02 -0.29262789699E+02 -0.11293349013E+04  0.11353792974E+04  0.80560880621E+02 0.  0.
          6    2    1    2  501    0  0.33833315159E+02  0.50093254009E+02 -0.15709844834E+03  0.23940775635E+03  0.17024136988E+03 0.  0.
         24    2    5    5    0    0  0.86530228153E+02  0.32502180177E+02 -0.95500482553E+02  0.15632460579E+03  0.82299259461E+02 0.  0.
          5    1    5    5  501    0 -0.52696912995E+02  0.17591073832E+02 -0.61597965785E+02  0.83083150557E+02  0.47000000000E+01 0. -1.
        -11    1    6    6    0    0  0.86234661124E+01  0.37586441054E+02 -0.86116172262E+01  0.39512841838E+02  0.00000000000E+00 0.  1.
         12    1    6    6    0    0  0.77906762041E+02 -0.50842608767E+01 -0.86888865327E+02  0.11681176395E+03  0.00000000000E+00 0. -1.
         -5    1    3    3    0  503  0.45806269759E+02 -0.20830464310E+02 -0.18639366194E+03  0.19312381988E+03  0.47000000000E+01 0.  1.
         13    1    4    4    0    0 -0.67204868761E+02 -0.36611264363E+02 -0.49509816693E+03  0.50097811725E+03  0.00000000000E+00 0. -1.
        -14    1    4    4    0    0 -0.12434716157E+02  0.73484746638E+01 -0.63423673434E+03  0.63440118020E+03  0.00000000000E+00 0.  1.
<mgrwt>
<rscale>  2 0.18300137E+03</rscale>
<asrwt>0</asrwt>
<pdfrwt beam="1">  1       21 0.73141429E-02 0.18379032E+03</pdfrwt>
<pdfrwt beam="2">  1       21 0.23390292E+00 0.18379032E+03</pdfrwt>
<totfact> 0.11710579E+04</totfact>
</mgrwt>
</event>
<event>
11    1  0.1071811E-001  0.2558373E+03  0.7546771E-02  0.1109745E+00
         21   -1    0    0  501  502  0.00000000000E+00  0.00000000000E+00  0.14951547968E+04  0.14951547968E+04  0.00000000000E+00 0. -1.
         21   -1    0    0  502  503 -0.00000000000E+00 -0.00000000000E+00 -0.73275309575E+02  0.73275309575E+02  0.00000000000E+00 0. -1.
         -6    2    1    2    0  503  0.17033876161E+03 -0.79849128066E+02  0.21306578316E+03  0.33294108997E+03  0.17338271102E+03 0.  0.
        -24    2    3    3    0    0  0.75961643563E+02 -0.71716893102E+02  0.19664986224E+03  0.23668753879E+03  0.80226795104E+02 0.  0.
          6    2    1    2  501    0 -0.17033876161E+03  0.79849128066E+02  0.12088137040E+04  0.12354890164E+04  0.17265966971E+03 0.  0.
          5    1    5    5  501    0 -0.29369908952E+02  0.24131424521E+02  0.11937404552E+03  0.12536813768E+03  0.47000000000E+01 0. -1.
        -13    1    5    5    0    0  0.63619813816E+01 -0.30831960300E+02  0.74201484269E+02  0.80603628025E+02  0.00000000000E+00 0.  1.
         14    1    5    5    0    0 -0.14733083404E+03  0.86549663845E+02  0.10152381742E+04  0.10295172507E+04  0.00000000000E+00 0. -1.
         -5    1    3    3    0  503  0.94377118043E+02 -0.81322349637E+01  0.16415920920E+02  0.96253551182E+02  0.47000000000E+01 0.  1.
         13    1    4    4    0    0  0.47209515500E+02  0.34445320965E+01  0.10202454624E+03  0.11247049031E+03  0.00000000000E+00 0. -1.
        -14    1    4    4    0    0  0.28752128063E+02 -0.75161425199E+02  0.94625315995E+02  0.12421704848E+03  0.00000000000E+00 0.  1.
<mgrwt>
<rscale>  2 0.25571488E+03</rscale>
<asrwt>0</asrwt>
<pdfrwt beam="1">  1       21 0.23002379E+00 0.25583733E+03</pdfrwt>
<pdfrwt beam="2">  1       21 0.11273126E-01 0.25583733E+03</pdfrwt>
<totfact> 0.54314818E+03</totfact>
</mgrwt>
</event>
<event>
12    1  0.1071811E-001  0.2728177E+03  0.7546771E-02  0.1099734E+00
         21   -1    0    0  501  502  0.00000000000E+00  0.00000000000E+00  0.20454921275E+04  0.20454921275E+04  0.00000000000E+00 0.  1.
         21   -1    0    0  502  503 -0.00000000000E+00 -0.00000000000E+00 -0.16146110221E+03  0.16146110221E+03  0.00000000000E+00 0. -1.
         -6    2    1    2    0  503  0.20839909851E+03 -0.33878116000E+02 -0.29553562010E+02  0.27401881207E+03  0.17214814938E+03 0.  0.
        -24    2    3    3    0    0  0.95204517951E+02 -0.36683626072E+02 -0.76640066124E+02  0.15129916073E+03  0.81290513853E+02 0.  0.
          6    2    1    2  501    0 -0.20839909851E+03  0.33878116000E+02  0.19135845873E+04  0.19329344176E+04  0.17277609549E+03 0.  0.
         24    2    5    5    0    0 -0.23837512836E+02  0.65378697844E+01  0.52743885606E+03  0.53428058406E+03  0.81566076677E+02 0.  0.
          5    1    5    5  501    0 -0.18456158567E+03  0.27340246215E+02  0.13861457312E+04  0.13986538335E+04  0.47000000000E+01 0. -1.
        -11    1    6    6    0    0 -0.39444320263E+02 -0.10802695498E+02  0.47651922159E+03  0.47827097045E+03  0.00000000000E+00 0.  1.
         12    1    6    6    0    0  0.15606807427E+02  0.17340565282E+02  0.50919634470E+02  0.56009613611E+02  0.00000000000E+00 0. -1.
         -5    1    3    3    0  503  0.11319458055E+03  0.28055100730E+01  0.47086504114E+02  0.12271965133E+03  0.47000000000E+01 0.  1.
         11    1    4    4    0    0  0.10952388021E+03 -0.26292796215E+02 -0.68446245747E+02  0.13180166928E+03  0.00000000000E+00 0. -1.
        -12    1    4    4    0    0 -0.14319362255E+02 -0.10390829857E+02 -0.81938203773E+01  0.19497491451E+02  0.00000000000E+00 0.  1.
<mgrwt>
<rscale>  2 0.27271832E+03</rscale>
<asrwt>0</asrwt>
<pdfrwt beam="1">  1       21 0.31469108E+00 0.27281769E+03</pdfrwt>
<pdfrwt beam="2">  1       21 0.24840171E-01 0.27281769E+03</pdfrwt>
<totfact> 0.38954871E+02</totfact>
</mgrwt>
</event>
<event>
12    1  0.1071811E-001  0.1908772E+03  0.7546771E-02  0.1157709E+00
         21   -1    0    0  501  502  0.00000000000E+00  0.00000000000E+00  0.50613361339E+03  0.50613361339E+03  0.00000000000E+00 0. -1.
         21   -1    0    0  502  503 -0.00000000000E+00 -0.00000000000E+00 -0.85607560011E+02  0.85607560011E+02  0.00000000000E+00 0. -1.
         -6    2    1    2    0  503  0.42102676217E+02 -0.68000386555E+02  0.32847888141E+03  0.37982891300E+03  0.17313272281E+03 0.  0.
        -24    2    3    3    0    0  0.47492447197E+02 -0.97218208745E+02  0.32082706659E+03  0.34879069407E+03  0.83773677002E+02 0.  0.
          6    2    1    2  501    0 -0.42102676217E+02  0.68000386555E+02  0.92047171978E+02  0.21191226040E+03  0.17331311642E+03 0.  0.
         24    2    5    5    0    0 -0.80790308372E+02  0.13453070098E+02  0.87651179146E+02  0.14472924642E+03  0.80967688260E+02 0.  0.
          5    1    5    5  501    0  0.38687632155E+02  0.54547316457E+02  0.43959928319E+01  0.67183013980E+02  0.47000000000E+01 0. -1.
        -13    1    6    6    0    0  0.16665692991E+02 -0.69041581242E+00  0.13429647758E+02  0.21414421210E+02  0.00000000000E+00 0.  1.
         14    1    6    6    0    0 -0.97456001363E+02  0.14143485910E+02  0.74221531389E+02  0.12331482521E+03  0.00000000000E+00 0. -1.
         -5    1    3    3    0  503 -0.53897709799E+01  0.29217822190E+02  0.76518148133E+01  0.31038218936E+02  0.47000000000E+01 0.  1.
         11    1    4    4    0    0  0.51855340903E+02 -0.46373446411E+02  0.26121102659E+03  0.27031587694E+03  0.00000000000E+00 0. -1.
        -12    1    4    4    0    0 -0.43628937064E+01 -0.50844762333E+02  0.59616040003E+02  0.78474817132E+02  0.00000000000E+00 0.  1.
<mgrwt>
<rscale>  2 0.19083629E+03</rscale>
<asrwt>0</asrwt>
<pdfrwt beam="1">  1       21 0.77866708E-01 0.19087725E+03</pdfrwt>
<pdfrwt beam="2">  1       21 0.13170394E-01 0.19087725E+03</pdfrwt>
<totfact> 0.72637981E+04</totfact>
</mgrwt>
</event>
<event>
12    1  0.1071811E-001  0.1797836E+03  0.7546771E-02  0.1168527E+00
         21   -1    0    0  501  502  0.00000000000E+00  0.00000000000E+00  0.10347870168E+03  0.10347870168E+03  0.00000000000E+00 0. -1.
         21   -1    0    0  502  503 -0.00000000000E+00 -0.00000000000E+00 -0.47592271251E+03  0.47592271251E+03  0.00000000000E+00 0. -1.
         -6    2    1    2    0  503 -0.36049371223E+02  0.26010960317E+02 -0.35722901748E+03  0.39897511642E+03  0.17202454876E+03 0.  0.
        -24    2    3    3    0    0 -0.13692135261E+02  0.73761534536E+02 -0.30649243663E+03  0.32565217339E+03  0.80520095519E+02 0.  0.
          6    2    1    2  501    0  0.36049371223E+02 -0.26010960317E+02 -0.15214993355E+02  0.18042629776E+03  0.17420110700E+03 0.  0.
         24    2    5    5    0    0  0.48396751821E+02  0.18285506322E+02  0.42751313481E+02  0.10628577246E+03  0.82415928641E+02 0.  0.
          5    1    5    5  501    0 -0.12347380598E+02 -0.44296466639E+02 -0.57966306836E+02  0.74140525306E+02  0.47000000000E+01 0. -1.
        -11    1    6    6    0    0  0.40961145635E+01  0.30831748950E+02 -0.13232336153E+02  0.33800438132E+02  0.00000000000E+00 0.  1.
         12    1    6    6    0    0  0.44300637257E+02 -0.12546242628E+02  0.55983649635E+02  0.72485334323E+02  0.00000000000E+00 0. -1.
         -5    1    3    3    0  503 -0.22357235962E+02 -0.47750574219E+02 -0.50736580850E+02  0.73322943029E+02  0.47000000000E+01 0.  1.
         11    1    4    4    0    0 -0.36207394338E+02  0.71019498358E+02 -0.17611396560E+03  0.19331547644E+03  0.00000000000E+00 0. -1.
        -12    1    4    4    0    0  0.22515259077E+02  0.27420361778E+01 -0.13037847103E+03  0.13233669696E+03  0.00000000000E+00 0.  1.
<mgrwt>
<rscale>  2 0.17925425E+03</rscale>
<asrwt>0</asrwt>
<pdfrwt beam="1">  1       21 0.15919800E-01 0.17978363E+03</pdfrwt>
<pdfrwt beam="2">  1       21 0.73218879E-01 0.17978363E+03</pdfrwt>
<totfact> 0.59376084E+04</totfact>
</mgrwt>
</event>
<event>
12    1  0.1071811E-001  0.2629616E+03  0.7546771E-02  0.1105783E+00
         21   -1    0    0  501  502  0.00000000000E+00  0.00000000000E+00  0.31783866276E+03  0.31783866276E+03  0.00000000000E+00 0. -1.
         21   -1    0    0  502  503 -0.00000000000E+00 -0.00000000000E+00 -0.22010539394E+03  0.22010539394E+03  0.00000000000E+00 0.  1.
         -6    2    1    2    0  503 -0.16486381517E+03  0.10836991699E+03  0.89001294388E+01  0.26038305892E+03  0.16969386733E+03 0.  0.
        -24    2    3    3    0    0 -0.66420585184E+02  0.29430694113E+02  0.58362403285E+02  0.12476935396E+03  0.82966027259E+02 0.  0.
          6    2    1    2  501    0  0.16486381517E+03 -0.10836991699E+03  0.88833139385E+02  0.27756099777E+03  0.17385242124E+03 0.  0.
         24    2    5    5    0    0  0.82693294611E+02 -0.64379300476E+02 -0.23278278031E+02  0.13169040887E+03  0.76273260438E+02 0.  0.
          5    1    5    5  501    0  0.82170520562E+02 -0.43990616511E+02  0.11211141742E+03  0.14587058890E+03  0.47000000000E+01 0. -1.
        -13    1    6    6    0    0  0.33392790790E+02  0.10720199474E+02  0.90408009275E+01  0.36217913178E+02  0.00000000000E+00 0.  1.
         14    1    6    6    0    0  0.49300503821E+02 -0.75099499950E+02 -0.32319078958E+02  0.95472495696E+02  0.00000000000E+00 0. -1.
         -5    1    3    3    0  503 -0.98443229989E+02  0.78939222874E+02 -0.49462273846E+02  0.13561370496E+03  0.47000000000E+01 0.  1.
         11    1    4    4    0    0  0.12251965112E+02  0.27314369574E+02  0.26084902568E+02  0.39706518059E+02  0.00000000000E+00 0. -1.
        -12    1    4    4    0    0 -0.78672550296E+02  0.21163245390E+01  0.32277500716E+02  0.85062835905E+02  0.00000000000E+00 0.  1.
<mgrwt>
<rscale>  2 0.26227622E+03</rscale>
<asrwt>0</asrwt>
<pdfrwt beam="1">  1       21 0.48898256E-01 0.26296156E+03</pdfrwt>
<pdfrwt beam="2">  1       21 0.33862368E-01 0.26296156E+03</pdfrwt>
<totfact> 0.32424230E+04</totfact>
</mgrwt>
</event>
<event>
12    1  0.1071811E-001  0.1824008E+03  0.7546771E-02  0.1166883E+00
         21   -1    0    0  503  502  0.00000000000E+00  0.00000000000E+00  0.50421183883E+02  0.50421183883E+02  0.00000000000E+00 0.  1.
         21   -1    0    0  501  503 -0.00000000000E+00 -0.00000000000E+00 -0.68463170213E+03  0.68463170213E+03  0.00000000000E+00 0.  1.
          6    2    1    2  501    0 -0.37908654416E+01  0.34676876443E+02 -0.40693485940E+03  0.44363517224E+03  0.17320314615E+03 0.  0.
         24    2    3    3    0    0  0.24388840635E+01 -0.47930592794E+02 -0.23781821081E+03  0.25525965743E+03  0.79351757608E+02 0.  0.
         -6    2    1    2    0  502  0.37908654416E+01 -0.34676876443E+02 -0.22727565885E+03  0.29141771377E+03  0.17903408160E+03 0.  0.
        -24    2    5    5    0    0 -0.34894478189E+02 -0.50942662359E+02 -0.22818348501E+03  0.24917974801E+03  0.78803962649E+02 0.  0.
          5    1    3    3  501    0 -0.62297495051E+01  0.82607469237E+02 -0.16911664859E+03  0.18837551482E+03  0.47000000000E+01 0. -1.
        -13    1    4    4    0    0 -0.64111398202E+01 -0.22993344521E+02 -0.22426086129E+03  0.22552767128E+03  0.00000000000E+00 0.  1.
         14    1    4    4    0    0  0.88500238837E+01 -0.24937248273E+02 -0.13557349517E+02  0.29731986144E+02  0.00000000000E+00 0. -1.
         -5    1    5    5    0  502  0.38685343630E+02  0.16265785916E+02  0.90782616465E+00  0.42237965761E+02  0.47000000000E+01 0.  1.
         11    1    6    6    0    0 -0.27963382740E+02  0.96190426929E+01 -0.31231405308E+02  0.43010201512E+02  0.00000000000E+00 0. -1.
        -12    1    6    6    0    0 -0.69310954486E+01 -0.60561705052E+02 -0.19695207971E+03  0.20616954650E+03  0.00000000000E+00 0.  1.
<mgrwt>
<rscale>  2 0.18095374E+03</rscale>
<asrwt>0</asrwt>
<pdfrwt beam="1">  1       21 0.77571056E-02 0.18240082E+03</pdfrwt>
<pdfrwt beam="2">  1       21 0.10532795E+00 0.18240082E+03</pdfrwt>
<totfact> 0.92215851E+04</totfact>
</mgrwt>
</event>
<event>
12    1  0.1071811E-001  0.2263988E+03  0.7546771E-02  0.1129240E+00
         21   -1    0    0  503  502  0.00000000000E+00  0.00000000000E+00  0.57342560930E+03  0.57342560930E+03  0.00000000000E+00 0.  1.
         21   -1    0    0  501  503 -0.00000000000E+00 -0.00000000000E+00 -0.90564610090E+02  0.90564610090E+02  0.00000000000E+00 0. -1.
          6    2    1    2  501    0 -0.12487746668E+02  0.14537290379E+03  0.20208151637E+03  0.30330542286E+03  0.17282365378E+03 0.  0.
         24    2    3    3    0    0  0.41506981819E+02  0.35672488225E+02  0.56632448004E+02  0.11323403268E+03  0.81359424982E+02 0.  0.
         -6    2    1    2    0  502  0.12487746668E+02 -0.14537290379E+03  0.28077948284E+03  0.36068479653E+03  0.17311031018E+03 0.  0.
        -24    2    5    5    0    0  0.64245257048E+02 -0.44338568719E+02  0.13400461388E+03  0.17507302723E+03  0.81240178439E+02 0.  0.
          5    1    3    3  501    0 -0.53994728487E+02  0.10970041556E+03  0.14544906836E+03  0.19007139018E+03  0.47000000000E+01 0. -1.
        -13    1    4    4    0    0  0.17404852669E+02  0.60655920004E+02  0.32731773198E+02  0.71087541135E+02  0.00000000000E+00 0.  1.
         14    1    4    4    0    0  0.24102129151E+02 -0.24983431779E+02  0.23900674806E+02  0.42146491541E+02  0.00000000000E+00 0. -1.
         -5    1    5    5    0  502 -0.51757510380E+02 -0.10103433507E+03  0.14677486896E+03  0.18561176930E+03  0.47000000000E+01 0.  1.
         11    1    6    6    0    0  0.50313764924E+02 -0.67196316795E+02  0.86442101540E+02  0.12049504907E+03  0.00000000000E+00 0. -1.
        -12    1    6    6    0    0  0.13931492125E+02  0.22857748076E+02  0.47562512337E+02  0.54577978157E+02  0.00000000000E+00 0.  1.
<mgrwt>
<rscale>  2 0.22634398E+03</rscale>
<asrwt>0</asrwt>
<pdfrwt beam="1">  1       21 0.88219322E-01 0.22639877E+03</pdfrwt>
<pdfrwt beam="2">  1       21 0.13933017E-01 0.22639877E+03</pdfrwt>
<totfact> 0.48542004E+04</totfact>
</mgrwt>
</event>
<event>
12    1  0.1071811E-001  0.2184936E+03  0.7546771E-02  0.1135207E+00
         21   -1    0    0  503  502  0.00000000000E+00  0.00000000000E+00  0.25850665838E+03  0.25850665838E+03  0.00000000000E+00 0.  1.
         21   -1    0    0  501  503 -0.00000000000E+00 -0.00000000000E+00 -0.40170869386E+03  0.40170869386E+03  0.00000000000E+00 0.  1.
          6    2    1    2  501    0  0.16479025210E+02  0.13321200124E+03 -0.31480933173E+03  0.38320278099E+03  0.17240203151E+03 0.  0.
         24    2    3    3    0    0 -0.22123339743E+02  0.15065250244E+03 -0.26914959566E+03  0.32074307270E+03  0.85141031161E+02 0.  0.
         -6    2    1    2    0  502 -0.16479025210E+02 -0.13321200124E+03  0.17160729624E+03  0.27701257125E+03  0.17108449654E+03 0.  0.
        -24    2    5    5    0    0 -0.66826956106E+02 -0.11146907671E+03  0.86723003792E+02  0.17584389023E+03  0.80678356586E+02 0.  0.
          5    1    3    3  501    0  0.38602364953E+02 -0.17440501197E+02 -0.45659736071E+02  0.62459708292E+02  0.47000000000E+01 0. -1.
        -13    1    4    4    0    0  0.28371711196E+02  0.37196005665E+02 -0.47463148832E+02  0.66642684000E+02  0.00000000000E+00 0.  1.
         14    1    4    4    0    0 -0.50495050939E+02  0.11345649677E+03 -0.22168644683E+03  0.25410038870E+03  0.00000000000E+00 0. -1.
         -5    1    5    5    0  502  0.50347930895E+02 -0.21742924537E+02  0.84884292453E+02  0.10116868101E+03  0.47000000000E+01 0.  1.
         11    1    6    6    0    0 -0.33311621716E+01 -0.71639432444E+02  0.17514338717E+02  0.73824501238E+02  0.00000000000E+00 0. -1.
        -12    1    6    6    0    0 -0.63495793934E+02 -0.39829644261E+02  0.69208665074E+02  0.10201938899E+03  0.00000000000E+00 0.  1.
<mgrwt>
<rscale>  2 0.21823362E+03</rscale>
<asrwt>0</asrwt>
<pdfrwt beam="1">  1       21 0.39770255E-01 0.21849361E+03</pdfrwt>
<pdfrwt beam="2">  1       21 0.61801337E-01 0.21849361E+03</pdfrwt>
<totfact> 0.14579928E+04</totfact>
</mgrwt>
</event>
<event>
12    1  0.1071811E-001  0.2709086E+03  0.7546771E-02  0.1102673E+00
         21   -1    0    0  501  502  0.00000000000E+00  0.00000000000E+00  0.13049685213E+03  0.13049685213E+03  0.00000000000E+00 0.  1.
         21   -1    0    0  502  503 -0.00000000000E+00 -0.00000000000E+00 -0.58777061396E+03  0.58777061396E+03  0.00000000000E+00 0.  1.
         -6    2    1    2    0  503 -0.19034036689E+03  0.28907333553E+02 -0.12680771662E+03  0.29911811574E+03  0.19059475587E+03 0.  0.
        -24    2    3    3    0    0 -0.55388533643E+02 -0.45162505680E+02 -0.87382783998E+02  0.14013775943E+03  0.83037937712E+02 0.  0.
          6    2    1    2  501    0  0.19034036689E+03 -0.28907333553E+02 -0.33046604521E+03  0.41914935035E+03  0.17150300772E+03 0.  0.
         24    2    5    5    0    0  0.14786559634E+03 -0.61463142085E+02 -0.31649780281E+03  0.36364089515E+03  0.80136689649E+02 0.  0.
          5    1    5    5  501    0  0.42474770554E+02  0.32555808532E+02 -0.13968242405E+02  0.55508455200E+02  0.47000000000E+01 0. -1.
        -11    1    6    6    0    0  0.11354128568E+03 -0.72986419480E+01 -0.18195997515E+03  0.21460271733E+03  0.00000000000E+00 0.  1.
         12    1    6    6    0    0  0.34324310655E+02 -0.54164500137E+02 -0.13453782766E+03  0.14903817782E+03  0.00000000000E+00 0. -1.
         -5    1    3    3    0  503 -0.13495183325E+03  0.74069839233E+02 -0.39424932625E+02  0.15898035631E+03  0.47000000000E+01 0.  1.
         13    1    4    4    0    0  0.52335681750E+01 -0.48557600109E+02 -0.39325541101E+02  0.62703500278E+02  0.00000000000E+00 0. -1.
        -14    1    4    4    0    0 -0.60622101818E+02  0.33950944294E+01 -0.48057242897E+02  0.77434259149E+02  0.00000000000E+00 0.  1.
<mgrwt>
<rscale>  2 0.26757904E+03</rscale>
<asrwt>0</asrwt>
<pdfrwt beam="1">  1       21 0.20076439E-01 0.27090856E+03</pdfrwt>
<pdfrwt beam="2">  1       21 0.90426248E-01 0.27090856E+03</pdfrwt>
<totfact> 0.22865632E+04</totfact>
</mgrwt>
</event>
<event>
12    1  0.1071811E-001  0.1964504E+03  0.7546771E-02  0.1153586E+00
         21   -1    0    0  503  502  0.00000000000E+00  0.00000000000E+00  0.31063966213E+02  0.31063966213E+02  0.00000000000E+00 0. -1.
         21   -1    0    0  501  503 -0.00000000000E+00 -0.00000000000E+00 -0.12199204802E+04  0.12199204802E+04  0.00000000000E+00 0. -1.
          6    2    1    2  501    0 -0.90345100796E+02  0.22641566828E+02 -0.60781324138E+03  0.63762970031E+03  0.16870038690E+03 0.  0.
         24    2    3    3    0    0 -0.70437636955E+02  0.78030315900E+02 -0.40738868643E+03  0.42868876879E+03  0.82209049108E+02 0.  0.
         -6    2    1    2    0  502  0.90345100796E+02 -0.22641566828E+02 -0.58104327262E+03  0.61335474610E+03  0.17296786445E+03 0.  0.
        -24    2    5    5    0    0  0.12507804129E+03 -0.16832756499E+02 -0.36598779765E+03  0.39538441155E+03  0.80336210796E+02 0.  0.
          5    1    3    3  501    0 -0.19907463841E+02 -0.55388749072E+02 -0.20042455494E+03  0.20894093152E+03  0.47000000000E+01 0. -1.
        -13    1    4    4    0    0  0.15015639882E+02 -0.19529407860E+01 -0.30638210497E+02  0.34175771553E+02  0.00000000000E+00 0.  1.
         14    1    4    4    0    0 -0.85453276837E+02  0.79983256686E+02 -0.37675047594E+03  0.39451299724E+03  0.00000000000E+00 0. -1.
         -5    1    5    5    0  502 -0.34732940493E+02 -0.58088103294E+01 -0.21505547497E+03  0.21797033456E+03  0.47000000000E+01 0.  1.
         13    1    6    6    0    0  0.70201659622E+02  0.11257528810E+02 -0.10226328061E+03  0.12455032529E+03  0.00000000000E+00 0. -1.
        -14    1    6    6    0    0  0.54876381667E+02 -0.28090285309E+02 -0.26372451703E+03  0.27083408626E+03  0.00000000000E+00 0.  1.
<mgrwt>
<rscale>  2 0.19550694E+03</rscale>
<asrwt>0</asrwt>
<pdfrwt beam="1">  1       21 0.47790717E-02 0.19645040E+03</pdfrwt>
<pdfrwt beam="2">  1       21 0.18768007E+00 0.19645040E+03</pdfrwt>
<totfact> 0.46805439E+04</totfact>
</mgrwt>
</event>
<event>
12    1  0.1071811E-001  0.1786647E+03  0.7546771E-02  0.1169278E+00
         21   -1    0    0  503  502  0.00000000000E+00  0.00000000000E+00  0.56807139141E+03  0.56807139141E+03  0.00000000000E+00 0. -1.
         21   -1    0    0  501  503 -0.00000000000E+00 -0.00000000000E+00 -0.85861132089E+03  0.85861132089E+03  0.00000000000E+00 0. -1.
          6    2    1    2  501    0 -0.68454582577E+01 -0.46277734476E+02 -0.83495214202E+03  0.85370300854E+03  0.17168359946E+03 0.  0.
         24    2    3    3    0    0 -0.25378530320E+02  0.12796922084E+02 -0.69923967810E+03  0.70446074687E+03  0.80752618689E+02 0.  0.
         -6    2    1    2    0  502  0.68454582577E+01  0.46277734476E+02  0.54441221255E+03  0.57297970376E+03  0.17243142039E+03 0.  0.
        -24    2    5    5    0    0  0.93762234070E+01  0.12891064364E+02  0.53023775611E+03  0.53631801082E+03  0.78935654955E+02 0.  0.
          5    1    3    3  501    0  0.18533072062E+02 -0.59074656560E+02 -0.13571246392E+03  0.14924226168E+03  0.47000000000E+01 0. -1.
        -11    1    4    4    0    0  0.13822350375E+02  0.18159873753E+02 -0.63247235383E+02  0.67238762394E+02  0.00000000000E+00 0.  1.
         12    1    4    4    0    0 -0.39200880696E+02 -0.53629516688E+01 -0.63599244272E+03  0.63722198447E+03  0.00000000000E+00 0. -1.
         -5    1    5    5    0  502 -0.25307651493E+01  0.33386670112E+02  0.14174456439E+02  0.36661692933E+02  0.47000000000E+01 0.  1.
         13    1    6    6    0    0 -0.12174768023E+02  0.41939959366E+02  0.32441759346E+03  0.32734379499E+03  0.00000000000E+00 0. -1.
        -14    1    6    6    0    0  0.21550991430E+02 -0.29048895002E+02  0.20582016265E+03  0.20897421584E+03  0.00000000000E+00 0.  1.
<mgrwt>
<rscale>  2 0.17848404E+03</rscale>
<asrwt>0</asrwt>
<pdfrwt beam="1">  1       21 0.87395599E-01 0.17866472E+03</pdfrwt>
<pdfrwt beam="2">  1       21 0.13209405E+00 0.17866472E+03</pdfrwt>
<totfact> 0.47445191E+02</totfact>
</mgrwt>
</event>
<event>
12    1  0.1071811E-001  0.1891688E+03  0.7546771E-02  0.1159318E+00
         21   -1    0    0  501  502  0.00000000000E+00  0.00000000000E+00  0.61329094756E+02  0.61329094756E+02  0.00000000000E+00 0. -1.
         21   -1    0    0  502  503 -0.00000000000E+00 -0.00000000000E+00 -0.10079485372E+04  0.10079485372E+04  0.00000000000E+00 0. -1.
         -6    2    1    2    0  503 -0.59847406380E+02 -0.45932315242E+02 -0.82117098829E+03  0.84267823867E+03  0.17347429862E+03 0.  0.
        -24    2    3    3    0    0 -0.45305152165E+02 -0.69231514564E+02 -0.31553654221E+03  0.33627660665E+03  0.81688966752E+02 0.  0.
          6    2    1    2  501    0  0.59847406380E+02  0.45932315242E+02 -0.12544845419E+03  0.22659939332E+03  0.17296959491E+03 0.  0.
         24    2    5    5    0    0  0.69549187196E+02  0.28374446685E+02 -0.15529248343E+03  0.19033426710E+03  0.80431207614E+02 0.  0.
          5    1    5    5  501    0 -0.97017808160E+01  0.17557868558E+02  0.29844029236E+02  0.36265126228E+02  0.47000000000E+01 0. -1.
        -13    1    6    6    0    0 -0.40501542182E+00 -0.20587007461E+02 -0.54360249622E+02  0.58129387169E+02  0.00000000000E+00 0.  1.
         14    1    6    6    0    0  0.69954202618E+02  0.48961454146E+02 -0.10093223380E+03  0.13220487993E+03  0.00000000000E+00 0. -1.
         -5    1    3    3    0  503 -0.14542254216E+02  0.23299199322E+02 -0.50563444609E+03  0.50640163202E+03  0.47000000000E+01 0.  1.
         13    1    4    4    0    0 -0.32149665402E+02  0.75304721259E+01 -0.14629802792E+03  0.14997807163E+03  0.00000000000E+00 0. -1.
        -14    1    4    4    0    0 -0.13155486763E+02 -0.76761986690E+02 -0.16923851429E+03  0.18629853502E+03  0.00000000000E+00 0.  1.
<mgrwt>
<rscale>  2 0.18905298E+03</rscale>
<asrwt>0</asrwt>
<pdfrwt beam="1">  1       21 0.94352461E-02 0.18916877E+03</pdfrwt>
<pdfrwt beam="2">  1       21 0.15506899E+00 0.18916877E+03</pdfrwt>
<totfact> 0.24667487E+04</totfact>
</mgrwt>
</event>
<event>
12    1  0.1071811E-001  0.1979458E+03  0.7546771E-02  0.1152156E+00
         21   -1    0    0  503  502  0.00000000000E+00  0.00000000000E+00  0.16058192787E+03  0.16058192787E+03  0.00000000000E+00 0.  1.
         21   -1    0    0  501  503 -0.00000000000E+00 -0.00000000000E+00 -0.32223038241E+03  0.32223038241E+03  0.00000000000E+00 0.  1.
          6    2    1    2  501    0  0.72049540219E+02 -0.64833799623E+02 -0.20216286238E+03  0.28076289790E+03  0.16900717172E+03 0.  0.
         24    2    3    3    0    0  0.15818599361E+02  0.19242580482E+02 -0.48634570868E+02  0.96850465761E+02  0.79963655778E+02 0.  0.
         -6    2    1    2    0  502 -0.72049540219E+02  0.64833799623E+02  0.40514407843E+02  0.20204941238E+03  0.17259197542E+03 0.  0.
        -24    2    5    5    0    0  0.18573464893E+02  0.16223619423E+02 -0.15925986205E+02  0.84648020757E+02  0.79394401290E+02 0.  0.
          5    1    3    3  501    0  0.56230940858E+02 -0.84076380106E+02 -0.15352829151E+03  0.18391243214E+03  0.47000000000E+01 0. -1.
        -11    1    4    4    0    0  0.37613533810E+02 -0.12996019144E+02 -0.80076160166E+01  0.40593057948E+02  0.00000000000E+00 0.  1.
         12    1    4    4    0    0 -0.21794934449E+02  0.32238599626E+02 -0.40626954851E+02  0.56257407814E+02  0.00000000000E+00 0. -1.
         -5    1    5    5    0  502 -0.90623005113E+02  0.48610180201E+02  0.56440394048E+02  0.11740139162E+03  0.47000000000E+01 0.  1.
         11    1    6    6    0    0  0.11497281921E+02 -0.16264896893E+02  0.24969753050E+02  0.31940928758E+02  0.00000000000E+00 0. -1.
        -12    1    6    6    0    0  0.70761829727E+01  0.32488516315E+02 -0.40895739255E+02  0.52707092000E+02  0.00000000000E+00 0.  1.
<mgrwt>
<rscale>  2 0.19716174E+03</rscale>
<asrwt>0</asrwt>
<pdfrwt beam="1">  1       21 0.24704912E-01 0.19794582E+03</pdfrwt>
<pdfrwt beam="2">  1       21 0.49573904E-01 0.19794582E+03</pdfrwt>
<totfact> 0.59952724E+04</totfact>
</mgrwt>
</event>
<event>
12    1  0.1071811E-001  0.1987337E+03  0.7546771E-02  0.1151692E+00
         21   -1    0    0  503  502  0.00000000000E+00  0.00000000000E+00  0.22847226419E+04  0.22847226419E+04  0.00000000000E+00 0.  1.
         21   -1    0    0  501  503 -0.00000000000E+00 -0.00000000000E+00 -0.17985246447E+02  0.17985246447E+02  0.00000000000E+00 0.  1.
          6    2    1    2  501    0  0.17546579813E+02 -0.88773156845E+02  0.14230111551E+04  0.14368214334E+04  0.17693650839E+03 0.  0.
         24    2    3    3    0    0 -0.23953249747E+02  0.11914148889E+02  0.77163448337E+03  0.77638685836E+03  0.81492777537E+02 0.  0.
         -6    2    1    2    0  502 -0.17546579813E+02  0.88773156845E+02  0.84372624031E+03  0.86588645494E+03  0.17232767746E+03 0.  0.
        -24    2    5    5    0    0 -0.68729573798E+01  0.76023913447E+02  0.26859007411E+03  0.29049079186E+03  0.80108671716E+02 0.  0.
          5    1    3    3  501    0  0.41499829560E+02 -0.10068730573E+03  0.65137667178E+03  0.66043457505E+03  0.47000000000E+01 0. -1.
        -13    1    4    4    0    0  0.50989367616E+01 -0.26796243218E+02  0.12489890467E+03  0.12784277138E+03  0.00000000000E+00 0.  1.
         14    1    4    4    0    0 -0.29052186509E+02  0.38710392107E+02  0.64673557870E+03  0.64854408698E+03  0.00000000000E+00 0. -1.
         -5    1    5    5    0  502 -0.10673622433E+02  0.12749243398E+02  0.57513616619E+03  0.57539566308E+03  0.47000000000E+01 0.  1.
         11    1    6    6    0    0 -0.40319063323E+01 -0.16340912777E+02  0.26834928059E+02  0.31676411775E+02  0.00000000000E+00 0. -1.
        -12    1    6    6    0    0 -0.28410510475E+01  0.92364826224E+02  0.24175514606E+03  0.25881438008E+03  0.00000000000E+00 0.  1.
<mgrwt>
<rscale>  2 0.19770270E+03</rscale>
<asrwt>0</asrwt>
<pdfrwt beam="1">  1       21 0.35149556E+00 0.19873370E+03</pdfrwt>
<pdfrwt beam="2">  1       21 0.27669628E-02 0.19873370E+03</pdfrwt>
<totfact> 0.12304564E+04</totfact>
</mgrwt>
</event>
<event>
12    1  0.1071811E-001  0.3096337E+03  0.7546771E-02  0.1080832E+00
         21   -1    0    0  501  502  0.00000000000E+00  0.00000000000E+00  0.10529436897E+04  0.10529436897E+04  0.00000000000E+00 0. -1.
         21   -1    0    0  502  503 -0.00000000000E+00 -0.00000000000E+00 -0.13334237151E+03  0.13334237151E+03  0.00000000000E+00 0. -1.
         -6    2    1    2    0  503 -0.19697978122E+03 -0.15748668913E+03  0.12149706461E+03  0.33022330035E+03  0.17516506478E+03 0.  0.
        -24    2    3    3    0    0 -0.15403317562E+03 -0.18639285155E+03  0.10770133321E+03  0.27644236169E+03  0.79701241286E+02 0.  0.
          6    2    1    2  501    0  0.19697978122E+03  0.15748668913E+03  0.79810425361E+03  0.85606276089E+03  0.17963841317E+03 0.  0.
         24    2    5    5    0    0  0.13685646903E+03  0.27571089284E+02  0.50164699961E+03  0.52681836959E+03  0.79987650538E+02 0.  0.
          5    1    5    5  501    0  0.60123312197E+02  0.12991559985E+03  0.29645725399E+03  0.32924439130E+03  0.47000000000E+01 0. -1.
        -13    1    6    6    0    0  0.62540673910E+02 -0.19330687167E+02  0.13850802404E+03  0.15319753289E+03  0.00000000000E+00 0.  1.
         14    1    6    6    0    0  0.74315795116E+02  0.46901776452E+02  0.36313897557E+03  0.37362083670E+03  0.00000000000E+00 0. -1.
         -5    1    3    3    0  503 -0.42946605604E+02  0.28906162413E+02  0.13795731401E+02  0.53780938661E+02  0.47000000000E+01 0.  1.
         13    1    4    4    0    0 -0.55812808318E+02 -0.12802185237E+03  0.69285888712E+02  0.15590124641E+03  0.00000000000E+00 0. -1.
        -14    1    4    4    0    0 -0.98220367303E+02 -0.58370999178E+02  0.38415444494E+02  0.12054111528E+03  0.00000000000E+00 0.  1.
<mgrwt>
<rscale>  2 0.30898831E+03</rscale>
<asrwt>0</asrwt>
<pdfrwt beam="1">  1       21 0.16199133E+00 0.30963374E+03</pdfrwt>
<pdfrwt beam="2">  1       21 0.20514212E-01 0.30963374E+03</pdfrwt>
<totfact> 0.49460872E+03</totfact>
</mgrwt>
</event>
<event>
12    1  0.1071811E-001  0.1835946E+03  0.7546771E-02  0.1164455E+00
         21   -1    0    0  501  502  0.00000000000E+00  0.00000000000E+00  0.14139643211E+04  0.14139643211E+04  0.00000000000E+00 0. -1.
         21   -1    0    0  502  503 -0.00000000000E+00 -0.00000000000E+00 -0.12774944969E+04  0.12774944969E+04  0.00000000000E+00 0. -1.
         -6    2    1    2    0  503  0.61867344497E+02 -0.17337262489E+01 -0.12649058713E+04  0.12781079041E+04  0.17245978421E+03 0.  0.
        -24    2    3    3    0    0  0.19786035106E+02 -0.32220547055E+02 -0.11293980285E+04  0.11329020216E+04  0.80606656197E+02 0.  0.
          6    2    1    2  501    0 -0.61867344497E+02  0.17337262489E+01  0.14013756956E+04  0.14133509139E+04  0.17284788575E+03 0.  0.
         24    2    5    5    0    0 -0.59375308664E+02  0.18393245677E+02  0.41637166177E+03  0.42819164434E+03  0.78223940011E+02 0.  0.
          5    1    5    5  501    0 -0.24920358335E+01 -0.16659519428E+02  0.98500403379E+03  0.98515926957E+03  0.47000000000E+01 0. -1.
        -13    1    6    6    0    0 -0.61308487166E+02  0.29994829353E+02  0.19669311433E+03  0.20819846688E+03  0.00000000000E+00 0.  1.
         14    1    6    6    0    0  0.19331785019E+01 -0.11601583677E+02  0.21967854744E+03  0.21999317746E+03  0.00000000000E+00 0. -1.
         -5    1    3    3    0  503  0.42081309391E+02  0.30486820806E+02 -0.13550784285E+03  0.14520588251E+03  0.47000000000E+01 0.  1.
         13    1    4    4    0    0 -0.28147610852E+02 -0.28537013596E+02 -0.43555640140E+03  0.43739687692E+03  0.00000000000E+00 0. -1.
        -14    1    4    4    0    0  0.47933645958E+02 -0.36835334585E+01 -0.69384162709E+03  0.69550514471E+03  0.00000000000E+00 0.  1.
<mgrwt>
<rscale>  2 0.18350317E+03</rscale>
<asrwt>0</asrwt>
<pdfrwt beam="1">  1       21 0.21753297E+00 0.18359457E+03</pdfrwt>
<pdfrwt beam="2">  1       21 0.19653761E+00 0.18359457E+03</pdfrwt>
<totfact> 0.14983099E+01</totfact>
</mgrwt>
</event>
<event>
11    1  0.1071811E-001  0.2692851E+03  0.7546771E-02  0.1103273E+00
         21   -1    0    0  503  502  0.00000000000E+00  0.00000000000E+00  0.32874399876E+03  0.32874399876E+03  0.00000000000E+00 0.  1.
         21   -1    0    0  501  503 -0.00000000000E+00 -0.00000000000E+00 -0.22387672438E+03  0.22387672438E+03  0.00000000000E+00 0. -1.
          6    2    1    2  501    0 -0.19839457406E+03  0.22581616990E+02 -0.10634752847E+02  0.26949505105E+03  0.18067691642E+03 0.  0.
         24    2    3    3    0    0 -0.14768423782E+03  0.29186780539E+02  0.60821524367E+02  0.18149927876E+03  0.81118605167E+02 0.  0.
         -6    2    1    2    0  502  0.19839457406E+03 -0.22581616990E+02  0.11550202723E+03  0.28312567209E+03  0.16416178440E+03 0.  0.
          5    1    3    3  501    0 -0.50710336239E+02 -0.66051635484E+01 -0.71456277214E+02  0.87995772287E+02  0.47000000000E+01 0. -1.
        -13    1    4    4    0    0 -0.57623843727E+02  0.49390659651E+02  0.43855357173E+02  0.87654075657E+02  0.00000000000E+00 0.  1.
         14    1    4    4    0    0 -0.90060394097E+02 -0.20203879112E+02  0.16966167195E+02  0.93845203102E+02  0.00000000000E+00 0. -1.
         -5    1    5    5    0  502  0.13715364721E+03 -0.73422997921E+02  0.26692654258E+02  0.15791341728E+03  0.47000000000E+01 0.  1.
         13    1    5    5    0    0  0.25964826574E+01 -0.22019169198E+01 -0.26462307680E+01  0.43119250445E+01  0.00000000000E+00 0. -1.
        -14    1    5    5    0    0  0.58644444199E+02  0.53043297850E+02  0.91455603738E+02  0.12090032977E+03  0.00000000000E+00 0.  1.
<mgrwt>
<rscale>  2 0.26654598E+03</rscale>
<asrwt>0</asrwt>
<pdfrwt beam="1">  1       21 0.50576000E-01 0.26928514E+03</pdfrwt>
<pdfrwt beam="2">  1       21 0.34442573E-01 0.26928514E+03</pdfrwt>
<totfact> 0.29123991E+04</totfact>
</mgrwt>
</event>
<event>
12    1  0.1071811E-001  0.2037139E+03  0.7546771E-02  0.1146927E+00
         21   -1    0    0  501  502  0.00000000000E+00  0.00000000000E+00  0.52084551513E+03  0.52084551513E+03  0.00000000000E+00 0. -1.
         21   -1    0    0  502  503 -0.00000000000E+00 -0.00000000000E+00 -0.81845475879E+02  0.81845475879E+02  0.00000000000E+00 0. -1.
         -6    2    1    2    0  503  0.73231651967E+02  0.76354715267E+02  0.16542771405E+03  0.26242270279E+03  0.17408741760E+03 0.  0.
        -24    2    3    3    0    0  0.39765031600E+02  0.11740269260E+03  0.13827969749E+03  0.20272298817E+03  0.81306120493E+02 0.  0.
          6    2    1    2  501    0 -0.73231651967E+02 -0.76354715267E+02  0.27357232519E+03  0.34026828822E+03  0.17247542858E+03 0.  0.
         24    2    5    5    0    0  0.11419572917E+02 -0.77907877717E+02  0.19189525763E+03  0.22253352040E+03  0.80606040368E+02 0.  0.
          5    1    5    5  501    0 -0.84651224885E+02  0.15531624502E+01  0.81677067563E+02  0.11773476782E+03  0.47000000000E+01 0. -1.
        -13    1    6    6    0    0 -0.23373327967E+01 -0.24214164692E+02  0.16549198795E+01  0.24382937808E+02  0.00000000000E+00 0.  1.
         14    1    6    6    0    0  0.13756905714E+02 -0.53693713025E+02  0.19024033775E+03  0.19815058259E+03  0.00000000000E+00 0. -1.
         -5    1    3    3    0  503  0.33466620367E+02 -0.41047977329E+02  0.27148016569E+02  0.59699714616E+02  0.47000000000E+01 0.  1.
         11    1    4    4    0    0  0.22787922936E+02  0.10436372175E+03  0.62032329524E+02  0.12352767202E+03  0.00000000000E+00 0. -1.
        -12    1    4    4    0    0  0.16977108664E+02  0.13038970851E+02  0.76247367961E+02  0.79195316152E+02  0.00000000000E+00 0.  1.
<mgrwt>
<rscale>  2 0.20336905E+03</rscale>
<asrwt>0</asrwt>
<pdfrwt beam="1">  1       21 0.80130077E-01 0.20371388E+03</pdfrwt>
<pdfrwt beam="2">  1       21 0.12591612E-01 0.20371388E+03</pdfrwt>
<totfact> 0.73398073E+04</totfact>
</mgrwt>
</event>
<event>
12    1  0.1071811E-001  0.2173074E+03  0.7546771E-02  0.1136025E+00
         21   -1    0    0  503  502  0.00000000000E+00  0.00000000000E+00  0.11634127149E+03  0.11634127149E+03  0.00000000000E+00 0. -1.
         21   -1    0    0  501  503 -0.00000000000E+00 -0.00000000000E+00 -0.47172471920E+03  0.47172471920E+03  0.00000000000E+00 0.  1.
          6    2    1    2  501    0  0.49812403599E+02 -0.12191114941E+03 -0.28872224424E+03  0.36136273308E+03  0.17285510301E+03 0.  0.
         24    2    3    3    0    0 -0.36429081203E+02 -0.50244598629E+02 -0.16496669525E+03  0.19429623701E+03  0.81764414800E+02 0.  0.
         -6    2    1    2    0  502 -0.49812403599E+02  0.12191114941E+03 -0.66661203472E+02  0.22670325760E+03  0.17206698421E+03 0.  0.
        -24    2    5    5    0    0  0.15205469540E+02  0.61931765128E+01 -0.35301987431E+02  0.90235446341E+02  0.81404199649E+02 0.  0.
          5    1    3    3  501    0  0.86241484801E+02 -0.71666550785E+02 -0.12375554899E+03  0.16706649607E+03  0.47000000000E+01 0. -1.
        -11    1    4    4    0    0 -0.44290749539E+02  0.51164285262E+01 -0.93218939022E+02  0.10333256470E+03  0.00000000000E+00 0.  1.
         12    1    4    4    0    0  0.78616683362E+01 -0.55361027155E+02 -0.71747756226E+02  0.90963672311E+02  0.00000000000E+00 0. -1.
         -5    1    5    5    0  502 -0.65017873139E+02  0.11571797290E+03 -0.31359216041E+02  0.13646781126E+03  0.47000000000E+01 0.  1.
         11    1    6    6    0    0 -0.48379836788E+01 -0.22969232068E+02 -0.47354473653E+02  0.52852983670E+02  0.00000000000E+00 0. -1.
        -12    1    6    6    0    0  0.20043453219E+02  0.29162408581E+02  0.12052486223E+02  0.37382462671E+02  0.00000000000E+00 0.  1.
<mgrwt>
<rscale>  2 0.21715060E+03</rscale>
<asrwt>0</asrwt>
<pdfrwt beam="1">  1       21 0.17898657E-01 0.21730736E+03</pdfrwt>
<pdfrwt beam="2">  1       21 0.72573035E-01 0.21730736E+03</pdfrwt>
<totfact> 0.47951425E+04</totfact>
</mgrwt>
</event>
<event>
12    1  0.1071811E-001  0.2072310E+03  0.7546771E-02  0.1143901E+00
         21   -1    0    0  503  502  0.00000000000E+00  0.00000000000E+00  0.18079976933E+04  0.18079976933E+04  0.00000000000E+00 0.  1.
         21   -1    0    0  501  503 -0.00000000000E+00 -0.00000000000E+00 -0.34539135472E+02  0.34539135472E+02  0.00000000000E+00 0. -1.
          6    2    1    2  501    0 -0.82364204388E+02  0.77137391582E+02  0.14041332272E+04  0.14193430864E+04  0.17381207613E+03 0.  0.
         24    2    3    3    0    0 -0.82710430728E+02  0.10491105821E+03  0.83818696102E+03  0.85269613931E+03  0.81767835274E+02 0.  0.
         -6    2    1    2    0  502  0.82364204388E+02 -0.77137391582E+02  0.36932533064E+03  0.42319374239E+03  0.17308294083E+03 0.  0.
        -24    2    5    5    0    0  0.40455253392E+02 -0.66589711369E+02  0.98875625865E+02  0.14927268343E+03  0.80219246077E+02 0.  0.
          5    1    3    3  501    0  0.34622634010E+00 -0.27773666624E+02  0.56594626614E+03  0.56664694704E+03  0.47000000000E+01 0. -1.
        -11    1    4    4    0    0  0.27250564627E+01  0.59265315156E+02  0.28798375356E+03  0.29403136878E+03  0.00000000000E+00 0.  1.
         12    1    4    4    0    0 -0.85435487191E+02  0.45645743050E+02  0.55020320746E+03  0.55866477053E+03  0.00000000000E+00 0. -1.
         -5    1    5    5    0  502  0.41908950996E+02 -0.10547680212E+02  0.27044970477E+03  0.27392105896E+03  0.47000000000E+01 0.  1.
         11    1    6    6    0    0  0.48219177502E+02 -0.81668591568E+02  0.82648886570E+02  0.12580018434E+03  0.00000000000E+00 0. -1.
        -12    1    6    6    0    0 -0.77639241101E+01  0.15078880198E+02  0.16226739295E+02  0.23472499095E+02  0.00000000000E+00 0.  1.
<mgrwt>
<rscale>  2 0.20707801E+03</rscale>
<asrwt>0</asrwt>
<pdfrwt beam="1">  1       21 0.27815342E+00 0.20723098E+03</pdfrwt>
<pdfrwt beam="2">  1       21 0.53137146E-02 0.20723098E+03</pdfrwt>
<totfact> 0.10905190E+04</totfact>
</mgrwt>
</event>
<event>
12    1  0.1071811E-001  0.3189917E+03  0.7546771E-02  0.1076175E+00
         21   -1    0    0  503  502  0.00000000000E+00  0.00000000000E+00  0.95355128967E+03  0.95355128967E+03  0.00000000000E+00 0. -1.
         21   -1    0    0  501  503 -0.00000000000E+00 -0.00000000000E+00 -0.13280970072E+03  0.13280970072E+03  0.00000000000E+00 0. -1.
          6    2    1    2  501    0  0.12133202445E+03 -0.23828904703E+03  0.16851362224E+03  0.36030517393E+03  0.17297354535E+03 0.  0.
         24    2    3    3    0    0  0.13680580811E+03 -0.23201451698E+03  0.11447660165E+03  0.30355222420E+03  0.80576021714E+02 0.  0.
         -6    2    1    2    0  502 -0.12133202445E+03  0.23828904703E+03  0.65222796671E+03  0.72605581645E+03  0.17393273975E+03 0.  0.
        -24    2    5    5    0    0 -0.35609186628E+02  0.10402047030E+03  0.41407947613E+03  0.43950172176E+03  0.98039168006E+02 0.  0.
          5    1    3    3  501    0 -0.15473783663E+02 -0.62745300531E+01  0.54037020591E+02  0.56752949726E+02  0.47000000000E+01 0. -1.
        -11    1    4    4    0    0  0.47718388516E+02 -0.15876832558E+03  0.69383175356E+02  0.17971769760E+03  0.00000000000E+00 0.  1.
         12    1    4    4    0    0  0.89087419593E+02 -0.73246191399E+02  0.45093426289E+02  0.12383452660E+03  0.00000000000E+00 0. -1.
         -5    1    5    5    0  502 -0.85722837818E+02  0.13426857673E+03  0.23814849058E+03  0.28655409469E+03  0.47000000000E+01 0.  1.
         11    1    6    6    0    0 -0.65594836552E+02  0.63067896225E+02  0.20395023320E+03  0.22332921828E+03  0.00000000000E+00 0. -1.
        -12    1    6    6    0    0  0.29985649923E+02  0.40952574077E+02  0.21012924293E+03  0.21617250348E+03  0.00000000000E+00 0.  1.
<mgrwt>
<rscale>  2 0.31886116E+03</rscale>
<asrwt>0</asrwt>
<pdfrwt beam="1">  1       21 0.14670019E+00 0.31899174E+03</pdfrwt>
<pdfrwt beam="2">  1       21 0.20432262E-01 0.31899174E+03</pdfrwt>
<totfact> 0.64886363E+03</totfact>
</mgrwt>
</event>
<event>
12    1  0.1071811E-001  0.3410016E+03  0.7546771E-02  0.1066672E+00
         21   -1    0    0  503  502  0.00000000000E+00  0.00000000000E+00  0.10255844781E+04  0.10255844781E+04  0.00000000000E+00 0. -1.
         21   -1    0    0  501  503 -0.00000000000E+00 -0.00000000000E+00 -0.26468067629E+03  0.26468067629E+03  0.00000000000E+00 0.  1.
          6    2    1    2  501    0  0.22437625809E+03  0.18592153439E+03 -0.10814480652E+03  0.35773929304E+03  0.17711741998E+03 0.  0.
         24    2    3    3    0    0  0.64064143176E+02  0.83396140251E+02  0.11839886685E+02  0.13272852166E+03  0.80109593034E+02 0.  0.
         -6    2    1    2    0  502 -0.22437625809E+03 -0.18592153439E+03  0.86904860829E+03  0.93252586132E+03  0.17160266991E+03 0.  0.
        -24    2    5    5    0    0 -0.23400717835E+03 -0.17585492038E+03  0.86624301775E+03  0.91755747193E+03  0.76488142504E+02 0.  0.
          5    1    3    3  501    0  0.16031211491E+03  0.10252539414E+03 -0.11998469320E+03  0.22501077138E+03  0.47000000000E+01 0. -1.
        -13    1    4    4    0    0  0.64835726157E+02  0.34148732125E+02 -0.17579035437E+02  0.75358010715E+02  0.00000000000E+00 0.  1.
         14    1    4    4    0    0 -0.77158298137E+00  0.49247408127E+02  0.29418922121E+02  0.57370510947E+02  0.00000000000E+00 0. -1.
         -5    1    5    5    0  502  0.96309202639E+01 -0.10066614011E+02  0.28055905370E+01  0.14968389394E+02  0.47000000000E+01 0.  1.
         11    1    6    6    0    0 -0.56063001814E+02 -0.77056912301E+02  0.34706835410E+03  0.35991286490E+03  0.00000000000E+00 0. -1.
        -12    1    6    6    0    0 -0.17794417654E+03 -0.98798008083E+02  0.51917466365E+03  0.55764460703E+03  0.00000000000E+00 0.  1.
<mgrwt>
<rscale>  2 0.34029152E+03</rscale>
<asrwt>0</asrwt>
<pdfrwt beam="1">  1       21 0.15778223E+00 0.34100162E+03</pdfrwt>
<pdfrwt beam="2">  1       21 0.40720105E-01 0.34100162E+03</pdfrwt>
<totfact> 0.13568040E+03</totfact>
</mgrwt>
</event>
<event>
12    1  0.1071811E-001  0.2179872E+03  0.7546771E-02  0.1135706E+00
         21   -1    0    0  503  502  0.00000000000E+00  0.00000000000E+00  0.33924128568E+03  0.33924128568E+03  0.00000000000E+00 0.  1.
         21   -1    0    0  501  503 -0.00000000000E+00 -0.00000000000E+00 -0.13987717277E+03  0.13987717277E+03  0.00000000000E+00 0. -1.
          6    2    1    2  501    0 -0.12417772233E+03 -0.46612144572E+02  0.80458643477E+02  0.23081033034E+03  0.17090060426E+03 0.  0.
         24    2    3    3    0    0 -0.10602617498E+03 -0.36476408471E+02  0.12325329184E+03  0.18300150536E+03  0.75670990870E+02 0.  0.
         -6    2    1    2    0  502  0.12417772233E+03  0.46612144572E+02  0.11890546944E+03  0.24830812810E+03  0.17299022248E+03 0.  0.
        -24    2    5    5    0    0  0.51350447284E+02  0.87794672248E+02  0.97093269402E+02  0.16171901419E+03  0.79882186229E+02 0.  0.
          5    1    3    3  501    0 -0.18151547353E+02 -0.10135736102E+02 -0.42794648362E+02  0.47808824981E+02  0.47000000000E+01 0. -1.
        -13    1    4    4    0    0 -0.50469080679E+02 -0.54574939581E+02  0.86147086748E+02  0.11378432533E+03  0.00000000000E+00 0.  1.
         14    1    4    4    0    0 -0.55557094302E+02  0.18098531111E+02  0.37106205092E+02  0.69217180035E+02  0.00000000000E+00 0. -1.
         -5    1    5    5    0  502  0.72827275051E+02 -0.41182527676E+02  0.21812200034E+02  0.86589113908E+02  0.47000000000E+01 0.  1.
         11    1    6    6    0    0 -0.60229244926E+01  0.52025030378E+02  0.13270456847E+02  0.54027626546E+02  0.00000000000E+00 0. -1.
        -12    1    6    6    0    0  0.57373371776E+02  0.35769641870E+02  0.83822812555E+02  0.10769138765E+03  0.00000000000E+00 0.  1.
<mgrwt>
<rscale>  2 0.21757237E+03</rscale>
<asrwt>0</asrwt>
<pdfrwt beam="1">  1       21 0.52190967E-01 0.21798719E+03</pdfrwt>
<pdfrwt beam="2">  1       21 0.21519565E-01 0.21798719E+03</pdfrwt>
<totfact> 0.69321087E+04</totfact>
</mgrwt>
</event>
<event>
12    1  0.1071811E-001  0.1851664E+03  0.7546771E-02  0.1163249E+00
         21   -1    0    0  503  502  0.00000000000E+00  0.00000000000E+00  0.98837041120E+03  0.98837041120E+03  0.00000000000E+00 0. -1.
         21   -1    0    0  501  503 -0.00000000000E+00 -0.00000000000E+00 -0.35224519635E+02  0.35224519635E+02  0.00000000000E+00 0. -1.
          6    2    1    2  501    0  0.13630498124E+02 -0.64388309838E+02  0.55262352617E+03  0.58234132236E+03  0.17145556020E+03 0.  0.
         24    2    3    3    0    0 -0.22662970863E+02 -0.99161747921E+02  0.44888639336E+03  0.46697282315E+03  0.78854048159E+02 0.  0.
         -6    2    1    2    0  502 -0.13630498124E+02  0.64388309838E+02  0.40052236540E+03  0.44125360848E+03  0.17307494588E+03 0.  0.
        -24    2    5    5    0    0  0.83203933813E+01  0.46732641903E+02  0.40130452405E+03  0.41268323886E+03  0.83719566682E+02 0.  0.
          5    1    3    3  501    0  0.36293468987E+02  0.34773438083E+02  0.10373713281E+03  0.11536849921E+03  0.47000000000E+01 0. -1.
        -13    1    4    4    0    0 -0.11632133791E+02 -0.56203445461E+02  0.38467475255E+03  0.38893289790E+03  0.00000000000E+00 0.  1.
         14    1    4    4    0    0 -0.11030837072E+02 -0.42958302460E+02  0.64211640816E+02  0.78039925250E+02  0.00000000000E+00 0. -1.
         -5    1    5    5    0  502 -0.21950891505E+02  0.17655667936E+02 -0.78215865411E+00  0.28570369621E+02  0.47000000000E+01 0.  1.
         11    1    6    6    0    0  0.26478731509E+02 -0.37344857945E+01  0.26279408308E+03  0.26415109258E+03  0.00000000000E+00 0. -1.
        -12    1    6    6    0    0 -0.18158338128E+02  0.50467127697E+02  0.13851044097E+03  0.14853214628E+03  0.00000000000E+00 0.  1.
<mgrwt>
<rscale>  2 0.18478701E+03</rscale>
<asrwt>0</asrwt>
<pdfrwt beam="1">  1       21 0.15205697E+00 0.18516636E+03</pdfrwt>
<pdfrwt beam="2">  1       21 0.54191576E-02 0.18516636E+03</pdfrwt>
<totfact> 0.67916184E+04</totfact>
</mgrwt>
</event>
<event>
12    1  0.1071811E-001  0.2394613E+03  0.7546771E-02  0.1120279E+00
         21   -1    0    0  503  502  0.00000000000E+00  0.00000000000E+00  0.15794632903E+03  0.15794632903E+03  0.00000000000E+00 0.  1.
         21   -1    0    0  501  503 -0.00000000000E+00 -0.00000000000E+00 -0.57769372269E+03  0.57769372269E+03  0.00000000000E+00 0. -1.
          6    2    1    2  501    0  0.44873430985E+02  0.15810885155E+03 -0.43488700162E+03  0.49645586482E+03  0.17415420691E+03 0.  0.
         24    2    3    3    0    0  0.11284931239E+02  0.45656961129E+02 -0.78244811951E+02  0.12097037052E+03  0.79370474195E+02 0.  0.
         -6    2    1    2    0  502 -0.44873430985E+02 -0.15810885155E+03  0.15139607970E+02  0.23918418691E+03  0.17311220000E+03 0.  0.
        -24    2    5    5    0    0  0.33972133437E+02 -0.96232217257E+02  0.39936746335E+02  0.13582883401E+03  0.80248258255E+02 0.  0.
          5    1    3    3  501    0  0.33588499746E+02  0.11245189042E+03 -0.35664218967E+03  0.37548549430E+03  0.47000000000E+01 0. -1.
        -13    1    4    4    0    0 -0.79417026457E+00  0.63091069831E+02 -0.33464685752E+02  0.71421278281E+02  0.00000000000E+00 0.  1.
         14    1    4    4    0    0  0.12079101503E+02 -0.17434108701E+02 -0.44780126199E+02  0.49549092239E+02  0.00000000000E+00 0. -1.
         -5    1    5    5    0  502 -0.78845564422E+02 -0.61876634292E+02 -0.24797138365E+02  0.10335535289E+03  0.47000000000E+01 0.  1.
         11    1    6    6    0    0  0.30892590332E+02 -0.76128173416E+02 -0.91789357402E+01  0.82668638470E+02  0.00000000000E+00 0. -1.
        -12    1    6    6    0    0  0.30795431057E+01 -0.20104043840E+02  0.49115682075E+02  0.53160195543E+02  0.00000000000E+00 0.  1.
<mgrwt>
<rscale>  2 0.23927190E+03</rscale>
<asrwt>0</asrwt>
<pdfrwt beam="1">  1       21 0.24299435E-01 0.23946132E+03</pdfrwt>
<pdfrwt beam="2">  1       21 0.88875956E-01 0.23946132E+03</pdfrwt>
<totfact> 0.16823488E+04</totfact>
</mgrwt>
</event>
<event>
12    1  0.1071811E-001  0.2242849E+03  0.7546771E-02  0.1130766E+00
         21   -1    0    0  503  502  0.00000000000E+00  0.00000000000E+00  0.12165045044E+04  0.12165045044E+04  0.00000000000E+00 0.  1.
         21   -1    0    0  501  503 -0.00000000000E+00 -0.00000000000E+00 -0.68339719617E+02  0.68339719617E+02  0.00000000000E+00 0. -1.
          6    2    1    2  501    0  0.13120246666E+03  0.55597289911E+02  0.17024360616E+03  0.28157877448E+03  0.17320096678E+03 0.  0.
         24    2    3    3    0    0  0.28782554406E+02 -0.22484945519E+02  0.10563207975E+03  0.13741423910E+03  0.79940781962E+02 0.  0.
         -6    2    1    2    0  502 -0.13120246666E+03 -0.55597289911E+02  0.97792117865E+03  0.10032654496E+04  0.17293520388E+03 0.  0.
        -24    2    5    5    0    0 -0.28138949919E+02 -0.27436193234E+02  0.69395137388E+03  0.69982505036E+03  0.81498752155E+02 0.  0.
          5    1    3    3  501    0  0.10241991226E+03  0.78082235431E+02  0.64611526412E+02  0.14416453538E+03  0.47000000000E+01 0. -1.
        -13    1    4    4    0    0 -0.39307903360E+01 -0.16983591118E+02  0.10263667012E+03  0.10410657777E+03  0.00000000000E+00 0.  1.
         14    1    4    4    0    0  0.32713344742E+02 -0.55013544010E+01  0.29954096266E+01  0.33307661330E+02  0.00000000000E+00 0. -1.
         -5    1    5    5    0  502 -0.10306351674E+03 -0.28161096678E+02  0.28396980477E+03  0.30344039921E+03  0.47000000000E+01 0.  1.
         11    1    6    6    0    0  0.23809249206E+02 -0.30121935392E+02  0.28149071250E+03  0.28409722379E+03  0.00000000000E+00 0. -1.
        -12    1    6    6    0    0 -0.51948199125E+02  0.26857421586E+01  0.41246066138E+03  0.41572782657E+03  0.00000000000E+00 0.  1.
<mgrwt>
<rscale>  2 0.22423360E+03</rscale>
<asrwt>0</asrwt>
<pdfrwt beam="1">  1       21 0.18715452E+00 0.22428491E+03</pdfrwt>
<pdfrwt beam="2">  1       21 0.10513804E-01 0.22428491E+03</pdfrwt>
<totfact> 0.11807442E+04</totfact>
</mgrwt>
</event>
<event>
12    1  0.1071811E-001  0.2932294E+03  0.7546771E-02  0.1088703E+00
         21   -1    0    0  503  502  0.00000000000E+00  0.00000000000E+00  0.15577257184E+04  0.15577257184E+04  0.00000000000E+00 0.  1.
         21   -1    0    0  501  503 -0.00000000000E+00 -0.00000000000E+00 -0.17692223593E+03  0.17692223593E+03  0.00000000000E+00 0.  1.
          6    2    1    2  501    0 -0.17895359894E+03  0.15414113590E+03 -0.29213774417E+02  0.29446319580E+03  0.17341063611E+03 0.  0.
         24    2    3    3    0    0 -0.10067303308E+03  0.13301089640E+03 -0.79024960008E+02  0.19918687019E+03  0.74856574872E+02 0.  0.
         -6    2    1    2    0  502  0.17895359894E+03 -0.15414113590E+03  0.14100172569E+04  0.14401847585E+04  0.17378030271E+03 0.  0.
        -24    2    5    5    0    0  0.18489105274E+02 -0.23319818271E+02  0.39528091092E+03  0.40453278383E+03  0.80710059542E+02 0.  0.
          5    1    3    3  501    0 -0.78280565854E+02  0.21130239499E+02  0.49811185591E+02  0.95276325610E+02  0.47000000000E+01 0. -1.
        -13    1    4    4    0    0 -0.10748426472E+03  0.13161393156E+03 -0.62150110815E+02  0.18093570797E+03  0.00000000000E+00 0.  1.
         14    1    4    4    0    0  0.68112316419E+01  0.13969648416E+01 -0.16874849193E+02  0.18251162224E+02  0.00000000000E+00 0. -1.
         -5    1    5    5    0  502  0.16046449366E+03 -0.13082131763E+03  0.10147363459E+04  0.10356519747E+04  0.47000000000E+01 0.  1.
         11    1    6    6    0    0  0.44610587888E+02  0.77028488314E+01  0.19482893670E+03  0.20001938158E+03  0.00000000000E+00 0. -1.
        -12    1    6    6    0    0 -0.26121482614E+02 -0.31022667102E+02  0.20045197423E+03  0.20451340225E+03  0.00000000000E+00 0.  1.
<mgrwt>
<rscale>  2 0.29317464E+03</rscale>
<asrwt>0</asrwt>
<pdfrwt beam="1">  1       21 0.23965010E+00 0.29322939E+03</pdfrwt>
<pdfrwt beam="2">  1       21 0.27218807E-01 0.29322939E+03</pdfrwt>
<totfact> 0.89191127E+02</totfact>
</mgrwt>
</event>
<event>
12    1  0.1071811E-001  0.2055329E+03  0.7546771E-02  0.1145798E+00
         21   -1    0    0  501  502  0.00000000000E+00  0.00000000000E+00  0.96480113728E+03  0.96480113728E+03  0.00000000000E+00 0. -1.
         21   -1    0    0  502  503 -0.00000000000E+00 -0.00000000000E+00 -0.23334159943E+03  0.23334159943E+03  0.00000000000E+00 0. -1.
         -6    2    1    2    0  503 -0.43381017711E+02 -0.97484544671E+02 -0.17464376000E+03  0.26971135452E+03  0.17566622528E+03 0.  0.
        -24    2    3    3    0    0  0.42855181806E+02 -0.25259582418E+02 -0.70145446559E+02  0.11610434038E+03  0.78007826990E+02 0.  0.
          6    2    1    2  501    0  0.43381017711E+02  0.97484544671E+02  0.90610329785E+03  0.92843138220E+03  0.17197818447E+03 0.  0.
         24    2    5    5    0    0  0.23475871200E+02  0.85884681252E+01  0.67058552998E+03  0.67586567538E+03  0.80526888773E+02 0.  0.
          5    1    5    5  501    0  0.19905146511E+02  0.88896076546E+02  0.23551776786E+03  0.25256570682E+03  0.47000000000E+01 0. -1.
        -13    1    6    6    0    0 -0.10249503480E+02 -0.86486252201E+01  0.19425737119E+02  0.23605302421E+02  0.00000000000E+00 0.  1.
         14    1    6    6    0    0  0.33725374680E+02  0.17237093345E+02  0.65115979286E+03  0.65226037295E+03  0.00000000000E+00 0. -1.
         -5    1    3    3    0  503 -0.86236199517E+02 -0.72224962253E+02 -0.10449831344E+03  0.15360701413E+03  0.47000000000E+01 0.  1.
         13    1    4    4    0    0  0.35022201155E+02 -0.47479994669E+02 -0.71263795421E+02  0.92517203834E+02  0.00000000000E+00 0. -1.
        -14    1    4    4    0    0  0.78329806508E+01  0.22220412251E+02  0.11183488616E+01  0.23587136551E+02  0.00000000000E+00 0.  1.
<mgrwt>
<rscale>  2 0.20474258E+03</rscale>
<asrwt>0</asrwt>
<pdfrwt beam="1">  1       21 0.14843094E+00 0.20553290E+03</pdfrwt>
<pdfrwt beam="2">  1       21 0.35898708E-01 0.20553290E+03</pdfrwt>
<totfact> 0.22719245E+03</totfact>
</mgrwt>
</event>
<event>
12    1  0.1071811E-001  0.1979277E+03  0.7546771E-02  0.1151743E+00
         21   -1    0    0  503  502  0.00000000000E+00  0.00000000000E+00  0.39510450289E+02  0.39510450289E+02  0.00000000000E+00 0.  1.
         21   -1    0    0  501  503 -0.00000000000E+00 -0.00000000000E+00 -0.15818382073E+04  0.15818382073E+04  0.00000000000E+00 0. -1.
          6    2    1    2  501    0 -0.22574887767E+02 -0.93596267154E+02 -0.12701571045E+04  0.12854860686E+04  0.17293199700E+03 0.  0.
         24    2    3    3    0    0  0.41414082243E+02 -0.36381987073E+02 -0.44280297637E+03  0.45367779411E+03  0.81916358511E+02 0.  0.
         -6    2    1    2    0  502  0.22574887767E+02  0.93596267154E+02 -0.27217065257E+03  0.33586258908E+03  0.17163020667E+03 0.  0.
        -24    2    5    5    0    0  0.48008029937E+01  0.10885104559E+03 -0.28013504144E+03  0.31068029679E+03  0.78581216180E+02 0.  0.
          5    1    3    3  501    0 -0.63988970010E+02 -0.57214280081E+02 -0.82735412812E+03  0.83180827445E+03  0.47000000000E+01 0. -1.
        -11    1    4    4    0    0 -0.38910062692E+01 -0.43580218783E+02 -0.31223581350E+03  0.31528650245E+03  0.00000000000E+00 0.  1.
         12    1    4    4    0    0  0.45305088512E+02  0.71982317092E+01 -0.13056716287E+03  0.13839129165E+03  0.00000000000E+00 0. -1.
         -5    1    5    5    0  502  0.17774084774E+02 -0.15254778436E+02  0.79643888731E+01  0.25182292286E+02  0.47000000000E+01 0.  1.
         11    1    6    6    0    0 -0.21505850398E+02  0.68456469511E+01 -0.95277776390E+02  0.97914346024E+02  0.00000000000E+00 0. -1.
        -12    1    6    6    0    0  0.26306653391E+02  0.10200539864E+03 -0.18485726505E+03  0.21276595077E+03  0.00000000000E+00 0.  1.
<mgrwt>
<rscale>  2 0.19764296E+03</rscale>
<asrwt>0</asrwt>
<pdfrwt beam="1">  1       21 0.60785313E-02 0.19792767E+03</pdfrwt>
<pdfrwt beam="2">  1       21 0.24335970E+00 0.19792767E+03</pdfrwt>
<totfact> 0.13966653E+04</totfact>
</mgrwt>
</event>
<event>
12    1  0.1071811E-001  0.1825399E+03  0.7546771E-02  0.1165398E+00
         21   -1    0    0  501  502  0.00000000000E+00  0.00000000000E+00  0.31062820788E+03  0.31062820788E+03  0.00000000000E+00 0. -1.
         21   -1    0    0  502  503 -0.00000000000E+00 -0.00000000000E+00 -0.10859907210E+03  0.10859907210E+03  0.00000000000E+00 0.  1.
         -6    2    1    2    0  503 -0.47672737028E+02  0.34505021737E+02  0.77197908040E+02  0.19819262399E+03  0.17279326612E+03 0.  0.
        -24    2    3    3    0    0 -0.22064471948E+02  0.87723663910E+02  0.42865442091E+02  0.12971769914E+03  0.82504261781E+02 0.  0.
          6    2    1    2  501    0  0.47672737028E+02 -0.34505021737E+02  0.12483122774E+03  0.22103465600E+03  0.17265629833E+03 0.  0.
         24    2    5    5    0    0 -0.31133730680E+02 -0.53737554711E+02  0.60144352776E+02  0.11717498399E+03  0.79092349372E+02 0.  0.
          5    1    5    5  501    0  0.78806467708E+02  0.19232532974E+02  0.64686874963E+02  0.10385967201E+03  0.47000000000E+01 0. -1.
        -11    1    6    6    0    0 -0.25236094870E+02  0.11511041469E+02 -0.72613570045E+00  0.27746924749E+02  0.00000000000E+00 0.  1.
         12    1    6    6    0    0 -0.58976358104E+01 -0.65248596180E+02  0.60870488477E+02  0.89428059238E+02  0.00000000000E+00 0. -1.
         -5    1    3    3    0  503 -0.25608265080E+02 -0.53218642173E+02  0.34332465949E+02  0.68474924851E+02  0.47000000000E+01 0.  1.
         13    1    4    4    0    0  0.30606663311E+02  0.45349631402E+02  0.16340248312E+02  0.57099567618E+02  0.00000000000E+00 0. -1.
        -14    1    4    4    0    0 -0.52671135259E+02  0.42374032508E+02  0.26525193780E+02  0.72618131520E+02  0.00000000000E+00 0.  1.
<mgrwt>
<rscale>  2 0.18250744E+03</rscale>
<asrwt>0</asrwt>
<pdfrwt beam="1">  1       21 0.47788954E-01 0.18253986E+03</pdfrwt>
<pdfrwt beam="2">  1       21 0.16707550E-01 0.18253986E+03</pdfrwt>
<totfact> 0.13528299E+05</totfact>
</mgrwt>
</event>
<event>
12    1  0.1071811E-001  0.4252429E+03  0.7546771E-02  0.1035376E+00
         21   -1    0    0  501  502  0.00000000000E+00  0.00000000000E+00  0.25768426321E+03  0.25768426321E+03  0.00000000000E+00 0. -1.
         21   -1    0    0  502  503 -0.00000000000E+00 -0.00000000000E+00 -0.83726153105E+03  0.83726153105E+03  0.00000000000E+00 0.  1.
         -6    2    1    2    0  503  0.75191046820E+02 -0.38085885194E+03 -0.51007676287E+03  0.66406084157E+03  0.17346855236E+03 0.  0.
        -24    2    3    3    0    0  0.22857244036E+02 -0.70173592972E+02 -0.15186972954E+03  0.18698796896E+03  0.80332428245E+02 0.  0.
          6    2    1    2  501    0 -0.75191046820E+02  0.38085885194E+03 -0.69500504967E+02  0.43088495269E+03  0.17356371638E+03 0.  0.
         24    2    5    5    0    0  0.44991198121E+01  0.19473620559E+03 -0.82976779670E+02  0.22791731457E+03  0.84372533881E+02 0.  0.
          5    1    5    5  501    0 -0.79690166632E+02  0.18612264635E+03  0.13476274703E+02  0.20296763812E+03  0.47000000000E+01 0. -1.
        -13    1    6    6    0    0 -0.73815498349E+01  0.19891814480E+03 -0.73644148490E+02  0.21224131599E+03  0.00000000000E+00 0.  1.
         14    1    6    6    0    0  0.11880669647E+02 -0.41819392106E+01 -0.93326311806E+01  0.15675998583E+02  0.00000000000E+00 0. -1.
         -5    1    3    3    0  503  0.52333802785E+02 -0.31068525897E+03 -0.35820703333E+03  0.47707287261E+03  0.47000000000E+01 0.  1.
         11    1    4    4    0    0 -0.22741986027E+02 -0.33357699704E+02 -0.10317158231E+03  0.11078948260E+03  0.00000000000E+00 0. -1.
        -12    1    4    4    0    0  0.45599230063E+02 -0.36815893268E+02 -0.48698147231E+02  0.76198486358E+02  0.00000000000E+00 0.  1.
<mgrwt>
<rscale>  2 0.42523319E+03</rscale>
<asrwt>0</asrwt>
<pdfrwt beam="1">  1       21 0.39643733E-01 0.42524290E+03</pdfrwt>
<pdfrwt beam="2">  1       21 0.12880947E+00 0.42524290E+03</pdfrwt>
<totfact> 0.23618051E+03</totfact>
</mgrwt>
</event>
<event>
12    1  0.1071811E-001  0.3726774E+03  0.7546771E-02  0.1053721E+00
         21   -1    0    0  503  502  0.00000000000E+00  0.00000000000E+00  0.10311449433E+04  0.10311449433E+04  0.00000000000E+00 0.  1.
         21   -1    0    0  501  503 -0.00000000000E+00 -0.00000000000E+00 -0.17212262582E+03  0.17212262582E+03  0.00000000000E+00 0. -1.
          6    2    1    2  501    0 -0.32437019096E+03  0.57161182029E+02  0.14851124396E+03  0.40117829830E+03  0.17437034129E+03 0.  0.
         24    2    3    3    0    0 -0.17939815803E+03  0.60113223310E+02  0.20315211212E+02  0.20757582493E+03  0.82931999657E+02 0.  0.
         -6    2    1    2    0  502  0.32437019096E+03 -0.57161182029E+02  0.71051107349E+03  0.80208927080E+03  0.17331414043E+03 0.  0.
        -24    2    5    5    0    0  0.14874488147E+03  0.20011705356E+02  0.24452855653E+03  0.29814314274E+03  0.81053133732E+02 0.  0.
          5    1    3    3  501    0 -0.14497203293E+03 -0.29520412815E+01  0.12819603275E+03  0.19360247336E+03  0.47000000000E+01 0. -1.
        -11    1    4    4    0    0 -0.69363018634E+01 -0.10885780860E+02 -0.12772459947E+02  0.18158971380E+02  0.00000000000E+00 0.  1.
         12    1    4    4    0    0 -0.17246185617E+03  0.70999004170E+02  0.33087671159E+02  0.18941685355E+03  0.00000000000E+00 0. -1.
         -5    1    5    5    0  502  0.17562530949E+03 -0.77172887384E+02  0.46598251696E+03  0.50394612806E+03  0.47000000000E+01 0.  1.
         13    1    6    6    0    0  0.15040693303E+03  0.90342022905E+01  0.18999653337E+03  0.24249236072E+03  0.00000000000E+00 0. -1.
        -14    1    6    6    0    0 -0.16620515623E+01  0.10977503065E+02  0.54532023168E+02  0.55650782023E+02  0.00000000000E+00 0.  1.
<mgrwt>
<rscale>  2 0.37255408E+03</rscale>
<asrwt>0</asrwt>
<pdfrwt beam="1">  1       21 0.15863768E+00 0.37267739E+03</pdfrwt>
<pdfrwt beam="2">  1       21 0.26480405E-01 0.37267739E+03</pdfrwt>
<totfact> 0.31092263E+03</totfact>
</mgrwt>
</event>
<event>
12    1  0.1071811E-001  0.2866570E+03  0.7546771E-02  0.1092589E+00
         21   -1    0    0  503  502  0.00000000000E+00  0.00000000000E+00  0.60812511399E+03  0.60812511399E+03  0.00000000000E+00 0.  1.
         21   -1    0    0  501  503 -0.00000000000E+00 -0.00000000000E+00 -0.17282855761E+03  0.17282855761E+03  0.00000000000E+00 0. -1.
          6    2    1    2  501    0 -0.82859229987E+02  0.21306668016E+03  0.40302117684E+03  0.49248537042E+03  0.16689130866E+03 0.  0.
         24    2    3    3    0    0 -0.11429503444E+03  0.16665958326E+03  0.36127697669E+03  0.42243898085E+03  0.84231033907E+02 0.  0.
         -6    2    1    2    0  502  0.82859229987E+02 -0.21306668016E+03  0.32275379545E+02  0.28846830119E+03  0.17294276069E+03 0.  0.
        -24    2    5    5    0    0  0.20928322261E+02 -0.20661950446E+03  0.12943369158E+02  0.22310148979E+03  0.80480616586E+02 0.  0.
          5    1    3    3  501    0  0.31435804449E+02  0.46407096909E+02  0.41744200150E+02  0.70046389564E+02  0.47000000000E+01 0. -1.
        -13    1    4    4    0    0 -0.25863401360E+02  0.10796319319E+03  0.15775168260E+03  0.19290038874E+03  0.00000000000E+00 0.  1.
         14    1    4    4    0    0 -0.88431633076E+02  0.58696390063E+02  0.20352529409E+03  0.22953859211E+03  0.00000000000E+00 0. -1.
         -5    1    5    5    0  502  0.61930907726E+02 -0.64471757043E+01  0.19332010387E+02  0.65366811395E+02  0.47000000000E+01 0.  1.
         13    1    6    6    0    0  0.43804076839E+02 -0.75867456284E+02 -0.10760438042E+02  0.88263554752E+02  0.00000000000E+00 0. -1.
        -14    1    6    6    0    0 -0.22875754578E+02 -0.13075204818E+03  0.23703807200E+02  0.13483793504E+03  0.00000000000E+00 0.  1.
<mgrwt>
<rscale>  2 0.28575031E+03</rscale>
<asrwt>0</asrwt>
<pdfrwt beam="1">  1       21 0.93557709E-01 0.28665704E+03</pdfrwt>
<pdfrwt beam="2">  1       21 0.26589009E-01 0.28665704E+03</pdfrwt>
<totfact> 0.12251373E+04</totfact>
</mgrwt>
</event>
<event>
12    1  0.1071811E-001  0.1913318E+03  0.7546771E-02  0.1157329E+00
         21   -1    0    0  501  502  0.00000000000E+00  0.00000000000E+00  0.17426115008E+03  0.17426115008E+03  0.00000000000E+00 0.  1.
         21   -1    0    0  502  503 -0.00000000000E+00 -0.00000000000E+00 -0.33409557605E+03  0.33409557605E+03  0.00000000000E+00 0.  1.
         -6    2    1    2    0  503  0.79488280112E+02  0.31734405010E+01 -0.23493821145E+03  0.30281244318E+03  0.17369788469E+03 0.  0.
        -24    2    3    3    0    0  0.11135915541E+03 -0.18196323484E+02 -0.12966085586E+03  0.19066151316E+03  0.82510044094E+02 0.  0.
          6    2    1    2  501    0 -0.79488280112E+02 -0.31734405010E+01  0.75103785480E+02  0.20554428295E+03  0.17400981656E+03 0.  0.
         24    2    5    5    0    0 -0.25793857048E+02  0.56393535802E+02  0.74363749219E+02  0.12520778198E+03  0.79381783358E+02 0.  0.
          5    1    5    5  501    0 -0.53694423063E+02 -0.59566976303E+02  0.74003626071E+00  0.80336500967E+02  0.47000000000E+01 0. -1.
        -11    1    6    6    0    0 -0.37060733801E+02  0.39185077825E+01  0.58283661560E+02  0.69179750635E+02  0.00000000000E+00 0.  1.
         12    1    6    6    0    0  0.11266876752E+02  0.52475028019E+02  0.16080087659E+02  0.56028031346E+02  0.00000000000E+00 0. -1.
         -5    1    3    3    0  503 -0.31870875296E+02  0.21369763985E+02 -0.10527735560E+03  0.11215093003E+03  0.47000000000E+01 0.  1.
         11    1    4    4    0    0  0.13781322695E+02  0.80048465771E+01  0.96038836281E+01  0.18607444873E+02  0.00000000000E+00 0. -1.
        -12    1    4    4    0    0  0.97577832713E+02 -0.26201170061E+02 -0.13926473948E+03  0.17205406828E+03  0.00000000000E+00 0.  1.
<mgrwt>
<rscale>  2 0.19126089E+03</rscale>
<asrwt>0</asrwt>
<pdfrwt beam="1">  1       21 0.26809408E-01 0.19133184E+03</pdfrwt>
<pdfrwt beam="2">  1       21 0.51399319E-01 0.19133184E+03</pdfrwt>
<totfact> 0.47685732E+04</totfact>
</mgrwt>
</event>
<event>
12    1  0.1071811E-001  0.1961687E+03  0.7546771E-02  0.1153333E+00
         21   -1    0    0  503  502  0.00000000000E+00  0.00000000000E+00  0.14207236461E+04  0.14207236461E+04  0.00000000000E+00 0. -1.
         21   -1    0    0  501  503 -0.00000000000E+00 -0.00000000000E+00 -0.43181931092E+02  0.43181931092E+02  0.00000000000E+00 0.  1.
          6    2    1    2  501    0  0.55455311525E+02  0.71062322560E+02  0.23746092833E+03  0.30707094791E+03  0.17256804252E+03 0.  0.
         24    2    3    3    0    0  0.18828554434E+02  0.76787642829E+02  0.63346763681E+02  0.12899194589E+03  0.79845181960E+02 0.  0.
         -6    2    1    2    0  502 -0.55455311525E+02 -0.71062322560E+02  0.11400807867E+04  0.11568346293E+04  0.17423264362E+03 0.  0.
        -24    2    5    5    0    0  0.21190944502E+02 -0.29022483999E+02  0.82632029391E+03  0.83108973921E+03  0.81323832831E+02 0.  0.
          5    1    3    3  501    0  0.36626757090E+02 -0.57253202689E+01  0.17411416465E+03  0.17807900202E+03  0.47000000000E+01 0. -1.
        -13    1    4    4    0    0  0.33110771597E+02  0.18157359148E+02 -0.46865353421E+01  0.38052286403E+02  0.00000000000E+00 0.  1.
         14    1    4    4    0    0 -0.14282217162E+02  0.58630283681E+02  0.68033299023E+02  0.90939659487E+02  0.00000000000E+00 0. -1.
         -5    1    5    5    0  502 -0.76646256027E+02 -0.42039838561E+02  0.31376049276E+03  0.32574489007E+03  0.47000000000E+01 0.  1.
         13    1    6    6    0    0 -0.77980336375E+01 -0.44447367211E+02  0.66107110646E+03  0.66260952723E+03  0.00000000000E+00 0. -1.
        -14    1    6    6    0    0  0.28988978140E+02  0.15424883212E+02  0.16524918744E+03  0.16848021197E+03  0.00000000000E+00 0.  1.
<mgrwt>
<rscale>  2 0.19579841E+03</rscale>
<asrwt>0</asrwt>
<pdfrwt beam="1">  1       21 0.21857283E+00 0.19616870E+03</pdfrwt>
<pdfrwt beam="2">  1       21 0.66433751E-02 0.19616870E+03</pdfrwt>
<totfact> 0.16943901E+04</totfact>
</mgrwt>
</event>
<event>
12    1  0.1071811E-001  0.2002855E+03  0.7546771E-02  0.1151036E+00
         21   -1    0    0  503  502  0.00000000000E+00  0.00000000000E+00  0.63007360121E+02  0.63007360121E+02  0.00000000000E+00 0.  1.
         21   -1    0    0  501  503 -0.00000000000E+00 -0.00000000000E+00 -0.76848530933E+03  0.76848530933E+03  0.00000000000E+00 0.  1.
          6    2    1    2  501    0  0.73317073191E+02 -0.64248232711E+02 -0.53392557984E+03  0.56777972814E+03  0.16671552493E+03 0.  0.
         24    2    3    3    0    0  0.78126643269E+01 -0.91225938756E+02 -0.36815199145E+03  0.38744227554E+03  0.78691921054E+02 0.  0.
         -6    2    1    2    0  502 -0.73317073191E+02  0.64248232711E+02 -0.17155236937E+03  0.26371294131E+03  0.17496019933E+03 0.  0.
        -24    2    5    5    0    0  0.21208836641E+02  0.57782865805E+02 -0.60224128830E+02  0.11744942658E+03  0.79867063167E+02 0.  0.
          5    1    3    3  501    0  0.65504408864E+02  0.26977706045E+02 -0.16577358839E+03  0.18033745260E+03  0.47000000000E+01 0. -1.
        -13    1    4    4    0    0  0.18133013880E+02 -0.10288615245E+03 -0.33280695191E+03  0.34881919929E+03  0.00000000000E+00 0.  1.
         14    1    4    4    0    0 -0.10320349553E+02  0.11660213692E+02 -0.35345039540E+02  0.38623076241E+02  0.00000000000E+00 0. -1.
         -5    1    5    5    0  502 -0.94525909831E+02  0.64653669058E+01 -0.11132824053E+03  0.14626351472E+03  0.47000000000E+01 0.  1.
         11    1    6    6    0    0 -0.17136950890E+02  0.13063064672E+02  0.11668247030E+02  0.24504422727E+02  0.00000000000E+00 0. -1.
        -12    1    6    6    0    0  0.38345787531E+02  0.44719801133E+02 -0.71892375861E+02  0.92945003855E+02  0.00000000000E+00 0.  1.
<mgrwt>
<rscale>  2 0.19847092E+03</rscale>
<asrwt>0</asrwt>
<pdfrwt beam="1">  1       21 0.96934401E-02 0.20028555E+03</pdfrwt>
<pdfrwt beam="2">  1       21 0.11822851E+00 0.20028555E+03</pdfrwt>
<totfact> 0.46777876E+04</totfact>
</mgrwt>
</event>
<event>
12    1  0.1071811E-001  0.2956966E+03  0.7546771E-02  0.1087559E+00
         21   -1    0    0  503  502  0.00000000000E+00  0.00000000000E+00  0.18152021962E+03  0.18152021962E+03  0.00000000000E+00 0. -1.
         21   -1    0    0  501  503 -0.00000000000E+00 -0.00000000000E+00 -0.50945507834E+03  0.50945507834E+03  0.00000000000E+00 0.  1.
          6    2    1    2  501    0  0.23826140442E+03  0.52490410013E+01 -0.24759881799E+03  0.38567039578E+03  0.17504408086E+03 0.  0.
         24    2    3    3    0    0  0.12617365848E+03 -0.59245247559E+02 -0.10701052168E+03  0.19459361774E+03  0.83580098486E+02 0.  0.
         -6    2    1    2    0  502 -0.23826140442E+03 -0.52490410013E+01 -0.80336040730E+02  0.30530490218E+03  0.17309290738E+03 0.  0.
        -24    2    5    5    0    0 -0.18941576194E+03  0.47416438328E+02 -0.96599146507E+02  0.23150701527E+03  0.78341901423E+02 0.  0.
          5    1    3    3  501    0  0.11208774594E+03  0.64494288561E+02 -0.14058829631E+03  0.19107677804E+03  0.47000000000E+01 0. -1.
        -13    1    4    4    0    0  0.72395362007E+02  0.11867183523E+02 -0.47284284542E+02  0.87279562611E+02  0.00000000000E+00 0.  1.
         14    1    4    4    0    0  0.53778296474E+02 -0.71112431082E+02 -0.59726237138E+02  0.10731405513E+03  0.00000000000E+00 0. -1.
         -5    1    5    5    0  502 -0.48845642480E+02 -0.52665479329E+02  0.16263105777E+02  0.73797886906E+02  0.47000000000E+01 0.  1.
         11    1    6    6    0    0 -0.12934431324E+03  0.58748076269E+02 -0.38532741542E+02  0.14719395369E+03  0.00000000000E+00 0. -1.
        -12    1    6    6    0    0 -0.60071448709E+02 -0.11331637941E+02 -0.58066404965E+02  0.84313061586E+02  0.00000000000E+00 0.  1.
<mgrwt>
<rscale>  2 0.29540847E+03</rscale>
<asrwt>0</asrwt>
<pdfrwt beam="1">  1       21 0.27926188E-01 0.29569660E+03</pdfrwt>
<pdfrwt beam="2">  1       21 0.78377705E-01 0.29569660E+03</pdfrwt>
<totfact> 0.16717755E+04</totfact>
</mgrwt>
</event>
<event>
12    1  0.1071811E-001  0.1864198E+03  0.7546771E-02  0.1162237E+00
         21   -1    0    0  501  502  0.00000000000E+00  0.00000000000E+00  0.13156260391E+03  0.13156260391E+03  0.00000000000E+00 0. -1.
         21   -1    0    0  502  503 -0.00000000000E+00 -0.00000000000E+00 -0.51775218427E+03  0.51775218427E+03  0.00000000000E+00 0. -1.
         -6    2    1    2    0  503  0.35461431432E+02 -0.56902197670E+02 -0.42225426228E+03  0.46157446506E+03  0.17394525451E+03 0.  0.
        -24    2    3    3    0    0  0.76953108057E+02 -0.60120882299E+02 -0.20737192514E+03  0.24264884304E+03  0.79618115827E+02 0.  0.
          6    2    1    2  501    0 -0.35461431432E+02  0.56902197670E+02  0.36064681922E+02  0.18774032312E+03  0.17161117220E+03 0.  0.
         24    2    5    5    0    0  0.30695767564E+02  0.52558049112E+01 -0.18039469598E+02  0.87772958062E+02  0.80055081488E+02 0.  0.
          5    1    5    5  501    0 -0.66157198996E+02  0.51646392759E+02  0.54104151521E+02  0.99967365054E+02  0.47000000000E+01 0. -1.
        -11    1    6    6    0    0 -0.21642317386E+02  0.14359598869E+02 -0.22633303512E+02  0.34450753394E+02  0.00000000000E+00 0.  1.
         12    1    6    6    0    0  0.52338084950E+02 -0.91037939583E+01  0.45938339139E+01  0.53322204668E+02  0.00000000000E+00 0. -1.
         -5    1    3    3    0  503 -0.41491676624E+02  0.32186846282E+01 -0.21488233714E+03  0.21892562202E+03  0.47000000000E+01 0.  1.
         13    1    4    4    0    0  0.30344674375E+02 -0.11446469719E+02 -0.15201715245E+03  0.15543820499E+03  0.00000000000E+00 0. -1.
        -14    1    4    4    0    0  0.46608433681E+02 -0.48674412580E+02 -0.55354772684E+02  0.87210638050E+02  0.00000000000E+00 0.  1.
<mgrwt>
<rscale>  2 0.18587336E+03</rscale>
<asrwt>0</asrwt>
<pdfrwt beam="1">  1       21 0.20240401E-01 0.18641975E+03</pdfrwt>
<pdfrwt beam="2">  1       21 0.79654180E-01 0.18641975E+03</pdfrwt>
<totfact> 0.31457556E+04</totfact>
</mgrwt>
</event>
<event>
12    1  0.1071811E-001  0.2024103E+03  0.7546771E-02  0.1147771E+00
         21   -1    0    0  503  502  0.00000000000E+00  0.00000000000E+00  0.49633801897E+02  0.49633801897E+02  0.00000000000E+00 0. -1.
         21   -1    0    0  501  503 -0.00000000000E+00 -0.00000000000E+00 -0.85275817450E+03  0.85275817450E+03  0.00000000000E+00 0. -1.
          6    2    1    2  501    0  0.94037223139E+02  0.48271740790E+02 -0.31961474430E+03  0.37831667587E+03  0.17261738664E+03 0.  0.
         24    2    3    3    0    0  0.86952882125E+02  0.58109356575E+01 -0.10159420871E+03  0.15603723058E+03  0.80197652083E+02 0.  0.
         -6    2    1    2    0  502 -0.94037223139E+02 -0.48271740790E+02 -0.48350962830E+03  0.52407530052E+03  0.17233745869E+03 0.  0.
        -24    2    5    5    0    0 -0.59606277125E+02  0.30958702977E+02 -0.17538469649E+03  0.20403465175E+03  0.79743324430E+02 0.  0.
          5    1    3    3  501    0  0.70843410140E+01  0.42460805132E+02 -0.21802053559E+03  0.22227944529E+03  0.47000000000E+01 0. -1.
        -13    1    4    4    0    0  0.40278489153E+02  0.42486187098E+02 -0.57810599974E+02  0.82276960638E+02  0.00000000000E+00 0.  1.
         14    1    4    4    0    0  0.46674392971E+02 -0.36675251440E+02 -0.43783608736E+02  0.73760269939E+02  0.00000000000E+00 0. -1.
         -5    1    5    5    0  502 -0.34430946014E+02 -0.79230443766E+02 -0.30812493181E+03  0.32004064877E+03  0.47000000000E+01 0.  1.
         13    1    6    6    0    0 -0.60448689315E+02  0.99923137497E+01 -0.17224534470E+03  0.18281780314E+03  0.00000000000E+00 0. -1.
        -14    1    6    6    0    0  0.84241218961E+00  0.20966389227E+02 -0.31393517901E+01  0.21216848616E+02  0.00000000000E+00 0.  1.
<mgrwt>
<rscale>  2 0.20235059E+03</rscale>
<asrwt>0</asrwt>
<pdfrwt beam="1">  1       21 0.76359702E-02 0.20241028E+03</pdfrwt>
<pdfrwt beam="2">  1       21 0.13119355E+00 0.20241028E+03</pdfrwt>
<totfact> 0.54676211E+04</totfact>
</mgrwt>
</event>
<event>
12    1  0.1071811E-001  0.2256856E+03  0.7546771E-02  0.1129726E+00
         21   -1    0    0  501  502  0.00000000000E+00  0.00000000000E+00  0.88731443902E+02  0.88731443902E+02  0.00000000000E+00 0.  1.
         21   -1    0    0  502  503 -0.00000000000E+00 -0.00000000000E+00 -0.88511010338E+03  0.88511010338E+03  0.00000000000E+00 0. -1.
         -6    2    1    2    0  503 -0.13416896972E+03  0.55957728585E+02 -0.68689973007E+03  0.72300366233E+03  0.17254123199E+03 0.  0.
        -24    2    3    3    0    0 -0.61576097230E+02 -0.11983814054E+02 -0.17805123406E+03  0.20451098133E+03  0.78659214238E+02 0.  0.
          6    2    1    2  501    0  0.13416896972E+03 -0.55957728585E+02 -0.10947892940E+03  0.25083788496E+03  0.17263090315E+03 0.  0.
         24    2    5    5    0    0  0.64184435646E+02 -0.71431598837E+02 -0.49739777507E+01  0.12402837983E+03  0.78333795112E+02 0.  0.
          5    1    5    5  501    0  0.69984534076E+02  0.15473870252E+02 -0.10450495165E+03  0.12680950513E+03  0.47000000000E+01 0. -1.
        -13    1    6    6    0    0  0.77856306861E+02 -0.75080316250E+02 -0.10856813693E+02  0.10870385830E+03  0.00000000000E+00 0.  1.
         14    1    6    6    0    0 -0.13671871215E+02  0.36487174133E+01  0.58828359424E+01  0.15324521526E+02  0.00000000000E+00 0. -1.
         -5    1    3    3    0  503 -0.72592872492E+02  0.67941542638E+02 -0.50884849602E+03  0.51849268100E+03  0.47000000000E+01 0.  1.
         11    1    4    4    0    0 -0.47857222008E+01 -0.36655104833E+02 -0.49052580212E+02  0.61421946182E+02  0.00000000000E+00 0. -1.
        -12    1    4    4    0    0 -0.56790375030E+02  0.24671290780E+02 -0.12899865385E+03  0.14308903515E+03  0.00000000000E+00 0.  1.
<mgrwt>
<rscale>  2 0.22566849E+03</rscale>
<asrwt>0</asrwt>
<pdfrwt beam="1">  1       21 0.13650991E-01 0.22568564E+03</pdfrwt>
<pdfrwt beam="2">  1       21 0.13617079E+00 0.22568564E+03</pdfrwt>
<totfact> 0.17509730E+04</totfact>
</mgrwt>
</event>
<event>
12    1  0.1071811E-001  0.2460481E+03  0.7546771E-02  0.1115862E+00
         21   -1    0    0  501  502  0.00000000000E+00  0.00000000000E+00  0.10546807935E+04  0.10546807935E+04  0.00000000000E+00 0.  1.
         21   -1    0    0  502  503 -0.00000000000E+00 -0.00000000000E+00 -0.10419102106E+03  0.10419102106E+03  0.00000000000E+00 0. -1.
         -6    2    1    2    0  503  0.16446215978E+02  0.17406592808E+03  0.86630494194E+02  0.26065550967E+03  0.17282079405E+03 0.  0.
        -24    2    3    3    0    0 -0.90429940501E+01  0.18196628503E+03  0.35679813355E+02  0.20294782088E+03  0.81983317140E+02 0.  0.
          6    2    1    2  501    0 -0.16446215978E+02 -0.17406592808E+03  0.86385927823E+03  0.89821630488E+03  0.17311918563E+03 0.  0.
         24    2    5    5    0    0 -0.52704778495E+02 -0.17590598848E+03  0.61773504761E+03  0.64938444181E+03  0.79892764189E+02 0.  0.
          5    1    5    5  501    0  0.36258562517E+02  0.18400603936E+01  0.24612423062E+03  0.24883186307E+03  0.47000000000E+01 0. -1.
        -13    1    6    6    0    0 -0.20602497538E+02 -0.51949103363E+02  0.32643060113E+03  0.33117987499E+03  0.00000000000E+00 0.  1.
         14    1    6    6    0    0 -0.32102280957E+02 -0.12395688511E+03  0.29130444648E+03  0.31820456683E+03  0.00000000000E+00 0. -1.
         -5    1    3    3    0  503  0.25489210028E+02 -0.79003569463E+01  0.50950680838E+02  0.57707688791E+02  0.47000000000E+01 0.  1.
         13    1    4    4    0    0 -0.26940069850E+01  0.14373489832E+03 -0.87062579323E+01  0.14402353140E+03  0.00000000000E+00 0. -1.
        -14    1    4    4    0    0 -0.63489870651E+01  0.38231386708E+02  0.44386071288E+02  0.58924289480E+02  0.00000000000E+00 0.  1.
<mgrwt>
<rscale>  2 0.24599564E+03</rscale>
<asrwt>0</asrwt>
<pdfrwt beam="1">  1       21 0.16225858E+00 0.24604812E+03</pdfrwt>
<pdfrwt beam="2">  1       21 0.16029389E-01 0.24604812E+03</pdfrwt>
<totfact> 0.81004732E+03</totfact>
</mgrwt>
</event>
<event>
12    1  0.1071811E-001  0.3567855E+03  0.7546771E-02  0.1059866E+00
         21   -1    0    0  503  502  0.00000000000E+00  0.00000000000E+00  0.22948382364E+03  0.22948382364E+03  0.00000000000E+00 0. -1.
         21   -1    0    0  501  503 -0.00000000000E+00 -0.00000000000E+00 -0.60304072240E+03  0.60304072240E+03  0.00000000000E+00 0.  1.
          6    2    1    2  501    0 -0.17246952393E+03 -0.26037365331E+03 -0.30466520311E+03  0.46914875652E+03  0.17245142428E+03 0.  0.
         24    2    3    3    0    0 -0.15697750253E+03 -0.17888517901E+03 -0.28878621656E+03  0.38456385016E+03  0.88600408608E+02 0.  0.
         -6    2    1    2    0  502  0.17246952393E+03  0.26037365331E+03 -0.68891695648E+02  0.36337578953E+03  0.17249847149E+03 0.  0.
        -24    2    5    5    0    0  0.12487695028E+03  0.25907312520E+03 -0.23848627947E+02  0.29766648739E+03  0.72961933566E+02 0.  0.
          5    1    3    3  501    0 -0.15492021402E+02 -0.81488474295E+02 -0.15878986552E+02  0.84584906360E+02  0.47000000000E+01 0. -1.
        -13    1    4    4    0    0 -0.47980658705E+02 -0.18484394824E+02 -0.10718684219E+03  0.11888160329E+03  0.00000000000E+00 0.  1.
         14    1    4    4    0    0 -0.10899684382E+03 -0.16040078419E+03 -0.18159937437E+03  0.26568224687E+03  0.00000000000E+00 0. -1.
         -5    1    5    5    0  502  0.47592573645E+02  0.13005281123E+01 -0.45043067701E+02  0.65709302138E+02  0.47000000000E+01 0.  1.
         11    1    6    6    0    0  0.63578203940E+01  0.85079035799E+02 -0.17223254073E+02  0.87037375267E+02  0.00000000000E+00 0. -1.
        -12    1    6    6    0    0  0.11851912989E+03  0.17399408940E+03 -0.66253738744E+01  0.21062911212E+03  0.00000000000E+00 0.  1.
<mgrwt>
<rscale>  2 0.35677982E+03</rscale>
<asrwt>0</asrwt>
<pdfrwt beam="1">  1       21 0.35305204E-01 0.35678551E+03</pdfrwt>
<pdfrwt beam="2">  1       21 0.92775494E-01 0.35678551E+03</pdfrwt>
<totfact> 0.69198617E+03</totfact>
</mgrwt>
</event>
<event>
12    1  0.1071811E-001  0.2822366E+03  0.7546771E-02  0.1094490E+00
         21   -1    0    0  501  502  0.00000000000E+00  0.00000000000E+00  0.13208080390E+03  0.13208080390E+03  0.00000000000E+00 0. -1.
         21   -1    0    0  502  503 -0.00000000000E+00 -0.00000000000E+00 -0.14116110020E+04  0.14116110020E+04  0.00000000000E+00 0.  1.
         -6    2    1    2    0  503  0.14089888591E+03  0.17223669941E+03 -0.12239403139E+04  0.12560327175E+04  0.17340795446E+03 0.  0.
        -24    2    3    3    0    0  0.16781758995E+03  0.17393661116E+03 -0.10971341365E+04  0.11263045287E+04  0.80261383886E+02 0.  0.
          6    2    1    2  501    0 -0.14089888591E+03 -0.17223669941E+03 -0.55589884164E+02  0.28765908840E+03  0.17360742855E+03 0.  0.
         24    2    5    5    0    0 -0.15524912376E+03 -0.18599624044E+03 -0.33960046313E+02  0.25790687536E+03  0.81644226528E+02 0.  0.
          5    1    5    5  501    0  0.14350237848E+02  0.13759541034E+02 -0.21629837851E+02  0.29752213047E+02  0.47000000000E+01 0. -1.
        -11    1    6    6    0    0 -0.59447347313E+02 -0.17741052399E+02 -0.75187122640E+01  0.62492104116E+02  0.00000000000E+00 0.  1.
         12    1    6    6    0    0 -0.95801776445E+02 -0.16825518804E+03 -0.26441334049E+02  0.19541477124E+03  0.00000000000E+00 0. -1.
         -5    1    3    3    0  503 -0.26918704042E+02 -0.16999117524E+01 -0.12680617742E+03  0.12972818876E+03  0.47000000000E+01 0.  1.
         11    1    4    4    0    0  0.10887876963E+03  0.56449107531E+02 -0.49139998825E+03  0.50647313519E+03  0.00000000000E+00 0. -1.
        -12    1    4    4    0    0  0.58938820325E+02  0.11748750363E+03 -0.60573414826E+03  0.61983139354E+03  0.00000000000E+00 0.  1.
<mgrwt>
<rscale>  2 0.28220596E+03</rscale>
<asrwt>0</asrwt>
<pdfrwt beam="1">  1       21 0.20320124E-01 0.28223663E+03</pdfrwt>
<pdfrwt beam="2">  1       21 0.21717092E+00 0.28223663E+03</pdfrwt>
<totfact> 0.21675503E+03</totfact>
</mgrwt>
</event>
<event>
12    1  0.1071811E-001  0.1821920E+03  0.7546771E-02  0.1165714E+00
         21   -1    0    0  503  502  0.00000000000E+00  0.00000000000E+00  0.10488920923E+04  0.10488920923E+04  0.00000000000E+00 0. -1.
         21   -1    0    0  501  503 -0.00000000000E+00 -0.00000000000E+00 -0.31643933459E+02  0.31643933459E+02  0.00000000000E+00 0.  1.
          6    2    1    2  501    0  0.57304709385E+02 -0.80270143063E+01  0.49974060647E+03  0.53189405910E+03  0.17269149857E+03 0.  0.
         24    2    3    3    0    0  0.84229610152E+02 -0.15384121348E+02  0.48727923856E+03  0.50096748484E+03  0.78715094612E+02 0.  0.
         -6    2    1    2    0  502 -0.57304709385E+02  0.80270143063E+01  0.51750755237E+03  0.54864196665E+03  0.17275901753E+03 0.  0.
        -24    2    5    5    0    0 -0.13957453977E+02  0.57796953077E+02  0.41341222764E+03  0.42529709247E+03  0.80203794137E+02 0.  0.
          5    1    3    3  501    0 -0.26924900768E+02  0.73571070414E+01  0.12461367905E+02  0.30926574259E+02  0.47000000000E+01 0. -1.
        -13    1    4    4    0    0  0.66805428963E+02 -0.10711396295E+02  0.16706404042E+03  0.18024453654E+03  0.00000000000E+00 0.  1.
         14    1    4    4    0    0  0.17424181190E+02 -0.46727250524E+01  0.32021519814E+03  0.32072294831E+03  0.00000000000E+00 0. -1.
         -5    1    5    5    0  502 -0.43347255408E+02 -0.49769938771E+02  0.10409532473E+03  0.12334487418E+03  0.47000000000E+01 0.  1.
         11    1    6    6    0    0  0.73028111928E+01 -0.18801319401E+02  0.94244798136E+02  0.96378953295E+02  0.00000000000E+00 0. -1.
        -12    1    6    6    0    0 -0.21260265170E+02  0.76598272478E+02  0.31916742950E+03  0.32891813917E+03  0.00000000000E+00 0.  1.
<mgrwt>
<rscale>  2 0.18217604E+03</rscale>
<asrwt>0</asrwt>
<pdfrwt beam="1">  1       21 0.16136799E+00 0.18219204E+03</pdfrwt>
<pdfrwt beam="2">  1       21 0.48682983E-02 0.18219204E+03</pdfrwt>
<totfact> 0.69616814E+04</totfact>
</mgrwt>
</event>
<event>
12    1  0.1071811E-001  0.1800042E+03  0.7546771E-02  0.1167853E+00
         21   -1    0    0  503  502  0.00000000000E+00  0.00000000000E+00  0.16149313022E+02  0.16149313022E+02  0.00000000000E+00 0.  1.
         21   -1    0    0  501  503 -0.00000000000E+00 -0.00000000000E+00 -0.21024247629E+04  0.21024247629E+04  0.00000000000E+00 0.  1.
          6    2    1    2  501    0 -0.27048126846E+00 -0.48591861653E+02 -0.81441085996E+03  0.83406627104E+03  0.17332124360E+03 0.  0.
         24    2    3    3    0    0 -0.46999581769E+02  0.21342297521E+02 -0.38914535392E+03  0.40053745298E+03  0.79571919779E+02 0.  0.
         -6    2    1    2    0  502  0.27048126846E+00  0.48591861653E+02 -0.12718645899E+04  0.12845078049E+04  0.17308819585E+03 0.  0.
        -24    2    5    5    0    0 -0.63649420612E+02  0.16176071743E+02 -0.89831043045E+03  0.90411151501E+03  0.78377854545E+02 0.  0.
          5    1    3    3  501    0  0.46729100501E+02 -0.69934159174E+02 -0.42526550605E+03  0.43352881806E+03  0.47000000000E+01 0. -1.
        -13    1    4    4    0    0 -0.47973624483E+02  0.35009225588E+02 -0.37864706506E+03  0.38327628990E+03  0.00000000000E+00 0.  1.
         14    1    4    4    0    0  0.97404271374E+00 -0.13666928067E+02 -0.10498288857E+02  0.17261163082E+02  0.00000000000E+00 0. -1.
         -5    1    5    5    0  502  0.63919901881E+02  0.32415789911E+02 -0.37355415947E+03  0.38039628987E+03  0.47000000000E+01 0.  1.
         13    1    6    6    0    0 -0.43593967433E+01  0.25013613847E+02 -0.55689437234E+03  0.55747289366E+03  0.00000000000E+00 0. -1.
        -14    1    6    6    0    0 -0.59290023869E+02 -0.88375421038E+01 -0.34141605810E+03  0.34663862135E+03  0.00000000000E+00 0.  1.
<mgrwt>
<rscale>  2 0.17994803E+03</rscale>
<asrwt>0</asrwt>
<pdfrwt beam="1">  1       21 0.24845101E-02 0.18000415E+03</pdfrwt>
<pdfrwt beam="2">  1       21 0.32344992E+00 0.18000415E+03</pdfrwt>
<totfact> 0.21877470E+04</totfact>
</mgrwt>
</event>
<event>
12    1  0.1071811E-001  0.3727025E+03  0.7546771E-02  0.1053688E+00
         21   -1    0    0  501  502  0.00000000000E+00  0.00000000000E+00  0.24665034745E+03  0.24665034745E+03  0.00000000000E+00 0. -1.
         21   -1    0    0  502  503 -0.00000000000E+00 -0.00000000000E+00 -0.56310452837E+03  0.56310452837E+03  0.00000000000E+00 0.  1.
         -6    2    1    2    0  503 -0.16114116657E+03  0.28801821271E+03 -0.16760139287E+03  0.40842673533E+03  0.17263025466E+03 0.  0.
        -24    2    3    3    0    0 -0.17038080906E+03  0.22121766563E+03 -0.17673154731E+03  0.34021285255E+03  0.80894187343E+02 0.  0.
          6    2    1    2  501    0  0.16114116657E+03 -0.28801821271E+03 -0.14885278806E+03  0.40132814049E+03  0.17316511607E+03 0.  0.
         24    2    5    5    0    0  0.16345952475E+03 -0.24678874701E+03 -0.71422514121E+02  0.31344878599E+03  0.74332119799E+02 0.  0.
          5    1    5    5  501    0 -0.23183581716E+01 -0.41229465702E+02 -0.77430273936E+02  0.87879354507E+02  0.47000000000E+01 0. -1.
        -11    1    6    6    0    0 -0.40193534675E+01 -0.31366747487E+02 -0.14112829384E+02  0.34629467271E+02  0.00000000000E+00 0.  1.
         12    1    6    6    0    0  0.16747887821E+03 -0.21542199952E+03 -0.57309684737E+02  0.27881931872E+03  0.00000000000E+00 0. -1.
         -5    1    3    3    0  503  0.92396424813E+01  0.66800547083E+02  0.91301544429E+01  0.68213882780E+02  0.47000000000E+01 0.  1.
         11    1    4    4    0    0 -0.55804021106E+02  0.20236876487E+02 -0.36431820015E+02  0.69648384412E+02  0.00000000000E+00 0. -1.
        -12    1    4    4    0    0 -0.11457678795E+03  0.20098078914E+03 -0.14029972730E+03  0.27056446814E+03  0.00000000000E+00 0.  1.
<mgrwt>
<rscale>  2 0.37264039E+03</rscale>
<asrwt>0</asrwt>
<pdfrwt beam="1">  1       21 0.37946207E-01 0.37270246E+03</pdfrwt>
<pdfrwt beam="2">  1       21 0.86631466E-01 0.37270246E+03</pdfrwt>
<totfact> 0.69814967E+03</totfact>
</mgrwt>
</event>
<event>
12    1  0.1071811E-001  0.1787520E+03  0.7546771E-02  0.1169702E+00
         21   -1    0    0  503  502  0.00000000000E+00  0.00000000000E+00  0.43652570056E+03  0.43652570056E+03  0.00000000000E+00 0. -1.
         21   -1    0    0  501  503 -0.00000000000E+00 -0.00000000000E+00 -0.72324464212E+02  0.72324464212E+02  0.00000000000E+00 0. -1.
          6    2    1    2  501    0 -0.44275588050E+02  0.24296528101E+02  0.19890484730E+03  0.26742365610E+03  0.17146901932E+03 0.  0.
         24    2    3    3    0    0  0.10391956575E+02 -0.15649953998E+02  0.10188295003E+03  0.14901926253E+03  0.10711531765E+03 0.  0.
         -6    2    1    2    0  502  0.44275588050E+02 -0.24296528101E+02  0.16529638905E+03  0.24142650868E+03  0.16856219589E+03 0.  0.
        -24    2    5    5    0    0 -0.37448124573E+02  0.53365254890E+01  0.78704734236E+02  0.11863771540E+03  0.80309599591E+02 0.  0.
          5    1    3    3  501    0 -0.54667544624E+02  0.39946482098E+02  0.97021897266E+02  0.11840439357E+03  0.47000000000E+01 0. -1.
        -11    1    4    4    0    0 -0.32283835704E+02  0.27094716846E+02  0.18428033501E+02  0.45999588557E+02  0.00000000000E+00 0.  1.
         12    1    4    4    0    0  0.42675792279E+02 -0.42744670843E+02  0.83454916529E+02  0.10301967397E+03  0.00000000000E+00 0. -1.
         -5    1    5    5    0  502  0.81723712623E+02 -0.29633053590E+02  0.86591654816E+02  0.12278879327E+03  0.47000000000E+01 0.  1.
         11    1    6    6    0    0  0.10610892727E+02  0.31993950335E+02  0.27113540699E+02  0.43259079876E+02  0.00000000000E+00 0. -1.
        -12    1    6    6    0    0 -0.48059017300E+02 -0.26657424846E+02  0.51591193537E+02  0.75378635526E+02  0.00000000000E+00 0.  1.
<mgrwt>
<rscale>  2 0.17805126E+03</rscale>
<asrwt>0</asrwt>
<pdfrwt beam="1">  1       21 0.67157799E-01 0.17875199E+03</pdfrwt>
<pdfrwt beam="2">  1       21 0.11126841E-01 0.17875199E+03</pdfrwt>
<totfact> 0.13694187E+05</totfact>
</mgrwt>
</event>
<event>
12    1  0.1071811E-001  0.2194057E+03  0.7546771E-02  0.1134412E+00
         21   -1    0    0  501  502  0.00000000000E+00  0.00000000000E+00  0.12647037646E+03  0.12647037646E+03  0.00000000000E+00 0.  1.
         21   -1    0    0  502  503 -0.00000000000E+00 -0.00000000000E+00 -0.44232265103E+03  0.44232265103E+03  0.00000000000E+00 0. -1.
         -6    2    1    2    0  503  0.69431311048E+02 -0.11500531379E+03 -0.26467148198E+03  0.34349696647E+03  0.17289373456E+03 0.  0.
        -24    2    3    3    0    0  0.23560725923E+02 -0.14233994416E+03 -0.19130273018E+03  0.25263247210E+03  0.80066621478E+02 0.  0.
          6    2    1    2  501    0 -0.69431311048E+02  0.11500531379E+03 -0.51180792590E+02  0.22529606101E+03  0.17347020615E+03 0.  0.
         24    2    5    5    0    0 -0.98822007837E+02  0.11775607888E+03 -0.89604319670E+01  0.17356571578E+03  0.80077993279E+02 0.  0.
          5    1    5    5  501    0  0.29390696789E+02 -0.27507650873E+01 -0.42220360623E+02  0.51730345228E+02  0.47000000000E+01 0. -1.
        -13    1    6    6    0    0 -0.55114742245E+02  0.86856961512E+01 -0.11983581444E+01  0.55807814799E+02  0.00000000000E+00 0.  1.
         14    1    6    6    0    0 -0.43707265592E+02  0.10907038273E+03 -0.77620738226E+01  0.11775790098E+03  0.00000000000E+00 0. -1.
         -5    1    3    3    0  503  0.45870585125E+02  0.27334630373E+02 -0.73368751798E+02  0.90864494373E+02  0.47000000000E+01 0.  1.
         13    1    4    4    0    0 -0.96151984215E+01 -0.72836313579E+02 -0.41973983212E+02  0.84613213407E+02  0.00000000000E+00 0. -1.
        -14    1    4    4    0    0  0.33175924345E+02 -0.69503630583E+02 -0.14932874697E+03  0.16801925869E+03  0.00000000000E+00 0.  1.
<mgrwt>
<rscale>  2 0.21929169E+03</rscale>
<asrwt>0</asrwt>
<pdfrwt beam="1">  1       21 0.19456981E-01 0.21940566E+03</pdfrwt>
<pdfrwt beam="2">  1       21 0.68049639E-01 0.21940566E+03</pdfrwt>
<totfact> 0.47291619E+04</totfact>
</mgrwt>
</event>
<event>
12    1  0.1071811E-001  0.1897974E+03  0.7546771E-02  0.1158681E+00
         21   -1    0    0  503  502  0.00000000000E+00  0.00000000000E+00  0.24254491072E+03  0.24254491072E+03  0.00000000000E+00 0.  1.
         21   -1    0    0  501  503 -0.00000000000E+00 -0.00000000000E+00 -0.39360909356E+03  0.39360909356E+03  0.00000000000E+00 0.  1.
          6    2    1    2  501    0 -0.24177333944E+02 -0.74269470516E+02 -0.32657770795E+03  0.37764276803E+03  0.17280209256E+03 0.  0.
         24    2    3    3    0    0  0.47135650326E+02 -0.22585348595E+02 -0.12489093840E+03  0.15751454814E+03  0.80506017647E+02 0.  0.
         -6    2    1    2    0  502  0.24177333944E+02  0.74269470516E+02  0.17551352511E+03  0.25851123625E+03  0.17298139797E+03 0.  0.
        -24    2    5    5    0    0  0.44286116148E+02  0.50243104408E+01  0.16036458371E+03  0.18468146081E+03  0.80024611715E+02 0.  0.
          5    1    3    3  501    0 -0.71312984270E+02 -0.51684121920E+02 -0.20168676955E+03  0.22012821990E+03  0.47000000000E+01 0. -1.
        -13    1    4    4    0    0  0.63667114926E+02 -0.15868359989E+02 -0.12320908523E+03  0.13959149349E+03  0.00000000000E+00 0.  1.
         14    1    4    4    0    0 -0.16531464600E+02 -0.67169886061E+01 -0.16818531703E+01  0.17923054646E+02  0.00000000000E+00 0. -1.
         -5    1    5    5    0  502 -0.20108782204E+02  0.69245160075E+02  0.15148941402E+02  0.73829775437E+02  0.47000000000E+01 0.  1.
         13    1    6    6    0    0  0.52907339178E+02  0.26520474444E+02  0.14571968252E+03  0.15727920389E+03  0.00000000000E+00 0. -1.
        -14    1    6    6    0    0 -0.86212230304E+01 -0.21496164003E+02  0.14644901192E+02  0.27402256920E+02  0.00000000000E+00 0.  1.
<mgrwt>
<rscale>  2 0.18975656E+03</rscale>
<asrwt>0</asrwt>
<pdfrwt beam="1">  1       21 0.37314602E-01 0.18979742E+03</pdfrwt>
<pdfrwt beam="2">  1       21 0.60555245E-01 0.18979742E+03</pdfrwt>
<totfact> 0.17627457E+04</totfact>
</mgrwt>
</event>
<event>
12    1  0.1071811E-001  0.1926556E+03  0.7546771E-02  0.1156089E+00
         21   -1    0    0  501  502  0.00000000000E+00  0.00000000000E+00  0.83291024567E+03  0.83291024567E+03  0.00000000000E+00 0.  1.
         21   -1    0    0  502  503 -0.00000000000E+00 -0.00000000000E+00 -0.16459637444E+03  0.16459637444E+03  0.00000000000E+00 0.  1.
         -6    2    1    2    0  503  0.73525281414E+02  0.41657690267E+02 -0.91764367910E+02  0.21339370075E+03  0.17313244103E+03 0.  0.
        -24    2    3    3    0    0  0.64253152994E+02  0.62993571742E+02 -0.22539793963E+01  0.12079028906E+03  0.80551572041E+02 0.  0.
          6    2    1    2  501    0 -0.73525281414E+02 -0.41657690267E+02  0.76007823914E+03  0.78411291937E+03  0.17312657375E+03 0.  0.
         24    2    5    5    0    0 -0.30693066532E+02  0.41926967658E+02  0.38155696551E+03  0.39408543538E+03  0.83771579317E+02 0.  0.
          5    1    5    5  501    0 -0.42832214882E+02 -0.83584657925E+02  0.37852127363E+03  0.39002748399E+03  0.47000000000E+01 0. -1.
        -11    1    6    6    0    0 -0.54831453418E+02  0.17681659368E+02  0.30258983421E+03  0.30802554622E+03  0.00000000000E+00 0.  1.
         12    1    6    6    0    0  0.24138386886E+02  0.24245308290E+02  0.78967131302E+02  0.86059889156E+02  0.00000000000E+00 0. -1.
         -5    1    3    3    0  503  0.92721284197E+01 -0.21335881475E+02 -0.89510388514E+02  0.92603411684E+02  0.47000000000E+01 0.  1.
         13    1    4    4    0    0  0.59035969124E+02  0.24109534249E+02  0.29552762394E+02  0.70284287413E+02  0.00000000000E+00 0. -1.
        -14    1    4    4    0    0  0.52171838697E+01  0.38884037494E+02 -0.31806741790E+02  0.50506001649E+02  0.00000000000E+00 0.  1.
<mgrwt>
<rscale>  2 0.19265426E+03</rscale>
<asrwt>0</asrwt>
<pdfrwt beam="1">  1       21 0.12814003E+00 0.19265558E+03</pdfrwt>
<pdfrwt beam="2">  1       21 0.25322520E-01 0.19265558E+03</pdfrwt>
<totfact> 0.66254158E+03</totfact>
</mgrwt>
</event>
<event>
12    1  0.1071811E-001  0.2277013E+03  0.7546771E-02  0.1128421E+00
         21   -1    0    0  503  502  0.00000000000E+00  0.00000000000E+00  0.79360398102E+02  0.79360398102E+02  0.00000000000E+00 0.  1.
         21   -1    0    0  501  503 -0.00000000000E+00 -0.00000000000E+00 -0.96893344478E+03  0.96893344478E+03  0.00000000000E+00 0.  1.
          6    2    1    2  501    0 -0.92224518310E+02  0.11514030900E+03 -0.74565897985E+03  0.77965069311E+03  0.17345096281E+03 0.  0.
         24    2    3    3    0    0  0.17785689959E+02  0.69333395836E+02 -0.38444833329E+03  0.39926176004E+03  0.80535591583E+02 0.  0.
         -6    2    1    2    0  502  0.92224518310E+02 -0.11514030900E+03 -0.14391406683E+03  0.26864314977E+03  0.17232304186E+03 0.  0.
        -24    2    5    5    0    0  0.12826176868E+03 -0.86820279161E+02 -0.13755552730E+03  0.22213262915E+03  0.80203115035E+02 0.  0.
          5    1    3    3  501    0 -0.11001020827E+03  0.45806913162E+02 -0.36121064656E+03  0.38038893307E+03  0.47000000000E+01 0. -1.
        -13    1    4    4    0    0  0.44586286814E+01  0.70351894802E+02 -0.37782477525E+03  0.38434467508E+03  0.00000000000E+00 0.  1.
         14    1    4    4    0    0  0.13327061277E+02 -0.10184989657E+01 -0.66235580438E+01  0.14917084956E+02  0.00000000000E+00 0. -1.
         -5    1    5    5    0  502 -0.36037250369E+02 -0.28320029838E+02 -0.63585395256E+01  0.46510520628E+02  0.47000000000E+01 0.  1.
         13    1    6    6    0    0  0.44353311733E+02  0.60989265557E+01 -0.59987463505E+02  0.74852581416E+02  0.00000000000E+00 0. -1.
        -14    1    6    6    0    0  0.83908456946E+02 -0.92919205716E+02 -0.77568063799E+02  0.14728004773E+03  0.00000000000E+00 0.  1.
<mgrwt>
<rscale>  2 0.22748651E+03</rscale>
<asrwt>0</asrwt>
<pdfrwt beam="1">  1       21 0.12209293E-01 0.22770132E+03</pdfrwt>
<pdfrwt beam="2">  1       21 0.14906668E+00 0.22770132E+03</pdfrwt>
<totfact> 0.16891411E+04</totfact>
</mgrwt>
</event>
<event>
12    1  0.1071811E-001  0.2812596E+03  0.7546771E-02  0.1095144E+00
         21   -1    0    0  503  502  0.00000000000E+00  0.00000000000E+00  0.10242275758E+04  0.10242275758E+04  0.00000000000E+00 0. -1.
         21   -1    0    0  501  503 -0.00000000000E+00 -0.00000000000E+00 -0.77155291052E+02  0.77155291052E+02  0.00000000000E+00 0. -1.
          6    2    1    2  501    0  0.82517251251E+02 -0.20456893727E+03  0.44608339304E+03  0.52734938653E+03  0.17449766495E+03 0.  0.
         24    2    3    3    0    0  0.87020017719E+02 -0.20219145571E+03  0.45745332921E+03  0.51403425330E+03  0.80708096919E+02 0.  0.
         -6    2    1    2    0  502 -0.82517251251E+02  0.20456893727E+03  0.50098889172E+03  0.57403348034E+03  0.17282077443E+03 0.  0.
        -24    2    5    5    0    0 -0.39049604996E+02  0.43354704884E+02  0.11045115540E+03  0.14927322033E+03  0.81722301072E+02 0.  0.
          5    1    3    3  501    0 -0.45027664680E+01 -0.23774815593E+01 -0.11369936171E+02  0.13315133231E+02  0.47000000000E+01 0. -1.
        -11    1    4    4    0    0  0.41950285348E+02 -0.20292666417E+02  0.10438662055E+03  0.11431616378E+03  0.00000000000E+00 0.  1.
         12    1    4    4    0    0  0.45069732371E+02 -0.18189878929E+03  0.35306670866E+03  0.39971808952E+03  0.00000000000E+00 0. -1.
         -5    1    5    5    0  502 -0.43467646255E+02  0.16121423238E+03  0.39053773632E+03  0.42476026001E+03  0.47000000000E+01 0.  1.
         11    1    6    6    0    0 -0.58090495226E+02  0.32332026605E+02  0.45146775900E+02  0.80362285646E+02  0.00000000000E+00 0. -1.
        -12    1    6    6    0    0  0.19040890230E+02  0.11022678278E+02  0.65304379501E+02  0.68910934685E+02  0.00000000000E+00 0.  1.
<mgrwt>
<rscale>  2 0.28099995E+03</rscale>
<asrwt>0</asrwt>
<pdfrwt beam="1">  1       21 0.15757346E+00 0.28125963E+03</pdfrwt>
<pdfrwt beam="2">  1       21 0.11870045E-01 0.28125963E+03</pdfrwt>
<totfact> 0.14864549E+04</totfact>
</mgrwt>
</event>
<event>
12    1  0.1071811E-001  0.2369979E+03  0.7546771E-02  0.1121912E+00
         21   -1    0    0  503  502  0.00000000000E+00  0.00000000000E+00  0.64224206049E+03  0.64224206049E+03  0.00000000000E+00 0. -1.
         21   -1    0    0  501  503 -0.00000000000E+00 -0.00000000000E+00 -0.87331538485E+02  0.87331538485E+02  0.00000000000E+00 0. -1.
          6    2    1    2  501    0 -0.15002129386E+03 -0.59040767943E+02  0.26552156138E+03  0.35590688921E+03  0.17371186873E+03 0.  0.
         24    2    3    3    0    0 -0.32322143483E+02  0.20382410812E+02  0.65733079142E+02  0.11075661089E+03  0.80535864886E+02 0.  0.
         -6    2    1    2    0  502  0.15002129386E+03  0.59040767943E+02  0.28938896062E+03  0.37366670976E+03  0.17288330909E+03 0.  0.
        -24    2    5    5    0    0  0.75136792645E+02  0.10014268879E+03  0.15222140635E+03  0.21200631150E+03  0.78110331195E+02 0.  0.
          5    1    3    3  501    0 -0.11769915038E+03 -0.79423178755E+02  0.19978848223E+03  0.24515027831E+03  0.47000000000E+01 0. -1.
        -11    1    4    4    0    0 -0.42049714358E+02  0.25266887037E+02  0.52902498427E+01  0.49341471416E+02  0.00000000000E+00 0.  1.
         12    1    4    4    0    0  0.97275708756E+01 -0.48844762250E+01  0.60442829299E+02  0.61415139476E+02  0.00000000000E+00 0. -1.
         -5    1    5    5    0  502  0.74884501220E+02 -0.41101920844E+02  0.13716755428E+03  0.16166039826E+03  0.47000000000E+01 0.  1.
         11    1    6    6    0    0  0.56834374719E+02  0.41698489900E+02  0.12804164837E+03  0.14616283361E+03  0.00000000000E+00 0. -1.
        -12    1    6    6    0    0  0.18302417926E+02  0.58444198887E+02  0.24179757971E+02  0.65843477892E+02  0.00000000000E+00 0.  1.
<mgrwt>
<rscale>  2 0.23684612E+03</rscale>
<asrwt>0</asrwt>
<pdfrwt beam="1">  1       21 0.98806468E-01 0.23699792E+03</pdfrwt>
<pdfrwt beam="2">  1       21 0.13435622E-01 0.23699792E+03</pdfrwt>
<totfact> 0.39558713E+04</totfact>
</mgrwt>
</event>
<event>
12    1  0.1071811E-001  0.1811214E+03  0.7546771E-02  0.1167952E+00
         21   -1    0    0  501  502  0.00000000000E+00  0.00000000000E+00  0.40137782553E+03  0.40137782553E+03  0.00000000000E+00 0. -1.
         21   -1    0    0  502  503 -0.00000000000E+00 -0.00000000000E+00 -0.79936178499E+02  0.79936178499E+02  0.00000000000E+00 0. -1.
         -6    2    1    2    0  503 -0.33388040983E+02  0.15172789284E+02  0.18138757474E+03  0.25633259327E+03  0.17736958953E+03 0.  0.
        -24    2    3    3    0    0 -0.40713203006E+02  0.65021797307E+02  0.67288534229E+02  0.13151567677E+03  0.82965217858E+02 0.  0.
          6    2    1    2  501    0  0.33388040983E+02 -0.15172789284E+02  0.14005407229E+03  0.22498141076E+03  0.17221067680E+03 0.  0.
         24    2    5    5    0    0  0.64209392830E+02  0.40739499470E+02  0.95522228041E+02  0.14699862473E+03  0.81862975021E+02 0.  0.
          5    1    5    5  501    0 -0.30821351846E+02 -0.55912288753E+02  0.44531844253E+02  0.77982786023E+02  0.47000000000E+01 0. -1.
        -11    1    6    6    0    0  0.68544126100E+01 -0.11534751905E+02  0.60303202285E+02  0.61777906080E+02  0.00000000000E+00 0.  1.
         12    1    6    6    0    0  0.57354980220E+02  0.52274251375E+02  0.35219025756E+02  0.85220718655E+02  0.00000000000E+00 0. -1.
         -5    1    3    3    0  503  0.73251620224E+01 -0.49849008023E+02  0.11409904051E+03  0.12481691650E+03  0.47000000000E+01 0.  1.
         11    1    4    4    0    0  0.82772944358E+01  0.20845337697E+02  0.61303838503E+02  0.65277885398E+02  0.00000000000E+00 0. -1.
        -12    1    4    4    0    0 -0.48990497442E+02  0.44176459610E+02  0.59846957258E+01  0.66237791374E+02  0.00000000000E+00 0.  1.
<mgrwt>
<rscale>  2 0.17984571E+03</rscale>
<asrwt>0</asrwt>
<pdfrwt beam="1">  1       21 0.61750433E-01 0.18112136E+03</pdfrwt>
<pdfrwt beam="2">  1       21 0.12297874E-01 0.18112136E+03</pdfrwt>
<totfact> 0.13733121E+05</totfact>
</mgrwt>
</event>
<event>
12    1  0.1071811E-001  0.2043118E+03  0.7546771E-02  0.1146924E+00
         21   -1    0    0  503  502  0.00000000000E+00  0.00000000000E+00  0.13118802059E+04  0.13118802059E+04  0.00000000000E+00 0. -1.
         21   -1    0    0  501  503 -0.00000000000E+00 -0.00000000000E+00 -0.31241473771E+02  0.31241473771E+02  0.00000000000E+00 0. -1.
          6    2    1    2  501    0  0.10838763176E+03 -0.25491751232E+01  0.64355281394E+03  0.67520628815E+03  0.17317312209E+03 0.  0.
         24    2    3    3    0    0  0.72952263062E+02  0.26868889681E+02  0.20111276175E+03  0.23035083109E+03  0.81062892416E+02 0.  0.
         -6    2    1    2    0  502 -0.10838763176E+03  0.25491751232E+01  0.63708591820E+03  0.66791539154E+03  0.16875463273E+03 0.  0.
        -24    2    5    5    0    0 -0.43556166529E+02  0.51594471960E+02  0.20362524916E+03  0.22687253463E+03  0.73815822780E+02 0.  0.
          5    1    3    3  501    0  0.35435368697E+02 -0.29418064804E+02  0.44244005220E+03  0.44485545706E+03  0.47000000000E+01 0. -1.
        -13    1    4    4    0    0  0.50835423179E+02  0.54340620666E+02  0.15803386363E+03  0.17467640183E+03  0.00000000000E+00 0.  1.
         14    1    4    4    0    0  0.22116839883E+02 -0.27471730985E+02  0.43078898119E+02  0.55674429255E+02  0.00000000000E+00 0. -1.
         -5    1    5    5    0  502 -0.64831465230E+02 -0.49045296836E+02  0.43346066904E+03  0.44104285691E+03  0.47000000000E+01 0.  1.
         11    1    6    6    0    0 -0.50657067984E+02  0.16479920559E+02  0.66826612498E+02  0.85460648583E+02  0.00000000000E+00 0. -1.
        -12    1    6    6    0    0  0.71009014549E+01  0.35114551400E+02  0.13679863666E+03  0.14141188604E+03  0.00000000000E+00 0.  1.
<mgrwt>
<rscale>  2 0.20337249E+03</rscale>
<asrwt>0</asrwt>
<pdfrwt beam="1">  1       21 0.20182768E+00 0.20431179E+03</pdfrwt>
<pdfrwt beam="2">  1       21 0.48063816E-02 0.20431179E+03</pdfrwt>
<totfact> 0.37288215E+04</totfact>
</mgrwt>
</event>
<event>
12    1  0.1071811E-001  0.1838046E+03  0.7546771E-02  0.1164277E+00
         21   -1    0    0  503  502  0.00000000000E+00  0.00000000000E+00  0.31645105671E+03  0.31645105671E+03  0.00000000000E+00 0.  1.
         21   -1    0    0  501  503 -0.00000000000E+00 -0.00000000000E+00 -0.52179995495E+03  0.52179995495E+03  0.00000000000E+00 0. -1.
          6    2    1    2  501    0 -0.57524079970E+02 -0.19291439784E+02 -0.47661584089E+03  0.51082952656E+03  0.17350206335E+03 0.  0.
         24    2    3    3    0    0  0.14770164360E+02  0.41232092352E+02 -0.22942133554E+03  0.24622270658E+03  0.77930923494E+02 0.  0.
         -6    2    1    2    0  502  0.57524079970E+02  0.19291439784E+02  0.27126694265E+03  0.32742148510E+03  0.17302570707E+03 0.  0.
        -24    2    5    5    0    0  0.79037288194E+02  0.66524226702E+02  0.20509154365E+03  0.24318949759E+03  0.80038895522E+02 0.  0.
          5    1    3    3  501    0 -0.72294244330E+02 -0.60523532135E+02 -0.24719450535E+03  0.26460681998E+03  0.47000000000E+01 0. -1.
        -13    1    4    4    0    0 -0.12967876820E+02  0.11106104092E+02 -0.45727818924E+01  0.17675455059E+02  0.00000000000E+00 0.  1.
         14    1    4    4    0    0  0.27738041181E+02  0.30125988260E+02 -0.22484855365E+03  0.22854725152E+03  0.00000000000E+00 0. -1.
         -5    1    5    5    0  502 -0.21513208225E+02 -0.47232786919E+02  0.66175398998E+02  0.84231987515E+02  0.47000000000E+01 0.  1.
         11    1    6    6    0    0  0.33873576004E+02  0.84988287110E+01  0.12591524320E+02  0.37124058580E+02  0.00000000000E+00 0. -1.
        -12    1    6    6    0    0  0.45163712190E+02  0.58025397991E+02  0.19250001933E+03  0.20606543901E+03  0.00000000000E+00 0.  1.
<mgrwt>
<rscale>  2 0.18369214E+03</rscale>
<asrwt>0</asrwt>
<pdfrwt beam="1">  1       21 0.48684778E-01 0.18380464E+03</pdfrwt>
<pdfrwt beam="2">  1       21 0.80276916E-01 0.18380464E+03</pdfrwt>
<totfact> 0.55343602E+03</totfact>
</mgrwt>
</event>
<event>
12    1  0.1071811E-001  0.3657250E+03  0.7546771E-02  0.1056374E+00
         21   -1    0    0  503  502  0.00000000000E+00  0.00000000000E+00  0.97805407507E+03  0.97805407507E+03  0.00000000000E+00 0. -1.
         21   -1    0    0  501  503 -0.00000000000E+00 -0.00000000000E+00 -0.24843566696E+03  0.24843566696E+03  0.00000000000E+00 0.  1.
          6    2    1    2  501    0 -0.32112376920E+03  0.17214639502E+02 -0.46498246121E+02  0.36866901664E+03  0.17417789177E+03 0.  0.
         24    2    3    3    0    0 -0.24360368465E+03  0.75413076748E+02 -0.21108593562E+02  0.26835378319E+03  0.80859711275E+02 0.  0.
         -6    2    1    2    0  502  0.32112376920E+03 -0.17214639502E+02  0.77611665423E+03  0.85782072539E+03  0.17344312318E+03 0.  0.
        -24    2    5    5    0    0  0.53549153625E+02 -0.10049686580E+02  0.17356265366E+03  0.19847186094E+03  0.79363573414E+02 0.  0.
          5    1    3    3  501    0 -0.77520084548E+02 -0.58198437246E+02 -0.25389652560E+02  0.10031523346E+03  0.47000000000E+01 0. -1.
        -11    1    4    4    0    0 -0.21260995808E+03  0.33540079401E+02 -0.13006705393E+02  0.21563187517E+03  0.00000000000E+00 0.  1.
         12    1    4    4    0    0 -0.30993726570E+02  0.41872997346E+02 -0.81018881683E+01  0.52721908021E+02  0.00000000000E+00 0. -1.
         -5    1    5    5    0  502  0.26757461558E+03 -0.71649529218E+01  0.60255400057E+03  0.65934886445E+03  0.47000000000E+01 0.  1.
         11    1    6    6    0    0 -0.62933157731E+01  0.23245495796E+02  0.72479344623E+02  0.76375482292E+02  0.00000000000E+00 0. -1.
        -12    1    6    6    0    0  0.59842469398E+02 -0.33295182377E+02  0.10108330904E+03  0.12209637865E+03  0.00000000000E+00 0.  1.
<mgrwt>
<rscale>  2 0.36563760E+03</rscale>
<asrwt>0</asrwt>
<pdfrwt beam="1">  1       21 0.15046986E+00 0.36572497E+03</pdfrwt>
<pdfrwt beam="2">  1       21 0.38220872E-01 0.36572497E+03</pdfrwt>
<totfact> 0.17343090E+03</totfact>
</mgrwt>
</event>
<event>
12    1  0.1071811E-001  0.2016040E+03  0.7546771E-02  0.1148557E+00
         21   -1    0    0  503  502  0.00000000000E+00  0.00000000000E+00  0.11740223730E+03  0.11740223730E+03  0.00000000000E+00 0. -1.
         21   -1    0    0  501  503 -0.00000000000E+00 -0.00000000000E+00 -0.44415174569E+03  0.44415174569E+03  0.00000000000E+00 0. -1.
          6    2    1    2  501    0 -0.24050342541E+02 -0.99788124408E+02 -0.29588828479E+03  0.35760156150E+03  0.17260623094E+03 0.  0.
         24    2    3    3    0    0  0.38520716317E+02 -0.64018022962E+02 -0.10055808338E+03  0.14934543279E+03  0.81301766958E+02 0.  0.
         -6    2    1    2    0  502  0.24050342541E+02  0.99788124408E+02 -0.30861223595E+02  0.20395242150E+03  0.17351681867E+03 0.  0.
        -24    2    5    5    0    0  0.20383587302E+02 -0.12609027461E+02  0.37223590565E+01  0.86204049823E+02  0.82721243004E+02 0.  0.
          5    1    3    3  501    0 -0.62571058859E+02 -0.35770101446E+02 -0.19533020141E+03  0.20825612871E+03  0.47000000000E+01 0. -1.
        -11    1    4    4    0    0  0.34612660483E+02  0.68622364451E+01 -0.15456206878E+02  0.38522991652E+02  0.00000000000E+00 0.  1.
         12    1    4    4    0    0  0.39080558345E+01 -0.70880259407E+02 -0.85101876506E+02  0.11082244113E+03  0.00000000000E+00 0. -1.
         -5    1    5    5    0  502  0.36667552395E+01  0.11239715187E+03 -0.34583582651E+02  0.11774837167E+03  0.47000000000E+01 0.  1.
         11    1    6    6    0    0  0.41824795403E+02  0.16076272154E+02 -0.13033453456E+02  0.46665093441E+02  0.00000000000E+00 0. -1.
        -12    1    6    6    0    0 -0.21441208101E+02 -0.28685299615E+02  0.16755812513E+02  0.39538956382E+02  0.00000000000E+00 0.  1.
<mgrwt>
<rscale>  2 0.20140792E+03</rscale>
<asrwt>0</asrwt>
<pdfrwt beam="1">  1       21 0.18061883E-01 0.20160401E+03</pdfrwt>
<pdfrwt beam="2">  1       21 0.68331037E-01 0.20160401E+03</pdfrwt>
<totfact> 0.54275131E+04</totfact>
</mgrwt>
</event>
<event>
12    1  0.1071811E-001  0.1888543E+03  0.7546771E-02  0.1159936E+00
         21   -1    0    0  503  502  0.00000000000E+00  0.00000000000E+00  0.11516574824E+03  0.11516574824E+03  0.00000000000E+00 0. -1.
         21   -1    0    0  501  503 -0.00000000000E+00 -0.00000000000E+00 -0.40937192539E+03  0.40937192539E+03  0.00000000000E+00 0. -1.
          6    2    1    2  501    0  0.51708940941E+02  0.49528090012E+02 -0.27909809554E+03  0.33698917379E+03  0.17475442783E+03 0.  0.
         24    2    3    3    0    0 -0.31111525710E+02  0.36067803821E+02 -0.15862703955E+03  0.19010222974E+03  0.93314021304E+02 0.  0.
         -6    2    1    2    0  502 -0.51708940941E+02 -0.49528090012E+02 -0.15108081615E+02  0.18754849985E+03  0.17268277097E+03 0.  0.
        -24    2    5    5    0    0 -0.11175494967E+02 -0.30769176970E+02  0.58398432410E+02  0.10140818022E+03  0.76168288469E+02 0.  0.
          5    1    3    3  501    0  0.82820466651E+02  0.13460286192E+02 -0.12047105599E+03  0.14688694405E+03  0.47000000000E+01 0. -1.
        -13    1    4    4    0    0 -0.13993076889E+02 -0.13870232738E+02 -0.12709149703E+03  0.12860963484E+03  0.00000000000E+00 0.  1.
         14    1    4    4    0    0 -0.17118448821E+02  0.49938036559E+02 -0.31535542520E+02  0.61492594899E+02  0.00000000000E+00 0. -1.
         -5    1    5    5    0  502 -0.40533445974E+02 -0.18758913043E+02 -0.73506514025E+02  0.86140319626E+02  0.47000000000E+01 0.  1.
         13    1    6    6    0    0 -0.36375712643E+02 -0.33719688513E+02  0.16217728023E+02  0.52184524200E+02  0.00000000000E+00 0. -1.
        -14    1    6    6    0    0  0.25200217676E+02  0.29505115439E+01  0.42180704387E+02  0.49223656020E+02  0.00000000000E+00 0.  1.
<mgrwt>
<rscale>  2 0.18837366E+03</rscale>
<asrwt>0</asrwt>
<pdfrwt beam="1">  1       21 0.17717807E-01 0.18885433E+03</pdfrwt>
<pdfrwt beam="2">  1       21 0.62980297E-01 0.18885433E+03</pdfrwt>
<totfact> 0.67583691E+04</totfact>
</mgrwt>
</event>
<event>
12    1  0.1071811E-001  0.1894898E+03  0.7546771E-02  0.1159050E+00
         21   -1    0    0  503  502  0.00000000000E+00  0.00000000000E+00  0.15059470327E+04  0.15059470327E+04  0.00000000000E+00 0. -1.
         21   -1    0    0  501  503 -0.00000000000E+00 -0.00000000000E+00 -0.26139150065E+02  0.26139150065E+02  0.00000000000E+00 0. -1.
          6    2    1    2  501    0 -0.61767221910E+02  0.45552499263E+02  0.50837680358E+03  0.54234644939E+03  0.17263393890E+03 0.  0.
         24    2    3    3    0    0  0.24233517217E+02  0.92040079188E+01  0.14810065174E+03  0.17013906696E+03  0.79633673417E+02 0.  0.
         -6    2    1    2    0  502  0.61767221910E+02 -0.45552499263E+02  0.97143107901E+03  0.98973973333E+03  0.17325177796E+03 0.  0.
        -24    2    5    5    0    0 -0.28814852067E+02 -0.48405706827E+02  0.51620574312E+03  0.52555717295E+03  0.81046681968E+02 0.  0.
          5    1    3    3  501    0 -0.86000739127E+02  0.36348491344E+02  0.36027615184E+03  0.37220738243E+03  0.47000000000E+01 0. -1.
        -13    1    4    4    0    0  0.18753043314E+01  0.37775086130E+02  0.11488625294E+03  0.12095174663E+03  0.00000000000E+00 0.  1.
         14    1    4    4    0    0  0.22358212886E+02 -0.28571078211E+02  0.33214398800E+02  0.49187320330E+02  0.00000000000E+00 0. -1.
         -5    1    5    5    0  502  0.90582073978E+02  0.28532075638E+01  0.45522533589E+03  0.46418256038E+03  0.47000000000E+01 0.  1.
         11    1    6    6    0    0 -0.19233299478E+01  0.19915420609E+02  0.19712447977E+03  0.19813728498E+03  0.00000000000E+00 0. -1.
        -12    1    6    6    0    0 -0.26891522120E+02 -0.68321127436E+02  0.31908126335E+03  0.32741988797E+03  0.00000000000E+00 0.  1.
<mgrwt>
<rscale>  2 0.18934850E+03</rscale>
<asrwt>0</asrwt>
<pdfrwt beam="1">  1       21 0.23168409E+00 0.18948984E+03</pdfrwt>
<pdfrwt beam="2">  1       21 0.40214089E-02 0.18948984E+03</pdfrwt>
<totfact> 0.33260448E+04</totfact>
</mgrwt>
</event>
<event>
12    1  0.1071811E-001  0.1838139E+03  0.7546771E-02  0.1165878E+00
         21   -1    0    0  503  502  0.00000000000E+00  0.00000000000E+00  0.65064424221E+03  0.65064424221E+03  0.00000000000E+00 0. -1.
         21   -1    0    0  501  503 -0.00000000000E+00 -0.00000000000E+00 -0.90058510561E+02  0.90058510561E+02  0.00000000000E+00 0. -1.
          6    2    1    2  501    0 -0.29003334296E+02  0.20539356600E+02  0.30036418512E+02  0.17921354279E+03  0.17306718034E+03 0.  0.
         24    2    3    3    0    0 -0.80795815188E+02 -0.10899648586E+02  0.27163396527E+02  0.11837591973E+03  0.81414017036E+02 0.  0.
         -6    2    1    2    0  502  0.29003334296E+02 -0.20539356600E+02  0.53054931313E+03  0.56148920998E+03  0.18034550365E+03 0.  0.
        -24    2    5    5    0    0 -0.16819364439E+02 -0.46213318123E+02  0.47719461626E+03  0.48647130746E+03  0.80753138668E+02 0.  0.
          5    1    3    3  501    0  0.51792480892E+02  0.31439005186E+02  0.28730219857E+01  0.60837623058E+02  0.47000000000E+01 0. -1.
        -11    1    4    4    0    0 -0.41280174703E+01 -0.34678052811E+02  0.93424802887E+01  0.36150931011E+02  0.00000000000E+00 0.  1.
         12    1    4    4    0    0 -0.76667797717E+02  0.23778404225E+02  0.17820916238E+02  0.82224988719E+02  0.00000000000E+00 0. -1.
         -5    1    5    5    0  502  0.45822698735E+02  0.25673961523E+02  0.53354696873E+02  0.75017902517E+02  0.47000000000E+01 0.  1.
         11    1    6    6    0    0  0.31592586929E+02 -0.76948711939E+01  0.17842319840E+03  0.18136190427E+03  0.00000000000E+00 0. -1.
        -12    1    6    6    0    0 -0.48411951369E+02 -0.38518446929E+02  0.29877141786E+03  0.30510940319E+03  0.00000000000E+00 0.  1.
<mgrwt>
<rscale>  2 0.18200351E+03</rscale>
<asrwt>0</asrwt>
<pdfrwt beam="1">  1       21 0.10009911E+00 0.18381393E+03</pdfrwt>
<pdfrwt beam="2">  1       21 0.13855156E-01 0.18381393E+03</pdfrwt>
<totfact> 0.37285707E+04</totfact>
</mgrwt>
</event>
<event>
12    1  0.1071811E-001  0.1805611E+03  0.7546771E-02  0.1167750E+00
         21   -1    0    0  501  502  0.00000000000E+00  0.00000000000E+00  0.17738826036E+03  0.17738826036E+03  0.00000000000E+00 0.  1.
         21   -1    0    0  502  503 -0.00000000000E+00 -0.00000000000E+00 -0.42768983656E+03  0.42768983656E+03  0.00000000000E+00 0. -1.
         -6    2    1    2    0  503  0.31144645575E+02  0.32974738398E+02 -0.35427349544E+03  0.39672149501E+03  0.17268732643E+03 0.  0.
        -24    2    3    3    0    0  0.56496081332E+02  0.77816035253E+02 -0.22775455271E+03  0.26003729670E+03  0.80623302115E+02 0.  0.
          6    2    1    2  501    0 -0.31144645575E+02 -0.32974738398E+02  0.10397191924E+03  0.20835660191E+03  0.17477125407E+03 0.  0.
         24    2    5    5    0    0  0.45522011954E+02 -0.12353800116E+02  0.86450299562E+02  0.12691891635E+03  0.80061770429E+02 0.  0.
          5    1    5    5  501    0 -0.76666657529E+02 -0.20620938283E+02  0.17521619675E+02  0.81437685554E+02  0.47000000000E+01 0. -1.
        -13    1    6    6    0    0  0.22648039597E+02 -0.14188215742E+02 -0.94228411340E+01  0.28337768059E+02  0.00000000000E+00 0.  1.
         14    1    6    6    0    0  0.22873972357E+02  0.18344156261E+01  0.95873140696E+02  0.98581148294E+02  0.00000000000E+00 0. -1.
         -5    1    3    3    0  503 -0.25351435757E+02 -0.44841296854E+02 -0.12651894273E+03  0.13668419831E+03  0.47000000000E+01 0.  1.
         13    1    4    4    0    0 -0.15628197944E+01  0.36925328858E+01 -0.10623115735E+03  0.10630680127E+03  0.00000000000E+00 0. -1.
        -14    1    4    4    0    0  0.58058901127E+02  0.74123502367E+02 -0.12152339536E+03  0.15373049543E+03  0.00000000000E+00 0.  1.
<mgrwt>
<rscale>  2 0.18005490E+03</rscale>
<asrwt>0</asrwt>
<pdfrwt beam="1">  1       21 0.27290502E-01 0.18056111E+03</pdfrwt>
<pdfrwt beam="2">  1       21 0.65798436E-01 0.18056111E+03</pdfrwt>
<totfact> 0.27354219E+04</totfact>
</mgrwt>
</event>
<event>
12    1  0.1071811E-001  0.1958043E+03  0.7546771E-02  0.1153534E+00
         21   -1    0    0  503  502  0.00000000000E+00  0.00000000000E+00  0.27474910726E+03  0.27474910726E+03  0.00000000000E+00 0. -1.
         21   -1    0    0  501  503 -0.00000000000E+00 -0.00000000000E+00 -0.16305010878E+03  0.16305010878E+03  0.00000000000E+00 0.  1.
          6    2    1    2  501    0 -0.46301465086E+02  0.78364723052E+02 -0.28563104213E+02  0.19694075882E+03  0.17229322701E+03 0.  0.
         24    2    3    3    0    0 -0.62193702112E+02  0.63212892323E+02  0.37543307246E+02  0.12712465174E+03  0.82989462120E+02 0.  0.
         -6    2    1    2    0  502  0.46301465086E+02 -0.78364723052E+02  0.14026210270E+03  0.24085845722E+03  0.17336228965E+03 0.  0.
        -24    2    5    5    0    0 -0.29628432795E+02 -0.76726895772E+02  0.10831289561E+03  0.15833043953E+03  0.81067775104E+02 0.  0.
          5    1    3    3  501    0  0.15892237026E+02  0.15151830729E+02 -0.66106411459E+02  0.69816107082E+02  0.47000000000E+01 0. -1.
        -13    1    4    4    0    0 -0.14698386688E+02  0.71579290135E+02  0.25749623197E+02  0.77476967173E+02  0.00000000000E+00 0.  1.
         14    1    4    4    0    0 -0.47495315423E+02 -0.83663978123E+01  0.11793684049E+02  0.49647684568E+02  0.00000000000E+00 0. -1.
         -5    1    5    5    0  502  0.75929897881E+02 -0.16378272797E+01  0.31949207088E+02  0.82528017690E+02  0.47000000000E+01 0.  1.
         13    1    6    6    0    0 -0.88578709792E+00 -0.82413333509E+02  0.60445282569E+02  0.10220750630E+03  0.00000000000E+00 0. -1.
        -14    1    6    6    0    0 -0.28742645697E+02  0.56864377366E+01  0.47867613044E+02  0.56122933230E+02  0.00000000000E+00 0.  1.
<mgrwt>
<rscale>  2 0.19556743E+03</rscale>
<asrwt>0</asrwt>
<pdfrwt beam="1">  1       21 0.42269093E-01 0.19580434E+03</pdfrwt>
<pdfrwt beam="2">  1       21 0.25084632E-01 0.19580434E+03</pdfrwt>
<totfact> 0.80945914E+04</totfact>
</mgrwt>
</event>
<event>
12    1  0.1071811E-001  0.2254742E+03  0.7546771E-02  0.1130408E+00
         21   -1    0    0  501  502  0.00000000000E+00  0.00000000000E+00  0.44420692807E+03  0.44420692807E+03  0.00000000000E+00 0. -1.
         21   -1    0    0  502  503 -0.00000000000E+00 -0.00000000000E+00 -0.12233641782E+03  0.12233641782E+03  0.00000000000E+00 0. -1.
         -6    2    1    2    0  503 -0.11855668630E+03  0.80072221024E+02  0.81446499582E+02  0.23693400238E+03  0.17040229089E+03 0.  0.
        -24    2    3    3    0    0 -0.69703234525E+02  0.10818627650E+03  0.19528282208E+02  0.15307092642E+03  0.80539079854E+02 0.  0.
          6    2    1    2  501    0  0.11855668630E+03 -0.80072221024E+02  0.24042401067E+03  0.32960934352E+03  0.17427382473E+03 0.  0.
         24    2    5    5    0    0  0.13948780505E+03 -0.20366005531E+02  0.17367512301E+03  0.23751999612E+03  0.79881651632E+02 0.  0.
          5    1    5    5  501    0 -0.20931118753E+02 -0.59706215493E+02  0.66748887662E+02  0.92089347402E+02  0.47000000000E+01 0. -1.
        -11    1    6    6    0    0  0.69388903446E+02  0.25424377150E+02  0.54282843638E+02  0.91694307285E+02  0.00000000000E+00 0.  1.
         12    1    6    6    0    0  0.70098901604E+02 -0.45790382681E+02  0.11939227937E+03  0.14582568884E+03  0.00000000000E+00 0. -1.
         -5    1    3    3    0  503 -0.48853451772E+02 -0.28114055476E+02  0.61918217374E+02  0.83863075952E+02  0.47000000000E+01 0.  1.
         13    1    4    4    0    0 -0.11149975724E+02  0.55219742709E+02  0.42809813569E+02  0.70754661199E+02  0.00000000000E+00 0. -1.
        -14    1    4    4    0    0 -0.58553258801E+02  0.52966533791E+02 -0.23281531360E+02  0.82316265225E+02  0.00000000000E+00 0.  1.
<mgrwt>
<rscale>  2 0.22472577E+03</rscale>
<asrwt>0</asrwt>
<pdfrwt beam="1">  1       21 0.68339527E-01 0.22547420E+03</pdfrwt>
<pdfrwt beam="2">  1       21 0.18820988E-01 0.22547420E+03</pdfrwt>
<totfact> 0.49712387E+04</totfact>
</mgrwt>
</event>
<event>
12    1  0.1071811E-001  0.1917500E+03  0.7546771E-02  0.1157264E+00
         21   -1    0    0  503  502  0.00000000000E+00  0.00000000000E+00  0.28890042528E+03  0.28890042528E+03  0.00000000000E+00 0. -1.
         21   -1    0    0  501  503 -0.00000000000E+00 -0.00000000000E+00 -0.44641404456E+03  0.44641404456E+03  0.00000000000E+00 0. -1.
          6    2    1    2  501    0 -0.40233827119E+02 -0.59254631127E+02 -0.39025014624E+03  0.43481401077E+03  0.17787123197E+03 0.  0.
         24    2    3    3    0    0 -0.70124909022E+02 -0.90344995157E+02 -0.22328938359E+03  0.26230872454E+03  0.76602853263E+02 0.  0.
         -6    2    1    2    0  502  0.40233827119E+02  0.59254631127E+02  0.23273652696E+03  0.30050045908E+03  0.17608055761E+03 0.  0.
        -24    2    5    5    0    0 -0.19433058005E+02 -0.21054189722E+02  0.13701675296E+03  0.16195801424E+03  0.81460942392E+02 0.  0.
          5    1    3    3  501    0  0.29891081904E+02  0.31090364031E+02 -0.16696076265E+03  0.17250528623E+03  0.47000000000E+01 0. -1.
        -11    1    4    4    0    0 -0.42106545875E+02 -0.44939135354E+02 -0.45178037364E+02  0.76377628609E+02  0.00000000000E+00 0.  1.
         12    1    4    4    0    0 -0.28018363147E+02 -0.45405859804E+02 -0.17811134623E+03  0.18593109593E+03  0.00000000000E+00 0. -1.
         -5    1    5    5    0  502  0.59666885124E+02  0.80308820849E+02  0.95719774000E+02  0.13854244484E+03  0.47000000000E+01 0.  1.
         11    1    6    6    0    0 -0.39483883380E+02 -0.14142717583E+01  0.25641259937E+02  0.47100439727E+02  0.00000000000E+00 0. -1.
        -12    1    6    6    0    0  0.20050825375E+02 -0.19639917964E+02  0.11137549303E+03  0.11485757451E+03  0.00000000000E+00 0.  1.
<mgrwt>
<rscale>  2 0.19133363E+03</rscale>
<asrwt>0</asrwt>
<pdfrwt beam="1">  1       21 0.44446219E-01 0.19174996E+03</pdfrwt>
<pdfrwt beam="2">  1       21 0.68679084E-01 0.19174996E+03</pdfrwt>
<totfact> 0.93982746E+03</totfact>
</mgrwt>
</event>
<event>
12    1  0.1071811E-001  0.2642253E+03  0.7546771E-02  0.1104804E+00
         21   -1    0    0  501  502  0.00000000000E+00  0.00000000000E+00  0.10595878799E+04  0.10595878799E+04  0.00000000000E+00 0. -1.
         21   -1    0    0  502  503 -0.00000000000E+00 -0.00000000000E+00 -0.11676660618E+03  0.11676660618E+03  0.00000000000E+00 0.  1.
         -6    2    1    2    0  503  0.14204523298E+03  0.13845792915E+03  0.81451631908E+02  0.27537019909E+03  0.17276264599E+03 0.  0.
        -24    2    3    3    0    0  0.10807769682E+02  0.91266902600E+02  0.54821626533E+02  0.13330855069E+03  0.79494047300E+02 0.  0.
          6    2    1    2  501    0 -0.14204523298E+03 -0.13845792915E+03  0.86136964185E+03  0.90098428702E+03  0.17454964684E+03 0.  0.
         24    2    5    5    0    0 -0.99682090000E+02 -0.29103657641E+02  0.29617887901E+03  0.32373591676E+03  0.79369222442E+02 0.  0.
          5    1    5    5  501    0 -0.42363142977E+02 -0.10935427151E+03  0.56519076284E+03  0.57724837027E+03  0.47000000000E+01 0. -1.
        -13    1    6    6    0    0 -0.29511094837E+02  0.73705089422E+01  0.18391416470E+03  0.18641257763E+03  0.00000000000E+00 0.  1.
         14    1    6    6    0    0 -0.70170995163E+02 -0.36474166583E+02  0.11226471431E+03  0.13732333913E+03  0.00000000000E+00 0. -1.
         -5    1    3    3    0  503  0.13123746329E+03  0.47191026554E+02  0.26630005375E+02  0.14206164840E+03  0.47000000000E+01 0.  1.
         11    1    4    4    0    0 -0.33303255060E+02  0.53076550113E+02  0.22291706416E+02  0.66506745105E+02  0.00000000000E+00 0. -1.
        -12    1    4    4    0    0  0.44111024742E+02  0.38190352486E+02  0.32529920118E+02  0.66801805587E+02  0.00000000000E+00 0.  1.
<mgrwt>
<rscale>  2 0.26393057E+03</rscale>
<asrwt>0</asrwt>
<pdfrwt beam="1">  1       21 0.16301351E+00 0.26422533E+03</pdfrwt>
<pdfrwt beam="2">  1       21 0.17964094E-01 0.26422533E+03</pdfrwt>
<totfact> 0.64027379E+03</totfact>
</mgrwt>
</event>
<event>
12    1  0.1071811E-001  0.1940042E+03  0.7546771E-02  0.1157665E+00
         21   -1    0    0  501  502  0.00000000000E+00  0.00000000000E+00  0.18192669838E+03  0.18192669838E+03  0.00000000000E+00 0.  1.
         21   -1    0    0  502  503 -0.00000000000E+00 -0.00000000000E+00 -0.74780270704E+03  0.74780270704E+03  0.00000000000E+00 0.  1.
         -6    2    1    2    0  503 -0.65211496531E+02  0.22794148932E+02 -0.68527232214E+03  0.71220487273E+03  0.18128847933E+03 0.  0.
        -24    2    3    3    0    0  0.10854371283E+02  0.21554821177E+02 -0.15549601168E+03  0.17697353834E+03  0.80982689096E+02 0.  0.
          6    2    1    2  501    0  0.65211496531E+02 -0.22794148932E+02  0.11939631348E+03  0.21752453269E+03  0.16819432256E+03 0.  0.
         24    2    5    5    0    0  0.31133676013E+02 -0.75401073919E+02  0.50205768743E+02  0.12404615075E+03  0.78817514368E+02 0.  0.
          5    1    5    5  501    0  0.34077820518E+02  0.52606924987E+02  0.69190544742E+02  0.93478381936E+02  0.47000000000E+01 0. -1.
        -13    1    6    6    0    0 -0.23455560054E+02 -0.27939847302E+02  0.87609303336E+00  0.36490627615E+02  0.00000000000E+00 0.  1.
         14    1    6    6    0    0  0.54589236067E+02 -0.47461226617E+02  0.49329675709E+02  0.87555523138E+02  0.00000000000E+00 0. -1.
         -5    1    3    3    0  503 -0.76065867814E+02  0.12393277558E+01 -0.52977631047E+03  0.53523133439E+03  0.47000000000E+01 0.  1.
         11    1    4    4    0    0 -0.34300404128E+02  0.78536098804E+01 -0.47459012832E+02  0.59080917482E+02  0.00000000000E+00 0. -1.
        -12    1    4    4    0    0  0.45154775411E+02  0.13701211296E+02 -0.10803699885E+03  0.11789262086E+03  0.00000000000E+00 0.  1.
<mgrwt>
<rscale>  2 0.19088577E+03</rscale>
<asrwt>0</asrwt>
<pdfrwt beam="1">  1       21 0.27988722E-01 0.19400419E+03</pdfrwt>
<pdfrwt beam="2">  1       21 0.11504657E+00 0.19400419E+03</pdfrwt>
<totfact> 0.71342324E+03</totfact>
</mgrwt>
</event>
<event>
12    1  0.1071811E-001  0.1934881E+03  0.7546771E-02  0.1155757E+00
         21   -1    0    0  501  502  0.00000000000E+00  0.00000000000E+00  0.12500660947E+03  0.12500660947E+03  0.00000000000E+00 0.  1.
         21   -1    0    0  502  503 -0.00000000000E+00 -0.00000000000E+00 -0.83691267378E+03  0.83691267378E+03  0.00000000000E+00 0.  1.
         -6    2    1    2    0  503 -0.64085214268E+02 -0.57843904963E+02 -0.74297541742E+03  0.76775655282E+03  0.17316125858E+03 0.  0.
        -24    2    3    3    0    0 -0.96274425424E+02 -0.69704717628E+02 -0.68665503247E+03  0.70164377075E+03  0.81739432123E+02 0.  0.
          6    2    1    2  501    0  0.64085214268E+02  0.57843904963E+02  0.31069353114E+02  0.19416273044E+03  0.17111700430E+03 0.  0.
         24    2    5    5    0    0  0.12254863261E+02  0.67107069210E+01  0.76755253708E+02  0.10807974292E+03  0.74797370251E+02 0.  0.
          5    1    5    5  501    0  0.51830351007E+02  0.51133198042E+02 -0.45685900594E+02  0.86082987521E+02  0.47000000000E+01 0. -1.
        -11    1    6    6    0    0  0.32936078187E+02  0.25206921801E+02  0.66748726909E+02  0.78584773952E+02  0.00000000000E+00 0.  1.
         12    1    6    6    0    0 -0.20681214926E+02 -0.18496214880E+02  0.10006526798E+02  0.29494968965E+02  0.00000000000E+00 0. -1.
         -5    1    3    3    0  503  0.32189211156E+02  0.11860812665E+02 -0.56320384950E+02  0.66112782068E+02  0.47000000000E+01 0.  1.
         11    1    4    4    0    0  0.85092367965E+01  0.95807190715E+01 -0.65834379797E+02  0.67069835635E+02  0.00000000000E+00 0. -1.
        -12    1    4    4    0    0 -0.10478366222E+03 -0.79285436700E+02 -0.62082065267E+03  0.63457393511E+03  0.00000000000E+00 0.  1.
<mgrwt>
<rscale>  2 0.19302966E+03</rscale>
<asrwt>0</asrwt>
<pdfrwt beam="1">  1       21 0.19231786E-01 0.19348812E+03</pdfrwt>
<pdfrwt beam="2">  1       21 0.12875580E+00 0.19348812E+03</pdfrwt>
<totfact> 0.10990998E+04</totfact>
</mgrwt>
</event>
<event>
12    1  0.1071811E-001  0.1825376E+03  0.7546771E-02  0.1166829E+00
         21   -1    0    0  501  502  0.00000000000E+00  0.00000000000E+00  0.33269615147E+03  0.33269615147E+03  0.00000000000E+00 0. -1.
         21   -1    0    0  502  503 -0.00000000000E+00 -0.00000000000E+00 -0.13405670718E+03  0.13405670718E+03  0.00000000000E+00 0. -1.
         -6    2    1    2    0  503  0.90997672771E+01 -0.47901803650E+02 -0.24790501716E+02  0.17823783971E+03  0.16963717155E+03 0.  0.
        -24    2    3    3    0    0  0.56913051879E+02 -0.39265395973E+02  0.34102924204E+02  0.10174455021E+03  0.66393352556E+02 0.  0.
          6    2    1    2  501    0 -0.90997672771E+01  0.47901803650E+02  0.22342994600E+03  0.28851501894E+03  0.17590505059E+03 0.  0.
         24    2    5    5    0    0  0.58615828917E+02  0.24226653607E+01  0.13866749068E+03  0.17078431852E+03  0.80603509693E+02 0.  0.
          5    1    5    5  501    0 -0.67715596194E+02  0.45479138289E+02  0.84762455321E+02  0.11773070041E+03  0.47000000000E+01 0. -1.
        -13    1    6    6    0    0  0.45698377106E+02 -0.34365521353E+02  0.59408977149E+02  0.82454577156E+02  0.00000000000E+00 0.  1.
         14    1    6    6    0    0  0.12917451810E+02  0.36788186713E+02  0.79258513531E+02  0.88329741368E+02  0.00000000000E+00 0. -1.
         -5    1    3    3    0  503 -0.47813284602E+02 -0.86364076763E+01 -0.58893425920E+02  0.76493289500E+02  0.47000000000E+01 0.  1.
         11    1    4    4    0    0  0.91008393134E+01  0.12361423834E+02 -0.10349978286E+02  0.18513565997E+02  0.00000000000E+00 0. -1.
        -12    1    4    4    0    0  0.47812212566E+02 -0.51626819807E+02  0.44452902490E+02  0.83230984216E+02  0.00000000000E+00 0.  1.
<mgrwt>
<rscale>  2 0.18101049E+03</rscale>
<asrwt>0</asrwt>
<pdfrwt beam="1">  1       21 0.51184023E-01 0.18253760E+03</pdfrwt>
<pdfrwt beam="2">  1       21 0.20624109E-01 0.18253760E+03</pdfrwt>
<totfact> 0.79408345E+04</totfact>
</mgrwt>
</event>
<event>
12    1  0.1071811E-001  0.2312481E+03  0.7546771E-02  0.1126053E+00
         21   -1    0    0  501  502  0.00000000000E+00  0.00000000000E+00  0.32937784258E+03  0.32937784258E+03  0.00000000000E+00 0.  1.
         21   -1    0    0  502  503 -0.00000000000E+00 -0.00000000000E+00 -0.16232669724E+03  0.16232669724E+03  0.00000000000E+00 0.  1.
         -6    2    1    2    0  503  0.14930938128E+03 -0.35416488904E+02  0.63354246668E+02  0.23976954661E+03  0.17299727132E+03 0.  0.
        -24    2    3    3    0    0  0.15024426355E+03  0.18814192202E+02  0.69342112225E+02  0.18499925072E+03  0.80554836479E+02 0.  0.
          6    2    1    2  501    0 -0.14930938128E+03  0.35416488904E+02  0.10369689867E+03  0.25193499322E+03  0.17079395478E+03 0.  0.
         24    2    5    5    0    0 -0.81978607472E+02  0.87171618603E+02  0.55558853831E+02  0.15420379087E+03  0.79828815012E+02 0.  0.
          5    1    5    5  501    0 -0.67330773812E+02 -0.51755129699E+02  0.48138044839E+02  0.97731202352E+02  0.47000000000E+01 0. -1.
        -11    1    6    6    0    0 -0.46830558352E+02  0.76897709584E+01  0.47138937234E+02  0.66890307045E+02  0.00000000000E+00 0.  1.
         12    1    6    6    0    0 -0.35148049121E+02  0.79481847645E+02  0.84199165967E+01  0.87313483824E+02  0.00000000000E+00 0. -1.
         -5    1    3    3    0  503 -0.93488226517E+00 -0.54230681105E+02 -0.59878655573E+01  0.54770295891E+02  0.47000000000E+01 0.  1.
         11    1    4    4    0    0 -0.13916636992E+01 -0.12794317756E+02  0.17368125344E+02  0.21616731313E+02  0.00000000000E+00 0. -1.
        -12    1    4    4    0    0  0.15163592725E+03  0.31608509958E+02  0.51973986881E+02  0.16338251940E+03  0.00000000000E+00 0.  1.
<mgrwt>
<rscale>  2 0.23083607E+03</rscale>
<asrwt>0</asrwt>
<pdfrwt beam="1">  1       21 0.50673514E-01 0.23124808E+03</pdfrwt>
<pdfrwt beam="2">  1       21 0.24973338E-01 0.23124808E+03</pdfrwt>
<totfact> 0.55267317E+04</totfact>
</mgrwt>
</event>
<event>
12    1  0.1071811E-001  0.1728126E+03  0.7546771E-02  0.1174964E+00
         21   -1    0    0  503  502  0.00000000000E+00  0.00000000000E+00  0.17184622755E+03  0.17184622755E+03  0.00000000000E+00 0.  1.
         21   -1    0    0  501  503 -0.00000000000E+00 -0.00000000000E+00 -0.21305255890E+03  0.21305255890E+03  0.00000000000E+00 0.  1.
          6    2    1    2  501    0  0.48579640331E+01  0.81667781009E+01 -0.10330369354E+03  0.20133513924E+03  0.17255112030E+03 0.  0.
         24    2    3    3    0    0 -0.24386493541E+02  0.23575263630E+02  0.85864594811E+01  0.84569750247E+02  0.76992345386E+02 0.  0.
         -6    2    1    2    0  502 -0.48579640331E+01 -0.81667781009E+01  0.62097362179E+02  0.18356364721E+03  0.17247966288E+03 0.  0.
        -24    2    5    5    0    0 -0.19713575932E+02  0.33285390248E+02 -0.17863163656E+02  0.92159341195E+02  0.81717251996E+02 0.  0.
          5    1    3    3  501    0  0.29244457574E+02 -0.15408485529E+02 -0.11189015302E+03  0.11676538900E+03  0.47000000000E+01 0. -1.
        -11    1    4    4    0    0  0.20315391913E+02 -0.13722007670E+02 -0.44344887111E+01  0.24913316383E+02  0.00000000000E+00 0.  1.
         12    1    4    4    0    0 -0.44701885454E+02  0.37297271300E+02  0.13020948192E+02  0.59656433864E+02  0.00000000000E+00 0. -1.
         -5    1    5    5    0  502  0.14855611899E+02 -0.41452168349E+02  0.79960525834E+02  0.91404306012E+02  0.47000000000E+01 0.  1.
         13    1    6    6    0    0  0.29943207966E+02  0.73120533574E+01 -0.18815071790E+02  0.36111892142E+02  0.00000000000E+00 0. -1.
        -14    1    6    6    0    0 -0.49656783898E+02  0.25973336891E+02  0.95190813460E+00  0.56047449054E+02  0.00000000000E+00 0.  1.
<mgrwt>
<rscale>  2 0.17279473E+03</rscale>
<asrwt>0</asrwt>
<pdfrwt beam="1">  1       21 0.26437881E-01 0.17281257E+03</pdfrwt>
<pdfrwt beam="2">  1       21 0.32777317E-01 0.17281257E+03</pdfrwt>
<totfact> 0.12278132E+05</totfact>
</mgrwt>
</event>
<event>
12    1  0.1071811E-001  0.3703560E+03  0.7546771E-02  0.1054657E+00
         21   -1    0    0  501  502  0.00000000000E+00  0.00000000000E+00  0.74092950133E+03  0.74092950133E+03  0.00000000000E+00 0. -1.
         21   -1    0    0  502  503 -0.00000000000E+00 -0.00000000000E+00 -0.18522865945E+03  0.18522865945E+03  0.00000000000E+00 0.  1.
         -6    2    1    2    0  503  0.32612301811E+03 -0.89185828352E+01  0.25045537292E+03  0.44622236892E+03  0.17306283438E+03 0.  0.
        -24    2    3    3    0    0  0.92370823757E+02  0.28433977087E+01  0.33334215576E+02  0.12693860874E+03  0.80385237877E+02 0.  0.
          6    2    1    2  501    0 -0.32612301811E+03  0.89185828352E+01  0.30524546896E+03  0.47993579186E+03  0.17529347942E+03 0.  0.
         24    2    5    5    0    0 -0.19768715670E+03  0.70589453825E+02  0.22103539519E+03  0.31436860504E+03  0.76862806327E+02 0.  0.
          5    1    5    5  501    0 -0.12843586141E+03 -0.61670870990E+02  0.84210073773E+02  0.16556718682E+03  0.47000000000E+01 0. -1.
        -13    1    6    6    0    0 -0.45880779669E+02  0.41201974094E+02  0.10216462367E+03  0.11933255609E+03  0.00000000000E+00 0.  1.
         14    1    6    6    0    0 -0.15180637703E+03  0.29387479731E+02  0.11887077152E+03  0.19503604896E+03  0.00000000000E+00 0. -1.
         -5    1    3    3    0  503  0.23375219435E+03 -0.11761980544E+02  0.21712115735E+03  0.31928376018E+03  0.47000000000E+01 0.  1.
         11    1    4    4    0    0  0.14203011807E+01  0.23529803211E+02 -0.80325688360E+01  0.24903635411E+02  0.00000000000E+00 0. -1.
        -12    1    4    4    0    0  0.90950522576E+02 -0.20686405502E+02  0.41366784412E+02  0.10203497333E+03  0.00000000000E+00 0.  1.
<mgrwt>
<rscale>  2 0.37009308E+03</rscale>
<asrwt>0</asrwt>
<pdfrwt beam="1">  1       21 0.11398915E+00 0.37035600E+03</pdfrwt>
<pdfrwt beam="2">  1       21 0.28496717E-01 0.37035600E+03</pdfrwt>
<totfact> 0.63915149E+03</totfact>
</mgrwt>
</event>
<event>
12    1  0.1071811E-001  0.1948578E+03  0.7546771E-02  0.1154366E+00
         21   -1    0    0  501  502  0.00000000000E+00  0.00000000000E+00  0.43942816040E+03  0.43942816040E+03  0.00000000000E+00 0. -1.
         21   -1    0    0  502  503 -0.00000000000E+00 -0.00000000000E+00 -0.35813674630E+03  0.35813674630E+03  0.00000000000E+00 0.  1.
         -6    2    1    2    0  503 -0.75898952641E+02  0.42121489145E+02 -0.30701646825E+03  0.36310827340E+03  0.17335984419E+03 0.  0.
        -24    2    3    3    0    0 -0.97860172426E+02  0.79066439572E+02 -0.25271129393E+03  0.29369381890E+03  0.81024354148E+02 0.  0.
          6    2    1    2  501    0  0.75898952641E+02 -0.42121489145E+02  0.38830788235E+03  0.43445663330E+03  0.17445539218E+03 0.  0.
         24    2    5    5    0    0  0.69991566985E+02  0.26705848104E+02  0.14943938841E+03  0.18575531252E+03  0.80999281169E+02 0.  0.
          5    1    5    5  501    0  0.59073856554E+01 -0.68827337249E+02  0.23886849394E+03  0.24870132078E+03  0.47000000000E+01 0. -1.
        -13    1    6    6    0    0 -0.67460421402E+01  0.55392932264E+01 -0.63584322954E+01  0.10799190491E+02  0.00000000000E+00 0.  1.
         14    1    6    6    0    0  0.76737609126E+02  0.21166554878E+02  0.15579782070E+03  0.17495612203E+03  0.00000000000E+00 0. -1.
         -5    1    3    3    0  503  0.21961219785E+02 -0.36944950428E+02 -0.54305174311E+02  0.69414454500E+02  0.47000000000E+01 0.  1.
         11    1    4    4    0    0 -0.76490357319E+01  0.54413692297E+02 -0.76294838666E+02  0.94022657185E+02  0.00000000000E+00 0. -1.
        -12    1    4    4    0    0 -0.90211136694E+02  0.24652747275E+02 -0.17641645527E+03  0.19967116172E+03  0.00000000000E+00 0.  1.
<mgrwt>
<rscale>  2 0.19461226E+03</rscale>
<asrwt>0</asrwt>
<pdfrwt beam="1">  1       21 0.67604332E-01 0.19485778E+03</pdfrwt>
<pdfrwt beam="2">  1       21 0.55097961E-01 0.19485778E+03</pdfrwt>
<totfact> 0.62057966E+03</totfact>
</mgrwt>
</event>
<event>
12    1  0.1071811E-001  0.2482859E+03  0.7546771E-02  0.1114505E+00
         21   -1    0    0  503  502  0.00000000000E+00  0.00000000000E+00  0.72291143399E+03  0.72291143399E+03  0.00000000000E+00 0.  1.
         21   -1    0    0  501  503 -0.00000000000E+00 -0.00000000000E+00 -0.88725925585E+02  0.88725925585E+02  0.00000000000E+00 0.  1.
          6    2    1    2  501    0  0.15677237238E+03 -0.82414773753E+02  0.39944334160E+03  0.46995072520E+03  0.17299979563E+03 0.  0.
         24    2    3    3    0    0  0.39540975358E+02  0.13678796024E+02  0.18813975699E+03  0.20985753138E+03  0.83024196007E+02 0.  0.
         -6    2    1    2    0  502 -0.15677237238E+03  0.82414773753E+02  0.23474216680E+03  0.34168663437E+03  0.17400028610E+03 0.  0.
        -24    2    5    5    0    0 -0.15543812081E+03  0.19858576702E+02  0.21003058477E+03  0.27424917963E+03  0.80897425900E+02 0.  0.
          5    1    3    3  501    0  0.11723139702E+03 -0.96093569777E+02  0.21130358461E+03  0.26009319382E+03  0.47000000000E+01 0. -1.
        -13    1    4    4    0    0  0.42354203451E+02 -0.25139436684E+02  0.13705178578E+03  0.14563331285E+03  0.00000000000E+00 0.  1.
         14    1    4    4    0    0 -0.28132280927E+01  0.38818232708E+02  0.51087971211E+02  0.64224218526E+02  0.00000000000E+00 0. -1.
         -5    1    5    5    0  502 -0.13342515726E+01  0.62556197051E+02  0.24711582024E+02  0.67437454748E+02  0.47000000000E+01 0.  1.
         11    1    6    6    0    0 -0.96677719625E+02 -0.23789618851E+02  0.93170818449E+02  0.13635735714E+03  0.00000000000E+00 0. -1.
        -12    1    6    6    0    0 -0.58760401182E+02  0.43648195554E+02  0.11685976632E+03  0.13789182248E+03  0.00000000000E+00 0.  1.
<mgrwt>
<rscale>  2 0.24811065E+03</rscale>
<asrwt>0</asrwt>
<pdfrwt beam="1">  1       21 0.11121714E+00 0.24828587E+03</pdfrwt>
<pdfrwt beam="2">  1       21 0.13650143E-01 0.24828587E+03</pdfrwt>
<totfact> 0.28730924E+04</totfact>
</mgrwt>
</event>
<event>
12    1  0.1071811E-001  0.1948100E+03  0.7546771E-02  0.1154500E+00
         21   -1    0    0  501  502  0.00000000000E+00  0.00000000000E+00  0.30498678660E+03  0.30498678660E+03  0.00000000000E+00 0.  1.
         21   -1    0    0  502  503 -0.00000000000E+00 -0.00000000000E+00 -0.13098546666E+03  0.13098546666E+03  0.00000000000E+00 0. -1.
         -6    2    1    2    0  503 -0.88922942541E+02  0.34116467736E+01  0.13866445647E+03  0.23798332631E+03  0.17172449759E+03 0.  0.
        -24    2    3    3    0    0 -0.10947106530E+03  0.23763950619E+02  0.15338687074E+03  0.20519184720E+03  0.77637120972E+02 0.  0.
          6    2    1    2  501    0  0.88922942541E+02 -0.34116467736E+01  0.35336863474E+02  0.19798892695E+03  0.17329740976E+03 0.  0.
         24    2    5    5    0    0  0.12888414738E+03 -0.19030347262E+01  0.14855940231E+02  0.15281446492E+03  0.80726803114E+02 0.  0.
          5    1    5    5  501    0 -0.39961204840E+02 -0.15086120474E+01  0.20480923243E+02  0.45174462028E+02  0.47000000000E+01 0. -1.
        -13    1    6    6    0    0  0.11344700293E+03 -0.31558197629E+02  0.18442711865E+02  0.11919008319E+03  0.00000000000E+00 0.  1.
         14    1    6    6    0    0  0.15437144455E+02  0.29655162903E+02 -0.35867716339E+01  0.33624381727E+02  0.00000000000E+00 0. -1.
         -5    1    3    3    0  503  0.20548122756E+02 -0.20352303845E+02 -0.14722414275E+02  0.32791479117E+02  0.47000000000E+01 0.  1.
         11    1    4    4    0    0  0.46780148519E+01  0.16402009301E+02  0.42867692653E+02  0.46136198429E+02  0.00000000000E+00 0. -1.
        -12    1    4    4    0    0 -0.11414908015E+03  0.73619413177E+01  0.11051917809E+03  0.15905564877E+03  0.00000000000E+00 0.  1.
<mgrwt>
<rscale>  2 0.19445955E+03</rscale>
<asrwt>0</asrwt>
<pdfrwt beam="1">  1       21 0.46921044E-01 0.19480996E+03</pdfrwt>
<pdfrwt beam="2">  1       21 0.20151610E-01 0.19480996E+03</pdfrwt>
<totfact> 0.98870775E+04</totfact>
</mgrwt>
</event>
<event>
12    1  0.1071811E-001  0.2346788E+03  0.7546771E-02  0.1123445E+00
         21   -1    0    0  503  502  0.00000000000E+00  0.00000000000E+00  0.79737050314E+02  0.79737050314E+02  0.00000000000E+00 0. -1.
         21   -1    0    0  501  503 -0.00000000000E+00 -0.00000000000E+00 -0.85642249272E+03  0.85642249272E+03  0.00000000000E+00 0. -1.
          6    2    1    2  501    0  0.14381087539E+03  0.69321131763E+02 -0.59506335841E+03  0.63966750456E+03  0.17200909475E+03 0.  0.
         24    2    3    3    0    0  0.10846727720E+03 -0.18697734182E+02 -0.39535811646E+03  0.41853233241E+03  0.82137187322E+02 0.  0.
         -6    2    1    2    0  502 -0.14381087539E+03 -0.69321131763E+02 -0.18162208400E+03  0.29649203848E+03  0.17156328365E+03 0.  0.
        -24    2    5    5    0    0 -0.17354929757E+03 -0.63412969537E+02 -0.14903010314E+03  0.25173036569E+03  0.83771367273E+02 0.  0.
          5    1    3    3  501    0  0.35343598185E+02  0.88018865945E+02 -0.19970524195E+03  0.22113517214E+03  0.47000000000E+01 0. -1.
        -11    1    4    4    0    0  0.37068610269E+02 -0.39665984011E+02 -0.24276562464E+03  0.24876217691E+03  0.00000000000E+00 0.  1.
         12    1    4    4    0    0  0.71398666935E+02  0.20968249829E+02 -0.15259249182E+03  0.16977015551E+03  0.00000000000E+00 0. -1.
         -5    1    5    5    0  502  0.29738422181E+02 -0.59081622259E+01 -0.32591980855E+02  0.44761672787E+02  0.47000000000E+01 0.  1.
         11    1    6    6    0    0 -0.93250173090E+02 -0.77182484884E+02 -0.81724075939E+02  0.14605326200E+03  0.00000000000E+00 0. -1.
        -12    1    6    6    0    0 -0.80299124481E+02  0.13769515347E+02 -0.67306027202E+02  0.10567710368E+03  0.00000000000E+00 0.  1.
<mgrwt>
<rscale>  2 0.23459707E+03</rscale>
<asrwt>0</asrwt>
<pdfrwt beam="1">  1       21 0.12267238E-01 0.23467875E+03</pdfrwt>
<pdfrwt beam="2">  1       21 0.13175731E+00 0.23467875E+03</pdfrwt>
<totfact> 0.22987298E+04</totfact>
</mgrwt>
</event>
<event>
12    1  0.1071811E-001  0.1854995E+03  0.7546771E-02  0.1163803E+00
         21   -1    0    0  503  502  0.00000000000E+00  0.00000000000E+00  0.27029078033E+03  0.27029078033E+03  0.00000000000E+00 0.  1.
         21   -1    0    0  501  503 -0.00000000000E+00 -0.00000000000E+00 -0.15173958744E+03  0.15173958744E+03  0.00000000000E+00 0. -1.
          6    2    1    2  501    0 -0.36799466102E+02  0.59078094079E+02 -0.31962894356E+02  0.18314847477E+03  0.16636500621E+03 0.  0.
         24    2    3    3    0    0 -0.19622790585E+02 -0.23588754583E+02  0.13279928200E+02  0.87243057605E+02  0.80582326561E+02 0.  0.
         -6    2    1    2    0  502  0.36799466102E+02 -0.59078094079E+02  0.15051408725E+03  0.23888189299E+03  0.17194663833E+03 0.  0.
        -24    2    5    5    0    0  0.29389194661E+02 -0.73697298751E+02  0.17138663217E+03  0.21193033646E+03  0.96156503779E+02 0.  0.
          5    1    3    3  501    0 -0.17176675517E+02  0.82666848663E+02 -0.45242822556E+02  0.95905417169E+02  0.47000000000E+01 0. -1.
        -13    1    4    4    0    0  0.22844249660E+02 -0.29433848110E+02  0.22320250885E+02  0.43432761329E+02  0.00000000000E+00 0.  1.
         14    1    4    4    0    0 -0.42467040245E+02  0.58450935272E+01 -0.90403226849E+01  0.43810296276E+02  0.00000000000E+00 0. -1.
         -5    1    5    5    0  502  0.74102714413E+01  0.14619204672E+02 -0.20872544920E+02  0.26951556532E+02  0.47000000000E+01 0.  1.
         11    1    6    6    0    0 -0.52821667844E+01 -0.87266840181E+02  0.12107811929E+03  0.14934293974E+03  0.00000000000E+00 0. -1.
        -12    1    6    6    0    0  0.34671361445E+02  0.13569541430E+02  0.50308512877E+02  0.62587396711E+02  0.00000000000E+00 0.  1.
<mgrwt>
<rscale>  2 0.18419541E+03</rscale>
<asrwt>0</asrwt>
<pdfrwt beam="1">  1       21 0.41583197E-01 0.18549951E+03</pdfrwt>
<pdfrwt beam="2">  1       21 0.23344552E-01 0.18549951E+03</pdfrwt>
<totfact> 0.96339312E+04</totfact>
</mgrwt>
</event>
<event>
12    1  0.1071811E-001  0.1802266E+03  0.7546771E-02  0.1167820E+00
         21   -1    0    0  503  502  0.00000000000E+00  0.00000000000E+00  0.20850322235E+03  0.20850322235E+03  0.00000000000E+00 0. -1.
         21   -1    0    0  501  503 -0.00000000000E+00 -0.00000000000E+00 -0.23392400628E+03  0.23392400628E+03  0.00000000000E+00 0. -1.
          6    2    1    2  501    0  0.50584010289E+02 -0.17272805277E+02 -0.14127065799E+03  0.22899565123E+03  0.17211774334E+03 0.  0.
         24    2    3    3    0    0  0.29206562774E+02  0.54396856045E+02 -0.43551226069E+02  0.10585056204E+03  0.74132253002E+02 0.  0.
         -6    2    1    2    0  502 -0.50584010289E+02  0.17272805277E+02  0.11584987407E+03  0.21343157741E+03  0.17109866456E+03 0.  0.
        -24    2    5    5    0    0 -0.10167024888E+01  0.81021628274E+01  0.13685906153E+03  0.15861830672E+03  0.79766445181E+02 0.  0.
          5    1    3    3  501    0  0.21377447516E+02 -0.71669661321E+02 -0.97719431920E+02  0.12314508919E+03  0.47000000000E+01 0. -1.
        -11    1    4    4    0    0 -0.30664519054E+01 -0.80906908116E+01 -0.33749936452E+02  0.34841363573E+02  0.00000000000E+00 0.  1.
         12    1    4    4    0    0  0.32273014679E+02  0.62487546856E+02 -0.98012896170E+01  0.71009198466E+02  0.00000000000E+00 0. -1.
         -5    1    5    5    0  502 -0.49567307801E+02  0.91706424494E+01 -0.21009187466E+02  0.54813270688E+02  0.47000000000E+01 0.  1.
         11    1    6    6    0    0 -0.10910775380E+02 -0.20260419828E+02  0.52209186721E+01  0.23596347658E+02  0.00000000000E+00 0. -1.
        -12    1    6    6    0    0  0.98940728912E+01  0.28362582656E+02  0.13163814286E+03  0.13502195906E+03  0.00000000000E+00 0.  1.
<mgrwt>
<rscale>  2 0.17998281E+03</rscale>
<asrwt>0</asrwt>
<pdfrwt beam="1">  1       21 0.32077419E-01 0.18022655E+03</pdfrwt>
<pdfrwt beam="2">  1       21 0.35988309E-01 0.18022655E+03</pdfrwt>
<totfact> 0.69966823E+04</totfact>
</mgrwt>
</event>
<event>
12    1  0.1071811E-001  0.2307330E+03  0.7546771E-02  0.1126125E+00
         21   -1    0    0  503  502  0.00000000000E+00  0.00000000000E+00  0.13360013924E+04  0.13360013924E+04  0.00000000000E+00 0. -1.
         21   -1    0    0  501  503 -0.00000000000E+00 -0.00000000000E+00 -0.65009145594E+02  0.65009145594E+02  0.00000000000E+00 0.  1.
          6    2    1    2  501    0  0.15009050449E+03  0.26742667051E+02  0.19969683326E+03  0.30514942307E+03  0.17319069088E+03 0.  0.
         24    2    3    3    0    0  0.92831677520E+02  0.84549755110E+02  0.13285659287E+03  0.19974572090E+03  0.80505262622E+02 0.  0.
         -6    2    1    2    0  502 -0.15009050449E+03 -0.26742667051E+02  0.10712954136E+04  0.10958611149E+04  0.17319177327E+03 0.  0.
        -24    2    5    5    0    0 -0.87232692011E+02 -0.82154179503E+02  0.60321330181E+03  0.62031459392E+03  0.81025034349E+02 0.  0.
          5    1    3    3  501    0  0.57258826970E+02 -0.57807088058E+02  0.66840240387E+02  0.10540370217E+03  0.47000000000E+01 0. -1.
        -13    1    4    4    0    0  0.76180496068E+02  0.36571404107E+02  0.12101237135E+03  0.14759718696E+03  0.00000000000E+00 0.  1.
         14    1    4    4    0    0  0.16651181452E+02  0.47978351003E+02  0.11844221519E+02  0.52148533940E+02  0.00000000000E+00 0. -1.
         -5    1    5    5    0  502 -0.62857812479E+02  0.55411512452E+02  0.46808211176E+03  0.47554652102E+03  0.47000000000E+01 0.  1.
         11    1    6    6    0    0  0.59157159420E+01  0.19192671380E+01  0.14780635332E+03  0.14793713990E+03  0.00000000000E+00 0. -1.
        -12    1    6    6    0    0 -0.93148407953E+02 -0.84073446641E+02  0.45540694849E+03  0.47237745402E+03  0.00000000000E+00 0.  1.
<mgrwt>
<rscale>  2 0.23073280E+03</rscale>
<asrwt>0</asrwt>
<pdfrwt beam="1">  1       21 0.20553865E+00 0.23073301E+03</pdfrwt>
<pdfrwt beam="2">  1       21 0.10001408E-01 0.23073301E+03</pdfrwt>
<totfact> 0.97388610E+03</totfact>
</mgrwt>
</event>
<event>
12    1  0.1071811E-001  0.2690426E+03  0.7546771E-02  0.1102428E+00
         21   -1    0    0  503  502  0.00000000000E+00  0.00000000000E+00  0.33901491059E+03  0.33901491059E+03  0.00000000000E+00 0.  1.
         21   -1    0    0  501  503 -0.00000000000E+00 -0.00000000000E+00 -0.64584289023E+03  0.64584289023E+03  0.00000000000E+00 0. -1.
          6    2    1    2  501    0  0.11239634510E+03  0.16629625324E+03 -0.55820803072E+03  0.61966129409E+03  0.17915504905E+03 0.  0.
         24    2    3    3    0    0  0.99597301195E+02  0.11903352113E+03 -0.23411124423E+03  0.29185281588E+03  0.79255220057E+02 0.  0.
         -6    2    1    2    0  502 -0.11239634510E+03 -0.16629625324E+03  0.25138005108E+03  0.36519650673E+03  0.17288486404E+03 0.  0.
        -24    2    5    5    0    0 -0.10080018364E+03 -0.98679723475E+02  0.81344873496E+02  0.18178299122E+03  0.80806575256E+02 0.  0.
          5    1    3    3  501    0  0.12799043910E+02  0.47262732108E+02 -0.32409678649E+03  0.32780847821E+03  0.47000000000E+01 0. -1.
        -11    1    4    4    0    0  0.10498075709E+03  0.12386248138E+03 -0.23375453912E+03  0.28461211888E+03  0.00000000000E+00 0.  1.
         12    1    4    4    0    0 -0.53834558988E+01 -0.48289602516E+01 -0.35670510659E+00  0.72406970009E+01  0.00000000000E+00 0. -1.
         -5    1    5    5    0  502 -0.11596161462E+02 -0.67616529767E+02  0.17003517758E+03  0.18341351552E+03  0.47000000000E+01 0.  1.
         11    1    6    6    0    0 -0.33231068245E+02 -0.75611050788E+02  0.14260836523E+02  0.83813521322E+02  0.00000000000E+00 0. -1.
        -12    1    6    6    0    0 -0.67569115398E+02 -0.23068672687E+02  0.67084036973E+02  0.97969469897E+02  0.00000000000E+00 0.  1.
<mgrwt>
<rscale>  2 0.26800308E+03</rscale>
<asrwt>0</asrwt>
<pdfrwt beam="1">  1       21 0.52156141E-01 0.26904259E+03</pdfrwt>
<pdfrwt beam="2">  1       21 0.99360443E-01 0.26904259E+03</pdfrwt>
<totfact> 0.27461031E+03</totfact>
</mgrwt>
</event>
<event>
12    1  0.1071811E-001  0.2213183E+03  0.7546771E-02  0.1132933E+00
         21   -1    0    0  501  502  0.00000000000E+00  0.00000000000E+00  0.71896503333E+02  0.71896503333E+02  0.00000000000E+00 0. -1.
         21   -1    0    0  502  503 -0.00000000000E+00 -0.00000000000E+00 -0.72424703871E+03  0.72424703871E+03  0.00000000000E+00 0. -1.
         -6    2    1    2    0  503 -0.10407390754E+03  0.89622287850E+02 -0.22857024180E+03  0.31805198100E+03  0.17334697711E+03 0.  0.
        -24    2    3    3    0    0 -0.51116067427E+02  0.53812228292E+02 -0.22800568901E+03  0.25394814403E+03  0.83632872563E+02 0.  0.
          6    2    1    2  501    0  0.10407390754E+03 -0.89622287850E+02 -0.42378029357E+03  0.47809156103E+03  0.17354616332E+03 0.  0.
         24    2    5    5    0    0  0.19021525318E+02 -0.99974915263E+02 -0.20779757852E+03  0.24568737042E+03  0.82617481424E+02 0.  0.
          5    1    5    5  501    0  0.85052382222E+02  0.10352627413E+02 -0.21598271505E+03  0.23240419061E+03  0.47000000000E+01 0. -1.
        -11    1    6    6    0    0 -0.19133201230E+02 -0.44853975088E+02 -0.14809957249E+03  0.15592126809E+03  0.00000000000E+00 0.  1.
         12    1    6    6    0    0  0.38154726547E+02 -0.55120940175E+02 -0.59698006034E+02  0.89766102334E+02  0.00000000000E+00 0. -1.
         -5    1    3    3    0  503 -0.52957840113E+02  0.35810059558E+02 -0.56455279628E+00  0.64103836975E+02  0.47000000000E+01 0.  1.
         11    1    4    4    0    0 -0.61241110521E+02  0.49232411107E+02 -0.10870405662E+03  0.13413007063E+03  0.00000000000E+00 0. -1.
        -12    1    4    4    0    0  0.10125043095E+02  0.45798171846E+01 -0.11930163238E+03  0.11981807340E+03  0.00000000000E+00 0.  1.
<mgrwt>
<rscale>  2 0.22127928E+03</rscale>
<asrwt>0</asrwt>
<pdfrwt beam="1">  1       21 0.11061000E-01 0.22131833E+03</pdfrwt>
<pdfrwt beam="2">  1       21 0.11142263E+00 0.22131833E+03</pdfrwt>
<totfact> 0.42320562E+04</totfact>
</mgrwt>
</event>
<event>
12    1  0.1071811E-001  0.1881068E+03  0.7546771E-02  0.1160919E+00
         21   -1    0    0  503  502  0.00000000000E+00  0.00000000000E+00  0.16628150816E+03  0.16628150816E+03  0.00000000000E+00 0.  1.
         21   -1    0    0  501  503 -0.00000000000E+00 -0.00000000000E+00 -0.20920489861E+03  0.20920489861E+03  0.00000000000E+00 0.  1.
          6    2    1    2  501    0  0.29693306476E+02 -0.60807660140E+02 -0.23113649993E+02  0.18633935118E+03  0.17207222031E+03 0.  0.
         24    2    3    3    0    0 -0.33795697924E+01 -0.28687282050E+02 -0.76893440027E+02  0.11534717098E+03  0.80981399661E+02 0.  0.
         -6    2    1    2    0  502 -0.29693306476E+02  0.60807660140E+02 -0.19809740456E+02  0.18914705558E+03  0.17551330103E+03 0.  0.
        -24    2    5    5    0    0 -0.71419200794E+02  0.29777877965E+02  0.31972507929E+02  0.11561210548E+03  0.79727620137E+02 0.  0.
          5    1    3    3  501    0  0.33072876268E+02 -0.32120378090E+02  0.53779790034E+02  0.70992180199E+02  0.47000000000E+01 0. -1.
        -13    1    4    4    0    0  0.16619044092E+02  0.26427494275E+01  0.10872848265E+02  0.20034859132E+02  0.00000000000E+00 0.  1.
         14    1    4    4    0    0 -0.19998613884E+02 -0.31330031478E+02 -0.87766288292E+02  0.95312311850E+02  0.00000000000E+00 0. -1.
         -5    1    5    5    0  502  0.41725894318E+02  0.31029782175E+02 -0.51782248385E+02  0.73534950100E+02  0.47000000000E+01 0.  1.
         13    1    6    6    0    0  0.91127036195E+01  0.28511322291E+02  0.32768510886E+01  0.30111038161E+02  0.00000000000E+00 0. -1.
        -14    1    6    6    0    0 -0.80531904413E+02  0.12665556735E+01  0.28695656840E+02  0.85501067322E+02  0.00000000000E+00 0.  1.
<mgrwt>
<rscale>  2 0.18730002E+03</rscale>
<asrwt>0</asrwt>
<pdfrwt beam="1">  1       21 0.25581771E-01 0.18810684E+03</pdfrwt>
<pdfrwt beam="2">  1       21 0.32185369E-01 0.18810684E+03</pdfrwt>
<totfact> 0.13481314E+05</totfact>
</mgrwt>
</event>
<event>
12    1  0.1071811E-001  0.1744469E+03  0.7546771E-02  0.1174253E+00
         21   -1    0    0  503  502  0.00000000000E+00  0.00000000000E+00  0.15561781064E+03  0.15561781064E+03  0.00000000000E+00 0.  1.
         21   -1    0    0  501  503 -0.00000000000E+00 -0.00000000000E+00 -0.30841705314E+03  0.30841705314E+03  0.00000000000E+00 0.  1.
          6    2    1    2  501    0  0.12615378240E+02 -0.50893184910E+00 -0.21986552070E+03  0.28066450934E+03  0.17398940436E+03 0.  0.
         24    2    3    3    0    0  0.54487106759E+02  0.28412887499E+02 -0.20323129212E+03  0.22691973430E+03  0.80084147858E+02 0.  0.
         -6    2    1    2    0  502 -0.12615378240E+02  0.50893184910E+00  0.67066278199E+02  0.18337035444E+03  0.17019810351E+03 0.  0.
        -24    2    5    5    0    0  0.73988123183E+01  0.44888042741E+02  0.76002651745E+02  0.13365092082E+03  0.10008239985E+03 0.  0.
          5    1    3    3  501    0 -0.41871728519E+02 -0.28921819348E+02 -0.16634228576E+02  0.53744775038E+02  0.47000000000E+01 0. -1.
        -13    1    4    4    0    0  0.16735436024E+02  0.20328385245E+02 -0.17988550914E+03  0.18180240500E+03  0.00000000000E+00 0.  1.
         14    1    4    4    0    0  0.37751670735E+02  0.80845022533E+01 -0.23345782980E+02  0.45117329298E+02  0.00000000000E+00 0. -1.
         -5    1    5    5    0  502 -0.20014190559E+02 -0.44379110892E+02 -0.89363735461E+01  0.49719433619E+02  0.47000000000E+01 0.  1.
         11    1    6    6    0    0  0.17568373989E+02  0.18869775183E+02 -0.20656216280E+02  0.33036274776E+02  0.00000000000E+00 0. -1.
        -12    1    6    6    0    0 -0.10169561670E+02  0.26018267557E+02  0.96658868025E+02  0.10061464605E+03  0.00000000000E+00 0.  1.
<mgrwt>
<rscale>  2 0.17349383E+03</rscale>
<asrwt>0</asrwt>
<pdfrwt beam="1">  1       21 0.23941202E-01 0.17444690E+03</pdfrwt>
<pdfrwt beam="2">  1       21 0.47448777E-01 0.17444690E+03</pdfrwt>
<totfact> 0.70426475E+04</totfact>
</mgrwt>
</event>
<event>
12    1  0.1071811E-001  0.2004392E+03  0.7546771E-02  0.1149532E+00
         21   -1    0    0  503  502  0.00000000000E+00  0.00000000000E+00  0.98294784468E+02  0.98294784468E+02  0.00000000000E+00 0.  1.
         21   -1    0    0  501  503 -0.00000000000E+00 -0.00000000000E+00 -0.56921145546E+03  0.56921145546E+03  0.00000000000E+00 0.  1.
          6    2    1    2  501    0  0.72708888395E+02  0.65776476580E+02 -0.41386588554E+03  0.45984873701E+03  0.17482208783E+03 0.  0.
         24    2    3    3    0    0 -0.92194296457E+01 -0.11735827583E+02 -0.23167794300E+03  0.24552434969E+03  0.79905002881E+02 0.  0.
         -6    2    1    2    0  502 -0.72708888395E+02 -0.65776476580E+02 -0.57050785452E+02  0.20765750292E+03  0.17393596257E+03 0.  0.
        -24    2    5    5    0    0 -0.65680424768E+02 -0.30877677409E+02 -0.10406226786E+03  0.14850097359E+03  0.77176644168E+02 0.  0.
          5    1    3    3  501    0  0.81928318041E+02  0.77512304163E+02 -0.18218794254E+03  0.21432438732E+03  0.47000000000E+01 0. -1.
        -13    1    4    4    0    0  0.15577343621E+02 -0.16640824322E+02 -0.21269467642E+03  0.21391258974E+03  0.00000000000E+00 0.  1.
         14    1    4    4    0    0 -0.24796773267E+02  0.49049967389E+01 -0.18983266577E+02  0.31611759954E+02  0.00000000000E+00 0. -1.
         -5    1    5    5    0  502 -0.70284636267E+01 -0.34898799170E+02  0.47011482404E+02  0.59156529330E+02  0.47000000000E+01 0.  1.
         11    1    6    6    0    0 -0.81319491607E+02 -0.30315557586E+02 -0.71775460135E+02  0.11262153180E+03  0.00000000000E+00 0. -1.
        -12    1    6    6    0    0  0.15639066839E+02 -0.56211982370E+00 -0.32286807721E+02  0.35879441789E+02  0.00000000000E+00 0.  1.
<mgrwt>
<rscale>  2 0.20024586E+03</rscale>
<asrwt>0</asrwt>
<pdfrwt beam="1">  1       21 0.15122274E-01 0.20043924E+03</pdfrwt>
<pdfrwt beam="2">  1       21 0.87570994E-01 0.20043924E+03</pdfrwt>
<totfact> 0.43078895E+04</totfact>
</mgrwt>
</event>
<event>
12    1  0.1071811E-001  0.2219240E+03  0.7546771E-02  0.1132765E+00
         21   -1    0    0  501  502  0.00000000000E+00  0.00000000000E+00  0.17466450423E+03  0.17466450423E+03  0.00000000000E+00 0.  1.
         21   -1    0    0  502  503 -0.00000000000E+00 -0.00000000000E+00 -0.28137277084E+03  0.28137277084E+03  0.00000000000E+00 0.  1.
         -6    2    1    2    0  503 -0.13125270620E+03 -0.32439036941E+02 -0.70298268529E+02  0.23279199698E+03  0.17598495191E+03 0.  0.
        -24    2    3    3    0    0 -0.53738026066E+02 -0.39614598178E+02  0.26929123041E+02  0.10815143381E+03  0.80712224191E+02 0.  0.
          6    2    1    2  501    0  0.13125270620E+03  0.32439036941E+02 -0.36409998081E+02  0.22324527809E+03  0.17387697440E+03 0.  0.
         24    2    5    5    0    0  0.10036935139E+03  0.84348856168E+02 -0.49488677926E+02  0.16126501669E+03  0.79803133582E+02 0.  0.
          5    1    5    5  501    0  0.30883354809E+02 -0.51909819228E+02  0.13078679844E+02  0.61980261398E+02  0.47000000000E+01 0. -1.
        -13    1    6    6    0    0  0.36248841728E+02 -0.20047613692E+01 -0.38867650368E+02  0.53185447632E+02  0.00000000000E+00 0.  1.
         14    1    6    6    0    0  0.64120509667E+02  0.86353617537E+02 -0.10621027558E+02  0.10807956906E+03  0.00000000000E+00 0. -1.
         -5    1    3    3    0  503 -0.77514680137E+02  0.71755612375E+01 -0.97227391570E+02  0.12464056317E+03  0.47000000000E+01 0.  1.
         11    1    4    4    0    0 -0.14880876051E+02 -0.57065424671E+02  0.24543010659E+01  0.59024797828E+02  0.00000000000E+00 0. -1.
        -12    1    4    4    0    0 -0.38857150015E+02  0.17450826493E+02  0.24474821975E+02  0.49126635985E+02  0.00000000000E+00 0.  1.
<mgrwt>
<rscale>  2 0.22150586E+03</rscale>
<asrwt>0</asrwt>
<pdfrwt beam="1">  1       21 0.26871462E-01 0.22192401E+03</pdfrwt>
<pdfrwt beam="2">  1       21 0.43288119E-01 0.22192401E+03</pdfrwt>
<totfact> 0.66807667E+04</totfact>
</mgrwt>
</event>
<event>
12    1  0.1071811E-001  0.2481788E+03  0.7546771E-02  0.1115059E+00
         21   -1    0    0  503  502  0.00000000000E+00  0.00000000000E+00  0.66526956112E+03  0.66526956112E+03  0.00000000000E+00 0. -1.
         21   -1    0    0  501  503 -0.00000000000E+00 -0.00000000000E+00 -0.14819017038E+03  0.14819017038E+03  0.00000000000E+00 0.  1.
          6    2    1    2  501    0  0.10071864640E+03  0.14043429801E+03  0.51164027788E+01  0.24451438613E+03  0.17290190762E+03 0.  0.
         24    2    3    3    0    0  0.56742401032E+02  0.16614868762E+03 -0.39787462114E+00  0.19305918965E+03  0.80290758695E+02 0.  0.
         -6    2    1    2    0  502 -0.10071864640E+03 -0.14043429801E+03  0.51196298797E+03  0.56894534537E+03  0.17811981130E+03 0.  0.
        -24    2    5    5    0    0 -0.44409676468E+02 -0.69994704518E+02  0.13821763643E+03  0.18444552193E+03  0.89691457319E+02 0.  0.
          5    1    3    3  501    0  0.43976245367E+02 -0.25714389613E+02  0.55142774000E+01  0.51455196482E+02  0.47000000000E+01 0. -1.
        -13    1    4    4    0    0  0.15254766592E+02  0.17651863524E+02 -0.27977506652E+02  0.36428519982E+02  0.00000000000E+00 0.  1.
         14    1    4    4    0    0  0.41487634440E+02  0.14849682410E+03  0.27579632030E+02  0.15663066967E+03  0.00000000000E+00 0. -1.
         -5    1    5    5    0  502 -0.56308969930E+02 -0.70439593490E+02  0.37374535154E+03  0.38449982344E+03  0.47000000000E+01 0.  1.
         11    1    6    6    0    0 -0.24842758725E+02 -0.90240976694E+02  0.99912710837E+02  0.13690561100E+03  0.00000000000E+00 0. -1.
        -12    1    6    6    0    0 -0.19566917744E+02  0.20246272176E+02  0.38304925590E+02  0.47539910932E+02  0.00000000000E+00 0.  1.
<mgrwt>
<rscale>  2 0.24724403E+03</rscale>
<asrwt>0</asrwt>
<pdfrwt beam="1">  1       21 0.10234916E+00 0.24817878E+03</pdfrwt>
<pdfrwt beam="2">  1       21 0.22798488E-01 0.24817878E+03</pdfrwt>
<totfact> 0.13551456E+04</totfact>
</mgrwt>
</event>
<event>
12    1  0.1071811E-001  0.2230050E+03  0.7546771E-02  0.1131785E+00
         21   -1    0    0  503  502  0.00000000000E+00  0.00000000000E+00  0.83802626139E+03  0.83802626139E+03  0.00000000000E+00 0.  1.
         21   -1    0    0  501  503 -0.00000000000E+00 -0.00000000000E+00 -0.78180833821E+02  0.78180833821E+02  0.00000000000E+00 0.  1.
          6    2    1    2  501    0 -0.13502122234E+03 -0.25328341432E+02  0.15356578422E+03  0.27021463832E+03  0.17481774885E+03 0.  0.
         24    2    3    3    0    0 -0.12108734447E+03 -0.59806380661E+02  0.59169463310E+02  0.16864868170E+03  0.81868212947E+02 0.  0.
         -6    2    1    2    0  502  0.13502122234E+03  0.25328341432E+02  0.60627964334E+03  0.64599245689E+03  0.17566727945E+03 0.  0.
        -24    2    5    5    0    0  0.39133618371E+02  0.58287350090E+02  0.17879897941E+03  0.20662639439E+03  0.76134989010E+02 0.  0.
          5    1    3    3  501    0 -0.13933877865E+02  0.34478039228E+02  0.94396320914E+02  0.10156595662E+03  0.47000000000E+01 0. -1.
        -13    1    4    4    0    0 -0.75282518536E+01 -0.30746394002E+02 -0.91796373635E+01  0.32958778228E+02  0.00000000000E+00 0.  1.
         14    1    4    4    0    0 -0.11355909262E+03 -0.29059986658E+02  0.68349100674E+02  0.13568990347E+03  0.00000000000E+00 0. -1.
         -5    1    5    5    0  502  0.95887603968E+02 -0.32959008658E+02  0.42748066393E+03  0.43936606251E+03  0.47000000000E+01 0.  1.
         11    1    6    6    0    0  0.24347966928E+02 -0.10621780260E+02  0.21200068408E+02  0.33986594562E+02  0.00000000000E+00 0. -1.
        -12    1    6    6    0    0  0.14785651443E+02  0.68909130350E+02  0.15759891100E+03  0.17263979983E+03  0.00000000000E+00 0.  1.
<mgrwt>
<rscale>  2 0.22283771E+03</rscale>
<asrwt>0</asrwt>
<pdfrwt beam="1">  1       21 0.12892711E+00 0.22300504E+03</pdfrwt>
<pdfrwt beam="2">  1       21 0.12027821E-01 0.22300504E+03</pdfrwt>
<totfact> 0.25330260E+04</totfact>
</mgrwt>
</event>
<event>
12    1  0.1071811E-001  0.1833126E+03  0.7546771E-02  0.1165719E+00
         21   -1    0    0  501  502  0.00000000000E+00  0.00000000000E+00  0.13249120735E+03  0.13249120735E+03  0.00000000000E+00 0.  1.
         21   -1    0    0  502  503 -0.00000000000E+00 -0.00000000000E+00 -0.26183741421E+03  0.26183741421E+03  0.00000000000E+00 0.  1.
         -6    2    1    2    0  503  0.48318858478E+02 -0.30230960266E+02 -0.11172671410E+03  0.21467738258E+03  0.17422656774E+03 0.  0.
        -24    2    3    3    0    0  0.85106792194E+01 -0.66046073015E+02 -0.10280060756E+02  0.99869164619E+02  0.73713329671E+02 0.  0.
          6    2    1    2  501    0 -0.48318858478E+02  0.30230960266E+02 -0.17619492751E+02  0.17965123898E+03  0.16945647848E+03 0.  0.
         24    2    5    5    0    0 -0.48945525846E+02 -0.45079228334E+02 -0.17980372063E+02  0.10419106768E+03  0.78132473895E+02 0.  0.
          5    1    5    5  501    0  0.62666736795E+00  0.75310188599E+02  0.36087931162E+00  0.75460171301E+02  0.47000000000E+01 0. -1.
        -11    1    6    6    0    0 -0.46482283683E+02 -0.14898701655E+02  0.22410059893E+02  0.53710192625E+02  0.00000000000E+00 0.  1.
         12    1    6    6    0    0 -0.24632421621E+01 -0.30180526678E+02 -0.40390431956E+02  0.50480875053E+02  0.00000000000E+00 0. -1.
         -5    1    3    3    0  503  0.39808179258E+02  0.35815112749E+02 -0.10144665335E+03  0.11480821796E+03  0.47000000000E+01 0.  1.
         13    1    4    4    0    0 -0.22711238808E+02 -0.13197308716E+02  0.18446482090E+02  0.32097383492E+02  0.00000000000E+00 0. -1.
        -14    1    4    4    0    0  0.31221918028E+02 -0.52848764299E+02 -0.28726542846E+02  0.67771781127E+02  0.00000000000E+00 0.  1.
<mgrwt>
<rscale>  2 0.18217012E+03</rscale>
<asrwt>0</asrwt>
<pdfrwt beam="1">  1       21 0.20383263E-01 0.18331263E+03</pdfrwt>
<pdfrwt beam="2">  1       21 0.40282679E-01 0.18331263E+03</pdfrwt>
<totfact> 0.13271419E+05</totfact>
</mgrwt>
</event>
<event>
12    1  0.1071811E-001  0.2404330E+03  0.7546771E-02  0.1119854E+00
         21   -1    0    0  501  502  0.00000000000E+00  0.00000000000E+00  0.99014047496E+02  0.99014047496E+02  0.00000000000E+00 0. -1.
         21   -1    0    0  502  503 -0.00000000000E+00 -0.00000000000E+00 -0.82246016068E+03  0.82246016068E+03  0.00000000000E+00 0.  1.
         -6    2    1    2    0  503  0.15050000039E+03 -0.71331255238E+02 -0.61362924455E+03  0.65905148536E+03  0.17340591832E+03 0.  0.
        -24    2    3    3    0    0  0.83223995558E+02  0.15507168744E+02 -0.42615711014E+03  0.44171565334E+03  0.79599812551E+02 0.  0.
          6    2    1    2  501    0 -0.15050000039E+03  0.71331255238E+02 -0.10981686863E+03  0.26242272281E+03  0.17049206058E+03 0.  0.
         24    2    5    5    0    0 -0.39633972027E+02  0.85162830165E+02 -0.78405795272E+02  0.14627051991E+03  0.80150089717E+02 0.  0.
          5    1    5    5  501    0 -0.11086602836E+03 -0.13831574927E+02 -0.31411073362E+02  0.11615220290E+03  0.47000000000E+01 0. -1.
        -13    1    6    6    0    0 -0.41199039214E+02  0.61343129446E+02 -0.92621923457E+02  0.11848696581E+03  0.00000000000E+00 0.  1.
         14    1    6    6    0    0  0.15650671879E+01  0.23819700719E+02  0.14216128185E+02  0.27783554096E+02  0.00000000000E+00 0. -1.
         -5    1    3    3    0  503  0.67276004828E+02 -0.86838423981E+02 -0.18747213440E+03  0.21733583203E+03  0.47000000000E+01 0.  1.
         13    1    4    4    0    0  0.82219269958E+02  0.11933786498E+02 -0.21452306374E+03  0.23004905670E+03  0.00000000000E+00 0. -1.
        -14    1    4    4    0    0  0.10047255992E+01  0.35733822455E+01 -0.21163404641E+03  0.21166659664E+03  0.00000000000E+00 0.  1.
<mgrwt>
<rscale>  2 0.23990800E+03</rscale>
<asrwt>0</asrwt>
<pdfrwt beam="1">  1       21 0.15232930E-01 0.24043296E+03</pdfrwt>
<pdfrwt beam="2">  1       21 0.12653233E+00 0.24043296E+03</pdfrwt>
<totfact> 0.17136903E+04</totfact>
</mgrwt>
</event>
<event>
12    1  0.1071811E-001  0.1999011E+03  0.7546771E-02  0.1150079E+00
         21   -1    0    0  503  502  0.00000000000E+00  0.00000000000E+00  0.18032722586E+03  0.18032722586E+03  0.00000000000E+00 0.  1.
         21   -1    0    0  501  503 -0.00000000000E+00 -0.00000000000E+00 -0.24381078626E+03  0.24381078626E+03  0.00000000000E+00 0.  1.
          6    2    1    2  501    0  0.77063633320E+02  0.62375781385E+02 -0.97742943256E+02  0.22251773705E+03  0.17358259896E+03 0.  0.
         24    2    3    3    0    0  0.51868902204E+02  0.32906476443E+02 -0.13791034845E+03  0.16649341331E+03  0.70196675549E+02 0.  0.
         -6    2    1    2    0  502 -0.77063633320E+02 -0.62375781385E+02  0.34259382854E+02  0.20162027507E+03  0.17218446017E+03 0.  0.
        -24    2    5    5    0    0 -0.48890622641E+02 -0.10041391719E+03 -0.67973151686E+01  0.13878429208E+03  0.82107420403E+02 0.  0.
          5    1    3    3  501    0  0.25194731116E+02  0.29469304942E+02  0.40167405198E+02  0.56024323737E+02  0.47000000000E+01 0. -1.
        -11    1    4    4    0    0 -0.44355430383E+01  0.36522741609E+02 -0.57526816790E+02  0.68285572024E+02  0.00000000000E+00 0.  1.
         12    1    4    4    0    0  0.56304445242E+02 -0.36162651660E+01 -0.80383531664E+02  0.98207841289E+02  0.00000000000E+00 0. -1.
         -5    1    5    5    0  502 -0.28173010679E+02  0.38038135809E+02  0.41056698022E+02  0.62835982995E+02  0.47000000000E+01 0.  1.
         13    1    6    6    0    0  0.96022153092E+01  0.94153865037E+01 -0.49684518659E+01  0.14336581036E+02  0.00000000000E+00 0. -1.
        -14    1    6    6    0    0 -0.58492837951E+02 -0.10982930370E+03 -0.18288633027E+01  0.12444771104E+03  0.00000000000E+00 0.  1.
<mgrwt>
<rscale>  2 0.19959722E+03</rscale>
<asrwt>0</asrwt>
<pdfrwt beam="1">  1       21 0.27742650E-01 0.19990113E+03</pdfrwt>
<pdfrwt beam="2">  1       21 0.37509352E-01 0.19990113E+03</pdfrwt>
<totfact> 0.84759623E+04</totfact>
</mgrwt>
</event>
<event>
12    1  0.1071811E-001  0.1720637E+03  0.7546771E-02  0.1175896E+00
         21   -1    0    0  501  502  0.00000000000E+00  0.00000000000E+00  0.45604378800E+02  0.45604378800E+02  0.00000000000E+00 0.  1.
         21   -1    0    0  502  503 -0.00000000000E+00 -0.00000000000E+00 -0.18302507691E+04  0.18302507691E+04  0.00000000000E+00 0.  1.
         -6    2    1    2    0  503 -0.44732642823E+01  0.20536434594E+02 -0.16472782842E+04  0.16562402152E+04  0.17077514322E+03 0.  0.
        -24    2    3    3    0    0 -0.41721238946E+02  0.66667578620E+02 -0.10294072586E+04  0.10355130703E+04  0.80142291997E+02 0.  0.
          6    2    1    2  501    0  0.44732642823E+01 -0.20536434594E+02 -0.13736810614E+03  0.21961493276E+03  0.17005577576E+03 0.  0.
         24    2    5    5    0    0  0.63141225479E+02 -0.31538709008E+02 -0.68989568829E+02  0.12872657224E+03  0.82640578851E+02 0.  0.
          5    1    5    5  501    0 -0.58667961196E+02  0.11002274414E+02 -0.68378537313E+02  0.90888360521E+02  0.47000000000E+01 0. -1.
        -11    1    6    6    0    0  0.39057015793E+01 -0.36654552071E+02 -0.57298984956E+02  0.68132109679E+02  0.00000000000E+00 0.  1.
         12    1    6    6    0    0  0.59235523899E+02  0.51158430626E+01 -0.11690583873E+02  0.60594462562E+02  0.00000000000E+00 0. -1.
         -5    1    3    3    0  503  0.37247974664E+02 -0.46131144026E+02 -0.61787102560E+03  0.62072714484E+03  0.47000000000E+01 0.  1.
         11    1    4    4    0    0 -0.80795919257E+01  0.44259910103E+02 -0.19482339999E+03  0.19995093556E+03  0.00000000000E+00 0. -1.
        -12    1    4    4    0    0 -0.33641647021E+02  0.22407668517E+02 -0.83458385861E+03  0.83556213478E+03  0.00000000000E+00 0.  1.
<mgrwt>
<rscale>  2 0.17188490E+03</rscale>
<asrwt>0</asrwt>
<pdfrwt beam="1">  1       21 0.70160585E-02 0.17206366E+03</pdfrwt>
<pdfrwt beam="2">  1       21 0.28157703E+00 0.17206366E+03</pdfrwt>
<totfact> 0.67210056E+03</totfact>
</mgrwt>
</event>
<event>
11    1  0.1071811E-001  0.1791101E+03  0.7546771E-02  0.1169679E+00
         21   -1    0    0  503  502  0.00000000000E+00  0.00000000000E+00  0.19199429872E+04  0.19199429872E+04  0.00000000000E+00 0.  1.
         21   -1    0    0  501  503 -0.00000000000E+00 -0.00000000000E+00 -0.76172559711E+02  0.76172559711E+02  0.00000000000E+00 0.  1.
          6    2    1    2  501    0 -0.24576545579E+02 -0.35528858571E+02  0.34967520471E+02  0.17846640780E+03  0.16959134660E+03 0.  0.
         -6    2    1    2    0  502  0.24576545579E+02  0.35528858571E+02  0.18088029070E+04  0.18176491391E+04  0.17382212197E+03 0.  0.
        -24    2    4    4    0    0  0.47503011229E+02  0.46042613688E+00  0.46532464277E+03  0.47350950564E+03  0.73671437383E+02 0.  0.
          5    1    3    3  501    0 -0.42983709264E+02  0.17309541769E+02 -0.59218302831E+01  0.46950799485E+02  0.47000000000E+01 0. -1.
        -13    1    3    3    0    0 -0.34274041979E+02  0.15276516705E+02  0.36613185687E+01  0.37702614895E+02  0.00000000000E+00 0.  1.
         14    1    3    3    0    0  0.52681205665E+02 -0.68114917045E+02  0.37228032186E+02  0.93812993421E+02  0.00000000000E+00 0. -1.
         -5    1    4    4    0  502 -0.22926465650E+02  0.35068432434E+02  0.13434782643E+04  0.13441396335E+04  0.47000000000E+01 0.  1.
         13    1    5    5    0    0 -0.11478892636E+01 -0.37886924596E+01 -0.14283907075E+01  0.42085793717E+01  0.00000000000E+00 0. -1.
        -14    1    5    5    0    0  0.48650900493E+02  0.42491185965E+01  0.46675303348E+03  0.46930092626E+03  0.00000000000E+00 0.  1.
<mgrwt>
<rscale>  2 0.17807547E+03</rscale>
<asrwt>0</asrwt>
<pdfrwt beam="1">  1       21 0.29537581E+00 0.17911012E+03</pdfrwt>
<pdfrwt beam="2">  1       21 0.11718857E-01 0.17911012E+03</pdfrwt>
<totfact> 0.22610699E+03</totfact>
</mgrwt>
</event>
<event>
12    1  0.1071811E-001  0.2959074E+03  0.7546771E-02  0.1087328E+00
         21   -1    0    0  501  502  0.00000000000E+00  0.00000000000E+00  0.98926482928E+02  0.98926482928E+02  0.00000000000E+00 0. -1.
         21   -1    0    0  502  503 -0.00000000000E+00 -0.00000000000E+00 -0.96898742895E+03  0.96898742895E+03  0.00000000000E+00 0.  1.
         -6    2    1    2    0  503  0.18350497445E+03  0.15391455988E+03 -0.27730214070E+03  0.40540038923E+03  0.17346247709E+03 0.  0.
        -24    2    3    3    0    0  0.24486340932E+02  0.90843598958E+02 -0.13496487500E+03  0.18280915148E+03  0.79696474294E+02 0.  0.
          6    2    1    2  501    0 -0.18350497445E+03 -0.15391455988E+03 -0.59275880533E+03  0.66251352265E+03  0.17377398831E+03 0.  0.
         24    2    5    5    0    0 -0.52387848313E+02 -0.11326110523E+03 -0.22302684097E+03  0.26809214949E+03  0.80992988680E+02 0.  0.
          5    1    5    5  501    0 -0.13111712614E+03 -0.40653454648E+02 -0.36973196436E+03  0.39442137316E+03  0.47000000000E+01 0. -1.
        -13    1    6    6    0    0 -0.25137363688E+02  0.52201161700E+01 -0.54982480789E+02  0.60681215048E+02  0.00000000000E+00 0.  1.
         14    1    6    6    0    0 -0.27250484626E+02 -0.11848122140E+03 -0.16804436018E+03  0.20741093444E+03  0.00000000000E+00 0. -1.
         -5    1    3    3    0  503  0.15901863352E+03  0.63070960919E+02 -0.14233726570E+03  0.22259123775E+03  0.47000000000E+01 0.  1.
         11    1    4    4    0    0  0.39712897546E+02  0.21749107289E+02 -0.24103646150E+02  0.51294479792E+02  0.00000000000E+00 0. -1.
        -12    1    4    4    0    0 -0.15226556614E+02  0.69094491669E+02 -0.11086122885E+03  0.13151467168E+03  0.00000000000E+00 0.  1.
<mgrwt>
<rscale>  2 0.29586164E+03</rscale>
<asrwt>0</asrwt>
<pdfrwt beam="1">  1       21 0.15219459E-01 0.29590736E+03</pdfrwt>
<pdfrwt beam="2">  1       21 0.14907499E+00 0.29590736E+03</pdfrwt>
<totfact> 0.10894517E+04</totfact>
</mgrwt>
</event>
<event>
12    1  0.1071811E-001  0.2116480E+03  0.7546771E-02  0.1140433E+00
         21   -1    0    0  503  502  0.00000000000E+00  0.00000000000E+00  0.23738796778E+04  0.23738796778E+04  0.00000000000E+00 0.  1.
         21   -1    0    0  501  503 -0.00000000000E+00 -0.00000000000E+00 -0.43033931140E+02  0.43033931140E+02  0.00000000000E+00 0.  1.
          6    2    1    2  501    0 -0.11604369453E+03  0.35764141596E+02  0.25948810187E+03  0.33485660713E+03  0.17334837601E+03 0.  0.
         24    2    3    3    0    0 -0.11835658699E+03  0.45185474016E+02  0.11418953497E+03  0.18915871930E+03  0.81803193365E+02 0.  0.
         -6    2    1    2    0  502  0.11604369453E+03 -0.35764141596E+02  0.20713576448E+04  0.20820570018E+04  0.17231846474E+03 0.  0.
        -24    2    5    5    0    0  0.85564399523E+02 -0.89630752527E+02  0.15632677284E+04  0.15701897805E+04  0.79592823853E+02 0.  0.
          5    1    3    3  501    0  0.23128924606E+01 -0.94213324196E+01  0.14529856690E+03  0.14569788783E+03  0.47000000000E+01 0. -1.
        -11    1    4    4    0    0 -0.10033062069E+03  0.22806911073E+02  0.12179095272E+03  0.15943470389E+03  0.00000000000E+00 0.  1.
         12    1    4    4    0    0 -0.18025966295E+02  0.22378562943E+02 -0.76014177450E+01  0.29724015409E+02  0.00000000000E+00 0. -1.
         -5    1    5    5    0  502  0.30479295003E+02  0.53866610930E+02  0.50808991632E+03  0.51186722132E+03  0.47000000000E+01 0. -1.
         13    1    6    6    0    0  0.43885125073E+02 -0.52853284943E+02  0.42081005531E+03  0.42638067098E+03  0.00000000000E+00 0. -1.
        -14    1    6    6    0    0  0.41679274450E+02 -0.36777467584E+02  0.11424576731E+04  0.11438091095E+04  0.00000000000E+00 0.  1.
<mgrwt>
<rscale>  2 0.21143700E+03</rscale>
<asrwt>0</asrwt>
<pdfrwt beam="1">  1       21 0.36521216E+00 0.21164799E+03</pdfrwt>
<pdfrwt beam="2">  1       21 0.66206066E-02 0.21164799E+03</pdfrwt>
<totfact> 0.23057840E+03</totfact>
</mgrwt>
</event>
<event>
12    1  0.1071811E-001  0.1956486E+03  0.7546771E-02  0.1154187E+00
         21   -1    0    0  503  502  0.00000000000E+00  0.00000000000E+00  0.41155154286E+03  0.41155154286E+03  0.00000000000E+00 0. -1.
         21   -1    0    0  501  503 -0.00000000000E+00 -0.00000000000E+00 -0.15583983810E+03  0.15583983810E+03  0.00000000000E+00 0. -1.
          6    2    1    2  501    0  0.28781615557E+02 -0.85543235270E+02 -0.53865598860E+02  0.20292827120E+03  0.17358673341E+03 0.  0.
         24    2    3    3    0    0 -0.11024041571E+02  0.16199087517E+02 -0.75350737724E+01  0.84165490240E+02  0.81505291127E+02 0.  0.
         -6    2    1    2    0  502 -0.28781615557E+02  0.85543235270E+02  0.30957730362E+03  0.36446310977E+03  0.16985059604E+03 0.  0.
        -24    2    5    5    0    0  0.30501794633E+02  0.96556245629E+02  0.17319287603E+03  0.21526990882E+03  0.78050581617E+02 0.  0.
          5    1    3    3  501    0  0.39805657127E+02 -0.10174232279E+03 -0.46330525087E+02  0.11876278096E+03  0.47000000000E+01 0. -1.
        -11    1    4    4    0    0 -0.33980275613E+02 -0.41099233852E+00  0.24126415506E+02  0.41676275873E+02  0.00000000000E+00 0.  1.
         12    1    4    4    0    0  0.22956234043E+02  0.16610079856E+02 -0.31661489278E+02  0.42489214367E+02  0.00000000000E+00 0. -1.
         -5    1    5    5    0  502 -0.59283410190E+02 -0.11013010359E+02  0.13638442759E+03  0.14919320095E+03  0.47000000000E+01 0.  1.
         11    1    6    6    0    0 -0.17747042952E+02  0.66707003345E+02  0.11406061720E+03  0.13332143948E+03  0.00000000000E+00 0. -1.
        -12    1    6    6    0    0  0.48248837585E+02  0.29849242284E+02  0.59132258830E+02  0.81948469342E+02  0.00000000000E+00 0.  1.
<mgrwt>
<rscale>  2 0.19481654E+03</rscale>
<asrwt>0</asrwt>
<pdfrwt beam="1">  1       21 0.63315621E-01 0.19564861E+03</pdfrwt>
<pdfrwt beam="2">  1       21 0.23975360E-01 0.19564861E+03</pdfrwt>
<totfact> 0.37791105E+04</totfact>
</mgrwt>
</event>
<event>
12    1  0.1071811E-001  0.2412191E+03  0.7546771E-02  0.1119151E+00
         21   -1    0    0  501  502  0.00000000000E+00  0.00000000000E+00  0.22807864011E+03  0.22807864011E+03  0.00000000000E+00 0. -1.
         21   -1    0    0  502  503 -0.00000000000E+00 -0.00000000000E+00 -0.38243861725E+03  0.38243861725E+03  0.00000000000E+00 0.  1.
         -6    2    1    2    0  503 -0.45425423254E+01 -0.16739110242E+03 -0.25415542655E+03  0.35040207622E+03  0.17362666359E+03 0.  0.
        -24    2    3    3    0    0 -0.27320301656E+02 -0.18884869044E+03 -0.23612453118E+03  0.31398151071E+03  0.80120959070E+02 0.  0.
          6    2    1    2  501    0  0.45425423254E+01  0.16739110242E+03  0.99795449411E+02  0.26011518115E+03  0.17222183334E+03 0.  0.
         24    2    5    5    0    0 -0.33964356348E+01  0.59648092723E+02  0.11209053511E+03  0.15128116697E+03  0.82172213545E+02 0.  0.
          5    1    5    5  501    0  0.79389779602E+01  0.10774300970E+03 -0.12295085696E+02  0.10883401418E+03  0.47000000000E+01 0. -1.
        -13    1    6    6    0    0 -0.24197223680E+02 -0.10032118135E+02  0.15707325249E+02  0.30542905798E+02  0.00000000000E+00 0.  1.
         14    1    6    6    0    0  0.20800788046E+02  0.69680210857E+02  0.96383209858E+02  0.12073826117E+03  0.00000000000E+00 0. -1.
         -5    1    3    3    0  503  0.22777759331E+02  0.21457588019E+02 -0.18030895380E+02  0.36420565508E+02  0.47000000000E+01 0.  1.
         11    1    4    4    0    0  0.68931181975E+01  0.37965892856E+01 -0.75291784624E+00  0.79054445778E+01  0.00000000000E+00 0. -1.
        -12    1    4    4    0    0 -0.34213419854E+02 -0.19264527972E+03 -0.23537161333E+03  0.30607606613E+03  0.00000000000E+00 0.  1.
<mgrwt>
<rscale>  2 0.24096636E+03</rscale>
<asrwt>0</asrwt>
<pdfrwt beam="1">  1       21 0.35089022E-01 0.24121906E+03</pdfrwt>
<pdfrwt beam="2">  1       21 0.58836710E-01 0.24121906E+03</pdfrwt>
<totfact> 0.20597069E+04</totfact>
</mgrwt>
</event>
<event>
12    1  0.1071811E-001  0.2788321E+03  0.7546771E-02  0.1096505E+00
         21   -1    0    0  501  502  0.00000000000E+00  0.00000000000E+00  0.11083723410E+04  0.11083723410E+04  0.00000000000E+00 0.  1.
         21   -1    0    0  502  503 -0.00000000000E+00 -0.00000000000E+00 -0.81569001435E+02  0.81569001435E+02  0.00000000000E+00 0. -1.
         -6    2    1    2    0  503 -0.20481322606E+03  0.67296111587E+02  0.28661448526E+03  0.39897555320E+03  0.17480390350E+03 0.  0.
        -24    2    3    3    0    0 -0.95316123571E+02  0.19681775555E+02  0.23760202796E+03  0.26982040842E+03  0.82920404055E+02 0.  0.
          6    2    1    2  501    0  0.20481322606E+03 -0.67296111587E+02  0.74018885431E+03  0.79096578925E+03  0.17683358139E+03 0.  0.
         24    2    5    5    0    0  0.91801424842E+02 -0.11866044996E+02  0.54756123263E+03  0.56081008080E+03  0.78207024094E+02 0.  0.
          5    1    5    5  501    0  0.11301180122E+03 -0.55430066591E+02  0.19262762168E+03  0.23015570845E+03  0.47000000000E+01 0. -1.
        -11    1    6    6    0    0  0.97165998926E+02 -0.32661598970E+01  0.35764583445E+03  0.37062439484E+03  0.00000000000E+00 0.  1.
         12    1    6    6    0    0 -0.53645740843E+01 -0.85998850995E+01  0.18991539818E+03  0.19018568596E+03  0.00000000000E+00 0. -1.
         -5    1    3    3    0  503 -0.10949710249E+03  0.47614336032E+02  0.49012457300E+02  0.12915514477E+03  0.47000000000E+01 0.  1.
         13    1    4    4    0    0 -0.90071294368E+02  0.39367731111E+02  0.14618646070E+03  0.17616224798E+03  0.00000000000E+00 0. -1.
        -14    1    4    4    0    0 -0.52448292024E+01 -0.19685955556E+02  0.91415567262E+02  0.93658160442E+02  0.00000000000E+00 0.  1.
<mgrwt>
<rscale>  2 0.27851085E+03</rscale>
<asrwt>0</asrwt>
<pdfrwt beam="1">  1       21 0.17051881E+00 0.27883210E+03</pdfrwt>
<pdfrwt beam="2">  1       21 0.12549078E-01 0.27883210E+03</pdfrwt>
<totfact> 0.10824704E+04</totfact>
</mgrwt>
</event>
<event>
12    1  0.1071811E-001  0.2119956E+03  0.7546771E-02  0.1140663E+00
         21   -1    0    0  503  502  0.00000000000E+00  0.00000000000E+00  0.28971426004E+03  0.28971426004E+03  0.00000000000E+00 0. -1.
         21   -1    0    0  501  503 -0.00000000000E+00 -0.00000000000E+00 -0.34114111686E+03  0.34114111686E+03  0.00000000000E+00 0. -1.
          6    2    1    2  501    0 -0.89623240658E+02 -0.74471673041E+02 -0.26026191981E+03  0.33567605976E+03  0.17709826325E+03 0.  0.
         24    2    3    3    0    0  0.14708801618E+02 -0.37388703747E+01 -0.13624696587E+03  0.15878597181E+03  0.80121290155E+02 0.  0.
         -6    2    1    2    0  502  0.89623240658E+02  0.74471673041E+02  0.20883506300E+03  0.29517931714E+03  0.17303291703E+03 0.  0.
        -24    2    5    5    0    0 -0.19407254946E+02  0.17489561645E+02  0.10286850523E+03  0.13274283307E+03  0.79725805435E+02 0.  0.
          5    1    3    3  501    0 -0.10433204228E+03 -0.70732802666E+02 -0.12401495393E+03  0.17689008796E+03  0.47000000000E+01 0. -1.
        -11    1    4    4    0    0  0.23698157703E+02  0.25166322456E+02 -0.22896621746E+02  0.41463257854E+02  0.00000000000E+00 0.  1.
         12    1    4    4    0    0 -0.89893560846E+01 -0.28905192831E+02 -0.11335034413E+03  0.11732271395E+03  0.00000000000E+00 0. -1.
         -5    1    5    5    0  502  0.10903049560E+03  0.56982111396E+02  0.10596655777E+03  0.16243648407E+03  0.47000000000E+01 0.  1.
         11    1    6    6    0    0  0.18715797282E+02 -0.22072035585E+02  0.34206004186E+02  0.44805206675E+02  0.00000000000E+00 0. -1.
        -12    1    6    6    0    0 -0.38123052228E+02  0.39561597230E+02  0.68662501039E+02  0.87937626392E+02  0.00000000000E+00 0.  1.
<mgrwt>
<rscale>  2 0.21114448E+03</rscale>
<asrwt>0</asrwt>
<pdfrwt beam="1">  1       21 0.44571425E-01 0.21199564E+03</pdfrwt>
<pdfrwt beam="2">  1       21 0.52483248E-01 0.21199564E+03</pdfrwt>
<totfact> 0.16441013E+04</totfact>
</mgrwt>
</event>
<event>
12    1  0.1071811E-001  0.1846425E+03  0.7546771E-02  0.1164867E+00
         21   -1    0    0  501  502  0.00000000000E+00  0.00000000000E+00  0.26178102823E+03  0.26178102823E+03  0.00000000000E+00 0. -1.
         21   -1    0    0  502  503 -0.00000000000E+00 -0.00000000000E+00 -0.17430595039E+03  0.17430595039E+03  0.00000000000E+00 0. -1.
         -6    2    1    2    0  503 -0.24173675038E+02 -0.38474303333E+02 -0.70631578844E+02  0.19769088887E+03  0.17896432334E+03 0.  0.
        -24    2    3    3    0    0  0.27949874824E+02  0.44147309007E+01 -0.95317096982E+02  0.12566451513E+03  0.76847485545E+02 0.  0.
          6    2    1    2  501    0  0.24173675038E+02  0.38474303333E+02  0.15810665668E+03  0.23839608975E+03  0.17254084195E+03 0.  0.
         24    2    5    5    0    0  0.71968303738E+02  0.44591286276E+02  0.14840866308E+03  0.18902114578E+03  0.80845795921E+02 0.  0.
          5    1    5    5  501    0 -0.47794628700E+02 -0.61169829430E+01  0.96979936022E+01  0.49374943978E+02  0.47000000000E+01 0. -1.
        -11    1    6    6    0    0  0.37328032683E+02  0.29392069230E+02  0.14206236829E+02  0.49589242003E+02  0.00000000000E+00 0.  1.
         12    1    6    6    0    0  0.34640271055E+02  0.15199217046E+02  0.13420242625E+03  0.13943190377E+03  0.00000000000E+00 0. -1.
         -5    1    3    3    0  503 -0.52123549862E+02 -0.42889034234E+02  0.24685518138E+02  0.72026373735E+02  0.47000000000E+01 0.  1.
         11    1    4    4    0    0  0.18198690908E+02 -0.22444877301E+02 -0.92549948266E+02  0.96955958001E+02  0.00000000000E+00 0. -1.
        -12    1    4    4    0    0  0.97511839158E+01  0.26859608201E+02 -0.27671487154E+01  0.28708557130E+02  0.00000000000E+00 0.  1.
<mgrwt>
<rscale>  2 0.18306777E+03</rscale>
<asrwt>0</asrwt>
<pdfrwt beam="1">  1       21 0.40274004E-01 0.18464254E+03</pdfrwt>
<pdfrwt beam="2">  1       21 0.26816300E-01 0.18464254E+03</pdfrwt>
<totfact> 0.78926770E+04</totfact>
</mgrwt>
</event>
<event>
11    1  0.1071811E-001  0.1905154E+03  0.7546771E-02  0.1158336E+00
         21   -1    0    0  503  502  0.00000000000E+00  0.00000000000E+00  0.23179856463E+03  0.23179856463E+03  0.00000000000E+00 0.  1.
         21   -1    0    0  501  503 -0.00000000000E+00 -0.00000000000E+00 -0.18333460592E+03  0.18333460592E+03  0.00000000000E+00 0.  1.
          6    2    1    2  501    0  0.80089397880E+02 -0.18131348929E+02 -0.56939204998E+02  0.19740408403E+03  0.17024465296E+03 0.  0.
         24    2    3    3    0    0  0.76211598436E+02 -0.20755237736E+02 -0.10135870559E+03  0.15249190134E+03  0.82104842408E+02 0.  0.
         -6    2    1    2    0  502 -0.80089397880E+02  0.18131348929E+02  0.10540316370E+03  0.21772908651E+03  0.17191006582E+03 0.  0.
          5    1    3    3  501    0  0.38777994436E+01  0.26238888070E+01  0.44419500594E+02  0.44912182690E+02  0.47000000000E+01 0. -1.
        -13    1    4    4    0    0  0.13541733979E+02 -0.10657700288E+02 -0.85287355480E+02  0.87010908163E+02  0.00000000000E+00 0.  1.
         14    1    4    4    0    0  0.62669864457E+02 -0.10097537448E+02 -0.16071350111E+02  0.65480993181E+02  0.00000000000E+00 0. -1.
         -5    1    5    5    0  502 -0.98238237977E+02 -0.31436870087E+02  0.11208775886E+03  0.15239679750E+03  0.47000000000E+01 0.  1.
         11    1    5    5    0    0 -0.63901985890E+01  0.19494882718E+02  0.10309840146E+02  0.22960354833E+02  0.00000000000E+00 0. -1.
        -12    1    5    5    0    0  0.24539038686E+02  0.30073336297E+02 -0.16994435298E+02  0.42371934187E+02  0.00000000000E+00 0.  1.
<mgrwt>
<rscale>  2 0.19013896E+03</rscale>
<asrwt>0</asrwt>
<pdfrwt beam="1">  1       21 0.35661318E-01 0.19051543E+03</pdfrwt>
<pdfrwt beam="2">  1       21 0.28205324E-01 0.19051543E+03</pdfrwt>
<totfact> 0.91157866E+04</totfact>
</mgrwt>
</event>
<event>
12    1  0.1071811E-001  0.2126537E+03  0.7546771E-02  0.1139932E+00
         21   -1    0    0  503  502  0.00000000000E+00  0.00000000000E+00  0.10505942579E+04  0.10505942579E+04  0.00000000000E+00 0. -1.
         21   -1    0    0  501  503 -0.00000000000E+00 -0.00000000000E+00 -0.43973334009E+02  0.43973334009E+02  0.00000000000E+00 0. -1.
          6    2    1    2  501    0  0.11935742550E+03  0.13506026578E+02  0.40853513195E+03  0.46056763277E+03  0.17547929375E+03 0.  0.
         24    2    3    3    0    0  0.71195253754E+02 -0.38191023700E+02  0.35081095723E+03  0.36920927167E+03  0.81974630993E+02 0.  0.
         -6    2    1    2    0  502 -0.11935742550E+03 -0.13506026578E+02  0.59808579189E+03  0.63399995909E+03  0.17268678553E+03 0.  0.
        -24    2    5    5    0    0 -0.63558412606E+02  0.41243497974E+02  0.20406968811E+03  0.23227639703E+03  0.81038195160E+02 0.  0.
          5    1    3    3  501    0  0.48162171744E+02  0.51697050278E+02  0.57724174722E+02  0.91358361095E+02  0.47000000000E+01 0. -1.
        -11    1    4    4    0    0 -0.11510172451E+02 -0.13230921805E+02  0.17086643525E+02  0.24484581855E+02  0.00000000000E+00 0.  1.
         12    1    4    4    0    0  0.82705426205E+02 -0.24960101895E+02  0.33372431371E+03  0.34472468982E+03  0.00000000000E+00 0. -1.
         -5    1    5    5    0  502 -0.55799012893E+02 -0.54749524553E+02  0.39401610378E+03  0.40172356206E+03  0.47000000000E+01 0.  1.
         13    1    6    6    0    0 -0.63582815522E+02  0.29373006139E+01  0.78884563737E+02  0.10136161286E+03  0.00000000000E+00 0. -1.
        -14    1    6    6    0    0  0.24402916616E-01  0.38306197361E+02  0.12518512438E+03  0.13091478418E+03  0.00000000000E+00 0.  1.
<mgrwt>
<rscale>  2 0.21207673E+03</rscale>
<asrwt>0</asrwt>
<pdfrwt beam="1">  1       21 0.16162987E+00 0.21265369E+03</pdfrwt>
<pdfrwt beam="2">  1       21 0.67651291E-02 0.21265369E+03</pdfrwt>
<totfact> 0.38819113E+04</totfact>
</mgrwt>
</event>
<event>
12    1  0.1071811E-001  0.2806484E+03  0.7546771E-02  0.1095360E+00
         21   -1    0    0  501  502  0.00000000000E+00  0.00000000000E+00  0.13268351249E+03  0.13268351249E+03  0.00000000000E+00 0.  1.
         21   -1    0    0  502  503 -0.00000000000E+00 -0.00000000000E+00 -0.59327359270E+03  0.59327359270E+03  0.00000000000E+00 0. -1.
         -6    2    1    2    0  503 -0.17873503825E+03  0.12989657965E+03 -0.22748544705E+03  0.36112657597E+03  0.17275253963E+03 0.  0.
        -24    2    3    3    0    0 -0.18601547462E+03  0.10450109495E+03 -0.24115075471E+03  0.33101401995E+03  0.76774730637E+02 0.  0.
          6    2    1    2  501    0  0.17873503825E+03 -0.12989657965E+03 -0.23310463316E+03  0.36483052922E+03  0.17304395322E+03 0.  0.
         24    2    5    5    0    0  0.77773313188E+02 -0.99355378761E+02 -0.58149798725E+02  0.16048445274E+03  0.80334805331E+02 0.  0.
          5    1    5    5  501    0  0.10096172506E+03 -0.30541200887E+02 -0.17495483444E+03  0.20434607648E+03  0.47000000000E+01 0. -1.
        -13    1    6    6    0    0  0.61956477997E+01 -0.70947213603E+02 -0.17200168519E+02  0.73264854922E+02  0.00000000000E+00 0.  1.
         14    1    6    6    0    0  0.71577665388E+02 -0.28408165159E+02 -0.40949630206E+02  0.87219597822E+02  0.00000000000E+00 0. -1.
         -5    1    3    3    0  503  0.72804363713E+01  0.25395484701E+02  0.13665307653E+02  0.30112556022E+02  0.47000000000E+01 0.  1.
         11    1    4    4    0    0 -0.14217378403E+03  0.68188127925E+02 -0.21915496815E+03  0.26998501017E+03  0.00000000000E+00 0. -1.
        -12    1    4    4    0    0 -0.43841690592E+02  0.36312967023E+02 -0.21995786560E+02  0.61029009777E+02  0.00000000000E+00 0.  1.
<mgrwt>
<rscale>  2 0.28060353E+03</rscale>
<asrwt>0</asrwt>
<pdfrwt beam="1">  1       21 0.20412849E-01 0.28064844E+03</pdfrwt>
<pdfrwt beam="2">  1       21 0.91272858E-01 0.28064844E+03</pdfrwt>
<totfact> 0.21589094E+04</totfact>
</mgrwt>
</event>
<event>
12    1  0.1071811E-001  0.2038843E+03  0.7546771E-02  0.1146641E+00
         21   -1    0    0  503  502  0.00000000000E+00  0.00000000000E+00  0.12380382241E+03  0.12380382241E+03  0.00000000000E+00 0.  1.
         21   -1    0    0  501  503 -0.00000000000E+00 -0.00000000000E+00 -0.43684846615E+03  0.43684846615E+03  0.00000000000E+00 0.  1.
          6    2    1    2  501    0 -0.23994832138E+02 -0.10459619826E+03 -0.20740702443E+02  0.20426707940E+03  0.17256519443E+03 0.  0.
         24    2    3    3    0    0 -0.47735785600E+02 -0.11432040640E+03 -0.59136302759E+02  0.15785043132E+03  0.77921728787E+02 0.  0.
         -6    2    1    2    0  502  0.23994832138E+02  0.10459619826E+03 -0.29230394130E+03  0.35638520915E+03  0.17335716467E+03 0.  0.
        -24    2    5    5    0    0 -0.46485185602E+02  0.67870718729E+02 -0.10455799767E+03  0.15245673370E+03  0.74453836935E+02 0.  0.
          5    1    3    3  501    0  0.23740953462E+02  0.97242081443E+01  0.38395600316E+02  0.46416648080E+02  0.47000000000E+01 0. -1.
        -11    1    4    4    0    0 -0.26202960417E+02 -0.40644385766E+00  0.28972387126E+01  0.26365779400E+02  0.00000000000E+00 0.  1.
         12    1    4    4    0    0 -0.21532825184E+02 -0.11391396255E+03 -0.62033541472E+02  0.13148465192E+03  0.00000000000E+00 0. -1.
         -5    1    5    5    0  502  0.70480017740E+02  0.36725479532E+02 -0.18774594363E+03  0.20392847545E+03  0.47000000000E+01 0.  1.
         11    1    6    6    0    0 -0.62422363827E+02  0.29849972954E+02 -0.58154757241E+02  0.90385552943E+02  0.00000000000E+00 0. -1.
        -12    1    6    6    0    0  0.15937178224E+02  0.38020745775E+02 -0.46403240426E+02  0.62071180761E+02  0.00000000000E+00 0.  1.
<mgrwt>
<rscale>  2 0.20371589E+03</rscale>
<asrwt>0</asrwt>
<pdfrwt beam="1">  1       21 0.19046742E-01 0.20388434E+03</pdfrwt>
<pdfrwt beam="2">  1       21 0.67207456E-01 0.20388434E+03</pdfrwt>
<totfact> 0.50947374E+04</totfact>
</mgrwt>
</event>
<event>
12    1  0.1071811E-001  0.2001077E+03  0.7546771E-02  0.1150046E+00
         21   -1    0    0  503  502  0.00000000000E+00  0.00000000000E+00  0.24472150345E+03  0.24472150345E+03  0.00000000000E+00 0. -1.
         21   -1    0    0  501  503 -0.00000000000E+00 -0.00000000000E+00 -0.18185458595E+03  0.18185458595E+03  0.00000000000E+00 0.  1.
          6    2    1    2  501    0  0.21316105632E+02  0.93838755210E+02  0.10186797606E+03  0.22454439037E+03  0.17545087735E+03 0.  0.
         24    2    3    3    0    0  0.15711147998E+02 -0.16245652009E+02  0.72272582668E+02  0.11031668107E+03  0.80222705859E+02 0.  0.
         -6    2    1    2    0  502 -0.21316105632E+02 -0.93838755210E+02 -0.39001058558E+02  0.20203169903E+03  0.17330792395E+03 0.  0.
        -24    2    5    5    0    0 -0.15782225169E+02 -0.17767768839E+02 -0.78568637961E+02  0.11597879588E+03  0.81934595755E+02 0.  0.
          5    1    3    3  501    0  0.56049576338E+01  0.11008440722E+03  0.29595393392E+02  0.11422770930E+03  0.47000000000E+01 0. -1.
        -13    1    4    4    0    0 -0.11961166752E+02 -0.26210336364E+02 -0.35129648342E+01  0.29023992907E+02  0.00000000000E+00 0.  1.
         14    1    4    4    0    0  0.27672314750E+02  0.99646843548E+01  0.75785547502E+02  0.81292688159E+02  0.00000000000E+00 0. -1.
         -5    1    5    5    0  502 -0.55338804623E+01 -0.76070986371E+02  0.39567579403E+02  0.86052903148E+02  0.47000000000E+01 0.  1.
         13    1    6    6    0    0  0.30527684495E+02  0.60470994699E+01 -0.17432342967E+02  0.35670625365E+02  0.00000000000E+00 0. -1.
        -14    1    6    6    0    0 -0.46309909664E+02 -0.23814868309E+02 -0.61136294994E+02  0.80308170514E+02  0.00000000000E+00 0.  1.
<mgrwt>
<rscale>  2 0.19963700E+03</rscale>
<asrwt>0</asrwt>
<pdfrwt beam="1">  1       21 0.37649462E-01 0.20010772E+03</pdfrwt>
<pdfrwt beam="2">  1       21 0.27977629E-01 0.20010772E+03</pdfrwt>
<totfact> 0.82759662E+04</totfact>
</mgrwt>
</event>
<event>
12    1  0.1071811E-001  0.1740552E+03  0.7546771E-02  0.1173928E+00
         21   -1    0    0  503  502  0.00000000000E+00  0.00000000000E+00  0.35544763997E+03  0.35544763997E+03  0.00000000000E+00 0. -1.
         21   -1    0    0  501  503 -0.00000000000E+00 -0.00000000000E+00 -0.84850835771E+02  0.84850835771E+02  0.00000000000E+00 0. -1.
          6    2    1    2  501    0 -0.11742647720E+02  0.52836912388E+01  0.14288528517E+03  0.22519194837E+03  0.17357822941E+03 0.  0.
         24    2    3    3    0    0  0.43931550656E+01  0.11794382750E+01 -0.59893004038E+00  0.80668527990E+02  0.80537952574E+02 0.  0.
         -6    2    1    2    0  502  0.11742647720E+02 -0.52836912388E+01  0.12771151903E+03  0.21510652737E+03  0.17261164172E+03 0.  0.
        -24    2    5    5    0    0  0.32167391629E+02  0.49967976816E+02  0.67435198137E+02  0.13069537973E+03  0.94880116687E+02 0.  0.
          5    1    3    3  501    0 -0.16135802786E+02  0.41042529638E+01  0.14348421521E+03  0.14452342038E+03  0.47000000000E+01 0. -1.
        -13    1    4    4    0    0  0.68582745073E+01  0.37996045678E+02  0.13881842319E+02  0.41029757037E+02  0.00000000000E+00 0.  1.
         14    1    4    4    0    0 -0.24651194417E+01 -0.36816607403E+02 -0.14480772359E+02  0.39638770953E+02  0.00000000000E+00 0. -1.
         -5    1    5    5    0  502 -0.20424743909E+02 -0.55251668055E+02  0.60276320893E+02  0.84411147646E+02  0.47000000000E+01 0.  1.
         13    1    6    6    0    0  0.29873744509E+02  0.57763733310E+02  0.23176370212E+01  0.65072735752E+02  0.00000000000E+00 0. -1.
        -14    1    6    6    0    0  0.22936471197E+01 -0.77957564937E+01  0.65117561116E+02  0.65622643973E+02  0.00000000000E+00 0.  1.
<mgrwt>
<rscale>  2 0.17381371E+03</rscale>
<asrwt>0</asrwt>
<pdfrwt beam="1">  1       21 0.54684252E-01 0.17405519E+03</pdfrwt>
<pdfrwt beam="2">  1       21 0.13053975E-01 0.17405519E+03</pdfrwt>
<totfact> 0.16025832E+05</totfact>
</mgrwt>
</event>
<event>
12    1  0.1071811E-001  0.1980234E+03  0.7546771E-02  0.1152102E+00
         21   -1    0    0  501  502  0.00000000000E+00  0.00000000000E+00  0.64913708834E+03  0.64913708834E+03  0.00000000000E+00 0.  1.
         21   -1    0    0  502  503 -0.00000000000E+00 -0.00000000000E+00 -0.89811983898E+02  0.89811983898E+02  0.00000000000E+00 0.  1.
         -6    2    1    2    0  503 -0.83033459765E+02  0.41546811336E+02  0.49600322495E+03  0.53407159594E+03  0.17490733963E+03 0.  0.
        -24    2    3    3    0    0 -0.26291663612E+02 -0.11004732741E+02  0.10203688826E+03  0.13255838239E+03  0.79673348469E+02 0.  0.
          6    2    1    2  501    0  0.83033459765E+02 -0.41546811336E+02  0.63321879495E+02  0.20487747630E+03  0.17130215089E+03 0.  0.
         24    2    5    5    0    0  0.11761219543E+03 -0.58748316633E+02  0.61002335399E+02  0.16590247111E+03  0.80736310153E+02 0.  0.
          5    1    5    5  501    0 -0.34578735663E+02  0.17201505298E+02  0.23195440959E+01  0.38975005187E+02  0.47000000000E+01 0. -1.
        -13    1    6    6    0    0  0.36993258791E+02 -0.35978970343E+02 -0.13990263274E+02  0.53466952124E+02  0.00000000000E+00 0.  1.
         14    1    6    6    0    0  0.80618936636E+02 -0.22769346291E+02  0.74992598673E+02  0.11243551899E+03  0.00000000000E+00 0. -1.
         -5    1    3    3    0  503 -0.56741796153E+02  0.52551544077E+02  0.39396633669E+03  0.40151321355E+03  0.47000000000E+01 0.  1.
         13    1    4    4    0    0 -0.36556154738E+02  0.14334145166E+02  0.97151156880E+02  0.10478629419E+03  0.00000000000E+00 0. -1.
        -14    1    4    4    0    0  0.10264491125E+02 -0.25338877907E+02  0.48857313835E+01  0.27772088197E+02  0.00000000000E+00 0.  1.
<mgrwt>
<rscale>  2 0.19722433E+03</rscale>
<asrwt>0</asrwt>
<pdfrwt beam="1">  1       21 0.99867241E-01 0.19802341E+03</pdfrwt>
<pdfrwt beam="2">  1       21 0.13817229E-01 0.19802341E+03</pdfrwt>
<totfact> 0.37390296E+04</totfact>
</mgrwt>
</event>
<event>
12    1  0.1071811E-001  0.1835417E+03  0.7546771E-02  0.1165192E+00
         21   -1    0    0  501  502  0.00000000000E+00  0.00000000000E+00  0.85185120627E+02  0.85185120627E+02  0.00000000000E+00 0. -1.
         21   -1    0    0  502  503 -0.00000000000E+00 -0.00000000000E+00 -0.44275918909E+03  0.44275918909E+03  0.00000000000E+00 0. -1.
         -6    2    1    2    0  503  0.24334572686E+02 -0.40182155382E+02 -0.26979647030E+03  0.32449294915E+03  0.17406539466E+03 0.  0.
        -24    2    3    3    0    0 -0.17644013257E+00 -0.28680945657E+02 -0.28155086278E+03  0.29460443435E+03  0.81842877695E+02 0.  0.
          6    2    1    2  501    0 -0.24334572686E+02  0.40182155382E+02 -0.87777598162E+02  0.20345136057E+03  0.17742821743E+03 0.  0.
         24    2    5    5    0    0 -0.42104764610E+02  0.16996301727E+02  0.77306974007E+01  0.10346492123E+03  0.92647400221E+02 0.  0.
          5    1    5    5  501    0  0.17770191924E+02  0.23185853656E+02 -0.95508295563E+02  0.99986439341E+02  0.47000000000E+01 0. -1.
        -11    1    6    6    0    0  0.71078250350E+01 -0.20179897431E+02 -0.25596291707E+02  0.33360449431E+02  0.00000000000E+00 0.  1.
         12    1    6    6    0    0 -0.49212589645E+02  0.37176199157E+02  0.33326989108E+02  0.70104471800E+02  0.00000000000E+00 0. -1.
         -5    1    3    3    0  503  0.24511012818E+02 -0.11501209726E+02  0.11754392477E+02  0.29888514801E+02  0.47000000000E+01 0.  1.
         11    1    4    4    0    0  0.33353507124E+01 -0.25608637141E+02 -0.19121145596E+02  0.32133239325E+02  0.00000000000E+00 0. -1.
        -12    1    4    4    0    0 -0.35117908450E+01 -0.30723085154E+01 -0.26242971719E+03  0.26247119502E+03  0.00000000000E+00 0.  1.
<mgrwt>
<rscale>  2 0.18272405E+03</rscale>
<asrwt>0</asrwt>
<pdfrwt beam="1">  1       21 0.13105403E-01 0.18354168E+03</pdfrwt>
<pdfrwt beam="2">  1       21 0.68116799E-01 0.18354168E+03</pdfrwt>
<totfact> 0.98911378E+04</totfact>
</mgrwt>
</event>
<event>
12    1  0.1071811E-001  0.2187156E+03  0.7546771E-02  0.1136219E+00
         21   -1    0    0  503  502  0.00000000000E+00  0.00000000000E+00  0.53020487803E+02  0.53020487803E+02  0.00000000000E+00 0. -1.
         21   -1    0    0  501  503 -0.00000000000E+00 -0.00000000000E+00 -0.13826857131E+04  0.13826857131E+04  0.00000000000E+00 0. -1.
          6    2    1    2  501    0  0.12348540848E+03  0.50279037192E+02 -0.11077263487E+04  0.11291121238E+04  0.17337790201E+03 0.  0.
         24    2    3    3    0    0  0.58743044905E+02 -0.38999619745E+02 -0.60665780071E+03  0.61602925333E+03  0.80539668045E+02 0.  0.
         -6    2    1    2    0  502 -0.12348540848E+03 -0.50279037192E+02 -0.22193887656E+03  0.30659407703E+03  0.16421460182E+03 0.  0.
        -24    2    5    5    0    0 -0.24570800720E+02  0.38833917820E+01 -0.37577609385E+02  0.90425542837E+02  0.78395772147E+02 0.  0.
          5    1    3    3  501    0  0.64742363573E+02  0.89278656937E+02 -0.50106854800E+03  0.51308287052E+03  0.47000000000E+01 0. -1.
        -11    1    4    4    0    0  0.69533657090E+02 -0.52562947486E+02 -0.44589377676E+03  0.45433363629E+03  0.00000000000E+00 0.  1.
         12    1    4    4    0    0 -0.10790612185E+02  0.13563327741E+02 -0.16076402395E+03  0.16169561703E+03  0.00000000000E+00 0. -1.
         -5    1    5    5    0  502 -0.98914607757E+02 -0.54162428974E+02 -0.18436126717E+03  0.21616853419E+03  0.47000000000E+01 0.  1.
         13    1    6    6    0    0 -0.45001912326E+02 -0.36123388123E+01  0.20740129023E+01  0.45194276565E+02  0.00000000000E+00 0. -1.
        -14    1    6    6    0    0  0.20431111606E+02  0.74957305943E+01 -0.39651622287E+02  0.45231266272E+02  0.00000000000E+00 0.  1.
<mgrwt>
<rscale>  2 0.21689551E+03</rscale>
<asrwt>0</asrwt>
<pdfrwt beam="1">  1       21 0.81569973E-02 0.21871562E+03</pdfrwt>
<pdfrwt beam="2">  1       21 0.21272090E+00 0.21871562E+03</pdfrwt>
<totfact> 0.12674486E+04</totfact>
</mgrwt>
</event>
<event>
12    1  0.1071811E-001  0.2976933E+03  0.7546771E-02  0.1086853E+00
         21   -1    0    0  503  502  0.00000000000E+00  0.00000000000E+00  0.27197693029E+03  0.27197693029E+03  0.00000000000E+00 0. -1.
         21   -1    0    0  501  503 -0.00000000000E+00 -0.00000000000E+00 -0.42065644747E+03  0.42065644747E+03  0.00000000000E+00 0. -1.
          6    2    1    2  501    0 -0.24178979471E+03 -0.65684942970E+01 -0.24175315730E+03  0.38072953061E+03  0.16734675517E+03 0.  0.
         24    2    3    3    0    0 -0.76315514996E+02  0.37474243222E+02 -0.13543729964E+03  0.17911938313E+03  0.80697673720E+02 0.  0.
         -6    2    1    2    0  502  0.24178979471E+03  0.65684942970E+01  0.93073640125E+02  0.31190384715E+03  0.17353921009E+03 0.  0.
        -24    2    5    5    0    0  0.19381423423E+03  0.61538130767E+01  0.13351460818E+03  0.24898017703E+03  0.81013277628E+02 0.  0.
          5    1    3    3  501    0 -0.16547427972E+03 -0.44042737519E+02 -0.10631585766E+03  0.20161014748E+03  0.47000000000E+01 0. -1.
        -11    1    4    4    0    0 -0.85274489965E+02  0.43158873990E+02 -0.86046654263E+02  0.12860191971E+03  0.00000000000E+00 0.  1.
         12    1    4    4    0    0  0.89589749692E+01 -0.56846307678E+01 -0.49390645376E+02  0.50517463418E+02  0.00000000000E+00 0. -1.
         -5    1    5    5    0  502  0.47975560487E+02  0.41468122036E+00 -0.40440968056E+02  0.62923670124E+02  0.47000000000E+01 0.  1.
         11    1    6    6    0    0  0.10053981422E+03 -0.36514820315E+02  0.77692616464E+02  0.13220336228E+03  0.00000000000E+00 0. -1.
        -12    1    6    6    0    0  0.93274420010E+02  0.42668633392E+02  0.55821991717E+02  0.11677681475E+03  0.00000000000E+00 0.  1.
<mgrwt>
<rscale>  2 0.29679757E+03</rscale>
<asrwt>0</asrwt>
<pdfrwt beam="1">  1       21 0.41842605E-01 0.29769331E+03</pdfrwt>
<pdfrwt beam="2">  1       21 0.64716376E-01 0.29769331E+03</pdfrwt>
<totfact> 0.11415863E+04</totfact>
</mgrwt>
</event>
<event>
11    1  0.1071811E-001  0.1770471E+03  0.7546771E-02  0.1171099E+00
         21   -1    0    0  503  502  0.00000000000E+00  0.00000000000E+00  0.17367244388E+03  0.17367244388E+03  0.00000000000E+00 0.  1.
         21   -1    0    0  501  503 -0.00000000000E+00 -0.00000000000E+00 -0.18791947786E+03  0.18791947786E+03  0.00000000000E+00 0.  1.
          6    2    1    2  501    0 -0.34351124351E+02 -0.14844225022E+02  0.32689460178E+02  0.17842888351E+03  0.17137069441E+03 0.  0.
         24    2    3    3    0    0  0.21957830802E+02 -0.10142598584E+02 -0.34559547261E+02  0.90466830762E+02  0.80030409981E+02 0.  0.
         -6    2    1    2    0  502  0.34351124351E+02  0.14844225022E+02 -0.46936494161E+02  0.18316303823E+03  0.17304714193E+03 0.  0.
          5    1    3    3  501    0 -0.56308955154E+02 -0.47016264383E+01  0.67249007439E+02  0.87962052746E+02  0.47000000000E+01 0. -1.
        -11    1    4    4    0    0 -0.29365649713E+02 -0.11879594067E+02 -0.18389000663E+02  0.36628151518E+02  0.00000000000E+00 0.  1.
         12    1    4    4    0    0  0.51323480515E+02  0.17369954827E+01 -0.16170546598E+02  0.53838679244E+02  0.00000000000E+00 0. -1.
         -5    1    5    5    0  502  0.79350387628E+02 -0.25806947145E+02 -0.64480354559E+02  0.10555703985E+03  0.47000000000E+01 0.  1.
         13    1    5    5    0    0 -0.43778247897E+02  0.99885809604E+01  0.10932050127E+02  0.46214894336E+02  0.00000000000E+00 0. -1.
        -14    1    5    5    0    0 -0.12210153794E+01  0.30662591207E+02  0.66118102715E+01  0.31391104045E+02  0.00000000000E+00 0.  1.
<mgrwt>
<rscale>  2 0.17663608E+03</rscale>
<asrwt>0</asrwt>
<pdfrwt beam="1">  1       21 0.26718838E-01 0.17704707E+03</pdfrwt>
<pdfrwt beam="2">  1       21 0.28910689E-01 0.17704707E+03</pdfrwt>
<totfact> 0.15346214E+05</totfact>
</mgrwt>
</event>
<event>
12    1  0.1071811E-001  0.1899252E+03  0.7546771E-02  0.1158544E+00
         21   -1    0    0  503  502  0.00000000000E+00  0.00000000000E+00  0.31441742795E+02  0.31441742795E+02  0.00000000000E+00 0. -1.
         21   -1    0    0  501  503 -0.00000000000E+00 -0.00000000000E+00 -0.22286954323E+04  0.22286954323E+04  0.00000000000E+00 0. -1.
          6    2    1    2  501    0 -0.71876041971E+02 -0.32170828150E+02 -0.18858665743E+04  0.18953995665E+04  0.17275894466E+03 0.  0.
         24    2    3    3    0    0 -0.38917292391E+01  0.39299861008E+02 -0.77378653607E+03  0.77894355408E+03  0.80298396088E+02 0.  0.
         -6    2    1    2    0  502  0.71876041971E+02  0.32170828150E+02 -0.31138711516E+03  0.36473760857E+03  0.17283072650E+03 0.  0.
        -24    2    5    5    0    0  0.38999534084E+02  0.62614837334E+00 -0.57156189986E+02  0.10641342289E+03  0.80843248305E+02 0.  0.
          5    1    3    3  501    0 -0.67984312732E+02 -0.71470689157E+02 -0.11120800383E+04  0.11164560124E+04  0.47000000000E+01 0. -1.
        -11    1    4    4    0    0 -0.22673295869E+02  0.38970785877E+02 -0.20733265119E+03  0.21217829471E+03  0.00000000000E+00 0.  1.
         12    1    4    4    0    0  0.18781566630E+02  0.32907513060E+00 -0.56645388488E+03  0.56676525937E+03  0.00000000000E+00 0. -1.
         -5    1    5    5    0  502  0.32876507887E+02  0.31544679776E+02 -0.25423092517E+03  0.25832418568E+03  0.47000000000E+01 0.  1.
         13    1    6    6    0    0  0.61607617939E+02  0.86859359326E+00 -0.56801385120E+02  0.83801255328E+02  0.00000000000E+00 0. -1.
        -14    1    6    6    0    0 -0.22608083855E+02 -0.24244521992E+00 -0.35480486663E+00  0.22612167561E+02  0.00000000000E+00 0.  1.
<mgrwt>
<rscale>  2 0.18990888E+03</rscale>
<asrwt>0</asrwt>
<pdfrwt beam="1">  1       21 0.48371941E-02 0.18992522E+03</pdfrwt>
<pdfrwt beam="2">  1       21 0.34287601E+00 0.18992522E+03</pdfrwt>
<totfact> 0.54980622E+03</totfact>
</mgrwt>
</event>
<event>
12    1  0.1071811E-001  0.1945555E+03  0.7546771E-02  0.1154591E+00
         21   -1    0    0  503  502  0.00000000000E+00  0.00000000000E+00  0.30687074054E+03  0.30687074054E+03  0.00000000000E+00 0. -1.
         21   -1    0    0  501  503 -0.00000000000E+00 -0.00000000000E+00 -0.12285111426E+03  0.12285111426E+03  0.00000000000E+00 0. -1.
          6    2    1    2  501    0  0.21537208546E+02  0.85197773192E+02  0.93760772330E+02  0.21524926841E+03  0.17268078415E+03 0.  0.
         24    2    3    3    0    0  0.53903213667E+02  0.10023680132E+01  0.76448888115E+02  0.12328070924E+03  0.80294081922E+02 0.  0.
         -6    2    1    2    0  502 -0.21537208546E+02 -0.85197773192E+02  0.90258853951E+02  0.21447258638E+03  0.17357798733E+03 0.  0.
        -24    2    5    5    0    0  0.27831001623E+02 -0.80124496812E+02  0.66147106453E+01  0.11710015179E+03  0.80462360843E+02 0.  0.
          5    1    3    3  501    0 -0.32366005121E+02  0.84195405179E+02  0.17311884215E+02  0.91968559170E+02  0.47000000000E+01 0. -1.
        -13    1    4    4    0    0  0.17168897453E+02  0.22246230029E+02  0.75799693276E+02  0.80840950582E+02  0.00000000000E+00 0.  1.
         14    1    4    4    0    0  0.36734316214E+02 -0.21243862016E+02  0.64919483866E+00  0.42439758659E+02  0.00000000000E+00 0. -1.
         -5    1    5    5    0  502 -0.49368210170E+02 -0.50732763807E+01  0.83644143306E+02  0.97372434590E+02  0.47000000000E+01 0.  1.
         11    1    6    6    0    0  0.26775541545E+02 -0.87969283237E+02  0.26500912864E+02  0.95696514048E+02  0.00000000000E+00 0. -1.
        -12    1    6    6    0    0  0.10554600785E+01  0.78447864254E+01 -0.19886202219E+02  0.21403637745E+02  0.00000000000E+00 0.  1.
<mgrwt>
<rscale>  2 0.19435515E+03</rscale>
<asrwt>0</asrwt>
<pdfrwt beam="1">  1       21 0.47210883E-01 0.19455547E+03</pdfrwt>
<pdfrwt beam="2">  1       21 0.18900171E-01 0.19455547E+03</pdfrwt>
<totfact> 0.11002457E+05</totfact>
</mgrwt>
</event>
<event>
12    1  0.1071811E-001  0.2126276E+03  0.7546771E-02  0.1139636E+00
         21   -1    0    0  501  502  0.00000000000E+00  0.00000000000E+00  0.81852927951E+02  0.81852927951E+02  0.00000000000E+00 0. -1.
         21   -1    0    0  502  503 -0.00000000000E+00 -0.00000000000E+00 -0.55900776953E+03  0.55900776953E+03  0.00000000000E+00 0.  1.
         -6    2    1    2    0  503 -0.28733824013E+02  0.11731204680E+03 -0.19955416384E+03  0.29160306669E+03  0.17499352910E+03 0.  0.
        -24    2    3    3    0    0  0.37047458983E+02  0.20732025833E+02 -0.12479070040E+03  0.15279909300E+03  0.77282034172E+02 0.  0.
          6    2    1    2  501    0  0.28733824013E+02 -0.11731204680E+03 -0.27760067774E+03  0.34925763080E+03  0.17415799557E+03 0.  0.
         24    2    5    5    0    0  0.26417935963E+02 -0.11389546969E+03 -0.29690675964E+03  0.32896351503E+03  0.79958019896E+02 0.  0.
          5    1    5    5  501    0  0.23158880499E+01 -0.34165771128E+01  0.19306081895E+02  0.20294115767E+02  0.47000000000E+01 0. -1.
        -13    1    6    6    0    0  0.39235836406E+02 -0.29882810600E+02 -0.16359080838E+03  0.17086364685E+03  0.00000000000E+00 0.  1.
         14    1    6    6    0    0 -0.12817900443E+02 -0.84012659092E+02 -0.13331595126E+03  0.15809986818E+03  0.00000000000E+00 0. -1.
         -5    1    3    3    0  503 -0.65781282995E+02  0.96580020971E+02 -0.74763463445E+02  0.13880397368E+03  0.47000000000E+01 0.  1.
         11    1    4    4    0    0 -0.30615598168E+01  0.42374122067E+02 -0.56310517913E+02  0.70539448517E+02  0.00000000000E+00 0. -1.
        -12    1    4    4    0    0  0.40109018799E+02 -0.21642096234E+02 -0.68480182482E+02  0.82259644488E+02  0.00000000000E+00 0.  1.
<mgrwt>
<rscale>  2 0.21245558E+03</rscale>
<asrwt>0</asrwt>
<pdfrwt beam="1">  1       21 0.12592759E-01 0.21262757E+03</pdfrwt>
<pdfrwt beam="2">  1       21 0.86001192E-01 0.21262757E+03</pdfrwt>
<totfact> 0.62200528E+04</totfact>
</mgrwt>
</event>
<event>
12    1  0.1071811E-001  0.2324097E+03  0.7546771E-02  0.1125189E+00
         21   -1    0    0  501  502  0.00000000000E+00  0.00000000000E+00  0.31511461423E+03  0.31511461423E+03  0.00000000000E+00 0. -1.
         21   -1    0    0  502  503 -0.00000000000E+00 -0.00000000000E+00 -0.28793693459E+03  0.28793693459E+03  0.00000000000E+00 0. -1.
         -6    2    1    2    0  503 -0.96948199744E+02  0.11897520910E+03 -0.17901641205E+03  0.29336179899E+03  0.17452855212E+03 0.  0.
        -24    2    3    3    0    0 -0.13732050194E+03  0.10073069183E+03 -0.13501821464E+03  0.23074617338E+03  0.77526032496E+02 0.  0.
          6    2    1    2  501    0  0.96948199744E+02 -0.11897520910E+03  0.20619409169E+03  0.30968974983E+03  0.17273587899E+03 0.  0.
         24    2    5    5    0    0  0.13588913916E+03 -0.10505054197E+03  0.17777690254E+03  0.25929213326E+03  0.78270740268E+02 0.  0.
          5    1    5    5  501    0 -0.38940939418E+02 -0.13924667132E+02  0.28417189147E+02  0.50397616575E+02  0.47000000000E+01 0. -1.
        -11    1    6    6    0    0  0.28625201581E+01 -0.17048770620E+02 -0.37057742491E+01  0.17680140387E+02  0.00000000000E+00 0.  1.
         12    1    6    6    0    0  0.13302661900E+03 -0.88001771348E+02  0.18148267679E+03  0.24161199287E+03  0.00000000000E+00 0. -1.
         -5    1    3    3    0  503  0.40372302194E+02  0.18244517269E+02 -0.43998197412E+02  0.62615625609E+02  0.47000000000E+01 0.  1.
         13    1    4    4    0    0 -0.70155198671E+02  0.19825668004E+02 -0.91383750014E+02  0.11690080744E+03  0.00000000000E+00 0. -1.
        -14    1    4    4    0    0 -0.67165303267E+02  0.80905023827E+02 -0.43634464628E+02  0.11384536594E+03  0.00000000000E+00 0.  1.
<mgrwt>
<rscale>  2 0.23207318E+03</rscale>
<asrwt>0</asrwt>
<pdfrwt beam="1">  1       21 0.48479171E-01 0.23240970E+03</pdfrwt>
<pdfrwt beam="2">  1       21 0.44297990E-01 0.23240970E+03</pdfrwt>
<totfact> 0.19439861E+04</totfact>
</mgrwt>
</event>
<event>
12    1  0.1071811E-001  0.1818751E+03  0.7546771E-02  0.1166794E+00
         21   -1    0    0  503  502  0.00000000000E+00  0.00000000000E+00  0.32986315016E+03  0.32986315016E+03  0.00000000000E+00 0.  1.
         21   -1    0    0  501  503 -0.00000000000E+00 -0.00000000000E+00 -0.24504227267E+03  0.24504227267E+03  0.00000000000E+00 0.  1.
          6    2    1    2  501    0  0.39256870611E+02  0.27383235112E+02 -0.17974432470E+03  0.25570796775E+03  0.17546395372E+03 0.  0.
         24    2    3    3    0    0  0.36289685846E+02  0.55395492304E+02 -0.38830676395E+02  0.11192953746E+03  0.81454269747E+02 0.  0.
         -6    2    1    2    0  502 -0.39256870611E+02 -0.27383235112E+02  0.26456520219E+03  0.31919745509E+03  0.17205035794E+03 0.  0.
        -24    2    5    5    0    0 -0.31926267684E+02 -0.94644003781E+00  0.42633863289E+02  0.95527494966E+02  0.79294852787E+02 0.  0.
          5    1    3    3  501    0  0.29671847655E+01 -0.28012257192E+02 -0.14091364831E+03  0.14377843029E+03  0.47000000000E+01 0. -1.
        -13    1    4    4    0    0 -0.75480473762E+01  0.24499010390E+02 -0.50869121547E+02  0.56963515132E+02  0.00000000000E+00 0.  1.
         14    1    4    4    0    0  0.43837733222E+02  0.30896481914E+02  0.12038445151E+02  0.54966022327E+02  0.00000000000E+00 0. -1.
         -5    1    5    5    0  502 -0.73306029268E+01 -0.26436795075E+02  0.22193133890E+03  0.22366996012E+03  0.47000000000E+01 0.  1.
         13    1    6    6    0    0  0.18782980864E+02  0.10051375251E+02  0.37832001645E+02  0.43417633089E+02  0.00000000000E+00 0. -1.
        -14    1    6    6    0    0 -0.50709248549E+02 -0.10997815289E+02  0.48018616437E+01  0.52109861876E+02  0.00000000000E+00 0.  1.
<mgrwt>
<rscale>  2 0.18104668E+03</rscale>
<asrwt>0</asrwt>
<pdfrwt beam="1">  1       21 0.50748177E-01 0.18187507E+03</pdfrwt>
<pdfrwt beam="2">  1       21 0.37698811E-01 0.18187507E+03</pdfrwt>
<totfact> 0.25220482E+04</totfact>
</mgrwt>
</event>
<event>
12    1  0.1071811E-001  0.1799083E+03  0.7546771E-02  0.1168012E+00
         21   -1    0    0  501  502  0.00000000000E+00  0.00000000000E+00  0.30910502401E+02  0.30910502401E+02  0.00000000000E+00 0.  1.
         21   -1    0    0  502  503 -0.00000000000E+00 -0.00000000000E+00 -0.11344820970E+04  0.11344820970E+04  0.00000000000E+00 0.  1.
         -6    2    1    2    0  503 -0.43310227706E+02  0.18316453208E+02 -0.38814314297E+03  0.42781081920E+03  0.17365405064E+03 0.  0.
        -24    2    3    3    0    0  0.34252243526E+02  0.90278769233E+01 -0.13283476280E+03  0.16077772466E+03  0.83364763481E+02 0.  0.
          6    2    1    2  501    0  0.43310227706E+02 -0.18316453208E+02 -0.71542845158E+03  0.73758178016E+03  0.17314082363E+03 0.  0.
         24    2    5    5    0    0 -0.20672665166E+02  0.17744753579E+02 -0.54815069508E+03  0.55483014806E+03  0.81394553334E+02 0.  0.
          5    1    5    5  501    0  0.63982892872E+02 -0.36061206787E+02 -0.16727775651E+03  0.18275163211E+03  0.47000000000E+01 0. -1.
        -13    1    6    6    0    0  0.95672216391E+01 -0.26264670460E+02 -0.28157400839E+03  0.28295810086E+03  0.00000000000E+00 0.  1.
         14    1    6    6    0    0 -0.30239886805E+02  0.44009424039E+02 -0.26657668669E+03  0.27187204719E+03  0.00000000000E+00 0. -1.
         -5    1    3    3    0  503 -0.77562471232E+02  0.92885762851E+01 -0.25530838017E+03  0.26703309453E+03  0.47000000000E+01 0.  1.
         13    1    4    4    0    0  0.22876330227E+02 -0.36754643000E+02 -0.59597520506E+02  0.73662030363E+02  0.00000000000E+00 0. -1.
        -14    1    4    4    0    0  0.11375913299E+02  0.45782519924E+02 -0.73237242297E+02  0.87115694299E+02  0.00000000000E+00 0.  1.
<mgrwt>
<rscale>  2 0.17978434E+03</rscale>
<asrwt>0</asrwt>
<pdfrwt beam="1">  1       21 0.47554619E-02 0.17990830E+03</pdfrwt>
<pdfrwt beam="2">  1       21 0.17453571E+00 0.17990830E+03</pdfrwt>
<totfact> 0.58529755E+04</totfact>
</mgrwt>
</event>
<event>
12    1  0.1071811E-001  0.2137481E+03  0.7546771E-02  0.1139067E+00
         21   -1    0    0  501  502  0.00000000000E+00  0.00000000000E+00  0.63222814692E+03  0.63222814692E+03  0.00000000000E+00 0. -1.
         21   -1    0    0  502  503 -0.00000000000E+00 -0.00000000000E+00 -0.10571724057E+03  0.10571724057E+03  0.00000000000E+00 0. -1.
         -6    2    1    2    0  503  0.12324680469E+03 -0.20784185210E+02  0.52443480782E+02  0.21791829238E+03  0.17063500888E+03 0.  0.
        -24    2    3    3    0    0  0.14163640323E+03  0.21451367603E+02  0.48116119038E+02  0.17141199908E+03  0.80906616696E+02 0.  0.
          6    2    1    2  501    0 -0.12324680469E+03  0.20784185210E+02  0.47406742557E+03  0.52002709511E+03  0.17339693897E+03 0.  0.
         24    2    5    5    0    0 -0.38161179703E+02  0.55372379050E+02  0.14661718131E+03  0.17990702926E+03  0.79671609262E+02 0.  0.
          5    1    5    5  501    0 -0.85085624986E+02 -0.34588193840E+02  0.32745024426E+03  0.34012006585E+03  0.47000000000E+01 0. -1.
        -11    1    6    6    0    0 -0.28123126584E+02 -0.47824499887E+01  0.98859127145E+01  0.30191279319E+02  0.00000000000E+00 0.  1.
         12    1    6    6    0    0 -0.10038053119E+02  0.60154829039E+02  0.13673126860E+03  0.14971574994E+03  0.00000000000E+00 0. -1.
         -5    1    3    3    0  503 -0.18389598546E+02 -0.42235552813E+02  0.43273617441E+01  0.46506293292E+02  0.47000000000E+01 0.  1.
         11    1    4    4    0    0  0.98582381296E+02 -0.23636259315E+02  0.21528444033E+02  0.10363702311E+03  0.00000000000E+00 0. -1.
        -12    1    4    4    0    0  0.43054021939E+02  0.45087626918E+02  0.26587675004E+02  0.67774975974E+02  0.00000000000E+00 0.  1.
<mgrwt>
<rscale>  2 0.21318732E+03</rscale>
<asrwt>0</asrwt>
<pdfrwt beam="1">  1       21 0.97265867E-01 0.21374811E+03</pdfrwt>
<pdfrwt beam="2">  1       21 0.16264191E-01 0.21374811E+03</pdfrwt>
<totfact> 0.29307724E+04</totfact>
</mgrwt>
</event>
<event>
12    1  0.1071811E-001  0.2395758E+03  0.7546771E-02  0.1120273E+00
         21   -1    0    0  503  502  0.00000000000E+00  0.00000000000E+00  0.35068976100E+03  0.35068976100E+03  0.00000000000E+00 0.  1.
         21   -1    0    0  501  503 -0.00000000000E+00 -0.00000000000E+00 -0.16307540474E+03  0.16307540474E+03  0.00000000000E+00 0.  1.
          6    2    1    2  501    0  0.16553277692E+03 -0.63619346650E+01  0.10327641842E+03  0.26088802949E+03  0.17307504408E+03 0.  0.
         24    2    3    3    0    0  0.15177045111E+03  0.35516185769E+02  0.34188377712E+02  0.17880011350E+03  0.80653370271E+02 0.  0.
         -6    2    1    2    0  502 -0.16553277692E+03  0.63619346650E+01  0.84337937840E+02  0.25287713625E+03  0.17144207135E+03 0.  0.
        -24    2    5    5    0    0 -0.14122649182E+03 -0.95432941957E+01  0.12283596796E+03  0.20442138196E+03  0.81629834750E+02 0.  0.
          5    1    3    3  501    0  0.13762325810E+02 -0.41878120434E+02  0.69088040709E+02  0.82087915992E+02  0.47000000000E+01 0. -1.
        -13    1    4    4    0    0  0.94120018462E+02 -0.14272794055E+02 -0.26536547289E+00  0.95196433464E+02  0.00000000000E+00 0.  1.
         14    1    4    4    0    0  0.57650432648E+02  0.49788979824E+02  0.34453743185E+02  0.83603680038E+02  0.00000000000E+00 0. -1.
         -5    1    5    5    0  502 -0.24306285100E+02  0.15905228861E+02 -0.38498030121E+02  0.48455754288E+02  0.47000000000E+01 0.  1.
         11    1    6    6    0    0  0.52305479964E+01 -0.81905787788E+00 -0.68135704156E+01  0.86286864561E+01  0.00000000000E+00 0. -1.
        -12    1    6    6    0    0 -0.14645703982E+03 -0.87242363178E+01  0.12964953838E+03  0.19579269550E+03  0.00000000000E+00 0.  1.
<mgrwt>
<rscale>  2 0.23928096E+03</rscale>
<asrwt>0</asrwt>
<pdfrwt beam="1">  1       21 0.53952271E-01 0.23957576E+03</pdfrwt>
<pdfrwt beam="2">  1       21 0.25088524E-01 0.23957576E+03</pdfrwt>
<totfact> 0.47828199E+04</totfact>
</mgrwt>
</event>
<event>
12    1  0.1071811E-001  0.2113484E+03  0.7546771E-02  0.1141114E+00
         21   -1    0    0  503  502  0.00000000000E+00  0.00000000000E+00  0.37043916191E+03  0.37043916191E+03  0.00000000000E+00 0.  1.
         21   -1    0    0  501  503 -0.00000000000E+00 -0.00000000000E+00 -0.33065125182E+03  0.33065125182E+03  0.00000000000E+00 0.  1.
          6    2    1    2  501    0  0.43834659960E+02  0.11631657639E+03 -0.26073094642E+03  0.33369455041E+03  0.16709399509E+03 0.  0.
         24    2    3    3    0    0  0.84501443203E+02  0.72437976529E+02 -0.12782198922E+03  0.18786588489E+03  0.81039344942E+02 0.  0.
         -6    2    1    2    0  502 -0.43834659960E+02 -0.11631657639E+03  0.30051885651E+03  0.36739586332E+03  0.17093014337E+03 0.  0.
        -24    2    5    5    0    0 -0.70221045876E+02 -0.13688482365E+03  0.20970962776E+03  0.27050571839E+03  0.74342218704E+02 0.  0.
          5    1    3    3  501    0 -0.40666783242E+02  0.43878599859E+02 -0.13290895720E+03  0.14582866552E+03  0.47000000000E+01 0. -1.
        -11    1    4    4    0    0  0.51780819445E+02  0.32192216922E+02 -0.12107416199E+03  0.13556011505E+03  0.00000000000E+00 0.  1.
         12    1    4    4    0    0  0.32720623758E+02  0.40245759607E+02 -0.67478272372E+01  0.52305769834E+02  0.00000000000E+00 0. -1.
         -5    1    5    5    0  502  0.26386385916E+02  0.20568247258E+02  0.90809228759E+02  0.96890144931E+02  0.47000000000E+01 0.  1.
         13    1    6    6    0    0 -0.68606017048E+01  0.92888128995E+01  0.14600387610E+02  0.18615080424E+02  0.00000000000E+00 0. -1.
        -14    1    6    6    0    0 -0.63360444171E+02 -0.14617363655E+03  0.19510924015E+03  0.25189063797E+03  0.00000000000E+00 0.  1.
<mgrwt>
<rscale>  2 0.21057153E+03</rscale>
<asrwt>0</asrwt>
<pdfrwt beam="1">  1       21 0.56990640E-01 0.21134838E+03</pdfrwt>
<pdfrwt beam="2">  1       21 0.50869424E-01 0.21134838E+03</pdfrwt>
<totfact> 0.10499432E+04</totfact>
</mgrwt>
</event>
<event>
12    1  0.1071811E-001  0.2382806E+03  0.7546771E-02  0.1121458E+00
         21   -1    0    0  503  502  0.00000000000E+00  0.00000000000E+00  0.49396617720E+03  0.49396617720E+03  0.00000000000E+00 0. -1.
         21   -1    0    0  501  503 -0.00000000000E+00 -0.00000000000E+00 -0.18371166973E+03  0.18371166973E+03  0.00000000000E+00 0. -1.
          6    2    1    2  501    0 -0.10551298514E+02  0.15743741999E+03 -0.53757097958E+02  0.24426927077E+03  0.17854909675E+03 0.  0.
         24    2    3    3    0    0 -0.17206283460E+02  0.71986008257E+02 -0.10300883295E+03  0.14530434774E+03  0.70883652765E+02 0.  0.
         -6    2    1    2    0  502  0.10551298514E+02 -0.15743741999E+03  0.36401160543E+03  0.43340857615E+03  0.17447255912E+03 0.  0.
        -24    2    5    5    0    0  0.50303487559E+01 -0.33105835094E+02  0.24988364114E+03  0.26448224274E+03  0.79923224975E+02 0.  0.
          5    1    3    3  501    0  0.66549849467E+01  0.85451411729E+02  0.49251734997E+02  0.98964923035E+02  0.47000000000E+01 0. -1.
        -13    1    4    4    0    0  0.19164161594E+02 -0.40126476816E+00 -0.33334976765E+02  0.38453176448E+02  0.00000000000E+00 0.  1.
         14    1    4    4    0    0 -0.36370445055E+02  0.72387273025E+02 -0.69673856190E+02  0.10685117129E+03  0.00000000000E+00 0. -1.
         -5    1    5    5    0  502  0.55209497579E+01 -0.12433158489E+03  0.11412796428E+03  0.16892633341E+03  0.47000000000E+01 0.  1.
         13    1    6    6    0    0  0.24211951293E+02 -0.52929442357E+02  0.15120646545E+03  0.16202203445E+03  0.00000000000E+00 0. -1.
        -14    1    6    6    0    0 -0.19181602537E+02  0.19823607264E+02  0.98677175697E+02  0.10246020830E+03  0.00000000000E+00 0.  1.
<mgrwt>
<rscale>  2 0.23751716E+03</rscale>
<asrwt>0</asrwt>
<pdfrwt beam="1">  1       21 0.75994796E-01 0.23828061E+03</pdfrwt>
<pdfrwt beam="2">  1       21 0.28263334E-01 0.23828061E+03</pdfrwt>
<totfact> 0.17990627E+04</totfact>
</mgrwt>
</event>
<event>
12    1  0.1071811E-001  0.2172763E+03  0.7546771E-02  0.1136176E+00
         21   -1    0    0  501  502  0.00000000000E+00  0.00000000000E+00  0.92420567641E+03  0.92420567641E+03  0.00000000000E+00 0.  1.
         21   -1    0    0  502  503 -0.00000000000E+00 -0.00000000000E+00 -0.58708988524E+02  0.58708988524E+02  0.00000000000E+00 0.  1.
         -6    2    1    2    0  503  0.24976129744E+02  0.12747647586E+03  0.25322547689E+03  0.33366469005E+03  0.17416924035E+03 0.  0.
        -24    2    3    3    0    0  0.71372160288E+02  0.92411858755E+02  0.23123757553E+03  0.27131345245E+03  0.80661243756E+02 0.  0.
          6    2    1    2  501    0 -0.24976129744E+02 -0.12747647586E+03  0.61227121099E+03  0.64924997488E+03  0.17255560008E+03 0.  0.
         24    2    5    5    0    0 -0.37517523473E+01 -0.14601758339E+02  0.40089971160E+03  0.40864412124E+03  0.77731281153E+02 0.  0.
          5    1    5    5  501    0 -0.21224377397E+02 -0.11287471753E+03  0.21137149939E+03  0.24060585364E+03  0.47000000000E+01 0. -1.
        -11    1    6    6    0    0  0.39733822951E+00 -0.46481455417E+02  0.21288555359E+03  0.21790122190E+03  0.00000000000E+00 0.  1.
         12    1    6    6    0    0 -0.41490905768E+01  0.31879697078E+02  0.18801415801E+03  0.19074289934E+03  0.00000000000E+00 0. -1.
         -5    1    3    3    0  503 -0.46396030543E+02  0.35064617110E+02  0.21987901365E+02  0.62351237595E+02  0.47000000000E+01 0.  1.
         13    1    4    4    0    0 -0.16703211744E+01  0.54183144987E+00  0.79317095544E+02  0.79336531306E+02  0.00000000000E+00 0. -1.
        -14    1    4    4    0    0  0.73042481462E+02  0.91870027305E+02  0.15192047998E+03  0.19197692115E+03  0.00000000000E+00 0.  1.
<mgrwt>
<rscale>  2 0.21695273E+03</rscale>
<asrwt>0</asrwt>
<pdfrwt beam="1">  1       21 0.14218548E+00 0.21727628E+03</pdfrwt>
<pdfrwt beam="2">  1       21 0.90321527E-02 0.21727628E+03</pdfrwt>
<totfact> 0.32887963E+04</totfact>
</mgrwt>
</event>
<event>
12    1  0.1071811E-001  0.1773327E+03  0.7546771E-02  0.1170746E+00
         21   -1    0    0  501  502  0.00000000000E+00  0.00000000000E+00  0.23431822552E+03  0.23431822552E+03  0.00000000000E+00 0. -1.
         21   -1    0    0  502  503 -0.00000000000E+00 -0.00000000000E+00 -0.13619609096E+03  0.13619609096E+03  0.00000000000E+00 0. -1.
         -6    2    1    2    0  503  0.33528112400E+02 -0.95112302731E+01  0.21680821826E+02  0.17865315565E+03  0.17387436317E+03 0.  0.
        -24    2    3    3    0    0  0.80947740978E+02 -0.39889838989E+02  0.25968263782E+02  0.12197905927E+03  0.77851166681E+02 0.  0.
          6    2    1    2  501    0 -0.33528112400E+02  0.95112302731E+01  0.76441312735E+02  0.19186116083E+03  0.17249009514E+03 0.  0.
         24    2    5    5    0    0  0.33521360311E+02  0.45474794253E+02  0.29575128409E+02  0.10237630760E+03  0.80091083322E+02 0.  0.
          5    1    5    5  501    0 -0.67049472711E+02 -0.35963563980E+02  0.46866184326E+02  0.89484853234E+02  0.47000000000E+01 0. -1.
        -13    1    6    6    0    0  0.52863214699E+02  0.31944955936E+02  0.42964147126E+02  0.75239069746E+02  0.00000000000E+00 0.  1.
         14    1    6    6    0    0 -0.19341854387E+02  0.13529838317E+02 -0.13389018718E+02  0.27137237852E+02  0.00000000000E+00 0. -1.
         -5    1    3    3    0  503 -0.47419628577E+02  0.30378608716E+02 -0.42874419559E+01  0.56674096380E+02  0.47000000000E+01 0.  1.
         13    1    4    4    0    0  0.48753920529E+02 -0.48966980234E+02 -0.13329655035E+02  0.70373216663E+02  0.00000000000E+00 0. -1.
        -14    1    4    4    0    0  0.32193820448E+02  0.90771412448E+01  0.39297918817E+02  0.51605842611E+02  0.00000000000E+00 0.  1.
<mgrwt>
<rscale>  2 0.17699247E+03</rscale>
<asrwt>0</asrwt>
<pdfrwt beam="1">  1       21 0.36048958E-01 0.17733272E+03</pdfrwt>
<pdfrwt beam="2">  1       21 0.20953245E-01 0.17733272E+03</pdfrwt>
<totfact> 0.15775458E+05</totfact>
</mgrwt>
</event>
<event>
12    1  0.1071811E-001  0.1981088E+03  0.7546771E-02  0.1151650E+00
         21   -1    0    0  501  502  0.00000000000E+00  0.00000000000E+00  0.25765101533E+03  0.25765101533E+03  0.00000000000E+00 0. -1.
         21   -1    0    0  502  503 -0.00000000000E+00 -0.00000000000E+00 -0.21285901625E+03  0.21285901625E+03  0.00000000000E+00 0.  1.
         -6    2    1    2    0  503  0.48338349435E+02 -0.81927409702E+02 -0.10424291097E+03  0.22260180890E+03  0.17215192230E+03 0.  0.
        -24    2    3    3    0    0 -0.30938754657E+02 -0.12553118814E+02 -0.31636727168E+02  0.94572908272E+02  0.82633922462E+02 0.  0.
          6    2    1    2  501    0 -0.48338349435E+02  0.81927409702E+02  0.14903491005E+03  0.24790822269E+03  0.17377682807E+03 0.  0.
         24    2    5    5    0    0 -0.63742999622E+02  0.25495554284E+02  0.21444890335E+02  0.10746905192E+03  0.79853118350E+02 0.  0.
          5    1    5    5  501    0  0.15404650187E+02  0.56431855419E+02  0.12759001972E+03  0.14043917077E+03  0.47000000000E+01 0. -1.
        -11    1    6    6    0    0 -0.30592454166E+02  0.54917737167E+01 -0.29922396047E+02  0.43144033373E+02  0.00000000000E+00 0.  1.
         12    1    6    6    0    0 -0.33150545455E+02  0.20003780567E+02  0.51367286382E+02  0.64325018548E+02  0.00000000000E+00 0. -1.
         -5    1    3    3    0  503  0.79277104092E+02 -0.69374290888E+02 -0.72606183799E+02  0.12802890063E+03  0.47000000000E+01 0.  1.
         13    1    4    4    0    0 -0.25609218303E+02  0.17230119954E+02  0.18520822011E+02  0.35996249022E+02  0.00000000000E+00 0. -1.
        -14    1    4    4    0    0 -0.53295363541E+01 -0.29783238768E+02 -0.50157549179E+02  0.58576659250E+02  0.00000000000E+00 0.  1.
<mgrwt>
<rscale>  2 0.19775185E+03</rscale>
<asrwt>0</asrwt>
<pdfrwt beam="1">  1       21 0.39638618E-01 0.19810876E+03</pdfrwt>
<pdfrwt beam="2">  1       21 0.32747541E-01 0.19810876E+03</pdfrwt>
<totfact> 0.54921028E+04</totfact>
</mgrwt>
</event>
<event>
12    1  0.1071811E-001  0.1745721E+03  0.7546771E-02  0.1173462E+00
         21   -1    0    0  503  502  0.00000000000E+00  0.00000000000E+00  0.17711425675E+03  0.17711425675E+03  0.00000000000E+00 0.  1.
         21   -1    0    0  501  503 -0.00000000000E+00 -0.00000000000E+00 -0.22439687433E+03  0.22439687433E+03  0.00000000000E+00 0. -1.
          6    2    1    2  501    0  0.95362864758E+01  0.21126349184E+02 -0.12160198712E+03  0.21177765921E+03  0.17182977122E+03 0.  0.
         24    2    3    3    0    0  0.51854725629E+02  0.49733380659E+02 -0.11961745236E+03  0.16044306152E+03  0.79191662169E+02 0.  0.
         -6    2    1    2    0  502 -0.95362864758E+01 -0.21126349184E+02  0.74319369548E+02  0.18973347187E+03  0.17302646695E+03 0.  0.
        -24    2    5    5    0    0  0.85529317665E+01  0.50671787953E+02  0.66066418289E+02  0.11508500559E+03  0.78987367027E+02 0.  0.
          5    1    3    3  501    0 -0.42318439153E+02 -0.28607031474E+02 -0.19845347581E+01  0.51334597693E+02  0.47000000000E+01 0. -1.
        -13    1    4    4    0    0 -0.12612283595E+02  0.33268888424E+02 -0.66049859986E+02  0.75023147352E+02  0.00000000000E+00 0.  1.
         14    1    4    4    0    0  0.64467009223E+02  0.16464492234E+02 -0.53567592379E+02  0.85419914165E+02  0.00000000000E+00 0. -1.
         -5    1    5    5    0  502 -0.18089218242E+02 -0.71798137137E+02  0.82529512595E+01  0.74648466277E+02  0.47000000000E+01 0.  1.
         11    1    6    6    0    0 -0.26156709533E+02 -0.60494811511E+01  0.26409148066E+02  0.37659165915E+02  0.00000000000E+00 0. -1.
        -12    1    6    6    0    0  0.34709641300E+02  0.56721269104E+02  0.39657270222E+02  0.77425839675E+02  0.00000000000E+00 0.  1.
<mgrwt>
<rscale>  2 0.17427484E+03</rscale>
<asrwt>0</asrwt>
<pdfrwt beam="1">  1       21 0.27248347E-01 0.17457211E+03</pdfrwt>
<pdfrwt beam="2">  1       21 0.34522596E-01 0.17457211E+03</pdfrwt>
<totfact> 0.10454307E+05</totfact>
</mgrwt>
</event>
<event>
12    1  0.1071811E-001  0.2415704E+03  0.7546771E-02  0.1118855E+00
         21   -1    0    0  501  502  0.00000000000E+00  0.00000000000E+00  0.24935764841E+03  0.24935764841E+03  0.00000000000E+00 0.  1.
         21   -1    0    0  502  503 -0.00000000000E+00 -0.00000000000E+00 -0.32231825916E+03  0.32231825916E+03  0.00000000000E+00 0. -1.
         -6    2    1    2    0  503 -0.15234687077E+03 -0.71238865942E+02 -0.18663191700E+03  0.30526669379E+03  0.17341204353E+03 0.  0.
        -24    2    3    3    0    0 -0.15409853187E+03 -0.60891181064E+02 -0.84798654697E+02  0.20278622633E+03  0.80481974975E+02 0.  0.
          6    2    1    2  501    0  0.15234687077E+03  0.71238865942E+02  0.11367130625E+03  0.26640921378E+03  0.17253451327E+03 0.  0.
         24    2    5    5    0    0  0.11385818168E+03  0.91614388026E+02  0.25567964503E+02  0.16801800525E+03  0.78863474763E+02 0.  0.
          5    1    5    5  501    0  0.38488689089E+02 -0.20375522084E+02  0.88103341749E+02  0.98391208526E+02  0.47000000000E+01 0. -1.
        -13    1    6    6    0    0  0.57577752018E+02  0.40743319753E+01 -0.88655539768E+01  0.58398593783E+02  0.00000000000E+00 0.  1.
         14    1    6    6    0    0  0.56280429660E+02  0.87540056050E+02  0.34433518480E+02  0.10961941147E+03  0.00000000000E+00 0. -1.
         -5    1    3    3    0  503  0.17516611051E+01 -0.10347684878E+02 -0.10183326230E+03  0.10248046745E+03  0.47000000000E+01 0.  1.
         13    1    4    4    0    0 -0.42667130347E+02 -0.19570172740E+02  0.13183519503E+02  0.48757367234E+02  0.00000000000E+00 0. -1.
        -14    1    4    4    0    0 -0.11143140152E+03 -0.41321008324E+02 -0.97982174200E+02  0.15402885910E+03  0.00000000000E+00 0.  1.
<mgrwt>
<rscale>  2 0.24141300E+03</rscale>
<asrwt>0</asrwt>
<pdfrwt beam="1">  1       21 0.38362715E-01 0.24157045E+03</pdfrwt>
<pdfrwt beam="2">  1       21 0.49587425E-01 0.24157045E+03</pdfrwt>
<totfact> 0.24751087E+04</totfact>
</mgrwt>
</event>
<event>
12    1  0.1071811E-001  0.2058461E+03  0.7546771E-02  0.1145480E+00
         21   -1    0    0  503  502  0.00000000000E+00  0.00000000000E+00  0.75263490415E+03  0.75263490415E+03  0.00000000000E+00 0. -1.
         21   -1    0    0  501  503 -0.00000000000E+00 -0.00000000000E+00 -0.86615635658E+02  0.86615635658E+02  0.00000000000E+00 0.  1.
          6    2    1    2  501    0 -0.74481183641E+02 -0.75447562065E+02  0.80123197584E+02  0.21824583868E+03  0.17312347609E+03 0.  0.
         24    2    3    3    0    0  0.23536268848E+02 -0.60797001111E+02  0.55861913009E+02  0.11610495628E+03  0.78163778388E+02 0.  0.
         -6    2    1    2    0  502  0.74481183641E+02  0.75447562065E+02  0.58589607091E+03  0.62100470113E+03  0.17644503841E+03 0.  0.
        -24    2    5    5    0    0  0.37919983075E+02  0.70054087936E+02  0.56857468784E+03  0.57992026050E+03  0.81760825198E+02 0.  0.
          5    1    3    3  501    0 -0.98017452489E+02 -0.14650560954E+02  0.24261284575E+02  0.10214088240E+03  0.47000000000E+01 0. -1.
        -13    1    4    4    0    0  0.29275091923E+02 -0.56019547257E+02  0.73506436272E+02  0.96945432360E+02  0.00000000000E+00 0.  1.
         14    1    4    4    0    0 -0.57388230747E+01 -0.47774538542E+01 -0.17644523263E+02  0.19159523919E+02  0.00000000000E+00 0. -1.
         -5    1    5    5    0  502  0.36561200566E+02  0.53934741292E+01  0.17321383068E+02  0.41084440625E+02  0.47000000000E+01 0.  1.
         11    1    6    6    0    0 -0.30616328584E+01  0.16369452347E+02  0.36609176074E+03  0.36647033966E+03  0.00000000000E+00 0. -1.
        -12    1    6    6    0    0  0.40981615933E+02  0.53684635589E+02  0.20248292710E+03  0.21344992085E+03  0.00000000000E+00 0.  1.
<mgrwt>
<rscale>  2 0.20513245E+03</rscale>
<asrwt>0</asrwt>
<pdfrwt beam="1">  1       21 0.11578998E+00 0.20584614E+03</pdfrwt>
<pdfrwt beam="2">  1       21 0.13325483E-01 0.20584614E+03</pdfrwt>
<totfact> 0.27810571E+04</totfact>
</mgrwt>
</event>
<event>
12    1  0.1071811E-001  0.2146878E+03  0.7546771E-02  0.1138095E+00
         21   -1    0    0  501  502  0.00000000000E+00  0.00000000000E+00  0.10541890404E+04  0.10541890404E+04  0.00000000000E+00 0.  1.
         21   -1    0    0  502  503 -0.00000000000E+00 -0.00000000000E+00 -0.44069378497E+02  0.44069378497E+02  0.00000000000E+00 0.  1.
         -6    2    1    2    0  503  0.12100470125E+03 -0.39226697804E+02  0.44503324937E+03  0.49411074235E+03  0.17294496557E+03 0.  0.
        -24    2    3    3    0    0  0.30785907389E+02 -0.50516866364E+02  0.34152517949E+03  0.35625970245E+03  0.82351693851E+02 0.  0.
          6    2    1    2  501    0 -0.12100470125E+03  0.39226697804E+02  0.56508641257E+03  0.60414767659E+03  0.17172911781E+03 0.  0.
         24    2    5    5    0    0 -0.94310765373E+02 -0.31821764225E+02  0.43540899261E+03  0.45381879241E+03  0.80395026937E+02 0.  0.
          5    1    5    5  501    0 -0.26693935880E+02  0.71048462029E+02  0.12967741997E+03  0.15032888418E+03  0.47000000000E+01 0. -1.
        -13    1    6    6    0    0 -0.30564508992E+02 -0.25098428214E+01  0.29760988193E+03  0.29918577898E+03  0.00000000000E+00 0.  1.
         14    1    6    6    0    0 -0.63746256380E+02 -0.29311921404E+02  0.13779911068E+03  0.15463301343E+03  0.00000000000E+00 0. -1.
         -5    1    3    3    0  503  0.90218793864E+02  0.11290168560E+02  0.10350806988E+03  0.13785103990E+03  0.47000000000E+01 0.  1.
         11    1    4    4    0    0 -0.14053551202E+02  0.15919790381E+02  0.69507483032E+02  0.72678966865E+02  0.00000000000E+00 0. -1.
        -12    1    4    4    0    0  0.44839458591E+02 -0.66436656744E+02  0.27201769646E+03  0.28358073558E+03  0.00000000000E+00 0.  1.
<mgrwt>
<rscale>  2 0.21444278E+03</rscale>
<asrwt>0</asrwt>
<pdfrwt beam="1">  1       21 0.16218291E+00 0.21468776E+03</pdfrwt>
<pdfrwt beam="2">  1       21 0.67799052E-02 0.21468776E+03</pdfrwt>
<totfact> 0.38270131E+04</totfact>
</mgrwt>
</event>
<event>
12    1  0.1071811E-001  0.1817375E+03  0.7546771E-02  0.1167759E+00
         21   -1    0    0  503  502  0.00000000000E+00  0.00000000000E+00  0.28763566096E+02  0.28763566096E+02  0.00000000000E+00 0. -1.
         21   -1    0    0  501  503 -0.00000000000E+00 -0.00000000000E+00 -0.14592841131E+04  0.14592841131E+04  0.00000000000E+00 0. -1.
          6    2    1    2  501    0 -0.44589729117E+02 -0.63905403847E+01 -0.10708904130E+04  0.10851055399E+04  0.16917054451E+03 0.  0.
         24    2    3    3    0    0 -0.52529874011E+02 -0.51943184383E+02 -0.47056843439E+03  0.48298706546E+03  0.79902264568E+02 0.  0.
         -6    2    1    2    0  502  0.44589729117E+02  0.63905403847E+01 -0.35963013396E+03  0.40294213924E+03  0.17606661063E+03 0.  0.
        -24    2    5    5    0    0  0.37509972779E+02  0.68278940203E+02 -0.19048289475E+03  0.22262803687E+03  0.84914650540E+02 0.  0.
          5    1    3    3  501    0  0.79401448940E+01  0.45552643998E+02 -0.60032197862E+03  0.60211847446E+03  0.47000000000E+01 0. -1.
        -11    1    4    4    0    0 -0.15928564443E+02 -0.65664471914E+02 -0.24940084315E+03  0.25839180057E+03  0.00000000000E+00 0.  1.
         12    1    4    4    0    0 -0.36601309568E+02  0.13721287532E+02 -0.22116759124E+03  0.22459526489E+03  0.00000000000E+00 0. -1.
         -5    1    5    5    0  502  0.70797563381E+01 -0.61888399819E+02 -0.16914723921E+03  0.18031410237E+03  0.47000000000E+01 0.  1.
         13    1    6    6    0    0  0.61325446414E+02  0.37105637943E+02 -0.15005528553E+03  0.16629560265E+03  0.00000000000E+00 0. -1.
        -14    1    6    6    0    0 -0.23815473635E+02  0.31173302260E+02 -0.40427609221E+02  0.56332434224E+02  0.00000000000E+00 0.  1.
<mgrwt>
<rscale>  2 0.18004594E+03</rscale>
<asrwt>0</asrwt>
<pdfrwt beam="1">  1       21 0.44251626E-02 0.18173754E+03</pdfrwt>
<pdfrwt beam="2">  1       21 0.22450532E+00 0.18173754E+03</pdfrwt>
<totfact> 0.31485237E+04</totfact>
</mgrwt>
</event>
<event>
12    1  0.1071811E-001  0.3397439E+03  0.7546771E-02  0.1066928E+00
         21   -1    0    0  503  502  0.00000000000E+00  0.00000000000E+00  0.69333320011E+03  0.69333320011E+03  0.00000000000E+00 0.  1.
         21   -1    0    0  501  503 -0.00000000000E+00 -0.00000000000E+00 -0.24954554356E+03  0.24954554356E+03  0.00000000000E+00 0.  1.
          6    2    1    2  501    0 -0.17236158223E+03  0.23587283695E+03 -0.50226350136E+02  0.34343649759E+03  0.17343999363E+03 0.  0.
         24    2    3    3    0    0 -0.19381631605E+03  0.20257098185E+03 -0.18411029520E+02  0.29241078072E+03  0.81026733974E+02 0.  0.
         -6    2    1    2    0  502  0.17236158223E+03 -0.23587283695E+03  0.49401400669E+03  0.59944224607E+03  0.17302212961E+03 0.  0.
        -24    2    5    5    0    0  0.36072071315E+02 -0.11992131014E+03  0.14076615082E+03  0.20342996719E+03  0.76722404668E+02 0.  0.
          5    1    3    3  501    0  0.21454733821E+02  0.33301855100E+02 -0.31815320617E+02  0.51025716873E+02  0.47000000000E+01 0. -1.
        -11    1    4    4    0    0 -0.29802610710E+02  0.61833714819E+02 -0.32268987914E+02  0.75847817862E+02  0.00000000000E+00 0.  1.
         12    1    4    4    0    0 -0.16401370534E+03  0.14073726703E+03  0.13857958395E+02  0.21656296286E+03  0.00000000000E+00 0. -1.
         -5    1    5    5    0  502  0.13628951092E+03 -0.11595152681E+03  0.35324785587E+03  0.39601227889E+03  0.47000000000E+01 0.  1.
         13    1    6    6    0    0  0.45861300902E+02 -0.38084008423E+02  0.34255896662E+02  0.68754033148E+02  0.00000000000E+00 0. -1.
        -14    1    6    6    0    0 -0.97892295870E+01 -0.81837301714E+02  0.10651025416E+03  0.13467593404E+03  0.00000000000E+00 0.  1.
<mgrwt>
<rscale>  2 0.33969064E+03</rscale>
<asrwt>0</asrwt>
<pdfrwt beam="1">  1       21 0.10666665E+00 0.33974394E+03</pdfrwt>
<pdfrwt beam="2">  1       21 0.38391622E-01 0.33974394E+03</pdfrwt>
<totfact> 0.42026180E+03</totfact>
</mgrwt>
</event>
<event>
12    1  0.1071811E-001  0.1924358E+03  0.7546771E-02  0.1157174E+00
         21   -1    0    0  501  502  0.00000000000E+00  0.00000000000E+00  0.35553994560E+02  0.35553994560E+02  0.00000000000E+00 0.  1.
         21   -1    0    0  502  503 -0.00000000000E+00 -0.00000000000E+00 -0.10528699485E+04  0.10528699485E+04  0.00000000000E+00 0.  1.
         -6    2    1    2    0  503 -0.14195060769E+02 -0.79866780355E+02 -0.40758204453E+03  0.44904378323E+03  0.17010877073E+03 0.  0.
        -24    2    3    3    0    0 -0.13807377030E+02 -0.11855698152E+03 -0.26746796532E+03  0.30360951231E+03  0.79957626059E+02 0.  0.
          6    2    1    2  501    0  0.14195060769E+02  0.79866780355E+02 -0.60973390941E+03  0.63938015983E+03  0.17450314079E+03 0.  0.
         24    2    5    5    0    0 -0.21936298663E+02 -0.23571365510E+02 -0.20824631347E+03  0.22318392625E+03  0.73537251719E+02 0.  0.
          5    1    5    5  501    0  0.36131359432E+02  0.10343814586E+03 -0.40148759594E+03  0.41619623358E+03  0.47000000000E+01 0. -1.
        -13    1    6    6    0    0 -0.11261384321E+02  0.97776232078E+01 -0.33086748188E+01  0.15276387710E+02  0.00000000000E+00 0.  1.
         14    1    6    6    0    0 -0.10674914342E+02 -0.33348988717E+02 -0.20493763865E+03  0.20790753854E+03  0.00000000000E+00 0. -1.
         -5    1    3    3    0  503 -0.38768373872E+00  0.38690201167E+02 -0.14011407921E+03  0.14543427092E+03  0.47000000000E+01 0.  1.
         11    1    4    4    0    0 -0.19249978781E+02 -0.12868176583E+02 -0.99657686202E+01  0.25208494517E+02  0.00000000000E+00 0. -1.
        -12    1    4    4    0    0  0.54426017504E+01 -0.10568880494E+03 -0.25750219670E+03  0.27840101779E+03  0.00000000000E+00 0.  1.
<mgrwt>
<rscale>  2 0.19143409E+03</rscale>
<asrwt>0</asrwt>
<pdfrwt beam="1">  1       21 0.54698465E-02 0.19243583E+03</pdfrwt>
<pdfrwt beam="2">  1       21 0.16197996E+00 0.19243583E+03</pdfrwt>
<totfact> 0.56229296E+04</totfact>
</mgrwt>
</event>
<event>
12    1  0.1071811E-001  0.2881126E+03  0.7546771E-02  0.1091392E+00
         21   -1    0    0  501  502  0.00000000000E+00  0.00000000000E+00  0.48787555900E+03  0.48787555900E+03  0.00000000000E+00 0. -1.
         21   -1    0    0  502  503 -0.00000000000E+00 -0.00000000000E+00 -0.17006751171E+03  0.17006751171E+03  0.00000000000E+00 0.  1.
         -6    2    1    2    0  503 -0.13549228089E+03  0.18652578896E+03  0.16904007614E+03  0.33368886284E+03  0.17211531517E+03 0.  0.
        -24    2    3    3    0    0 -0.50098511855E+02  0.58458602686E+02  0.96612696395E+01  0.11206532178E+03  0.80858067607E+02 0.  0.
          6    2    1    2  501    0  0.13549228089E+03 -0.18652578896E+03  0.14876797116E+03  0.32425420787E+03  0.17279714683E+03 0.  0.
         24    2    5    5    0    0  0.92012134688E+02 -0.27602513893E+02  0.55574911452E+02  0.13490224235E+03  0.76693627530E+02 0.  0.
          5    1    5    5  501    0  0.43480146204E+02 -0.15892327506E+03  0.93193059703E+02  0.18935196552E+03  0.47000000000E+01 0. -1.
        -13    1    6    6    0    0  0.83835689633E+02 -0.45379103926E+02  0.24916298911E+02  0.98531760771E+02  0.00000000000E+00 0.  1.
         14    1    6    6    0    0  0.81764450556E+01  0.17776590033E+02  0.30658612542E+02  0.36370481574E+02  0.00000000000E+00 0. -1.
         -5    1    3    3    0  503 -0.85393769037E+02  0.12806718627E+03  0.15937880650E+03  0.22162354105E+03  0.47000000000E+01 0.  1.
         11    1    4    4    0    0 -0.29371040264E+02  0.46460779121E+02  0.43855913737E+02  0.70317872354E+02  0.00000000000E+00 0. -1.
        -12    1    4    4    0    0 -0.20727471591E+02  0.11997823564E+02 -0.34194644097E+02  0.41747449428E+02  0.00000000000E+00 0.  1.
<mgrwt>
<rscale>  2 0.28801046E+03</rscale>
<asrwt>0</asrwt>
<pdfrwt beam="1">  1       21 0.75057778E-01 0.28811262E+03</pdfrwt>
<pdfrwt beam="2">  1       21 0.26164233E-01 0.28811262E+03</pdfrwt>
<totfact> 0.20998783E+04</totfact>
</mgrwt>
</event>
<event>
12    1  0.1071811E-001  0.2528605E+03  0.7546771E-02  0.1111519E+00
         21   -1    0    0  503  502  0.00000000000E+00  0.00000000000E+00  0.77411826054E+02  0.77411826054E+02  0.00000000000E+00 0. -1.
         21   -1    0    0  501  503 -0.00000000000E+00 -0.00000000000E+00 -0.12053055413E+04  0.12053055413E+04  0.00000000000E+00 0.  1.
          6    2    1    2  501    0  0.76054638952E+02 -0.16791489712E+03 -0.20400368244E+03  0.32484929886E+03  0.17300243855E+03 0.  0.
         24    2    3    3    0    0  0.10090535077E+03 -0.13622499784E+03 -0.21278357351E+03  0.28336455370E+03  0.79243178190E+02 0.  0.
         -6    2    1    2    0  502 -0.76054638952E+02  0.16791489712E+03 -0.92389003278E+03  0.95786806846E+03  0.17308588367E+03 0.  0.
        -24    2    5    5    0    0 -0.53076577244E+01  0.13036564368E+03 -0.76202271727E+03  0.77720761452E+03  0.79684892880E+02 0.  0.
          5    1    3    3  501    0 -0.24850711815E+02 -0.31689899282E+02  0.87798910709E+01  0.41484745165E+02  0.47000000000E+01 0. -1.
        -11    1    4    4    0    0 -0.68633893292E+01  0.22994290255E+01  0.37639012710E+00  0.72481139930E+01  0.00000000000E+00 0.  1.
         12    1    4    4    0    0  0.10776874010E+03 -0.13852442686E+03 -0.21315996363E+03  0.27611643971E+03  0.00000000000E+00 0. -1.
         -5    1    5    5    0  502 -0.70746981228E+02  0.37549253433E+02 -0.16186731551E+03  0.18066045393E+03  0.47000000000E+01 0.  1.
         11    1    6    6    0    0 -0.27099549319E+02  0.11594209597E+02 -0.99654237059E+02  0.10392198147E+03  0.00000000000E+00 0. -1.
        -12    1    6    6    0    0  0.21791891595E+02  0.11877143409E+03 -0.66236848021E+03  0.67328563305E+03  0.00000000000E+00 0.  1.
<mgrwt>
<rscale>  2 0.25284624E+03</rscale>
<asrwt>0</asrwt>
<pdfrwt beam="1">  1       21 0.11909512E-01 0.25286052E+03</pdfrwt>
<pdfrwt beam="2">  1       21 0.18543161E+00 0.25286052E+03</pdfrwt>
<totfact> 0.95183572E+03</totfact>
</mgrwt>
</event>
<event>
12    1  0.1071811E-001  0.1859449E+03  0.7546771E-02  0.1162194E+00
         21   -1    0    0  501  502  0.00000000000E+00  0.00000000000E+00  0.46254649042E+03  0.46254649042E+03  0.00000000000E+00 0. -1.
         21   -1    0    0  502  503 -0.00000000000E+00 -0.00000000000E+00 -0.25045601565E+03  0.25045601565E+03  0.00000000000E+00 0. -1.
         -6    2    1    2    0  503 -0.67362421750E+02 -0.14993168381E+02 -0.19258019976E+03  0.26769879287E+03  0.17266447059E+03 0.  0.
        -24    2    3    3    0    0 -0.69630303223E+02 -0.23423789958E+02 -0.41231031306E+02  0.11602519775E+03  0.79779668513E+02 0.  0.
          6    2    1    2  501    0  0.67362421750E+02  0.14993168381E+02  0.40467067453E+03  0.44530371319E+03  0.17255303880E+03 0.  0.
         24    2    5    5    0    0 -0.73213562228E+01  0.24028530470E+02  0.32341547949E+03  0.33447140211E+03  0.81501987210E+02 0.  0.
          5    1    5    5  501    0  0.74683777973E+02 -0.90353620889E+01  0.81255195033E+02  0.11083231108E+03  0.47000000000E+01 0. -1.
        -11    1    6    6    0    0 -0.89231825767E+01 -0.16125746929E+02  0.15898526089E+02  0.24339803474E+02  0.00000000000E+00 0.  1.
         12    1    6    6    0    0  0.16018263539E+01  0.40154277399E+02  0.30751695340E+03  0.31013159864E+03  0.00000000000E+00 0. -1.
         -5    1    3    3    0  503  0.22678814720E+01  0.84306215773E+01 -0.15134916845E+03  0.15167359512E+03  0.47000000000E+01 0.  1.
         11    1    4    4    0    0 -0.19209713148E+02 -0.31097182783E+02 -0.52328744957E+02  0.63830599285E+02  0.00000000000E+00 0. -1.
        -12    1    4    4    0    0 -0.50420590075E+02  0.76733928249E+01  0.11097713651E+02  0.52194598468E+02  0.00000000000E+00 0.  1.
<mgrwt>
<rscale>  2 0.18591904E+03</rscale>
<asrwt>0</asrwt>
<pdfrwt beam="1">  1       21 0.71160999E-01 0.18594491E+03</pdfrwt>
<pdfrwt beam="2">  1       21 0.38531695E-01 0.18594491E+03</pdfrwt>
<totfact> 0.11657372E+04</totfact>
</mgrwt>
</event>
<event>
12    1  0.1071811E-001  0.1847480E+03  0.7546771E-02  0.1163291E+00
         21   -1    0    0  501  502  0.00000000000E+00  0.00000000000E+00  0.52236939571E+03  0.52236939571E+03  0.00000000000E+00 0. -1.
         21   -1    0    0  502  503 -0.00000000000E+00 -0.00000000000E+00 -0.28576060291E+03  0.28576060291E+03  0.00000000000E+00 0. -1.
         -6    2    1    2    0  503  0.28217923757E+02 -0.55587466652E+02 -0.23657953704E+03  0.30015458568E+03  0.17388697561E+03 0.  0.
        -24    2    3    3    0    0 -0.43744680066E+02 -0.57554138434E+02 -0.10653790862E+03  0.15144211387E+03  0.79739024307E+02 0.  0.
          6    2    1    2  501    0 -0.28217923757E+02  0.55587466652E+02  0.47318832984E+03  0.50797541294E+03  0.17391264183E+03 0.  0.
         24    2    5    5    0    0  0.24942600934E+02  0.79929035912E+02  0.24931550812E+03  0.27654576125E+03  0.85490065805E+02 0.  0.
          5    1    5    5  501    0 -0.53160524691E+02 -0.24341569260E+02  0.22387282172E+03  0.23142965169E+03  0.47000000000E+01 0. -1.
        -11    1    6    6    0    0  0.38102296980E+02  0.47168505783E+02  0.65046937471E+02  0.88925570267E+02  0.00000000000E+00 0.  1.
         12    1    6    6    0    0 -0.13159696046E+02  0.32760530129E+02  0.18426857065E+03  0.18762019098E+03  0.00000000000E+00 0. -1.
         -5    1    3    3    0  503  0.71962603822E+02  0.19666717824E+01 -0.13004162842E+03  0.14871247180E+03  0.47000000000E+01 0.  1.
         13    1    4    4    0    0  0.79826999903E+01 -0.47274041565E+01 -0.66922747561E+02  0.67562755941E+02  0.00000000000E+00 0. -1.
        -14    1    4    4    0    0 -0.51727380056E+02 -0.52826734278E+02 -0.39615161055E+02  0.83879357934E+02  0.00000000000E+00 0.  1.
<mgrwt>
<rscale>  2 0.18474196E+03</rscale>
<asrwt>0</asrwt>
<pdfrwt beam="1">  1       21 0.80364522E-01 0.18474800E+03</pdfrwt>
<pdfrwt beam="2">  1       21 0.43963170E-01 0.18474800E+03</pdfrwt>
<totfact> 0.68064817E+03</totfact>
</mgrwt>
</event>
<event>
12    1  0.1071811E-001  0.1858487E+03  0.7546771E-02  0.1162389E+00
         21   -1    0    0  503  502  0.00000000000E+00  0.00000000000E+00  0.74374276012E+03  0.74374276012E+03  0.00000000000E+00 0. -1.
         21   -1    0    0  501  503 -0.00000000000E+00 -0.00000000000E+00 -0.10709772764E+03  0.10709772764E+03  0.00000000000E+00 0. -1.
          6    2    1    2  501    0 -0.56871527551E+02  0.32551826319E+02 -0.24126742489E+01  0.18530725320E+03  0.17331752667E+03 0.  0.
         24    2    3    3    0    0 -0.53950794910E+02  0.43945552384E+02  0.48009643685E+02  0.13331833305E+03  0.10308710974E+03 0.  0.
         -6    2    1    2    0  502  0.56871527551E+02 -0.32551826319E+02  0.63905770672E+03  0.66553323456E+03  0.17391302924E+03 0.  0.
        -24    2    5    5    0    0  0.55701989173E+02  0.14304539422E+02  0.58748563903E+03  0.59568586527E+03  0.79968384834E+02 0.  0.
          5    1    3    3  501    0 -0.29207326414E+01 -0.11393726065E+02 -0.50422317934E+02  0.51988920153E+02  0.47000000000E+01 0. -1.
        -11    1    4    4    0    0  0.18380702815E+02  0.21241658634E+02  0.50145514457E+02  0.57477220859E+02  0.00000000000E+00 0.  1.
         12    1    4    4    0    0 -0.72331497724E+02  0.22703893750E+02 -0.21358707721E+01  0.75841112192E+02  0.00000000000E+00 0. -1.
         -5    1    5    5    0  502  0.11695383776E+01 -0.46856365741E+02  0.51572067697E+02  0.69847369292E+02  0.47000000000E+01 0.  1.
         13    1    6    6    0    0 -0.26435155550E+01  0.76837293926E+01  0.37904534412E+03  0.37913243170E+03  0.00000000000E+00 0. -1.
        -14    1    6    6    0    0  0.58345504728E+02  0.66208100298E+01  0.20844029491E+03  0.21655343357E+03  0.00000000000E+00 0.  1.
<mgrwt>
<rscale>  2 0.18570924E+03</rscale>
<asrwt>0</asrwt>
<pdfrwt beam="1">  1       21 0.11442196E+00 0.18584869E+03</pdfrwt>
<pdfrwt beam="2">  1       21 0.16476574E-01 0.18584869E+03</pdfrwt>
<totfact> 0.19694739E+04</totfact>
</mgrwt>
</event>
<event>
12    1  0.1071811E-001  0.2051664E+03  0.7546771E-02  0.1145470E+00
         21   -1    0    0  501  502  0.00000000000E+00  0.00000000000E+00  0.49393760305E+02  0.49393760305E+02  0.00000000000E+00 0. -1.
         21   -1    0    0  502  503 -0.00000000000E+00 -0.00000000000E+00 -0.91008346805E+03  0.91008346805E+03  0.00000000000E+00 0. -1.
         -6    2    1    2    0  503 -0.64074538459E+02  0.90925934311E+02 -0.30905936448E+03  0.37095949361E+03  0.17239542662E+03 0.  0.
        -24    2    3    3    0    0 -0.48625685528E+01  0.68000504825E+02 -0.28396983510E+03  0.30252553142E+03  0.78962755042E+02 0.  0.
          6    2    1    2  501    0  0.64074538459E+02 -0.90925934311E+02 -0.55163034326E+03  0.58851773474E+03  0.17229050027E+03 0.  0.
         24    2    5    5    0    0  0.10726529518E+03 -0.36018137394E+02 -0.31786759788E+03  0.34449433677E+03  0.69522575562E+02 0.  0.
          5    1    5    5  501    0 -0.43190756717E+02 -0.54907796917E+02 -0.23376274538E+03  0.24402339797E+03  0.47000000000E+01 0. -1.
        -11    1    6    6    0    0  0.84647019896E+01  0.12401026097E+02 -0.92408191778E+02  0.93620032769E+02  0.00000000000E+00 0.  1.
         12    1    6    6    0    0  0.98800593187E+02 -0.48419163490E+02 -0.22545940610E+03  0.25087430400E+03  0.00000000000E+00 0. -1.
         -5    1    3    3    0  503 -0.59211969907E+02  0.22925429485E+02 -0.25089529379E+02  0.68433962195E+02  0.47000000000E+01 0.  1.
         11    1    4    4    0    0 -0.29799661808E+02  0.26921451768E+02 -0.21340868339E+03  0.21715443941E+03  0.00000000000E+00 0. -1.
        -12    1    4    4    0    0  0.24937093255E+02  0.41079053057E+02 -0.70561151709E+02  0.85371092007E+02  0.00000000000E+00 0.  1.
<mgrwt>
<rscale>  2 0.20514437E+03</rscale>
<asrwt>0</asrwt>
<pdfrwt beam="1">  1       21 0.75990402E-02 0.20516641E+03</pdfrwt>
<pdfrwt beam="2">  1       21 0.14001284E+00 0.20516641E+03</pdfrwt>
<totfact> 0.46615087E+04</totfact>
</mgrwt>
</event>
<event>
12    1  0.1071811E-001  0.1917995E+03  0.7546771E-02  0.1156936E+00
         21   -1    0    0  503  502  0.00000000000E+00  0.00000000000E+00  0.11836340126E+03  0.11836340126E+03  0.00000000000E+00 0. -1.
         21   -1    0    0  501  503 -0.00000000000E+00 -0.00000000000E+00 -0.28015964540E+04  0.28015964540E+04  0.00000000000E+00 0.  1.
          6    2    1    2  501    0  0.81342728968E+02  0.13466361107E+02 -0.27182578916E+04  0.27249885820E+04  0.17273918000E+03 0.  0.
         24    2    3    3    0    0  0.10488787051E+03  0.42927787957E+02 -0.15765132184E+04  0.15826115260E+04  0.80131479224E+02 0.  0.
         -6    2    1    2    0  502 -0.81342728968E+02 -0.13466361107E+02  0.35024838852E+02  0.19497127327E+03  0.17317354193E+03 0.  0.
        -24    2    5    5    0    0 -0.23222064568E+02  0.21466637578E+02 -0.38751060380E+02  0.94655275864E+02  0.80361033820E+02 0.  0.
          5    1    3    3  501    0 -0.23545141537E+02 -0.29461426850E+02 -0.11417446732E+04  0.11423770560E+04  0.47000000000E+01 0. -1.
        -13    1    4    4    0    0  0.54057761980E+02 -0.91632448327E+00 -0.11075067049E+04  0.11088255871E+04  0.00000000000E+00 0.  1.
         14    1    4    4    0    0  0.50830108526E+02  0.43844112440E+02 -0.46900651352E+03  0.47378593885E+03  0.00000000000E+00 0. -1.
         -5    1    5    5    0  502 -0.58120664400E+02 -0.34932998685E+02  0.73775899232E+02  0.10031599740E+03  0.47000000000E+01 0.  1.
         11    1    6    6    0    0 -0.45997765637E+01 -0.26218094122E+02  0.52742270621E+01  0.27136025408E+02  0.00000000000E+00 0. -1.
        -12    1    6    6    0    0 -0.18622288004E+02  0.47684731700E+02 -0.44025287442E+02  0.67519250456E+02  0.00000000000E+00 0.  1.
<mgrwt>
<rscale>  2 0.19170143E+03</rscale>
<asrwt>0</asrwt>
<pdfrwt beam="1">  1       21 0.18209753E-01 0.19179953E+03</pdfrwt>
<pdfrwt beam="2">  1       21 0.43101487E+00 0.19179953E+03</pdfrwt>
<totfact> 0.15244877E+02</totfact>
</mgrwt>
</event>
<event>
12    1  0.1071811E-001  0.2000340E+03  0.7546771E-02  0.1151581E+00
         21   -1    0    0  503  502  0.00000000000E+00  0.00000000000E+00  0.10496276210E+03  0.10496276210E+03  0.00000000000E+00 0. -1.
         21   -1    0    0  501  503 -0.00000000000E+00 -0.00000000000E+00 -0.36897483542E+03  0.36897483542E+03  0.00000000000E+00 0. -1.
          6    2    1    2  501    0 -0.11993826028E+02 -0.79204164019E+02 -0.10996107510E+03  0.22826528555E+03  0.18329334709E+03 0.  0.
         24    2    3    3    0    0  0.65487613078E+02 -0.35040255545E+02 -0.46071799673E+02  0.11845748195E+03  0.79956971733E+02 0.  0.
         -6    2    1    2    0  502  0.11993826028E+02  0.79204164019E+02 -0.15405099823E+03  0.24567231198E+03  0.17379880136E+03 0.  0.
        -24    2    5    5    0    0 -0.35441293704E+02  0.83906904618E+02 -0.15626154072E+03  0.19772251686E+03  0.79875344296E+02 0.  0.
          5    1    3    3  501    0 -0.77481439105E+02 -0.44163908474E+02 -0.63889275422E+02  0.10980780360E+03  0.47000000000E+01 0. -1.
        -11    1    4    4    0    0  0.29415975478E+02 -0.22992978917E+02  0.19900636832E+02  0.42308533880E+02  0.00000000000E+00 0.  1.
         12    1    4    4    0    0  0.36071637600E+02 -0.12047276628E+02 -0.65972436505E+02  0.76148948067E+02  0.00000000000E+00 0. -1.
         -5    1    5    5    0  502  0.47435119732E+02 -0.47027405987E+01  0.22105424847E+01  0.47949795111E+02  0.47000000000E+01 0.  1.
         13    1    6    6    0    0 -0.18036807353E+02  0.80852703459E+02 -0.66475872223E+02  0.10621453603E+03  0.00000000000E+00 0. -1.
        -14    1    6    6    0    0 -0.17404486351E+02  0.30542011586E+01 -0.89785668492E+02  0.91507980834E+02  0.00000000000E+00 0.  1.
<mgrwt>
<rscale>  2 0.19783238E+03</rscale>
<asrwt>0</asrwt>
<pdfrwt beam="1">  1       21 0.16148117E-01 0.20003400E+03</pdfrwt>
<pdfrwt beam="2">  1       21 0.56765360E-01 0.20003400E+03</pdfrwt>
<totfact> 0.99709071E+04</totfact>
</mgrwt>
</event>
<event>
12    1  0.1071811E-001  0.2311494E+03  0.7546771E-02  0.1127869E+00
         21   -1    0    0  503  502  0.00000000000E+00  0.00000000000E+00  0.21467660132E+03  0.21467660132E+03  0.00000000000E+00 0.  1.
         21   -1    0    0  501  503 -0.00000000000E+00 -0.00000000000E+00 -0.10488262519E+04  0.10488262519E+04  0.00000000000E+00 0.  1.
          6    2    1    2  501    0  0.73789892815E+02 -0.13393373174E+03 -0.97526970014E+03  0.10022879006E+04  0.17334028634E+03 0.  0.
         24    2    3    3    0    0  0.75009404753E+02 -0.16548657591E+03 -0.79739410038E+03  0.82157019759E+03  0.78281675018E+02 0.  0.
         -6    2    1    2    0  502 -0.73789892815E+02  0.13393373174E+03  0.14112004953E+03  0.26121495266E+03  0.15790880386E+03 0.  0.
        -24    2    5    5    0    0 -0.72209637476E+02  0.13002395865E+03  0.16314130365E+03  0.23830623891E+03  0.89745846591E+02 0.  0.
          5    1    3    3  501    0 -0.12195119380E+01  0.31552844174E+02 -0.17787559975E+03  0.18071770299E+03  0.47000000000E+01 0. -1.
        -13    1    4    4    0    0  0.28529503667E+02 -0.14285451888E+03 -0.61244618242E+03  0.62953290026E+03  0.00000000000E+00 0.  1.
         14    1    4    4    0    0  0.46479901087E+02 -0.22632057026E+02 -0.18494791796E+03  0.19203729733E+03  0.00000000000E+00 0. -1.
         -5    1    5    5    0  502 -0.15802553391E+01  0.39097730814E+01 -0.22021254121E+02  0.22908713747E+02  0.47000000000E+01 0.  1.
         13    1    6    6    0    0  0.10508651452E+02 -0.54428650735E+01  0.17874225561E+01  0.11968768313E+02  0.00000000000E+00 0. -1.
        -14    1    6    6    0    0 -0.82718288928E+02  0.13546682373E+03  0.16135388109E+03  0.22633747060E+03  0.00000000000E+00 0.  1.
<mgrwt>
<rscale>  2 0.22826201E+03</rscale>
<asrwt>0</asrwt>
<pdfrwt beam="1">  1       21 0.33027169E-01 0.23114941E+03</pdfrwt>
<pdfrwt beam="2">  1       21 0.16135789E+00 0.23114941E+03</pdfrwt>
<totfact> 0.20969843E+03</totfact>
</mgrwt>
</event>
<event>
12    1  0.1071811E-001  0.1816096E+03  0.7546771E-02  0.1166377E+00
         21   -1    0    0  501  502  0.00000000000E+00  0.00000000000E+00  0.69497673848E+03  0.69497673848E+03  0.00000000000E+00 0. -1.
         21   -1    0    0  502  503 -0.00000000000E+00 -0.00000000000E+00 -0.47429006097E+02  0.47429006097E+02  0.00000000000E+00 0. -1.
         -6    2    1    2    0  503  0.47771590007E+02  0.24270842816E+02  0.34081927382E+03  0.38594483506E+03  0.17298681940E+03 0.  0.
        -24    2    3    3    0    0 -0.32167808191E+02 -0.52332056821E+01  0.23079514917E+03  0.24670333885E+03  0.80833051393E+02 0.  0.
          6    2    1    2  501    0 -0.47771590007E+02 -0.24270842816E+02  0.30672845857E+03  0.35646090952E+03  0.17352473626E+03 0.  0.
         24    2    5    5    0    0  0.54561745867E+01 -0.11403267890E+02  0.28665205342E+03  0.29794662534E+03  0.80268222025E+02 0.  0.
          5    1    5    5  501    0 -0.53227764593E+02 -0.12867574927E+02  0.20076405156E+02  0.58514284172E+02  0.47000000000E+01 0. -1.
        -13    1    6    6    0    0 -0.30213688330E+02  0.11576973580E+01  0.21317805389E+03  0.21531161113E+03  0.00000000000E+00 0.  1.
         14    1    6    6    0    0  0.35669862917E+02 -0.12560965248E+02  0.73473999523E+02  0.82635014215E+02  0.00000000000E+00 0. -1.
         -5    1    3    3    0  503  0.79939398198E+02  0.29504048499E+02  0.11002412465E+03  0.13924149621E+03  0.47000000000E+01 0.  1.
         13    1    4    4    0    0 -0.33444463735E+01 -0.40461253081E+02  0.12792828055E+03  0.13421603215E+03  0.00000000000E+00 0. -1.
        -14    1    4    4    0    0 -0.28823361818E+02  0.35228047399E+02  0.10286686862E+03  0.11248730670E+03  0.00000000000E+00 0.  1.
<mgrwt>
<rscale>  2 0.18148095E+03</rscale>
<asrwt>0</asrwt>
<pdfrwt beam="1">  1       21 0.10691949E+00 0.18160956E+03</pdfrwt>
<pdfrwt beam="2">  1       21 0.72967707E-02 0.18160956E+03</pdfrwt>
<totfact> 0.98931316E+04</totfact>
</mgrwt>
</event>
<event>
12    1  0.1071811E-001  0.1924826E+03  0.7546771E-02  0.1157582E+00
         21   -1    0    0  501  502  0.00000000000E+00  0.00000000000E+00  0.18653631357E+04  0.18653631357E+04  0.00000000000E+00 0. -1.
         21   -1    0    0  502  503 -0.00000000000E+00 -0.00000000000E+00 -0.90980353051E+02  0.90980353051E+02  0.00000000000E+00 0. -1.
         -6    2    1    2    0  503  0.68243234640E+02 -0.48772122790E+02  0.21631425620E+02  0.19369431281E+03  0.17324465130E+03 0.  0.
        -24    2    3    3    0    0  0.56506960732E+02 -0.94029327826E+02 -0.64631844822E+01  0.13894623659E+03  0.85027835480E+02 0.  0.
          6    2    1    2  501    0 -0.68243234640E+02  0.48772122790E+02  0.17527513570E+04  0.17626491759E+04  0.16661014028E+03 0.  0.
         24    2    5    5    0    0 -0.92635697863E+02 -0.82998073103E+01  0.10766346608E+04  0.10836734221E+04  0.80966866550E+02 0.  0.
          5    1    5    5  501    0  0.24392463222E+02  0.57071930100E+02  0.67611669618E+03  0.67897575386E+03  0.47000000000E+01 0. -1.
        -11    1    6    6    0    0 -0.64201014182E+02 -0.39679691017E+02  0.52246493060E+03  0.52788810538E+03  0.00000000000E+00 0.  1.
         12    1    6    6    0    0 -0.28434683680E+02  0.31379883707E+02  0.55416973023E+03  0.55578531669E+03  0.00000000000E+00 0. -1.
         -5    1    3    3    0  503  0.11736273908E+02  0.45257205036E+02  0.28094610102E+02  0.54748076219E+02  0.47000000000E+01 0.  1.
         13    1    4    4    0    0 -0.51458297099E+01 -0.65490574120E+02  0.15593480208E+02  0.67517786448E+02  0.00000000000E+00 0. -1.
        -14    1    4    4    0    0  0.61652790442E+02 -0.28538753706E+02 -0.22056664690E+02  0.71428450142E+02  0.00000000000E+00 0.  1.
<mgrwt>
<rscale>  2 0.19097784E+03</rscale>
<asrwt>0</asrwt>
<pdfrwt beam="1">  1       21 0.28697892E+00 0.19248264E+03</pdfrwt>
<pdfrwt beam="2">  1       21 0.13996979E-01 0.19248264E+03</pdfrwt>
<totfact> 0.18047837E+03</totfact>
</mgrwt>
</event>
<event>
12    1  0.1071811E-001  0.2624287E+03  0.7546771E-02  0.1107821E+00
         21   -1    0    0  501  502  0.00000000000E+00  0.00000000000E+00  0.31768919383E+03  0.31768919383E+03  0.00000000000E+00 0.  1.
         21   -1    0    0  502  503 -0.00000000000E+00 -0.00000000000E+00 -0.26643164337E+03  0.26643164337E+03  0.00000000000E+00 0.  1.
         -6    2    1    2    0  503  0.14804181127E+03  0.10438995616E+03 -0.11462516844E+03  0.27366002428E+03  0.17010949068E+03 0.  0.
        -24    2    3    3    0    0  0.98051664466E+02  0.25991831990E+02 -0.10782042209E+02  0.13419402299E+03  0.87189902727E+02 0.  0.
          6    2    1    2  501    0 -0.14804181127E+03 -0.10438995616E+03  0.16588271890E+03  0.31046081292E+03  0.18988206629E+03 0.  0.
         24    2    5    5    0    0 -0.35900193864E+02  0.21200447201E+01  0.12099954719E+03  0.14934994505E+03  0.79819779239E+02 0.  0.
          5    1    5    5  501    0 -0.11214161740E+03 -0.10651000088E+03  0.44883171709E+02  0.16111086787E+03  0.47000000000E+01 0. -1.
        -13    1    6    6    0    0 -0.13501647605E+02 -0.26449721390E+02  0.81350730570E+01  0.30790609986E+02  0.00000000000E+00 0.  1.
         14    1    6    6    0    0 -0.22398546259E+02  0.28569766111E+02  0.11286447413E+03  0.11855933506E+03  0.00000000000E+00 0. -1.
         -5    1    3    3    0  503  0.49990146802E+02  0.78398124174E+02 -0.10384312623E+03  0.13946600129E+03  0.47000000000E+01 0.  1.
         13    1    4    4    0    0  0.72764901285E+02 -0.82053798671E+01 -0.39184784787E+02  0.83051228025E+02  0.00000000000E+00 0. -1.
        -14    1    4    4    0    0  0.25286763181E+02  0.34197211857E+02  0.28402742577E+02  0.51142794966E+02  0.00000000000E+00 0.  1.
<mgrwt>
<rscale>  2 0.25887430E+03</rscale>
<asrwt>0</asrwt>
<pdfrwt beam="1">  1       21 0.48875261E-01 0.26242873E+03</pdfrwt>
<pdfrwt beam="2">  1       21 0.40989484E-01 0.26242873E+03</pdfrwt>
<totfact> 0.22088022E+04</totfact>
</mgrwt>
</event>
<event>
12    1  0.1071811E-001  0.1991283E+03  0.7546771E-02  0.1150597E+00
         21   -1    0    0  503  502  0.00000000000E+00  0.00000000000E+00  0.34523119391E+03  0.34523119391E+03  0.00000000000E+00 0.  1.
         21   -1    0    0  501  503 -0.00000000000E+00 -0.00000000000E+00 -0.16186997365E+03  0.16186997365E+03  0.00000000000E+00 0.  1.
          6    2    1    2  501    0 -0.51166128895E+02  0.84049096032E+02 -0.45532236225E+02  0.20371313631E+03  0.17246342824E+03 0.  0.
         24    2    3    3    0    0 -0.22257572094E+02 -0.18900042580E+02 -0.45317757337E+02  0.96678722229E+02  0.80252508226E+02 0.  0.
         -6    2    1    2    0  502  0.51166128895E+02 -0.84049096032E+02  0.22889345649E+03  0.30338803124E+03  0.17311805159E+03 0.  0.
        -24    2    5    5    0    0 -0.37556056339E+02 -0.55469570613E+02  0.10943459323E+03  0.15179342238E+03  0.81104760955E+02 0.  0.
          5    1    3    3  501    0 -0.28908556800E+02  0.10294913861E+03 -0.21447888770E+00  0.10703441408E+03  0.47000000000E+01 0. -1.
        -13    1    4    4    0    0  0.12764442256E+02  0.16755417461E+02 -0.41518499061E+02  0.46555996013E+02  0.00000000000E+00 0.  1.
         14    1    4    4    0    0 -0.35022014351E+02 -0.35655460041E+02 -0.37992582758E+01  0.50122726216E+02  0.00000000000E+00 0. -1.
         -5    1    5    5    0  502  0.88722185234E+02 -0.28579525419E+02  0.11945886325E+03  0.15159460886E+03  0.47000000000E+01 0.  1.
         11    1    6    6    0    0 -0.54791668592E+01 -0.10242831500E+02  0.93336624937E+02  0.94056697907E+02  0.00000000000E+00 0. -1.
        -12    1    6    6    0    0 -0.32076889480E+02 -0.45226739113E+02  0.16097968297E+02  0.57736724472E+02  0.00000000000E+00 0.  1.
<mgrwt>
<rscale>  2 0.19898594E+03</rscale>
<asrwt>0</asrwt>
<pdfrwt beam="1">  1       21 0.53112491E-01 0.19912831E+03</pdfrwt>
<pdfrwt beam="2">  1       21 0.24903073E-01 0.19912831E+03</pdfrwt>
<totfact> 0.51075228E+04</totfact>
</mgrwt>
</event>
<event>
12    1  0.1071811E-001  0.2189295E+03  0.7546771E-02  0.1135370E+00
         21   -1    0    0  503  502  0.00000000000E+00  0.00000000000E+00  0.35553698074E+03  0.35553698074E+03  0.00000000000E+00 0.  1.
         21   -1    0    0  501  503 -0.00000000000E+00 -0.00000000000E+00 -0.32304823463E+03  0.32304823463E+03  0.00000000000E+00 0. -1.
          6    2    1    2  501    0  0.19710413300E+01  0.12979291291E+03 -0.24421833803E+03  0.32798279913E+03  0.17629530525E+03 0.  0.
         24    2    3    3    0    0  0.87672834587E+01  0.12253520676E+03 -0.84734953176E+02  0.16812066087E+03  0.77413191173E+02 0.  0.
         -6    2    1    2    0  502 -0.19710413300E+01 -0.12979291291E+03  0.27670708413E+03  0.35060241623E+03  0.17177065702E+03 0.  0.
        -24    2    5    5    0    0  0.22980642284E+01 -0.13680583773E+03  0.13937345802E+03  0.21294334011E+03  0.84845665534E+02 0.  0.
          5    1    3    3  501    0 -0.67962421286E+01  0.72577061547E+01 -0.15948338485E+03  0.15986213826E+03  0.47000000000E+01 0. -1.
        -11    1    4    4    0    0 -0.19259193739E+02  0.75178010038E+01 -0.32967815270E+02  0.38914145488E+02  0.00000000000E+00 0.  1.
         12    1    4    4    0    0  0.28026477198E+02  0.11501740575E+03 -0.51767137906E+02  0.12920651538E+03  0.00000000000E+00 0. -1.
         -5    1    5    5    0  502 -0.42691055584E+01  0.70129248227E+01  0.13733362612E+03  0.13765907612E+03  0.47000000000E+01 0.  1.
         13    1    6    6    0    0 -0.25549049581E+02 -0.61336753613E+01  0.32874966018E+02  0.42084905829E+02  0.00000000000E+00 0. -1.
        -14    1    6    6    0    0  0.27847113809E+02 -0.13067216237E+03  0.10649849200E+03  0.17085843428E+03  0.00000000000E+00 0.  1.
<mgrwt>
<rscale>  2 0.21801710E+03</rscale>
<asrwt>0</asrwt>
<pdfrwt beam="1">  1       21 0.54697997E-01 0.21892949E+03</pdfrwt>
<pdfrwt beam="2">  1       21 0.49699729E-01 0.21892949E+03</pdfrwt>
<totfact> 0.11971634E+04</totfact>
</mgrwt>
</event>
<event>
12    1  0.1071811E-001  0.2403475E+03  0.7546771E-02  0.1119576E+00
         21   -1    0    0  503  502  0.00000000000E+00  0.00000000000E+00  0.34332395278E+02  0.34332395278E+02  0.00000000000E+00 0. -1.
         21   -1    0    0  501  503 -0.00000000000E+00 -0.00000000000E+00 -0.17074744081E+04  0.17074744081E+04  0.00000000000E+00 0.  1.
          6    2    1    2  501    0 -0.12220472268E+03  0.11208753928E+03 -0.94314925223E+03  0.97329204967E+03  0.17398072094E+03 0.  0.
         24    2    3    3    0    0 -0.28834708885E+02  0.10230243760E+03 -0.59212633331E+03  0.60990123071E+03  0.10034284955E+03 0.  0.
         -6    2    1    2    0  502  0.12220472268E+03 -0.11208753928E+03 -0.72999276058E+03  0.76851475370E+03  0.17386168480E+03 0.  0.
        -24    2    5    5    0    0  0.10284445487E+02 -0.57705976009E+02 -0.19420165266E+03  0.21844411806E+03  0.81041972645E+02 0.  0.
          5    1    3    3  501    0 -0.93370013796E+02  0.97851016746E+01 -0.35102291892E+03  0.36339081895E+03  0.47000000000E+01 0. -1.
        -13    1    4    4    0    0  0.12115069044E+02  0.37236342790E+02 -0.41457391362E+03  0.41641907975E+03  0.00000000000E+00 0.  1.
         14    1    4    4    0    0 -0.40949777929E+02  0.65066094813E+02 -0.17755241968E+03  0.19348215097E+03  0.00000000000E+00 0. -1.
         -5    1    5    5    0  502  0.11192027719E+03 -0.54381563268E+02 -0.53579110792E+03  0.55007063564E+03  0.47000000000E+01 0.  1.
         11    1    6    6    0    0  0.19204545695E+02  0.13955235720E+02 -0.24995261927E+02  0.34472108989E+02  0.00000000000E+00 0. -1.
        -12    1    6    6    0    0 -0.89201002082E+01 -0.71661211729E+02 -0.16920639074E+03  0.18397200907E+03  0.00000000000E+00 0.  1.
<mgrwt>
<rscale>  2 0.24032592E+03</rscale>
<asrwt>0</asrwt>
<pdfrwt beam="1">  1       21 0.52819066E-02 0.24034746E+03</pdfrwt>
<pdfrwt beam="2">  1       21 0.26268839E+00 0.24034746E+03</pdfrwt>
<totfact> 0.13178551E+04</totfact>
</mgrwt>
</event>
<event>
12    1  0.1071811E-001  0.1747933E+03  0.7546771E-02  0.1173182E+00
         21   -1    0    0  503  502  0.00000000000E+00  0.00000000000E+00  0.23529921957E+03  0.23529921957E+03  0.00000000000E+00 0.  1.
         21   -1    0    0  501  503 -0.00000000000E+00 -0.00000000000E+00 -0.21157806328E+03  0.21157806328E+03  0.00000000000E+00 0.  1.
          6    2    1    2  501    0 -0.11334407275E+02 -0.22303620844E+02 -0.12763758543E+03  0.21565843379E+03  0.17202118055E+03 0.  0.
         24    2    3    3    0    0  0.14711646741E+02  0.18461574052E+02 -0.14172802435E+03  0.16505380442E+03  0.81232156198E+02 0.  0.
         -6    2    1    2    0  502  0.11334407275E+02  0.22303620844E+02  0.15135874172E+03  0.23121884906E+03  0.17299354663E+03 0.  0.
        -24    2    5    5    0    0  0.58155288537E+02 -0.11727523006E+02  0.43351862811E+02  0.10858977598E+03  0.79954881383E+02 0.  0.
          5    1    3    3  501    0 -0.26046054016E+02 -0.40765194896E+02  0.14090438919E+02  0.50604629370E+02  0.47000000000E+01 0. -1.
        -13    1    4    4    0    0 -0.78089239637E+01  0.45751447868E+02 -0.58931761484E+02  0.75014177241E+02  0.00000000000E+00 0.  1.
         14    1    4    4    0    0  0.22520570705E+02 -0.27289873816E+02 -0.82796262864E+02  0.90039627176E+02  0.00000000000E+00 0. -1.
         -5    1    5    5    0  502 -0.46820881263E+02  0.34031143850E+02  0.10800687891E+03  0.12262907309E+03  0.47000000000E+01 0.  1.
         13    1    6    6    0    0  0.14492503369E+02  0.89693611424E+01 -0.21676453561E+02  0.27574457968E+02  0.00000000000E+00 0. -1.
        -14    1    6    6    0    0  0.43662785168E+02 -0.20696884148E+02  0.65028316372E+02  0.81015318010E+02  0.00000000000E+00 0.  1.
<mgrwt>
<rscale>  2 0.17455220E+03</rscale>
<asrwt>0</asrwt>
<pdfrwt beam="1">  1       21 0.36199880E-01 0.17479327E+03</pdfrwt>
<pdfrwt beam="2">  1       21 0.32550471E-01 0.17479327E+03</pdfrwt>
<totfact> 0.67359526E+04</totfact>
</mgrwt>
</event>
<event>
12    1  0.1071811E-001  0.1776512E+03  0.7546771E-02  0.1170107E+00
         21   -1    0    0  503  502  0.00000000000E+00  0.00000000000E+00  0.45103703904E+03  0.45103703904E+03  0.00000000000E+00 0. -1.
         21   -1    0    0  501  503 -0.00000000000E+00 -0.00000000000E+00 -0.69985987398E+02  0.69985987398E+02  0.00000000000E+00 0. -1.
          6    2    1    2  501    0  0.35035095576E+02 -0.22395544368E+02  0.18492059170E+03  0.25639665032E+03  0.17266904393E+03 0.  0.
         24    2    3    3    0    0  0.29270472190E+02  0.10356874730E+02  0.16297773464E+02  0.84461497807E+02  0.76838153254E+02 0.  0.
         -6    2    1    2    0  502 -0.35035095576E+02  0.22395544368E+02  0.19613045994E+03  0.26462637612E+03  0.17271636660E+03 0.  0.
        -24    2    5    5    0    0 -0.19318692759E+02  0.55174317921E+02  0.20391434159E+03  0.22715462507E+03  0.81244985913E+02 0.  0.
          5    1    3    3  501    0  0.57646233859E+01 -0.32752419098E+02  0.16862281823E+03  0.17193515251E+03  0.47000000000E+01 0. -1.
        -13    1    4    4    0    0  0.18383145218E+02  0.40459769957E+02  0.25392851426E+02  0.51183297243E+02  0.00000000000E+00 0.  1.
         14    1    4    4    0    0  0.10887326973E+02 -0.30102895227E+02 -0.90950779619E+01  0.33278200564E+02  0.00000000000E+00 0. -1.
         -5    1    5    5    0  502 -0.15716402817E+02 -0.32778773553E+02 -0.77838816499E+01  0.37471751049E+02  0.47000000000E+01 0.  1.
         11    1    6    6    0    0 -0.46277196128E+02  0.53597737526E+02  0.16721410130E+03  0.18158979053E+03  0.00000000000E+00 0. -1.
        -12    1    6    6    0    0  0.26958503369E+02  0.15765803952E+01  0.36700240291E+02  0.45564834544E+02  0.00000000000E+00 0.  1.
<mgrwt>
<rscale>  2 0.17763973E+03</rscale>
<asrwt>0</asrwt>
<pdfrwt beam="1">  1       21 0.69390312E-01 0.17765124E+03</pdfrwt>
<pdfrwt beam="2">  1       21 0.10767075E-01 0.17765124E+03</pdfrwt>
<totfact> 0.13518313E+05</totfact>
</mgrwt>
</event>
<event>
12    1  0.1071811E-001  0.1744088E+03  0.7546771E-02  0.1173448E+00
         21   -1    0    0  503  502  0.00000000000E+00  0.00000000000E+00  0.36165356408E+02  0.36165356408E+02  0.00000000000E+00 0.  1.
         21   -1    0    0  501  503 -0.00000000000E+00 -0.00000000000E+00 -0.90083004173E+03  0.90083004173E+03  0.00000000000E+00 0.  1.
          6    2    1    2  501    0  0.59236070137E+01 -0.18753509827E+02 -0.55584793833E+03  0.58256789919E+03  0.17329640322E+03 0.  0.
         24    2    3    3    0    0 -0.41372948298E+02  0.36172349306E+02 -0.36345803167E+03  0.37692310754E+03  0.83361432996E+02 0.  0.
         -6    2    1    2    0  502 -0.59236070137E+01  0.18753509827E+02 -0.30881674699E+03  0.35442749895E+03  0.17281286276E+03 0.  0.
        -24    2    5    5    0    0  0.37960034686E+02  0.31241330940E+02 -0.90212094725E+02  0.13106276655E+03  0.81377157418E+02 0.  0.
          5    1    3    3  501    0  0.47296555312E+02 -0.54925859134E+02 -0.19238990666E+03  0.20564479164E+03  0.47000000000E+01 0. -1.
        -13    1    4    4    0    0 -0.32402362742E+01  0.49355995468E+02 -0.11464401906E+03  0.12485897856E+03  0.00000000000E+00 0.  1.
         14    1    4    4    0    0 -0.38132712024E+02 -0.13183646162E+02 -0.24881401261E+03  0.25206412899E+03  0.00000000000E+00 0. -1.
         -5    1    5    5    0  502 -0.43883641699E+02 -0.12487821113E+02 -0.21860465227E+03  0.22336473240E+03  0.47000000000E+01 0.  1.
         13    1    6    6    0    0  0.13417831149E+02  0.11683268698E+02 -0.97280843252E+02  0.98894385200E+02  0.00000000000E+00 0. -1.
        -14    1    6    6    0    0  0.24542203537E+02  0.19558062242E+02  0.70687485270E+01  0.32168381352E+02  0.00000000000E+00 0.  1.
<mgrwt>
<rscale>  2 0.17428856E+03</rscale>
<asrwt>0</asrwt>
<pdfrwt beam="1">  1       21 0.55639010E-02 0.17440879E+03</pdfrwt>
<pdfrwt beam="2">  1       21 0.13858924E+00 0.17440879E+03</pdfrwt>
<totfact> 0.83123135E+04</totfact>
</mgrwt>
</event>
<event>
12    1  0.1071811E-001  0.1964177E+03  0.7546771E-02  0.1153021E+00
         21   -1    0    0  501  502  0.00000000000E+00  0.00000000000E+00  0.59160354552E+02  0.59160354552E+02  0.00000000000E+00 0. -1.
         21   -1    0    0  502  503 -0.00000000000E+00 -0.00000000000E+00 -0.77196145159E+03  0.77196145159E+03  0.00000000000E+00 0. -1.
         -6    2    1    2    0  503 -0.33691830524E+02 -0.83439186312E+02 -0.52324265452E+03  0.55889425207E+03  0.17459287567E+03 0.  0.
        -24    2    3    3    0    0 -0.26363068679E+02  0.29196453326E+02 -0.10530635931E+03  0.12595853522E+03  0.56821466091E+02 0.  0.
          6    2    1    2  501    0  0.33691830524E+02  0.83439186312E+02 -0.18955844252E+03  0.27222755406E+03  0.17343068012E+03 0.  0.
         24    2    5    5    0    0  0.19480937757E+02  0.47011370138E+02 -0.20773302680E+03  0.22885312867E+03  0.81431985227E+02 0.  0.
          5    1    5    5  501    0  0.14210892766E+02  0.36427816174E+02  0.18174584288E+02  0.43374425396E+02  0.47000000000E+01 0. -1.
        -11    1    6    6    0    0  0.45393493589E+02  0.51589814097E+01 -0.11745152500E+03  0.12602398611E+03  0.00000000000E+00 0.  1.
         12    1    6    6    0    0 -0.25912555831E+02  0.41852388728E+02 -0.90281501803E+02  0.10282914256E+03  0.00000000000E+00 0. -1.
         -5    1    3    3    0  503 -0.73287618450E+01 -0.11263563964E+03 -0.41793629521E+03  0.43293571685E+03  0.47000000000E+01 0.  1.
         11    1    4    4    0    0 -0.41868271076E+02  0.93889100268E+01 -0.76528422464E+02  0.87736555661E+02  0.00000000000E+00 0. -1.
        -12    1    4    4    0    0  0.15505202397E+02  0.19807543299E+02 -0.28777936841E+02  0.38221979564E+02  0.00000000000E+00 0.  1.
<mgrwt>
<rscale>  2 0.19615910E+03</rscale>
<asrwt>0</asrwt>
<pdfrwt beam="1">  1       21 0.91015929E-02 0.19641769E+03</pdfrwt>
<pdfrwt beam="2">  1       21 0.11876330E+00 0.19641769E+03</pdfrwt>
<totfact> 0.51792886E+04</totfact>
</mgrwt>
</event>
<event>
12    1  0.1071811E-001  0.2200612E+03  0.7546771E-02  0.1134300E+00
         21   -1    0    0  501  502  0.00000000000E+00  0.00000000000E+00  0.11255674970E+03  0.11255674970E+03  0.00000000000E+00 0.  1.
         21   -1    0    0  502  503 -0.00000000000E+00 -0.00000000000E+00 -0.43242517626E+03  0.43242517626E+03  0.00000000000E+00 0. -1.
         -6    2    1    2    0  503  0.90632095207E+02 -0.99602335667E+02 -0.19547294867E+03  0.29434094788E+03  0.17404630989E+03 0.  0.
        -24    2    3    3    0    0  0.52894841744E+02 -0.11783071300E+03 -0.20057294433E+03  0.25186184719E+03  0.80764737767E+02 0.  0.
          6    2    1    2  501    0 -0.90632095207E+02  0.99602335667E+02 -0.12439547790E+03  0.25064097808E+03  0.17091478292E+03 0.  0.
         24    2    5    5    0    0 -0.41601122008E+02  0.86920332992E+02 -0.14950430434E+03  0.19391873650E+03  0.77247276399E+02 0.  0.
          5    1    5    5  501    0 -0.49030973198E+02  0.12682002675E+02  0.25108826438E+02  0.56722241579E+02  0.47000000000E+01 0. -1.
        -13    1    6    6    0    0  0.65445636818E+01 -0.11896658568E+02 -0.16017795564E+02  0.20998370737E+02  0.00000000000E+00 0.  1.
         14    1    6    6    0    0 -0.48145685690E+02  0.98816991560E+02 -0.13348650877E+03  0.17292036576E+03  0.00000000000E+00 0. -1.
         -5    1    3    3    0  503  0.37737253462E+02  0.18228377336E+02  0.50999956581E+01  0.42479100684E+02  0.47000000000E+01 0.  1.
         13    1    4    4    0    0  0.57491550267E+02 -0.11344649031E+03 -0.20692057175E+03  0.24288167393E+03  0.00000000000E+00 0. -1.
        -14    1    4    4    0    0 -0.45967085224E+01 -0.43842226949E+01  0.63476274294E+01  0.89801732646E+01  0.00000000000E+00 0.  1.
<mgrwt>
<rscale>  2 0.21944149E+03</rscale>
<asrwt>0</asrwt>
<pdfrwt beam="1">  1       21 0.17316424E-01 0.22006117E+03</pdfrwt>
<pdfrwt beam="2">  1       21 0.66526948E-01 0.22006117E+03</pdfrwt>
<totfact> 0.61703814E+04</totfact>
</mgrwt>
</event>
<event>
12    1  0.1071811E-001  0.2921105E+03  0.7546771E-02  0.1089281E+00
         21   -1    0    0  503  502  0.00000000000E+00  0.00000000000E+00  0.10620189854E+03  0.10620189854E+03  0.00000000000E+00 0. -1.
         21   -1    0    0  501  503 -0.00000000000E+00 -0.00000000000E+00 -0.12564453124E+04  0.12564453124E+04  0.00000000000E+00 0. -1.
          6    2    1    2  501    0  0.19738020279E+03  0.12786533167E+03 -0.98463247755E+03  0.10270490194E+04  0.17326305120E+03 0.  0.
         24    2    3    3    0    0  0.25055347520E+02  0.53814174269E+02 -0.26992247781E+03  0.28812283676E+03  0.81442551818E+02 0.  0.
         -6    2    1    2    0  502 -0.19738020279E+03 -0.12786533167E+03 -0.16561093629E+03  0.33559819152E+03  0.17288920278E+03 0.  0.
        -24    2    5    5    0    0 -0.20488257555E+03 -0.12586247556E+03 -0.10570166659E+03  0.27500522473E+03  0.81466550115E+02 0.  0.
          5    1    3    3  501    0  0.17232485527E+03  0.74051157398E+02 -0.71470999974E+03  0.73892618264E+03  0.47000000000E+01 0. -1.
        -13    1    4    4    0    0 -0.31313333039E+01  0.59824840971E+02 -0.10662596591E+03  0.12230254883E+03  0.00000000000E+00 0.  1.
         14    1    4    4    0    0  0.28186680823E+02 -0.60106667023E+01 -0.16329651190E+03  0.16582028793E+03  0.00000000000E+00 0. -1.
         -5    1    5    5    0  502  0.75023727594E+01 -0.20028561043E+01 -0.59909269695E+02  0.60592966795E+02  0.47000000000E+01 0.  1.
         13    1    6    6    0    0 -0.80425546395E+02 -0.44856718650E+02  0.10900972647E+01  0.92095504955E+02  0.00000000000E+00 0. -1.
        -14    1    6    6    0    0 -0.12445702916E+03 -0.81005756913E+02 -0.10679176386E+03  0.18290971977E+03  0.00000000000E+00 0.  1.
<mgrwt>
<rscale>  2 0.29205513E+03</rscale>
<asrwt>0</asrwt>
<pdfrwt beam="1">  1       21 0.16338755E-01 0.29211055E+03</pdfrwt>
<pdfrwt beam="2">  1       21 0.19329927E+00 0.29211055E+03</pdfrwt>
<totfact> 0.46181621E+03</totfact>
</mgrwt>
</event>
<event>
12    1  0.1071811E-001  0.1771763E+03  0.7546771E-02  0.1170796E+00
         21   -1    0    0  501  502  0.00000000000E+00  0.00000000000E+00  0.20102285490E+04  0.20102285490E+04  0.00000000000E+00 0. -1.
         21   -1    0    0  502  503 -0.00000000000E+00 -0.00000000000E+00 -0.38897620118E+02  0.38897620118E+02  0.00000000000E+00 0. -1.
         -6    2    1    2    0  503 -0.65731343895E+01  0.36827374373E+02  0.19056856905E+03  0.25957146462E+03  0.17222515536E+03 0.  0.
        -24    2    3    3    0    0  0.20181673522E+02 -0.40131079256E+02  0.12065308068E+03  0.15210663853E+03  0.81002840328E+02 0.  0.
          6    2    1    2  501    0  0.65731343895E+01 -0.36827374373E+02  0.17807623599E+04  0.17895547045E+04  0.17318197536E+03 0.  0.
         24    2    5    5    0    0 -0.48135518367E+02  0.20875026144E+02  0.96832907740E+03  0.97322601327E+03  0.82188052213E+02 0.  0.
          5    1    5    5  501    0  0.54708652756E+02 -0.57702400517E+02  0.81243328248E+03  0.81632869127E+03  0.47000000000E+01 0. -1.
        -11    1    6    6    0    0 -0.58009344990E+02 -0.14118400537E+02  0.51732273763E+03  0.52075640006E+03  0.00000000000E+00 0.  1.
         12    1    6    6    0    0  0.98738266226E+01  0.34993426682E+02  0.45100633977E+03  0.45246961321E+03  0.00000000000E+00 0. -1.
         -5    1    3    3    0  503 -0.26754807911E+02  0.76958453629E+02  0.69915488369E+02  0.10746482608E+03  0.47000000000E+01 0.  1.
         11    1    4    4    0    0 -0.72223330424E+01  0.21985921718E+02  0.19397941290E+02  0.30196406651E+02  0.00000000000E+00 0. -1.
        -12    1    4    4    0    0  0.27404006564E+02 -0.62117000974E+02  0.10125513939E+03  0.12191023188E+03  0.00000000000E+00 0.  1.
<mgrwt>
<rscale>  2 0.17694210E+03</rscale>
<asrwt>0</asrwt>
<pdfrwt beam="1">  1       21 0.30926585E+00 0.17717635E+03</pdfrwt>
<pdfrwt beam="2">  1       21 0.59842508E-02 0.17717635E+03</pdfrwt>
<totfact> 0.60918405E+03</totfact>
</mgrwt>
</event>
<event>
12    1  0.1071811E-001  0.1770361E+03  0.7546771E-02  0.1170749E+00
         21   -1    0    0  501  502  0.00000000000E+00  0.00000000000E+00  0.13530659400E+03  0.13530659400E+03  0.00000000000E+00 0.  1.
         21   -1    0    0  502  503 -0.00000000000E+00 -0.00000000000E+00 -0.23154027542E+03  0.23154027542E+03  0.00000000000E+00 0.  1.
         -6    2    1    2    0  503  0.16807933716E+02  0.28982570209E+02 -0.52775303923E+02  0.18473502031E+03  0.17383698978E+03 0.  0.
        -24    2    3    3    0    0 -0.11340061790E+02  0.43558951586E+01  0.35684767978E+02  0.88578600375E+02  0.80157313794E+02 0.  0.
          6    2    1    2  501    0 -0.16807933716E+02 -0.28982570209E+02 -0.43458377497E+02  0.18211184911E+03  0.17364791678E+03 0.  0.
         24    2    5    5    0    0 -0.50627807063E+02 -0.27097362840E+01 -0.80148933823E+02  0.12552269327E+03  0.82228811334E+02 0.  0.
          5    1    5    5  501    0  0.33819873347E+02 -0.26272833925E+02  0.36690556326E+02  0.56589155845E+02  0.47000000000E+01 0. -1.
        -11    1    6    6    0    0 -0.43980883483E+01 -0.38052068433E+02 -0.28961189405E+02  0.48021386745E+02  0.00000000000E+00 0.  1.
         12    1    6    6    0    0 -0.46229718715E+02  0.35342332149E+02 -0.51187744418E+02  0.77501306523E+02  0.00000000000E+00 0. -1.
         -5    1    3    3    0  503  0.28147995505E+02  0.24626675050E+02 -0.88460071901E+02  0.96156419940E+02  0.47000000000E+01 0.  1.
         13    1    4    4    0    0  0.34696358538E+02  0.18272887036E+01  0.12103334721E+02  0.36792213731E+02  0.00000000000E+00 0. -1.
        -14    1    4    4    0    0 -0.46036420328E+02  0.25286064550E+01  0.23581433257E+02  0.51786386644E+02  0.00000000000E+00 0.  1.
<mgrwt>
<rscale>  2 0.17698971E+03</rscale>
<asrwt>0</asrwt>
<pdfrwt beam="1">  1       21 0.20816399E-01 0.17703614E+03</pdfrwt>
<pdfrwt beam="2">  1       21 0.35621580E-01 0.17703614E+03</pdfrwt>
<totfact> 0.16354543E+05</totfact>
</mgrwt>
</event>
<event>
12    1  0.1071811E-001  0.2523533E+03  0.7546771E-02  0.1113092E+00
         21   -1    0    0  501  502  0.00000000000E+00  0.00000000000E+00  0.44976544310E+03  0.44976544310E+03  0.00000000000E+00 0. -1.
         21   -1    0    0  502  503 -0.00000000000E+00 -0.00000000000E+00 -0.14500069124E+03  0.14500069124E+03  0.00000000000E+00 0.  1.
         -6    2    1    2    0  503 -0.79703192472E+02 -0.15323255776E+03  0.80901075003E+02  0.25742781751E+03  0.17289095305E+03 0.  0.
        -24    2    3    3    0    0 -0.71591955005E+02 -0.21602374066E+02  0.56916400219E+02  0.12330230891E+03  0.79824258111E+02 0.  0.
          6    2    1    2  501    0  0.79703192472E+02  0.15323255776E+03  0.22386367686E+03  0.33733831682E+03  0.18398200600E+03 0.  0.
         24    2    5    5    0    0  0.76342378324E+02  0.16921843232E+03  0.23989385080E+03  0.31397381953E+03  0.81039886082E+02 0.  0.
          5    1    5    5  501    0  0.33608141482E+01 -0.15985874558E+02 -0.16030173940E+02  0.23364497291E+02  0.47000000000E+01 0. -1.
        -11    1    6    6    0    0  0.46308619916E+02  0.26525709504E+02  0.40728028237E+02  0.67133254258E+02  0.00000000000E+00 0.  1.
         12    1    6    6    0    0  0.30033758408E+02  0.14269272282E+03  0.19916582256E+03  0.24684056527E+03  0.00000000000E+00 0. -1.
         -5    1    3    3    0  503 -0.81112374675E+01 -0.13163018369E+03  0.23984674784E+02  0.13412550860E+03  0.47000000000E+01 0.  1.
         13    1    4    4    0    0  0.93208870877E+01 -0.26193140971E+02  0.93544704234E+01  0.29333695419E+02  0.00000000000E+00 0. -1.
        -14    1    4    4    0    0 -0.80912842092E+02  0.45907669051E+01  0.47561929796E+02  0.93968613495E+02  0.00000000000E+00 0.  1.
<mgrwt>
<rscale>  2 0.25033724E+03</rscale>
<asrwt>0</asrwt>
<pdfrwt beam="1">  1       21 0.69194683E-01 0.25235331E+03</pdfrwt>
<pdfrwt beam="2">  1       21 0.22307799E-01 0.25235331E+03</pdfrwt>
<totfact> 0.34717231E+04</totfact>
</mgrwt>
</event>
<event>
12    1  0.1071811E-001  0.2084397E+03  0.7546771E-02  0.1142983E+00
         21   -1    0    0  501  502  0.00000000000E+00  0.00000000000E+00  0.11376199679E+03  0.11376199679E+03  0.00000000000E+00 0.  1.
         21   -1    0    0  502  503 -0.00000000000E+00 -0.00000000000E+00 -0.47263292269E+03  0.47263292269E+03  0.00000000000E+00 0.  1.
         -6    2    1    2    0  503  0.10121125909E+03  0.54729935938E+02 -0.30871657472E+03  0.37200614057E+03  0.17275288787E+03 0.  0.
        -24    2    3    3    0    0 -0.98614934330E+00  0.55370832435E+02 -0.10173914730E+03  0.14112420863E+03  0.80611950682E+02 0.  0.
          6    2    1    2  501    0 -0.10121125909E+03 -0.54729935938E+02 -0.50154351186E+02  0.21438877891E+03  0.17380450145E+03 0.  0.
         24    2    5    5    0    0 -0.10755904591E+03  0.60674354795E+01  0.28965654737E+01  0.13331409404E+03  0.78476082006E+02 0.  0.
          5    1    5    5  501    0  0.63477868189E+01 -0.60797371418E+02 -0.53050916659E+02  0.81074684873E+02  0.47000000000E+01 0. -1.
        -13    1    6    6    0    0 -0.14718029389E+02 -0.30106289866E+02 -0.18444833490E+01  0.33562049958E+02  0.00000000000E+00 0.  1.
         14    1    6    6    0    0 -0.92841016521E+02  0.36173725345E+02  0.47410488227E+01  0.99752044079E+02  0.00000000000E+00 0. -1.
         -5    1    3    3    0  503  0.10219740844E+03 -0.64089649650E+00 -0.20697742742E+03  0.23088193195E+03  0.47000000000E+01 0.  1.
         11    1    4    4    0    0  0.27999100530E+02  0.46734079960E+02 -0.27639396987E+02  0.61089771042E+02  0.00000000000E+00 0. -1.
        -12    1    4    4    0    0 -0.28985249873E+02  0.86367524750E+01 -0.74099750310E+02  0.80034437584E+02  0.00000000000E+00 0.  1.
<mgrwt>
<rscale>  2 0.20822029E+03</rscale>
<asrwt>0</asrwt>
<pdfrwt beam="1">  1       21 0.17501846E-01 0.20843965E+03</pdfrwt>
<pdfrwt beam="2">  1       21 0.72712758E-01 0.20843965E+03</pdfrwt>
<totfact> 0.49978417E+04</totfact>
</mgrwt>
</event>
<event>
12    1  0.1071811E-001  0.1898608E+03  0.7546771E-02  0.1158950E+00
         21   -1    0    0  501  502  0.00000000000E+00  0.00000000000E+00  0.47143547621E+03  0.47143547621E+03  0.00000000000E+00 0.  1.
         21   -1    0    0  502  503 -0.00000000000E+00 -0.00000000000E+00 -0.75859276979E+02  0.75859276979E+02  0.00000000000E+00 0.  1.
         -6    2    1    2    0  503 -0.55214231073E+02 -0.55208554355E+02  0.19227870489E+03  0.27021883360E+03  0.17306219082E+03 0.  0.
        -24    2    3    3    0    0 -0.27771164477E+02 -0.55393535170E+01  0.18206172492E+02  0.87070019924E+02  0.80298204457E+02 0.  0.
          6    2    1    2  501    0  0.55214231073E+02  0.55208554355E+02  0.20329749434E+03  0.27707591959E+03  0.17130265095E+03 0.  0.
         24    2    5    5    0    0  0.32073953584E+02  0.10236174216E+03  0.12881738509E+03  0.18581655164E+03  0.80169865953E+02 0.  0.
          5    1    5    5  501    0  0.23140277488E+02 -0.47153187809E+02  0.74480109258E+02  0.91259367946E+02  0.47000000000E+01 0. -1.
        -11    1    6    6    0    0 -0.25154236474E+01  0.11879275895E+02 -0.10553631164E+02  0.16087998094E+02  0.00000000000E+00 0.  1.
         12    1    6    6    0    0  0.34589377232E+02  0.90482466269E+02  0.13937101625E+03  0.16972855355E+03  0.00000000000E+00 0. -1.
         -5    1    3    3    0  503 -0.27443066596E+02 -0.49669200838E+02  0.17407253239E+03  0.18314881367E+03  0.47000000000E+01 0.  1.
         13    1    4    4    0    0 -0.50359526529E+02  0.85102888595E+01 -0.55899441269E+01  0.51378540307E+02  0.00000000000E+00 0. -1.
        -14    1    4    4    0    0  0.22588362053E+02 -0.14049642376E+02  0.23796116618E+02  0.35691479617E+02  0.00000000000E+00 0.  1.
<mgrwt>
<rscale>  2 0.18945889E+03</rscale>
<asrwt>0</asrwt>
<pdfrwt beam="1">  1       21 0.72528533E-01 0.18986078E+03</pdfrwt>
<pdfrwt beam="2">  1       21 0.11670658E-01 0.18986078E+03</pdfrwt>
<totfact> 0.10576566E+05</totfact>
</mgrwt>
</event>
<event>
12    1  0.1071811E-001  0.2451402E+03  0.7546771E-02  0.1116604E+00
         21   -1    0    0  501  502  0.00000000000E+00  0.00000000000E+00  0.23018404734E+03  0.23018404734E+03  0.00000000000E+00 0.  1.
         21   -1    0    0  502  503 -0.00000000000E+00 -0.00000000000E+00 -0.28627513010E+03  0.28627513010E+03  0.00000000000E+00 0. -1.
         -6    2    1    2    0  503 -0.17024404439E+03 -0.29523756953E+02  0.50378044933E+02  0.25026318196E+03  0.17389372030E+03 0.  0.
        -24    2    3    3    0    0 -0.13927003867E+03 -0.57242499069E+02 -0.16371951403E+02  0.17148901293E+03  0.80421349116E+02 0.  0.
          6    2    1    2  501    0  0.17024404439E+03  0.29523756953E+02 -0.10646912770E+03  0.26619599549E+03  0.17224966179E+03 0.  0.
         24    2    5    5    0    0  0.83648299005E+02  0.47561165550E+02  0.39548193989E+01  0.12463431522E+03  0.79113649515E+02 0.  0.
          5    1    5    5  501    0  0.86595745382E+02 -0.18037408597E+02 -0.11042394710E+03  0.14156168026E+03  0.47000000000E+01 0. -1.
        -13    1    6    6    0    0  0.91351628342E+02  0.21857855652E+02  0.15893556311E+02  0.95265371393E+02  0.00000000000E+00 0.  1.
         14    1    6    6    0    0 -0.77033293372E+01  0.25703309898E+02 -0.11938736912E+02  0.29368943829E+02  0.00000000000E+00 0. -1.
         -5    1    3    3    0  503 -0.30974005717E+02  0.27718742116E+02  0.66749996336E+02  0.78774169024E+02  0.47000000000E+01 0.  1.
         13    1    4    4    0    0 -0.44766047830E+02 -0.25407066097E+02 -0.44319741775E+02  0.67924646167E+02  0.00000000000E+00 0. -1.
        -14    1    4    4    0    0 -0.94503990839E+02 -0.31835432972E+02  0.27947790372E+02  0.10356436677E+03  0.00000000000E+00 0.  1.
<mgrwt>
<rscale>  2 0.24484880E+03</rscale>
<asrwt>0</asrwt>
<pdfrwt beam="1">  1       21 0.35412931E-01 0.24514019E+03</pdfrwt>
<pdfrwt beam="2">  1       21 0.44042328E-01 0.24514019E+03</pdfrwt>
<totfact> 0.37124419E+04</totfact>
</mgrwt>
</event>
<event>
12    1  0.1071811E-001  0.2146589E+03  0.7546771E-02  0.1137954E+00
         21   -1    0    0  501  502  0.00000000000E+00  0.00000000000E+00  0.24182652246E+04  0.24182652246E+04  0.00000000000E+00 0.  1.
         21   -1    0    0  502  503 -0.00000000000E+00 -0.00000000000E+00 -0.19390474061E+02  0.19390474061E+02  0.00000000000E+00 0. -1.
         -6    2    1    2    0  503  0.43628703203E+02  0.11919454577E+03  0.10365432367E+04  0.10585368783E+04  0.17311163315E+03 0.  0.
        -24    2    3    3    0    0  0.56468684242E+01  0.15383369302E+02  0.22444210398E+03  0.23893348640E+03  0.80289586553E+02 0.  0.
          6    2    1    2  501    0 -0.43628703203E+02 -0.11919454577E+03  0.13623315138E+04  0.13791188204E+04  0.17294728617E+03 0.  0.
         24    2    5    5    0    0 -0.77165938917E+02 -0.57233977057E+02  0.11106709193E+04  0.11177397794E+04  0.80758982065E+02 0.  0.
          5    1    5    5  501    0  0.33537235715E+02 -0.61960568709E+02  0.25166059442E+03  0.26137904093E+03  0.47000000000E+01 0. -1.
        -13    1    6    6    0    0 -0.48149741798E+02 -0.63543102620E+02  0.99939731752E+03  0.10025722527E+04  0.00000000000E+00 0.  1.
         14    1    6    6    0    0 -0.29016197120E+02  0.63091255627E+01  0.11127360182E+03  0.11516752677E+03  0.00000000000E+00 0. -1.
         -5    1    3    3    0  503  0.37981834779E+02  0.10381117646E+03  0.81210113275E+03  0.81960339186E+03  0.47000000000E+01 0.  1.
         11    1    4    4    0    0 -0.23361808292E+02  0.36115077438E+02  0.88582052412E+02  0.98472599816E+02  0.00000000000E+00 0. -1.
        -12    1    4    4    0    0  0.29008676716E+02 -0.20731708137E+02  0.13586005157E+03  0.14046088658E+03  0.00000000000E+00 0.  1.
<mgrwt>
<rscale>  2 0.21462576E+03</rscale>
<asrwt>0</asrwt>
<pdfrwt beam="1">  1       21 0.37204056E+00 0.21465889E+03</pdfrwt>
<pdfrwt beam="2">  1       21 0.29831518E-02 0.21465889E+03</pdfrwt>
<totfact> 0.80374007E+03</totfact>
</mgrwt>
</event>
<event>
12    1  0.1071811E-001  0.1817315E+03  0.7546771E-02  0.1166690E+00
         21   -1    0    0  501  502  0.00000000000E+00  0.00000000000E+00  0.64247547549E+02  0.64247547549E+02  0.00000000000E+00 0.  1.
         21   -1    0    0  502  503 -0.00000000000E+00 -0.00000000000E+00 -0.83425440987E+03  0.83425440987E+03  0.00000000000E+00 0.  1.
         -6    2    1    2    0  503 -0.45919081409E+02  0.25727618024E+02 -0.66761250447E+03  0.69190519384E+03  0.17394214203E+03 0.  0.
        -24    2    3    3    0    0 -0.11821293447E+02 -0.15818676552E+02 -0.59904550712E+03  0.60465683075E+03  0.79777126177E+02 0.  0.
          6    2    1    2  501    0  0.45919081409E+02 -0.25727618024E+02 -0.10239435785E+03  0.20659676358E+03  0.17154342259E+03 0.  0.
         24    2    5    5    0    0  0.75779125002E+02 -0.56145501565E+02 -0.10721924566E+03  0.16344309184E+03  0.79516567447E+02 0.  0.
          5    1    5    5  501    0 -0.29860043592E+02  0.30417883541E+02  0.48248878041E+01  0.43153671742E+02  0.47000000000E+01 0. -1.
        -11    1    6    6    0    0  0.20310869248E+02 -0.38588906513E+02 -0.25395057567E+01  0.43681623195E+02  0.00000000000E+00 0.  1.
         12    1    6    6    0    0  0.55468255754E+02 -0.17556595053E+02 -0.10467973990E+03  0.11976146864E+03  0.00000000000E+00 0. -1.
         -5    1    3    3    0  503 -0.34097787962E+02  0.41546294576E+02 -0.68566997345E+02  0.87248363090E+02  0.47000000000E+01 0.  1.
         13    1    4    4    0    0  0.33464517781E+02 -0.77331169068E+01 -0.19507900897E+03  0.19807951633E+03  0.00000000000E+00 0. -1.
        -14    1    4    4    0    0 -0.45285811228E+02 -0.80855596449E+01 -0.40396649815E+03  0.40657731442E+03  0.00000000000E+00 0.  1.
<mgrwt>
<rscale>  2 0.18115513E+03</rscale>
<asrwt>0</asrwt>
<pdfrwt beam="1">  1       21 0.98842383E-02 0.18173151E+03</pdfrwt>
<pdfrwt beam="2">  1       21 0.12834683E+00 0.18173151E+03</pdfrwt>
<totfact> 0.37206613E+04</totfact>
</mgrwt>
</event>
<event>
12    1  0.1071811E-001  0.3046495E+03  0.7546771E-02  0.1082996E+00
         21   -1    0    0  503  502  0.00000000000E+00  0.00000000000E+00  0.46697502819E+03  0.46697502819E+03  0.00000000000E+00 0.  1.
         21   -1    0    0  501  503 -0.00000000000E+00 -0.00000000000E+00 -0.23270283692E+03  0.23270283692E+03  0.00000000000E+00 0.  1.
          6    2    1    2  501    0 -0.21987090638E+03 -0.11955359838E+03 -0.17165540561E+02  0.30466868586E+03  0.17289324452E+03 0.  0.
         24    2    3    3    0    0 -0.12045295651E+03 -0.25551448796E+02 -0.62936179289E+02  0.16031712108E+03  0.81109958585E+02 0.  0.
         -6    2    1    2    0  502  0.21987090638E+03  0.11955359838E+03  0.25143773183E+03  0.39500917925E+03  0.17370964378E+03 0.  0.
        -24    2    5    5    0    0  0.93918413115E+02  0.11596475894E+03  0.17834482059E+03  0.24926428567E+03  0.89762550338E+02 0.  0.
          5    1    3    3  501    0 -0.99417949878E+02 -0.94002149581E+02  0.45770638728E+02  0.14435156478E+03  0.47000000000E+01 0. -1.
        -11    1    4    4    0    0 -0.64188223972E+02 -0.39787830730E+02 -0.68571727035E+02  0.10200628078E+03  0.00000000000E+00 0.  1.
         12    1    4    4    0    0 -0.56264732534E+02  0.14236381935E+02  0.56355477454E+01  0.58310840297E+02  0.00000000000E+00 0. -1.
         -5    1    5    5    0  502  0.12595249327E+03  0.35888394368E+01  0.73092911245E+02  0.14574489358E+03  0.47000000000E+01 0.  1.
         11    1    6    6    0    0 -0.10360784897E+02 -0.72746497652E+01  0.11522813708E+02  0.17118458711E+02  0.00000000000E+00 0. -1.
        -12    1    6    6    0    0  0.10427919801E+03  0.12323940870E+03  0.16682200688E+03  0.23214582696E+03  0.00000000000E+00 0.  1.
<mgrwt>
<rscale>  2 0.30453324E+03</rscale>
<asrwt>0</asrwt>
<pdfrwt beam="1">  1       21 0.71842312E-01 0.30464950E+03</pdfrwt>
<pdfrwt beam="2">  1       21 0.35800437E-01 0.30464950E+03</pdfrwt>
<totfact> 0.12392280E+04</totfact>
</mgrwt>
</event>
<event>
12    1  0.1071811E-001  0.2274310E+03  0.7546771E-02  0.1129737E+00
         21   -1    0    0  503  502  0.00000000000E+00  0.00000000000E+00  0.11198353605E+03  0.11198353605E+03  0.00000000000E+00 0.  1.
         21   -1    0    0  501  503 -0.00000000000E+00 -0.00000000000E+00 -0.71583173461E+03  0.71583173461E+03  0.00000000000E+00 0.  1.
          6    2    1    2  501    0  0.85419293744E+02 -0.12007697458E+03 -0.55224547100E+03  0.59460357937E+03  0.16390064304E+03 0.  0.
         24    2    3    3    0    0  0.11501875097E+03 -0.64816814078E+02 -0.33929395630E+03  0.37256698143E+03  0.79090039917E+02 0.  0.
         -6    2    1    2    0  502 -0.85419293744E+02  0.12007697458E+03 -0.51602727566E+02  0.23321169129E+03  0.17323370311E+03 0.  0.
        -24    2    5    5    0    0 -0.39301362543E+02  0.26210177402E+02 -0.82140433918E+02  0.12415904024E+03  0.80229956332E+02 0.  0.
          5    1    3    3  501    0 -0.29599457226E+02 -0.55260160503E+02 -0.21295151470E+03  0.22203659793E+03  0.47000000000E+01 0. -1.
        -11    1    4    4    0    0  0.56727530644E+02 -0.58566173065E+02 -0.26873027278E+03  0.28082729367E+03  0.00000000000E+00 0.  1.
         12    1    4    4    0    0  0.58291220325E+02 -0.62506410131E+01 -0.70563683515E+02  0.91739687765E+02  0.00000000000E+00 0. -1.
         -5    1    5    5    0  502 -0.46117931200E+02  0.93866797179E+02  0.30537706352E+02  0.10905265105E+03  0.47000000000E+01 0.  1.
         13    1    6    6    0    0  0.92366027800E+01  0.29097327946E+02 -0.66348916154E+02  0.73035251758E+02  0.00000000000E+00 0. -1.
        -14    1    6    6    0    0 -0.48537965323E+02 -0.28871505436E+01 -0.15791517764E+02  0.51123788487E+02  0.00000000000E+00 0.  1.
<mgrwt>
<rscale>  2 0.22565376E+03</rscale>
<asrwt>0</asrwt>
<pdfrwt beam="1">  1       21 0.17228236E-01 0.22743098E+03</pdfrwt>
<pdfrwt beam="2">  1       21 0.11012796E+00 0.22743098E+03</pdfrwt>
<totfact> 0.19412566E+04</totfact>
</mgrwt>
</event>
<event>
12    1  0.1071811E-001  0.2103170E+03  0.7546771E-02  0.1142419E+00
         21   -1    0    0  503  502  0.00000000000E+00  0.00000000000E+00  0.31628026304E+02  0.31628026304E+02  0.00000000000E+00 0.  1.
         21   -1    0    0  501  503 -0.00000000000E+00 -0.00000000000E+00 -0.13887211670E+04  0.13887211670E+04  0.00000000000E+00 0. -1.
          6    2    1    2  501    0  0.18902067011E+02 -0.10759741189E+03 -0.76792487232E+03  0.79476748536E+03  0.17324045447E+03 0.  0.
         24    2    3    3    0    0 -0.36148831923E+02 -0.61882056439E+02 -0.24475182524E+03  0.26670250603E+03  0.78042576876E+02 0.  0.
         -6    2    1    2    0  502 -0.18902067011E+02  0.10759741189E+03 -0.58916826836E+03  0.62558170794E+03  0.17971848451E+03 0.  0.
        -24    2    5    5    0    0 -0.65510869234E+02  0.98180687339E+02 -0.53374301267E+03  0.55240313105E+03  0.79602099661E+02 0.  0.
          5    1    3    3  501    0  0.55050898935E+02 -0.45715355453E+02 -0.52317304708E+03  0.52806497933E+03  0.47000000000E+01 0. -1.
        -13    1    4    4    0    0 -0.90053605605E+01 -0.67813585507E+02 -0.11333305525E+03  0.13237885145E+03  0.00000000000E+00 0.  1.
         14    1    4    4    0    0 -0.27143471363E+02  0.59315290681E+01 -0.13141876999E+03  0.13432365458E+03  0.00000000000E+00 0. -1.
         -5    1    5    5    0  502  0.46608802222E+02  0.94167245541E+01 -0.55425255695E+02  0.73178576884E+02  0.47000000000E+01 0.  1.
         11    1    6    6    0    0 -0.31826720986E+02  0.93626994847E+02 -0.46865301058E+03  0.47897244039E+03  0.00000000000E+00 0. -1.
        -12    1    6    6    0    0 -0.33684148248E+02  0.45536924914E+01 -0.65090002089E+02  0.73430690657E+02  0.00000000000E+00 0.  1.
<mgrwt>
<rscale>  2 0.20892625E+03</rscale>
<asrwt>0</asrwt>
<pdfrwt beam="1">  1       21 0.48658494E-02 0.21031696E+03</pdfrwt>
<pdfrwt beam="2">  1       21 0.21364945E+00 0.21031696E+03</pdfrwt>
<totfact> 0.30619273E+04</totfact>
</mgrwt>
</event>
<event>
12    1  0.1071811E-001  0.2409662E+03  0.7546771E-02  0.1120446E+00
         21   -1    0    0  503  502  0.00000000000E+00  0.00000000000E+00  0.69344307070E+03  0.69344307070E+03  0.00000000000E+00 0.  1.
         21   -1    0    0  501  503 -0.00000000000E+00 -0.00000000000E+00 -0.20071458113E+03  0.20071458113E+03  0.00000000000E+00 0. -1.
          6    2    1    2  501    0 -0.92699826418E+02  0.13924806270E+03 -0.97159605578E+02  0.25981669446E+03  0.17344003281E+03 0.  0.
         24    2    3    3    0    0 -0.56220958935E+02  0.16433299431E+03 -0.59369937527E+02  0.20142054238E+03  0.82941643143E+02 0.  0.
         -6    2    1    2    0  502  0.92699826418E+02 -0.13924806270E+03  0.58988809514E+03  0.63434095737E+03  0.16259521709E+03 0.  0.
        -24    2    5    5    0    0  0.42016908732E+02 -0.13922829799E+03  0.33046057244E+03  0.36996719151E+03  0.80756382284E+02 0.  0.
          5    1    3    3  501    0 -0.36478867483E+02 -0.25084931613E+02 -0.37789668051E+02  0.58396152085E+02  0.47000000000E+01 0. -1.
        -13    1    4    4    0    0 -0.38144320330E+02  0.77469534653E+02  0.12484868212E+02  0.87249010923E+02  0.00000000000E+00 0.  1.
         14    1    4    4    0    0 -0.18076638605E+02  0.86863459656E+02 -0.71854805739E+02  0.11417153145E+03  0.00000000000E+00 0. -1.
         -5    1    5    5    0  502  0.50682917686E+02 -0.19764707023E-01  0.25942752271E+03  0.26437376586E+03  0.47000000000E+01 0.  1.
         11    1    6    6    0    0  0.18541044355E+01 -0.20411853671E+02  0.48862221849E+01  0.21070278612E+02  0.00000000000E+00 0. -1.
        -12    1    6    6    0    0  0.40162804297E+02 -0.11881644432E+03  0.32557435025E+03  0.34889691290E+03  0.00000000000E+00 0.  1.
<mgrwt>
<rscale>  2 0.23902176E+03</rscale>
<asrwt>0</asrwt>
<pdfrwt beam="1">  1       21 0.10668355E+00 0.24096623E+03</pdfrwt>
<pdfrwt beam="2">  1       21 0.30879167E-01 0.24096623E+03</pdfrwt>
<totfact> 0.68477453E+03</totfact>
</mgrwt>
</event>
<event>
12    1  0.1071811E-001  0.2808423E+03  0.7546771E-02  0.1095486E+00
         21   -1    0    0  501  502  0.00000000000E+00  0.00000000000E+00  0.29274314665E+03  0.29274314665E+03  0.00000000000E+00 0. -1.
         21   -1    0    0  502  503 -0.00000000000E+00 -0.00000000000E+00 -0.27431572790E+03  0.27431572790E+03  0.00000000000E+00 0.  1.
         -6    2    1    2    0  503 -0.92840709791E+01  0.21994968904E+03  0.53508164667E+02  0.28589429489E+03  0.17437994288E+03 0.  0.
        -24    2    3    3    0    0 -0.65114888708E+02  0.19029572111E+03  0.51629127794E+02  0.22247459131E+03  0.79855912351E+02 0.  0.
          6    2    1    2  501    0  0.92840709791E+01 -0.21994968904E+03 -0.35080745917E+02  0.28116457967E+03  0.17134410536E+03 0.  0.
         24    2    5    5    0    0  0.46583977544E+02 -0.14255131196E+03 -0.75924380049E+02  0.18591709018E+03  0.79433679445E+02 0.  0.
          5    1    5    5  501    0 -0.37299906565E+02 -0.77398377082E+02  0.40843634132E+02  0.95247489488E+02  0.47000000000E+01 0. -1.
        -13    1    6    6    0    0 -0.19821717877E+02 -0.58163388184E+02 -0.36824444604E+02  0.71637420005E+02  0.00000000000E+00 0.  1.
         14    1    6    6    0    0  0.66405695421E+02 -0.84387923773E+02 -0.39099935445E+02  0.11427967017E+03  0.00000000000E+00 0. -1.
         -5    1    3    3    0  503  0.55830817729E+02  0.29653967932E+02  0.18790368727E+01  0.63419703578E+02  0.47000000000E+01 0.  1.
         13    1    4    4    0    0 -0.61801288714E+02  0.11202127358E+03  0.64175780704E+02  0.14313174299E+03  0.00000000000E+00 0. -1.
        -14    1    4    4    0    0 -0.33135999934E+01  0.78274447523E+02 -0.12546652910E+02  0.79342848318E+02  0.00000000000E+00 0.  1.
<mgrwt>
<rscale>  2 0.28037246E+03</rscale>
<asrwt>0</asrwt>
<pdfrwt beam="1">  1       21 0.45037407E-01 0.28084235E+03</pdfrwt>
<pdfrwt beam="2">  1       21 0.42202420E-01 0.28084235E+03</pdfrwt>
<totfact> 0.24477734E+04</totfact>
</mgrwt>
</event>
<event>
12    1  0.1071811E-001  0.2703670E+03  0.7546771E-02  0.1101374E+00
         21   -1    0    0  503  502  0.00000000000E+00  0.00000000000E+00  0.79183951546E+03  0.79183951546E+03  0.00000000000E+00 0.  1.
         21   -1    0    0  501  503 -0.00000000000E+00 -0.00000000000E+00 -0.11694331557E+03  0.11694331557E+03  0.00000000000E+00 0.  1.
          6    2    1    2  501    0 -0.19987250593E+03 -0.57178474806E+02  0.12484522208E+03  0.29587633684E+03  0.16952309760E+03 0.  0.
         24    2    3    3    0    0 -0.63197749926E+02  0.28733933225E+02  0.59169678533E+02  0.12153099620E+03  0.80306523188E+02 0.  0.
         -6    2    1    2    0  502  0.19987250593E+03  0.57178474806E+02  0.55005097781E+03  0.61290649419E+03  0.17285802216E+03 0.  0.
        -24    2    5    5    0    0  0.64144446173E+02  0.24866678887E+02  0.11901114404E+03  0.15982417644E+03  0.81530689164E+02 0.  0.
          5    1    3    3  501    0 -0.13667475600E+03 -0.85912408030E+02  0.65675543552E+02  0.17434534064E+03  0.47000000000E+01 0. -1.
        -13    1    4    4    0    0 -0.46950196073E+02 -0.13263835846E+02  0.20976155264E+01  0.48832880762E+02  0.00000000000E+00 0.  1.
         14    1    4    4    0    0 -0.16247553853E+02  0.41997769071E+02  0.57072063006E+02  0.72698115443E+02  0.00000000000E+00 0. -1.
         -5    1    5    5    0  502  0.13572805975E+03  0.32311795918E+02  0.43103983377E+03  0.45308231775E+03  0.47000000000E+01 0.  1.
         13    1    6    6    0    0  0.22028242849E+01 -0.21750580308E+02  0.55350889617E+02  0.59511857305E+02  0.00000000000E+00 0. -1.
        -14    1    6    6    0    0  0.61941621888E+02  0.46617259196E+02  0.63660254419E+02  0.10031231913E+03  0.00000000000E+00 0.  1.
<mgrwt>
<rscale>  2 0.26983541E+03</rscale>
<asrwt>0</asrwt>
<pdfrwt beam="1">  1       21 0.12182146E+00 0.27036696E+03</pdfrwt>
<pdfrwt beam="2">  1       21 0.17991280E-01 0.27036696E+03</pdfrwt>
<totfact> 0.13648750E+04</totfact>
</mgrwt>
</event>
<event>
12    1  0.1071811E-001  0.2111678E+03  0.7546771E-02  0.1140888E+00
         21   -1    0    0  501  502  0.00000000000E+00  0.00000000000E+00  0.24465129513E+03  0.24465129513E+03  0.00000000000E+00 0. -1.
         21   -1    0    0  502  503 -0.00000000000E+00 -0.00000000000E+00 -0.24824847930E+03  0.24824847930E+03  0.00000000000E+00 0. -1.
         -6    2    1    2    0  503  0.10684285118E+03 -0.55786681810E+02 -0.12988037386E+03  0.24791279638E+03  0.17339058331E+03 0.  0.
        -24    2    3    3    0    0  0.93527628633E+02 -0.92253799601E+02 -0.13912373633E+03  0.20772977035E+03  0.80858287272E+02 0.  0.
          6    2    1    2  501    0 -0.10684285118E+03  0.55786681810E+02  0.12628318969E+03  0.24498697804E+03  0.17188259568E+03 0.  0.
         24    2    5    5    0    0 -0.29002052770E+02  0.94315696257E+02  0.58358943927E+02  0.13462635095E+03  0.70582706149E+02 0.  0.
          5    1    5    5  501    0 -0.77840798413E+02 -0.38529014447E+02  0.67924245759E+02  0.11036062710E+03  0.47000000000E+01 0. -1.
        -13    1    6    6    0    0 -0.22131764235E+02  0.51185177506E+02 -0.68066950206E+01  0.56178897120E+02  0.00000000000E+00 0.  1.
         14    1    6    6    0    0 -0.68702885345E+01  0.43130518750E+02  0.65165638947E+02  0.78447453825E+02  0.00000000000E+00 0. -1.
         -5    1    3    3    0  503  0.13315222549E+02  0.36467117791E+02  0.92433624680E+01  0.40183026034E+02  0.47000000000E+01 0.  1.
         13    1    4    4    0    0 -0.14389601484E+02 -0.52068402161E+01 -0.10102962771E+02  0.18336893757E+02  0.00000000000E+00 0. -1.
        -14    1    4    4    0    0  0.10791723012E+03 -0.87046959385E+02 -0.12902077356E+03  0.18939287659E+03  0.00000000000E+00 0.  1.
<mgrwt>
<rscale>  2 0.21085801E+03</rscale>
<asrwt>0</asrwt>
<pdfrwt beam="1">  1       21 0.37638661E-01 0.21116781E+03</pdfrwt>
<pdfrwt beam="2">  1       21 0.38192074E-01 0.21116781E+03</pdfrwt>
<totfact> 0.44597748E+04</totfact>
</mgrwt>
</event>
<event>
12    1  0.1071811E-001  0.1866844E+03  0.7546771E-02  0.1161678E+00
         21   -1    0    0  503  502  0.00000000000E+00  0.00000000000E+00  0.41154652502E+03  0.41154652502E+03  0.00000000000E+00 0.  1.
         21   -1    0    0  501  503 -0.00000000000E+00 -0.00000000000E+00 -0.96856326399E+02  0.96856326399E+02  0.00000000000E+00 0.  1.
          6    2    1    2  501    0 -0.70554823117E+02 -0.34905367005E+01  0.66153695635E+02  0.19805904402E+03  0.17280308608E+03 0.  0.
         24    2    3    3    0    0 -0.32917660202E+02 -0.49732746287E+02 -0.12326438428E+02  0.99387267799E+02  0.78542787764E+02 0.  0.
         -6    2    1    2    0  502  0.70554823117E+02  0.34905367005E+01  0.24853650299E+03  0.31034380740E+03  0.17190904154E+03 0.  0.
        -24    2    5    5    0    0  0.58627272754E+01 -0.39536282049E+02  0.60831832712E+02  0.10714068824E+03  0.78620137593E+02 0.  0.
          5    1    3    3  501    0 -0.37637162915E+02  0.46242209587E+02  0.78480134063E+02  0.98671776220E+02  0.47000000000E+01 0. -1.
        -13    1    4    4    0    0  0.12379227093E+02  0.14812740838E+02 -0.62872123150E+01  0.20302502143E+02  0.00000000000E+00 0.  1.
         14    1    4    4    0    0 -0.45296887295E+02 -0.64545487125E+02 -0.60392261130E+01  0.79084765656E+02  0.00000000000E+00 0. -1.
         -5    1    5    5    0  502  0.64692095842E+02  0.43026818749E+02  0.18770467028E+03  0.20320311917E+03  0.47000000000E+01 0.  1.
         11    1    6    6    0    0  0.40224382005E+02 -0.69284186413E+01  0.27396448756E+02  0.49158613661E+02  0.00000000000E+00 0. -1.
        -12    1    6    6    0    0 -0.34361654730E+02 -0.32607863408E+02  0.33435383955E+02  0.57982074575E+02  0.00000000000E+00 0.  1.
<mgrwt>
<rscale>  2 0.18647726E+03</rscale>
<asrwt>0</asrwt>
<pdfrwt beam="1">  1       21 0.63314849E-01 0.18668442E+03</pdfrwt>
<pdfrwt beam="2">  1       21 0.14900974E-01 0.18668442E+03</pdfrwt>
<totfact> 0.91830224E+04</totfact>
</mgrwt>
</event>
<event>
12    1  0.1071811E-001  0.3168241E+03  0.7546771E-02  0.1077624E+00
         21   -1    0    0  501  502  0.00000000000E+00  0.00000000000E+00  0.63786374187E+03  0.63786374187E+03  0.00000000000E+00 0.  1.
         21   -1    0    0  502  503 -0.00000000000E+00 -0.00000000000E+00 -0.19524788793E+03  0.19524788793E+03  0.00000000000E+00 0.  1.
         -6    2    1    2    0  503  0.73933329594E+02 -0.25043662542E+03  0.33952929795E+02  0.31863821956E+03  0.17942372459E+03 0.  0.
        -24    2    3    3    0    0  0.85024194681E+01 -0.22081969863E+03 -0.88790604045E+01  0.23488240939E+03  0.79102958772E+02 0.  0.
          6    2    1    2  501    0 -0.73933329594E+02  0.25043662542E+03  0.40866292414E+03  0.51447341023E+03  0.17173486451E+03 0.  0.
         24    2    5    5    0    0 -0.62569852994E+02  0.24907461917E+03  0.28769515067E+03  0.39287457849E+03  0.75025210993E+02 0.  0.
          5    1    5    5  501    0 -0.11363476600E+02  0.13620062479E+01  0.12096777347E+03  0.12159883174E+03  0.47000000000E+01 0. -1.
        -13    1    6    6    0    0 -0.12040823877E+01  0.17731431799E+02  0.59809593465E+02  0.62394238183E+02  0.00000000000E+00 0.  1.
         14    1    6    6    0    0 -0.61365770606E+02  0.23134318737E+03  0.22788555721E+03  0.33048034031E+03  0.00000000000E+00 0. -1.
         -5    1    3    3    0  503  0.65430910126E+02 -0.29616926787E+02  0.42831990200E+02  0.83755810167E+02  0.47000000000E+01 0.  1.
         11    1    4    4    0    0 -0.30240942549E+02 -0.66903775592E+02  0.13322756745E+02  0.74619874309E+02  0.00000000000E+00 0. -1.
        -12    1    4    4    0    0  0.38743362017E+02 -0.15391592304E+03 -0.22201817150E+02  0.16026253508E+03  0.00000000000E+00 0.  1.
<mgrwt>
<rscale>  2 0.31574609E+03</rscale>
<asrwt>0</asrwt>
<pdfrwt beam="1">  1       21 0.98132882E-01 0.31682411E+03</pdfrwt>
<pdfrwt beam="2">  1       21 0.30038137E-01 0.31682411E+03</pdfrwt>
<totfact> 0.84982666E+03</totfact>
</mgrwt>
</event>
<event>
12    1  0.1071811E-001  0.1944140E+03  0.7546771E-02  0.1154540E+00
         21   -1    0    0  503  502  0.00000000000E+00  0.00000000000E+00  0.86073802848E+02  0.86073802848E+02  0.00000000000E+00 0.  1.
         21   -1    0    0  501  503 -0.00000000000E+00 -0.00000000000E+00 -0.47768381803E+03  0.47768381803E+03  0.00000000000E+00 0.  1.
          6    2    1    2  501    0  0.56785332651E+02 -0.68172988868E+02 -0.27590518356E+03  0.33752106815E+03  0.17298748717E+03 0.  0.
         24    2    3    3    0    0  0.54117378597E+02  0.17131620029E+02 -0.20222069165E+03  0.22466944599E+03  0.79755681658E+02 0.  0.
         -6    2    1    2    0  502 -0.56785332651E+02  0.68172988868E+02 -0.11570483163E+03  0.22623655273E+03  0.17298334982E+03 0.  0.
        -24    2    5    5    0    0 -0.47139829649E+02  0.81741316615E+02 -0.15969248554E+02  0.12501199160E+03  0.80431180286E+02 0.  0.
          5    1    3    3  501    0  0.26679540544E+01 -0.85304608896E+02 -0.73684491909E+02  0.11285162217E+03  0.47000000000E+01 0. -1.
        -13    1    4    4    0    0  0.74607477969E+02  0.74190961509E+01 -0.14831327239E+03  0.16618707990E+03  0.00000000000E+00 0.  1.
         14    1    4    4    0    0 -0.20490099372E+02  0.97125238779E+01 -0.53907419258E+02  0.58482366089E+02  0.00000000000E+00 0. -1.
         -5    1    5    5    0  502 -0.96455030022E+01 -0.13568327748E+02 -0.99735583071E+02  0.10122456113E+03  0.47000000000E+01 0.  1.
         13    1    6    6    0    0 -0.51884830131E+01 -0.14701022663E+02 -0.12160355807E+02  0.19771562322E+02  0.00000000000E+00 0. -1.
        -14    1    6    6    0    0 -0.41951346636E+02  0.96442339278E+02 -0.38088927478E+01  0.10524042927E+03  0.00000000000E+00 0.  1.
<mgrwt>
<rscale>  2 0.19441307E+03</rscale>
<asrwt>0</asrwt>
<pdfrwt beam="1">  1       21 0.13242123E-01 0.19441399E+03</pdfrwt>
<pdfrwt beam="2">  1       21 0.73489819E-01 0.19441399E+03</pdfrwt>
<totfact> 0.81740683E+04</totfact>
</mgrwt>
</event>
<event>
12    1  0.1071811E-001  0.4220174E+03  0.7546771E-02  0.1036450E+00
         21   -1    0    0  503  502  0.00000000000E+00  0.00000000000E+00  0.90221107625E+03  0.90221107625E+03  0.00000000000E+00 0. -1.
         21   -1    0    0  501  503 -0.00000000000E+00 -0.00000000000E+00 -0.24282876920E+03  0.24282876920E+03  0.00000000000E+00 0. -1.
          6    2    1    2  501    0  0.33506636748E+03  0.18796873326E+03  0.57807121258E+03  0.71572692296E+03  0.17463386308E+03 0.  0.
         24    2    3    3    0    0  0.12279640898E+03  0.41180027844E+02  0.30152758067E+03  0.33743612255E+03  0.78546178444E+02 0.  0.
         -6    2    1    2    0  502 -0.33506636748E+03 -0.18796873326E+03  0.81311094465E+02  0.42931292249E+03  0.17348307133E+03 0.  0.
        -24    2    5    5    0    0 -0.19403172239E+03 -0.70714879531E+02  0.10328553568E+03  0.24453142072E+03  0.80491057629E+02 0.  0.
          5    1    3    3  501    0  0.21226995850E+03  0.14678870542E+03  0.27654363191E+03  0.37829080040E+03  0.47000000000E+01 0. -1.
        -11    1    4    4    0    0 -0.45688779898E+01 -0.94730812822E+01  0.48912220558E+02  0.50030183239E+02  0.00000000000E+00 0.  1.
         12    1    4    4    0    0  0.12736528697E+03  0.50653109126E+02  0.25261536011E+03  0.28740593932E+03  0.00000000000E+00 0. -1.
         -5    1    5    5    0  502 -0.14103464508E+03 -0.11725385373E+03 -0.21974441218E+02  0.18478150177E+03  0.47000000000E+01 0.  1.
         13    1    6    6    0    0 -0.50621810585E+02 -0.55742970674E+02  0.19563618001E+02  0.77798339543E+02  0.00000000000E+00 0. -1.
        -14    1    6    6    0    0 -0.14340991181E+03 -0.14971908857E+02  0.83721917682E+02  0.16673308118E+03  0.00000000000E+00 0.  1.
<mgrwt>
<rscale>  2 0.42189864E+03</rscale>
<asrwt>0</asrwt>
<pdfrwt beam="1">  1       21 0.13880170E+00 0.42201742E+03</pdfrwt>
<pdfrwt beam="2">  1       21 0.37358273E-01 0.42201742E+03</pdfrwt>
<totfact> 0.21971320E+03</totfact>
</mgrwt>
</event>
<event>
12    1  0.1071811E-001  0.1761529E+03  0.7546771E-02  0.1171884E+00
         21   -1    0    0  503  502  0.00000000000E+00  0.00000000000E+00  0.85980227738E+03  0.85980227738E+03  0.00000000000E+00 0.  1.
         21   -1    0    0  501  503 -0.00000000000E+00 -0.00000000000E+00 -0.35843621020E+02  0.35843621020E+02  0.00000000000E+00 0.  1.
          6    2    1    2  501    0  0.45276032153E+02 -0.29946449620E+02  0.41494613281E+03  0.45031334661E+03  0.16629825035E+03 0.  0.
         24    2    3    3    0    0  0.38196802663E+02 -0.25100952691E+02  0.17007713066E+03  0.20524904373E+03  0.10541293099E+03 0.  0.
         -6    2    1    2    0  502 -0.45276032153E+02  0.29946449620E+02  0.40901252355E+03  0.44533255179E+03  0.16758021462E+03 0.  0.
        -24    2    5    5    0    0  0.74369957890E+01  0.46497230338E+02  0.35870927636E+03  0.37046534712E+03  0.79717796857E+02 0.  0.
          5    1    3    3  501    0  0.70792294906E+01 -0.48454969292E+01  0.24486900215E+03  0.24506430288E+03  0.47000000000E+01 0. -1.
        -13    1    4    4    0    0  0.34672239702E+02 -0.22016517068E+02  0.18505393155E+03  0.18955698038E+03  0.00000000000E+00 0.  1.
         14    1    4    4    0    0  0.35245629606E+01 -0.30844356227E+01 -0.14976800892E+02  0.15692063348E+02  0.00000000000E+00 0. -1.
         -5    1    5    5    0  502 -0.52713027942E+02 -0.16550780717E+02  0.50303247195E+02  0.74867204673E+02  0.47000000000E+01 0.  1.
         13    1    6    6    0    0 -0.32527231413E+02  0.66234691297E+01  0.18053206175E+03  0.18355848236E+03  0.00000000000E+00 0. -1.
        -14    1    6    6    0    0  0.39964227202E+02  0.39873761208E+02  0.17817721460E+03  0.18690686476E+03  0.00000000000E+00 0.  1.
<mgrwt>
<rscale>  2 0.17584730E+03</rscale>
<asrwt>0</asrwt>
<pdfrwt beam="1">  1       21 0.13227726E+00 0.17615288E+03</pdfrwt>
<pdfrwt beam="2">  1       21 0.55144039E-02 0.17615288E+03</pdfrwt>
<totfact> 0.94932458E+04</totfact>
</mgrwt>
</event>
<event>
12    1  0.1071811E-001  0.2045639E+03  0.7546771E-02  0.1146649E+00
         21   -1    0    0  503  502  0.00000000000E+00  0.00000000000E+00  0.21701060766E+04  0.21701060766E+04  0.00000000000E+00 0. -1.
         21   -1    0    0  501  503 -0.00000000000E+00 -0.00000000000E+00 -0.59060168826E+02  0.59060168826E+02  0.00000000000E+00 0. -1.
          6    2    1    2  501    0  0.91110401429E+01  0.10814371166E+03  0.13430702291E+03  0.24187084672E+03  0.16936663386E+03 0.  0.
         24    2    3    3    0    0  0.18217732713E+02 -0.59727166404E+00  0.23958095479E+02  0.86608136809E+02  0.81207983006E+02 0.  0.
         -6    2    1    2    0  502 -0.91110401429E+01 -0.10814371166E+03  0.19767388848E+04  0.19872953987E+04  0.17340216078E+03 0.  0.
        -24    2    5    5    0    0 -0.13262273074E+02 -0.13962737680E+03  0.13105885017E+04  0.13203719572E+04  0.77898602086E+02 0.  0.
          5    1    3    3  501    0 -0.91066925703E+01  0.10874098332E+03  0.11034892743E+03  0.15526270991E+03  0.47000000000E+01 0. -1.
        -11    1    4    4    0    0  0.20917527824E+02 -0.20519363428E+02  0.47400270825E+02  0.55725872986E+02  0.00000000000E+00 0.  1.
         12    1    4    4    0    0 -0.26997951112E+01  0.19922091764E+02 -0.23442175346E+02  0.30882263823E+02  0.00000000000E+00 0. -1.
         -5    1    5    5    0  502  0.41512329314E+01  0.31483665140E+02  0.66615038310E+03  0.66692344149E+03  0.47000000000E+01 0.  1.
         11    1    6    6    0    0 -0.98687676153E+01 -0.87171345788E+02  0.10933612598E+04  0.10968751435E+04  0.00000000000E+00 0. -1.
        -12    1    6    6    0    0 -0.33935054590E+01 -0.52456031011E+02  0.21722724196E+03  0.22349681367E+03  0.00000000000E+00 0.  1.
<mgrwt>
<rscale>  2 0.20370616E+03</rscale>
<asrwt>0</asrwt>
<pdfrwt beam="1">  1       21 0.33386241E+00 0.20456388E+03</pdfrwt>
<pdfrwt beam="2">  1       21 0.90861815E-02 0.20456388E+03</pdfrwt>
<totfact> 0.20566696E+03</totfact>
</mgrwt>
</event>
<event>
12    1  0.1071811E-001  0.1786771E+03  0.7546771E-02  0.1169444E+00
         21   -1    0    0  503  502  0.00000000000E+00  0.00000000000E+00  0.17923371287E+03  0.17923371287E+03  0.00000000000E+00 0. -1.
         21   -1    0    0  501  503 -0.00000000000E+00 -0.00000000000E+00 -0.17767455001E+03  0.17767455001E+03  0.00000000000E+00 0. -1.
          6    2    1    2  501    0  0.40419615029E+02 -0.92947556643E+01 -0.12523239560E+02  0.17911544861E+03  0.17379693507E+03 0.  0.
         24    2    3    3    0    0  0.67285858586E+02 -0.57283590002E+02 -0.30397175408E+02  0.12109570330E+03  0.77015483087E+02 0.  0.
         -6    2    1    2    0  502 -0.40419615029E+02  0.92947556643E+01  0.14082402420E+02  0.17779281427E+03  0.17231318286E+03 0.  0.
        -24    2    5    5    0    0 -0.66340834038E+02  0.57862874588E+02  0.32406638915E+01  0.12148646414E+03  0.83661463956E+02 0.  0.
          5    1    3    3  501    0 -0.26866243557E+02  0.47988834338E+02  0.17873935848E+02  0.58019745317E+02  0.47000000000E+01 0. -1.
        -13    1    4    4    0    0 -0.99582096047E+01 -0.31734269675E+02  0.24618513598E+01  0.33351019812E+02  0.00000000000E+00 0.  1.
         14    1    4    4    0    0  0.77244068191E+02 -0.25549320326E+02 -0.32859026768E+02  0.87744683485E+02  0.00000000000E+00 0. -1.
         -5    1    5    5    0  502  0.25921219009E+02 -0.48568118924E+02  0.10841738528E+02  0.56306350130E+02  0.47000000000E+01 0.  1.
         11    1    6    6    0    0 -0.66403176884E+02  0.13565902892E+02  0.24866390922E+02  0.72192472039E+02  0.00000000000E+00 0. -1.
        -12    1    6    6    0    0  0.62342846136E-01  0.44296971696E+02 -0.21625727031E+02  0.49293992105E+02  0.00000000000E+00 0.  1.
<mgrwt>
<rscale>  2 0.17831530E+03</rscale>
<asrwt>0</asrwt>
<pdfrwt beam="1">  1       21 0.27574417E-01 0.17867712E+03</pdfrwt>
<pdfrwt beam="2">  1       21 0.27334546E-01 0.17867712E+03</pdfrwt>
<totfact> 0.16086592E+05</totfact>
</mgrwt>
</event>
<event>
12    1  0.1071811E-001  0.2484837E+03  0.7546771E-02  0.1114324E+00
         21   -1    0    0  503  502  0.00000000000E+00  0.00000000000E+00  0.44988977632E+03  0.44988977632E+03  0.00000000000E+00 0.  1.
         21   -1    0    0  501  503 -0.00000000000E+00 -0.00000000000E+00 -0.14743730223E+03  0.14743730223E+03  0.00000000000E+00 0. -1.
          6    2    1    2  501    0  0.17671337774E+03 -0.11914100116E+02  0.71831920440E+02  0.25831382453E+03  0.17377181444E+03 0.  0.
         24    2    3    3    0    0  0.74380682750E+02 -0.65370746590E+02  0.63557193091E+02  0.14246843347E+03  0.80323827507E+02 0.  0.
         -6    2    1    2    0  502 -0.17671337774E+03  0.11914100116E+02  0.23062055364E+03  0.33901325403E+03  0.17428305422E+03 0.  0.
        -24    2    5    5    0    0 -0.28014356955E+02 -0.42982672354E+02  0.55701716337E+02  0.10291212304E+03  0.69684356541E+02 0.  0.
          5    1    3    3  501    0  0.10233269499E+03  0.53456646474E+02  0.82747273492E+01  0.11584539106E+03  0.47000000000E+01 0. -1.
        -11    1    4    4    0    0  0.17179310385E+02 -0.12910739496E+02  0.61150191214E+02  0.64816369731E+02  0.00000000000E+00 0.  1.
         12    1    4    4    0    0  0.57201372365E+02 -0.52460007094E+02  0.24070018771E+01  0.77652063738E+02  0.00000000000E+00 0. -1.
         -5    1    5    5    0  502 -0.14869902079E+03  0.54896772470E+02  0.17491883731E+03  0.23610113099E+03  0.47000000000E+01 0.  1.
         11    1    6    6    0    0 -0.30379005875E+02  0.10155294624E+02  0.12487130153E+02  0.34379389557E+02  0.00000000000E+00 0. -1.
        -12    1    6    6    0    0  0.23646489197E+01 -0.53137966978E+02  0.43214586184E+02  0.68532733479E+02  0.00000000000E+00 0.  1.
<mgrwt>
<rscale>  2 0.24839407E+03</rscale>
<asrwt>0</asrwt>
<pdfrwt beam="1">  1       21 0.69213811E-01 0.24848369E+03</pdfrwt>
<pdfrwt beam="2">  1       21 0.22682662E-01 0.24848369E+03</pdfrwt>
<totfact> 0.33670576E+04</totfact>
</mgrwt>
</event>
<event>
11    1  0.1071811E-001  0.2942722E+03  0.7546771E-02  0.1088160E+00
         21   -1    0    0  501  502  0.00000000000E+00  0.00000000000E+00  0.71412722834E+03  0.71412722834E+03  0.00000000000E+00 0. -1.
         21   -1    0    0  502  503 -0.00000000000E+00 -0.00000000000E+00 -0.28132806048E+03  0.28132806048E+03  0.00000000000E+00 0. -1.
         -6    2    1    2    0  503  0.21271620997E+03  0.10692988982E+03 -0.15913964254E+03  0.33440485652E+03  0.17268177355E+03 0.  0.
          6    2    1    2  501    0 -0.21271620997E+03 -0.10692988982E+03  0.59193881040E+03  0.66105043230E+03  0.17295644383E+03 0.  0.
         24    2    4    4    0    0 -0.84935845558E+02 -0.11150658911E+03  0.27162469502E+03  0.31612726663E+03  0.80676244845E+02 0.  0.
          5    1    4    4  501    0 -0.12778036441E+03  0.45766992979E+01  0.32031411538E+03  0.34492316567E+03  0.47000000000E+01 0. -1.
        -11    1    5    5    0    0 -0.75795254010E+02 -0.49877311327E+02  0.10807871992E+03  0.14111582624E+03  0.00000000000E+00 0.  1.
         12    1    5    5    0    0 -0.91405915478E+01 -0.61629277787E+02  0.16354597510E+03  0.17501144039E+03  0.00000000000E+00 0. -1.
         -5    1    3    3    0  503  0.63316068499E+02  0.37556406107E+02  0.30408851654E+02  0.79788447965E+02  0.47000000000E+01 0.  1.
         11    1    3    3    0    0  0.46250242175E+02  0.98701547571E+01 -0.79322448388E+02  0.92350179612E+02  0.00000000000E+00 0. -1.
        -12    1    3    3    0    0  0.10314989930E+03  0.59503328953E+02 -0.11022604580E+03  0.16226622894E+03  0.00000000000E+00 0.  1.
<mgrwt>
<rscale>  2 0.29423184E+03</rscale>
<asrwt>0</asrwt>
<pdfrwt beam="1">  1       21 0.10986573E+00 0.29427218E+03</pdfrwt>
<pdfrwt beam="2">  1       21 0.43281240E-01 0.29427218E+03</pdfrwt>
<totfact> 0.31299296E+03</totfact>
</mgrwt>
</event>
<event>
12    1  0.1071811E-001  0.2778666E+03  0.7546771E-02  0.1096886E+00
         21   -1    0    0  503  502  0.00000000000E+00  0.00000000000E+00  0.91528356262E+03  0.91528356262E+03  0.00000000000E+00 0. -1.
         21   -1    0    0  501  503 -0.00000000000E+00 -0.00000000000E+00 -0.16538605619E+03  0.16538605619E+03  0.00000000000E+00 0. -1.
          6    2    1    2  501    0  0.20504868543E+03 -0.73395943438E+02 -0.33321403640E+01  0.27788655001E+03  0.17256275267E+03 0.  0.
         24    2    3    3    0    0  0.20079488108E+03 -0.15437033455E+02 -0.13077036718E+02  0.21877324269E+03  0.84462042104E+02 0.  0.
         -6    2    1    2    0  502 -0.20504868543E+03  0.73395943438E+02  0.75322964679E+03  0.80278306880E+03  0.17226092661E+03 0.  0.
        -24    2    5    5    0    0 -0.15665912803E+03  0.66264170284E+02  0.33719785547E+03  0.38385950436E+03  0.68649127422E+02 0.  0.
          5    1    3    3  501    0  0.42538043469E+01 -0.57958909983E+02  0.97448963536E+01  0.59113307324E+02  0.47000000000E+01 0. -1.
        -11    1    4    4    0    0  0.14234920911E+03  0.27127163559E+02 -0.19360500207E+02  0.14619852703E+03  0.00000000000E+00 0.  1.
         12    1    4    4    0    0  0.58445671974E+02 -0.42564197014E+02  0.62834634895E+01  0.72574715662E+02  0.00000000000E+00 0. -1.
         -5    1    5    5    0  502 -0.48389557401E+02  0.71317731539E+01  0.41603179132E+03  0.41892356444E+03  0.47000000000E+01 0.  1.
         11    1    6    6    0    0 -0.66183044842E+02  0.16612301617E+02  0.20554983224E+03  0.21658000259E+03  0.00000000000E+00 0. -1.
        -12    1    6    6    0    0 -0.90476083186E+02  0.49651868667E+02  0.13164802323E+03  0.16727950177E+03  0.00000000000E+00 0.  1.
<mgrwt>
<rscale>  2 0.27781972E+03</rscale>
<asrwt>0</asrwt>
<pdfrwt beam="1">  1       21 0.14081285E+00 0.27786657E+03</pdfrwt>
<pdfrwt beam="2">  1       21 0.25444009E-01 0.27786657E+03</pdfrwt>
<totfact> 0.48607838E+03</totfact>
</mgrwt>
</event>
<event>
12    1  0.1071811E-001  0.2156124E+03  0.7546771E-02  0.1137233E+00
         21   -1    0    0  503  502  0.00000000000E+00  0.00000000000E+00  0.78360269175E+02  0.78360269175E+02  0.00000000000E+00 0.  1.
         21   -1    0    0  501  503 -0.00000000000E+00 -0.00000000000E+00 -0.66570134418E+03  0.66570134418E+03  0.00000000000E+00 0.  1.
          6    2    1    2  501    0 -0.11415904922E+03  0.59148353309E+02 -0.41671403804E+03  0.46910293963E+03  0.17284722228E+03 0.  0.
         24    2    3    3    0    0 -0.10830636386E+02  0.66535482433E+02 -0.26204843164E+03  0.28289104318E+03  0.82545070595E+02 0.  0.
         -6    2    1    2    0  502  0.11415904922E+03 -0.59148353309E+02 -0.17062703696E+03  0.27495867372E+03  0.17308342005E+03 0.  0.
        -24    2    5    5    0    0  0.78123493975E+01 -0.48554021325E+02 -0.12824174037E+03  0.15989145945E+03  0.81858469576E+02 0.  0.
          5    1    3    3  501    0 -0.10332841283E+03 -0.73871291244E+01 -0.15466560641E+03  0.18621189645E+03  0.47000000000E+01 0. -1.
        -13    1    4    4    0    0 -0.10578583755E+02  0.52765033479E+01 -0.18054974434E+03  0.18093633715E+03  0.00000000000E+00 0.  1.
         14    1    4    4    0    0 -0.25205263105E+00  0.61258979085E+02 -0.81498687300E+02  0.10195470602E+03  0.00000000000E+00 0. -1.
         -5    1    5    5    0  502  0.10634669982E+03 -0.10594331984E+02 -0.42385296586E+02  0.11506721427E+03  0.47000000000E+01 0.  1.
         11    1    6    6    0    0 -0.13945723989E+02 -0.65358035882E+02 -0.10159869305E+03  0.12160777319E+03  0.00000000000E+00 0. -1.
        -12    1    6    6    0    0  0.21758073387E+02  0.16804014557E+02 -0.26643047328E+02  0.38283686260E+02  0.00000000000E+00 0.  1.
<mgrwt>
<rscale>  2 0.21556495E+03</rscale>
<asrwt>0</asrwt>
<pdfrwt beam="1">  1       21 0.12055426E-01 0.21561235E+03</pdfrwt>
<pdfrwt beam="2">  1       21 0.10241559E+00 0.21561235E+03</pdfrwt>
<totfact> 0.44604143E+04</totfact>
</mgrwt>
</event>
<event>
12    1  0.1071811E-001  0.1913175E+03  0.7546771E-02  0.1157621E+00
         21   -1    0    0  501  502  0.00000000000E+00  0.00000000000E+00  0.21369646012E+03  0.21369646012E+03  0.00000000000E+00 0.  1.
         21   -1    0    0  502  503 -0.00000000000E+00 -0.00000000000E+00 -0.24305858069E+03  0.24305858069E+03  0.00000000000E+00 0.  1.
         -6    2    1    2    0  503  0.77499272512E+02 -0.14979230181E+02 -0.14000064722E+03  0.23707083000E+03  0.17427530702E+03 0.  0.
        -24    2    3    3    0    0  0.25617609882E+02 -0.44647827268E+02 -0.12874766452E+02  0.96518305537E+02  0.80624644352E+02 0.  0.
          6    2    1    2  501    0 -0.77499272512E+02  0.14979230181E+02  0.11063852665E+03  0.21968421082E+03  0.17259708667E+03 0.  0.
         24    2    5    5    0    0 -0.10708927859E+03 -0.12641176121E+02  0.46277526686E+02  0.14350755022E+03  0.82612920124E+02 0.  0.
          5    1    5    5  501    0  0.29590006076E+02  0.27620406302E+02  0.64360999966E+02  0.76176660602E+02  0.47000000000E+01 0. -1.
        -13    1    6    6    0    0 -0.47189476841E+02 -0.15795660119E+02  0.63898632790E+02  0.80990029483E+02  0.00000000000E+00 0.  1.
         14    1    6    6    0    0 -0.59899801747E+02  0.31544839970E+01 -0.17621106105E+02  0.62517520736E+02  0.00000000000E+00 0. -1.
         -5    1    3    3    0  503  0.51881662630E+02  0.29668597087E+02 -0.12712588077E+03  0.14055252446E+03  0.47000000000E+01 0.  1.
         13    1    4    4    0    0 -0.21778392938E+02 -0.40868227081E+02  0.29626609653E+01  0.46403531587E+02  0.00000000000E+00 0. -1.
        -14    1    4    4    0    0  0.47396002820E+02 -0.37796001863E+01 -0.15837427417E+02  0.50114773950E+02  0.00000000000E+00 0.  1.
<mgrwt>
<rscale>  2 0.19093452E+03</rscale>
<asrwt>0</asrwt>
<pdfrwt beam="1">  1       21 0.32876379E-01 0.19131753E+03</pdfrwt>
<pdfrwt beam="2">  1       21 0.37393628E-01 0.19131753E+03</pdfrwt>
<totfact> 0.61467884E+04</totfact>
</mgrwt>
</event>
<event>
12    1  0.1071811E-001  0.2574175E+03  0.7546771E-02  0.1108739E+00
         21   -1    0    0  501  502  0.00000000000E+00  0.00000000000E+00  0.12557996706E+04  0.12557996706E+04  0.00000000000E+00 0. -1.
         21   -1    0    0  502  503 -0.00000000000E+00 -0.00000000000E+00 -0.24240621818E+03  0.24240621818E+03  0.00000000000E+00 0.  1.
         -6    2    1    2    0  503 -0.63261285144E+01  0.19085670582E+03 -0.15600583101E+03  0.30080936744E+03  0.17228509562E+03 0.  0.
        -24    2    3    3    0    0  0.62348277964E+02  0.14027355384E+03 -0.10569101448E+03  0.20167057518E+03  0.77048378822E+02 0.  0.
          6    2    1    2  501    0  0.63261285144E+01 -0.19085670582E+03  0.11693992835E+04  0.11973965214E+04  0.17261935916E+03 0.  0.
         24    2    5    5    0    0  0.31708495814E+02 -0.20225470974E+03  0.11099362230E+04  0.11315776440E+04  0.81222834603E+02 0.  0.
          5    1    5    5  501    0 -0.25382367299E+02  0.11398003925E+02  0.59463060441E+02  0.65818877385E+02  0.47000000000E+01 0. -1.
        -13    1    6    6    0    0  0.43638537018E+02 -0.51315611376E+02  0.40507785533E+03  0.41064057613E+03  0.00000000000E+00 0.  1.
         14    1    6    6    0    0 -0.11930041204E+02 -0.15093909837E+03  0.70485836770E+03  0.72093706786E+03  0.00000000000E+00 0. -1.
         -5    1    3    3    0  503 -0.68674406478E+02  0.50583151983E+02 -0.50314816526E+02  0.99138792265E+02  0.47000000000E+01 0.  1.
         11    1    4    4    0    0  0.46868970657E+02  0.27402265100E+02 -0.15781870928E+02  0.56538942270E+02  0.00000000000E+00 0. -1.
        -12    1    4    4    0    0  0.15479307307E+02  0.11287128874E+03 -0.89909143553E+02  0.14513163291E+03  0.00000000000E+00 0.  1.
<mgrwt>
<rscale>  2 0.25736143E+03</rscale>
<asrwt>0</asrwt>
<pdfrwt beam="1">  1       21 0.19319995E+00 0.25741745E+03</pdfrwt>
<pdfrwt beam="2">  1       21 0.37293265E-01 0.25741745E+03</pdfrwt>
<totfact> 0.96733187E+02</totfact>
</mgrwt>
</event>
<event>
12    1  0.1071811E-001  0.1983930E+03  0.7546771E-02  0.1153807E+00
         21   -1    0    0  503  502  0.00000000000E+00  0.00000000000E+00  0.15565653339E+03  0.15565653339E+03  0.00000000000E+00 0.  1.
         21   -1    0    0  501  503 -0.00000000000E+00 -0.00000000000E+00 -0.35548794484E+03  0.35548794484E+03  0.00000000000E+00 0.  1.
          6    2    1    2  501    0  0.64116472242E+02  0.18656443391E+02 -0.24924884123E+03  0.31856674381E+03  0.18681755944E+03 0.  0.
         24    2    3    3    0    0  0.46529187360E+01 -0.25246741689E+02 -0.24440517047E+02  0.81872264625E+02  0.73801634282E+02 0.  0.
         -6    2    1    2    0  502 -0.64116472242E+02 -0.18656443391E+02  0.49417429780E+02  0.19257773442E+03  0.17373864433E+03 0.  0.
        -24    2    5    5    0    0  0.30404026081E+02  0.12395519285E+02  0.31415940625E+02  0.91362653520E+02  0.79259822310E+02 0.  0.
          5    1    3    3  501    0  0.59463553506E+02  0.43903185080E+02 -0.22480832419E+03  0.23669447919E+03  0.47000000000E+01 0. -1.
        -13    1    4    4    0    0  0.38964979905E+02 -0.12005921768E+02 -0.17847369341E+02  0.44507756727E+02  0.00000000000E+00 0.  1.
         14    1    4    4    0    0 -0.34312061169E+02 -0.13240819921E+02 -0.65931477057E+01  0.37364507898E+02  0.00000000000E+00 0. -1.
         -5    1    5    5    0  502 -0.94520498324E+02 -0.31051962677E+02  0.18001489155E+02  0.10121508090E+03  0.47000000000E+01 0.  1.
         11    1    6    6    0    0  0.30682329800E+01  0.70880646589E+00 -0.26274555172E+02  0.26462590760E+02  0.00000000000E+00 0. -1.
        -12    1    6    6    0    0  0.27335793101E+02  0.11686712820E+02  0.57690495797E+02  0.64900062760E+02  0.00000000000E+00 0.  1.
<mgrwt>
<rscale>  2 0.19525332E+03</rscale>
<asrwt>0</asrwt>
<pdfrwt beam="1">  1       21 0.23947159E-01 0.19839301E+03</pdfrwt>
<pdfrwt beam="2">  1       21 0.54690453E-01 0.19839301E+03</pdfrwt>
<totfact> 0.51752456E+04</totfact>
</mgrwt>
</event>
<event>
12    1  0.1071811E-001  0.3323363E+03  0.7546771E-02  0.1070122E+00
         21   -1    0    0  503  502  0.00000000000E+00  0.00000000000E+00  0.20823037047E+03  0.20823037047E+03  0.00000000000E+00 0.  1.
         21   -1    0    0  501  503 -0.00000000000E+00 -0.00000000000E+00 -0.54778107204E+03  0.54778107204E+03  0.00000000000E+00 0. -1.
          6    2    1    2  501    0 -0.17380515606E+03  0.22509618148E+03 -0.23744581427E+03  0.40834379075E+03  0.17171957820E+03 0.  0.
         24    2    3    3    0    0 -0.10180639398E+03  0.54816489612E+02 -0.62434712957E+02  0.15372648814E+03  0.79776878762E+02 0.  0.
         -6    2    1    2    0  502  0.17380515606E+03 -0.22509618148E+03 -0.10210488729E+03  0.34766765176E+03  0.17196181229E+03 0.  0.
        -24    2    5    5    0    0  0.16478112704E+03 -0.24410290275E+03 -0.77853276332E+02  0.31521893549E+03  0.81011096135E+02 0.  0.
          5    1    3    3  501    0 -0.71998762076E+02  0.17027969187E+03 -0.17501110132E+03  0.25461730261E+03  0.47000000000E+01 0. -1.
        -13    1    4    4    0    0 -0.97214799045E+02  0.41654533735E+02 -0.18162084457E+02  0.10731113011E+03  0.00000000000E+00 0.  1.
         14    1    4    4    0    0 -0.45915949355E+01  0.13161955876E+02 -0.44272628500E+02  0.46415358027E+02  0.00000000000E+00 0. -1.
         -5    1    5    5    0  502  0.90240290170E+01  0.19006721276E+02 -0.24251610960E+02  0.32448716269E+02  0.47000000000E+01 0.  1.
         11    1    6    6    0    0  0.10759973694E+03 -0.88511520647E+02 -0.43187692201E+02  0.14586695800E+03  0.00000000000E+00 0. -1.
        -12    1    6    6    0    0  0.57181390096E+02 -0.15559138211E+03 -0.34665584130E+02  0.16935197750E+03  0.00000000000E+00 0.  1.
<mgrwt>
<rscale>  2 0.33230493E+03</rscale>
<asrwt>0</asrwt>
<pdfrwt beam="1">  1       21 0.32035442E-01 0.33233626E+03</pdfrwt>
<pdfrwt beam="2">  1       21 0.84274009E-01 0.33233626E+03</pdfrwt>
<totfact> 0.10634632E+04</totfact>
</mgrwt>
</event>
<event>
12    1  0.1071811E-001  0.1882812E+03  0.7546771E-02  0.1161367E+00
         21   -1    0    0  501  502  0.00000000000E+00  0.00000000000E+00  0.14174983372E+04  0.14174983372E+04  0.00000000000E+00 0. -1.
         21   -1    0    0  502  503 -0.00000000000E+00 -0.00000000000E+00 -0.41887181501E+02  0.41887181501E+02  0.00000000000E+00 0. -1.
         -6    2    1    2    0  503 -0.35915900500E+02  0.43946958939E+02  0.22049361788E+03  0.28994352763E+03  0.17952305306E+03 0.  0.
        -24    2    3    3    0    0 -0.48654184543E+02  0.95287873532E+02  0.14387363826E+03  0.19671872048E+03  0.80942094646E+02 0.  0.
          6    2    1    2  501    0  0.35915900500E+02 -0.43946958939E+02  0.11551175378E+04  0.11694419910E+04  0.17342651813E+03 0.  0.
         24    2    5    5    0    0  0.21954577092E+02 -0.20896120411E+02  0.26282696152E+03  0.27673217133E+03  0.81142046087E+02 0.  0.
          5    1    5    5  501    0  0.13961323408E+02 -0.23050838527E+02  0.89229057626E+03  0.89270981970E+03  0.47000000000E+01 0. -1.
        -11    1    6    6    0    0  0.49022882408E+01  0.26484256307E+02  0.39570085920E+02  0.47866898394E+02  0.00000000000E+00 0.  1.
         12    1    6    6    0    0  0.17052288852E+02 -0.47380376719E+02  0.22325687560E+03  0.22886527293E+03  0.00000000000E+00 0. -1.
         -5    1    3    3    0  503  0.12738284042E+02 -0.51340914593E+02  0.76619979620E+02  0.93224807152E+02  0.47000000000E+01 0.  1.
         13    1    4    4    0    0 -0.31925101484E+01  0.56984304145E+01 -0.10599201315E+02  0.12450192720E+02  0.00000000000E+00 0. -1.
        -14    1    4    4    0    0 -0.45461674394E+02  0.89589443117E+02  0.15447283958E+03  0.18426852776E+03  0.00000000000E+00 0.  1.
<mgrwt>
<rscale>  2 0.18681321E+03</rscale>
<asrwt>0</asrwt>
<pdfrwt beam="1">  1       21 0.21807663E+00 0.18828121E+03</pdfrwt>
<pdfrwt beam="2">  1       21 0.64441829E-02 0.18828121E+03</pdfrwt>
<totfact> 0.18097296E+04</totfact>
</mgrwt>
</event>
<event>
12    1  0.1071811E-001  0.1788479E+03  0.7546771E-02  0.1169025E+00
         21   -1    0    0  503  502  0.00000000000E+00  0.00000000000E+00  0.29646838102E+03  0.29646838102E+03  0.00000000000E+00 0. -1.
         21   -1    0    0  501  503 -0.00000000000E+00 -0.00000000000E+00 -0.11956384228E+03  0.11956384228E+03  0.00000000000E+00 0.  1.
          6    2    1    2  501    0  0.41493919865E+02  0.23580961339E+02  0.15405204690E+03  0.23573027583E+03  0.17192708533E+03 0.  0.
         24    2    3    3    0    0 -0.24685506124E+01 -0.20081848748E+02  0.18203785214E+02  0.86344935199E+02  0.81943246500E+02 0.  0.
         -6    2    1    2    0  502 -0.41493919865E+02 -0.23580961339E+02  0.22852491838E+02  0.18030194747E+03  0.17236226024E+03 0.  0.
        -24    2    5    5    0    0  0.26824328015E+02 -0.54335224412E+02 -0.44250554633E+00  0.10170198186E+03  0.81677635358E+02 0.  0.
          5    1    3    3  501    0  0.43962470477E+02  0.43662810087E+02  0.13584826168E+03  0.14938534064E+03  0.47000000000E+01 0. -1.
        -13    1    4    4    0    0  0.33766376859E+02 -0.80031295514E+01 -0.12966600124E+02  0.37045256209E+02  0.00000000000E+00 0.  1.
         14    1    4    4    0    0 -0.36234927472E+02 -0.12078719197E+02  0.31170385338E+02  0.49299678989E+02  0.00000000000E+00 0. -1.
         -5    1    5    5    0  502 -0.68318247879E+02  0.30754263073E+02  0.23294997385E+02  0.78599965608E+02  0.47000000000E+01 0.  1.
         13    1    6    6    0    0 -0.21992451951E+02 -0.26398305200E+01  0.17663553699E+02  0.28330862628E+02  0.00000000000E+00 0. -1.
        -14    1    6    6    0    0  0.48816779966E+02 -0.51695393892E+02 -0.18106059245E+02  0.73371119231E+02  0.00000000000E+00 0.  1.
<mgrwt>
<rscale>  2 0.17874293E+03</rscale>
<asrwt>0</asrwt>
<pdfrwt beam="1">  1       21 0.45610520E-01 0.17884786E+03</pdfrwt>
<pdfrwt beam="2">  1       21 0.18394437E-01 0.17884786E+03</pdfrwt>
<totfact> 0.12491761E+05</totfact>
</mgrwt>
</event>
<event>
12    1  0.1071811E-001  0.1886901E+03  0.7546771E-02  0.1160192E+00
         21   -1    0    0  501  502  0.00000000000E+00  0.00000000000E+00  0.68928900918E+03  0.68928900918E+03  0.00000000000E+00 0. -1.
         21   -1    0    0  502  503 -0.00000000000E+00 -0.00000000000E+00 -0.92882878065E+02  0.92882878065E+02  0.00000000000E+00 0. -1.
         -6    2    1    2    0  503  0.30469939570E+02 -0.64482890322E+02  0.36642420580E+02  0.19221506389E+03  0.17469259698E+03 0.  0.
        -24    2    3    3    0    0  0.54693771307E+02 -0.94995560756E+02 -0.37970168499E+01  0.13586566123E+03  0.80184134222E+02 0.  0.
          6    2    1    2  501    0 -0.30469939570E+02  0.64482890322E+02  0.55976371054E+03  0.58995682335E+03  0.17212548163E+03 0.  0.
         24    2    5    5    0    0  0.27207123131E+02  0.58529641869E+02  0.19564033088E+03  0.22121570774E+03  0.80593447368E+02 0.  0.
          5    1    5    5  501    0 -0.57677062701E+02  0.59532484524E+01  0.36412337966E+03  0.36874111561E+03  0.47000000000E+01 0. -1.
        -11    1    6    6    0    0  0.27319692460E+02 -0.10659201019E+02  0.31231504577E+02  0.42841464035E+02  0.00000000000E+00 0.  1.
         12    1    6    6    0    0 -0.11256932910E+00  0.69188842888E+02  0.16440882630E+03  0.17837424371E+03  0.00000000000E+00 0. -1.
         -5    1    3    3    0  503 -0.24223831737E+02  0.30512670434E+02  0.40439437430E+02  0.56349402665E+02  0.47000000000E+01 0.  1.
         11    1    4    4    0    0 -0.40723237774E+01 -0.29413774014E+02  0.29371905297E+02  0.41766766016E+02  0.00000000000E+00 0. -1.
        -12    1    4    4    0    0  0.58766095084E+02 -0.65581786743E+02 -0.33168922147E+02  0.94098895212E+02  0.00000000000E+00 0.  1.
<mgrwt>
<rscale>  2 0.18809377E+03</rscale>
<asrwt>0</asrwt>
<pdfrwt beam="1">  1       21 0.10604446E+00 0.18869013E+03</pdfrwt>
<pdfrwt beam="2">  1       21 0.14289674E-01 0.18869013E+03</pdfrwt>
<totfact> 0.30635200E+04</totfact>
</mgrwt>
</event>
<event>
12    1  0.1071811E-001  0.2021173E+03  0.7546771E-02  0.1148273E+00
         21   -1    0    0  503  502  0.00000000000E+00  0.00000000000E+00  0.10027525257E+04  0.10027525257E+04  0.00000000000E+00 0. -1.
         21   -1    0    0  501  503 -0.00000000000E+00 -0.00000000000E+00 -0.40443967901E+02  0.40443967901E+02  0.00000000000E+00 0. -1.
          6    2    1    2  501    0  0.89278639241E+02 -0.52242442371E+02  0.48282472333E+03  0.52285417020E+03  0.17192097495E+03 0.  0.
         24    2    3    3    0    0 -0.12118279087E-01 -0.71432876489E+02  0.28955850531E+03  0.30904342873E+03  0.81000350946E+02 0.  0.
         -6    2    1    2    0  502 -0.89278639241E+02  0.52242442371E+02  0.47948383448E+03  0.52034232341E+03  0.17364169372E+03 0.  0.
        -24    2    5    5    0    0 -0.13511371448E+02  0.74105151173E+02  0.21420267227E+03  0.24354846161E+03  0.88084832742E+02 0.  0.
          5    1    3    3  501    0  0.89290757520E+02  0.19190434117E+02  0.19326621802E+03  0.21381074147E+03  0.47000000000E+01 0. -1.
        -11    1    4    4    0    0 -0.20360667367E+02 -0.10386337657E+02  0.18402452068E+03  0.18543855316E+03  0.00000000000E+00 0.  1.
         12    1    4    4    0    0  0.20348549088E+02 -0.61046538832E+02  0.10553398463E+03  0.12360487557E+03  0.00000000000E+00 0. -1.
         -5    1    5    5    0  502 -0.75767267793E+02 -0.21862708802E+02  0.26528116221E+03  0.27679386179E+03  0.47000000000E+01 0.  1.
         13    1    6    6    0    0 -0.40559295765E+02  0.41742968642E+02  0.18021795826E+03  0.18938332657E+03  0.00000000000E+00 0. -1.
        -14    1    6    6    0    0  0.27047924317E+02  0.32362182531E+02  0.33984714010E+02  0.54165135045E+02  0.00000000000E+00 0.  1.
<mgrwt>
<rscale>  2 0.20174715E+03</rscale>
<asrwt>0</asrwt>
<pdfrwt beam="1">  1       21 0.15426960E+00 0.20211726E+03</pdfrwt>
<pdfrwt beam="2">  1       21 0.62221497E-02 0.20211726E+03</pdfrwt>
<totfact> 0.51140935E+04</totfact>
</mgrwt>
</event>
<event>
12    1  0.1071811E-001  0.2388566E+03  0.7546771E-02  0.1120666E+00
         21   -1    0    0  503  502  0.00000000000E+00  0.00000000000E+00  0.75563990467E+03  0.75563990467E+03  0.00000000000E+00 0. -1.
         21   -1    0    0  501  503 -0.00000000000E+00 -0.00000000000E+00 -0.10513091714E+03  0.10513091714E+03  0.00000000000E+00 0. -1.
          6    2    1    2  501    0  0.13054889541E+03  0.10097154850E+03  0.95666175194E+02  0.25669878371E+03  0.17176722849E+03 0.  0.
         24    2    3    3    0    0  0.84461696543E+02 -0.87420035875E+01  0.37140830172E+02  0.12400213936E+03  0.82382573955E+02 0.  0.
         -6    2    1    2    0  502 -0.13054889541E+03 -0.10097154850E+03  0.55484281234E+03  0.60407203809E+03  0.17266792725E+03 0.  0.
        -24    2    5    5    0    0 -0.11458790933E+03 -0.27061328073E+02  0.21627651718E+03  0.25713299449E+03  0.74021216746E+02 0.  0.
          5    1    3    3  501    0  0.46087198868E+02  0.10971355209E+03  0.58525345022E+02  0.13269664435E+03  0.47000000000E+01 0. -1.
        -11    1    4    4    0    0  0.57892422600E+02  0.19286767451E+02  0.54355073607E+02  0.81718945294E+02  0.00000000000E+00 0.  1.
         12    1    4    4    0    0  0.26569273944E+02 -0.28028771038E+02 -0.17214243435E+02  0.42283194071E+02  0.00000000000E+00 0. -1.
         -5    1    5    5    0  502 -0.15960986084E+02 -0.73910220427E+02  0.33856629516E+03  0.34693904361E+03  0.47000000000E+01 0.  1.
         11    1    6    6    0    0 -0.77224190891E+02 -0.52936751616E+02  0.14558496384E+03  0.17309204784E+03  0.00000000000E+00 0. -1.
        -12    1    6    6    0    0 -0.37363718437E+02  0.25875423542E+02  0.70691553342E+02  0.84040946644E+02  0.00000000000E+00 0.  1.
<mgrwt>
<rscale>  2 0.23869387E+03</rscale>
<asrwt>0</asrwt>
<pdfrwt beam="1">  1       21 0.11625229E+00 0.23885661E+03</pdfrwt>
<pdfrwt beam="2">  1       21 0.16173988E-01 0.23885661E+03</pdfrwt>
<totfact> 0.18987664E+04</totfact>
</mgrwt>
</event>
<event>
12    1  0.1071811E-001  0.1847892E+03  0.7546771E-02  0.1164932E+00
         21   -1    0    0  501  502  0.00000000000E+00  0.00000000000E+00  0.26444836929E+04  0.26444836929E+04  0.00000000000E+00 0.  1.
         21   -1    0    0  502  503 -0.00000000000E+00 -0.00000000000E+00 -0.13685649403E+02  0.13685649403E+02  0.00000000000E+00 0.  1.
         -6    2    1    2    0  503 -0.35267489394E+02 -0.51015439273E+02  0.93519113204E+03  0.95327304985E+03  0.17407091449E+03 0.  0.
        -24    2    3    3    0    0 -0.67262877155E+02 -0.81526058908E+02  0.71895531721E+03  0.73251385896E+03  0.92244308742E+02 0.  0.
          6    2    1    2  501    0  0.35267489394E+02  0.51015439273E+02  0.16956069115E+04  0.17048962924E+04  0.16655989609E+03 0.  0.
         24    2    5    5    0    0 -0.20072905254E+02  0.56233551845E+02  0.67629692085E+03  0.68406098011E+03  0.83646670444E+02 0.  0.
          5    1    5    5  501    0  0.55340394648E+02 -0.52181125722E+01  0.10193099906E+04  0.10208353123E+04  0.47000000000E+01 0. -1.
        -11    1    6    6    0    0  0.11856521180E+02  0.61111481915E+02  0.30059658566E+03  0.30697475080E+03  0.00000000000E+00 0.  1.
         12    1    6    6    0    0 -0.31929426433E+02 -0.48779300698E+01  0.37570033519E+03  0.37708622931E+03  0.00000000000E+00 0. -1.
         -5    1    3    3    0  503  0.31995387761E+02  0.30510619635E+02  0.21623581483E+03  0.22075919089E+03  0.47000000000E+01 0.  1.
         13    1    4    4    0    0  0.92343275198E+01 -0.46212282152E+02  0.14654708908E+03  0.15393796525E+03  0.00000000000E+00 0. -1.
        -14    1    4    4    0    0 -0.76497204675E+02 -0.35313776756E+02  0.57240822813E+03  0.57857589371E+03  0.00000000000E+00 0.  1.
<mgrwt>
<rscale>  2 0.18299900E+03</rscale>
<asrwt>0</asrwt>
<pdfrwt beam="1">  1       21 0.40684324E+00 0.18478922E+03</pdfrwt>
<pdfrwt beam="2">  1       21 0.21054866E-02 0.18478922E+03</pdfrwt>
<totfact> 0.90329877E+03</totfact>
</mgrwt>
</event>
<event>
12    1  0.1071811E-001  0.2084675E+03  0.7546771E-02  0.1145930E+00
         21   -1    0    0  503  502  0.00000000000E+00  0.00000000000E+00  0.72378417720E+03  0.72378417720E+03  0.00000000000E+00 0.  1.
         21   -1    0    0  501  503 -0.00000000000E+00 -0.00000000000E+00 -0.17045309583E+03  0.17045309583E+03  0.00000000000E+00 0.  1.
          6    2    1    2  501    0  0.85149869970E+02  0.13884502051E+02 -0.86596042801E+02  0.22573781223E+03  0.18977725229E+03 0.  0.
         24    2    3    3    0    0  0.12177288605E+03 -0.22815155761E+02 -0.88124434485E+02  0.17365579833E+03  0.83912175701E+02 0.  0.
         -6    2    1    2    0  502 -0.85149869970E+02 -0.13884502051E+02  0.63992712416E+03  0.66849946080E+03  0.17303619590E+03 0.  0.
        -24    2    5    5    0    0 -0.42876348638E+02 -0.69378464116E+02  0.26120015738E+03  0.28337242227E+03  0.73638678255E+02 0.  0.
          5    1    3    3  501    0 -0.36623016083E+02  0.36699657812E+02  0.15283916845E+01  0.52082013898E+02  0.47000000000E+01 0. -1.
        -11    1    4    4    0    0  0.99114014719E+02  0.14785107433E+02 -0.81687128411E+02  0.12928640402E+03  0.00000000000E+00 0.  1.
         12    1    4    4    0    0  0.22658871334E+02 -0.37600263194E+02 -0.64373060739E+01  0.44369394315E+02  0.00000000000E+00 0. -1.
         -5    1    5    5    0  502 -0.42273521331E+02  0.55493962065E+02  0.37872696679E+03  0.38512703853E+03  0.47000000000E+01 0.  1.
         13    1    6    6    0    0  0.18115910747E+02 -0.17118681418E+02  0.10272517990E+03  0.10570571442E+03  0.00000000000E+00 0. -1.
        -14    1    6    6    0    0 -0.60992259386E+02 -0.52259782698E+02  0.15847497748E+03  0.17766670785E+03  0.00000000000E+00 0.  1.
<mgrwt>
<rscale>  2 0.20458115E+03</rscale>
<asrwt>0</asrwt>
<pdfrwt beam="1">  1       21 0.11135141E+00 0.20846747E+03</pdfrwt>
<pdfrwt beam="2">  1       21 0.26223554E-01 0.20846747E+03</pdfrwt>
<totfact> 0.86649484E+03</totfact>
</mgrwt>
</event>
<event>
12    1  0.1071811E-001  0.1944651E+03  0.7546771E-02  0.1154610E+00
         21   -1    0    0  503  502  0.00000000000E+00  0.00000000000E+00  0.49202972958E+03  0.49202972958E+03  0.00000000000E+00 0. -1.
         21   -1    0    0  501  503 -0.00000000000E+00 -0.00000000000E+00 -0.11175730437E+03  0.11175730437E+03  0.00000000000E+00 0. -1.
          6    2    1    2  501    0 -0.32076109250E+01  0.89987890631E+02  0.20755891011E+02  0.19504651653E+03  0.17176794628E+03 0.  0.
         24    2    3    3    0    0  0.18893934475E+02  0.53415688516E+02  0.75756013838E+02  0.12523886804E+03  0.82070603115E+02 0.  0.
         -6    2    1    2    0  502  0.32076109250E+01 -0.89987890631E+02  0.35951653420E+03  0.40874051741E+03  0.17236172134E+03 0.  0.
        -24    2    5    5    0    0  0.31090708973E+02 -0.11348388618E+03  0.20255093725E+03  0.24752693986E+03  0.79984243240E+02 0.  0.
          5    1    3    3  501    0 -0.22101545400E+02  0.36572202116E+02 -0.55000122828E+02  0.69807648490E+02  0.47000000000E+01 0. -1.
        -11    1    4    4    0    0  0.17875485096E+02  0.16013608952E+01  0.70958510938E+02  0.73192947739E+02  0.00000000000E+00 0.  1.
         12    1    4    4    0    0  0.10184493793E+01  0.51814327621E+02  0.47975028999E+01  0.52045920301E+02  0.00000000000E+00 0. -1.
         -5    1    5    5    0  502 -0.27883098048E+02  0.23495995545E+02  0.15696559695E+03  0.16121357756E+03  0.47000000000E+01 0.  1.
         13    1    6    6    0    0 -0.24622891972E+02 -0.35330120660E+02  0.88819791360E+02  0.98708963991E+02  0.00000000000E+00 0. -1.
        -14    1    6    6    0    0  0.55713600945E+02 -0.78153765516E+02  0.11373114589E+03  0.14881797586E+03  0.00000000000E+00 0.  1.
<mgrwt>
<rscale>  2 0.19433344E+03</rscale>
<asrwt>0</asrwt>
<pdfrwt beam="1">  1       21 0.75696880E-01 0.19446509E+03</pdfrwt>
<pdfrwt beam="2">  1       21 0.17193432E-01 0.19446509E+03</pdfrwt>
<totfact> 0.47543845E+04</totfact>
</mgrwt>
</event>
<event>
12    1  0.1071811E-001  0.2127665E+03  0.7546771E-02  0.1139404E+00
         21   -1    0    0  503  502  0.00000000000E+00  0.00000000000E+00  0.11239809837E+04  0.11239809837E+04  0.00000000000E+00 0.  1.
         21   -1    0    0  501  503 -0.00000000000E+00 -0.00000000000E+00 -0.41235085182E+02  0.41235085182E+02  0.00000000000E+00 0.  1.
          6    2    1    2  501    0  0.55527273323E+02 -0.10985989258E+03  0.45211938847E+03  0.49968142094E+03  0.17354281005E+03 0.  0.
         24    2    3    3    0    0  0.11333711144E+02 -0.21779427725E+02  0.85135957079E+02  0.11966804204E+03  0.80433280535E+02 0.  0.
         -6    2    1    2    0  502 -0.55527273323E+02  0.10985989258E+03  0.63062651007E+03  0.66553464796E+03  0.17347650664E+03 0.  0.
        -24    2    5    5    0    0 -0.88650017163E+02  0.27866100963E+02  0.39911868333E+03  0.41766762340E+03  0.80716634768E+02 0.  0.
          5    1    3    3  501    0  0.44193562179E+02 -0.88080464858E+02  0.36698343139E+03  0.38001337890E+03  0.47000000000E+01 0. -1.
        -11    1    4    4    0    0  0.12146057071E+02 -0.52235073295E+02  0.53903396093E+02  0.76036870628E+02  0.00000000000E+00 0.  1.
         12    1    4    4    0    0 -0.81234592716E+00  0.30455645571E+02  0.31232560986E+02  0.43631171412E+02  0.00000000000E+00 0. -1.
         -5    1    5    5    0  502  0.33122743840E+02  0.81993791619E+02  0.23150782674E+03  0.24786702456E+03  0.47000000000E+01 0.  1.
         13    1    6    6    0    0 -0.22488852183E+02  0.35633838786E+02  0.26034989442E+03  0.26373772287E+03  0.00000000000E+00 0. -1.
        -14    1    6    6    0    0 -0.66161164980E+02 -0.77677378228E+01  0.13876878891E+03  0.15392990053E+03  0.00000000000E+00 0.  1.
<mgrwt>
<rscale>  2 0.21275297E+03</rscale>
<asrwt>0</asrwt>
<pdfrwt beam="1">  1       21 0.17292013E+00 0.21276649E+03</pdfrwt>
<pdfrwt beam="2">  1       21 0.63438601E-02 0.21276649E+03</pdfrwt>
<totfact> 0.36024165E+04</totfact>
</mgrwt>
</event>
<event>
12    1  0.1071811E-001  0.2067064E+03  0.7546771E-02  0.1146162E+00
         21   -1    0    0  501  502  0.00000000000E+00  0.00000000000E+00  0.41762326932E+03  0.41762326932E+03  0.00000000000E+00 0. -1.
         21   -1    0    0  502  503 -0.00000000000E+00 -0.00000000000E+00 -0.11947438683E+03  0.11947438683E+03  0.00000000000E+00 0.  1.
         -6    2    1    2    0  503 -0.57504218476E+02 -0.74976324461E+02  0.26659762474E+03  0.33734524843E+03  0.18384596474E+03 0.  0.
        -24    2    3    3    0    0 -0.34725699253E+02  0.30904601336E+02  0.16295016851E+03  0.18736352765E+03  0.79946016182E+02 0.  0.
          6    2    1    2  501    0  0.57504218476E+02  0.74976324461E+02  0.31551257755E+02  0.19975240772E+03  0.17313970703E+03 0.  0.
         24    2    5    5    0    0  0.48836940455E+02 -0.20615154782E+02  0.23105411159E+02  0.10328337156E+03  0.85577821059E+02 0.  0.
          5    1    5    5  501    0  0.86672780207E+01  0.95591479243E+02  0.84458465957E+01  0.96469036156E+02  0.47000000000E+01 0. -1.
        -13    1    6    6    0    0  0.38286373164E+02 -0.38602129339E+01  0.54169217212E+02  0.66445855456E+02  0.00000000000E+00 0.  1.
         14    1    6    6    0    0  0.10550567291E+02 -0.16754941848E+02 -0.31063806053E+02  0.36837516108E+02  0.00000000000E+00 0. -1.
         -5    1    3    3    0  503 -0.22778519223E+02 -0.10588092580E+03  0.10364745623E+03  0.14998172078E+03  0.47000000000E+01 0.  1.
         13    1    4    4    0    0 -0.54767994212E+02  0.42203740584E+02  0.12881218132E+03  0.14619598820E+03  0.00000000000E+00 0. -1.
        -14    1    4    4    0    0  0.20042294959E+02 -0.11299139247E+02  0.34137987190E+02  0.41167539449E+02  0.00000000000E+00 0.  1.
<mgrwt>
<rscale>  2 0.20429928E+03</rscale>
<asrwt>0</asrwt>
<pdfrwt beam="1">  1       21 0.64249733E-01 0.20670637E+03</pdfrwt>
<pdfrwt beam="2">  1       21 0.18380675E-01 0.20670637E+03</pdfrwt>
<totfact> 0.59974421E+04</totfact>
</mgrwt>
</event>
<event>
12    1  0.1071811E-001  0.2018497E+03  0.7546771E-02  0.1148300E+00
         21   -1    0    0  501  502  0.00000000000E+00  0.00000000000E+00  0.44100019876E+02  0.44100019876E+02  0.00000000000E+00 0. -1.
         21   -1    0    0  502  503 -0.00000000000E+00 -0.00000000000E+00 -0.96580009334E+03  0.96580009334E+03  0.00000000000E+00 0. -1.
         -6    2    1    2    0  503  0.45995146470E+02 -0.10131568397E+03 -0.35320489535E+03  0.40681322144E+03  0.16841281936E+03 0.  0.
        -24    2    3    3    0    0  0.89421492014E+02 -0.50478153375E+02 -0.25001129914E+03  0.28376318974E+03  0.86438712100E+02 0.  0.
          6    2    1    2  501    0 -0.45995146470E+02  0.10131568397E+03 -0.56849517811E+03  0.60308689177E+03  0.16776951501E+03 0.  0.
         24    2    5    5    0    0 -0.69720673563E+02  0.83378358991E+02 -0.27154240061E+03  0.30461128082E+03  0.85087214109E+02 0.  0.
          5    1    5    5  501    0  0.23725527093E+02  0.17937324983E+02 -0.29695277750E+03  0.29847561095E+03  0.47000000000E+01 0. -1.
        -11    1    6    6    0    0 -0.71566462213E+02  0.45089350569E+02 -0.11099983009E+03  0.13955561733E+03  0.00000000000E+00 0.  1.
         12    1    6    6    0    0  0.18457886504E+01  0.38289008422E+02 -0.16054257051E+03  0.16505566349E+03  0.00000000000E+00 0. -1.
         -5    1    3    3    0  503 -0.43426345544E+02 -0.50837530599E+02 -0.10319359621E+03  0.12305003171E+03  0.47000000000E+01 0.  1.
         11    1    4    4    0    0  0.36088814840E+02 -0.57630263753E+02 -0.77732357754E+02  0.10327617973E+03  0.00000000000E+00 0. -1.
        -12    1    4    4    0    0  0.53332677174E+02  0.71521103778E+01 -0.17227894139E+03  0.18048701001E+03  0.00000000000E+00 0.  1.
<mgrwt>
<rscale>  2 0.20171545E+03</rscale>
<asrwt>0</asrwt>
<pdfrwt beam="1">  1       21 0.67846185E-02 0.20184969E+03</pdfrwt>
<pdfrwt beam="2">  1       21 0.14858463E+00 0.20184969E+03</pdfrwt>
<totfact> 0.48667191E+04</totfact>
</mgrwt>
</event>
<event>
12    1  0.1071811E-001  0.2304780E+03  0.7546771E-02  0.1126432E+00
         21   -1    0    0  501  502  0.00000000000E+00  0.00000000000E+00  0.13433602770E+04  0.13433602770E+04  0.00000000000E+00 0. -1.
         21   -1    0    0  502  503 -0.00000000000E+00 -0.00000000000E+00 -0.50313477686E+02  0.50313477686E+02  0.00000000000E+00 0. -1.
         -6    2    1    2    0  503  0.71430692855E+02  0.13305956296E+03  0.97160039561E+03  0.99856268936E+03  0.17410607296E+03 0.  0.
        -24    2    3    3    0    0 -0.19823754125E+02  0.21432054762E+02  0.38787206042E+03  0.39727329648E+03  0.80802367797E+02 0.  0.
          6    2    1    2  501    0 -0.71430692855E+02 -0.13305956296E+03  0.32144640370E+03  0.39511106533E+03  0.17314090307E+03 0.  0.
         24    2    5    5    0    0  0.18307756540E+02 -0.83216831781E+01  0.95301234895E+02  0.12165859171E+03  0.72897621395E+02 0.  0.
          5    1    5    5  501    0 -0.89738449395E+02 -0.12473787978E+03  0.22614516881E+03  0.27345247362E+03  0.47000000000E+01 0. -1.
        -13    1    6    6    0    0  0.38606156791E+02 -0.11745218481E+02  0.22922166125E+02  0.46409171499E+02  0.00000000000E+00 0.  1.
         14    1    6    6    0    0 -0.20298400252E+02  0.34235353033E+01  0.72379068770E+02  0.75249420215E+02  0.00000000000E+00 0. -1.
         -5    1    3    3    0  503  0.91254446980E+02  0.11162750820E+03  0.58372833519E+03  0.60128939288E+03  0.47000000000E+01 0.  1.
         13    1    4    4    0    0  0.24407822488E+02  0.23065645958E+02  0.88693000887E+02  0.94837831209E+02  0.00000000000E+00 0. -1.
        -14    1    4    4    0    0 -0.44231576613E+02 -0.16335911959E+01  0.29917905953E+03  0.30243546527E+03  0.00000000000E+00 0.  1.
<mgrwt>
<rscale>  2 0.23029574E+03</rscale>
<asrwt>0</asrwt>
<pdfrwt beam="1">  1       21 0.20667078E+00 0.23047802E+03</pdfrwt>
<pdfrwt beam="2">  1       21 0.77405361E-02 0.23047802E+03</pdfrwt>
<totfact> 0.15035125E+04</totfact>
</mgrwt>
</event>
<event>
12    1  0.1071811E-001  0.2556436E+03  0.7546771E-02  0.1109912E+00
         21   -1    0    0  501  502  0.00000000000E+00  0.00000000000E+00  0.13572794899E+03  0.13572794899E+03  0.00000000000E+00 0. -1.
         21   -1    0    0  502  503 -0.00000000000E+00 -0.00000000000E+00 -0.65598235896E+03  0.65598235896E+03  0.00000000000E+00 0. -1.
         -6    2    1    2    0  503 -0.13541307409E+03 -0.13026735625E+03 -0.46485971270E+03  0.53013391901E+03  0.17216600957E+03 0.  0.
        -24    2    3    3    0    0 -0.13411312157E+03 -0.14295089589E+03 -0.47011496832E+03  0.51556443838E+03  0.79858115847E+02 0.  0.
          6    2    1    2  501    0  0.13541307409E+03  0.13026735625E+03 -0.55394697267E+02  0.26157638895E+03  0.17334171462E+03 0.  0.
         24    2    5    5    0    0  0.14060685468E+02  0.75020223990E+02 -0.23111702324E+02  0.12430683802E+03  0.95353564757E+02 0.  0.
          5    1    5    5  501    0  0.12135238862E+03  0.55247132265E+02 -0.32282994943E+02  0.13726955092E+03  0.47000000000E+01 0. -1.
        -13    1    6    6    0    0  0.58314541379E+01 -0.23964947845E+01  0.29615430128E+02  0.30279081001E+02  0.00000000000E+00 0.  1.
         14    1    6    6    0    0  0.82292313304E+01  0.77416718774E+02 -0.52727132452E+02  0.94027757023E+02  0.00000000000E+00 0. -1.
         -5    1    3    3    0  503 -0.12999525185E+01  0.12683539639E+02  0.52552556177E+01  0.14569480633E+02  0.47000000000E+01 0.  1.
         13    1    4    4    0    0 -0.30942733218E+02  0.31944001607E+01 -0.49171827376E+02  0.58185269089E+02  0.00000000000E+00 0. -1.
        -14    1    4    4    0    0 -0.10317038835E+03 -0.14614529605E+03 -0.42094314094E+03  0.45737916929E+03  0.00000000000E+00 0.  1.
<mgrwt>
<rscale>  2 0.25544440E+03</rscale>
<asrwt>0</asrwt>
<pdfrwt beam="1">  1       21 0.20881223E-01 0.25564357E+03</pdfrwt>
<pdfrwt beam="2">  1       21 0.10092036E+00 0.25564357E+03</pdfrwt>
<totfact> 0.16492792E+04</totfact>
</mgrwt>
</event>
<event>
12    1  0.1071811E-001  0.2141547E+03  0.7546771E-02  0.1138896E+00
         21   -1    0    0  501  502  0.00000000000E+00  0.00000000000E+00  0.10807829370E+03  0.10807829370E+03  0.00000000000E+00 0. -1.
         21   -1    0    0  502  503 -0.00000000000E+00 -0.00000000000E+00 -0.69824514115E+03  0.69824514115E+03  0.00000000000E+00 0. -1.
         -6    2    1    2    0  503  0.90020185738E+02 -0.85332363452E+02 -0.54904325581E+03  0.58825600303E+03  0.17091337647E+03 0.  0.
        -24    2    3    3    0    0  0.87395170527E+02 -0.11548633208E+03 -0.34934768470E+03  0.38622490728E+03  0.78427453550E+02 0.  0.
          6    2    1    2  501    0 -0.90020185738E+02  0.85332363452E+02 -0.41123591642E+02  0.21806743183E+03  0.17457665635E+03 0.  0.
         24    2    5    5    0    0 -0.92683984951E+02  0.10053367876E+03 -0.78903209284E+02  0.17698744494E+03  0.80009359454E+02 0.  0.
          5    1    5    5  501    0  0.26637992128E+01 -0.15201315306E+02  0.37779617642E+02  0.41079986885E+02  0.47000000000E+01 0. -1.
        -11    1    6    6    0    0 -0.94994955617E+00 -0.96317179338E+01  0.49870054790E+01  0.10887727870E+02  0.00000000000E+00 0.  1.
         12    1    6    6    0    0 -0.91734035395E+02  0.11016539669E+03 -0.83890214763E+02  0.16609971707E+03  0.00000000000E+00 0. -1.
         -5    1    3    3    0  503  0.26250152109E+01  0.30153968627E+02 -0.19969557110E+03  0.20203109574E+03  0.47000000000E+01 0.  1.
         13    1    4    4    0    0 -0.79869634059E+01 -0.37320184166E+02 -0.11862417177E+03  0.12461252690E+03  0.00000000000E+00 0. -1.
        -14    1    4    4    0    0  0.95382133933E+02 -0.78166147913E+02 -0.23072351293E+03  0.26161238039E+03  0.00000000000E+00 0.  1.
<mgrwt>
<rscale>  2 0.21340694E+03</rscale>
<asrwt>0</asrwt>
<pdfrwt beam="1">  1       21 0.16627430E-01 0.21415475E+03</pdfrwt>
<pdfrwt beam="2">  1       21 0.10742233E+00 0.21415475E+03</pdfrwt>
<totfact> 0.22183200E+04</totfact>
</mgrwt>
</event>
<event>
12    1  0.1071811E-001  0.2272654E+03  0.7546771E-02  0.1128669E+00
         21   -1    0    0  503  502  0.00000000000E+00  0.00000000000E+00  0.64603421049E+02  0.64603421049E+02  0.00000000000E+00 0.  1.
         21   -1    0    0  501  503 -0.00000000000E+00 -0.00000000000E+00 -0.11044377848E+04  0.11044377848E+04  0.00000000000E+00 0. -1.
          6    2    1    2  501    0  0.62624778959E+02 -0.13299175413E+03 -0.82753264400E+03  0.85804028755E+03  0.17266785624E+03 0.  0.
         24    2    3    3    0    0  0.10413365689E+03 -0.74719586632E+02 -0.62336799091E+03  0.64165191444E+03  0.81869970548E+02 0.  0.
         -6    2    1    2    0  502 -0.62624778959E+02  0.13299175413E+03 -0.21230171976E+03  0.31100091830E+03  0.17332305492E+03 0.  0.
        -24    2    5    5    0    0 -0.10237370669E+02  0.40455802738E+02 -0.22804822995E+02  0.93656705747E+02  0.80684836532E+02 0.  0.
          5    1    3    3  501    0 -0.41508877935E+02 -0.58272167498E+02 -0.20416465308E+03  0.21638837312E+03  0.47000000000E+01 0. -1.
        -11    1    4    4    0    0  0.81986262595E+02 -0.80590941942E+02 -0.59049334817E+03  0.60158045298E+03  0.00000000000E+00 0.  1.
         12    1    4    4    0    0  0.22147394299E+02  0.58713553103E+01 -0.32874642743E+02  0.40071461451E+02  0.00000000000E+00 0. -1.
         -5    1    5    5    0  502 -0.52387408289E+02  0.92535951392E+02 -0.18949689677E+03  0.21734421256E+03  0.47000000000E+01 0.  1.
         13    1    6    6    0    0  0.14138694460E+02  0.51432733555E+02 -0.35487668218E+02  0.64067178473E+02  0.00000000000E+00 0. -1.
        -14    1    6    6    0    0 -0.24376065129E+02 -0.10976930817E+02  0.12682845223E+02  0.29589527274E+02  0.00000000000E+00 0.  1.
<mgrwt>
<rscale>  2 0.22714045E+03</rscale>
<asrwt>0</asrwt>
<pdfrwt beam="1">  1       21 0.99389882E-02 0.22726538E+03</pdfrwt>
<pdfrwt beam="2">  1       21 0.16991350E+00 0.22726538E+03</pdfrwt>
<totfact> 0.17114245E+04</totfact>
</mgrwt>
</event>
<event>
12    1  0.1071811E-001  0.1741263E+03  0.7546771E-02  0.1174438E+00
         21   -1    0    0  503  502  0.00000000000E+00  0.00000000000E+00  0.62756191503E+03  0.62756191503E+03  0.00000000000E+00 0.  1.
         21   -1    0    0  501  503 -0.00000000000E+00 -0.00000000000E+00 -0.14910753530E+03  0.14910753530E+03  0.00000000000E+00 0.  1.
          6    2    1    2  501    0  0.10441846947E+02 -0.22258150480E+02 -0.82175518451E+02  0.18962101591E+03  0.16911196413E+03 0.  0.
         24    2    3    3    0    0 -0.24640853439E+02  0.16425144355E+02 -0.10088484210E+03  0.13394946162E+03  0.82992468805E+02 0.  0.
         -6    2    1    2    0  502 -0.10441846947E+02  0.22258150480E+02  0.56062989818E+03  0.58704843442E+03  0.17238191376E+03 0.  0.
        -24    2    5    5    0    0 -0.67027772229E+02  0.41131453302E+02  0.40266448440E+03  0.41813031683E+03  0.80683059899E+02 0.  0.
          5    1    3    3  501    0  0.35082700386E+02 -0.38683294834E+02  0.18709323648E+02  0.55671554289E+02  0.47000000000E+01 0. -1.
        -11    1    4    4    0    0 -0.54179767999E+02  0.20040297163E+01 -0.72422938916E+02  0.90468477807E+02  0.00000000000E+00 0.  1.
         12    1    4    4    0    0  0.29538914559E+02  0.14421114638E+02 -0.28461903183E+02  0.43480983815E+02  0.00000000000E+00 0. -1.
         -5    1    5    5    0  502  0.56585925283E+02 -0.18873302822E+02  0.15796541377E+03  0.16891811758E+03  0.47000000000E+01 0.  1.
         13    1    6    6    0    0 -0.14829125106E+02  0.14031734543E+02  0.13337726723E+02  0.24386214955E+02  0.00000000000E+00 0. -1.
        -14    1    6    6    0    0 -0.52198647123E+02  0.27099718759E+02  0.38932675768E+03  0.39374410188E+03  0.00000000000E+00 0.  1.
<mgrwt>
<rscale>  2 0.17331149E+03</rscale>
<asrwt>0</asrwt>
<pdfrwt beam="1">  1       21 0.96547985E-01 0.17412634E+03</pdfrwt>
<pdfrwt beam="2">  1       21 0.22939621E-01 0.17412634E+03</pdfrwt>
<totfact> 0.16102570E+04</totfact>
</mgrwt>
</event>
<event>
12    1  0.1071811E-001  0.2000741E+03  0.7546771E-02  0.1149884E+00
         21   -1    0    0  501  502  0.00000000000E+00  0.00000000000E+00  0.30117111798E+03  0.30117111798E+03  0.00000000000E+00 0.  1.
         21   -1    0    0  502  503 -0.00000000000E+00 -0.00000000000E+00 -0.14676831420E+03  0.14676831420E+03  0.00000000000E+00 0.  1.
         -6    2    1    2    0  503 -0.82029133063E+02  0.56030711036E+02  0.69569235497E+01  0.20019499745E+03  0.17367043206E+03 0.  0.
        -24    2    3    3    0    0  0.21390587923E+02  0.14577943917E+02  0.25839689749E+02  0.87090534900E+02  0.79037952923E+02 0.  0.
          6    2    1    2  501    0  0.82029133063E+02 -0.56030711036E+02  0.14744588023E+03  0.24774443472E+03  0.17253636743E+03 0.  0.
         24    2    5    5    0    0  0.84569291500E+02 -0.82694425931E+02  0.57084000924E+02  0.15337937058E+03  0.79223197453E+02 0.  0.
          5    1    5    5  501    0 -0.25401584375E+01  0.26663714895E+02  0.90361879308E+02  0.94365064134E+02  0.47000000000E+01 0. -1.
        -13    1    6    6    0    0  0.64275611035E+02 -0.80861220038E+02  0.73860536105E+02  0.12698531361E+03  0.00000000000E+00 0.  1.
         14    1    6    6    0    0  0.20293680465E+02 -0.18332058930E+01 -0.16776535182E+02  0.26394056970E+02  0.00000000000E+00 0. -1.
         -5    1    3    3    0  503 -0.10341972099E+03  0.41452767119E+02 -0.18882766199E+02  0.11310446255E+03  0.47000000000E+01 0.  1.
         13    1    4    4    0    0 -0.60408881599E-01 -0.24998986192E+02 -0.12509193034E+02  0.27954120809E+02  0.00000000000E+00 0. -1.
        -14    1    4    4    0    0  0.21450996804E+02  0.39576930109E+02  0.38348882783E+02  0.59136414090E+02  0.00000000000E+00 0.  1.
<mgrwt>
<rscale>  2 0.19982773E+03</rscale>
<asrwt>0</asrwt>
<pdfrwt beam="1">  1       21 0.46334018E-01 0.20007408E+03</pdfrwt>
<pdfrwt beam="2">  1       21 0.22579741E-01 0.20007408E+03</pdfrwt>
<totfact> 0.81747185E+04</totfact>
</mgrwt>
</event>
<event>
12    1  0.1071811E-001  0.2229089E+03  0.7546771E-02  0.1131943E+00
         21   -1    0    0  501  502  0.00000000000E+00  0.00000000000E+00  0.40545362673E+03  0.40545362673E+03  0.00000000000E+00 0.  1.
         21   -1    0    0  502  503 -0.00000000000E+00 -0.00000000000E+00 -0.12738946561E+03  0.12738946561E+03  0.00000000000E+00 0.  1.
         -6    2    1    2    0  503 -0.60222544704E+02  0.12895472489E+03  0.84172906395E+02  0.23827185512E+03  0.17155851132E+03 0.  0.
        -24    2    3    3    0    0  0.67345091411E+01  0.22267771497E+01  0.22672602497E+02  0.82234689100E+02  0.78728552873E+02 0.  0.
          6    2    1    2  501    0  0.60222544704E+02 -0.12895472489E+03  0.19389125472E+03  0.29457123723E+03  0.17006563199E+03 0.  0.
         24    2    5    5    0    0  0.31719387292E+02 -0.90239998275E+01  0.12716237652E+03  0.15431917135E+03  0.80972739497E+02 0.  0.
          5    1    5    5  501    0  0.28503157412E+02 -0.11993072506E+03  0.66728878201E+02  0.14025206588E+03  0.47000000000E+01 0. -1.
        -13    1    6    6    0    0  0.14124683114E+02 -0.44175532010E+02  0.83899652565E+02  0.95865197032E+02  0.00000000000E+00 0.  1.
         14    1    6    6    0    0  0.17594704178E+02  0.35151532182E+02  0.43262723954E+02  0.58453974320E+02  0.00000000000E+00 0. -1.
         -5    1    3    3    0  503 -0.66957053845E+02  0.12672794774E+03  0.61500303898E+02  0.15603716602E+03  0.47000000000E+01 0.  1.
         13    1    4    4    0    0  0.37428758729E+02  0.68907918137E+01 -0.76701649648E+01  0.38823014082E+02  0.00000000000E+00 0. -1.
        -14    1    4    4    0    0 -0.30694249588E+02 -0.46640146640E+01  0.30342767461E+02  0.43411675017E+02  0.00000000000E+00 0.  1.
<mgrwt>
<rscale>  2 0.22262166E+03</rscale>
<asrwt>0</asrwt>
<pdfrwt beam="1">  1       21 0.62377480E-01 0.22290895E+03</pdfrwt>
<pdfrwt beam="2">  1       21 0.19598380E-01 0.22290895E+03</pdfrwt>
<totfact> 0.56340224E+04</totfact>
</mgrwt>
</event>
<event>
12    1  0.1071811E-001  0.2279656E+03  0.7546771E-02  0.1128223E+00
         21   -1    0    0  501  502  0.00000000000E+00  0.00000000000E+00  0.65856301857E+03  0.65856301857E+03  0.00000000000E+00 0.  1.
         21   -1    0    0  502  503 -0.00000000000E+00 -0.00000000000E+00 -0.10970657369E+03  0.10970657369E+03  0.00000000000E+00 0.  1.
         -6    2    1    2    0  503  0.12062473803E+03  0.84222831646E+02  0.69643225770E+02  0.23759678205E+03  0.17308448558E+03 0.  0.
        -24    2    3    3    0    0  0.40344354703E+02  0.14078261913E+02 -0.25196933633E+02  0.94831427546E+02  0.80822334604E+02 0.  0.
          6    2    1    2  501    0 -0.12062473803E+03 -0.84222831646E+02  0.47921321911E+03  0.53067281022E+03  0.17413933887E+03 0.  0.
         24    2    5    5    0    0 -0.13993060619E+02 -0.75267630351E+02  0.32999509015E+03  0.34699197216E+03  0.75137522582E+02 0.  0.
          5    1    5    5  501    0 -0.10663167741E+03 -0.89552012953E+01  0.14921812896E+03  0.18368083805E+03  0.47000000000E+01 0. -1.
        -11    1    6    6    0    0 -0.36918947076E+02 -0.21587488315E+02  0.85167992430E+02  0.95302755677E+02  0.00000000000E+00 0.  1.
         12    1    6    6    0    0  0.22925886456E+02 -0.53680142036E+02  0.24482709772E+03  0.25168921649E+03  0.00000000000E+00 0. -1.
         -5    1    3    3    0  503  0.80280383329E+02  0.70144569734E+02  0.94840159403E+02  0.14276535450E+03  0.47000000000E+01 0.  1.
         11    1    4    4    0    0  0.31930832658E+02 -0.29953017045E+02 -0.78582103302E+00  0.43787884386E+02  0.00000000000E+00 0. -1.
        -12    1    4    4    0    0  0.84135220449E+01  0.44031278958E+02 -0.24411112600E+02  0.51043543159E+02  0.00000000000E+00 0.  1.
<mgrwt>
<rscale>  2 0.22776416E+03</rscale>
<asrwt>0</asrwt>
<pdfrwt beam="1">  1       21 0.10131739E+00 0.22796562E+03</pdfrwt>
<pdfrwt beam="2">  1       21 0.16877935E-01 0.22796562E+03</pdfrwt>
<totfact> 0.24655748E+04</totfact>
</mgrwt>
</event>
<event>
12    1  0.1071811E-001  0.1797867E+03  0.7546771E-02  0.1171034E+00
         21   -1    0    0  503  502  0.00000000000E+00  0.00000000000E+00  0.16229117253E+03  0.16229117253E+03  0.00000000000E+00 0.  1.
         21   -1    0    0  501  503 -0.00000000000E+00 -0.00000000000E+00 -0.18743074487E+03  0.18743074487E+03  0.00000000000E+00 0.  1.
          6    2    1    2  501    0 -0.56599316540E+02  0.31675633165E+02 -0.27909405236E+02  0.18194009696E+03  0.16767956230E+03 0.  0.
         24    2    3    3    0    0 -0.10013431503E+03  0.16729221799E+02 -0.39930392723E+01  0.12985580118E+03  0.80869257615E+02 0.  0.
         -6    2    1    2    0  502  0.56599316540E+02 -0.31675633165E+02  0.27698328923E+01  0.16778182044E+03  0.15471340901E+03 0.  0.
        -24    2    5    5    0    0 -0.12681187868E+02  0.15884927829E+02  0.17525166950E+02  0.82332390157E+02  0.77835387418E+02 0.  0.
          5    1    3    3  501    0  0.43534998495E+02  0.14946411366E+02 -0.23916365963E+02  0.52084295786E+02  0.47000000000E+01 0. -1.
        -13    1    4    4    0    0 -0.46791016453E+02 -0.32440015756E+02 -0.62136082371E+01  0.57274451287E+02  0.00000000000E+00 0.  1.
         14    1    4    4    0    0 -0.53343298582E+02  0.49169237554E+02  0.22205689648E+01  0.72581349890E+02  0.00000000000E+00 0. -1.
         -5    1    5    5    0  502  0.69280504408E+02 -0.47560560994E+02 -0.14755334057E+02  0.85449430286E+02  0.47000000000E+01 0.  1.
         11    1    6    6    0    0 -0.87240767820E+01 -0.26898881783E+02  0.26141863991E+02  0.38510471430E+02  0.00000000000E+00 0. -1.
        -12    1    6    6    0    0 -0.39571110857E+01  0.42783809612E+02 -0.86166970415E+01  0.43821918727E+02  0.00000000000E+00 0.  1.
<mgrwt>
<rscale>  2 0.17670125E+03</rscale>
<asrwt>0</asrwt>
<pdfrwt beam="1">  1       21 0.24967873E-01 0.17978672E+03</pdfrwt>
<pdfrwt beam="2">  1       21 0.28835499E-01 0.17978672E+03</pdfrwt>
<totfact> 0.17542713E+05</totfact>
</mgrwt>
</event>
<event>
12    1  0.1071811E-001  0.2572629E+03  0.7546771E-02  0.1109093E+00
         21   -1    0    0  503  502  0.00000000000E+00  0.00000000000E+00  0.72164264399E+03  0.72164264399E+03  0.00000000000E+00 0.  1.
         21   -1    0    0  501  503 -0.00000000000E+00 -0.00000000000E+00 -0.98213352658E+02  0.98213352658E+02  0.00000000000E+00 0.  1.
          6    2    1    2  501    0 -0.12227676449E+03  0.14244145235E+03  0.20192818892E+03  0.32704615869E+03  0.17590628742E+03 0.  0.
         24    2    3    3    0    0  0.75726643904E+01  0.61076774191E+02  0.10426189330E+03  0.14527190218E+03  0.80284902538E+02 0.  0.
         -6    2    1    2    0  502  0.12227676449E+03 -0.14244145235E+03  0.42150110242E+03  0.49280983796E+03  0.17308143333E+03 0.  0.
        -24    2    5    5    0    0  0.28229460739E+02 -0.10703057690E+03  0.32921618130E+03  0.35629089382E+03  0.79419519897E+02 0.  0.
          5    1    3    3  501    0 -0.12984942888E+03  0.81364678163E+02  0.97666295613E+02  0.18177425652E+03  0.47000000000E+01 0. -1.
        -11    1    4    4    0    0 -0.20135383513E+02  0.38911557248E+02  0.10044493584E+03  0.10958434237E+03  0.00000000000E+00 0.  1.
         12    1    4    4    0    0  0.27708047903E+02  0.22165216943E+02  0.38169574626E+01  0.35687559808E+02  0.00000000000E+00 0. -1.
         -5    1    5    5    0  502  0.94047303752E+02 -0.35410875455E+02  0.92284921113E+02  0.13651894414E+03  0.47000000000E+01 0.  1.
         11    1    6    6    0    0  0.29923069819E+02 -0.37012955933E+02  0.22982484489E+03  0.23470153034E+03  0.00000000000E+00 0. -1.
        -12    1    6    6    0    0 -0.16936090804E+01 -0.70017620966E+02  0.99391336414E+02  0.12158936348E+03  0.00000000000E+00 0.  1.
<mgrwt>
<rscale>  2 0.25678074E+03</rscale>
<asrwt>0</asrwt>
<pdfrwt beam="1">  1       21 0.11102194E+00 0.25726289E+03</pdfrwt>
<pdfrwt beam="2">  1       21 0.15109747E-01 0.25726289E+03</pdfrwt>
<totfact> 0.23867164E+04</totfact>
</mgrwt>
</event>
<event>
12    1  0.1071811E-001  0.2467980E+03  0.7546771E-02  0.1115905E+00
         21   -1    0    0  503  502  0.00000000000E+00  0.00000000000E+00  0.41356687740E+03  0.41356687740E+03  0.00000000000E+00 0.  1.
         21   -1    0    0  501  503 -0.00000000000E+00 -0.00000000000E+00 -0.22956073880E+03  0.22956073880E+03  0.00000000000E+00 0.  1.
          6    2    1    2  501    0 -0.16695409461E+03  0.40916051432E+02 -0.10331415704E+03  0.26436358924E+03  0.17223965657E+03 0.  0.
         24    2    3    3    0    0 -0.36622298489E+02  0.65751933600E+02 -0.59417700656E+02  0.12453445420E+03  0.79459786129E+02 0.  0.
         -6    2    1    2    0  502  0.16695409461E+03 -0.40916051432E+02  0.28732029564E+03  0.37876402696E+03  0.17709162277E+03 0.  0.
        -24    2    5    5    0    0  0.15909961191E+03  0.13399276765E+01  0.13547807266E+03  0.22088619017E+03  0.71567582867E+02 0.  0.
          5    1    3    3  501    0 -0.13033179612E+03 -0.24835882168E+02 -0.43896456388E+02  0.13982913504E+03  0.47000000000E+01 0. -1.
        -11    1    4    4    0    0 -0.56112967251E+02  0.27256798272E+02 -0.50991453184E+02  0.80571250726E+02  0.00000000000E+00 0.  1.
         12    1    4    4    0    0  0.19490668762E+02  0.38495135329E+02 -0.84262474718E+01  0.43963203469E+02  0.00000000000E+00 0. -1.
         -5    1    5    5    0  502  0.78544826976E+01 -0.42255979108E+02  0.15184222298E+03  0.15787783679E+03  0.47000000000E+01 0.  1.
         11    1    6    6    0    0  0.12135536204E+02  0.14758241378E+02 -0.19811194953E+01  0.19209418575E+02  0.00000000000E+00 0. -1.
        -12    1    6    6    0    0  0.14696407571E+03 -0.13418313701E+02  0.13745919216E+03  0.20167677159E+03  0.00000000000E+00 0.  1.
<mgrwt>
<rscale>  2 0.24592886E+03</rscale>
<asrwt>0</asrwt>
<pdfrwt beam="1">  1       21 0.63625673E-01 0.24679797E+03</pdfrwt>
<pdfrwt beam="2">  1       21 0.35317037E-01 0.24679797E+03</pdfrwt>
<totfact> 0.17112877E+04</totfact>
</mgrwt>
</event>
<event>
12    1  0.1071811E-001  0.2344910E+03  0.7546771E-02  0.1123538E+00
         21   -1    0    0  501  502  0.00000000000E+00  0.00000000000E+00  0.59563471000E+03  0.59563471000E+03  0.00000000000E+00 0.  1.
         21   -1    0    0  502  503 -0.00000000000E+00 -0.00000000000E+00 -0.16695539650E+03  0.16695539650E+03  0.00000000000E+00 0. -1.
         -6    2    1    2    0  503 -0.13179057773E+03 -0.86889449439E+02 -0.40653525962E+02  0.23798890764E+03  0.17339976408E+03 0.  0.
        -24    2    3    3    0    0 -0.47264020127E+02 -0.94293720898E+02  0.18142343583E+02  0.13465156467E+03  0.81711112087E+02 0.  0.
          6    2    1    2  501    0  0.13179057773E+03  0.86889449439E+02  0.46933283946E+03  0.52460119886E+03  0.17324713806E+03 0.  0.
         24    2    5    5    0    0  0.82069112500E+02  0.14835724770E+02  0.38845693020E+03  0.40532435265E+03  0.80209764202E+02 0.  0.
          5    1    5    5  501    0  0.49721465231E+02  0.72053724669E+02  0.80875909262E+02  0.11927684621E+03  0.47000000000E+01 0. -1.
        -13    1    6    6    0    0  0.38401233557E+02 -0.28443615415E+02  0.10631616513E+03  0.11656251955E+03  0.00000000000E+00 0.  1.
         14    1    6    6    0    0  0.43667878943E+02  0.43279340185E+02  0.28214076507E+03  0.28876183309E+03  0.00000000000E+00 0. -1.
         -5    1    3    3    0  503 -0.84526557605E+02  0.74042714586E+01 -0.58795869545E+02  0.10333734297E+03  0.47000000000E+01 0.  1.
         13    1    4    4    0    0  0.12876984479E+02 -0.37013829330E+02 -0.19139617601E+02  0.43613819517E+02  0.00000000000E+00 0. -1.
        -14    1    4    4    0    0 -0.60141004606E+02 -0.57279891568E+02  0.37281961184E+02  0.91037745154E+02  0.00000000000E+00 0.  1.
<mgrwt>
<rscale>  2 0.23446275E+03</rscale>
<asrwt>0</asrwt>
<pdfrwt beam="1">  1       21 0.91636108E-01 0.23449096E+03</pdfrwt>
<pdfrwt beam="2">  1       21 0.25685446E-01 0.23449096E+03</pdfrwt>
<totfact> 0.14122952E+04</totfact>
</mgrwt>
</event>
<event>
12    1  0.1071811E-001  0.1932280E+03  0.7546771E-02  0.1155719E+00
         21   -1    0    0  501  502  0.00000000000E+00  0.00000000000E+00  0.96562285662E+03  0.96562285662E+03  0.00000000000E+00 0. -1.
         21   -1    0    0  502  503 -0.00000000000E+00 -0.00000000000E+00 -0.10227352154E+03  0.10227352154E+03  0.00000000000E+00 0.  1.
         -6    2    1    2    0  503 -0.80291974485E+02 -0.27041621386E+02  0.10440288560E+02  0.19350983930E+03  0.17366349020E+03 0.  0.
        -24    2    3    3    0    0 -0.12231786278E+03 -0.55538304723E+01  0.84489904396E+01  0.14603399583E+03  0.79133039320E+02 0.  0.
          6    2    1    2  501    0  0.80291974485E+02  0.27041621386E+02  0.85290904652E+03  0.87438653885E+03  0.17297377614E+03 0.  0.
         24    2    5    5    0    0  0.40043939567E+02  0.64807597807E+02  0.74656501939E+03  0.75448109528E+03  0.77967000324E+02 0.  0.
          5    1    5    5  501    0  0.40248034918E+02 -0.37765976421E+02  0.10634402713E+03  0.11990544356E+03  0.47000000000E+01 0. -1.
        -11    1    6    6    0    0  0.16247083820E+02  0.73946891974E+00  0.25903455054E+02  0.30586002202E+02  0.00000000000E+00 0.  1.
         12    1    6    6    0    0  0.23796855747E+02  0.64068128888E+02  0.72066156433E+03  0.72389509308E+03  0.00000000000E+00 0. -1.
         -5    1    3    3    0  503  0.42025888293E+02 -0.21487790914E+02  0.19912981207E+01  0.47475843472E+02  0.47000000000E+01 0.  1.
         11    1    4    4    0    0 -0.12670753781E+03  0.97994197512E+01  0.16496881392E+02  0.12815215901E+03  0.00000000000E+00 0. -1.
        -12    1    4    4    0    0  0.43896750271E+01 -0.15353250223E+02 -0.80478909522E+01  0.17881836820E+02  0.00000000000E+00 0.  1.
<mgrwt>
<rscale>  2 0.19307290E+03</rscale>
<asrwt>0</asrwt>
<pdfrwt beam="1">  1       21 0.14855736E+00 0.19322800E+03</pdfrwt>
<pdfrwt beam="2">  1       21 0.15734389E-01 0.19322800E+03</pdfrwt>
<totfact> 0.11018575E+04</totfact>
</mgrwt>
</event>
<event>
12    1  0.1071811E-001  0.2326106E+03  0.7546771E-02  0.1125425E+00
         21   -1    0    0  503  502  0.00000000000E+00  0.00000000000E+00  0.15654937839E+04  0.15654937839E+04  0.00000000000E+00 0.  1.
         21   -1    0    0  501  503 -0.00000000000E+00 -0.00000000000E+00 -0.71547979167E+02  0.71547979167E+02  0.00000000000E+00 0.  1.
          6    2    1    2  501    0 -0.14017242907E+03 -0.59765170477E+02  0.15170352667E+03  0.27479287008E+03  0.17110516056E+03 0.  0.
         24    2    3    3    0    0 -0.16879311397E+03 -0.35162808803E+02  0.13234287127E+03  0.23211565389E+03  0.81458595351E+02 0.  0.
         -6    2    1    2    0  502  0.14017242907E+03  0.59765170477E+02  0.13422422781E+04  0.13622488930E+04  0.17574847924E+03 0.  0.
        -24    2    5    5    0    0  0.10176114161E+01  0.46330607694E+02  0.54488005621E+03  0.55271004055E+03  0.80290426187E+02 0.  0.
          5    1    3    3  501    0  0.28620684906E+02 -0.24602361674E+02  0.19360655398E+02  0.42677216191E+02  0.47000000000E+01 0. -1.
        -11    1    4    4    0    0 -0.57819076654E+02 -0.79500646484E+01  0.14698177413E+01  0.58381585429E+02  0.00000000000E+00 0.  1.
         12    1    4    4    0    0 -0.11097403732E+03 -0.27212744155E+02  0.13087305353E+03  0.17373406846E+03  0.00000000000E+00 0. -1.
         -5    1    5    5    0  502  0.13915481765E+03  0.13434562783E+02  0.79736222185E+03  0.80953885242E+03  0.47000000000E+01 0.  1.
         11    1    6    6    0    0 -0.25768183528E+01 -0.97083560957E+01  0.78394847122E+01  0.12741651834E+02  0.00000000000E+00 0. -1.
        -12    1    6    6    0    0  0.35944297689E+01  0.56038963790E+02  0.53704057149E+03  0.53996838872E+03  0.00000000000E+00 0.  1.
<mgrwt>
<rscale>  2 0.23173369E+03</rscale>
<asrwt>0</asrwt>
<pdfrwt beam="1">  1       21 0.24084517E+00 0.23261065E+03</pdfrwt>
<pdfrwt beam="2">  1       21 0.11007383E-01 0.23261065E+03</pdfrwt>
<totfact> 0.49640157E+03</totfact>
</mgrwt>
</event>
<event>
12    1  0.1071811E-001  0.1742124E+03  0.7546771E-02  0.1173688E+00
         21   -1    0    0  501  502  0.00000000000E+00  0.00000000000E+00  0.56613279062E+02  0.56613279062E+02  0.00000000000E+00 0.  1.
         21   -1    0    0  502  503 -0.00000000000E+00 -0.00000000000E+00 -0.59011040956E+03  0.59011040956E+03  0.00000000000E+00 0.  1.
         -6    2    1    2    0  503  0.60185998516E+01 -0.15445447398E+02 -0.36591739147E+03  0.40499463819E+03  0.17277249258E+03 0.  0.
        -24    2    3    3    0    0 -0.24396049124E+02 -0.16325544601E+02 -0.36406424928E+03  0.37415068288E+03  0.81143485719E+02 0.  0.
          6    2    1    2  501    0 -0.60185998516E+01  0.15445447398E+02 -0.16757973902E+03  0.24172905043E+03  0.17342196948E+03 0.  0.
         24    2    5    5    0    0 -0.11258712922E+02  0.59033672562E+02 -0.16590739321E+03  0.19754445019E+03  0.88807733701E+02 0.  0.
          5    1    5    5  501    0  0.52401130706E+01 -0.43588225164E+02 -0.16723458152E+01  0.44184600241E+02  0.47000000000E+01 0. -1.
        -11    1    6    6    0    0 -0.39059487644E+02  0.32467220524E+02 -0.14529101571E+03  0.15391310285E+03  0.00000000000E+00 0.  1.
         12    1    6    6    0    0  0.27800774721E+02  0.26566452038E+02 -0.20616377498E+02  0.43631347333E+02  0.00000000000E+00 0. -1.
         -5    1    3    3    0  503  0.30414648975E+02  0.88009720333E+00 -0.18531421906E+01  0.30843955313E+02  0.47000000000E+01 0.  1.
         11    1    4    4    0    0 -0.19345235141E+02  0.31793841814E+02 -0.13526018709E+03  0.14028686579E+03  0.00000000000E+00 0. -1.
        -12    1    4    4    0    0 -0.50508139826E+01 -0.48119386415E+02 -0.22880406219E+03  0.23386381709E+03  0.00000000000E+00 0.  1.
<mgrwt>
<rscale>  2 0.17405056E+03</rscale>
<asrwt>0</asrwt>
<pdfrwt beam="1">  1       21 0.87097353E-02 0.17421241E+03</pdfrwt>
<pdfrwt beam="2">  1       21 0.90786216E-01 0.17421241E+03</pdfrwt>
<totfact> 0.10730756E+05</totfact>
</mgrwt>
</event>
<event>
12    1  0.1071811E-001  0.2500958E+03  0.7546771E-02  0.1113330E+00
         21   -1    0    0  503  502  0.00000000000E+00  0.00000000000E+00  0.16035640058E+03  0.16035640058E+03  0.00000000000E+00 0. -1.
         21   -1    0    0  501  503 -0.00000000000E+00 -0.00000000000E+00 -0.44646586573E+03  0.44646586573E+03  0.00000000000E+00 0. -1.
          6    2    1    2  501    0 -0.39300191688E+02  0.17577264796E+03 -0.25183930440E+03  0.35492382926E+03  0.17351472705E+03 0.  0.
         24    2    3    3    0    0 -0.92208073567E+02  0.10190545789E+03 -0.15291292957E+03  0.22052098938E+03  0.79750182108E+02 0.  0.
         -6    2    1    2    0  502  0.39300191688E+02 -0.17577264796E+03 -0.34270160759E+02  0.25189843705E+03  0.17273635932E+03 0.  0.
        -24    2    5    5    0    0  0.10439301369E+02 -0.19551702984E+03 -0.13385065963E+02  0.21089759815E+03  0.77218838017E+02 0.  0.
          5    1    3    3  501    0  0.52907881880E+02  0.73867190068E+02 -0.98926374824E+02  0.13440283989E+03  0.47000000000E+01 0. -1.
        -11    1    4    4    0    0 -0.82802342731E+02  0.34082586076E+02 -0.75059074395E+02  0.11684055496E+03  0.00000000000E+00 0.  1.
         12    1    4    4    0    0 -0.94057308360E+01  0.67822871815E+02 -0.77853855178E+02  0.10368043441E+03  0.00000000000E+00 0. -1.
         -5    1    5    5    0  502  0.28860890319E+02  0.19744381879E+02 -0.20885094796E+02  0.41000838899E+02  0.47000000000E+01 0.  1.
         13    1    6    6    0    0  0.21576346902E+01 -0.15228337323E+03  0.22695768990E+02  0.15398045031E+03  0.00000000000E+00 0. -1.
        -14    1    6    6    0    0  0.82816666787E+01 -0.43233656613E+02 -0.36080834953E+02  0.56917147838E+02  0.00000000000E+00 0.  1.
<mgrwt>
<rscale>  2 0.24996080E+03</rscale>
<asrwt>0</asrwt>
<pdfrwt beam="1">  1       21 0.24670216E-01 0.25009576E+03</pdfrwt>
<pdfrwt beam="2">  1       21 0.68687056E-01 0.25009576E+03</pdfrwt>
<totfact> 0.29148031E+04</totfact>
</mgrwt>
</event>
<event>
12    1  0.1071811E-001  0.2124992E+03  0.7546771E-02  0.1139816E+00
         21   -1    0    0  503  502  0.00000000000E+00  0.00000000000E+00  0.72651229262E+02  0.72651229262E+02  0.00000000000E+00 0.  1.
         21   -1    0    0  501  503 -0.00000000000E+00 -0.00000000000E+00 -0.62279259768E+03  0.62279259768E+03  0.00000000000E+00 0.  1.
          6    2    1    2  501    0 -0.20058071574E+02  0.12102960980E+03 -0.24500530609E+03  0.32360527158E+03  0.17216933263E+03 0.  0.
         24    2    3    3    0    0 -0.66046888510E+02  0.11199756811E+03 -0.13567296159E+03  0.20455821948E+03  0.80816247782E+02 0.  0.
         -6    2    1    2    0  502  0.20058071574E+02 -0.12102960980E+03 -0.30513606233E+03  0.37183855536E+03  0.17350908344E+03 0.  0.
        -24    2    5    5    0    0  0.66295442644E+02 -0.12338757909E+03 -0.26734559068E+03  0.31189137653E+03  0.78631962380E+02 0.  0.
          5    1    3    3  501    0  0.45988816936E+02  0.90320416894E+01 -0.10933234450E+03  0.11904705210E+03  0.47000000000E+01 0. -1.
        -11    1    4    4    0    0 -0.79988786641E+02  0.67302888100E+02 -0.10734750283E+03  0.14983781599E+03  0.00000000000E+00 0.  1.
         12    1    4    4    0    0  0.13941898132E+02  0.44694680010E+02 -0.28325458759E+02  0.54720403495E+02  0.00000000000E+00 0. -1.
         -5    1    5    5    0  502 -0.46237371070E+02  0.23579692891E+01 -0.37790471646E+02  0.59947178831E+02  0.47000000000E+01 0.  1.
         13    1    6    6    0    0  0.21488559717E+02 -0.46251394775E+02 -0.32002209654E+02  0.60208729767E+02  0.00000000000E+00 0. -1.
        -14    1    6    6    0    0  0.44806882927E+02 -0.77136184313E+02 -0.23534338103E+03  0.25168264676E+03  0.00000000000E+00 0.  1.
<mgrwt>
<rscale>  2 0.21222551E+03</rscale>
<asrwt>0</asrwt>
<pdfrwt beam="1">  1       21 0.11177112E-01 0.21249916E+03</pdfrwt>
<pdfrwt beam="2">  1       21 0.95814246E-01 0.21249916E+03</pdfrwt>
<totfact> 0.59909167E+04</totfact>
</mgrwt>
</event>
<event>
11    1  0.1071811E-001  0.1954727E+03  0.7546771E-02  0.1153784E+00
         21   -1    0    0  501  502  0.00000000000E+00  0.00000000000E+00  0.24009982250E+03  0.24009982250E+03  0.00000000000E+00 0. -1.
         21   -1    0    0  502  503 -0.00000000000E+00 -0.00000000000E+00 -0.15870865768E+03  0.15870865768E+03  0.00000000000E+00 0. -1.
         -6    2    1    2    0  503 -0.85807032390E+02  0.26968791343E+02  0.47633069168E+02  0.20044214463E+03  0.17267883932E+03 0.  0.
        -24    2    3    3    0    0 -0.49023112649E+02  0.84267934693E+02  0.28874473779E+02  0.12965921250E+03  0.80457602236E+02 0.  0.
          6    2    1    2  501    0  0.85807032390E+02 -0.26968791343E+02  0.33758095656E+02  0.19836633555E+03  0.17354950747E+03 0.  0.
          5    1    5    5  501    0  0.53740792585E+02  0.64413950000E+02 -0.25264295112E+01  0.84057733661E+02  0.47000000000E+01 0. -1.
        -13    1    5    5    0    0 -0.10671207540E+02 -0.10958401622E+02  0.13561987257E+02  0.20442327041E+02  0.00000000000E+00 0.  1.
         14    1    5    5    0    0  0.42737447345E+02 -0.80424339720E+02  0.22722537910E+02  0.93866274850E+02  0.00000000000E+00 0. -1.
         -5    1    3    3    0  503 -0.36783919740E+02 -0.57299143350E+02  0.18758595389E+02  0.70782932131E+02  0.47000000000E+01 0.  1.
         11    1    4    4    0    0 -0.28969084134E+02  0.44201154208E+01 -0.18518088152E+02  0.34665037786E+02  0.00000000000E+00 0. -1.
        -12    1    4    4    0    0 -0.20054028515E+02  0.79847819273E+02  0.47392561931E+02  0.94994174709E+02  0.00000000000E+00 0.  1.
<mgrwt>
<rscale>  2 0.19527931E+03</rscale>
<asrwt>0</asrwt>
<pdfrwt beam="1">  1       21 0.36938434E-01 0.19547275E+03</pdfrwt>
<pdfrwt beam="2">  1       21 0.24416716E-01 0.19547275E+03</pdfrwt>
<totfact> 0.11187449E+05</totfact>
</mgrwt>
</event>
<event>
12    1  0.1071811E-001  0.1739995E+03  0.7546771E-02  0.1174127E+00
         21   -1    0    0  501  502  0.00000000000E+00  0.00000000000E+00  0.72216186031E+03  0.72216186031E+03  0.00000000000E+00 0. -1.
         21   -1    0    0  502  503 -0.00000000000E+00 -0.00000000000E+00 -0.42552633438E+02  0.42552633438E+02  0.00000000000E+00 0. -1.
         -6    2    1    2    0  503  0.10522808047E+02 -0.18984597153E+02  0.39974163657E+03  0.43596927706E+03  0.17264034902E+03 0.  0.
        -24    2    3    3    0    0  0.50321664947E+00  0.38930674180E+02  0.33787156991E+03  0.35050252320E+03  0.84728805021E+02 0.  0.
          6    2    1    2  501    0 -0.10522808047E+02  0.18984597153E+02  0.27986759030E+03  0.32874521669E+03  0.17110349201E+03 0.  0.
         24    2    5    5    0    0  0.14635415842E+02  0.67579355585E+02  0.12165305680E+03  0.16126890378E+03  0.80168749514E+02 0.  0.
          5    1    5    5  501    0 -0.25158223889E+02 -0.48594758432E+02  0.15821453350E+03  0.16747631291E+03  0.47000000000E+01 0. -1.
        -13    1    6    6    0    0  0.92089942436E+01  0.75762546342E+02  0.12838990863E+03  0.14936109815E+03  0.00000000000E+00 0.  1.
         14    1    6    6    0    0  0.54264215980E+01 -0.81831907565E+01 -0.67368518277E+01  0.11907805628E+02  0.00000000000E+00 0. -1.
         -5    1    3    3    0  503  0.10019591398E+02 -0.57915271333E+02  0.61870066662E+02  0.85466753853E+02  0.47000000000E+01 0.  1.
         11    1    4    4    0    0 -0.84653154216E+01  0.38167806850E+02  0.33916353651E+03  0.34140935479E+03  0.00000000000E+00 0. -1.
        -12    1    4    4    0    0  0.89685320710E+01  0.76286732969E+00 -0.12919665963E+01  0.90931684114E+01  0.00000000000E+00 0.  1.
<mgrwt>
<rscale>  2 0.17361708E+03</rscale>
<asrwt>0</asrwt>
<pdfrwt beam="1">  1       21 0.11110182E+00 0.17399952E+03</pdfrwt>
<pdfrwt beam="2">  1       21 0.65465595E-02 0.17399952E+03</pdfrwt>
<totfact> 0.10908258E+05</totfact>
</mgrwt>
</event>
<event>
12    1  0.1071811E-001  0.1957753E+03  0.7546771E-02  0.1153526E+00
         21   -1    0    0  501  502  0.00000000000E+00  0.00000000000E+00  0.58078925186E+03  0.58078925186E+03  0.00000000000E+00 0. -1.
         21   -1    0    0  502  503 -0.00000000000E+00 -0.00000000000E+00 -0.26346776046E+03  0.26346776046E+03  0.00000000000E+00 0. -1.
         -6    2    1    2    0  503  0.89797700682E+02 -0.12136711024E+02 -0.20712559967E+03  0.28445999567E+03  0.17264283448E+03 0.  0.
        -24    2    3    3    0    0  0.16003641723E+02  0.62887191521E+01 -0.23332633343E+02  0.85495164391E+02  0.80432249867E+02 0.  0.
          6    2    1    2  501    0 -0.89797700682E+02  0.12136711024E+02  0.52444709107E+03  0.55979701665E+03  0.17354256456E+03 0.  0.
         24    2    5    5    0    0 -0.84837134285E+02 -0.18066516518E+02  0.18820859149E+03  0.22213555782E+03  0.79987460065E+02 0.  0.
          5    1    5    5  501    0 -0.49605663974E+01  0.30203227543E+02  0.33623849959E+03  0.33766145883E+03  0.47000000000E+01 0. -1.
        -13    1    6    6    0    0 -0.22125988523E+01 -0.29394369802E+02  0.81738039087E+02  0.86890917843E+02  0.00000000000E+00 0.  1.
         14    1    6    6    0    0 -0.82624535432E+02  0.11327853284E+02  0.10647055240E+03  0.13524463998E+03  0.00000000000E+00 0. -1.
         -5    1    3    3    0  503  0.73794058959E+02 -0.18425430176E+02 -0.18379296633E+03  0.19896483128E+03  0.47000000000E+01 0.  1.
         11    1    4    4    0    0  0.97087979890E+01 -0.84374723366E+01 -0.51506081481E+02  0.53087928264E+02  0.00000000000E+00 0. -1.
        -12    1    4    4    0    0  0.62948437341E+01  0.14726191489E+02  0.28173448138E+02  0.32407236127E+02  0.00000000000E+00 0.  1.
<mgrwt>
<rscale>  2 0.19557567E+03</rscale>
<asrwt>0</asrwt>
<pdfrwt beam="1">  1       21 0.89352192E-01 0.19577525E+03</pdfrwt>
<pdfrwt beam="2">  1       21 0.40533502E-01 0.19577525E+03</pdfrwt>
<totfact> 0.62500083E+03</totfact>
</mgrwt>
</event>
<event>
12    1  0.1071811E-001  0.2754524E+03  0.7546771E-02  0.1098232E+00
         21   -1    0    0  503  502  0.00000000000E+00  0.00000000000E+00  0.35747126372E+03  0.35747126372E+03  0.00000000000E+00 0.  1.
         21   -1    0    0  501  503 -0.00000000000E+00 -0.00000000000E+00 -0.23626253596E+03  0.23626253596E+03  0.00000000000E+00 0. -1.
          6    2    1    2  501    0 -0.15313432860E+03 -0.14966441840E+03 -0.34416233382E+02  0.27735880538E+03  0.17289843570E+03 0.  0.
         24    2    3    3    0    0 -0.11122842809E+02 -0.45905454816E+02 -0.42671872010E+02  0.10122411206E+03  0.78704534731E+02 0.  0.
         -6    2    1    2    0  502  0.15313432860E+03  0.14966441840E+03  0.15562496114E+03  0.31637499430E+03  0.17327564097E+03 0.  0.
        -24    2    5    5    0    0  0.16819891958E+03  0.10507990365E+03  0.83483724072E+02  0.23011278390E+03  0.81545683086E+02 0.  0.
          5    1    3    3  501    0 -0.14201148579E+03 -0.10375896359E+03  0.82556386275E+01  0.17613469332E+03  0.47000000000E+01 0. -1.
        -11    1    4    4    0    0 -0.24346826706E+02 -0.59743014516E+02 -0.12838430711E+02  0.65778575974E+02  0.00000000000E+00 0.  1.
         12    1    4    4    0    0  0.13223983896E+02  0.13837559700E+02 -0.29833441299E+02  0.35445536084E+02  0.00000000000E+00 0. -1.
         -5    1    5    5    0  502 -0.15064590978E+02  0.44584514755E+02  0.72141237071E+02  0.86262210401E+02  0.47000000000E+01 0.  1.
         13    1    6    6    0    0  0.56761235181E+02 -0.28161501484E+01  0.38375318754E+02  0.68574292636E+02  0.00000000000E+00 0. -1.
        -14    1    6    6    0    0  0.11143768439E+03  0.10789605380E+03  0.45108405318E+02  0.16153849126E+03  0.00000000000E+00 0.  1.
<mgrwt>
<rscale>  2 0.27539307E+03</rscale>
<asrwt>0</asrwt>
<pdfrwt beam="1">  1       21 0.54995579E-01 0.27545237E+03</pdfrwt>
<pdfrwt beam="2">  1       21 0.36348082E-01 0.27545237E+03</pdfrwt>
<totfact> 0.21833269E+04</totfact>
</mgrwt>
</event>
<event>
12    1  0.1071811E-001  0.4002298E+03  0.7546771E-02  0.1043726E+00
         21   -1    0    0  501  502  0.00000000000E+00  0.00000000000E+00  0.45935244748E+03  0.45935244748E+03  0.00000000000E+00 0.  1.
         21   -1    0    0  502  503 -0.00000000000E+00 -0.00000000000E+00 -0.72873793909E+03  0.72873793909E+03  0.00000000000E+00 0.  1.
         -6    2    1    2    0  503  0.36085029320E+03 -0.14154063062E+02  0.29445723665E+03  0.49664079316E+03  0.17185383792E+03 0.  0.
        -24    2    3    3    0    0  0.37171523304E+03 -0.56792267128E+00  0.27045775933E+03  0.46662921139E+03  0.80142899480E+02 0.  0.
          6    2    1    2  501    0 -0.36085029320E+03  0.14154063062E+02 -0.56384272826E+03  0.69144959342E+03  0.17254172372E+03 0.  0.
         24    2    5    5    0    0 -0.21080723174E+03  0.67765557679E+02 -0.28095273107E+03  0.36674056496E+03  0.80822924568E+02 0.  0.
          5    1    5    5  501    0 -0.15004306146E+03 -0.53611494616E+02 -0.28288999719E+03  0.32470902845E+03  0.47000000000E+01 0. -1.
        -13    1    6    6    0    0 -0.21023867609E+03  0.48312628095E+02 -0.26404374127E+03  0.34095968715E+03  0.00000000000E+00 0.  1.
         14    1    6    6    0    0 -0.56855564644E+00  0.19452929583E+02 -0.16908989801E+02  0.25780877817E+02  0.00000000000E+00 0. -1.
         -5    1    3    3    0  503 -0.10864939835E+02 -0.13586140391E+02  0.23999477319E+02  0.30011581763E+02  0.47000000000E+01 0.  1.
         11    1    4    4    0    0  0.15350914463E+03  0.35051700816E+02  0.90956422317E+02  0.18184265170E+03  0.00000000000E+00 0. -1.
        -12    1    4    4    0    0  0.21820608840E+03 -0.35619623487E+02  0.17950133701E+03  0.28478655969E+03  0.00000000000E+00 0.  1.
<mgrwt>
<rscale>  2 0.40015579E+03</rscale>
<asrwt>0</asrwt>
<pdfrwt beam="1">  1       21 0.70669608E-01 0.40022983E+03</pdfrwt>
<pdfrwt beam="2">  1       21 0.11211353E+00 0.40022983E+03</pdfrwt>
<totfact> 0.98171167E+02</totfact>
</mgrwt>
</event>
<event>
12    1  0.1071811E-001  0.1762133E+03  0.7546771E-02  0.1171556E+00
         21   -1    0    0  503  502  0.00000000000E+00  0.00000000000E+00  0.10297127310E+03  0.10297127310E+03  0.00000000000E+00 0.  1.
         21   -1    0    0  501  503 -0.00000000000E+00 -0.00000000000E+00 -0.48693100786E+03  0.48693100786E+03  0.00000000000E+00 0. -1.
          6    2    1    2  501    0 -0.17515241212E+01  0.32300517282E+02 -0.37404395625E+03  0.41341019658E+03  0.17306853605E+03 0.  0.
         24    2    3    3    0    0  0.49970970672E+01  0.63923519142E+02 -0.86162723031E+02  0.12368057680E+03  0.61332560346E+02 0.  0.
         -6    2    1    2    0  502  0.17515241212E+01 -0.32300517282E+02 -0.99157785061E+01  0.17649208439E+03  0.17321876901E+03 0.  0.
        -24    2    5    5    0    0  0.40843798179E+02  0.22446517343E+02 -0.42466023527E+02  0.10161183238E+03  0.79683996724E+02 0.  0.
          5    1    3    3  501    0 -0.67486211884E+01 -0.31623001860E+02 -0.28788123322E+03  0.28972961978E+03  0.47000000000E+01 0. -1.
        -11    1    4    4    0    0 -0.23481777838E+02  0.25756571351E+02 -0.14750658959E+02  0.37846754126E+02  0.00000000000E+00 0.  1.
         12    1    4    4    0    0  0.28478874905E+02  0.38166947791E+02 -0.71412064072E+02  0.85833822672E+02  0.00000000000E+00 0. -1.
         -5    1    5    5    0  502 -0.39092274058E+02 -0.54747034625E+02  0.32550245021E+02  0.74880252017E+02  0.47000000000E+01 0.  1.
         11    1    6    6    0    0 -0.18082774123E+02 -0.13949797463E+02 -0.13566374822E+02  0.26563698821E+02  0.00000000000E+00 0. -1.
        -12    1    6    6    0    0  0.58926572302E+02  0.36396314806E+02 -0.28899648704E+02  0.75048133554E+02  0.00000000000E+00 0.  1.
<mgrwt>
<rscale>  2 0.17617639E+03</rscale>
<asrwt>0</asrwt>
<pdfrwt beam="1">  1       21 0.15841734E-01 0.17621332E+03</pdfrwt>
<pdfrwt beam="2">  1       21 0.74912462E-01 0.17621332E+03</pdfrwt>
<totfact> 0.57039250E+04</totfact>
</mgrwt>
</event>
<event>
12    1  0.1071811E-001  0.2351595E+03  0.7546771E-02  0.1123531E+00
         21   -1    0    0  503  502  0.00000000000E+00  0.00000000000E+00  0.18412584528E+04  0.18412584528E+04  0.00000000000E+00 0. -1.
         21   -1    0    0  501  503 -0.00000000000E+00 -0.00000000000E+00 -0.31944184572E+02  0.31944184572E+02  0.00000000000E+00 0. -1.
          6    2    1    2  501    0  0.15565508824E+03  0.15107746261E+01  0.65066691779E+03  0.69093207717E+03  0.17259463612E+03 0.  0.
         24    2    3    3    0    0  0.14966013630E+03  0.45601000651E+02  0.40702316937E+03  0.44321398411E+03  0.79329487944E+02 0.  0.
         -6    2    1    2    0  502 -0.15565508824E+03 -0.15107746261E+01  0.11586473505E+04  0.11822705602E+04  0.17626459065E+03 0.  0.
        -24    2    5    5    0    0 -0.17984275832E+03  0.25169066423E+02  0.96735537672E+03  0.98756163254E+03  0.80775327787E+02 0.  0.
          5    1    3    3  501    0  0.59949519426E+01 -0.44090226024E+02  0.24364374842E+03  0.24771809305E+03  0.47000000000E+01 0. -1.
        -11    1    4    4    0    0 -0.85246860157E+01  0.10232197124E+02  0.31993270439E+02  0.34654544911E+02  0.00000000000E+00 0.  1.
         12    1    4    4    0    0  0.15818482231E+03  0.35368803527E+02  0.37502989893E+03  0.40855943920E+03  0.00000000000E+00 0. -1.
         -5    1    5    5    0  502  0.24187670081E+02 -0.26679841049E+02  0.19129197376E+03  0.19470892770E+03  0.47000000000E+01 0.  1.
         11    1    6    6    0    0 -0.75262663467E+02  0.45784715759E+02  0.34068815767E+03  0.35189363377E+03  0.00000000000E+00 0. -1.
        -12    1    6    6    0    0 -0.10458009485E+03 -0.20615649336E+02  0.62666721905E+03  0.63566799878E+03  0.00000000000E+00 0.  1.
<mgrwt>
<rscale>  2 0.23447197E+03</rscale>
<asrwt>0</asrwt>
<pdfrwt beam="1">  1       21 0.28327045E+00 0.23515951E+03</pdfrwt>
<pdfrwt beam="2">  1       21 0.49144914E-02 0.23515951E+03</pdfrwt>
<totfact> 0.11338436E+04</totfact>
</mgrwt>
</event>
<event>
12    1  0.1071811E-001  0.1726927E+03  0.7546771E-02  0.1175843E+00
         21   -1    0    0  501  502  0.00000000000E+00  0.00000000000E+00  0.13608380788E+03  0.13608380788E+03  0.00000000000E+00 0.  1.
         21   -1    0    0  502  503 -0.00000000000E+00 -0.00000000000E+00 -0.55708077861E+03  0.55708077861E+03  0.00000000000E+00 0.  1.
         -6    2    1    2    0  503  0.19711025664E+02  0.14140284211E+02 -0.48122811261E+03  0.51026963298E+03  0.16794680648E+03 0.  0.
        -24    2    3    3    0    0 -0.11801954998E+02 -0.51660867373E+02 -0.26262660962E+03  0.27976677701E+03  0.80551735423E+02 0.  0.
          6    2    1    2  501    0 -0.19711025664E+02 -0.14140284211E+02  0.60231141881E+02  0.18289495352E+03  0.17098041233E+03 0.  0.
         24    2    5    5    0    0  0.10764450876E+02 -0.69323521674E+02  0.22527319921E+02  0.10929052051E+03  0.80717492969E+02 0.  0.
          5    1    5    5  501    0 -0.30475476541E+02  0.55183237463E+02  0.37703821960E+02  0.73604433003E+02  0.47000000000E+01 0. -1.
        -11    1    6    6    0    0 -0.27911875331E+02 -0.29216537525E+02 -0.13890260275E+02  0.42727253363E+02  0.00000000000E+00 0.  1.
         12    1    6    6    0    0  0.38676326207E+02 -0.40106984150E+02  0.36417580195E+02  0.66563267151E+02  0.00000000000E+00 0. -1.
         -5    1    3    3    0  503  0.31512980663E+02  0.65801151584E+02 -0.21860150299E+03  0.23050285597E+03  0.47000000000E+01 0.  1.
         13    1    4    4    0    0 -0.26766817414E+02  0.13153924092E+02 -0.76267900447E+02  0.81891885264E+02  0.00000000000E+00 0. -1.
        -14    1    4    4    0    0  0.14964862415E+02 -0.64814791465E+02 -0.18635870917E+03  0.19787489175E+03  0.00000000000E+00 0.  1.
<mgrwt>
<rscale>  2 0.17193702E+03</rscale>
<asrwt>0</asrwt>
<pdfrwt beam="1">  1       21 0.20935970E-01 0.17269271E+03</pdfrwt>
<pdfrwt beam="2">  1       21 0.85704736E-01 0.17269271E+03</pdfrwt>
<totfact> 0.25208387E+04</totfact>
</mgrwt>
</event>
<event>
12    1  0.1071811E-001  0.2016009E+03  0.7546771E-02  0.1148710E+00
         21   -1    0    0  503  502  0.00000000000E+00  0.00000000000E+00  0.18623132087E+03  0.18623132087E+03  0.00000000000E+00 0.  1.
         21   -1    0    0  501  503 -0.00000000000E+00 -0.00000000000E+00 -0.29022694286E+03  0.29022694286E+03  0.00000000000E+00 0. -1.
          6    2    1    2  501    0  0.89091123882E+02  0.46392968247E+02 -0.17212029168E+03  0.26508171468E+03  0.17479526537E+03 0.  0.
         24    2    3    3    0    0  0.24440429795E+02  0.19948947719E+02 -0.82395710310E+01  0.86874029473E+02  0.80522738046E+02 0.  0.
         -6    2    1    2    0  502 -0.89091123882E+02 -0.46392968247E+02  0.68124669693E+02  0.21137654904E+03  0.17305935111E+03 0.  0.
        -24    2    5    5    0    0  0.16902039294E+02 -0.77462812004E+00  0.46466314224E+02  0.93874387542E+02  0.79793504108E+02 0.  0.
          5    1    3    3  501    0  0.64650694087E+02  0.26444020528E+02 -0.16388072065E+03  0.17820768521E+03  0.47000000000E+01 0. -1.
        -11    1    4    4    0    0 -0.11994931689E+02  0.40107829797E+02  0.71724502605E+01  0.42473055459E+02  0.00000000000E+00 0.  1.
         12    1    4    4    0    0  0.36435361484E+02 -0.20158882078E+02 -0.15412021291E+02  0.44400974014E+02  0.00000000000E+00 0. -1.
         -5    1    5    5    0  502 -0.10599316318E+03 -0.45618340127E+02  0.21658355468E+02  0.11750216150E+03  0.47000000000E+01 0.  1.
         13    1    6    6    0    0 -0.12723822991E+02 -0.34125802603E+02  0.15563068016E+02  0.39606504022E+02  0.00000000000E+00 0. -1.
        -14    1    6    6    0    0  0.29625862285E+02  0.33351174483E+02  0.30903246208E+02  0.54267883520E+02  0.00000000000E+00 0.  1.
<mgrwt>
<rscale>  2 0.20122403E+03</rscale>
<asrwt>0</asrwt>
<pdfrwt beam="1">  1       21 0.28650973E-01 0.20160089E+03</pdfrwt>
<pdfrwt beam="2">  1       21 0.44650299E-01 0.20160089E+03</pdfrwt>
<totfact> 0.55873934E+04</totfact>
</mgrwt>
</event>
<event>
12    1  0.1071811E-001  0.1874873E+03  0.7546771E-02  0.1160890E+00
         21   -1    0    0  503  502  0.00000000000E+00  0.00000000000E+00  0.57268773334E+03  0.57268773334E+03  0.00000000000E+00 0.  1.
         21   -1    0    0  501  503 -0.00000000000E+00 -0.00000000000E+00 -0.62129992727E+02  0.62129992727E+02  0.00000000000E+00 0.  1.
          6    2    1    2  501    0 -0.16199908616E+02  0.69719813245E+02  0.29500117952E+03  0.34953852877E+03  0.17328646162E+03 0.  0.
         24    2    3    3    0    0 -0.41608877408E+02  0.14592357145E+02  0.73475478354E+02  0.11979872293E+03  0.83718889930E+02 0.  0.
         -6    2    1    2    0  502  0.16199908616E+02 -0.69719813245E+02  0.21555656110E+03  0.28527919730E+03  0.17261604786E+03 0.  0.
        -24    2    5    5    0    0  0.20932976282E+02  0.23731375734E+02  0.60957282631E+02  0.10450709338E+03  0.78769121939E+02 0.  0.
          5    1    3    3  501    0  0.25408968791E+02  0.55127456100E+02  0.22152570116E+03  0.22973980584E+03  0.47000000000E+01 0. -1.
        -13    1    4    4    0    0 -0.14761078447E+00 -0.29607149483E+02  0.81863883057E+01  0.30718431648E+02  0.00000000000E+00 0.  1.
         14    1    4    4    0    0 -0.41461266623E+02  0.44199506628E+02  0.65289090048E+02  0.89080291286E+02  0.00000000000E+00 0. -1.
         -5    1    5    5    0  502 -0.47330676655E+01 -0.93451188979E+02  0.15459927847E+03  0.18077210391E+03  0.47000000000E+01 0.  1.
         13    1    6    6    0    0 -0.39741027799E+01 -0.97651252134E+01 -0.14705293809E+02  0.18094110349E+02  0.00000000000E+00 0. -1.
        -14    1    6    6    0    0  0.24907079062E+02  0.33496500947E+02  0.75662576439E+02  0.86412983032E+02  0.00000000000E+00 0.  1.
<mgrwt>
<rscale>  2 0.18733224E+03</rscale>
<asrwt>0</asrwt>
<pdfrwt beam="1">  1       21 0.88105802E-01 0.18748730E+03</pdfrwt>
<pdfrwt beam="2">  1       21 0.95584608E-02 0.18748730E+03</pdfrwt>
<totfact> 0.97168675E+04</totfact>
</mgrwt>
</event>
<event>
12    1  0.1071811E-001  0.2102550E+03  0.7546771E-02  0.1142400E+00
         21   -1    0    0  503  502  0.00000000000E+00  0.00000000000E+00  0.23658908437E+03  0.23658908437E+03  0.00000000000E+00 0. -1.
         21   -1    0    0  501  503 -0.00000000000E+00 -0.00000000000E+00 -0.18228382765E+03  0.18228382765E+03  0.00000000000E+00 0. -1.
          6    2    1    2  501    0  0.62178717149E+02  0.90794266447E+02  0.27700582177E+02  0.21207191902E+03  0.17915743049E+03 0.  0.
         24    2    3    3    0    0  0.87668661364E+02  0.32879101403E+02  0.63688039422E+02  0.13912611258E+03  0.80827466514E+02 0.  0.
         -6    2    1    2    0  502 -0.62178717149E+02 -0.90794266447E+02  0.26604674535E+02  0.20680099300E+03  0.17305793917E+03 0.  0.
        -24    2    5    5    0    0 -0.89141473836E+01 -0.74224019068E+02  0.74361409018E+02  0.13321782115E+03  0.81416839108E+02 0.  0.
          5    1    3    3  501    0 -0.25489944215E+02  0.57915165044E+02 -0.35987457245E+02  0.72945806439E+02  0.47000000000E+01 0. -1.
        -13    1    4    4    0    0  0.11661538604E+02  0.26922671763E+02  0.55072968982E+02  0.62400750396E+02  0.00000000000E+00 0.  1.
         14    1    4    4    0    0  0.76007122760E+02  0.59564296400E+01  0.86150704403E+01  0.76725362189E+02  0.00000000000E+00 0. -1.
         -5    1    5    5    0  502 -0.53264569765E+02 -0.16570247379E+02 -0.47756734483E+02  0.73583171847E+02  0.47000000000E+01 0.  1.
         13    1    6    6    0    0  0.27975464671E+02 -0.67025153034E+02  0.53720020054E+02  0.90337358371E+02  0.00000000000E+00 0. -1.
        -14    1    6    6    0    0 -0.36889612054E+02 -0.71988660335E+01  0.20641388964E+02  0.42880462778E+02  0.00000000000E+00 0.  1.
<mgrwt>
<rscale>  2 0.20894980E+03</rscale>
<asrwt>0</asrwt>
<pdfrwt beam="1">  1       21 0.36398321E-01 0.21025503E+03</pdfrwt>
<pdfrwt beam="2">  1       21 0.28043666E-01 0.21025503E+03</pdfrwt>
<totfact> 0.87777649E+04</totfact>
</mgrwt>
</event>
<event>
12    1  0.1071811E-001  0.2340870E+03  0.7546771E-02  0.1123801E+00
         21   -1    0    0  501  502  0.00000000000E+00  0.00000000000E+00  0.24438361525E+03  0.24438361525E+03  0.00000000000E+00 0. -1.
         21   -1    0    0  502  503 -0.00000000000E+00 -0.00000000000E+00 -0.22550642874E+03  0.22550642874E+03  0.00000000000E+00 0. -1.
         -6    2    1    2    0  503  0.14460246851E+03  0.63129962774E+02 -0.84840103098E+01  0.23420945140E+03  0.17287805701E+03 0.  0.
        -24    2    3    3    0    0  0.12521910264E+03  0.10061995583E+03  0.23014214834E+02  0.18133750573E+03  0.80928596433E+02 0.  0.
          6    2    1    2  501    0 -0.14460246851E+03 -0.63129962774E+02  0.27361196820E+02  0.23568059258E+03  0.17292033001E+03 0.  0.
         24    2    5    5    0    0 -0.14218160108E+03 -0.72640564043E+02 -0.22800175783E+02  0.18435257453E+03  0.89295937712E+02 0.  0.
          5    1    5    5  501    0 -0.24208674340E+01  0.95106012689E+01  0.50161372602E+02  0.51328018050E+02  0.47000000000E+01 0. -1.
        -13    1    6    6    0    0 -0.49349209523E+02  0.66313714203E+01  0.21841723340E+02  0.54372607496E+02  0.00000000000E+00 0.  1.
         14    1    6    6    0    0 -0.92832391553E+02 -0.79271935463E+02 -0.44641899122E+02  0.12997996704E+03  0.00000000000E+00 0. -1.
         -5    1    3    3    0  503  0.19383365871E+02 -0.37489993061E+02 -0.31498225144E+02  0.52871945675E+02  0.47000000000E+01 0.  1.
         13    1    4    4    0    0  0.96378474712E+01  0.47751952779E+02 -0.10630384044E+02  0.49861229056E+02  0.00000000000E+00 0. -1.
        -14    1    4    4    0    0  0.11558125517E+03  0.52868003056E+02  0.33644598878E+02  0.13147627667E+03  0.00000000000E+00 0.  1.
<mgrwt>
<rscale>  2 0.23407916E+03</rscale>
<asrwt>0</asrwt>
<pdfrwt beam="1">  1       21 0.37597479E-01 0.23408696E+03</pdfrwt>
<pdfrwt beam="2">  1       21 0.34693297E-01 0.23408696E+03</pdfrwt>
<totfact> 0.53624200E+04</totfact>
</mgrwt>
</event>
<event>
12    1  0.1071811E-001  0.1751101E+03  0.7546771E-02  0.1176411E+00
         21   -1    0    0  501  502  0.00000000000E+00  0.00000000000E+00  0.43488306036E+03  0.43488306036E+03  0.00000000000E+00 0. -1.
         21   -1    0    0  502  503 -0.00000000000E+00 -0.00000000000E+00 -0.13449023088E+03  0.13449023088E+03  0.00000000000E+00 0. -1.
         -6    2    1    2    0  503  0.10748329590E+02 -0.15876739604E+02 -0.57728020483E+02  0.17073300696E+03  0.15952942634E+03 0.  0.
        -24    2    3    3    0    0 -0.46080259835E+02 -0.32872187673E+02 -0.50811238296E+02  0.11083087255E+03  0.80608493999E+02 0.  0.
          6    2    1    2  501    0 -0.10748329590E+02  0.15876739604E+02  0.35812084996E+03  0.39864028428E+03  0.17405727685E+03 0.  0.
         24    2    5    5    0    0  0.45314058387E+02 -0.30264629085E+02  0.18606173460E+03  0.21182902545E+03  0.85341990112E+02 0.  0.
          5    1    5    5  501    0 -0.56062387976E+02  0.46141368688E+02  0.17205911536E+03  0.18681125884E+03  0.47000000000E+01 0. -1.
        -11    1    6    6    0    0  0.23404076925E+02  0.28659606050E+02  0.52699262980E+02  0.64392050397E+02  0.00000000000E+00 0.  1.
         12    1    6    6    0    0  0.21909981461E+02 -0.58924235135E+02  0.13336247162E+03  0.14743697505E+03  0.00000000000E+00 0. -1.
         -5    1    3    3    0  503  0.56828589425E+02  0.16995448069E+02 -0.69167821871E+01  0.59902134411E+02  0.47000000000E+01 0.  1.
         11    1    4    4    0    0  0.44907007281E+01  0.22479064216E+02 -0.17243961973E+02  0.28684995129E+02  0.00000000000E+00 0. -1.
        -12    1    4    4    0    0 -0.50570960564E+02 -0.55351251888E+02 -0.33567276323E+02  0.82145877423E+02  0.00000000000E+00 0.  1.
<mgrwt>
<rscale>  2 0.17138470E+03</rscale>
<asrwt>0</asrwt>
<pdfrwt beam="1">  1       21 0.66905085E-01 0.17511006E+03</pdfrwt>
<pdfrwt beam="2">  1       21 0.20690805E-01 0.17511006E+03</pdfrwt>
<totfact> 0.44717027E+04</totfact>
</mgrwt>
</event>
<event>
12    1  0.1071811E-001  0.2650390E+03  0.7546771E-02  0.1104253E+00
         21   -1    0    0  501  502  0.00000000000E+00  0.00000000000E+00  0.20961629025E+03  0.20961629025E+03  0.00000000000E+00 0.  1.
         21   -1    0    0  502  503 -0.00000000000E+00 -0.00000000000E+00 -0.34870797099E+03  0.34870797099E+03  0.00000000000E+00 0.  1.
         -6    2    1    2    0  503 -0.24616080343E+02 -0.19865777513E+03 -0.12646606774E+03  0.29366533706E+03  0.17370895449E+03 0.  0.
        -24    2    3    3    0    0 -0.84595505942E+01 -0.20398648604E+02 -0.20888156770E+02  0.85804482333E+02  0.80239798318E+02 0.  0.
          6    2    1    2  501    0  0.24616080343E+02  0.19865777513E+03 -0.12625613006E+02  0.26465892418E+03  0.17266753317E+03 0.  0.
         24    2    5    5    0    0 -0.24465033419E+02  0.19641770056E+03 -0.21714797894E+02  0.21447250227E+03  0.79677291808E+02 0.  0.
          5    1    5    5  501    0  0.49081113762E+02  0.22400745741E+01  0.90891848879E+01  0.50186421910E+02  0.47000000000E+01 0. -1.
        -11    1    6    6    0    0  0.20988069240E+02  0.10688300112E+03  0.94568749836E+01  0.10933392641E+03  0.00000000000E+00 0.  1.
         12    1    6    6    0    0 -0.45453102659E+02  0.89534699436E+02 -0.31171672877E+02  0.10513857586E+03  0.00000000000E+00 0. -1.
         -5    1    3    3    0  503 -0.16156529749E+02 -0.17825912653E+03 -0.10557791097E+03  0.20786085473E+03  0.47000000000E+01 0.  1.
         13    1    4    4    0    0 -0.23892065088E+02 -0.15391741897E+02 -0.47080806282E+02  0.54993988880E+02  0.00000000000E+00 0. -1.
        -14    1    4    4    0    0  0.15432514494E+02 -0.50069067068E+01  0.26192649512E+02  0.30810493453E+02  0.00000000000E+00 0.  1.
<mgrwt>
<rscale>  2 0.26486847E+03</rscale>
<asrwt>0</asrwt>
<pdfrwt beam="1">  1       21 0.32248660E-01 0.26503899E+03</pdfrwt>
<pdfrwt beam="2">  1       21 0.53647380E-01 0.26503899E+03</pdfrwt>
<totfact> 0.29356790E+04</totfact>
</mgrwt>
</event>
<event>
12    1  0.1071811E-001  0.1734271E+03  0.7546771E-02  0.1174542E+00
         21   -1    0    0  501  502  0.00000000000E+00  0.00000000000E+00  0.88372063542E+02  0.88372063542E+02  0.00000000000E+00 0.  1.
         21   -1    0    0  502  503 -0.00000000000E+00 -0.00000000000E+00 -0.34177342272E+03  0.34177342272E+03  0.00000000000E+00 0.  1.
         -6    2    1    2    0  503  0.64347651789E+01  0.10581997409E+02 -0.10577636073E+03  0.20239537346E+03  0.17211003409E+03 0.  0.
        -24    2    3    3    0    0 -0.43555420178E+02  0.42815454167E+02 -0.10796861090E+03  0.14268850344E+03  0.70516312520E+02 0.  0.
          6    2    1    2  501    0 -0.64347651789E+01 -0.10581997409E+02 -0.14762499846E+03  0.22775011281E+03  0.17298436011E+03 0.  0.
         24    2    5    5    0    0  0.35765413942E+02  0.46676868806E+02 -0.80263445564E+02  0.12967309366E+03  0.83156452596E+02 0.  0.
          5    1    5    5  501    0 -0.42200179121E+02 -0.57258866215E+02 -0.67361552892E+02  0.98077019154E+02  0.47000000000E+01 0. -1.
        -13    1    6    6    0    0 -0.75109069317E+00  0.73577426496E+01 -0.75434007072E+02  0.75795711865E+02  0.00000000000E+00 0.  1.
         14    1    6    6    0    0  0.36516504635E+02  0.39319126156E+02 -0.48294384918E+01  0.53877381791E+02  0.00000000000E+00 0. -1.
         -5    1    3    3    0  503  0.49990185356E+02 -0.32233456758E+02  0.21922501742E+01  0.59706870018E+02  0.47000000000E+01 0.  1.
         11    1    4    4    0    0 -0.17885096034E+02 -0.16430416323E+02 -0.51385607853E+02  0.56835868386E+02  0.00000000000E+00 0. -1.
        -12    1    4    4    0    0 -0.25670324144E+02  0.59245870489E+02 -0.56583003048E+02  0.85852635053E+02  0.00000000000E+00 0.  1.
<mgrwt>
<rscale>  2 0.17320871E+03</rscale>
<asrwt>0</asrwt>
<pdfrwt beam="1">  1       21 0.13595702E-01 0.17342714E+03</pdfrwt>
<pdfrwt beam="2">  1       21 0.52580526E-01 0.17342714E+03</pdfrwt>
<totfact> 0.16178572E+05</totfact>
</mgrwt>
</event>
<event>
12    1  0.1071811E-001  0.2131723E+03  0.7546771E-02  0.1139112E+00
         21   -1    0    0  501  502  0.00000000000E+00  0.00000000000E+00  0.17669229418E+04  0.17669229418E+04  0.00000000000E+00 0.  1.
         21   -1    0    0  502  503 -0.00000000000E+00 -0.00000000000E+00 -0.10618825219E+03  0.10618825219E+03  0.00000000000E+00 0.  1.
         -6    2    1    2    0  503  0.11956918390E+03  0.28659895081E+02  0.14888162447E+02  0.21351689480E+03  0.17392420090E+03 0.  0.
        -24    2    3    3    0    0  0.13658095409E+02 -0.97295484840E+01  0.48444884874E+02  0.95877396062E+02  0.81020741303E+02 0.  0.
          6    2    1    2  501    0 -0.11956918390E+03 -0.28659895081E+02  0.16458465272E+04  0.16595942992E+04  0.17413864474E+03 0.  0.
         24    2    5    5    0    0 -0.29032677133E+02  0.38363279433E+02  0.93413859532E+03  0.93901173262E+03  0.82543813799E+02 0.  0.
          5    1    5    5  501    0 -0.90536506769E+02 -0.67023174514E+02  0.71170793187E+03  0.72058256659E+03  0.47000000000E+01 0. -1.
        -13    1    6    6    0    0 -0.48169340368E+02  0.40545379869E+02  0.43829751012E+03  0.44279670342E+03  0.00000000000E+00 0.  1.
         14    1    6    6    0    0  0.19136663235E+02 -0.21821004359E+01  0.49584108519E+03  0.49621502920E+03  0.00000000000E+00 0. -1.
         -5    1    3    3    0  503  0.10591108849E+03  0.38389443565E+02 -0.33556722428E+02  0.11763949874E+03  0.47000000000E+01 0.  1.
         13    1    4    4    0    0  0.37200687182E+01  0.28393940595E+02  0.48681016724E+02  0.56479165743E+02  0.00000000000E+00 0. -1.
        -14    1    4    4    0    0  0.99380266912E+01 -0.38123489079E+02 -0.23613184979E+00  0.39398230319E+02  0.00000000000E+00 0.  1.
<mgrwt>
<rscale>  2 0.21312854E+03</rscale>
<asrwt>0</asrwt>
<pdfrwt beam="1">  1       21 0.27183428E+00 0.21317234E+03</pdfrwt>
<pdfrwt beam="2">  1       21 0.16336656E-01 0.21317234E+03</pdfrwt>
<totfact> 0.16252333E+03</totfact>
</mgrwt>
</event>
<event>
12    1  0.1071811E-001  0.2054143E+03  0.7546771E-02  0.1145505E+00
         21   -1    0    0  503  502  0.00000000000E+00  0.00000000000E+00  0.38081746592E+02  0.38081746592E+02  0.00000000000E+00 0. -1.
         21   -1    0    0  501  503 -0.00000000000E+00 -0.00000000000E+00 -0.11019185171E+04  0.11019185171E+04  0.00000000000E+00 0. -1.
          6    2    1    2  501    0  0.10752698263E+03 -0.15255713813E+02 -0.54720996876E+03  0.58449447078E+03  0.17435666797E+03 0.  0.
         24    2    3    3    0    0  0.31486156943E+02 -0.60848024371E+02 -0.38818837891E+03  0.40236588436E+03  0.80710762782E+02 0.  0.
         -6    2    1    2    0  502 -0.10752698263E+03  0.15255713813E+02 -0.51662680173E+03  0.55550579289E+03  0.17288332735E+03 0.  0.
        -24    2    5    5    0    0  0.10063766693E+02  0.75802504443E+01 -0.21663701895E+03  0.23316675270E+03  0.85301799435E+02 0.  0.
          5    1    3    3  501    0  0.76040825683E+02  0.45592310558E+02 -0.15902158986E+03  0.18212858642E+03  0.47000000000E+01 0. -1.
        -11    1    4    4    0    0  0.79940091901E+01  0.19349199853E+02 -0.10671670851E+03  0.10875086939E+03  0.00000000000E+00 0.  1.
         12    1    4    4    0    0  0.23492147752E+02 -0.80197224224E+02 -0.28147167040E+03  0.29361501497E+03  0.00000000000E+00 0. -1.
         -5    1    5    5    0  502 -0.11759074932E+03  0.76754633685E+01 -0.29998978277E+03  0.32233904019E+03  0.47000000000E+01 0.  1.
         11    1    6    6    0    0 -0.37052467594E+02  0.11731865893E+02 -0.10216716515E+03  0.10930988824E+03  0.00000000000E+00 0. -1.
        -12    1    6    6    0    0  0.47116234287E+02 -0.41516154483E+01 -0.11446985380E+03  0.12385686446E+03  0.00000000000E+00 0.  1.
<mgrwt>
<rscale>  2 0.20510132E+03</rscale>
<asrwt>0</asrwt>
<pdfrwt beam="1">  1       21 0.58587313E-02 0.20541430E+03</pdfrwt>
<pdfrwt beam="2">  1       21 0.16952590E+00 0.20541430E+03</pdfrwt>
<totfact> 0.43818847E+04</totfact>
</mgrwt>
</event>
<event>
12    1  0.1071811E-001  0.1835818E+03  0.7546771E-02  0.1164495E+00
         21   -1    0    0  503  502  0.00000000000E+00  0.00000000000E+00  0.26265550349E+03  0.26265550349E+03  0.00000000000E+00 0. -1.
         21   -1    0    0  501  503 -0.00000000000E+00 -0.00000000000E+00 -0.39740608725E+03  0.39740608725E+03  0.00000000000E+00 0. -1.
          6    2    1    2  501    0  0.58330102458E+02  0.33080803407E+01 -0.33914871575E+03  0.38564766643E+03  0.17403714253E+03 0.  0.
         24    2    3    3    0    0  0.64570841299E+01 -0.32773270769E+02 -0.78328918001E+02  0.11724175959E+03  0.80588023829E+02 0.  0.
         -6    2    1    2    0  502 -0.58330102458E+02 -0.33080803407E+01  0.20439813198E+03  0.27441392431E+03  0.17352539079E+03 0.  0.
        -24    2    5    5    0    0  0.21389191898E+02 -0.40767968312E+02  0.84409063991E+02  0.12549154340E+03  0.80645598825E+02 0.  0.
          5    1    3    3  501    0  0.51873018328E+02  0.36081351110E+02 -0.26081979775E+03  0.26840590684E+03  0.47000000000E+01 0. -1.
        -13    1    4    4    0    0  0.33738870652E+02 -0.37279166446E+02 -0.73682206581E+02  0.89202663696E+02  0.00000000000E+00 0.  1.
         14    1    4    4    0    0 -0.27281786522E+02  0.45058956765E+01 -0.46467114200E+01  0.28039095896E+02  0.00000000000E+00 0. -1.
         -5    1    5    5    0  502 -0.79719294356E+02  0.37459887972E+02  0.11998906799E+03  0.14892238091E+03  0.47000000000E+01 0.  1.
         13    1    6    6    0    0  0.60626317448E+01  0.18787297332E+02  0.52753889936E+02  0.56326645098E+02  0.00000000000E+00 0. -1.
        -14    1    6    6    0    0  0.15326560153E+02 -0.59555265644E+02  0.31655174056E+02  0.69164898298E+02  0.00000000000E+00 0.  1.
<mgrwt>
<rscale>  2 0.18346039E+03</rscale>
<asrwt>0</asrwt>
<pdfrwt beam="1">  1       21 0.40408539E-01 0.18358178E+03</pdfrwt>
<pdfrwt beam="2">  1       21 0.61139398E-01 0.18358178E+03</pdfrwt>
<totfact> 0.14769355E+04</totfact>
</mgrwt>
</event>
<event>
12    1  0.1071811E-001  0.2186823E+03  0.7546771E-02  0.1135171E+00
         21   -1    0    0  503  502  0.00000000000E+00  0.00000000000E+00  0.26847817806E+03  0.26847817806E+03  0.00000000000E+00 0. -1.
         21   -1    0    0  501  503 -0.00000000000E+00 -0.00000000000E+00 -0.28567192506E+03  0.28567192506E+03  0.00000000000E+00 0. -1.
          6    2    1    2  501    0 -0.14545079244E+02  0.13260104131E+03 -0.17960991673E+03  0.28175158541E+03  0.17125897993E+03 0.  0.
         24    2    3    3    0    0 -0.64316785627E+02  0.78392406023E+02 -0.63370804537E+02  0.14409469274E+03  0.80407732047E+02 0.  0.
         -6    2    1    2    0  502  0.14545079244E+02 -0.13260104131E+03  0.16241616973E+03  0.27239851770E+03  0.17328400034E+03 0.  0.
        -24    2    5    5    0    0  0.48690186691E+02 -0.40160428471E+02  0.28582730507E+02  0.10613176000E+03  0.80395172132E+02 0.  0.
          5    1    3    3  501    0  0.49771706384E+02  0.54208635283E+02 -0.11623911219E+03  0.13765689267E+03  0.47000000000E+01 0. -1.
        -11    1    4    4    0    0 -0.72492891956E+02  0.34915909072E+02 -0.21741454045E+02  0.83348850708E+02  0.00000000000E+00 0.  1.
         12    1    4    4    0    0  0.81761063283E+01  0.43476496951E+02 -0.41629350492E+02  0.60745842033E+02  0.00000000000E+00 0. -1.
         -5    1    5    5    0  502 -0.34145107448E+02 -0.92440612835E+02  0.13383343922E+03  0.16626675771E+03  0.47000000000E+01 0.  1.
         13    1    6    6    0    0 -0.93725735966E+01 -0.42629427295E+02  0.73663253544E+01  0.44264838829E+02  0.00000000000E+00 0. -1.
        -14    1    6    6    0    0  0.58062760288E+02  0.24689988241E+01  0.21216405153E+02  0.61866921170E+02  0.00000000000E+00 0.  1.
<mgrwt>
<rscale>  2 0.21828090E+03</rscale>
<asrwt>0</asrwt>
<pdfrwt beam="1">  1       21 0.41304335E-01 0.21868228E+03</pdfrwt>
<pdfrwt beam="2">  1       21 0.43949527E-01 0.21868228E+03</pdfrwt>
<totfact> 0.27679559E+04</totfact>
</mgrwt>
</event>
<event>
12    1  0.1071811E-001  0.3137490E+03  0.7546771E-02  0.1079655E+00
         21   -1    0    0  503  502  0.00000000000E+00  0.00000000000E+00  0.44230403361E+03  0.44230403361E+03  0.00000000000E+00 0.  1.
         21   -1    0    0  501  503 -0.00000000000E+00 -0.00000000000E+00 -0.73661663601E+03  0.73661663601E+03  0.00000000000E+00 0. -1.
          6    2    1    2  501    0  0.12689984618E+03 -0.22910112723E+03 -0.64326475669E+03  0.71570105666E+03  0.17276445771E+03 0.  0.
         24    2    3    3    0    0 -0.47420804468E+01 -0.95614722960E+02 -0.22427182400E+03  0.25665270995E+03  0.80050608445E+02 0.  0.
         -6    2    1    2    0  502 -0.12689984618E+03  0.22910112723E+03  0.34895215429E+03  0.46321961297E+03  0.15560818231E+03 0.  0.
        -24    2    5    5    0    0 -0.28246786712E+02  0.55356325537E+02  0.88426164170E+02  0.13486680914E+03  0.80670105745E+02 0.  0.
          5    1    3    3  501    0  0.13164192663E+03 -0.13348640427E+03 -0.41899293268E+03  0.45904834670E+03  0.47000000000E+01 0. -1.
        -13    1    4    4    0    0 -0.25319621026E+02 -0.83544922635E+02 -0.11268267350E+03  0.14254200158E+03  0.00000000000E+00 0.  1.
         14    1    4    4    0    0  0.20577540579E+02 -0.12069800324E+02 -0.11158915050E+03  0.11411070838E+03  0.00000000000E+00 0. -1.
         -5    1    5    5    0  502 -0.98653059469E+02  0.17374480169E+03  0.26052599012E+03  0.32835280383E+03  0.47000000000E+01 0.  1.
         11    1    6    6    0    0 -0.51997650060E+02  0.20257653289E+02  0.32099933227E+02  0.64378054038E+02  0.00000000000E+00 0. -1.
        -12    1    6    6    0    0  0.23750863349E+02  0.35098672248E+02  0.56326230943E+02  0.70488755101E+02  0.00000000000E+00 0.  1.
<mgrwt>
<rscale>  2 0.31144625E+03</rscale>
<asrwt>0</asrwt>
<pdfrwt beam="1">  1       21 0.68046774E-01 0.31374903E+03</pdfrwt>
<pdfrwt beam="2">  1       21 0.11332564E+00 0.31374903E+03</pdfrwt>
<totfact> 0.10897418E+03</totfact>
</mgrwt>
</event>
<event>
12    1  0.1071811E-001  0.2659385E+03  0.7546771E-02  0.1103776E+00
         21   -1    0    0  501  502  0.00000000000E+00  0.00000000000E+00  0.34890227825E+03  0.34890227825E+03  0.00000000000E+00 0.  1.
         21   -1    0    0  502  503 -0.00000000000E+00 -0.00000000000E+00 -0.20767548579E+03  0.20767548579E+03  0.00000000000E+00 0. -1.
         -6    2    1    2    0  503 -0.17698293999E+03 -0.92777157371E+02  0.24437578057E+02  0.26705892368E+03  0.17547852153E+03 0.  0.
        -24    2    3    3    0    0 -0.34382663925E+02  0.13560395699E+02  0.12554037585E+02  0.88717054055E+02  0.79668437353E+02 0.  0.
          6    2    1    2  501    0  0.17698293999E+03  0.92777157371E+02  0.11678921440E+03  0.28951884036E+03  0.17392779061E+03 0.  0.
         24    2    5    5    0    0  0.24813577462E+02  0.61948903413E+02  0.74658645725E+02  0.12857484094E+03  0.80648596272E+02 0.  0.
          5    1    5    5  501    0  0.15216936252E+03  0.30828253958E+02  0.42130568679E+02  0.16094399942E+03  0.47000000000E+01 0. -1.
        -13    1    6    6    0    0  0.43539806239E+02  0.68860460001E+02  0.71438843073E+02  0.10835583039E+03  0.00000000000E+00 0.  1.
         14    1    6    6    0    0 -0.18726228777E+02 -0.69115565887E+01  0.32198026525E+01  0.20219010554E+02  0.00000000000E+00 0. -1.
         -5    1    3    3    0  503 -0.14260027606E+03 -0.10633755307E+03  0.11883540472E+02  0.17834186962E+03  0.47000000000E+01 0.  1.
         13    1    4    4    0    0 -0.19421299997E+02 -0.49808274235E+01 -0.32248815712E+02  0.37973433479E+02  0.00000000000E+00 0. -1.
        -14    1    4    4    0    0 -0.14961363929E+02  0.18541223123E+02  0.44802853297E+02  0.50743620575E+02  0.00000000000E+00 0.  1.
<mgrwt>
<rscale>  2 0.26568294E+03</rscale>
<asrwt>0</asrwt>
<pdfrwt beam="1">  1       21 0.53677273E-01 0.26593848E+03</pdfrwt>
<pdfrwt beam="2">  1       21 0.31950075E-01 0.26593848E+03</pdfrwt>
<totfact> 0.29855737E+04</totfact>
</mgrwt>
</event>
<event>
12    1  0.1071811E-001  0.2165793E+03  0.7546771E-02  0.1137265E+00
         21   -1    0    0  503  502  0.00000000000E+00  0.00000000000E+00  0.56934150612E+03  0.56934150612E+03  0.00000000000E+00 0. -1.
         21   -1    0    0  501  503 -0.00000000000E+00 -0.00000000000E+00 -0.80803959613E+02  0.80803959613E+02  0.00000000000E+00 0. -1.
          6    2    1    2  501    0 -0.86809222458E+02  0.93225757038E+02  0.24442458877E+03  0.32657304752E+03  0.17515619571E+03 0.  0.
         24    2    3    3    0    0 -0.12659773698E+03  0.54127213920E+02  0.17073461202E+03  0.23403049172E+03  0.81628555160E+02 0.  0.
         -6    2    1    2    0  502  0.86809222458E+02 -0.93225757038E+02  0.24411295774E+03  0.32357241821E+03  0.16994437564E+03 0.  0.
        -24    2    5    5    0    0  0.49413396082E+02 -0.90270643408E+02  0.77771659684E+02  0.15298901349E+03  0.82260163052E+02 0.  0.
          5    1    3    3  501    0  0.39788514521E+02  0.39098543117E+02  0.73689976747E+02  0.92542555804E+02  0.47000000000E+01 0. -1.
        -11    1    4    4    0    0 -0.77490921332E+02 -0.10511606931E+02  0.72974113778E+02  0.10696054436E+03  0.00000000000E+00 0.  1.
         12    1    4    4    0    0 -0.49106815648E+02  0.64638820851E+02  0.97760498244E+02  0.12706994736E+03  0.00000000000E+00 0. -1.
         -5    1    5    5    0  502  0.37395826376E+02 -0.29551136293E+01  0.16634129805E+03  0.17058340472E+03  0.47000000000E+01 0.  1.
         11    1    6    6    0    0  0.78120492728E+01 -0.23566212070E+01  0.51638321755E+02  0.52279040265E+02  0.00000000000E+00 0. -1.
        -12    1    6    6    0    0  0.41601346809E+02 -0.87914022201E+02  0.26133337929E+02  0.10070997323E+03  0.00000000000E+00 0.  1.
<mgrwt>
<rscale>  2 0.21552334E+03</rscale>
<asrwt>0</asrwt>
<pdfrwt beam="1">  1       21 0.87590998E-01 0.21657926E+03</pdfrwt>
<pdfrwt beam="2">  1       21 0.12431379E-01 0.21657926E+03</pdfrwt>
<totfact> 0.60920634E+04</totfact>
</mgrwt>
</event>
<event>
12    1  0.1071811E-001  0.2096253E+03  0.7546771E-02  0.1142109E+00
         21   -1    0    0  501  502  0.00000000000E+00  0.00000000000E+00  0.76921663065E+02  0.76921663065E+02  0.00000000000E+00 0. -1.
         21   -1    0    0  502  503 -0.00000000000E+00 -0.00000000000E+00 -0.74996947585E+03  0.74996947585E+03  0.00000000000E+00 0. -1.
         -6    2    1    2    0  503 -0.53207823807E+02  0.10571672673E+03 -0.54098765058E+03  0.58018137017E+03  0.17301932086E+03 0.  0.
        -24    2    3    3    0    0 -0.93096588578E+02  0.45534381924E+02 -0.41074515282E+03  0.43119067783E+03  0.80457848233E+02 0.  0.
          6    2    1    2  501    0  0.53207823807E+02 -0.10571672673E+03 -0.13206016220E+03  0.24670976874E+03  0.17151887572E+03 0.  0.
         24    2    5    5    0    0  0.69278911564E+02 -0.10279934898E+03 -0.15777825645E+03  0.21588281096E+03  0.79650085502E+02 0.  0.
          5    1    5    5  501    0 -0.16071087757E+02 -0.29173777510E+01  0.25718094246E+02  0.30826957786E+02  0.47000000000E+01 0. -1.
        -13    1    6    6    0    0  0.83724090595E+02 -0.78359459276E+02 -0.10279299140E+03  0.15400106261E+03  0.00000000000E+00 0.  1.
         14    1    6    6    0    0 -0.14445179030E+02 -0.24439889701E+02 -0.54985265051E+02  0.61881748348E+02  0.00000000000E+00 0. -1.
         -5    1    3    3    0  503  0.39888764771E+02  0.60182344805E+02 -0.13024249776E+03  0.14899069234E+03  0.47000000000E+01 0.  1.
         13    1    4    4    0    0 -0.77161938972E+02  0.65910438265E+02 -0.27785886019E+03  0.29581023797E+03  0.00000000000E+00 0. -1.
        -14    1    4    4    0    0 -0.15934649606E+02 -0.20376056341E+02 -0.13288629262E+03  0.13538043986E+03  0.00000000000E+00 0.  1.
<mgrwt>
<rscale>  2 0.20931548E+03</rscale>
<asrwt>0</asrwt>
<pdfrwt beam="1">  1       21 0.11834101E-01 0.20962534E+03</pdfrwt>
<pdfrwt beam="2">  1       21 0.11537992E+00 0.20962534E+03</pdfrwt>
<totfact> 0.34654350E+04</totfact>
</mgrwt>
</event>
<event>
12    1  0.1071811E-001  0.1774152E+03  0.7546771E-02  0.1171114E+00
         21   -1    0    0  501  502  0.00000000000E+00  0.00000000000E+00  0.30440769994E+02  0.30440769994E+02  0.00000000000E+00 0. -1.
         21   -1    0    0  502  503 -0.00000000000E+00 -0.00000000000E+00 -0.12207031728E+04  0.12207031728E+04  0.00000000000E+00 0. -1.
         -6    2    1    2    0  503 -0.96785821110E+01  0.21815572231E+02 -0.84703849750E+03  0.86477778511E+03  0.17261751715E+03 0.  0.
        -24    2    3    3    0    0 -0.60660502218E+02  0.43402601564E+02 -0.68407774935E+03  0.69260504787E+03  0.78586912501E+02 0.  0.
          6    2    1    2  501    0  0.96785821110E+01 -0.21815572231E+02 -0.34322390533E+03  0.38636615771E+03  0.17580262936E+03 0.  0.
         24    2    5    5    0    0 -0.71082261169E+01 -0.18191937009E+02 -0.35560989764E+03  0.36467674859E+03  0.78417206105E+02 0.  0.
          5    1    5    5  501    0  0.16786808228E+02 -0.36236352222E+01  0.12385992305E+02  0.21689409122E+02  0.47000000000E+01 0. -1.
        -11    1    6    6    0    0  0.67859422848E+01 -0.47354184106E+02 -0.18867275032E+03  0.19464294100E+03  0.00000000000E+00 0.  1.
         12    1    6    6    0    0 -0.13894168402E+02  0.29162247097E+02 -0.16693714732E+03  0.17003380759E+03  0.00000000000E+00 0. -1.
         -5    1    3    3    0  503  0.50981920108E+02 -0.21587029333E+02 -0.16296074814E+03  0.17217273724E+03  0.47000000000E+01 0.  1.
         13    1    4    4    0    0 -0.10869460911E+02  0.53704129150E+02 -0.43110379941E+03  0.43457193252E+03  0.00000000000E+00 0. -1.
        -14    1    4    4    0    0 -0.49791041307E+02 -0.10301527586E+02 -0.25297394995E+03  0.25803311535E+03  0.00000000000E+00 0.  1.
<mgrwt>
<rscale>  2 0.17662099E+03</rscale>
<asrwt>0</asrwt>
<pdfrwt beam="1">  1       21 0.46831967E-02 0.17741522E+03</pdfrwt>
<pdfrwt beam="2">  1       21 0.18780043E+00 0.17741522E+03</pdfrwt>
<totfact> 0.48939674E+04</totfact>
</mgrwt>
</event>
<event>
12    1  0.1071811E-001  0.2401645E+03  0.7546771E-02  0.1119758E+00
         21   -1    0    0  501  502  0.00000000000E+00  0.00000000000E+00  0.19681561509E+03  0.19681561509E+03  0.00000000000E+00 0.  1.
         21   -1    0    0  502  503 -0.00000000000E+00 -0.00000000000E+00 -0.88834841505E+03  0.88834841505E+03  0.00000000000E+00 0. -1.
         -6    2    1    2    0  503  0.13497159582E+03  0.96931797109E+02 -0.79002160113E+03  0.82558927325E+03  0.17277272030E+03 0.  0.
        -24    2    3    3    0    0  0.18590524574E+02  0.78334469140E+02 -0.26827389371E+03  0.29067509831E+03  0.77712509103E+02 0.  0.
          6    2    1    2  501    0 -0.13497159582E+03 -0.96931797109E+02  0.98488801174E+02  0.25957475689E+03  0.17339522915E+03 0.  0.
         24    2    5    5    0    0 -0.16287712500E+03 -0.97842248899E+02  0.65670212917E+02  0.21623081595E+03  0.79631183493E+02 0.  0.
          5    1    5    5  501    0  0.27905529179E+02  0.91045179065E+00  0.32818588257E+02  0.43343940943E+02  0.47000000000E+01 0. -1.
        -11    1    6    6    0    0 -0.54778765152E+02  0.49021594556E+01  0.49946483064E+01  0.55224005565E+02  0.00000000000E+00 0.  1.
         12    1    6    6    0    0 -0.10809835985E+03 -0.10274440835E+03  0.60675564610E+02  0.16100681039E+03  0.00000000000E+00 0. -1.
         -5    1    3    3    0  503  0.11638107124E+03  0.18597327969E+02 -0.52174770742E+03  0.53491417494E+03  0.47000000000E+01 0.  1.
         13    1    4    4    0    0  0.21409786295E+02  0.33054140818E+02 -0.22346664846E+03  0.22691033064E+03  0.00000000000E+00 0. -1.
        -14    1    4    4    0    0 -0.28192617201E+01  0.45280328322E+02 -0.44807245246E+02  0.63764767671E+02  0.00000000000E+00 0.  1.
<mgrwt>
<rscale>  2 0.24005221E+03</rscale>
<asrwt>0</asrwt>
<pdfrwt beam="1">  1       21 0.30279325E-01 0.24016455E+03</pdfrwt>
<pdfrwt beam="2">  1       21 0.13666899E+00 0.24016455E+03</pdfrwt>
<totfact> 0.38378662E+03</totfact>
</mgrwt>
</event>
<event>
12    1  0.1071811E-001  0.1930034E+03  0.7546771E-02  0.1156079E+00
         21   -1    0    0  503  502  0.00000000000E+00  0.00000000000E+00  0.18473174399E+03  0.18473174399E+03  0.00000000000E+00 0.  1.
         21   -1    0    0  501  503 -0.00000000000E+00 -0.00000000000E+00 -0.25012377479E+03  0.25012377479E+03  0.00000000000E+00 0.  1.
          6    2    1    2  501    0 -0.58871479973E+02  0.60685669676E+02 -0.12988690638E+03  0.23263905322E+03  0.17349846966E+03 0.  0.
         24    2    3    3    0    0 -0.39700578991E+02  0.46267060388E+00 -0.14240465658E+03  0.16803938502E+03  0.79886160657E+02 0.  0.
         -6    2    1    2    0  502  0.58871479973E+02 -0.60685669676E+02  0.64494875578E+02  0.20221646557E+03  0.17199798927E+03 0.  0.
        -24    2    5    5    0    0 -0.34076508383E+02 -0.40174572801E+02  0.38042719685E+02  0.10331327964E+03  0.80319241194E+02 0.  0.
          5    1    3    3  501    0 -0.19170900982E+02  0.60222999072E+02  0.12517750201E+02  0.64599668202E+02  0.47000000000E+01 0. -1.
        -13    1    4    4    0    0 -0.43451310902E+02 -0.67301257651E+01 -0.25449867547E+02  0.50803609813E+02  0.00000000000E+00 0.  1.
         14    1    4    4    0    0  0.37507319110E+01  0.71927963690E+01 -0.11695478904E+03  0.11723577520E+03  0.00000000000E+00 0. -1.
         -5    1    5    5    0  502  0.92947988356E+02 -0.20511096875E+02  0.26452155893E+02  0.98903185924E+02  0.47000000000E+01 0.  1.
         11    1    6    6    0    0 -0.90440423194E+01  0.15385923908E+02 -0.14386887831E+02  0.22923871782E+02  0.00000000000E+00 0. -1.
        -12    1    6    6    0    0 -0.25032466064E+02 -0.55560496709E+02  0.52429607516E+02  0.80389407860E+02  0.00000000000E+00 0.  1.
<mgrwt>
<rscale>  2 0.19266561E+03</rscale>
<asrwt>0</asrwt>
<pdfrwt beam="1">  1       21 0.28420268E-01 0.19300342E+03</pdfrwt>
<pdfrwt beam="2">  1       21 0.38480581E-01 0.19300342E+03</pdfrwt>
<totfact> 0.77081277E+04</totfact>
</mgrwt>
</event>
<event>
12    1  0.1071811E-001  0.1927799E+03  0.7546771E-02  0.1156703E+00
         21   -1    0    0  501  502  0.00000000000E+00  0.00000000000E+00  0.77093648792E+03  0.77093648792E+03  0.00000000000E+00 0.  1.
         21   -1    0    0  502  503 -0.00000000000E+00 -0.00000000000E+00 -0.60335179905E+02  0.60335179905E+02  0.00000000000E+00 0. -1.
         -6    2    1    2    0  503 -0.20083875260E+02 -0.84201833483E+02  0.16520984468E+03  0.25388654127E+03  0.17225206022E+03 0.  0.
        -24    2    3    3    0    0  0.31891368367E+02 -0.10504760368E+03  0.11897980725E+03  0.18111787737E+03  0.81212268488E+02 0.  0.
          6    2    1    2  501    0  0.20083875260E+02  0.84201833483E+02  0.54539146333E+03  0.57738512655E+03  0.16860731088E+03 0.  0.
         24    2    5    5    0    0  0.55123705427E+02  0.86990823592E+02  0.51245657902E+03  0.52898714345E+03  0.81299608016E+02 0.  0.
          5    1    5    5  501    0 -0.35039830166E+02 -0.27889901097E+01  0.32934884307E+02  0.48397983101E+02  0.47000000000E+01 0. -1.
        -13    1    6    6    0    0 -0.21100046833E+02  0.16003411278E+02  0.12497192025E+03  0.12774702344E+03  0.00000000000E+00 0.  1.
         14    1    6    6    0    0  0.76223752260E+02  0.70987412314E+02  0.38748465878E+03  0.40124012001E+03  0.00000000000E+00 0. -1.
         -5    1    3    3    0  503 -0.51975243628E+02  0.20845770200E+02  0.46230037435E+02  0.72768663906E+02  0.47000000000E+01 0.  1.
         13    1    4    4    0    0 -0.13575125900E+02 -0.48079172927E+02  0.11518171944E+02  0.51269476275E+02  0.00000000000E+00 0. -1.
        -14    1    4    4    0    0  0.45466494268E+02 -0.56968430756E+02  0.10746163531E+03  0.12984840109E+03  0.00000000000E+00 0.  1.
<mgrwt>
<rscale>  2 0.19196230E+03</rscale>
<asrwt>0</asrwt>
<pdfrwt beam="1">  1       21 0.11860561E+00 0.19277988E+03</pdfrwt>
<pdfrwt beam="2">  1       21 0.92823359E-02 0.19277988E+03</pdfrwt>
<totfact> 0.50297103E+04</totfact>
</mgrwt>
</event>
<event>
12    1  0.1071811E-001  0.1786115E+03  0.7546771E-02  0.1170247E+00
         21   -1    0    0  501  502  0.00000000000E+00  0.00000000000E+00  0.35527290228E+03  0.35527290228E+03  0.00000000000E+00 0. -1.
         21   -1    0    0  502  503 -0.00000000000E+00 -0.00000000000E+00 -0.11024092825E+03  0.11024092825E+03  0.00000000000E+00 0. -1.
         -6    2    1    2    0  503  0.30731145123E+02 -0.18764113949E+02  0.18236330856E+02  0.17954001834E+03  0.17494444595E+03 0.  0.
        -24    2    3    3    0    0  0.81811791260E+02  0.15475878277E+02  0.24421737921E+02  0.11755648232E+03  0.79312251601E+02 0.  0.
          6    2    1    2  501    0 -0.30731145123E+02  0.18764113949E+02  0.22679564318E+03  0.28597381218E+03  0.17043550756E+03 0.  0.
         24    2    5    5    0    0 -0.65282093311E+02 -0.26304755271E+02  0.19137910968E+03  0.21888139951E+03  0.79557599094E+02 0.  0.
          5    1    5    5  501    0  0.34550948188E+02  0.45068869220E+02  0.35416533500E+02  0.67092412675E+02  0.47000000000E+01 0. -1.
        -11    1    6    6    0    0 -0.11111972342E+02 -0.38192116193E+01 -0.58432012458E+01  0.13122701991E+02  0.00000000000E+00 0.  1.
         12    1    6    6    0    0 -0.54170120969E+02 -0.22485543652E+02  0.19722231092E+03  0.20575869752E+03  0.00000000000E+00 0. -1.
         -5    1    3    3    0  503 -0.51080646137E+02 -0.34239992226E+02 -0.61854070647E+01  0.61983536023E+02  0.47000000000E+01 0.  1.
         11    1    4    4    0    0  0.70384998329E+02  0.50587687006E+01 -0.17644001854E+02  0.72738916214E+02  0.00000000000E+00 0. -1.
        -12    1    4    4    0    0  0.11426792931E+02  0.10417109577E+02  0.42065739775E+02  0.44817566103E+02  0.00000000000E+00 0.  1.
<mgrwt>
<rscale>  2 0.17749759E+03</rscale>
<asrwt>0</asrwt>
<pdfrwt beam="1">  1       21 0.54657369E-01 0.17861146E+03</pdfrwt>
<pdfrwt beam="2">  1       21 0.16960143E-01 0.17861146E+03</pdfrwt>
<totfact> 0.99562853E+04</totfact>
</mgrwt>
</event>
<event>
12    1  0.1071811E-001  0.1960265E+03  0.7546771E-02  0.1153652E+00
         21   -1    0    0  501  502  0.00000000000E+00  0.00000000000E+00  0.27345477132E+03  0.27345477132E+03  0.00000000000E+00 0.  1.
         21   -1    0    0  502  503 -0.00000000000E+00 -0.00000000000E+00 -0.28716298465E+03  0.28716298465E+03  0.00000000000E+00 0. -1.
         -6    2    1    2    0  503 -0.91175440015E+02 -0.17619403817E+02 -0.20829527766E+03  0.28441037068E+03  0.16993802400E+03 0.  0.
        -24    2    3    3    0    0 -0.42178607208E+02 -0.73913526793E+02 -0.10622118894E+03  0.15787607693E+03  0.79997939578E+02 0.  0.
          6    2    1    2  501    0  0.91175440015E+02  0.17619403817E+02  0.19458706433E+03  0.27620738529E+03  0.17263542462E+03 0.  0.
         24    2    5    5    0    0  0.12379802276E+03  0.80970242130E+01  0.10750444107E+03  0.18261047353E+03  0.79986673589E+02 0.  0.
          5    1    5    5  501    0 -0.32622582744E+02  0.95223796044E+01  0.87082623263E+02  0.93596911769E+02  0.47000000000E+01 0. -1.
        -11    1    6    6    0    0  0.64001003132E+02  0.21891554540E+02  0.10008099359E+03  0.12079558700E+03  0.00000000000E+00 0.  1.
         12    1    6    6    0    0  0.59797019627E+02 -0.13794530327E+02  0.74234474791E+01  0.61814886522E+02  0.00000000000E+00 0. -1.
         -5    1    3    3    0  503 -0.48996832807E+02  0.56294122975E+02 -0.10207408872E+03  0.12653429375E+03  0.47000000000E+01 0.  1.
         13    1    4    4    0    0 -0.26414771145E+02  0.78947000794E+01 -0.50843926854E+02  0.57837456047E+02  0.00000000000E+00 0. -1.
        -14    1    4    4    0    0 -0.15763836063E+02 -0.81808226872E+02 -0.55377262088E+02  0.10003862088E+03  0.00000000000E+00 0.  1.
<mgrwt>
<rscale>  2 0.19543098E+03</rscale>
<asrwt>0</asrwt>
<pdfrwt beam="1">  1       21 0.42069965E-01 0.19602651E+03</pdfrwt>
<pdfrwt beam="2">  1       21 0.44178921E-01 0.19602651E+03</pdfrwt>
<totfact> 0.26709341E+04</totfact>
</mgrwt>
</event>
<event>
12    1  0.1071811E-001  0.2224545E+03  0.7546771E-02  0.1132357E+00
         21   -1    0    0  501  502  0.00000000000E+00  0.00000000000E+00  0.84634533264E+02  0.84634533264E+02  0.00000000000E+00 0.  1.
         21   -1    0    0  502  503 -0.00000000000E+00 -0.00000000000E+00 -0.90228538781E+03  0.90228538781E+03  0.00000000000E+00 0.  1.
         -6    2    1    2    0  503 -0.11849815111E+03 -0.73467017473E+02 -0.70442146682E+03  0.73871214026E+03  0.17334015340E+03 0.  0.
        -24    2    3    3    0    0 -0.41806797900E+02 -0.14095138534E+02 -0.54289993569E+03  0.55025026431E+03  0.78029045409E+02 0.  0.
          6    2    1    2  501    0  0.11849815111E+03  0.73467017473E+02 -0.11322938772E+03  0.24820778081E+03  0.17130964286E+03 0.  0.
         24    2    5    5    0    0  0.13136346485E+03  0.50044966911E+02 -0.31615860636E+02  0.16220216150E+03  0.74492415323E+02 0.  0.
          5    1    5    5  501    0 -0.12865313733E+02  0.23422050562E+02 -0.81613527087E+02  0.86005619313E+02  0.47000000000E+01 0. -1.
        -11    1    6    6    0    0  0.99507317464E+02  0.63620867783E+02 -0.44524498813E+01  0.11819113908E+03  0.00000000000E+00 0.  1.
         12    1    6    6    0    0  0.31856147382E+02 -0.13575900872E+02 -0.27163410755E+02  0.44011022419E+02  0.00000000000E+00 0. -1.
         -5    1    3    3    0  503 -0.76691353213E+02 -0.59371878939E+02 -0.16152153113E+03  0.18846187595E+03  0.47000000000E+01 0.  1.
         13    1    4    4    0    0  0.19889456042E+02 -0.15688635767E+02 -0.10445360741E+03  0.10748153262E+03  0.00000000000E+00 0. -1.
        -14    1    4    4    0    0 -0.61696253942E+02  0.15934972325E+01 -0.43844632828E+03  0.44276873169E+03  0.00000000000E+00 0.  1.
<mgrwt>
<rscale>  2 0.22205885E+03</rscale>
<asrwt>0</asrwt>
<pdfrwt beam="1">  1       21 0.13020698E-01 0.22245454E+03</pdfrwt>
<pdfrwt beam="2">  1       21 0.13881313E+00 0.22245454E+03</pdfrwt>
<totfact> 0.18186237E+04</totfact>
</mgrwt>
</event>
<event>
12    1  0.1071811E-001  0.2423926E+03  0.7546771E-02  0.1118640E+00
         21   -1    0    0  503  502  0.00000000000E+00  0.00000000000E+00  0.57981231663E+02  0.57981231663E+02  0.00000000000E+00 0. -1.
         21   -1    0    0  501  503 -0.00000000000E+00 -0.00000000000E+00 -0.10039308951E+04  0.10039308951E+04  0.00000000000E+00 0.  1.
          6    2    1    2  501    0  0.16055911643E+03 -0.41686415504E+02 -0.45530666831E+03  0.51580840740E+03  0.17674038539E+03 0.  0.
         24    2    3    3    0    0  0.86856993436E+02 -0.75316134616E+02 -0.38057626968E+03  0.40549211929E+03  0.79805415368E+02 0.  0.
         -6    2    1    2    0  502 -0.16055911643E+03  0.41686415504E+02 -0.49064299511E+03  0.54610371935E+03  0.17315235063E+03 0.  0.
        -24    2    5    5    0    0 -0.18070540983E+03  0.36315016408E+02 -0.34760453965E+03  0.40147725287E+03  0.79886438330E+02 0.  0.
          5    1    3    3  501    0  0.73702122999E+02  0.33629719112E+02 -0.74730398631E+02  0.11031628811E+03  0.47000000000E+01 0. -1.
        -11    1    4    4    0    0 -0.23224224806E+01 -0.35722551294E+02 -0.55124472284E+02  0.65728241736E+02  0.00000000000E+00 0.  1.
         12    1    4    4    0    0  0.89179415916E+02 -0.39593583322E+02 -0.32545179739E+03  0.33976387755E+03  0.00000000000E+00 0. -1.
         -5    1    5    5    0  502  0.20146293392E+02  0.53713990965E+01 -0.14303845546E+03  0.14462646648E+03  0.47000000000E+01 0.  1.
         13    1    6    6    0    0 -0.45251247616E+02 -0.93588783541E+01 -0.35757042311E+02  0.58427990635E+02  0.00000000000E+00 0. -1.
        -14    1    6    6    0    0 -0.13545416221E+03  0.45673894762E+02 -0.31184749734E+03  0.34304926223E+03  0.00000000000E+00 0.  1.
<mgrwt>
<rscale>  2 0.24173901E+03</rscale>
<asrwt>0</asrwt>
<pdfrwt beam="1">  1       21 0.89201895E-02 0.24239256E+03</pdfrwt>
<pdfrwt beam="2">  1       21 0.15445091E+00 0.24239256E+03</pdfrwt>
<totfact> 0.26647569E+04</totfact>
</mgrwt>
</event>
<event>
12    1  0.1071811E-001  0.1750674E+03  0.7546771E-02  0.1172791E+00
         21   -1    0    0  503  502  0.00000000000E+00  0.00000000000E+00  0.54480027959E+03  0.54480027959E+03  0.00000000000E+00 0. -1.
         21   -1    0    0  501  503 -0.00000000000E+00 -0.00000000000E+00 -0.59254188639E+02  0.59254188639E+02  0.00000000000E+00 0. -1.
          6    2    1    2  501    0 -0.21216657926E+02  0.11221305148E+02  0.31218911118E+03  0.35767828734E+03  0.17290359114E+03 0.  0.
         24    2    3    3    0    0 -0.36349029100E+02 -0.13904263418E+01  0.64070549970E+02  0.10873460928E+03  0.79968710625E+02 0.  0.
         -6    2    1    2    0  502  0.21216657926E+02 -0.11221305148E+02  0.17335697977E+03  0.24637618089E+03  0.17341428953E+03 0.  0.
        -24    2    5    5    0    0  0.62469195511E+01 -0.61940091334E+02  0.52581545322E+02  0.11444709424E+03  0.80359937487E+02 0.  0.
          5    1    3    3  501    0  0.15132371174E+02  0.12611731490E+02  0.24811856121E+03  0.24894367806E+03  0.47000000000E+01 0. -1.
        -11    1    4    4    0    0 -0.23923077532E+01  0.25207675793E+02  0.60342834765E+02  0.65440108211E+02  0.00000000000E+00 0.  1.
         12    1    4    4    0    0 -0.33956721346E+02 -0.26598102135E+02  0.37277152055E+01  0.43294501065E+02  0.00000000000E+00 0. -1.
         -5    1    5    5    0  502  0.14969738375E+02  0.50718786186E+02  0.12077543445E+03  0.13192908665E+03  0.47000000000E+01 0.  1.
         13    1    6    6    0    0  0.69958572535E+01  0.93728069769E+01 -0.13051730560E+02  0.17525387298E+02  0.00000000000E+00 0. -1.
        -14    1    6    6    0    0 -0.74893770235E+00 -0.71312898311E+02  0.65633275882E+02  0.96921706941E+02  0.00000000000E+00 0.  1.
<mgrwt>
<rscale>  2 0.17494076E+03</rscale>
<asrwt>0</asrwt>
<pdfrwt beam="1">  1       21 0.83815424E-01 0.17506736E+03</pdfrwt>
<pdfrwt beam="2">  1       21 0.91160294E-02 0.17506736E+03</pdfrwt>
<totfact> 0.11896377E+05</totfact>
</mgrwt>
</event>
<event>
12    1  0.1071811E-001  0.1872450E+03  0.7546771E-02  0.1161013E+00
         21   -1    0    0  501  502  0.00000000000E+00  0.00000000000E+00  0.14355081758E+03  0.14355081758E+03  0.00000000000E+00 0.  1.
         21   -1    0    0  502  503 -0.00000000000E+00 -0.00000000000E+00 -0.28587074967E+03  0.28587074967E+03  0.00000000000E+00 0.  1.
         -6    2    1    2    0  503 -0.39162440836E+02  0.60887567173E+02 -0.15337122131E+03  0.24204014609E+03  0.17268383881E+03 0.  0.
        -24    2    3    3    0    0 -0.88307409914E+02  0.59933377414E+01 -0.10012872714E+03  0.15101565711E+03  0.70326722864E+02 0.  0.
          6    2    1    2  501    0  0.39162440836E+02 -0.60887567173E+02  0.11051289216E+02  0.18738142116E+03  0.17247803742E+03 0.  0.
         24    2    5    5    0    0  0.59241129192E+02 -0.24128245455E+02  0.63427168559E+02  0.12015252710E+03  0.79510630986E+02 0.  0.
          5    1    5    5  501    0 -0.20078688357E+02 -0.36759321718E+02 -0.52375879343E+02  0.67228894058E+02  0.47000000000E+01 0. -1.
        -11    1    6    6    0    0  0.67382205841E+02 -0.27608810190E+01  0.18802723848E+02  0.70010903094E+02  0.00000000000E+00 0.  1.
         12    1    6    6    0    0 -0.81410766480E+01 -0.21367364436E+02  0.44624444711E+02  0.50141624003E+02  0.00000000000E+00 0. -1.
         -5    1    3    3    0  503  0.49144969078E+02  0.54894229432E+02 -0.53242494164E+02  0.91024488987E+02  0.47000000000E+01 0.  1.
         11    1    4    4    0    0 -0.20594593430E+02 -0.91411317539E+01  0.68113483047E+01  0.23539159586E+02  0.00000000000E+00 0. -1.
        -12    1    4    4    0    0 -0.67712816484E+02  0.15134469495E+02 -0.10694007545E+03  0.12747649752E+03  0.00000000000E+00 0.  1.
<mgrwt>
<rscale>  2 0.18719757E+03</rscale>
<asrwt>0</asrwt>
<pdfrwt beam="1">  1       21 0.22084742E-01 0.18724503E+03</pdfrwt>
<pdfrwt beam="2">  1       21 0.43980115E-01 0.18724503E+03</pdfrwt>
<totfact> 0.95377779E+04</totfact>
</mgrwt>
</event>
<event>
12    1  0.1071811E-001  0.2287121E+03  0.7546771E-02  0.1127588E+00
         21   -1    0    0  503  502  0.00000000000E+00  0.00000000000E+00  0.13247798475E+04  0.13247798475E+04  0.00000000000E+00 0.  1.
         21   -1    0    0  501  503 -0.00000000000E+00 -0.00000000000E+00 -0.43585666933E+02  0.43585666933E+02  0.00000000000E+00 0. -1.
          6    2    1    2  501    0 -0.65896975315E+02  0.13516676510E+03  0.85167442956E+03  0.88184950159E+03  0.17232743180E+03 0.  0.
         24    2    3    3    0    0 -0.11604313242E+02  0.29389744857E+02  0.56137256223E+03  0.56810799121E+03  0.81296487355E+02 0.  0.
         -6    2    1    2    0  502  0.65896975315E+02 -0.13516676510E+03  0.42951975102E+03  0.48651601285E+03  0.17204112445E+03 0.  0.
        -24    2    5    5    0    0  0.51649899180E+02 -0.48377358764E+02  0.10564332601E+03  0.15087720564E+03  0.81211685886E+02 0.  0.
          5    1    3    3  501    0 -0.54292662073E+02  0.10577702024E+03  0.29030186733E+03  0.31374151039E+03  0.47000000000E+01 0. -1.
        -11    1    4    4    0    0 -0.12765698565E+02  0.53631723120E+02  0.26113031961E+03  0.26688643391E+03  0.00000000000E+00 0.  1.
         12    1    4    4    0    0  0.11613853228E+01 -0.24241978263E+02  0.30024224262E+03  0.30122155730E+03  0.00000000000E+00 0. -1.
         -5    1    5    5    0  502  0.14247076136E+02 -0.86789406335E+02  0.32387642501E+03  0.33563880722E+03  0.47000000000E+01 0.  1.
         13    1    6    6    0    0  0.25439740939E+02 -0.68813699734E+02  0.82355188586E+02  0.11029452741E+03  0.00000000000E+00 0. -1.
        -14    1    6    6    0    0  0.26210158240E+02  0.20436340970E+02  0.23288137420E+02  0.40582678222E+02  0.00000000000E+00 0.  1.
<mgrwt>
<rscale>  2 0.22865814E+03</rscale>
<asrwt>0</asrwt>
<pdfrwt beam="1">  1       21 0.20381225E+00 0.22871207E+03</pdfrwt>
<pdfrwt beam="2">  1       21 0.67054883E-02 0.22871207E+03</pdfrwt>
<totfact> 0.20145450E+04</totfact>
</mgrwt>
</event>
<event>
12    1  0.1071811E-001  0.2159183E+03  0.7546771E-02  0.1137444E+00
         21   -1    0    0  501  502  0.00000000000E+00  0.00000000000E+00  0.92915718961E+03  0.92915718961E+03  0.00000000000E+00 0.  1.
         21   -1    0    0  502  503 -0.00000000000E+00 -0.00000000000E+00 -0.50541908356E+02  0.50541908356E+02  0.00000000000E+00 0.  1.
         -6    2    1    2    0  503  0.12279243096E+03 -0.40932570722E+02  0.37477432700E+03  0.43252344159E+03  0.17282151167E+03 0.  0.
        -24    2    3    3    0    0  0.10850762202E+03 -0.38602111828E+01  0.13950936005E+03  0.19388121925E+03  0.79613192185E+02 0.  0.
          6    2    1    2  501    0 -0.12279243096E+03  0.40932570722E+02  0.50384095426E+03  0.54717565638E+03  0.16968215964E+03 0.  0.
         24    2    5    5    0    0 -0.13494936953E+03  0.75461199996E+02  0.44289715086E+03  0.47592781734E+03  0.80272511115E+02 0.  0.
          5    1    5    5  501    0  0.12156938564E+02 -0.34528629273E+02  0.60943803397E+02  0.71247839035E+02  0.47000000000E+01 0. -1.
        -13    1    6    6    0    0 -0.28704548007E+02  0.56749195231E+02  0.20666119060E+03  0.21622504466E+03  0.00000000000E+00 0.  1.
         14    1    6    6    0    0 -0.10624482152E+03  0.18712004765E+02  0.23623596026E+03  0.25970277269E+03  0.00000000000E+00 0. -1.
         -5    1    3    3    0  503  0.14284808947E+02 -0.37072359540E+02  0.23526496695E+03  0.23864222234E+03  0.47000000000E+01 0.  1.
         13    1    4    4    0    0 -0.53015573467E+01  0.13143602452E+02  0.37554264170E+02  0.40139550982E+02  0.00000000000E+00 0. -1.
        -14    1    4    4    0    0  0.11380917936E+03 -0.17003813635E+02  0.10195509588E+03  0.15374166826E+03  0.00000000000E+00 0.  1.
<mgrwt>
<rscale>  2 0.21528949E+03</rscale>
<asrwt>0</asrwt>
<pdfrwt beam="1">  1       21 0.14294725E+00 0.21591834E+03</pdfrwt>
<pdfrwt beam="2">  1       21 0.77756789E-02 0.21591834E+03</pdfrwt>
<totfact> 0.42187620E+04</totfact>
</mgrwt>
</event>
<event>
12    1  0.1071811E-001  0.1907916E+03  0.7546771E-02  0.1158390E+00
         21   -1    0    0  501  502  0.00000000000E+00  0.00000000000E+00  0.25892259739E+03  0.25892259739E+03  0.00000000000E+00 0. -1.
         21   -1    0    0  502  503 -0.00000000000E+00 -0.00000000000E+00 -0.13851574009E+03  0.13851574009E+03  0.00000000000E+00 0. -1.
         -6    2    1    2    0  503  0.52051760959E+02  0.60694164307E+02  0.58308962588E+02  0.19679540048E+03  0.17010387159E+03 0.  0.
        -24    2    3    3    0    0 -0.18393469184E+02  0.51944373401E+02 -0.94853884564E+01  0.98524075440E+02  0.81120177580E+02 0.  0.
          6    2    1    2  501    0 -0.52051760959E+02 -0.60694164307E+02  0.62097894711E+02  0.20064293700E+03  0.17322895901E+03 0.  0.
         24    2    5    5    0    0 -0.36166004089E+02 -0.83168255417E+02 -0.11361921495E+02  0.12205619104E+03  0.80893027825E+02 0.  0.
          5    1    5    5  501    0 -0.15885756870E+02  0.22474091110E+02  0.73459816206E+02  0.78586745954E+02  0.47000000000E+01 0. -1.
        -13    1    6    6    0    0 -0.24259870284E+01  0.10387504198E+02 -0.19544844479E+02  0.22266266015E+02  0.00000000000E+00 0.  1.
         14    1    6    6    0    0 -0.33740017061E+02 -0.93555759615E+02  0.81829229842E+01  0.99789925027E+02  0.00000000000E+00 0. -1.
         -5    1    3    3    0  503  0.70445230143E+02  0.87497909066E+01  0.67794351045E+02  0.98271325036E+02  0.47000000000E+01 0.  1.
         11    1    4    4    0    0  0.66436300550E+01  0.41253558802E+02 -0.39850892540E+02  0.57741558434E+02  0.00000000000E+00 0. -1.
        -12    1    4    4    0    0 -0.25037099239E+02  0.10690814599E+02  0.30365504084E+02  0.40782517006E+02  0.00000000000E+00 0.  1.
<mgrwt>
<rscale>  2 0.19007942E+03</rscale>
<asrwt>0</asrwt>
<pdfrwt beam="1">  1       21 0.39834246E-01 0.19079161E+03</pdfrwt>
<pdfrwt beam="2">  1       21 0.21310114E-01 0.19079161E+03</pdfrwt>
<totfact> 0.12458289E+05</totfact>
</mgrwt>
</event>
<event>
12    1  0.1071811E-001  0.1807057E+03  0.7546771E-02  0.1168734E+00
         21   -1    0    0  501  502  0.00000000000E+00  0.00000000000E+00  0.92654933983E+02  0.92654933983E+02  0.00000000000E+00 0. -1.
         21   -1    0    0  502  503 -0.00000000000E+00 -0.00000000000E+00 -0.83458491789E+03  0.83458491789E+03  0.00000000000E+00 0. -1.
         -6    2    1    2    0  503 -0.43490100607E+02 -0.24642462533E+02 -0.72513948211E+03  0.74575579013E+03  0.16681064170E+03 0.  0.
        -24    2    3    3    0    0  0.20397781361E+02 -0.50397284594E+02 -0.52663489361E+03  0.53558649176E+03  0.80948274887E+02 0.  0.
          6    2    1    2  501    0  0.43490100607E+02  0.24642462533E+02 -0.16790501794E+02  0.18148406174E+03  0.17365455337E+03 0.  0.
         24    2    5    5    0    0  0.53839034334E+02 -0.44724252151E+02 -0.17059403646E+02  0.11119178732E+03  0.84697638491E+02 0.  0.
          5    1    5    5  501    0 -0.10348933727E+02  0.69366714684E+02  0.26890185219E+00  0.70292274423E+02  0.47000000000E+01 0. -1.
        -13    1    6    6    0    0  0.31482059472E+01 -0.45831621214E+02 -0.34630897092E+02  0.57530407066E+02  0.00000000000E+00 0.  1.
         14    1    6    6    0    0  0.50690828387E+02  0.11073690624E+01  0.17571493446E+02  0.53661380254E+02  0.00000000000E+00 0. -1.
         -5    1    3    3    0  503 -0.63887881968E+02  0.25754822060E+02 -0.19850458850E+03  0.21016929837E+03  0.47000000000E+01 0.  1.
         13    1    4    4    0    0  0.39519040340E+02  0.31945860111E+01 -0.25414068653E+03  0.25721479055E+03  0.00000000000E+00 0. -1.
        -14    1    4    4    0    0 -0.19121258978E+02 -0.53591870605E+02 -0.27249420708E+03  0.27837170121E+03  0.00000000000E+00 0.  1.
<mgrwt>
<rscale>  2 0.17904118E+03</rscale>
<asrwt>0</asrwt>
<pdfrwt beam="1">  1       21 0.14254605E-01 0.18070568E+03</pdfrwt>
<pdfrwt beam="2">  1       21 0.12839768E+00 0.18070568E+03</pdfrwt>
<totfact> 0.19342609E+04</totfact>
</mgrwt>
</event>
<event>
12    1  0.1071811E-001  0.3467389E+03  0.7546771E-02  0.1064034E+00
         21   -1    0    0  501  502  0.00000000000E+00  0.00000000000E+00  0.76944272056E+03  0.76944272056E+03  0.00000000000E+00 0. -1.
         21   -1    0    0  502  503 -0.00000000000E+00 -0.00000000000E+00 -0.15897308704E+03  0.15897308704E+03  0.00000000000E+00 0.  1.
         -6    2    1    2    0  503  0.20745432378E+03 -0.21656016575E+03  0.24081531804E+03  0.42159021976E+03  0.17265773700E+03 0.  0.
        -24    2    3    3    0    0  0.13515777411E+03 -0.21163735339E+03  0.22686403390E+03  0.34764596031E+03  0.79576570596E+02 0.  0.
          6    2    1    2  501    0 -0.20745432378E+03  0.21656016575E+03  0.36965431548E+03  0.50682558785E+03  0.17404672273E+03 0.  0.
         24    2    5    5    0    0 -0.32314716289E+02  0.85574127527E+02  0.72752685370E+02  0.13803853237E+03  0.73447334873E+02 0.  0.
          5    1    5    5  501    0 -0.17513960749E+03  0.13098603823E+03  0.29690163011E+03  0.36878705547E+03  0.47000000000E+01 0. -1.
        -11    1    6    6    0    0 -0.27607263874E+02  0.10144293218E+02 -0.47425182651E+01  0.29791931508E+02  0.00000000000E+00 0.  1.
         12    1    6    6    0    0 -0.47074524158E+01  0.75429834309E+02  0.77495203635E+02  0.10824660086E+03  0.00000000000E+00 0. -1.
         -5    1    3    3    0  503  0.72296549675E+02 -0.49228123642E+01  0.13951284132E+02  0.73944259449E+02  0.47000000000E+01 0.  1.
         13    1    4    4    0    0  0.81774561143E+02 -0.57604271330E+02  0.95318306560E+02  0.13816986101E+03  0.00000000000E+00 0. -1.
        -14    1    4    4    0    0  0.53383212964E+02 -0.15403308206E+03  0.13154572734E+03  0.20947609930E+03  0.00000000000E+00 0.  1.
<mgrwt>
<rscale>  2 0.34656499E+03</rscale>
<asrwt>0</asrwt>
<pdfrwt beam="1">  1       21 0.11837580E+00 0.34673890E+03</pdfrwt>
<pdfrwt beam="2">  1       21 0.24457398E-01 0.34673890E+03</pdfrwt>
<totfact> 0.79123326E+03</totfact>
</mgrwt>
</event>
<event>
12    1  0.1071811E-001  0.2890677E+03  0.7546771E-02  0.1090911E+00
         21   -1    0    0  503  502  0.00000000000E+00  0.00000000000E+00  0.41366541692E+03  0.41366541692E+03  0.00000000000E+00 0. -1.
         21   -1    0    0  501  503 -0.00000000000E+00 -0.00000000000E+00 -0.20529201993E+03  0.20529201993E+03  0.00000000000E+00 0.  1.
          6    2    1    2  501    0 -0.16312121190E+03 -0.16342392137E+03  0.14576890504E+03  0.32374168752E+03  0.17390859299E+03 0.  0.
         24    2    3    3    0    0 -0.98296163789E+02 -0.51708093075E+02  0.13675166213E+03  0.19418045171E+03  0.81664974303E+02 0.  0.
         -6    2    1    2    0  502  0.16312121190E+03  0.16342392137E+03  0.62604491948E+02  0.29521574932E+03  0.17296562776E+03 0.  0.
        -24    2    5    5    0    0  0.25485034074E+02  0.96203816763E+02  0.61724738101E+02  0.14196718040E+03  0.80250082213E+02 0.  0.
          5    1    3    3  501    0 -0.64825048111E+02 -0.11171582829E+03  0.90172429146E+01  0.12956123581E+03  0.47000000000E+01 0. -1.
        -13    1    4    4    0    0 -0.17956417112E+02  0.13987348167E+02  0.32084060226E+00  0.22763606106E+02  0.00000000000E+00 0.  1.
         14    1    4    4    0    0 -0.80339746678E+02 -0.65695441242E+02  0.13643082152E+03  0.17141684561E+03  0.00000000000E+00 0. -1.
         -5    1    5    5    0  502  0.13763617783E+03  0.67220104606E+02  0.87975384692E+00  0.15324856892E+03  0.47000000000E+01 0.  1.
         11    1    6    6    0    0  0.29692300842E+02  0.98939053555E+01  0.43607110183E+02  0.53675899163E+02  0.00000000000E+00 0. -1.
        -12    1    6    6    0    0 -0.42072667679E+01  0.86309911408E+02  0.18117627918E+02  0.88291281236E+02  0.00000000000E+00 0.  1.
<mgrwt>
<rscale>  2 0.28892597E+03</rscale>
<asrwt>0</asrwt>
<pdfrwt beam="1">  1       21 0.63640833E-01 0.28906765E+03</pdfrwt>
<pdfrwt beam="2">  1       21 0.31583388E-01 0.28906765E+03</pdfrwt>
<totfact> 0.20954020E+04</totfact>
</mgrwt>
</event>
<event>
12    1  0.1071811E-001  0.1777684E+03  0.7546771E-02  0.1171402E+00
         21   -1    0    0  501  502  0.00000000000E+00  0.00000000000E+00  0.23582101260E+03  0.23582101260E+03  0.00000000000E+00 0.  1.
         21   -1    0    0  502  503 -0.00000000000E+00 -0.00000000000E+00 -0.12985778952E+03  0.12985778952E+03  0.00000000000E+00 0.  1.
         -6    2    1    2    0  503  0.24726712900E+02 -0.27026666763E+02  0.58905096047E+02  0.18727363225E+03  0.17395330393E+03 0.  0.
        -24    2    3    3    0    0  0.60175432134E+02 -0.69857216479E+02  0.31052351225E+02  0.12491232150E+03  0.78343641861E+02 0.  0.
          6    2    1    2  501    0 -0.24726712900E+02  0.27026666763E+02  0.47058127031E+02  0.17840516986E+03  0.16814305299E+03 0.  0.
         24    2    5    5    0    0  0.33468777305E+02  0.27697072009E+02  0.56092651588E+02  0.11932152443E+03  0.95937238747E+02 0.  0.
          5    1    5    5  501    0 -0.58195490206E+02 -0.67040524562E+00 -0.90345245568E+01  0.59083645431E+02  0.47000000000E+01 0. -1.
        -13    1    6    6    0    0 -0.12832742330E+02 -0.74322374012E+01 -0.19166020191E+02  0.24233319180E+02  0.00000000000E+00 0.  1.
         14    1    6    6    0    0  0.46301519636E+02  0.35129309410E+02  0.75258671779E+02  0.95088205252E+02  0.00000000000E+00 0. -1.
         -5    1    3    3    0  503 -0.35448719234E+02  0.42830549715E+02  0.27852744822E+02  0.62361310749E+02  0.47000000000E+01 0.  1.
         13    1    4    4    0    0  0.11859908585E+02 -0.32646788403E+02  0.50153787615E+02  0.61007152341E+02  0.00000000000E+00 0. -1.
        -14    1    4    4    0    0  0.48315523550E+02 -0.37210428076E+02 -0.19101436390E+02  0.63905169162E+02  0.00000000000E+00 0.  1.
<mgrwt>
<rscale>  2 0.17633070E+03</rscale>
<asrwt>0</asrwt>
<pdfrwt beam="1">  1       21 0.36280156E-01 0.17776840E+03</pdfrwt>
<pdfrwt beam="2">  1       21 0.19978122E-01 0.17776840E+03</pdfrwt>
<totfact> 0.17024067E+05</totfact>
</mgrwt>
</event>
<event>
12    1  0.1071811E-001  0.2500591E+03  0.7546771E-02  0.1113477E+00
         21   -1    0    0  503  502  0.00000000000E+00  0.00000000000E+00  0.76508255158E+02  0.76508255158E+02  0.00000000000E+00 0. -1.
         21   -1    0    0  501  503 -0.00000000000E+00 -0.00000000000E+00 -0.11926553164E+04  0.11926553164E+04  0.00000000000E+00 0.  1.
          6    2    1    2  501    0  0.17974956190E+03  0.33630298664E+02 -0.91511301839E+03  0.94831428659E+03  0.16860381881E+03 0.  0.
         24    2    3    3    0    0  0.26794990556E+02 -0.10164150800E+02 -0.24856068999E+03  0.26302080844E+03  0.81094066243E+02 0.  0.
         -6    2    1    2    0  502 -0.17974956190E+03 -0.33630298664E+02 -0.20103404281E+03  0.32084928493E+03  0.17055402453E+03 0.  0.
        -24    2    5    5    0    0 -0.83495070716E+02 -0.44890212199E+02 -0.36235452087E+02  0.12961022452E+03  0.80617890854E+02 0.  0.
          5    1    3    3  501    0  0.15295457134E+03  0.43794449465E+02 -0.66655232840E+03  0.68529347815E+03  0.47000000000E+01 0. -1.
        -13    1    4    4    0    0  0.55953004521E+02 -0.66529955340E+01 -0.17343069419E+03  0.18235461813E+03  0.00000000000E+00 0.  1.
         14    1    4    4    0    0 -0.29158013966E+02 -0.35111552662E+01 -0.75129995800E+02  0.80666190306E+02  0.00000000000E+00 0. -1.
         -5    1    5    5    0  502 -0.96254491182E+02  0.11259913535E+02 -0.16479859072E+03  0.19123906042E+03  0.47000000000E+01 0.  1.
         13    1    6    6    0    0 -0.26620862122E+02 -0.44828485696E+02 -0.48747063204E+02  0.71376043606E+02  0.00000000000E+00 0. -1.
        -14    1    6    6    0    0 -0.56874208594E+02 -0.61726503463E-01  0.12511611117E+02  0.58234180909E+02  0.00000000000E+00 0.  1.
<mgrwt>
<rscale>  2 0.24972697E+03</rscale>
<asrwt>0</asrwt>
<pdfrwt beam="1">  1       21 0.11770501E-01 0.25005915E+03</pdfrwt>
<pdfrwt beam="2">  1       21 0.18348543E+00 0.25005915E+03</pdfrwt>
<totfact> 0.10039523E+04</totfact>
</mgrwt>
</event>
<event>
12    1  0.1071811E-001  0.2092721E+03  0.7546771E-02  0.1142900E+00
         21   -1    0    0  503  502  0.00000000000E+00  0.00000000000E+00  0.13553680202E+04  0.13553680202E+04  0.00000000000E+00 0. -1.
         21   -1    0    0  501  503 -0.00000000000E+00 -0.00000000000E+00 -0.67156847950E+02  0.67156847950E+02  0.00000000000E+00 0. -1.
          6    2    1    2  501    0  0.11457506845E+03 -0.19637182604E+02  0.12478321435E+03  0.24042528408E+03  0.16947094557E+03 0.  0.
         24    2    3    3    0    0  0.41841897992E+02 -0.63669278491E+02  0.34461041527E+02  0.11629178958E+03  0.80818905525E+02 0.  0.
         -6    2    1    2    0  502 -0.11457506845E+03  0.19637182604E+02  0.11634279579E+04  0.11820995840E+04  0.17401651697E+03 0.  0.
        -24    2    5    5    0    0 -0.29234133434E+01  0.34468287632E+02  0.66384775746E+03  0.66995847028E+03  0.83390033053E+02 0.  0.
          5    1    3    3  501    0  0.72733170455E+02  0.44032095887E+02  0.90322172819E+02  0.12413349449E+03  0.47000000000E+01 0. -1.
        -11    1    4    4    0    0 -0.67391378069E+01 -0.31104675413E+02  0.46724726174E+02  0.56534209528E+02  0.00000000000E+00 0.  1.
         12    1    4    4    0    0  0.48581035799E+02 -0.32564603078E+02 -0.12263684647E+02  0.59757580055E+02  0.00000000000E+00 0. -1.
         -5    1    5    5    0  502 -0.11165165510E+03 -0.14831105028E+02  0.49958020041E+03  0.51214111376E+03  0.47000000000E+01 0.  1.
         11    1    6    6    0    0 -0.37506281794E+02  0.16690470671E+02  0.49462206520E+03  0.49632275826E+03  0.00000000000E+00 0. -1.
        -12    1    6    6    0    0  0.34582868451E+02  0.17777816961E+02  0.16922569226E+03  0.17363571202E+03  0.00000000000E+00 0.  1.
<mgrwt>
<rscale>  2 0.20832462E+03</rscale>
<asrwt>0</asrwt>
<pdfrwt beam="1">  1       21 0.20851814E+00 0.20927210E+03</pdfrwt>
<pdfrwt beam="2">  1       21 0.10331824E-01 0.20927210E+03</pdfrwt>
<totfact> 0.89519553E+03</totfact>
</mgrwt>
</event>
<event>
12    1  0.1071811E-001  0.2076990E+03  0.7546771E-02  0.1143536E+00
         21   -1    0    0  503  502  0.00000000000E+00  0.00000000000E+00  0.61574434344E+03  0.61574434344E+03  0.00000000000E+00 0.  1.
         21   -1    0    0  501  503 -0.00000000000E+00 -0.00000000000E+00 -0.10122651828E+03  0.10122651828E+03  0.00000000000E+00 0.  1.
          6    2    1    2  501    0  0.91825136281E+02 -0.67221010842E+02  0.45718196769E+03  0.50214961333E+03  0.17374798599E+03 0.  0.
         24    2    3    3    0    0  0.12565185015E+03 -0.64983731231E+02  0.42503020167E+03  0.45519135475E+03  0.80853103429E+02 0.  0.
         -6    2    1    2    0  502 -0.91825136281E+02  0.67221010842E+02  0.57335857470E+02  0.21482124839E+03  0.17294579572E+03 0.  0.
        -24    2    5    5    0    0 -0.46074409528E+02  0.10941753903E+03  0.29378134642E+02  0.14642972659E+03  0.80520438234E+02 0.  0.
          5    1    3    3  501    0 -0.33826713869E+02 -0.22372796108E+01  0.32151766024E+02  0.46958258588E+02  0.47000000000E+01 0. -1.
        -11    1    4    4    0    0  0.67059539202E+02 -0.78051660343E+02  0.26954824207E+03  0.28852261312E+03  0.00000000000E+00 0.  1.
         12    1    4    4    0    0  0.58592310947E+02  0.13067929113E+02  0.15548195960E+03  0.16666874162E+03  0.00000000000E+00 0. -1.
         -5    1    5    5    0  502 -0.45750726753E+02 -0.42196528184E+02  0.27957722829E+02  0.68391521806E+02  0.47000000000E+01 0.  1.
         11    1    6    6    0    0 -0.14479405855E+02  0.34619788612E+02  0.50133238648E+02  0.62622077375E+02  0.00000000000E+00 0. -1.
        -12    1    6    6    0    0 -0.31595003672E+02  0.74797750413E+02 -0.20755104006E+02  0.83807649211E+02  0.00000000000E+00 0.  1.
<mgrwt>
<rscale>  2 0.20753117E+03</rscale>
<asrwt>0</asrwt>
<pdfrwt beam="1">  1       21 0.94729897E-01 0.20769902E+03</pdfrwt>
<pdfrwt beam="2">  1       21 0.15573311E-01 0.20769902E+03</pdfrwt>
<totfact> 0.33881082E+04</totfact>
</mgrwt>
</event>
<event>
12    1  0.1071811E-001  0.1800835E+03  0.7546771E-02  0.1168145E+00
         21   -1    0    0  503  502  0.00000000000E+00  0.00000000000E+00  0.15139165187E+03  0.15139165187E+03  0.00000000000E+00 0. -1.
         21   -1    0    0  501  503 -0.00000000000E+00 -0.00000000000E+00 -0.22795309780E+03  0.22795309780E+03  0.00000000000E+00 0. -1.
          6    2    1    2  501    0 -0.42651250591E+02 -0.15490247976E+02 -0.88393754913E+02  0.20060784288E+03  0.17427269940E+03 0.  0.
         24    2    3    3    0    0  0.23047004299E+02  0.27121899742E+02 -0.77822921298E+01  0.88125160830E+02  0.80241622913E+02 0.  0.
         -6    2    1    2    0  502  0.42651250591E+02  0.15490247976E+02  0.11832308986E+02  0.17873690679E+03  0.17247550943E+03 0.  0.
        -24    2    5    5    0    0  0.88058180016E+02 -0.15165325539E+02  0.25572461214E+02  0.12205855810E+03  0.79120861129E+02 0.  0.
          5    1    3    3  501    0 -0.65698254891E+02 -0.42612147718E+02 -0.80611462783E+02  0.11248268205E+03  0.47000000000E+01 0. -1.
        -11    1    4    4    0    0  0.13343425416E+01  0.49756744635E+02 -0.21083955757E+02  0.54055964491E+02  0.00000000000E+00 0.  1.
         12    1    4    4    0    0  0.21712661758E+02 -0.22634844893E+02  0.13301663627E+02  0.34069196339E+02  0.00000000000E+00 0. -1.
         -5    1    5    5    0  502 -0.45406929424E+02  0.30655573515E+02 -0.13740152228E+02  0.56678348693E+02  0.47000000000E+01 0.  1.
         13    1    6    6    0    0  0.54447737252E+02  0.30668910605E+02  0.14551649963E+02  0.64162985328E+02  0.00000000000E+00 0. -1.
        -14    1    6    6    0    0  0.33610442764E+02 -0.45834236143E+02  0.11020811251E+02  0.57895572769E+02  0.00000000000E+00 0.  1.
<mgrwt>
<rscale>  2 0.17964722E+03</rscale>
<asrwt>0</asrwt>
<pdfrwt beam="1">  1       21 0.23291023E-01 0.18008345E+03</pdfrwt>
<pdfrwt beam="2">  1       21 0.35069707E-01 0.18008345E+03</pdfrwt>
<totfact> 0.13641566E+05</totfact>
</mgrwt>
</event>
<event>
12    1  0.1071811E-001  0.2014078E+03  0.7546771E-02  0.1148666E+00
         21   -1    0    0  501  502  0.00000000000E+00  0.00000000000E+00  0.52756503476E+02  0.52756503476E+02  0.00000000000E+00 0. -1.
         21   -1    0    0  502  503 -0.00000000000E+00 -0.00000000000E+00 -0.76836125166E+03  0.76836125166E+03  0.00000000000E+00 0. -1.
         -6    2    1    2    0  503  0.24028822623E+02 -0.99517455784E+02 -0.37608347033E+03  0.42661910548E+03  0.17344732970E+03 0.  0.
        -24    2    3    3    0    0 -0.43067541776E+02 -0.59905438885E+02 -0.14192785972E+03  0.17979533438E+03  0.82093666855E+02 0.  0.
          6    2    1    2  501    0 -0.24028822623E+02  0.99517455784E+02 -0.33952127785E+03  0.39449864966E+03  0.17283916843E+03 0.  0.
         24    2    5    5    0    0  0.10916713724E+02  0.10038437565E+03 -0.13957355317E+03  0.19146386282E+03  0.83554990929E+02 0.  0.
          5    1    5    5  501    0 -0.34945536347E+02 -0.86691986180E+00 -0.19994772468E+03  0.20303478684E+03  0.47000000000E+01 0. -1.
        -13    1    6    6    0    0 -0.86824649704E+01  0.12137629079E+02 -0.84076346964E+02  0.85390510928E+02  0.00000000000E+00 0.  1.
         14    1    6    6    0    0  0.19599178694E+02  0.88246746567E+02 -0.55497206206E+02  0.10607335189E+03  0.00000000000E+00 0. -1.
         -5    1    3    3    0  503  0.67096364399E+02 -0.39612016899E+02 -0.23415561061E+03  0.24682377110E+03  0.47000000000E+01 0.  1.
         13    1    4    4    0    0 -0.12367356119E+02 -0.72030593871E+02 -0.72622155047E+02  0.10303074956E+03  0.00000000000E+00 0. -1.
        -14    1    4    4    0    0 -0.30700185657E+02  0.12125154986E+02 -0.69305704673E+02  0.76764584823E+02  0.00000000000E+00 0.  1.
<mgrwt>
<rscale>  2 0.20127676E+03</rscale>
<asrwt>0</asrwt>
<pdfrwt beam="1">  1       21 0.81163862E-02 0.20140776E+03</pdfrwt>
<pdfrwt beam="2">  1       21 0.11820941E+00 0.20140776E+03</pdfrwt>
<totfact> 0.63859776E+04</totfact>
</mgrwt>
</event>
<event>
12    1  0.1071811E-001  0.2043377E+03  0.7546771E-02  0.1146173E+00
         21   -1    0    0  501  502  0.00000000000E+00  0.00000000000E+00  0.13135669362E+04  0.13135669362E+04  0.00000000000E+00 0. -1.
         21   -1    0    0  502  503 -0.00000000000E+00 -0.00000000000E+00 -0.10352038138E+03  0.10352038138E+03  0.00000000000E+00 0. -1.
         -6    2    1    2    0  503  0.61940761923E+02 -0.89243493270E+02  0.14980377815E+02  0.20467770003E+03  0.17282213426E+03 0.  0.
        -24    2    3    3    0    0  0.96259951314E+02 -0.99892686624E+02  0.36134653597E+02  0.16271574746E+03  0.76981648537E+02 0.  0.
          6    2    1    2  501    0 -0.61940761923E+02  0.89243493270E+02  0.11950661770E+04  0.12124096175E+04  0.17306892919E+03 0.  0.
         24    2    5    5    0    0 -0.87063389560E+02  0.11469114852E+03  0.88796170511E+03  0.90319452053E+03  0.80933669226E+02 0.  0.
          5    1    5    5  501    0  0.25122627637E+02 -0.25447655246E+02  0.30710447185E+03  0.30921509699E+03  0.47000000000E+01 0. -1.
        -11    1    6    6    0    0 -0.18231639601E+02  0.38883117278E+01  0.31589927570E+03  0.31644883321E+03  0.00000000000E+00 0.  1.
         12    1    6    6    0    0 -0.68831749959E+02  0.11080283679E+03  0.57206242941E+03  0.58674568731E+03  0.00000000000E+00 0. -1.
         -5    1    3    3    0  503 -0.34319189392E+02  0.10649193355E+02 -0.21154275782E+02  0.41961952570E+02  0.47000000000E+01 0.  1.
         11    1    4    4    0    0  0.77554783163E+02 -0.85316088686E+02  0.59222983005E+02  0.12961844427E+03  0.00000000000E+00 0. -1.
        -12    1    4    4    0    0  0.18705168152E+02 -0.14576597938E+02 -0.23088329408E+02  0.33097303181E+02  0.00000000000E+00 0.  1.
<mgrwt>
<rscale>  2 0.20428548E+03</rscale>
<asrwt>0</asrwt>
<pdfrwt beam="1">  1       21 0.20208721E+00 0.20433774E+03</pdfrwt>
<pdfrwt beam="2">  1       21 0.15926213E-01 0.20433774E+03</pdfrwt>
<totfact> 0.45289217E+03</totfact>
</mgrwt>
</event>
<event>
12    1  0.1071811E-001  0.1952434E+03  0.7546771E-02  0.1153938E+00
         21   -1    0    0  501  502  0.00000000000E+00  0.00000000000E+00  0.54379993164E+03  0.54379993164E+03  0.00000000000E+00 0. -1.
         21   -1    0    0  502  503 -0.00000000000E+00 -0.00000000000E+00 -0.13219357249E+03  0.13219357249E+03  0.00000000000E+00 0. -1.
         -6    2    1    2    0  503  0.17121444941E+02 -0.87849292097E+02 -0.26379088830E+02  0.19646118060E+03  0.17288868430E+03 0.  0.
        -24    2    3    3    0    0 -0.42941476593E+02 -0.98599358242E+01 -0.32730805999E+02  0.97707301967E+02  0.80834537482E+02 0.  0.
          6    2    1    2  501    0 -0.17121444941E+02  0.87849292097E+02  0.43798544798E+03  0.47953232353E+03  0.17352047335E+03 0.  0.
         24    2    5    5    0    0  0.26873885706E+02  0.10622361117E+03  0.37465119369E+03  0.40011870703E+03  0.87896538462E+02 0.  0.
          5    1    5    5  501    0 -0.43995330646E+02 -0.18374319078E+02  0.63334254289E+02  0.79413616506E+02  0.47000000000E+01 0. -1.
        -13    1    6    6    0    0  0.12216000174E+02 -0.13573714942E+02  0.72266397586E+02  0.74537967625E+02  0.00000000000E+00 0.  1.
         14    1    6    6    0    0  0.14657885531E+02  0.11979732612E+03  0.30238479611E+03  0.32558073940E+03  0.00000000000E+00 0. -1.
         -5    1    3    3    0  503  0.60062921533E+02 -0.77989356273E+02  0.63517171692E+01  0.98753878638E+02  0.47000000000E+01 0.  1.
         11    1    4    4    0    0 -0.28903464427E+02  0.55978050643E+01 -0.57929571961E+02  0.64981389528E+02  0.00000000000E+00 0. -1.
        -12    1    4    4    0    0 -0.14038012166E+02 -0.15457740888E+02  0.25198765962E+02  0.32725912439E+02  0.00000000000E+00 0.  1.
<mgrwt>
<rscale>  2 0.19510296E+03</rscale>
<asrwt>0</asrwt>
<pdfrwt beam="1">  1       21 0.83661526E-01 0.19524343E+03</pdfrwt>
<pdfrwt beam="2">  1       21 0.20337473E-01 0.19524343E+03</pdfrwt>
<totfact> 0.27757089E+04</totfact>
</mgrwt>
</event>
<event>
12    1  0.1071811E-001  0.1772446E+03  0.7546771E-02  0.1170639E+00
         21   -1    0    0  503  502  0.00000000000E+00  0.00000000000E+00  0.47851369892E+03  0.47851369892E+03  0.00000000000E+00 0. -1.
         21   -1    0    0  501  503 -0.00000000000E+00 -0.00000000000E+00 -0.75025012610E+02  0.75025012610E+02  0.00000000000E+00 0. -1.
          6    2    1    2  501    0 -0.29368810445E+02 -0.25232487631E+02  0.10310242614E+03  0.20505060555E+03  0.17296368145E+03 0.  0.
         24    2    3    3    0    0 -0.45942085848E+02 -0.78651455778E+02  0.91957344922E+02  0.14782681285E+03  0.71413490078E+02 0.  0.
         -6    2    1    2    0  502  0.29368810445E+02  0.25232487631E+02  0.30038626017E+03  0.34848810598E+03  0.17237415482E+03 0.  0.
        -24    2    5    5    0    0  0.66071824699E+02 -0.16262234261E+02  0.12236022289E+03  0.16198265526E+03  0.81464164975E+02 0.  0.
          5    1    3    3  501    0  0.16573275403E+02  0.53418968146E+02  0.11145081215E+02  0.57223792697E+02  0.47000000000E+01 0. -1.
        -11    1    4    4    0    0 -0.51860043681E+02 -0.23197064111E+02  0.29221385543E+02  0.63886284030E+02  0.00000000000E+00 0.  1.
         12    1    4    4    0    0  0.59179578333E+01 -0.55454391666E+02  0.62735959379E+02  0.83940528823E+02  0.00000000000E+00 0. -1.
         -5    1    5    5    0  502 -0.36703014254E+02  0.41494721892E+02  0.17802603728E+03  0.18650545072E+03  0.47000000000E+01 0.  1.
         13    1    6    6    0    0  0.91302558284E+01 -0.42390800152E+02  0.46135905644E+02  0.63315584958E+02  0.00000000000E+00 0. -1.
        -14    1    6    6    0    0  0.56941568871E+02  0.26128565892E+02  0.76224317249E+02  0.98667070298E+02  0.00000000000E+00 0.  1.
<mgrwt>
<rscale>  2 0.17710059E+03</rscale>
<asrwt>0</asrwt>
<pdfrwt beam="1">  1       21 0.73617490E-01 0.17724458E+03</pdfrwt>
<pdfrwt beam="2">  1       21 0.11542310E-01 0.17724458E+03</pdfrwt>
<totfact> 0.10486856E+05</totfact>
</mgrwt>
</event>
<event>
12    1  0.1071811E-001  0.2096452E+03  0.7546771E-02  0.1142291E+00
         21   -1    0    0  501  502  0.00000000000E+00  0.00000000000E+00  0.66375858002E+03  0.66375858002E+03  0.00000000000E+00 0.  1.
         21   -1    0    0  502  503 -0.00000000000E+00 -0.00000000000E+00 -0.88239212448E+02  0.88239212448E+02  0.00000000000E+00 0. -1.
         -6    2    1    2    0  503  0.78366619817E+02  0.84945375030E+02  0.98093256764E+02  0.23145931490E+03  0.17491164510E+03 0.  0.
        -24    2    3    3    0    0 -0.13227260029E+02  0.39932082854E+02  0.92110173543E+02  0.12911908536E+03  0.80111937218E+02 0.  0.
          6    2    1    2  501    0 -0.78366619817E+02 -0.84945375030E+02  0.47742611081E+03  0.52053847757E+03  0.17224276910E+03 0.  0.
         24    2    5    5    0    0 -0.54085146704E+02 -0.51175385175E+02  0.46336506739E+03  0.47638188018E+03  0.81782558907E+02 0.  0.
          5    1    5    5  501    0 -0.24281473113E+02 -0.33769989855E+02  0.14061043420E+02  0.44156597394E+02  0.47000000000E+01 0. -1.
        -11    1    6    6    0    0  0.15643873126E+02 -0.35474516837E+02  0.14517705348E+03  0.15026492927E+03  0.00000000000E+00 0.  1.
         12    1    6    6    0    0 -0.69729019830E+02 -0.15700868338E+02  0.31818801391E+03  0.32611695091E+03  0.00000000000E+00 0. -1.
         -5    1    3    3    0  503  0.91593879846E+02  0.45013292176E+02  0.59830832211E+01  0.10234022954E+03  0.47000000000E+01 0.  1.
         11    1    4    4    0    0  0.75028632717E+01  0.39348967287E+02  0.59489367579E+01  0.40497210180E+02  0.00000000000E+00 0. -1.
        -12    1    4    4    0    0 -0.20730123301E+02  0.58311556721E+00  0.86161236785E+02  0.88621875178E+02  0.00000000000E+00 0.  1.
<mgrwt>
<rscale>  2 0.20908765E+03</rscale>
<asrwt>0</asrwt>
<pdfrwt beam="1">  1       21 0.10211670E+00 0.20964524E+03</pdfrwt>
<pdfrwt beam="2">  1       21 0.13575264E-01 0.20964524E+03</pdfrwt>
<totfact> 0.36376629E+04</totfact>
</mgrwt>
</event>
<event>
12    1  0.1071811E-001  0.2066808E+03  0.7546771E-02  0.1144252E+00
         21   -1    0    0  503  502  0.00000000000E+00  0.00000000000E+00  0.36954750153E+03  0.36954750153E+03  0.00000000000E+00 0.  1.
         21   -1    0    0  501  503 -0.00000000000E+00 -0.00000000000E+00 -0.14340152279E+03  0.14340152279E+03  0.00000000000E+00 0.  1.
          6    2    1    2  501    0 -0.10417452425E+03  0.41641654916E+02 -0.74668736538E-01  0.20652981793E+03  0.17340184887E+03 0.  0.
         24    2    3    3    0    0  0.13859873243E+02  0.73702206677E+01  0.53798859767E+01  0.83409988640E+02  0.81742686479E+02 0.  0.
         -6    2    1    2    0  502  0.10417452425E+03 -0.41641654916E+02  0.22622064747E+03  0.30641920640E+03  0.17358165162E+03 0.  0.
        -24    2    5    5    0    0 -0.93048884725E+01 -0.42495346394E+02  0.12155643410E+03  0.15196858820E+03  0.80162645375E+02 0.  0.
          5    1    3    3  501    0 -0.11803439749E+03  0.34271434248E+02 -0.54545547133E+01  0.12311982929E+03  0.47000000000E+01 0. -1.
        -13    1    4    4    0    0  0.13394555211E+02 -0.36082513770E+02  0.98401940731E+01  0.39726456281E+02  0.00000000000E+00 0.  1.
         14    1    4    4    0    0  0.46531803228E+00  0.43452734438E+02 -0.44603080964E+01  0.43683532359E+02  0.00000000000E+00 0. -1.
         -5    1    5    5    0  502  0.11347941272E+03  0.85369147781E+00  0.10466421337E+03  0.15445061819E+03  0.47000000000E+01 0.  1.
         13    1    6    6    0    0  0.30640990603E+02 -0.50769646277E+01  0.21034392610E+02  0.37511218954E+02  0.00000000000E+00 0. -1.
        -14    1    6    6    0    0 -0.39945879075E+02 -0.37418381766E+02  0.10052204149E+03  0.11445736925E+03  0.00000000000E+00 0.  1.
<mgrwt>
<rscale>  2 0.20664303E+03</rscale>
<asrwt>0</asrwt>
<pdfrwt beam="1">  1       21 0.56853461E-01 0.20668079E+03</pdfrwt>
<pdfrwt beam="2">  1       21 0.22061773E-01 0.20668079E+03</pdfrwt>
<totfact> 0.55455037E+04</totfact>
</mgrwt>
</event>
<event>
12    1  0.1071811E-001  0.2588140E+03  0.7546771E-02  0.1107871E+00
         21   -1    0    0  501  502  0.00000000000E+00  0.00000000000E+00  0.91420418308E+03  0.91420418308E+03  0.00000000000E+00 0.  1.
         21   -1    0    0  502  503 -0.00000000000E+00 -0.00000000000E+00 -0.73365460302E+02  0.73365460302E+02  0.00000000000E+00 0.  1.
         -6    2    1    2    0  503  0.16522123250E+03  0.98487785461E+02  0.44020135618E+03  0.51060530051E+03  0.17303941568E+03 0.  0.
        -24    2    3    3    0    0  0.13277800553E+03  0.10941620026E+03  0.43681044433E+03  0.47588381568E+03  0.77846888903E+02 0.  0.
          6    2    1    2  501    0 -0.16522123250E+03 -0.98487785461E+02  0.40063736660E+03  0.47696434287E+03  0.17316692900E+03 0.  0.
         24    2    5    5    0    0 -0.17290747244E+03 -0.12670247491E+03  0.34869059595E+03  0.41716715258E+03  0.80577852515E+02 0.  0.
          5    1    5    5  501    0  0.76862399361E+01  0.28214689452E+02  0.51946770654E+02  0.59797190291E+02  0.47000000000E+01 0. -1.
        -13    1    6    6    0    0 -0.12332723300E+03 -0.12049586025E+03  0.30694241307E+03  0.35205468847E+03  0.00000000000E+00 0.  1.
         14    1    6    6    0    0 -0.49580239436E+02 -0.62066146622E+01  0.41748182879E+02  0.65112464105E+02  0.00000000000E+00 0. -1.
         -5    1    3    3    0  503  0.32443226968E+02 -0.10928414798E+02  0.33909118431E+01  0.34721484836E+02  0.47000000000E+01 0.  1.
         11    1    4    4    0    0  0.47574435748E+02 -0.27807120481E+01  0.98982463132E+02  0.10985712223E+03  0.00000000000E+00 0. -1.
        -12    1    4    4    0    0  0.85203569784E+02  0.11219691231E+03  0.33782798120E+03  0.36602669345E+03  0.00000000000E+00 0.  1.
<mgrwt>
<rscale>  2 0.25879267E+03</rscale>
<asrwt>0</asrwt>
<pdfrwt beam="1">  1       21 0.14064679E+00 0.25881400E+03</pdfrwt>
<pdfrwt beam="2">  1       21 0.11286995E-01 0.25881400E+03</pdfrwt>
<totfact> 0.22278657E+04</totfact>
</mgrwt>
</event>
<event>
12    1  0.1071811E-001  0.1776515E+03  0.7546771E-02  0.1171643E+00
         21   -1    0    0  501  502  0.00000000000E+00  0.00000000000E+00  0.95594152830E+03  0.95594152830E+03  0.00000000000E+00 0. -1.
         21   -1    0    0  502  503 -0.00000000000E+00 -0.00000000000E+00 -0.38422849767E+02  0.38422849767E+02  0.00000000000E+00 0. -1.
         -6    2    1    2    0  503  0.17326388847E+02  0.30848547730E+02  0.67065761079E+03  0.69378792051E+03  0.17409253600E+03 0.  0.
        -24    2    3    3    0    0 -0.49417725423E+01 -0.48011113557E+02  0.27915788803E+03  0.29377687053E+03  0.77757540253E+02 0.  0.
          6    2    1    2  501    0 -0.17326388847E+02 -0.30848547730E+02  0.24686106774E+03  0.30057645755E+03  0.16779148793E+03 0.  0.
         24    2    5    5    0    0 -0.30531235182E+02 -0.81195257559E+02  0.16030470644E+03  0.19946635499E+03  0.81020995408E+02 0.  0.
          5    1    5    5  501    0  0.13204846335E+02  0.50346709828E+02  0.86556361302E+02  0.10111010256E+03  0.47000000000E+01 0. -1.
        -13    1    6    6    0    0 -0.47911104270E+02 -0.16966888043E+02  0.84436263093E+02  0.98553699714E+02  0.00000000000E+00 0.  1.
         14    1    6    6    0    0  0.17379869089E+02 -0.64228369515E+02  0.75868443345E+02  0.10091265528E+03  0.00000000000E+00 0. -1.
         -5    1    3    3    0  503  0.22268161389E+02  0.78859661288E+02  0.39149972276E+03  0.40001104998E+03  0.47000000000E+01 0.  1.
         13    1    4    4    0    0 -0.36939707392E+01  0.20764093151E+02  0.44497826641E+02  0.49242761498E+02  0.00000000000E+00 0. -1.
        -14    1    4    4    0    0 -0.12478018031E+01 -0.68775206709E+02  0.23466006139E+03  0.24453410903E+03  0.00000000000E+00 0.  1.
<mgrwt>
<rscale>  2 0.17608841E+03</rscale>
<asrwt>0</asrwt>
<pdfrwt beam="1">  1       21 0.14706791E+00 0.17765148E+03</pdfrwt>
<pdfrwt beam="2">  1       21 0.59112084E-02 0.17765148E+03</pdfrwt>
<totfact> 0.64182569E+04</totfact>
</mgrwt>
</event>
<event>
12    1  0.1071811E-001  0.2141709E+03  0.7546771E-02  0.1139518E+00
         21   -1    0    0  503  502  0.00000000000E+00  0.00000000000E+00  0.55050450832E+03  0.55050450832E+03  0.00000000000E+00 0.  1.
         21   -1    0    0  501  503 -0.00000000000E+00 -0.00000000000E+00 -0.89598161286E+02  0.89598161286E+02  0.00000000000E+00 0.  1.
          6    2    1    2  501    0 -0.12094898419E+03 -0.34723511534E+02  0.32692507708E+03  0.38747613943E+03  0.16560004099E+03 0.  0.
         24    2    3    3    0    0 -0.19211571418E+02  0.12782553759E+02  0.74717864611E+02  0.11136403282E+03  0.79288778253E+02 0.  0.
         -6    2    1    2    0  502  0.12094898419E+03  0.34723511534E+02  0.13398126996E+03  0.25262653018E+03  0.17330552218E+03 0.  0.
        -24    2    5    5    0    0  0.11545414924E+03  0.14042396793E+02  0.25718357009E+02  0.14216907213E+03  0.77612896471E+02 0.  0.
          5    1    3    3  501    0 -0.10173741278E+03 -0.47506065292E+02  0.25220721247E+03  0.27611210661E+03  0.47000000000E+01 0. -1.
        -11    1    4    4    0    0 -0.21981519163E+02 -0.20629320120E+01 -0.10761290347E+02  0.24561112416E+02  0.00000000000E+00 0.  1.
         12    1    4    4    0    0  0.27699477454E+01  0.14845485771E+02  0.85479154958E+02  0.86802920404E+02  0.00000000000E+00 0. -1.
         -5    1    5    5    0  502  0.54948349543E+01  0.20681114741E+02  0.10826291295E+03  0.11045745805E+03  0.47000000000E+01 0.  1.
         13    1    6    6    0    0  0.72129771504E+02 -0.68935864700E+00 -0.22629324223E+02  0.75599374781E+02  0.00000000000E+00 0. -1.
        -14    1    6    6    0    0  0.43324377735E+02  0.14731755440E+02  0.48347681232E+02  0.66569697348E+02  0.00000000000E+00 0.  1.
<mgrwt>
<rscale>  2 0.21260740E+03</rscale>
<asrwt>0</asrwt>
<pdfrwt beam="1">  1       21 0.84692999E-01 0.21417092E+03</pdfrwt>
<pdfrwt beam="2">  1       21 0.13784333E-01 0.21417092E+03</pdfrwt>
<totfact> 0.54681220E+04</totfact>
</mgrwt>
</event>
<event>
12    1  0.1071811E-001  0.2560071E+03  0.7546771E-02  0.1109657E+00
         21   -1    0    0  501  502  0.00000000000E+00  0.00000000000E+00  0.56804590007E+03  0.56804590007E+03  0.00000000000E+00 0. -1.
         21   -1    0    0  502  503 -0.00000000000E+00 -0.00000000000E+00 -0.12363119516E+03  0.12363119516E+03  0.00000000000E+00 0. -1.
         -6    2    1    2    0  503 -0.18821125535E+03  0.15542340127E+02  0.13118478758E+03  0.28713708127E+03  0.17196864241E+03 0.  0.
        -24    2    3    3    0    0 -0.18425385830E+03  0.56983020783E+02  0.12860831913E+03  0.24516424250E+03  0.79805119475E+02 0.  0.
          6    2    1    2  501    0  0.18821125535E+03 -0.15542340127E+02  0.31322991732E+03  0.40454001396E+03  0.17284270542E+03 0.  0.
         24    2    5    5    0    0  0.50475700815E+02 -0.43446661237E+02  0.19194733795E+03  0.21884863512E+03  0.81335944090E+02 0.  0.
          5    1    5    5  501    0  0.13773555453E+03  0.27904321111E+02  0.12128257937E+03  0.18569137885E+03  0.47000000000E+01 0. -1.
        -13    1    6    6    0    0 -0.21147125882E+01  0.18798268810E+02  0.67464032641E+02  0.70065987610E+02  0.00000000000E+00 0.  1.
         14    1    6    6    0    0  0.52590413403E+02 -0.62244930047E+02  0.12448330531E+03  0.14878264751E+03  0.00000000000E+00 0. -1.
         -5    1    3    3    0  503 -0.39573970443E+01 -0.41440680657E+02  0.25764684524E+01  0.41972838769E+02  0.47000000000E+01 0.  1.
         11    1    4    4    0    0 -0.10810345282E+03 -0.35396947850E+01  0.45957779959E+02  0.11752022588E+03  0.00000000000E+00 0. -1.
        -12    1    4    4    0    0 -0.76150405478E+02  0.60522715568E+02  0.82650539170E+02  0.12764401662E+03  0.00000000000E+00 0.  1.
<mgrwt>
<rscale>  2 0.25585966E+03</rscale>
<asrwt>0</asrwt>
<pdfrwt beam="1">  1       21 0.87391676E-01 0.25600711E+03</pdfrwt>
<pdfrwt beam="2">  1       21 0.19020184E-01 0.25600711E+03</pdfrwt>
<totfact> 0.27584995E+04</totfact>
</mgrwt>
</event>
<event>
12    1  0.1071811E-001  0.1953533E+03  0.7546771E-02  0.1154109E+00
         21   -1    0    0  501  502  0.00000000000E+00  0.00000000000E+00  0.20748686069E+03  0.20748686069E+03  0.00000000000E+00 0.  1.
         21   -1    0    0  502  503 -0.00000000000E+00 -0.00000000000E+00 -0.40909635943E+03  0.40909635943E+03  0.00000000000E+00 0. -1.
         -6    2    1    2    0  503  0.80927598136E+02 -0.18598421478E+02 -0.33016517759E+03  0.38272537470E+03  0.17485562767E+03 0.  0.
        -24    2    3    3    0    0  0.11651874336E+03 -0.18213890130E+02 -0.31001036418E+03  0.34155276262E+03  0.81507670832E+02 0.  0.
          6    2    1    2  501    0 -0.80927598136E+02  0.18598421478E+02  0.12855567884E+03  0.23385784542E+03  0.17682689807E+03 0.  0.
         24    2    5    5    0    0 -0.58189690109E+02  0.25493558431E+02  0.16138947162E+03  0.19305706941E+03  0.84785074992E+02 0.  0.
          5    1    5    5  501    0 -0.22737908026E+02 -0.68951369530E+01 -0.32833792780E+02  0.40800776014E+02  0.47000000000E+01 0. -1.
        -13    1    6    6    0    0 -0.67261800677E+02 -0.49214839577E+00  0.14774682732E+03  0.16233766361E+03  0.00000000000E+00 0.  1.
         14    1    6    6    0    0  0.90721105677E+01  0.25985706827E+02  0.13642644298E+02  0.30719405803E+02  0.00000000000E+00 0. -1.
         -5    1    3    3    0  503 -0.35591145220E+02 -0.38453134794E+00 -0.20154813408E+02  0.41172612085E+02  0.47000000000E+01 0.  1.
         11    1    4    4    0    0  0.73078305826E+02 -0.45713907258E+02 -0.14466873339E+03  0.16840202647E+03  0.00000000000E+00 0. -1.
        -12    1    4    4    0    0  0.43440437529E+02  0.27500017128E+02 -0.16534163079E+03  0.17315073614E+03  0.00000000000E+00 0.  1.
<mgrwt>
<rscale>  2 0.19490618E+03</rscale>
<asrwt>0</asrwt>
<pdfrwt beam="1">  1       21 0.31921056E-01 0.19535334E+03</pdfrwt>
<pdfrwt beam="2">  1       21 0.62937901E-01 0.19535334E+03</pdfrwt>
<totfact> 0.22026319E+04</totfact>
</mgrwt>
</event>
<event>
12    1  0.1071811E-001  0.2337208E+03  0.7546771E-02  0.1124265E+00
         21   -1    0    0  503  502  0.00000000000E+00  0.00000000000E+00  0.14174504987E+03  0.14174504987E+03  0.00000000000E+00 0. -1.
         21   -1    0    0  501  503 -0.00000000000E+00 -0.00000000000E+00 -0.39950515247E+03  0.39950515247E+03  0.00000000000E+00 0. -1.
          6    2    1    2  501    0 -0.13944036996E+03  0.70219216604E+02 -0.18303826224E+03  0.29587543808E+03  0.17223505525E+03 0.  0.
         24    2    3    3    0    0 -0.30781781894E+02 -0.13310852472E+02 -0.10908549133E+03  0.14007086970E+03  0.81212728255E+02 0.  0.
         -6    2    1    2    0  502  0.13944036996E+03 -0.70219216604E+02 -0.74721840357E+02  0.24537476427E+03  0.17392833684E+03 0.  0.
        -24    2    5    5    0    0  0.15238567011E+03 -0.11779877916E+02 -0.45367920966E+02  0.17854303763E+03  0.80369210853E+02 0.  0.
          5    1    3    3  501    0 -0.10865858807E+03  0.83530069076E+02 -0.73952770909E+02  0.15580456837E+03  0.47000000000E+01 0. -1.
        -13    1    4    4    0    0 -0.73535210368E+01  0.22406258035E+02 -0.90439169575E+02  0.93463137462E+02  0.00000000000E+00 0.  1.
         14    1    4    4    0    0 -0.23428260857E+02 -0.35717110507E+02 -0.18646321756E+02  0.46607732242E+02  0.00000000000E+00 0. -1.
         -5    1    5    5    0  502 -0.12945300146E+02 -0.58439338688E+02 -0.29353919390E+02  0.66831726641E+02  0.47000000000E+01 0.  1.
         13    1    6    6    0    0  0.53100519290E+02 -0.39888317866E+02 -0.34345454982E+02  0.74768665422E+02  0.00000000000E+00 0. -1.
        -14    1    6    6    0    0  0.99285150821E+02  0.28108439951E+02 -0.11022465984E+02  0.10377437220E+03  0.00000000000E+00 0.  1.
<mgrwt>
<rscale>  2 0.23340585E+03</rscale>
<asrwt>0</asrwt>
<pdfrwt beam="1">  1       21 0.21806931E-01 0.23372082E+03</pdfrwt>
<pdfrwt beam="2">  1       21 0.61462330E-01 0.23372082E+03</pdfrwt>
<totfact> 0.47364995E+04</totfact>
</mgrwt>
</event>
<event>
12    1  0.1071811E-001  0.1798721E+03  0.7546771E-02  0.1168072E+00
         21   -1    0    0  503  502  0.00000000000E+00  0.00000000000E+00  0.22220093682E+03  0.22220093682E+03  0.00000000000E+00 0.  1.
         21   -1    0    0  501  503 -0.00000000000E+00 -0.00000000000E+00 -0.15215957613E+03  0.15215957613E+03  0.00000000000E+00 0.  1.
          6    2    1    2  501    0  0.27971652943E+01 -0.49525082182E+02 -0.51717619494E+01  0.17994640493E+03  0.17289708971E+03 0.  0.
         24    2    3    3    0    0 -0.49680702210E+02 -0.75054548361E+02  0.49569396718E+01  0.12052956542E+03  0.80009046289E+02 0.  0.
         -6    2    1    2    0  502 -0.27971652943E+01  0.49525082182E+02  0.75213122641E+02  0.19441410802E+03  0.17227673575E+03 0.  0.
        -24    2    5    5    0    0  0.26948903939E+02 -0.36514762891E+02  0.25909319370E+02  0.90777055802E+02  0.74226745162E+02 0.  0.
          5    1    3    3  501    0  0.52477867505E+02  0.25529466179E+02 -0.10128701621E+02  0.59416839513E+02  0.47000000000E+01 0. -1.
        -11    1    4    4    0    0 -0.15172530756E+02 -0.32588818336E+02 -0.36991882347E+02  0.51581354477E+02  0.00000000000E+00 0.  1.
         12    1    4    4    0    0 -0.34508171454E+02 -0.42465730025E+02  0.41948822019E+02  0.68948210944E+02  0.00000000000E+00 0. -1.
         -5    1    5    5    0  502 -0.29746069234E+02  0.86039845072E+02  0.49303803271E+02  0.10363705222E+03  0.47000000000E+01 0.  1.
         11    1    6    6    0    0  0.37062801580E+02  0.18224188495E+01 -0.87383738193E+01  0.38122587116E+02  0.00000000000E+00 0. -1.
        -12    1    6    6    0    0 -0.10113897641E+02 -0.38337181740E+02  0.34647693189E+02  0.52654468686E+02  0.00000000000E+00 0.  1.
<mgrwt>
<rscale>  2 0.17972283E+03</rscale>
<asrwt>0</asrwt>
<pdfrwt beam="1">  1       21 0.34184760E-01 0.17987207E+03</pdfrwt>
<pdfrwt beam="2">  1       21 0.23409165E-01 0.17987207E+03</pdfrwt>
<totfact> 0.14213482E+05</totfact>
</mgrwt>
</event>
<event>
12    1  0.1071811E-001  0.2313577E+03  0.7546771E-02  0.1126192E+00
         21   -1    0    0  501  502  0.00000000000E+00  0.00000000000E+00  0.55866756335E+02  0.55866756335E+02  0.00000000000E+00 0.  1.
         21   -1    0    0  502  503 -0.00000000000E+00 -0.00000000000E+00 -0.11231458762E+04  0.11231458762E+04  0.00000000000E+00 0.  1.
         -6    2    1    2    0  503 -0.16421225955E+02  0.15378341934E+03 -0.30250257655E+03  0.38083357145E+03  0.17206802026E+03 0.  0.
        -24    2    3    3    0    0  0.38990660763E+02  0.39100678162E+02 -0.17549734851E+03  0.20090295631E+03  0.80706529231E+02 0.  0.
          6    2    1    2  501    0  0.16421225955E+02 -0.15378341934E+03 -0.76477654330E+03  0.79817906107E+03  0.16818934455E+03 0.  0.
         24    2    5    5    0    0 -0.48882627201E+02 -0.82468113192E+02 -0.36092075852E+03  0.38288151590E+03  0.84521951866E+02 0.  0.
          5    1    5    5  501    0  0.65303853156E+02 -0.71315306152E+02 -0.40385578478E+03  0.41529754517E+03  0.47000000000E+01 0. -1.
        -13    1    6    6    0    0 -0.43020429971E+02 -0.93809638761E+02 -0.35318293479E+03  0.36795270232E+03  0.00000000000E+00 0.  1.
         14    1    6    6    0    0 -0.58621972299E+01  0.11341525569E+02 -0.77378237296E+01  0.14928813572E+02  0.00000000000E+00 0. -1.
         -5    1    3    3    0  503 -0.55411886718E+02  0.11468274118E+03 -0.12700522803E+03  0.17993061513E+03  0.47000000000E+01 0.  1.
         13    1    4    4    0    0 -0.11882452530E+02 -0.16039051923E+02 -0.20017674588E+02  0.28269261763E+02  0.00000000000E+00 0. -1.
        -14    1    4    4    0    0  0.50873113293E+02  0.55139730085E+02 -0.15547967393E+03  0.17263369455E+03  0.00000000000E+00 0.  1.
<mgrwt>
<rscale>  2 0.23063687E+03</rscale>
<asrwt>0</asrwt>
<pdfrwt beam="1">  1       21 0.85948854E-02 0.23135773E+03</pdfrwt>
<pdfrwt beam="2">  1       21 0.17279168E+00 0.23135773E+03</pdfrwt>
<totfact> 0.21051588E+04</totfact>
</mgrwt>
</event>
<event>
11    1  0.1071811E-001  0.2794305E+03  0.7546771E-02  0.1096447E+00
         21   -1    0    0  503  502  0.00000000000E+00  0.00000000000E+00  0.23125001664E+04  0.23125001664E+04  0.00000000000E+00 0. -1.
         21   -1    0    0  501  503 -0.00000000000E+00 -0.00000000000E+00 -0.68781310189E+02  0.68781310189E+02  0.00000000000E+00 0.  1.
          6    2    1    2  501    0 -0.62015458071E+02  0.20595621461E+03  0.26442800764E+03  0.38236335222E+03  0.17325034637E+03 0.  0.
         -6    2    1    2    0  502  0.62015458071E+02 -0.20595621461E+03  0.19792908486E+04  0.19989181244E+04  0.17837467681E+03 0.  0.
        -24    2    4    4    0    0 -0.14451333252E+02 -0.11920639228E+03  0.71635709668E+03  0.73069241357E+03  0.79529292114E+02 0.  0.
          5    1    3    3  501    0 -0.22787197960E+02  0.21906919803E+01 -0.26245901669E+01  0.23516674845E+02  0.47000000000E+01 0. -1.
        -11    1    3    3    0    0 -0.78247527856E+01  0.18981256166E+03  0.16659276879E+03  0.25267209172E+03  0.00000000000E+00 0.  1.
         12    1    3    3    0    0 -0.31403507325E+02  0.13952960971E+02  0.10045982902E+03  0.10617458565E+03  0.00000000000E+00 0. -1.
         -5    1    4    4    0  502  0.76466791323E+02 -0.86749822333E+02  0.12629337519E+04  0.12682257108E+04  0.47000000000E+01 0.  1.
         11    1    5    5    0    0 -0.40565780640E+02 -0.92724901494E+02  0.60173876372E+03  0.61019097804E+03  0.00000000000E+00 0. -1.
        -12    1    5    5    0    0  0.26114447388E+02 -0.26481490788E+02  0.11461833295E+03  0.12050143553E+03  0.00000000000E+00 0.  1.
<mgrwt>
<rscale>  2 0.27861621E+03</rscale>
<asrwt>0</asrwt>
<pdfrwt beam="1">  1       21 0.35576920E+00 0.27943050E+03</pdfrwt>
<pdfrwt beam="2">  1       21 0.10581742E-01 0.27943050E+03</pdfrwt>
<totfact> 0.10689630E+03</totfact>
</mgrwt>
</event>
<event>
11    1  0.1071811E-001  0.2701801E+03  0.7546771E-02  0.1101434E+00
         21   -1    0    0  503  502  0.00000000000E+00  0.00000000000E+00  0.56132568158E+03  0.56132568158E+03  0.00000000000E+00 0. -1.
         21   -1    0    0  501  503 -0.00000000000E+00 -0.00000000000E+00 -0.30229455957E+03  0.30229455957E+03  0.00000000000E+00 0. -1.
          6    2    1    2  501    0 -0.74820850361E+02 -0.19389468539E+03 -0.19706860159E+03  0.33441488466E+03  0.17263827120E+03 0.  0.
         -6    2    1    2    0  502  0.74820850361E+02  0.19389468539E+03  0.45609972360E+03  0.52920535649E+03  0.16981767515E+03 0.  0.
        -24    2    4    4    0    0  0.26489314802E+02  0.19450938744E+03  0.41266774305E+03  0.46405367099E+03  0.80719005230E+02 0.  0.
          5    1    3    3  501    0 -0.33952892998E+02 -0.75955658749E+02 -0.21054092855E+02  0.85950135921E+02  0.47000000000E+01 0. -1.
        -13    1    3    3    0    0 -0.59886036810E+02 -0.55573625851E+02 -0.27391240041E+02  0.86168702706E+02  0.00000000000E+00 0.  1.
         14    1    3    3    0    0  0.19018079447E+02 -0.62365400788E+02 -0.14862326870E+03  0.16229604604E+03  0.00000000000E+00 0. -1.
         -5    1    4    4    0  502  0.48331535559E+02 -0.61470204999E+00  0.43431980551E+02  0.65151685493E+02  0.47000000000E+01 0.  1.
         11    1    5    5    0    0  0.48097282917E+02  0.64993342530E+02  0.16393366994E+03  0.18278876152E+03  0.00000000000E+00 0. -1.
        -12    1    5    5    0    0 -0.21607968115E+02  0.12951604491E+03  0.24873407312E+03  0.28126490948E+03  0.00000000000E+00 0.  1.
<mgrwt>
<rscale>  2 0.26973059E+03</rscale>
<asrwt>0</asrwt>
<pdfrwt beam="1">  1       21 0.86357797E-01 0.27018009E+03</pdfrwt>
<pdfrwt beam="2">  1       21 0.46506855E-01 0.27018009E+03</pdfrwt>
<totfact> 0.48539434E+03</totfact>
</mgrwt>
</event>
<event>
12    1  0.1071811E-001  0.2350142E+03  0.7546771E-02  0.1123599E+00
         21   -1    0    0  503  502  0.00000000000E+00  0.00000000000E+00  0.91273127695E+03  0.91273127695E+03  0.00000000000E+00 0.  1.
         21   -1    0    0  501  503 -0.00000000000E+00 -0.00000000000E+00 -0.96206087083E+02  0.96206087083E+02  0.00000000000E+00 0.  1.
          6    2    1    2  501    0 -0.12894312051E+03  0.89681750935E+02  0.99567367335E+02  0.25523583153E+03  0.17482140681E+03 0.  0.
         24    2    3    3    0    0 -0.13634741122E+03  0.50710662361E+02  0.21881443563E+02  0.16788159856E+03  0.80890331559E+02 0.  0.
         -6    2    1    2    0  502  0.12894312051E+03 -0.89681750935E+02  0.71695782253E+03  0.75370153250E+03  0.17137192311E+03 0.  0.
        -24    2    5    5    0    0  0.75078799439E+02  0.97773558505E+01  0.26666066359E+03  0.28939226019E+03  0.83111659456E+02 0.  0.
          5    1    3    3  501    0  0.74042907043E+01  0.38971088574E+02  0.77685923772E+02  0.87354232970E+02  0.47000000000E+01 0. -1.
        -13    1    4    4    0    0 -0.97923789861E+01 -0.19142948969E+02  0.67580461302E+01  0.22539174096E+02  0.00000000000E+00 0.  1.
         14    1    4    4    0    0 -0.12655503223E+03  0.69853611330E+02  0.15123397433E+02  0.14534242446E+03  0.00000000000E+00 0. -1.
         -5    1    5    5    0  502  0.53864321074E+02 -0.99459106785E+02  0.45029715894E+03  0.46430927231E+03  0.47000000000E+01 0.  1.
         13    1    6    6    0    0  0.63924483452E+02 -0.29070786104E+01  0.82254789423E+02  0.10421439955E+03  0.00000000000E+00 0. -1.
        -14    1    6    6    0    0  0.11154315987E+02  0.12684434461E+02  0.18440587417E+03  0.18517786064E+03  0.00000000000E+00 0.  1.
<mgrwt>
<rscale>  2 0.23437293E+03</rscale>
<asrwt>0</asrwt>
<pdfrwt beam="1">  1       21 0.14042019E+00 0.23501419E+03</pdfrwt>
<pdfrwt beam="2">  1       21 0.14800937E-01 0.23501419E+03</pdfrwt>
<totfact> 0.13877521E+04</totfact>
</mgrwt>
</event>
<event>
12    1  0.1071811E-001  0.2076069E+03  0.7546771E-02  0.1143519E+00
         21   -1    0    0  503  502  0.00000000000E+00  0.00000000000E+00  0.10808187713E+03  0.10808187713E+03  0.00000000000E+00 0. -1.
         21   -1    0    0  501  503 -0.00000000000E+00 -0.00000000000E+00 -0.50213323020E+03  0.50213323020E+03  0.00000000000E+00 0.  1.
          6    2    1    2  501    0 -0.44710289809E+01 -0.11378443974E+03 -0.33581012530E+03  0.39480258380E+03  0.17359075751E+03 0.  0.
         24    2    3    3    0    0 -0.70329691549E+02 -0.59045156806E+02 -0.20325998448E+03  0.23692483881E+03  0.79913465063E+02 0.  0.
         -6    2    1    2    0  502  0.44710289809E+01  0.11378443974E+03 -0.58241227776E+02  0.21541252353E+03  0.17333097200E+03 0.  0.
        -24    2    5    5    0    0 -0.31305507595E+02  0.12516603499E+03 -0.10591154677E+02  0.15456746830E+03  0.84453292296E+02 0.  0.
          5    1    3    3  501    0  0.65858662568E+02 -0.54739282935E+02 -0.13255014083E+03  0.15787774499E+03  0.47000000000E+01 0. -1.
        -13    1    4    4    0    0 -0.37941498789E+02 -0.17031090759E+02 -0.16837126062E+03  0.17343153343E+03  0.00000000000E+00 0.  1.
         14    1    4    4    0    0 -0.32388192760E+02 -0.42014066047E+02 -0.34888723855E+02  0.63493305382E+02  0.00000000000E+00 0. -1.
         -5    1    5    5    0  502  0.35776536576E+02 -0.11381595245E+02 -0.47650073099E+02  0.60845055230E+02  0.47000000000E+01 0.  1.
         11    1    6    6    0    0 -0.11159494442E+02  0.10665256068E+01  0.21996713519E+02  0.24688604633E+02  0.00000000000E+00 0. -1.
        -12    1    6    6    0    0 -0.20146013152E+02  0.12409950938E+03 -0.32587868196E+02  0.12987886367E+03  0.00000000000E+00 0.  1.
<mgrwt>
<rscale>  2 0.20755262E+03</rscale>
<asrwt>0</asrwt>
<pdfrwt beam="1">  1       21 0.16627981E-01 0.20760694E+03</pdfrwt>
<pdfrwt beam="2">  1       21 0.77251268E-01 0.20760694E+03</pdfrwt>
<totfact> 0.47989431E+04</totfact>
</mgrwt>
</event>
<event>
12    1  0.1071811E-001  0.2403850E+03  0.7546771E-02  0.1119547E+00
         21   -1    0    0  503  502  0.00000000000E+00  0.00000000000E+00  0.27790311095E+03  0.27790311095E+03  0.00000000000E+00 0.  1.
         21   -1    0    0  501  503 -0.00000000000E+00 -0.00000000000E+00 -0.30338176180E+03  0.30338176180E+03  0.00000000000E+00 0. -1.
          6    2    1    2  501    0  0.81065040028E+02  0.14345551993E+03 -0.17580960323E+03  0.29781534445E+03  0.17502552925E+03 0.  0.
         24    2    3    3    0    0  0.25584819329E+02  0.14123671151E+03 -0.70611540755E+02  0.17877039349E+03  0.79815238159E+02 0.  0.
         -6    2    1    2    0  502 -0.81065040028E+02 -0.14345551993E+03  0.15033095237E+03  0.28346952831E+03  0.17494156546E+03 0.  0.
        -24    2    5    5    0    0  0.41144483350E+01 -0.88507577420E+02  0.18699877981E+02  0.11726588404E+03  0.74505584869E+02 0.  0.
          5    1    3    3  501    0  0.55480220699E+02  0.22188084135E+01 -0.10519806247E+03  0.11904495095E+03  0.47000000000E+01 0. -1.
        -11    1    4    4    0    0  0.34619798949E+01 -0.89608433681E+01  0.29777629794E+01  0.10057290441E+02  0.00000000000E+00 0.  1.
         12    1    4    4    0    0  0.22122839434E+02  0.15019755488E+03 -0.73589303735E+02  0.16871310305E+03  0.00000000000E+00 0. -1.
         -5    1    5    5    0  502 -0.85179488363E+02 -0.54947942507E+02  0.13163107439E+03  0.16620364427E+03  0.47000000000E+01 0.  1.
         13    1    6    6    0    0  0.95622740343E+01 -0.93230858606E+02 -0.36406421840E+01  0.93790641093E+02  0.00000000000E+00 0. -1.
        -14    1    6    6    0    0 -0.54478256993E+01  0.47232811866E+01  0.22340520165E+02  0.23475242944E+02  0.00000000000E+00 0.  1.
<mgrwt>
<rscale>  2 0.24036975E+03</rscale>
<asrwt>0</asrwt>
<pdfrwt beam="1">  1       21 0.42754325E-01 0.24038503E+03</pdfrwt>
<pdfrwt beam="2">  1       21 0.46674117E-01 0.24038503E+03</pdfrwt>
<totfact> 0.22536424E+04</totfact>
</mgrwt>
</event>
<event>
12    1  0.1071811E-001  0.1763453E+03  0.7546771E-02  0.1171881E+00
         21   -1    0    0  503  502  0.00000000000E+00  0.00000000000E+00  0.62600008631E+03  0.62600008631E+03  0.00000000000E+00 0. -1.
         21   -1    0    0  501  503 -0.00000000000E+00 -0.00000000000E+00 -0.68775760877E+02  0.68775760877E+02  0.00000000000E+00 0. -1.
          6    2    1    2  501    0 -0.20556818316E+02  0.20493951750E+02  0.94032842050E+02  0.19984952375E+03  0.17393985144E+03 0.  0.
         24    2    3    3    0    0  0.50327013176E+02  0.36057298616E+02  0.65060170743E+02  0.12156644118E+03  0.81930682692E+02 0.  0.
         -6    2    1    2    0  502  0.20556818316E+02 -0.20493951750E+02  0.46319148338E+03  0.49492632344E+03  0.17193932220E+03 0.  0.
        -24    2    5    5    0    0 -0.44698116089E+00  0.46538124145E+02  0.34706124622E+03  0.35912212331E+03  0.79694378903E+02 0.  0.
          5    1    3    3  501    0 -0.70883831491E+02 -0.15563346866E+02  0.28972671307E+02  0.78283082561E+02  0.47000000000E+01 0. -1.
        -13    1    4    4    0    0  0.28593434022E+02  0.26223752186E+02  0.83065333495E+02  0.91679437588E+02  0.00000000000E+00 0.  1.
         14    1    4    4    0    0  0.21733579153E+02  0.98335464301E+01 -0.18005162752E+02  0.29887003596E+02  0.00000000000E+00 0. -1.
         -5    1    5    5    0  502  0.21003799476E+02 -0.67032075895E+02  0.11613023716E+03  0.13580420014E+03  0.47000000000E+01 0.  1.
         11    1    6    6    0    0  0.29540779190E+02 -0.50211492403E+01  0.16000357475E+03  0.16278517595E+03  0.00000000000E+00 0. -1.
        -12    1    6    6    0    0 -0.29987760351E+02  0.51559273386E+02  0.18705767147E+03  0.19633694736E+03  0.00000000000E+00 0.  1.
<mgrwt>
<rscale>  2 0.17584996E+03</rscale>
<asrwt>0</asrwt>
<pdfrwt beam="1">  1       21 0.96307701E-01 0.17634528E+03</pdfrwt>
<pdfrwt beam="2">  1       21 0.10580887E-01 0.17634528E+03</pdfrwt>
<totfact> 0.66373063E+04</totfact>
</mgrwt>
</event>
<event>
12    1  0.1071811E-001  0.1900018E+03  0.7546771E-02  0.1160782E+00
         21   -1    0    0  501  502  0.00000000000E+00  0.00000000000E+00  0.77626608048E+02  0.77626608048E+02  0.00000000000E+00 0.  1.
         21   -1    0    0  502  503 -0.00000000000E+00 -0.00000000000E+00 -0.46604757374E+03  0.46604757374E+03  0.00000000000E+00 0.  1.
         -6    2    1    2    0  503 -0.57413602919E+01 -0.48062897330E+02 -0.26231590702E+03  0.32389865116E+03  0.18373267491E+03 0.  0.
        -24    2    3    3    0    0 -0.26493966944E+01  0.11345425245E+02 -0.25093503219E+03  0.26314897345E+03  0.78378912144E+02 0.  0.
          6    2    1    2  501    0  0.57413602919E+01  0.48062897330E+02 -0.12610505868E+03  0.21977553063E+03  0.17336606566E+03 0.  0.
         24    2    5    5    0    0 -0.66690441897E+02  0.31329526105E+02 -0.46840078327E+02  0.11100329708E+03  0.68546223672E+02 0.  0.
          5    1    5    5  501    0  0.72431802189E+02  0.16733371226E+02 -0.79264980352E+02  0.10877223355E+03  0.47000000000E+01 0. -1.
        -13    1    6    6    0    0 -0.62432118461E+02  0.17635677058E+02 -0.62279927838E+02  0.89930950915E+02  0.00000000000E+00 0.  1.
         14    1    6    6    0    0 -0.42583234354E+01  0.13693849046E+02  0.15439849511E+02  0.21072346170E+02  0.00000000000E+00 0. -1.
         -5    1    3    3    0  503 -0.30919635975E+01 -0.59408322575E+02 -0.11380874825E+02  0.60749677710E+02  0.47000000000E+01 0.  1.
         11    1    4    4    0    0  0.35660591244E+02 -0.17088839047E+01 -0.82027422653E+02  0.89460025258E+02  0.00000000000E+00 0. -1.
        -12    1    4    4    0    0 -0.38309987939E+02  0.13054309150E+02 -0.16890760954E+03  0.17368894819E+03  0.00000000000E+00 0.  1.
<mgrwt>
<rscale>  2 0.18744958E+03</rscale>
<asrwt>0</asrwt>
<pdfrwt beam="1">  1       21 0.11942555E-01 0.19000185E+03</pdfrwt>
<pdfrwt beam="2">  1       21 0.71699628E-01 0.19000185E+03</pdfrwt>
<totfact> 0.10411577E+05</totfact>
</mgrwt>
</event>
<event>
12    1  0.1071811E-001  0.1970956E+03  0.7546771E-02  0.1153108E+00
         21   -1    0    0  501  502  0.00000000000E+00  0.00000000000E+00  0.12474495107E+04  0.12474495107E+04  0.00000000000E+00 0.  1.
         21   -1    0    0  502  503 -0.00000000000E+00 -0.00000000000E+00 -0.36444201560E+02  0.36444201560E+02  0.00000000000E+00 0.  1.
         -6    2    1    2    0  503  0.40291900725E+01 -0.84131595557E+02  0.35146595037E+03  0.40295781736E+03  0.17819183079E+03 0.  0.
        -24    2    3    3    0    0 -0.54340086596E+02 -0.25610763002E+02  0.26269614253E+03  0.28157483221E+03  0.81647820775E+02 0.  0.
          6    2    1    2  501    0 -0.40291900725E+01  0.84131595557E+02  0.85953935873E+03  0.88093589486E+03  0.17362540685E+03 0.  0.
         24    2    5    5    0    0 -0.61949714605E+02  0.62848703040E+02  0.69965719052E+03  0.70949451600E+03  0.77939446786E+02 0.  0.
          5    1    5    5  501    0  0.57920524533E+02  0.21282892517E+02  0.15988216820E+03  0.17144137886E+03  0.47000000000E+01 0. -1.
        -13    1    6    6    0    0  0.21975907848E+01  0.13171259927E+02  0.36126703623E+03  0.36151373827E+03  0.00000000000E+00 0.  1.
         14    1    6    6    0    0 -0.64147305390E+02  0.49677443113E+02  0.33839015429E+03  0.34798077772E+03  0.00000000000E+00 0. -1.
         -5    1    3    3    0  503  0.58369276669E+02 -0.58520832555E+02  0.88769807842E+02  0.12138298516E+03  0.47000000000E+01 0.  1.
         11    1    4    4    0    0  0.13560497654E+02 -0.27789712320E+01  0.13036542151E+03  0.13109825668E+03  0.00000000000E+00 0. -1.
        -12    1    4    4    0    0 -0.67900584250E+02 -0.22831791770E+02  0.13233072102E+03  0.15047657553E+03  0.00000000000E+00 0.  1.
<mgrwt>
<rscale>  2 0.19605782E+03</rscale>
<asrwt>0</asrwt>
<pdfrwt beam="1">  1       21 0.19191528E+00 0.19709563E+03</pdfrwt>
<pdfrwt beam="2">  1       21 0.56068012E-02 0.19709563E+03</pdfrwt>
<totfact> 0.33441510E+04</totfact>
</mgrwt>
</event>
<event>
12    1  0.1071811E-001  0.1803651E+03  0.7546771E-02  0.1167570E+00
         21   -1    0    0  503  502  0.00000000000E+00  0.00000000000E+00  0.23984141634E+04  0.23984141634E+04  0.00000000000E+00 0.  1.
         21   -1    0    0  501  503 -0.00000000000E+00 -0.00000000000E+00 -0.14520423530E+02  0.14520423530E+02  0.00000000000E+00 0.  1.
          6    2    1    2  501    0 -0.37067920744E+02  0.31576796050E+02  0.15060568711E+04  0.15167598653E+04  0.17315329938E+03 0.  0.
         24    2    3    3    0    0  0.21247006833E+02  0.67321700936E+02  0.96554410314E+03  0.97191633605E+03  0.85803860305E+02 0.  0.
         -6    2    1    2    0  502  0.37067920744E+02 -0.31576796050E+02  0.87783686877E+03  0.89617472166E+03  0.17366761007E+03 0.  0.
        -24    2    5    5    0    0  0.15065847681E+02 -0.86986227118E+02  0.57295921347E+03  0.58548714391E+03  0.81971653097E+02 0.  0.
          5    1    3    3  501    0 -0.58314927577E+02 -0.35744904887E+02  0.54051276800E+03  0.54484352926E+03  0.47000000000E+01 0. -1.
        -13    1    4    4    0    0 -0.14408744949E+02  0.60968800787E+02  0.36953475025E+03  0.37480760163E+03  0.00000000000E+00 0.  1.
         14    1    4    4    0    0  0.35655751783E+02  0.63529001496E+01  0.59600935290E+03  0.59710873441E+03  0.00000000000E+00 0. -1.
         -5    1    5    5    0  502  0.22002073063E+02  0.55409431068E+02  0.30487765530E+03  0.31068757776E+03  0.47000000000E+01 0.  1.
         11    1    6    6    0    0 -0.17258209390E+02  0.77093066933E+01  0.13001431887E+03  0.13138113378E+03  0.00000000000E+00 0. -1.
        -12    1    6    6    0    0  0.32324057071E+02 -0.94695533811E+02  0.44294489459E+03  0.45410601013E+03  0.00000000000E+00 0.  1.
<mgrwt>
<rscale>  2 0.18024117E+03</rscale>
<asrwt>0</asrwt>
<pdfrwt beam="1">  1       21 0.36898648E+00 0.18036508E+03</pdfrwt>
<pdfrwt beam="2">  1       21 0.22339132E-02 0.18036508E+03</pdfrwt>
<totfact> 0.14065013E+04</totfact>
</mgrwt>
</event>
<event>
12    1  0.1071811E-001  0.1973017E+03  0.7546771E-02  0.1152279E+00
         21   -1    0    0  501  502  0.00000000000E+00  0.00000000000E+00  0.65864976097E+03  0.65864976097E+03  0.00000000000E+00 0. -1.
         21   -1    0    0  502  503 -0.00000000000E+00 -0.00000000000E+00 -0.72439671016E+02  0.72439671016E+02  0.00000000000E+00 0.  1.
         -6    2    1    2    0  503 -0.69017860421E+02 -0.65352652024E+02  0.13496264107E+03  0.23904573263E+03  0.17289740778E+03 0.  0.
        -24    2    3    3    0    0  0.26658967739E+02 -0.49513672244E+02  0.92019274370E+02  0.13288005328E+03  0.77635413341E+02 0.  0.
          6    2    1    2  501    0  0.69017860421E+02  0.65352652024E+02  0.45124744888E+03  0.49204369936E+03  0.17160509251E+03 0.  0.
         24    2    5    5    0    0  0.17865344458E+02  0.17650391053E+02  0.38951422618E+03  0.39863510031E+03  0.80980886435E+02 0.  0.
          5    1    5    5  501    0  0.51152515963E+02  0.47702260970E+02  0.61733222700E+02  0.93408599047E+02  0.47000000000E+01 0. -1.
        -11    1    6    6    0    0  0.35852712036E+02  0.10194119902E+01  0.74652599499E+02  0.82821897908E+02  0.00000000000E+00 0.  1.
         12    1    6    6    0    0 -0.17987367578E+02  0.16630979063E+02  0.31486162668E+03  0.31581320241E+03  0.00000000000E+00 0. -1.
         -5    1    3    3    0  503 -0.95676828159E+02 -0.15838979780E+02  0.42943366705E+02  0.10616567935E+03  0.47000000000E+01 0.  1.
         13    1    4    4    0    0  0.25800306427E+02  0.15561538656E+02  0.36548299807E+02  0.47366607603E+02  0.00000000000E+00 0. -1.
        -14    1    4    4    0    0  0.85866131213E+00 -0.65075210899E+02  0.55470974563E+02  0.85513445679E+02  0.00000000000E+00 0.  1.
<mgrwt>
<rscale>  2 0.19701819E+03</rscale>
<asrwt>0</asrwt>
<pdfrwt beam="1">  1       21 0.10133073E+00 0.19730167E+03</pdfrwt>
<pdfrwt beam="2">  1       21 0.11144565E-01 0.19730167E+03</pdfrwt>
<totfact> 0.53143507E+04</totfact>
</mgrwt>
</event>
<event>
12    1  0.1071811E-001  0.2022329E+03  0.7546771E-02  0.1150853E+00
         21   -1    0    0  501  502  0.00000000000E+00  0.00000000000E+00  0.18226632209E+03  0.18226632209E+03  0.00000000000E+00 0.  1.
         21   -1    0    0  502  503 -0.00000000000E+00 -0.00000000000E+00 -0.24278050233E+03  0.24278050233E+03  0.00000000000E+00 0.  1.
         -6    2    1    2    0  503 -0.71581356788E+01 -0.74713601223E+02 -0.10819834418E+03  0.21726830256E+03  0.17281571833E+03 0.  0.
        -24    2    3    3    0    0 -0.29382390579E+02 -0.78039065177E+02 -0.13774478957E+03  0.17985094494E+03  0.80120626388E+02 0.  0.
          6    2    1    2  501    0  0.71581356788E+01  0.74713601223E+02  0.47684163942E+02  0.20777852187E+03  0.18778917313E+03 0.  0.
         24    2    5    5    0    0  0.66972491586E+02  0.11191780296E+01  0.40489979646E+02  0.11255382662E+03  0.80884845585E+02 0.  0.
          5    1    5    5  501    0 -0.59814355907E+02  0.73594423194E+02  0.71941842961E+01  0.95224695250E+02  0.47000000000E+01 0. -1.
        -13    1    6    6    0    0  0.23920106923E+01  0.29147796377E+02 -0.36306858542E+01  0.29470283822E+02  0.00000000000E+00 0.  1.
         14    1    6    6    0    0  0.64580480894E+02 -0.28028618347E+02  0.44120665501E+02  0.83083542794E+02  0.00000000000E+00 0. -1.
         -5    1    3    3    0  503  0.22224254901E+02  0.33254639537E+01  0.29546445387E+02  0.37417357622E+02  0.47000000000E+01 0.  1.
         13    1    4    4    0    0  0.14716304861E+02  0.36063607410E+01 -0.49612065017E+02  0.51874198421E+02  0.00000000000E+00 0. -1.
        -14    1    4    4    0    0 -0.44098695440E+02 -0.81645425918E+02 -0.88132724549E+02  0.12797674652E+03  0.00000000000E+00 0.  1.
<mgrwt>
<rscale>  2 0.19868509E+03</rscale>
<asrwt>0</asrwt>
<pdfrwt beam="1">  1       21 0.28040973E-01 0.20223287E+03</pdfrwt>
<pdfrwt beam="2">  1       21 0.37350847E-01 0.20223287E+03</pdfrwt>
<totfact> 0.83647748E+04</totfact>
</mgrwt>
</event>
<event>
12    1  0.1071811E-001  0.1844373E+03  0.7546771E-02  0.1163948E+00
         21   -1    0    0  501  502  0.00000000000E+00  0.00000000000E+00  0.13228545832E+03  0.13228545832E+03  0.00000000000E+00 0. -1.
         21   -1    0    0  502  503 -0.00000000000E+00 -0.00000000000E+00 -0.31467577116E+03  0.31467577116E+03  0.00000000000E+00 0. -1.
         -6    2    1    2    0  503  0.48111245739E+02 -0.29185297592E+02 -0.18823457177E+03  0.26243137634E+03  0.17398706767E+03 0.  0.
        -24    2    3    3    0    0  0.13600656729E+02 -0.83344300438E+02 -0.13224236730E+03  0.17710028409E+03  0.82129267844E+02 0.  0.
          6    2    1    2  501    0 -0.48111245739E+02  0.29185297592E+02  0.58442589312E+01  0.18452985313E+03  0.17564349624E+03 0.  0.
         24    2    5    5    0    0  0.11950915523E+02  0.63673941600E+02  0.34760350688E+02  0.10932905431E+03  0.80915789038E+02 0.  0.
          5    1    5    5  501    0 -0.60062161262E+02 -0.34488644008E+02 -0.28916091757E+02  0.75200798822E+02  0.47000000000E+01 0. -1.
        -11    1    6    6    0    0  0.29755866170E+02  0.30919018739E+02 -0.16474888481E+02  0.45965413538E+02  0.00000000000E+00 0.  1.
         12    1    6    6    0    0 -0.17804950647E+02  0.32754922861E+02  0.51235239169E+02  0.63363640772E+02  0.00000000000E+00 0. -1.
         -5    1    3    3    0  503  0.34510589010E+02  0.54159002846E+02 -0.55992204475E+02  0.85331092253E+02  0.47000000000E+01 0.  1.
         13    1    4    4    0    0  0.12272065937E+01  0.39067195743E+01 -0.67810082264E+02  0.67933612818E+02  0.00000000000E+00 0. -1.
        -14    1    4    4    0    0  0.12373450135E+02 -0.87251020013E+02 -0.64432285032E+02  0.10916667127E+03  0.00000000000E+00 0.  1.
<mgrwt>
<rscale>  2 0.18404182E+03</rscale>
<asrwt>0</asrwt>
<pdfrwt beam="1">  1       21 0.20351609E-01 0.18443728E+03</pdfrwt>
<pdfrwt beam="2">  1       21 0.48411657E-01 0.18443728E+03</pdfrwt>
<totfact> 0.91341470E+04</totfact>
</mgrwt>
</event>
<event>
12    1  0.1071811E-001  0.1827078E+03  0.7546771E-02  0.1165490E+00
         21   -1    0    0  501  502  0.00000000000E+00  0.00000000000E+00  0.15976531351E+04  0.15976531351E+04  0.00000000000E+00 0.  1.
         21   -1    0    0  502  503 -0.00000000000E+00 -0.00000000000E+00 -0.92882208572E+02  0.92882208572E+02  0.00000000000E+00 0.  1.
         -6    2    1    2    0  503 -0.52123431306E+02 -0.19536870273E+02  0.69972726244E+01  0.18165892015E+03  0.17277864468E+03 0.  0.
        -24    2    3    3    0    0 -0.22467626903E+02 -0.10285396040E+02  0.70885354902E+02  0.11046317894E+03  0.81035774390E+02 0.  0.
          6    2    1    2  501    0  0.52123431306E+02  0.19536870273E+02  0.14977736539E+04  0.15088764236E+04  0.17402184269E+03 0.  0.
         24    2    5    5    0    0 -0.35497085460E+02 -0.27633190806E+01  0.64114586735E+03  0.64747761454E+03  0.83015414893E+02 0.  0.
          5    1    5    5  501    0  0.87620516766E+02  0.22300189354E+02  0.85662778659E+03  0.86139880901E+03  0.47000000000E+01 0. -1.
        -11    1    6    6    0    0 -0.25659508128E+02  0.65731545341E+01  0.62810219037E+03  0.62866046342E+03  0.00000000000E+00 0.  1.
         12    1    6    6    0    0 -0.98375773326E+01 -0.93364736148E+01  0.13043676974E+02  0.18817151122E+02  0.00000000000E+00 0. -1.
         -5    1    3    3    0  503 -0.29655804403E+02 -0.92514742335E+01 -0.63888082278E+02  0.71195741217E+02  0.47000000000E+01 0.  1.
         11    1    4    4    0    0  0.28938665631E+02  0.34723002991E+01  0.13247160055E+02  0.32015472625E+02  0.00000000000E+00 0. -1.
        -12    1    4    4    0    0 -0.51406292533E+02 -0.13757696339E+02  0.57638194847E+02  0.78447706313E+02  0.00000000000E+00 0.  1.
<mgrwt>
<rscale>  2 0.18241116E+03</rscale>
<asrwt>0</asrwt>
<pdfrwt beam="1">  1       21 0.24579277E+00 0.18270781E+03</pdfrwt>
<pdfrwt beam="2">  1       21 0.14289572E-01 0.18270781E+03</pdfrwt>
<totfact> 0.30499040E+03</totfact>
</mgrwt>
</event>
<event>
12    1  0.1071811E-001  0.1904815E+03  0.7546771E-02  0.1159081E+00
         21   -1    0    0  503  502  0.00000000000E+00  0.00000000000E+00  0.66432921417E+02  0.66432921417E+02  0.00000000000E+00 0. -1.
         21   -1    0    0  501  503 -0.00000000000E+00 -0.00000000000E+00 -0.83440447485E+03  0.83440447485E+03  0.00000000000E+00 0. -1.
          6    2    1    2  501    0  0.50551195372E+02  0.44230573410E+02 -0.65167425460E+03  0.67765977471E+03  0.17329647768E+03 0.  0.
         24    2    3    3    0    0 -0.56780602902E+01 -0.31237725817E+02 -0.22203569732E+03  0.23780914861E+03  0.79027238312E+02 0.  0.
         -6    2    1    2    0  502 -0.50551195372E+02 -0.44230573410E+02 -0.11629729883E+03  0.22317762156E+03  0.17824539845E+03 0.  0.
        -24    2    5    5    0    0 -0.36568987421E+01  0.40895725062E+02 -0.70589510989E+02  0.11567481407E+03  0.81926493342E+02 0.  0.
          5    1    3    3  501    0  0.56229255662E+02  0.75468299227E+02 -0.42963855728E+03  0.43985062610E+03  0.47000000000E+01 0. -1.
        -13    1    4    4    0    0  0.65848769791E+01  0.11635700592E+02 -0.22652765385E+01  0.13560295384E+02  0.00000000000E+00 0.  1.
         14    1    4    4    0    0 -0.12262937269E+02 -0.42873426409E+02 -0.21977042078E+03  0.22424885323E+03  0.00000000000E+00 0. -1.
         -5    1    5    5    0  502 -0.46894296630E+02 -0.85126298472E+02 -0.45707787844E+02  0.10750280749E+03  0.47000000000E+01 0.  1.
         13    1    6    6    0    0  0.12705855167E+02  0.20646302138E+02  0.13430092604E+02  0.27714182919E+02  0.00000000000E+00 0. -1.
        -14    1    6    6    0    0 -0.16362753909E+02  0.20249422924E+02 -0.84019603593E+02  0.87960631149E+02  0.00000000000E+00 0.  1.
<mgrwt>
<rscale>  2 0.18931509E+03</rscale>
<asrwt>0</asrwt>
<pdfrwt beam="1">  1       21 0.10220450E-01 0.19048147E+03</pdfrwt>
<pdfrwt beam="2">  1       21 0.12836992E+00 0.19048147E+03</pdfrwt>
<totfact> 0.34883056E+04</totfact>
</mgrwt>
</event>
<event>
12    1  0.1071811E-001  0.2816214E+03  0.7546771E-02  0.1094876E+00
         21   -1    0    0  501  502  0.00000000000E+00  0.00000000000E+00  0.57772032429E+02  0.57772032429E+02  0.00000000000E+00 0.  1.
         21   -1    0    0  502  503 -0.00000000000E+00 -0.00000000000E+00 -0.14043384659E+04  0.14043384659E+04  0.00000000000E+00 0.  1.
         -6    2    1    2    0  503  0.23577563587E+02  0.22036270237E+03 -0.78762947433E+03  0.83646326052E+03  0.17376701433E+03 0.  0.
        -24    2    3    3    0    0  0.61016044961E+02  0.11788244200E+03 -0.59757685118E+03  0.61726943483E+03  0.79399208046E+02 0.  0.
          6    2    1    2  501    0 -0.23577563587E+02 -0.22036270237E+03 -0.55893695913E+03  0.62564723779E+03  0.17294022025E+03 0.  0.
         24    2    5    5    0    0  0.44032706482E+02 -0.17321591125E+03 -0.44063705872E+03  0.48138731624E+03  0.75033989395E+02 0.  0.
          5    1    5    5  501    0 -0.67610270069E+02 -0.47146791117E+02 -0.11829990041E+03  0.14425992156E+03  0.47000000000E+01 0. -1.
        -11    1    6    6    0    0  0.13163440094E+02 -0.10621698533E+03 -0.17008110416E+03  0.20095498531E+03  0.00000000000E+00 0.  1.
         12    1    6    6    0    0  0.30869266388E+02 -0.66998925922E+02 -0.27055595456E+03  0.28043233093E+03  0.00000000000E+00 0. -1.
         -5    1    3    3    0  503 -0.37438481373E+02  0.10248026037E+03 -0.19005262315E+03  0.21919382569E+03  0.47000000000E+01 0.  1.
         11    1    4    4    0    0  0.74657648902E+02  0.99523979232E+02 -0.41448917046E+03  0.43275866185E+03  0.00000000000E+00 0. -1.
        -12    1    4    4    0    0 -0.13641603942E+02  0.18358462763E+02 -0.18308768073E+03  0.18451077298E+03  0.00000000000E+00 0.  1.
<mgrwt>
<rscale>  2 0.28149394E+03</rscale>
<asrwt>0</asrwt>
<pdfrwt beam="1">  1       21 0.88880059E-02 0.28162137E+03</pdfrwt>
<pdfrwt beam="2">  1       21 0.21605205E+00 0.28162137E+03</pdfrwt>
<totfact> 0.99496292E+03</totfact>
</mgrwt>
</event>
<event>
12    1  0.1071811E-001  0.1845602E+03  0.7546771E-02  0.1163496E+00
         21   -1    0    0  501  502  0.00000000000E+00  0.00000000000E+00  0.70386074209E+03  0.70386074209E+03  0.00000000000E+00 0. -1.
         21   -1    0    0  502  503 -0.00000000000E+00 -0.00000000000E+00 -0.90842927455E+02  0.90842927455E+02  0.00000000000E+00 0. -1.
         -6    2    1    2    0  503  0.63405992471E+02  0.35423563473E+01  0.34695744900E+02  0.18764609691E+03  0.17313114914E+03 0.  0.
        -24    2    3    3    0    0 -0.29039689476E+02  0.28221968979E+02  0.29314812272E+02  0.91696465199E+02  0.76870673299E+02 0.  0.
          6    2    1    2  501    0 -0.63405992471E+02 -0.35423563473E+01  0.57832206974E+03  0.60705757263E+03  0.17329054209E+03 0.  0.
         24    2    5    5    0    0 -0.43092707793E+01 -0.52936456763E+02  0.28625619469E+03  0.30497022593E+03  0.90793124393E+02 0.  0.
          5    1    5    5  501    0 -0.59096721692E+02  0.49394100415E+02  0.29206587505E+03  0.30208734671E+03  0.47000000000E+01 0. -1.
        -11    1    6    6    0    0  0.39478661062E+01 -0.26120285740E+02  0.11544530196E+02  0.28829345317E+02  0.00000000000E+00 0.  1.
         12    1    6    6    0    0 -0.82571368856E+01 -0.26816171022E+02  0.27471166449E+03  0.27614088061E+03  0.00000000000E+00 0. -1.
         -5    1    3    3    0  503  0.92445681947E+02 -0.24679612632E+02  0.53809326282E+01  0.95949631715E+02  0.47000000000E+01 0.  1.
         11    1    4    4    0    0  0.26056774812E+01  0.57342596354E+01 -0.24524435936E+02  0.25320332673E+02  0.00000000000E+00 0. -1.
        -12    1    4    4    0    0 -0.31645366957E+02  0.22487709344E+02  0.53839248208E+02  0.66376132525E+02  0.00000000000E+00 0.  1.
<mgrwt>
<rscale>  2 0.18452281E+03</rscale>
<asrwt>0</asrwt>
<pdfrwt beam="1">  1       21 0.10828626E+00 0.18456023E+03</pdfrwt>
<pdfrwt beam="2">  1       21 0.13975835E-01 0.18456023E+03</pdfrwt>
<totfact> 0.30396861E+04</totfact>
</mgrwt>
</event>
<event>
12    1  0.1071811E-001  0.3072384E+03  0.7546771E-02  0.1081829E+00
         21   -1    0    0  503  502  0.00000000000E+00  0.00000000000E+00  0.19535825537E+04  0.19535825537E+04  0.00000000000E+00 0.  1.
         21   -1    0    0  501  503 -0.00000000000E+00 -0.00000000000E+00 -0.63776573844E+02  0.63776573844E+02  0.00000000000E+00 0.  1.
          6    2    1    2  501    0  0.13742687303E+03 -0.21285477652E+03  0.44663524931E+03  0.54210557327E+03  0.17378752927E+03 0.  0.
         24    2    3    3    0    0  0.27245698114E+02 -0.17047133979E+03  0.24214160846E+03  0.30593617186E+03  0.71844115622E+02 0.  0.
         -6    2    1    2    0  502 -0.13742687303E+03  0.21285477652E+03  0.14431707305E+04  0.14752535542E+04  0.17157502897E+03 0.  0.
        -24    2    5    5    0    0 -0.23852477925E+02  0.32664799094E+02  0.50823345507E+03  0.51634929927E+03  0.81727744362E+02 0.  0.
          5    1    3    3  501    0  0.11018117492E+03 -0.42383436731E+02  0.20449364086E+03  0.23616940142E+03  0.47000000000E+01 0. -1.
        -13    1    4    4    0    0 -0.20103795168E+02 -0.20001581133E+02  0.48424457788E+02  0.56117322995E+02  0.00000000000E+00 0.  1.
         14    1    4    4    0    0  0.47349493282E+02 -0.15046975866E+03  0.19371715067E+03  0.24981884886E+03  0.00000000000E+00 0. -1.
         -5    1    5    5    0  502 -0.11357439510E+03  0.18018997743E+03  0.93493727544E+03  0.95890425497E+03  0.47000000000E+01 0.  1.
         13    1    6    6    0    0 -0.38707490323E+00  0.46274881954E+02  0.14730707602E+03  0.15440495190E+03  0.00000000000E+00 0. -1.
        -14    1    6    6    0    0 -0.23465403022E+02 -0.13610082859E+02  0.36092637905E+03  0.36194434737E+03  0.00000000000E+00 0.  1.
<mgrwt>
<rscale>  2 0.30692637E+03</rscale>
<asrwt>0</asrwt>
<pdfrwt beam="1">  1       21 0.30055112E+00 0.30723835E+03</pdfrwt>
<pdfrwt beam="2">  1       21 0.98117821E-02 0.30723835E+03</pdfrwt>
<totfact> 0.25451727E+03</totfact>
</mgrwt>
</event>
<event>
12    1  0.1071811E-001  0.1890544E+03  0.7546771E-02  0.1163686E+00
         21   -1    0    0  503  502  0.00000000000E+00  0.00000000000E+00  0.10229097211E+03  0.10229097211E+03  0.00000000000E+00 0. -1.
         21   -1    0    0  501  503 -0.00000000000E+00 -0.00000000000E+00 -0.33176322947E+03  0.33176322947E+03  0.00000000000E+00 0. -1.
          6    2    1    2  501    0 -0.71692503433E+02  0.27548660939E+02 -0.15564891233E+03  0.23109744795E+03  0.15258015196E+03 0.  0.
         24    2    3    3    0    0 -0.60766719592E+02 -0.34859870778E+02 -0.80771973817E+02  0.13289946679E+03  0.78932577033E+02 0.  0.
         -6    2    1    2    0  502  0.71692503433E+02 -0.27548660939E+02 -0.73823345017E+02  0.20295675363E+03  0.17275072736E+03 0.  0.
        -24    2    5    5    0    0  0.92242288731E+01 -0.57268819581E+02  0.32030374617E+01  0.99319276071E+02  0.80555912606E+02 0.  0.
          5    1    3    3  501    0 -0.10925783841E+02  0.62408531718E+02 -0.74876938518E+02  0.98197981168E+02  0.47000000000E+01 0. -1.
        -13    1    4    4    0    0 -0.50877872138E+00 -0.35117162767E+02 -0.59318508902E+02  0.68935908458E+02  0.00000000000E+00 0.  1.
         14    1    4    4    0    0 -0.60257940870E+02  0.25729198865E+00 -0.21453464915E+02  0.63963558328E+02  0.00000000000E+00 0. -1.
         -5    1    5    5    0  502  0.62468274560E+02  0.29720158642E+02 -0.77026382479E+02  0.10363747756E+03  0.47000000000E+01 0.  1.
         13    1    6    6    0    0 -0.96027067308E+01 -0.37605400364E+02 -0.35098585315E+02  0.52328661403E+02  0.00000000000E+00 0. -1.
        -14    1    6    6    0    0  0.18826935604E+02 -0.19663419217E+02  0.38301622777E+02  0.46990614668E+02  0.00000000000E+00 0.  1.
<mgrwt>
<rscale>  2 0.18432094E+03</rscale>
<asrwt>0</asrwt>
<pdfrwt beam="1">  1       21 0.15737073E-01 0.18905438E+03</pdfrwt>
<pdfrwt beam="2">  1       21 0.51040496E-01 0.18905438E+03</pdfrwt>
<totfact> 0.13134963E+05</totfact>
</mgrwt>
</event>
<event>
12    1  0.1071811E-001  0.3455862E+03  0.7546771E-02  0.1064441E+00
         21   -1    0    0  503  502  0.00000000000E+00  0.00000000000E+00  0.82957318246E+03  0.82957318246E+03  0.00000000000E+00 0.  1.
         21   -1    0    0  501  503 -0.00000000000E+00 -0.00000000000E+00 -0.19022299352E+03  0.19022299352E+03  0.00000000000E+00 0.  1.
          6    2    1    2  501    0 -0.18546577081E+03  0.23492343460E+03  0.68229510999E+02  0.35225692583E+03  0.17275156542E+03 0.  0.
         24    2    3    3    0    0 -0.18096952838E+03  0.13410809641E+03  0.23350447750E+02  0.24171205291E+03  0.84525270711E+02 0.  0.
         -6    2    1    2    0  502  0.18546577081E+03 -0.23492343460E+03  0.57112067793E+03  0.66753925015E+03  0.17275198830E+03 0.  0.
        -24    2    5    5    0    0  0.16460061920E+03 -0.17930366496E+03  0.32255185628E+03  0.41192731298E+03  0.80007768868E+02 0.  0.
          5    1    3    3  501    0 -0.44962424351E+01  0.10081533819E+03  0.44879063249E+02  0.11054487292E+03  0.47000000000E+01 0. -1.
        -13    1    4    4    0    0 -0.24542237865E+02  0.58888298421E+02 -0.11092524314E+02  0.64754901173E+02  0.00000000000E+00 0.  1.
         14    1    4    4    0    0 -0.15642729051E+03  0.75219797988E+02  0.34442972064E+02  0.17695715174E+03  0.00000000000E+00 0. -1.
         -5    1    5    5    0  502  0.20865151614E+02 -0.55619769639E+02  0.24856882165E+03  0.25561193717E+03  0.47000000000E+01 0.  1.
         13    1    6    6    0    0  0.35197249720E+02 -0.19830569719E+02  0.17133895542E+02  0.43882436802E+02  0.00000000000E+00 0. -1.
        -14    1    6    6    0    0  0.12940336948E+03 -0.15947309524E+03  0.30541796074E+03  0.36804487618E+03  0.00000000000E+00 0.  1.
<mgrwt>
<rscale>  2 0.34558615E+03</rscale>
<asrwt>0</asrwt>
<pdfrwt beam="1">  1       21 0.12762664E+00 0.34558620E+03</pdfrwt>
<pdfrwt beam="2">  1       21 0.29265076E-01 0.34558620E+03</pdfrwt>
<totfact> 0.46078699E+03</totfact>
</mgrwt>
</event>
<event>
12    1  0.1071811E-001  0.1763198E+03  0.7546771E-02  0.1171419E+00
         21   -1    0    0  503  502  0.00000000000E+00  0.00000000000E+00  0.18950430959E+04  0.18950430959E+04  0.00000000000E+00 0. -1.
         21   -1    0    0  501  503 -0.00000000000E+00 -0.00000000000E+00 -0.26399305355E+02  0.26399305355E+02  0.00000000000E+00 0. -1.
          6    2    1    2  501    0  0.19240691745E+02  0.35202058102E+02  0.34318096257E+03  0.38582618953E+03  0.17169533001E+03 0.  0.
         24    2    3    3    0    0 -0.47145352877E+02  0.42336395495E+02  0.14990090564E+03  0.18128456517E+03  0.79867123250E+02 0.  0.
         -6    2    1    2    0  502 -0.19240691745E+02 -0.35202058102E+02  0.15254628280E+04  0.15356162117E+04  0.17167096741E+03 0.  0.
        -24    2    5    5    0    0  0.43770467151E+02 -0.12530210829E+02  0.11808772992E+04  0.11845525488E+04  0.81367592139E+02 0.  0.
          5    1    3    3  501    0  0.66386044622E+02 -0.71343373935E+01  0.19328005693E+03  0.20454162436E+03  0.47000000000E+01 0. -1.
        -11    1    4    4    0    0 -0.18722278242E+02  0.53179356636E+01  0.12845570836E+03  0.12992179630E+03  0.00000000000E+00 0.  1.
         12    1    4    4    0    0 -0.28423074635E+02  0.37018459832E+02  0.21445197276E+02  0.51362768872E+02  0.00000000000E+00 0. -1.
         -5    1    5    5    0  502 -0.63011158896E+02 -0.22671847272E+02  0.34458552882E+03  0.35106366300E+03  0.47000000000E+01 0.  1.
         13    1    6    6    0    0  0.69668170667E+01  0.28895383848E+02  0.67404783070E+03  0.67470286632E+03  0.00000000000E+00 0. -1.
        -14    1    6    6    0    0  0.36803650084E+02 -0.41425594678E+02  0.50682946848E+03  0.50984968243E+03  0.00000000000E+00 0.  1.
<mgrwt>
<rscale>  2 0.17631388E+03</rscale>
<asrwt>0</asrwt>
<pdfrwt beam="1">  1       21 0.29154498E+00 0.17631981E+03</pdfrwt>
<pdfrwt beam="2">  1       21 0.40614331E-02 0.17631981E+03</pdfrwt>
<totfact> 0.14836801E+04</totfact>
</mgrwt>
</event>
<event>
12    1  0.1071811E-001  0.1863299E+03  0.7546771E-02  0.1164615E+00
         21   -1    0    0  503  502  0.00000000000E+00  0.00000000000E+00  0.99689733201E+02  0.99689733201E+02  0.00000000000E+00 0.  1.
         21   -1    0    0  501  503 -0.00000000000E+00 -0.00000000000E+00 -0.40845866543E+03  0.40845866543E+03  0.00000000000E+00 0. -1.
          6    2    1    2  501    0  0.39837986848E+02 -0.52086348344E+02 -0.44796348640E+02  0.19163908365E+03  0.17440978370E+03 0.  0.
         24    2    3    3    0    0  0.39865623564E+02 -0.10076065980E+03 -0.21507063505E+02  0.13747571816E+03  0.81823228956E+02 0.  0.
         -6    2    1    2    0  502 -0.39837986848E+02  0.52086348344E+02 -0.26397258359E+03  0.31650931498E+03  0.16185354091E+03 0.  0.
        -24    2    5    5    0    0 -0.74609612625E+02  0.70541839625E+02 -0.22863368789E+03  0.26340000632E+03  0.81015150791E+02 0.  0.
          5    1    3    3  501    0 -0.27636716113E-01  0.48674311454E+02 -0.23289285136E+02  0.54163365492E+02  0.47000000000E+01 0. -1.
        -11    1    4    4    0    0  0.12904951618E+02 -0.41618462344E+02  0.31366254160E+02  0.53688696056E+02  0.00000000000E+00 0.  1.
         12    1    4    4    0    0  0.26960671946E+02 -0.59142197454E+02 -0.52873317665E+02  0.83787022100E+02  0.00000000000E+00 0. -1.
         -5    1    5    5    0  502  0.34771625777E+02 -0.18455491280E+02 -0.35338895699E+02  0.53109308664E+02  0.47000000000E+01 0.  1.
         13    1    6    6    0    0 -0.30349706147E+02  0.54825461760E+02 -0.19711679119E+03  0.20683801703E+03  0.00000000000E+00 0. -1.
        -14    1    6    6    0    0 -0.44259906477E+02  0.15716377865E+02 -0.31516896696E+02  0.56561989286E+02  0.00000000000E+00 0.  1.
<mgrwt>
<rscale>  2 0.18333414E+03</rscale>
<asrwt>0</asrwt>
<pdfrwt beam="1">  1       21 0.15336882E-01 0.18632988E+03</pdfrwt>
<pdfrwt beam="2">  1       21 0.62839795E-01 0.18632988E+03</pdfrwt>
<totfact> 0.88577608E+04</totfact>
</mgrwt>
</event>
<event>
12    1  0.1071811E-001  0.2199584E+03  0.7546771E-02  0.1134677E+00
         21   -1    0    0  501  502  0.00000000000E+00  0.00000000000E+00  0.13816671892E+03  0.13816671892E+03  0.00000000000E+00 0. -1.
         21   -1    0    0  502  503 -0.00000000000E+00 -0.00000000000E+00 -0.47996766568E+03  0.47996766568E+03  0.00000000000E+00 0.  1.
         -6    2    1    2    0  503  0.51159585465E+02  0.12005762385E+03 -0.33668490992E+03  0.40216716170E+03  0.17706089674E+03 0.  0.
        -24    2    3    3    0    0  0.75414008543E+02  0.18698932305E+02 -0.13221520118E+03  0.17262018790E+03  0.79246117210E+02 0.  0.
          6    2    1    2  501    0 -0.51159585465E+02 -0.12005762385E+03 -0.51160368428E+01  0.21596722290E+03  0.17200154448E+03 0.  0.
         24    2    5    5    0    0 -0.47793631043E+02 -0.20949094249E+02 -0.46425840984E+02  0.10843852809E+03  0.82948537929E+02 0.  0.
          5    1    5    5  501    0 -0.33659544221E+01 -0.99108529605E+02  0.41309804141E+02  0.10752869481E+03  0.47000000000E+01 0. -1.
        -13    1    6    6    0    0  0.16267050274E+02  0.15211799798E+02 -0.20987733823E+02  0.30602299730E+02  0.00000000000E+00 0.  1.
         14    1    6    6    0    0 -0.64060681316E+02 -0.36160894047E+02 -0.25438107161E+02  0.77836228358E+02  0.00000000000E+00 0. -1.
         -5    1    3    3    0  503 -0.24254423078E+02  0.10135869155E+03 -0.20446970874E+03  0.22954697381E+03  0.47000000000E+01 0.  1.
         11    1    4    4    0    0  0.51201052218E+02  0.38415848635E+02 -0.40528143456E+02  0.75761834631E+02  0.00000000000E+00 0. -1.
        -12    1    4    4    0    0  0.24212956325E+02 -0.19716916330E+02 -0.91687057725E+02  0.96858353268E+02  0.00000000000E+00 0.  1.
<mgrwt>
<rscale>  2 0.21893838E+03</rscale>
<asrwt>0</asrwt>
<pdfrwt beam="1">  1       21 0.21256418E-01 0.21995840E+03</pdfrwt>
<pdfrwt beam="2">  1       21 0.73841179E-01 0.21995840E+03</pdfrwt>
<totfact> 0.33412808E+04</totfact>
</mgrwt>
</event>
<event>
12    1  0.1071811E-001  0.2395294E+03  0.7546771E-02  0.1120515E+00
         21   -1    0    0  503  502  0.00000000000E+00  0.00000000000E+00  0.52690163021E+03  0.52690163021E+03  0.00000000000E+00 0.  1.
         21   -1    0    0  501  503 -0.00000000000E+00 -0.00000000000E+00 -0.11318200167E+03  0.11318200167E+03  0.00000000000E+00 0.  1.
          6    2    1    2  501    0 -0.15587708454E+03  0.37316078925E+02  0.27572659127E+03  0.36364841108E+03  0.17471364720E+03 0.  0.
         24    2    3    3    0    0 -0.18254707663E+03  0.12468304974E+02  0.24233920377E+03  0.31399452914E+03  0.79908577940E+02 0.  0.
         -6    2    1    2    0  502  0.15587708454E+03 -0.37316078925E+02  0.13799303727E+03  0.27643522080E+03  0.17800055542E+03 0.  0.
        -24    2    5    5    0    0 -0.32952002031E-01 -0.22495998658E+00  0.39842836652E+02  0.88447874198E+02  0.78965328625E+02 0.  0.
          5    1    3    3  501    0  0.26669992087E+02  0.24847773952E+02  0.33387387491E+02  0.49653881940E+02  0.47000000000E+01 0. -1.
        -11    1    4    4    0    0 -0.74909342360E+02 -0.18791976868E+01  0.41446150086E+02  0.85631327875E+02  0.00000000000E+00 0.  1.
         12    1    4    4    0    0 -0.10763773427E+03  0.14347502660E+02  0.20089305369E+03  0.22836320127E+03  0.00000000000E+00 0. -1.
         -5    1    5    5    0  502  0.15591003655E+03 -0.37091118939E+02  0.98150200618E+02  0.18798734660E+03  0.47000000000E+01 0.  1.
         11    1    6    6    0    0  0.56796848485E+01  0.31467184705E+02 -0.58911066954E+01  0.32513807396E+02  0.00000000000E+00 0. -1.
        -12    1    6    6    0    0 -0.57126368506E+01 -0.31692144692E+02  0.45733943348E+02  0.55934066803E+02  0.00000000000E+00 0.  1.
<mgrwt>
<rscale>  2 0.23891901E+03</rscale>
<asrwt>0</asrwt>
<pdfrwt beam="1">  1       21 0.81061788E-01 0.23952944E+03</pdfrwt>
<pdfrwt beam="2">  1       21 0.17412616E-01 0.23952944E+03</pdfrwt>
<totfact> 0.38935494E+04</totfact>
</mgrwt>
</event>
<event>
12    1  0.1071811E-001  0.2865675E+03  0.7546771E-02  0.1092279E+00
         21   -1    0    0  501  502  0.00000000000E+00  0.00000000000E+00  0.51169726441E+03  0.51169726441E+03  0.00000000000E+00 0.  1.
         21   -1    0    0  502  503 -0.00000000000E+00 -0.00000000000E+00 -0.17162419979E+03  0.17162419979E+03  0.00000000000E+00 0. -1.
         -6    2    1    2    0  503  0.22392578288E+03  0.38649354633E+02  0.81249355953E+02  0.29786308299E+03  0.17459790810E+03 0.  0.
        -24    2    3    3    0    0  0.10124389644E+03  0.85115126608E+02  0.54387000747E+02  0.16387207824E+03  0.80007504851E+02 0.  0.
          6    2    1    2  501    0 -0.22392578288E+03 -0.38649354633E+02  0.25882370867E+03  0.38545838122E+03  0.17306623769E+03 0.  0.
         24    2    5    5    0    0 -0.23750521177E+03 -0.58702280076E+02  0.25103695612E+03  0.35958862623E+03  0.80185681241E+02 0.  0.
          5    1    5    5  501    0  0.13579428886E+02  0.20052925443E+02  0.77867525534E+01  0.25869754986E+02  0.47000000000E+01 0. -1.
        -13    1    6    6    0    0 -0.42926632522E+02  0.15250505419E+02  0.71084673198E+02  0.84429286737E+02  0.00000000000E+00 0.  1.
         14    1    6    6    0    0 -0.19457857924E+03 -0.73952785495E+02  0.17995228292E+03  0.27515933949E+03  0.00000000000E+00 0. -1.
         -5    1    3    3    0  503  0.12268188644E+03 -0.46465771975E+02  0.26862355206E+02  0.13399100475E+03  0.47000000000E+01 0.  1.
         11    1    4    4    0    0  0.75050868243E+02  0.15771776675E+02  0.96554443477E+01  0.77295597346E+02  0.00000000000E+00 0. -1.
        -12    1    4    4    0    0  0.26193028196E+02  0.69343349933E+02  0.44731556399E+02  0.86576480893E+02  0.00000000000E+00 0.  1.
<mgrwt>
<rscale>  2 0.28633461E+03</rscale>
<asrwt>0</asrwt>
<pdfrwt beam="1">  1       21 0.78722656E-01 0.28656755E+03</pdfrwt>
<pdfrwt beam="2">  1       21 0.26403723E-01 0.28656755E+03</pdfrwt>
<totfact> 0.18530004E+04</totfact>
</mgrwt>
</event>
<event>
12    1  0.1071811E-001  0.2178940E+03  0.7546771E-02  0.1135520E+00
         21   -1    0    0  501  502  0.00000000000E+00  0.00000000000E+00  0.88272696566E+02  0.88272696566E+02  0.00000000000E+00 0. -1.
         21   -1    0    0  502  503 -0.00000000000E+00 -0.00000000000E+00 -0.11603082093E+04  0.11603082093E+04  0.00000000000E+00 0.  1.
         -6    2    1    2    0  503 -0.43330416584E+01  0.13226509098E+03 -0.99336934721E+03  0.10169213263E+04  0.17272375183E+03 0.  0.
        -24    2    3    3    0    0 -0.28001006198E+02  0.42943137976E+02 -0.75539263981E+03  0.76159097738E+03  0.82308001462E+02 0.  0.
          6    2    1    2  501    0  0.43330416584E+01 -0.13226509098E+03 -0.78666165561E+02  0.23165957956E+03  0.17310391578E+03 0.  0.
         24    2    5    5    0    0  0.36979752075E+02 -0.10019556487E+03 -0.11275824625E+03  0.17440032554E+03  0.79337243267E+02 0.  0.
          5    1    5    5  501    0 -0.32646710416E+02 -0.32069526108E+02  0.34092080685E+02  0.57259254022E+02  0.47000000000E+01 0. -1.
        -11    1    6    6    0    0 -0.84097699077E+00 -0.59169125414E+01 -0.59319486291E+02  0.59619783212E+02  0.00000000000E+00 0.  1.
         12    1    6    6    0    0  0.37820729065E+02 -0.94278652328E+02 -0.53438759954E+02  0.11478054233E+03  0.00000000000E+00 0. -1.
         -5    1    3    3    0  503  0.23667964540E+02  0.89321953002E+02 -0.23797670740E+03  0.25533034896E+03  0.47000000000E+01 0.  1.
         13    1    4    4    0    0  0.14091835241E+02 -0.39860964650E+01 -0.42415489429E+03  0.42440763793E+03  0.00000000000E+00 0. -1.
        -14    1    4    4    0    0 -0.42092841439E+02  0.46929234441E+02 -0.33123774552E+03  0.33718333945E+03  0.00000000000E+00 0.  1.
<mgrwt>
<rscale>  2 0.21781849E+03</rscale>
<asrwt>0</asrwt>
<pdfrwt beam="1">  1       21 0.13580415E-01 0.21789400E+03</pdfrwt>
<pdfrwt beam="2">  1       21 0.17850896E+00 0.21789400E+03</pdfrwt>
<totfact> 0.85776459E+03</totfact>
</mgrwt>
</event>
<event>
12    1  0.1071811E-001  0.1752959E+03  0.7546771E-02  0.1172630E+00
         21   -1    0    0  501  502  0.00000000000E+00  0.00000000000E+00  0.55353035915E+03  0.55353035915E+03  0.00000000000E+00 0.  1.
         21   -1    0    0  502  503 -0.00000000000E+00 -0.00000000000E+00 -0.72485052196E+02  0.72485052196E+02  0.00000000000E+00 0.  1.
         -6    2    1    2    0  503 -0.28712602784E+02  0.74360072621E+00  0.87569167320E+02  0.19525780318E+03  0.17214030364E+03 0.  0.
        -24    2    3    3    0    0 -0.72457408237E+02 -0.23182398414E+02  0.93017325979E+02  0.14488088513E+03  0.80936693412E+02 0.  0.
          6    2    1    2  501    0  0.28712602784E+02 -0.74360072621E+00  0.39347613964E+03  0.43075760817E+03  0.17292679963E+03 0.  0.
         24    2    5    5    0    0 -0.27315329033E+02  0.48686572751E+02  0.19455502405E+03  0.21821544431E+03  0.81546386698E+02 0.  0.
          5    1    5    5  501    0  0.56027931817E+02 -0.49430173478E+02  0.19892111559E+03  0.21254216386E+03  0.47000000000E+01 0. -1.
        -11    1    6    6    0    0  0.19627060423E+02  0.15762711224E+02  0.12762422152E+03  0.13008315219E+03  0.00000000000E+00 0.  1.
         12    1    6    6    0    0 -0.46942389456E+02  0.32923861527E+02  0.66930802537E+02  0.88132292118E+02  0.00000000000E+00 0. -1.
         -5    1    3    3    0  503  0.43744805453E+02  0.23925999140E+02 -0.54481586591E+01  0.50376918046E+02  0.47000000000E+01 0.  1.
         11    1    4    4    0    0  0.73368574393E+01  0.18266402192E+02  0.26609925921E+02  0.33099532982E+02  0.00000000000E+00 0. -1.
        -12    1    4    4    0    0 -0.79794265677E+02 -0.41448800607E+02  0.66407400058E+02  0.11178135215E+03  0.00000000000E+00 0.  1.
<mgrwt>
<rscale>  2 0.17510160E+03</rscale>
<asrwt>0</asrwt>
<pdfrwt beam="1">  1       21 0.85158514E-01 0.17529588E+03</pdfrwt>
<pdfrwt beam="2">  1       21 0.11151547E-01 0.17529588E+03</pdfrwt>
<totfact> 0.80402392E+04</totfact>
</mgrwt>
</event>
<event>
12    1  0.1071811E-001  0.1855162E+03  0.7546771E-02  0.1167252E+00
         21   -1    0    0  501  502  0.00000000000E+00  0.00000000000E+00  0.32827328917E+03  0.32827328917E+03  0.00000000000E+00 0.  1.
         21   -1    0    0  502  503 -0.00000000000E+00 -0.00000000000E+00 -0.12823665437E+03  0.12823665437E+03  0.00000000000E+00 0.  1.
         -6    2    1    2    0  503  0.45548630441E+02 -0.47662439673E+02 -0.13173255472E+02  0.18598335393E+03  0.17340671091E+03 0.  0.
        -24    2    3    3    0    0  0.55697739763E+02 -0.70303866645E+02  0.39759149589E+02  0.12733552242E+03  0.81170643787E+02 0.  0.
          6    2    1    2  501    0 -0.45548630441E+02  0.47662439673E+02  0.21320989027E+03  0.27052658961E+03  0.15290452081E+03 0.  0.
         24    2    5    5    0    0 -0.64529630719E+02  0.74472261283E+02  0.19071840697E+03  0.23043916356E+03  0.83776526556E+02 0.  0.
          5    1    5    5  501    0  0.18981000278E+02 -0.26809821610E+02  0.22491483302E+02  0.40087426052E+02  0.47000000000E+01 0. -1.
        -13    1    6    6    0    0  0.12132258208E+02  0.40484812789E+01  0.69453668485E+02  0.70621483671E+02  0.00000000000E+00 0.  1.
         14    1    6    6    0    0 -0.76661888927E+02  0.70423780004E+02  0.12126473849E+03  0.15981767989E+03  0.00000000000E+00 0. -1.
         -5    1    3    3    0  503 -0.10149109322E+02  0.22641426973E+02 -0.52932405061E+02  0.58647831511E+02  0.47000000000E+01 0.  1.
         11    1    4    4    0    0  0.44568179080E+02  0.49951358944E+01  0.15294698666E+02  0.47383560191E+02  0.00000000000E+00 0. -1.
        -12    1    4    4    0    0  0.11129560683E+02 -0.75299002540E+02  0.24464450923E+02  0.79951962224E+02  0.00000000000E+00 0.  1.
<mgrwt>
<rscale>  2 0.18057087E+03</rscale>
<asrwt>0</asrwt>
<pdfrwt beam="1">  1       21 0.50503583E-01 0.18551623E+03</pdfrwt>
<pdfrwt beam="2">  1       21 0.19728716E-01 0.18551623E+03</pdfrwt>
<totfact> 0.88608541E+04</totfact>
</mgrwt>
</event>
<event>
12    1  0.1071811E-001  0.2792540E+03  0.7546771E-02  0.1096255E+00
         21   -1    0    0  503  502  0.00000000000E+00  0.00000000000E+00  0.18873165430E+04  0.18873165430E+04  0.00000000000E+00 0. -1.
         21   -1    0    0  501  503 -0.00000000000E+00 -0.00000000000E+00 -0.41622166492E+02  0.41622166492E+02  0.00000000000E+00 0. -1.
          6    2    1    2  501    0  0.18903954365E+02  0.21632549923E+03  0.10237215738E+04  0.10608246224E+04  0.17374964077E+03 0.  0.
         24    2    3    3    0    0 -0.10020637509E+02  0.49430422781E+02  0.23594271272E+03  0.25502798393E+03  0.82622811810E+02 0.  0.
         -6    2    1    2    0  502 -0.18903954365E+02 -0.21632549923E+03  0.82197280265E+03  0.86811408706E+03  0.17558103185E+03 0.  0.
        -24    2    5    5    0    0 -0.36137818493E+02 -0.11770591545E+03  0.27304153656E+03  0.31010830459E+03  0.80342114925E+02 0.  0.
          5    1    3    3  501    0  0.28924591873E+02  0.16689507645E+03  0.78777886112E+03  0.80579663848E+03  0.47000000000E+01 0. -1.
        -11    1    4    4    0    0 -0.40716931257E+02  0.47059122323E+01  0.79439461753E+02  0.89390392014E+02  0.00000000000E+00 0.  1.
         12    1    4    4    0    0  0.30696293748E+02  0.44724510549E+02  0.15650325097E+03  0.16563759192E+03  0.00000000000E+00 0. -1.
         -5    1    5    5    0  502  0.17233864129E+02 -0.98619583779E+02  0.54893126609E+03  0.55800578247E+03  0.47000000000E+01 0.  1.
         13    1    6    6    0    0 -0.24323518940E+02 -0.10179912989E+03  0.27060980696E+03  0.29014541878E+03  0.00000000000E+00 0. -1.
        -14    1    6    6    0    0 -0.11814299553E+02 -0.15906785565E+02  0.24317296048E+01  0.19962885809E+02  0.00000000000E+00 0.  1.
<mgrwt>
<rscale>  2 0.27896657E+03</rscale>
<asrwt>0</asrwt>
<pdfrwt beam="1">  1       21 0.29035632E+00 0.27925397E+03</pdfrwt>
<pdfrwt beam="2">  1       21 0.64034117E-02 0.27925397E+03</pdfrwt>
<totfact> 0.63156632E+03</totfact>
</mgrwt>
</event>
<event>
12    1  0.1071811E-001  0.1860881E+03  0.7546771E-02  0.1162719E+00
         21   -1    0    0  503  502  0.00000000000E+00  0.00000000000E+00  0.30266124448E+03  0.30266124448E+03  0.00000000000E+00 0. -1.
         21   -1    0    0  501  503 -0.00000000000E+00 -0.00000000000E+00 -0.20914548399E+03  0.20914548399E+03  0.00000000000E+00 0. -1.
          6    2    1    2  501    0 -0.42508540595E+01  0.59191747673E+02 -0.12688289743E+03  0.22522885836E+03  0.17637186915E+03 0.  0.
         24    2    3    3    0    0  0.36817848181E+02  0.32791311687E+02 -0.14625007216E+03  0.17249557873E+03  0.77037763506E+02 0.  0.
         -6    2    1    2    0  502  0.42508540595E+01 -0.59191747673E+02  0.22039865792E+03  0.28657787010E+03  0.17329043386E+03 0.  0.
        -24    2    5    5    0    0 -0.41465522675E+02 -0.32206792674E+01  0.18789109396E+03  0.20719538265E+03  0.76792584624E+02 0.  0.
          5    1    3    3  501    0 -0.41068702240E+02  0.26400435986E+02  0.19367174733E+02  0.52733279635E+02  0.47000000000E+01 0. -1.
        -13    1    4    4    0    0  0.39092653054E+02  0.50253282818E+02 -0.71673804936E+02  0.95868463380E+02  0.00000000000E+00 0.  1.
         14    1    4    4    0    0 -0.22748048732E+01 -0.17461971131E+02 -0.74576267227E+02  0.76627115348E+02  0.00000000000E+00 0. -1.
         -5    1    5    5    0  502  0.45716376735E+02 -0.55971068406E+02  0.32507563955E+02  0.79382487455E+02  0.47000000000E+01 0.  1.
         11    1    6    6    0    0 -0.47260574659E+01 -0.11704529943E+02  0.15949221015E+03  0.15999092705E+03  0.00000000000E+00 0. -1.
        -12    1    6    6    0    0 -0.36739465209E+02  0.84838506753E+01  0.28398883816E+02  0.47204455596E+02  0.00000000000E+00 0.  1.
<mgrwt>
<rscale>  2 0.18535426E+03</rscale>
<asrwt>0</asrwt>
<pdfrwt beam="1">  1       21 0.46563268E-01 0.18608807E+03</pdfrwt>
<pdfrwt beam="2">  1       21 0.32176228E-01 0.18608807E+03</pdfrwt>
<totfact> 0.41173440E+04</totfact>
</mgrwt>
</event>
<event>
12    1  0.1071811E-001  0.2436064E+03  0.7546771E-02  0.1117823E+00
         21   -1    0    0  503  502  0.00000000000E+00  0.00000000000E+00  0.19128948708E+03  0.19128948708E+03  0.00000000000E+00 0.  1.
         21   -1    0    0  501  503 -0.00000000000E+00 -0.00000000000E+00 -0.31494288404E+03  0.31494288404E+03  0.00000000000E+00 0.  1.
          6    2    1    2  501    0 -0.60097544588E+02  0.15959727454E+03 -0.10217220049E+03  0.26416519217E+03  0.17395713637E+03 0.  0.
         24    2    3    3    0    0 -0.10350702668E+03  0.87958354239E+02 -0.48270300194E+02  0.16444547048E+03  0.79132257826E+02 0.  0.
         -6    2    1    2    0  502  0.60097544588E+02 -0.15959727454E+03 -0.21481196469E+02  0.24206717896E+03  0.17044668498E+03 0.  0.
        -24    2    5    5    0    0  0.15425520439E+02 -0.59527831116E+02 -0.63383962858E+02  0.12464735491E+03  0.87965487434E+02 0.  0.
          5    1    3    3  501    0  0.43409482093E+02  0.71638920300E+02 -0.53901900297E+02  0.99719721685E+02  0.47000000000E+01 0. -1.
        -13    1    4    4    0    0 -0.45890040247E+02  0.69179786496E+02 -0.60373874141E+02  0.10264864019E+03  0.00000000000E+00 0.  1.
         14    1    4    4    0    0 -0.57616986434E+02  0.18778567743E+02  0.12103573947E+02  0.61796830295E+02  0.00000000000E+00 0. -1.
         -5    1    5    5    0  502  0.44672024149E+02 -0.10006944342E+03  0.41902766389E+02  0.11741982405E+03  0.47000000000E+01 0.  1.
         13    1    6    6    0    0  0.43418282028E+02 -0.32991949170E+01 -0.17813341064E+02  0.47046222178E+02  0.00000000000E+00 0. -1.
        -14    1    6    6    0    0 -0.27992761589E+02 -0.56228636199E+02 -0.45570621794E+02  0.77601132729E+02  0.00000000000E+00 0.  1.
<mgrwt>
<rscale>  2 0.24298045E+03</rscale>
<asrwt>0</asrwt>
<pdfrwt beam="1">  1       21 0.29429152E-01 0.24360642E+03</pdfrwt>
<pdfrwt beam="2">  1       21 0.48452751E-01 0.24360642E+03</pdfrwt>
<totfact> 0.43946998E+04</totfact>
</mgrwt>
</event>
<event>
12    1  0.1071811E-001  0.2162540E+03  0.7546771E-02  0.1137690E+00
         21   -1    0    0  503  502  0.00000000000E+00  0.00000000000E+00  0.97015173455E+02  0.97015173455E+02  0.00000000000E+00 0. -1.
         21   -1    0    0  501  503 -0.00000000000E+00 -0.00000000000E+00 -0.56014216941E+03  0.56014216941E+03  0.00000000000E+00 0.  1.
          6    2    1    2  501    0  0.41641471002E+01  0.12173106554E+03 -0.36048845079E+03  0.41778216241E+03  0.17249411479E+03 0.  0.
         24    2    3    3    0    0 -0.55752357922E+02  0.11410852199E+03 -0.25456333901E+03  0.29575630429E+03  0.80871612793E+02 0.  0.
         -6    2    1    2    0  502 -0.41641471002E+01 -0.12173106554E+03 -0.10263854517E+03  0.23937518046E+03  0.17868971326E+03 0.  0.
        -24    2    5    5    0    0  0.55724768378E+02 -0.95956810120E+02 -0.28367434909E+02  0.14043437867E+03  0.81265885394E+02 0.  0.
          5    1    3    3  501    0  0.59916505023E+02  0.76225435533E+01 -0.10592511178E+03  0.12202585812E+03  0.47000000000E+01 0. -1.
        -13    1    4    4    0    0 -0.27032319192E+01  0.73176116133E+02 -0.18597012336E+03  0.19986730152E+03  0.00000000000E+00 0.  1.
         14    1    4    4    0    0 -0.53049126003E+02  0.40932405857E+02 -0.68593215648E+02  0.95889002768E+02  0.00000000000E+00 0. -1.
         -5    1    5    5    0  502 -0.59888915478E+02 -0.25774255423E+02 -0.74271110260E+02  0.98940801791E+02  0.47000000000E+01 0.  1.
         13    1    6    6    0    0  0.31180871108E+02 -0.72137492217E+02  0.20096978106E+02  0.81116909676E+02  0.00000000000E+00 0. -1.
        -14    1    6    6    0    0  0.24543897270E+02 -0.23819317904E+02 -0.48464413015E+02  0.59317468991E+02  0.00000000000E+00 0.  1.
<mgrwt>
<rscale>  2 0.21497000E+03</rscale>
<asrwt>0</asrwt>
<pdfrwt beam="1">  1       21 0.14925412E-01 0.21625403E+03</pdfrwt>
<pdfrwt beam="2">  1       21 0.86175716E-01 0.21625403E+03</pdfrwt>
<totfact> 0.45421572E+04</totfact>
</mgrwt>
</event>
<event>
12    1  0.1071811E-001  0.1880468E+03  0.7546771E-02  0.1160911E+00
         21   -1    0    0  501  502  0.00000000000E+00  0.00000000000E+00  0.66229503408E+02  0.66229503408E+02  0.00000000000E+00 0.  1.
         21   -1    0    0  502  503 -0.00000000000E+00 -0.00000000000E+00 -0.13066918005E+04  0.13066918005E+04  0.00000000000E+00 0.  1.
         -6    2    1    2    0  503 -0.71552440812E+02 -0.13115303276E+02 -0.11529128918E+04  0.11681479910E+04  0.17340654475E+03 0.  0.
        -24    2    3    3    0    0  0.74378870325E+01 -0.29583064061E+02 -0.86032839692E+03  0.86460485452E+03  0.80287757979E+02 0.  0.
          6    2    1    2  501    0  0.71552440812E+02  0.13115303276E+02 -0.87549405243E+02  0.20477331289E+03  0.17022176226E+03 0.  0.
         24    2    5    5    0    0  0.86643909705E+02 -0.23232518064E+02 -0.14662772112E+02  0.12180664586E+03  0.81086035199E+02 0.  0.
          5    1    5    5  501    0 -0.15091468893E+02  0.36347821340E+02 -0.72886633131E+02  0.82966667034E+02  0.47000000000E+01 0. -1.
        -13    1    6    6    0    0  0.91005286114E+02  0.43715452514E+01 -0.20178782145E+01  0.91132564658E+02  0.00000000000E+00 0.  1.
         14    1    6    6    0    0 -0.43613764095E+01 -0.27604063315E+02 -0.12644893898E+02  0.30674081199E+02  0.00000000000E+00 0. -1.
         -5    1    3    3    0  503 -0.78990327845E+02  0.16467760785E+02 -0.29258449491E+03  0.30354313647E+03  0.47000000000E+01 0.  1.
         11    1    4    4    0    0  0.35848433422E+02 -0.27327653532E+02 -0.28246962075E+03  0.28604369854E+03  0.00000000000E+00 0. -1.
        -12    1    4    4    0    0 -0.28410546389E+02 -0.22554105291E+01 -0.57785877617E+03  0.57856115599E+03  0.00000000000E+00 0.  1.
<mgrwt>
<rscale>  2 0.18730927E+03</rscale>
<asrwt>0</asrwt>
<pdfrwt beam="1">  1       21 0.10189155E-01 0.18804678E+03</pdfrwt>
<pdfrwt beam="2">  1       21 0.20102949E+00 0.18804678E+03</pdfrwt>
<totfact> 0.10421811E+04</totfact>
</mgrwt>
</event>
<event>
12    1  0.1071811E-001  0.2490642E+03  0.7546771E-02  0.1114371E+00
         21   -1    0    0  503  502  0.00000000000E+00  0.00000000000E+00  0.10450484225E+03  0.10450484225E+03  0.00000000000E+00 0. -1.
         21   -1    0    0  501  503 -0.00000000000E+00 -0.00000000000E+00 -0.60205223266E+03  0.60205223266E+03  0.00000000000E+00 0.  1.
          6    2    1    2  501    0  0.32702526917E+02 -0.17259798106E+03 -0.30400122872E+03  0.39113181819E+03  0.17235960606E+03 0.  0.
         24    2    3    3    0    0  0.71779005990E+02 -0.15343111318E+03 -0.28931639457E+03  0.34495742707E+03  0.81230032188E+02 0.  0.
         -6    2    1    2    0  502 -0.32702526917E+02  0.17259798106E+03 -0.19354616170E+03  0.31542525673E+03  0.17656006780E+03 0.  0.
        -24    2    5    5    0    0  0.17324401962E+02  0.88448133023E+02 -0.27327144392E+02  0.12246219743E+03  0.78275218560E+02 0.  0.
          5    1    3    3  501    0 -0.39076479073E+02 -0.19166867871E+02 -0.14684834146E+02  0.46174391113E+02  0.47000000000E+01 0. -1.
        -13    1    4    4    0    0  0.17657691254E+02 -0.32423785846E+02 -0.14226493404E+03  0.14697757451E+03  0.00000000000E+00 0.  1.
         14    1    4    4    0    0  0.54121314736E+02 -0.12100732734E+03 -0.14705146053E+03  0.19797985257E+03  0.00000000000E+00 0. -1.
         -5    1    5    5    0  502 -0.50026928879E+02  0.84149848033E+02 -0.16621901731E+03  0.19296305929E+03  0.47000000000E+01 0.  1.
         13    1    6    6    0    0 -0.16065280993E+02 -0.15138678617E+01  0.10571296975E+02  0.19290862319E+02  0.00000000000E+00 0. -1.
        -14    1    6    6    0    0  0.33389682954E+02  0.89962000885E+02 -0.37898441367E+02  0.10317133511E+03  0.00000000000E+00 0.  1.
<mgrwt>
<rscale>  2 0.24832092E+03</rscale>
<asrwt>0</asrwt>
<pdfrwt beam="1">  1       21 0.16077668E-01 0.24906420E+03</pdfrwt>
<pdfrwt beam="2">  1       21 0.92623421E-01 0.24906420E+03</pdfrwt>
<totfact> 0.33007833E+04</totfact>
</mgrwt>
</event>
<event>
12    1  0.1071811E-001  0.1798994E+03  0.7546771E-02  0.1169054E+00
         21   -1    0    0  503  502  0.00000000000E+00  0.00000000000E+00  0.62830511261E+03  0.62830511261E+03  0.00000000000E+00 0.  1.
         21   -1    0    0  501  503 -0.00000000000E+00 -0.00000000000E+00 -0.15909297244E+03  0.15909297244E+03  0.00000000000E+00 0.  1.
          6    2    1    2  501    0 -0.43064913357E+02  0.80679185775E+01 -0.92118643399E+02  0.19794407034E+03  0.16963588196E+03 0.  0.
         24    2    3    3    0    0 -0.22142558706E+02 -0.57818388141E+02 -0.76534825539E+02  0.12692508896E+03  0.80119534288E+02 0.  0.
         -6    2    1    2    0  502  0.43064913357E+02 -0.80679185775E+01  0.56133078357E+03  0.58945401472E+03  0.17448240258E+03 0.  0.
        -24    2    5    5    0    0  0.13862902336E+02 -0.47843210056E+02  0.16698069583E+03  0.19200098232E+03  0.80626742604E+02 0.  0.
          5    1    3    3  501    0 -0.20922354651E+02  0.65886306719E+02 -0.15583817859E+02  0.71018981380E+02  0.47000000000E+01 0. -1.
        -13    1    4    4    0    0 -0.11634802335E+02 -0.22022602541E+02 -0.85081628989E+02  0.88652395566E+02  0.00000000000E+00 0.  1.
         14    1    4    4    0    0 -0.10507756371E+02 -0.35795785600E+02  0.85468034502E+01  0.38272693397E+02  0.00000000000E+00 0. -1.
         -5    1    5    5    0  502  0.29202011021E+02  0.39775291478E+02  0.39435008774E+03  0.39745303239E+03  0.47000000000E+01 0.  1.
         13    1    6    6    0    0  0.23439829341E+02 -0.20842169190E+02  0.15927441024E+03  0.16233348198E+03  0.00000000000E+00 0. -1.
        -14    1    6    6    0    0 -0.95769270051E+01 -0.27001040865E+02  0.77062855914E+01  0.29667500338E+02  0.00000000000E+00 0.  1.
<mgrwt>
<rscale>  2 0.17871355E+03</rscale>
<asrwt>0</asrwt>
<pdfrwt beam="1">  1       21 0.96662324E-01 0.17989938E+03</pdfrwt>
<pdfrwt beam="2">  1       21 0.24475842E-01 0.17989938E+03</pdfrwt>
<totfact> 0.14146343E+04</totfact>
</mgrwt>
</event>
<event>
12    1  0.1071811E-001  0.1794505E+03  0.7546771E-02  0.1169117E+00
         21   -1    0    0  501  502  0.00000000000E+00  0.00000000000E+00  0.50526913862E+03  0.50526913862E+03  0.00000000000E+00 0. -1.
         21   -1    0    0  502  503 -0.00000000000E+00 -0.00000000000E+00 -0.22668136553E+03  0.22668136553E+03  0.00000000000E+00 0. -1.
         -6    2    1    2    0  503  0.30533845028E+02 -0.15948264035E+02 -0.17240862428E+03  0.24656381644E+03  0.17286503127E+03 0.  0.
        -24    2    3    3    0    0  0.20169601596E+02  0.58658485496E+02 -0.10371352301E+03  0.14451142031E+03  0.79242822995E+02 0.  0.
          6    2    1    2  501    0 -0.30533845028E+02  0.15948264035E+02  0.45099639737E+03  0.48538668772E+03  0.17611309821E+03 0.  0.
         24    2    5    5    0    0  0.37499199289E+00  0.41626471074E+02  0.10892920418E+03  0.14093526708E+03  0.79147168439E+02 0.  0.
          5    1    5    5  501    0 -0.30908837021E+02 -0.25678207039E+02  0.34206719319E+03  0.34445142064E+03  0.47000000000E+01 0. -1.
        -13    1    6    6    0    0 -0.19784644816E+02  0.58895399951E+02  0.84323535635E+02  0.10474043616E+03  0.00000000000E+00 0.  1.
         14    1    6    6    0    0  0.20159636809E+02 -0.17268928876E+02  0.24605668541E+02  0.36194830918E+02  0.00000000000E+00 0. -1.
         -5    1    3    3    0  503  0.10364243432E+02 -0.74606749531E+02 -0.68695101268E+02  0.10205239613E+03  0.47000000000E+01 0.  1.
         11    1    4    4    0    0  0.34350369287E+02 -0.36419994862E+01 -0.51422957693E+02  0.61947821659E+02  0.00000000000E+00 0. -1.
        -12    1    4    4    0    0 -0.14180767691E+02  0.62300484982E+02 -0.52290565315E+02  0.82563598651E+02  0.00000000000E+00 0.  1.
<mgrwt>
<rscale>  2 0.17864851E+03</rscale>
<asrwt>0</asrwt>
<pdfrwt beam="1">  1       21 0.77733714E-01 0.17945051E+03</pdfrwt>
<pdfrwt beam="2">  1       21 0.34874056E-01 0.17945051E+03</pdfrwt>
<totfact> 0.11734828E+04</totfact>
</mgrwt>
</event>
<event>
12    1  0.1071811E-001  0.1977104E+03  0.7546771E-02  0.1155685E+00
         21   -1    0    0  501  502  0.00000000000E+00  0.00000000000E+00  0.80572088729E+02  0.80572088729E+02  0.00000000000E+00 0.  1.
         21   -1    0    0  502  503 -0.00000000000E+00 -0.00000000000E+00 -0.72972308547E+03  0.72972308547E+03  0.00000000000E+00 0.  1.
         -6    2    1    2    0  503 -0.24033137738E+02 -0.42152716309E+02 -0.58782930088E+03  0.62018762621E+03  0.19166366773E+03 0.  0.
        -24    2    3    3    0    0 -0.81081425201E+02 -0.63626885724E+02 -0.32298477400E+03  0.34837820681E+03  0.80160043944E+02 0.  0.
          6    2    1    2  501    0  0.24033137738E+02  0.42152716309E+02 -0.61321695860E+02  0.19010754799E+03  0.17328036882E+03 0.  0.
         24    2    5    5    0    0  0.81479424857E+02  0.41239579410E+02 -0.47845092192E+02  0.13090772899E+03  0.80672678639E+02 0.  0.
          5    1    5    5  501    0 -0.57446287119E+02  0.91313689913E+00 -0.13476603668E+02  0.59199818996E+02  0.47000000000E+01 0. -1.
        -13    1    6    6    0    0  0.78066238045E+02  0.43640610821E+02 -0.68471624142E+01  0.89697960225E+02  0.00000000000E+00 0.  1.
         14    1    6    6    0    0  0.34131868115E+01 -0.24010314103E+01 -0.40997929777E+02  0.41209768770E+02  0.00000000000E+00 0. -1.
         -5    1    3    3    0  503  0.57048287463E+02  0.21474169414E+02 -0.26484452688E+03  0.27180941940E+03  0.47000000000E+01 0.  1.
         11    1    4    4    0    0 -0.51123754248E+02 -0.14826767828E+02 -0.64508010954E+02  0.83634650533E+02  0.00000000000E+00 0. -1.
        -12    1    4    4    0    0 -0.29957670954E+02 -0.48800117896E+02 -0.25847676304E+03  0.26474355627E+03  0.00000000000E+00 0.  1.
<mgrwt>
<rscale>  2 0.19311128E+03</rscale>
<asrwt>0</asrwt>
<pdfrwt beam="1">  1       21 0.12395706E-01 0.19771041E+03</pdfrwt>
<pdfrwt beam="2">  1       21 0.11226509E+00 0.19771041E+03</pdfrwt>
<totfact> 0.34319839E+04</totfact>
</mgrwt>
</event>
<event>
11    1  0.1071811E-001  0.1973598E+03  0.7546771E-02  0.1152044E+00
         21   -1    0    0  501  502  0.00000000000E+00  0.00000000000E+00  0.75305878581E+03  0.75305878581E+03  0.00000000000E+00 0.  1.
         21   -1    0    0  502  503 -0.00000000000E+00 -0.00000000000E+00 -0.66442347930E+02  0.66442347930E+02  0.00000000000E+00 0.  1.
         -6    2    1    2    0  503 -0.27108062283E+02  0.90427942616E+02  0.15016997108E+03  0.24799578663E+03  0.17331713743E+03 0.  0.
          6    2    1    2  501    0  0.27108062283E+02 -0.90427942616E+02  0.53644646679E+03  0.57150534710E+03  0.17300719692E+03 0.  0.
         24    2    4    4    0    0  0.63279620711E+02 -0.10815081133E+03  0.47614489839E+03  0.49883588401E+03  0.80139668853E+02 0.  0.
          5    1    4    4  501    0 -0.36171558428E+02  0.17722868711E+02  0.60301568404E+02  0.72669463095E+02  0.47000000000E+01 0. -1.
        -11    1    5    5    0    0 -0.58398061163E+01  0.96096077243E+01  0.53934141512E+02  0.55093915424E+02  0.00000000000E+00 0.  1.
         12    1    5    5    0    0  0.69119426827E+02 -0.11776041905E+03  0.42221075688E+03  0.44374196858E+03  0.00000000000E+00 0. -1.
         -5    1    3    3    0  503  0.99294718095E+01  0.60400738784E+02 -0.21979362582E+02  0.65207561184E+02  0.47000000000E+01 0.  1.
         13    1    3    3    0    0 -0.27904094114E+02 -0.26021416363E+00  0.10358345157E+03  0.10727645416E+03  0.00000000000E+00 0. -1.
        -14    1    3    3    0    0 -0.91334399789E+01  0.30287417997E+02  0.68565882100E+02  0.75511771287E+02  0.00000000000E+00 0.  1.
<mgrwt>
<rscale>  2 0.19729173E+03</rscale>
<asrwt>0</asrwt>
<pdfrwt beam="1">  1       21 0.11585519E+00 0.19735980E+03</pdfrwt>
<pdfrwt beam="2">  1       21 0.10221900E-01 0.19735980E+03</pdfrwt>
<totfact> 0.44828074E+04</totfact>
</mgrwt>
</event>
<event>
12    1  0.1071811E-001  0.2124241E+03  0.7546771E-02  0.1139973E+00
         21   -1    0    0  503  502  0.00000000000E+00  0.00000000000E+00  0.22988786115E+03  0.22988786115E+03  0.00000000000E+00 0.  1.
         21   -1    0    0  501  503 -0.00000000000E+00 -0.00000000000E+00 -0.27511863680E+03  0.27511863680E+03  0.00000000000E+00 0.  1.
          6    2    1    2  501    0 -0.12251878882E+03 -0.94924247025E+00 -0.15897230086E+03  0.26404771127E+03  0.17157286124E+03 0.  0.
         24    2    3    3    0    0 -0.31063939458E+02 -0.46645100222E+02 -0.47345871567E+02  0.11260580623E+03  0.85426590312E+02 0.  0.
         -6    2    1    2    0  502  0.12251878882E+03  0.94924247025E+00  0.11374152520E+03  0.24095878668E+03  0.17352880928E+03 0.  0.
        -24    2    5    5    0    0  0.71419424886E+02 -0.18598053506E+02  0.14196445511E+03  0.17921847937E+03  0.80738683342E+02 0.  0.
          5    1    3    3  501    0 -0.91454849359E+02  0.45695857752E+02 -0.11162642929E+03  0.15144190504E+03  0.47000000000E+01 0. -1.
        -13    1    4    4    0    0 -0.17935461470E+02  0.13386700039E+02 -0.45982892892E+02  0.51140111017E+02  0.00000000000E+00 0.  1.
         14    1    4    4    0    0 -0.13128477988E+02 -0.60031800261E+02 -0.13629786743E+01  0.61465695211E+02  0.00000000000E+00 0. -1.
         -5    1    5    5    0  502  0.51099363930E+02  0.19547295976E+02 -0.28222929909E+02  0.61740307310E+02  0.47000000000E+01 0.  1.
         11    1    6    6    0    0  0.91233037550E+01 -0.26165845289E+02  0.44551455805E+01  0.28066607441E+02  0.00000000000E+00 0. -1.
        -12    1    6    6    0    0  0.62296121131E+02  0.75677917829E+01  0.13750930953E+03  0.15115187193E+03  0.00000000000E+00 0.  1.
<mgrwt>
<rscale>  2 0.21202428E+03</rscale>
<asrwt>0</asrwt>
<pdfrwt beam="1">  1       21 0.35367363E-01 0.21242411E+03</pdfrwt>
<pdfrwt beam="2">  1       21 0.42325944E-01 0.21242411E+03</pdfrwt>
<totfact> 0.40988696E+04</totfact>
</mgrwt>
</event>
<event>
12    1  0.1071811E-001  0.1934785E+03  0.7546771E-02  0.1155598E+00
         21   -1    0    0  503  502  0.00000000000E+00  0.00000000000E+00  0.29104294941E+02  0.29104294941E+02  0.00000000000E+00 0.  1.
         21   -1    0    0  501  503 -0.00000000000E+00 -0.00000000000E+00 -0.13774932421E+04  0.13774932421E+04  0.00000000000E+00 0. -1.
          6    2    1    2  501    0  0.83301170241E+02 -0.16280113690E+02 -0.86393896616E+03  0.88533861957E+03  0.17386721080E+03 0.  0.
         24    2    3    3    0    0  0.48452484660E+02  0.38347911734E+02 -0.28202927860E+03  0.29981353341E+03  0.80804920791E+02 0.  0.
         -6    2    1    2    0  502 -0.83301170241E+02  0.16280113690E+02 -0.48444998098E+03  0.52125891745E+03  0.17267005498E+03 0.  0.
        -24    2    5    5    0    0 -0.12319545891E+03  0.56318642270E+01 -0.41493638080E+03  0.44027021395E+03  0.80354353878E+02 0.  0.
          5    1    3    3  501    0  0.34848685582E+02 -0.54628025424E+02 -0.58190968757E+03  0.58552508617E+03  0.47000000000E+01 0. -1.
        -11    1    4    4    0    0  0.45528092442E+02  0.97210580031E+01 -0.60076898932E+02  0.76003552255E+02  0.00000000000E+00 0.  1.
         12    1    4    4    0    0  0.29243922179E+01  0.28626853731E+02 -0.22195237967E+03  0.22380998115E+03  0.00000000000E+00 0. -1.
         -5    1    5    5    0  502  0.39894288670E+02  0.10648249463E+02 -0.69513600182E+02  0.80988703504E+02  0.47000000000E+01 0.  1.
         11    1    6    6    0    0 -0.89757101275E+02  0.40616005594E+02 -0.26524217304E+03  0.28294771160E+03  0.00000000000E+00 0. -1.
        -12    1    6    6    0    0 -0.33438357636E+02 -0.34984141367E+02 -0.14969420776E+03  0.15732250235E+03  0.00000000000E+00 0.  1.
<mgrwt>
<rscale>  2 0.19320918E+03</rscale>
<asrwt>0</asrwt>
<pdfrwt beam="1">  1       21 0.44775848E-02 0.19347851E+03</pdfrwt>
<pdfrwt beam="2">  1       21 0.21192199E+00 0.19347851E+03</pdfrwt>
<totfact> 0.36568474E+04</totfact>
</mgrwt>
</event>
<event>
12    1  0.1071811E-001  0.2120340E+03  0.7546771E-02  0.1140145E+00
         21   -1    0    0  503  502  0.00000000000E+00  0.00000000000E+00  0.48684209626E+02  0.48684209626E+02  0.00000000000E+00 0.  1.
         21   -1    0    0  501  503 -0.00000000000E+00 -0.00000000000E+00 -0.16045031437E+04  0.16045031437E+04  0.00000000000E+00 0.  1.
          6    2    1    2  501    0  0.12230113990E+03 -0.12687915990E+02 -0.13170430537E+04  0.13338562491E+04  0.17161449834E+03 0.  0.
         24    2    3    3    0    0  0.11725147046E+02  0.63958827617E+01 -0.83503896075E+03  0.83894082486E+03  0.79707309936E+02 0.  0.
         -6    2    1    2    0  502 -0.12230113990E+03  0.12687915990E+02 -0.23877588042E+03  0.31933110423E+03  0.17274223868E+03 0.  0.
        -24    2    5    5    0    0 -0.12937065506E+03  0.41562235801E+02 -0.24232261482E+03  0.28902642284E+03  0.79698416635E+02 0.  0.
          5    1    3    3  501    0  0.11057599286E+03 -0.19083798752E+02 -0.48200409293E+03  0.49491542426E+03  0.47000000000E+01 0. -1.
        -11    1    4    4    0    0  0.87551772599E+01 -0.36473027076E+02 -0.35119409733E+03  0.35319149032E+03  0.00000000000E+00 0.  1.
         12    1    4    4    0    0  0.29699697858E+01  0.42868909838E+02 -0.48384486342E+03  0.48574933454E+03  0.00000000000E+00 0. -1.
         -5    1    5    5    0  502  0.70695151556E+01 -0.28874319810E+02  0.35467343972E+01  0.30304681386E+02  0.47000000000E+01 0.  1.
         13    1    6    6    0    0 -0.53137920606E+02  0.48637741216E+02 -0.16583473772E+03  0.18080494659E+03  0.00000000000E+00 0. -1.
        -14    1    6    6    0    0 -0.76232734452E+02 -0.70755054159E+01 -0.76487877091E+02  0.10822147625E+03  0.00000000000E+00 0.  1.
<mgrwt>
<rscale>  2 0.21180423E+03</rscale>
<asrwt>0</asrwt>
<pdfrwt beam="1">  1       21 0.74898780E-02 0.21203404E+03</pdfrwt>
<pdfrwt beam="2">  1       21 0.24684665E+00 0.21203404E+03</pdfrwt>
<totfact> 0.91718451E+03</totfact>
</mgrwt>
</event>
<event>
12    1  0.1071811E-001  0.2242579E+03  0.7546771E-02  0.1131193E+00
         21   -1    0    0  501  502  0.00000000000E+00  0.00000000000E+00  0.26816568749E+03  0.26816568749E+03  0.00000000000E+00 0. -1.
         21   -1    0    0  502  503 -0.00000000000E+00 -0.00000000000E+00 -0.22717436137E+03  0.22717436137E+03  0.00000000000E+00 0. -1.
         -6    2    1    2    0  503  0.13592890670E+03  0.26925267201E+02 -0.85480316560E+02  0.23999686922E+03  0.17632349538E+03 0.  0.
        -24    2    3    3    0    0  0.34951997461E+02  0.13934390604E+02  0.19442825370E+02  0.93722965916E+02  0.83607185778E+02 0.  0.
          6    2    1    2  501    0 -0.13592890670E+03 -0.26925267201E+02  0.12647164268E+03  0.25534317964E+03  0.17321496845E+03 0.  0.
         24    2    5    5    0    0 -0.14184825680E+03 -0.35472582041E+02  0.15310791777E+03  0.22636600851E+03  0.80126795090E+02 0.  0.
          5    1    5    5  501    0  0.59193500973E+01  0.85473148400E+01 -0.26636275085E+02  0.28977171135E+02  0.47000000000E+01 0. -1.
        -11    1    6    6    0    0 -0.27897436996E+02 -0.43402838210E+02  0.37008780717E+02  0.63495851879E+02  0.00000000000E+00 0.  1.
         12    1    6    6    0    0 -0.11395081980E+03  0.79302561694E+01  0.11609913705E+03  0.16287015663E+03  0.00000000000E+00 0. -1.
         -5    1    3    3    0  503  0.10097690924E+03  0.12990876597E+02 -0.10492314193E+03  0.14627390330E+03  0.47000000000E+01 0.  1.
         11    1    4    4    0    0  0.53918750180E+02  0.16187323203E+02 -0.11405835304E+02  0.57440004634E+02  0.00000000000E+00 0. -1.
        -12    1    4    4    0    0 -0.18966752719E+02 -0.22529325994E+01  0.30848660674E+02  0.36282961282E+02  0.00000000000E+00 0.  1.
<mgrwt>
<rscale>  2 0.22364648E+03</rscale>
<asrwt>0</asrwt>
<pdfrwt beam="1">  1       21 0.41256260E-01 0.22425792E+03</pdfrwt>
<pdfrwt beam="2">  1       21 0.34949902E-01 0.22425792E+03</pdfrwt>
<totfact> 0.43973418E+04</totfact>
</mgrwt>
</event>
<event>
12    1  0.1071811E-001  0.2622413E+03  0.7546771E-02  0.1106041E+00
         21   -1    0    0  501  502  0.00000000000E+00  0.00000000000E+00  0.28430798629E+03  0.28430798629E+03  0.00000000000E+00 0.  1.
         21   -1    0    0  502  503 -0.00000000000E+00 -0.00000000000E+00 -0.24048591189E+03  0.24048591189E+03  0.00000000000E+00 0. -1.
         -6    2    1    2    0  503  0.39505489161E+02 -0.19159872880E+03  0.17626428175E+02  0.26124751316E+03  0.17224638054E+03 0.  0.
        -24    2    3    3    0    0  0.66082083374E+02 -0.84933728337E+02 -0.35525280112E+02  0.13905532119E+03  0.80583849943E+02 0.  0.
          6    2    1    2  501    0 -0.39505489161E+02  0.19159872880E+03  0.26195646229E+02  0.26354638503E+03  0.17464171503E+03 0.  0.
         24    2    5    5    0    0 -0.30968817924E+02  0.21685688074E+03  0.12347461501E+02  0.23313732033E+03  0.78832581577E+02 0.  0.
          5    1    5    5  501    0 -0.85366712369E+01 -0.25258151943E+02  0.13848184728E+02  0.30409064695E+02  0.47000000000E+01 0. -1.
        -11    1    6    6    0    0 -0.38697216715E+02  0.14025652457E+03  0.40718024888E+02  0.15108714312E+03  0.00000000000E+00 0.  1.
         12    1    6    6    0    0  0.77283987909E+01  0.76600356172E+02 -0.28370563388E+02  0.82050177212E+02  0.00000000000E+00 0. -1.
         -5    1    3    3    0  503 -0.26576594213E+02 -0.10666500046E+03  0.53151708287E+02  0.12219219197E+03  0.47000000000E+01 0.  1.
         13    1    4    4    0    0 -0.12213768361E+02  0.66843657772E+01 -0.38824317718E+01  0.14454416622E+02  0.00000000000E+00 0. -1.
        -14    1    4    4    0    0  0.78295851735E+02 -0.91618094114E+02 -0.31642848340E+02  0.12460090457E+03  0.00000000000E+00 0.  1.
<mgrwt>
<rscale>  2 0.26184310E+03</rscale>
<asrwt>0</asrwt>
<pdfrwt beam="1">  1       21 0.43739690E-01 0.26224127E+03</pdfrwt>
<pdfrwt beam="2">  1       21 0.36997833E-01 0.26224127E+03</pdfrwt>
<totfact> 0.34242747E+04</totfact>
</mgrwt>
</event>
<event>
12    1  0.1071811E-001  0.2017763E+03  0.7546771E-02  0.1148269E+00
         21   -1    0    0  501  502  0.00000000000E+00  0.00000000000E+00  0.66688462744E+03  0.66688462744E+03  0.00000000000E+00 0. -1.
         21   -1    0    0  502  503 -0.00000000000E+00 -0.00000000000E+00 -0.85962484081E+02  0.85962484081E+02  0.00000000000E+00 0.  1.
         -6    2    1    2    0  503 -0.10312336548E+03 -0.60558417231E+01  0.87752344067E+02  0.22003211294E+03  0.17332788324E+03 0.  0.
        -24    2    3    3    0    0 -0.49105431938E+02 -0.65635181577E+02  0.77575472929E+02  0.13883301450E+03  0.80853765582E+02 0.  0.
          6    2    1    2  501    0  0.10312336548E+03  0.60558417231E+01  0.49316979929E+03  0.53281499858E+03  0.17321740689E+03 0.  0.
         24    2    5    5    0    0  0.48995873942E+02 -0.63081758229E+02  0.26575061827E+03  0.28898848861E+03  0.80691087201E+02 0.  0.
          5    1    5    5  501    0  0.54127491537E+02  0.69137599952E+02  0.22741918102E+03  0.24382650997E+03  0.47000000000E+01 0. -1.
        -11    1    6    6    0    0  0.52394989881E+02 -0.22135643244E+02  0.22114949554E+03  0.22834693132E+03  0.00000000000E+00 0.  1.
         12    1    6    6    0    0 -0.33991159390E+01 -0.40946114986E+02  0.44601122729E+02  0.60641557288E+02  0.00000000000E+00 0. -1.
         -5    1    3    3    0  503 -0.54017933541E+02  0.59579339854E+02  0.10176871139E+02  0.81199098441E+02  0.47000000000E+01 0.  1.
         13    1    4    4    0    0  0.19537437600E+02  0.57446333964E+00  0.10057703234E+02  0.21981784969E+02  0.00000000000E+00 0. -1.
        -14    1    4    4    0    0 -0.68642869538E+02 -0.66209644917E+02  0.67517769695E+02  0.11685122953E+03  0.00000000000E+00 0.  1.
<mgrwt>
<rscale>  2 0.20175253E+03</rscale>
<asrwt>0</asrwt>
<pdfrwt beam="1">  1       21 0.10259763E+00 0.20177625E+03</pdfrwt>
<pdfrwt beam="2">  1       21 0.13224998E-01 0.20177625E+03</pdfrwt>
<totfact> 0.37870197E+04</totfact>
</mgrwt>
</event>
<event>
12    1  0.1071811E-001  0.2015876E+03  0.7546771E-02  0.1148407E+00
         21   -1    0    0  503  502  0.00000000000E+00  0.00000000000E+00  0.79640892628E+03  0.79640892628E+03  0.00000000000E+00 0.  1.
         21   -1    0    0  501  503 -0.00000000000E+00 -0.00000000000E+00 -0.11582546176E+03  0.11582546176E+03  0.00000000000E+00 0.  1.
          6    2    1    2  501    0 -0.93197025727E+02 -0.45646839578E+02 -0.87376345207E+00  0.20158573832E+03  0.17281992612E+03 0.  0.
         24    2    3    3    0    0  0.27684871465E+01 -0.62481371041E+02  0.53821434454E+01  0.10384113498E+03  0.82718967580E+02 0.  0.
         -6    2    1    2    0  502  0.93197025727E+02  0.45646839578E+02  0.68145722797E+03  0.71064864973E+03  0.17282427559E+03 0.  0.
        -24    2    5    5    0    0  0.72165114913E+02  0.29393415036E+02  0.20770647628E+03  0.23612954599E+03  0.80891319324E+02 0.  0.
          5    1    3    3  501    0 -0.95965512873E+02  0.16834531463E+02 -0.62559068975E+01  0.97744603338E+02  0.47000000000E+01 0. -1.
        -11    1    4    4    0    0 -0.34846999248E+02 -0.17915852540E+02  0.19604801206E+02  0.43813689175E+02  0.00000000000E+00 0.  1.
         12    1    4    4    0    0  0.37615486395E+02 -0.44565518501E+02 -0.14222657760E+02  0.60027445804E+02  0.00000000000E+00 0. -1.
         -5    1    5    5    0  502  0.21031910813E+02  0.16253424541E+02  0.47375075170E+03  0.47451910374E+03  0.47000000000E+01 0.  1.
         13    1    6    6    0    0 -0.62378710770E+01  0.13015628424E+02  0.10448711353E+03  0.10547926106E+03  0.00000000000E+00 0. -1.
        -14    1    6    6    0    0  0.78402985990E+02  0.16377786613E+02  0.10321936275E+03  0.13065028493E+03  0.00000000000E+00 0.  1.
<mgrwt>
<rscale>  2 0.20158664E+03</rscale>
<asrwt>0</asrwt>
<pdfrwt beam="1">  1       21 0.12252445E+00 0.20158757E+03</pdfrwt>
<pdfrwt beam="2">  1       21 0.17819302E-01 0.20158757E+03</pdfrwt>
<totfact> 0.14256655E+04</totfact>
</mgrwt>
</event>
<event>
12    1  0.1071811E-001  0.1984751E+03  0.7546771E-02  0.1151473E+00
         21   -1    0    0  503  502  0.00000000000E+00  0.00000000000E+00  0.40896180471E+03  0.40896180471E+03  0.00000000000E+00 0.  1.
         21   -1    0    0  501  503 -0.00000000000E+00 -0.00000000000E+00 -0.30003417639E+03  0.30003417639E+03  0.00000000000E+00 0.  1.
          6    2    1    2  501    0 -0.23695589052E+02  0.94942574668E+02 -0.23844164543E+03  0.30892378390E+03  0.17030535095E+03 0.  0.
         24    2    3    3    0    0 -0.29547836872E+02  0.13036456341E+03 -0.21567783218E+03  0.26615408335E+03  0.80331032209E+02 0.  0.
         -6    2    1    2    0  502  0.23695589052E+02 -0.94942574668E+02  0.34736927374E+03  0.40007219720E+03  0.17267535206E+03 0.  0.
        -24    2    5    5    0    0 -0.32673737412E+02 -0.38080312882E+02  0.96808191343E+02  0.13698710869E+03  0.82921400685E+02 0.  0.
          5    1    3    3  501    0  0.58522478196E+01 -0.35421988747E+02 -0.22763813250E+02  0.42769700549E+02  0.47000000000E+01 0. -1.
        -11    1    4    4    0    0 -0.32403677214E+02  0.78631227337E+02 -0.19034508599E+03  0.20848050262E+03  0.00000000000E+00 0.  1.
         12    1    4    4    0    0  0.28558403426E+01  0.51733336078E+02 -0.25332746180E+02  0.57673580735E+02  0.00000000000E+00 0. -1.
         -5    1    5    5    0  502  0.56369326464E+02 -0.56862261786E+02  0.25056108240E+03  0.26308508851E+03  0.47000000000E+01 0.  1.
         13    1    6    6    0    0 -0.52138570618E+02 -0.20534308549E+01  0.34947337992E+02  0.62800983727E+02  0.00000000000E+00 0. -1.
        -14    1    6    6    0    0  0.19464833206E+02 -0.36026882027E+02  0.61860853351E+02  0.74186124967E+02  0.00000000000E+00 0.  1.
<mgrwt>
<rscale>  2 0.19795844E+03</rscale>
<asrwt>0</asrwt>
<pdfrwt beam="1">  1       21 0.62917201E-01 0.19847506E+03</pdfrwt>
<pdfrwt beam="2">  1       21 0.46159104E-01 0.19847506E+03</pdfrwt>
<totfact> 0.10477416E+04</totfact>
</mgrwt>
</event>
<event>
12    1  0.1071811E-001  0.2586347E+03  0.7546771E-02  0.1108232E+00
         21   -1    0    0  501  502  0.00000000000E+00  0.00000000000E+00  0.10561403439E+04  0.10561403439E+04  0.00000000000E+00 0.  1.
         21   -1    0    0  502  503 -0.00000000000E+00 -0.00000000000E+00 -0.10588558785E+03  0.10588558785E+03  0.00000000000E+00 0. -1.
         -6    2    1    2    0  503 -0.18884453286E+03  0.22500308997E+02  0.10592776822E+03  0.27948636025E+03  0.17528095158E+03 0.  0.
        -24    2    3    3    0    0 -0.21007370553E+03 -0.33041978996E+01  0.88837801389E+02  0.24166166838E+03  0.79789269503E+02 0.  0.
          6    2    1    2  501    0  0.18884453286E+03 -0.22500308997E+02  0.84432698782E+03  0.88253957149E+03  0.17268326900E+03 0.  0.
         24    2    5    5    0    0  0.16947489212E+03  0.30076631283E+02  0.74129963549E+03  0.76516733048E+03  0.79558476931E+02 0.  0.
          5    1    5    5  501    0  0.19369640741E+02 -0.52576940280E+02  0.10302735234E+03  0.11737224102E+03  0.47000000000E+01 0. -1.
        -13    1    6    6    0    0  0.80989417129E+02 -0.18156612753E+02  0.24314240078E+03  0.25691861616E+03  0.00000000000E+00 0.  1.
         14    1    6    6    0    0  0.88485474991E+02  0.48233244036E+02  0.49815723470E+03  0.50824871431E+03  0.00000000000E+00 0. -1.
         -5    1    3    3    0  503  0.21229172673E+02  0.25804506896E+02  0.17089966832E+02  0.37824691868E+02  0.47000000000E+01 0.  1.
         11    1    4    4    0    0 -0.93130096922E+02  0.34646373504E+02  0.57420526206E+02  0.11476368319E+03  0.00000000000E+00 0. -1.
        -12    1    4    4    0    0 -0.11694360861E+03 -0.37950571404E+02  0.31417275183E+02  0.12689798519E+03  0.00000000000E+00 0.  1.
<mgrwt>
<rscale>  2 0.25819528E+03</rscale>
<asrwt>0</asrwt>
<pdfrwt beam="1">  1       21 0.16248312E+00 0.25863475E+03</pdfrwt>
<pdfrwt beam="2">  1       21 0.16290091E-01 0.25863475E+03</pdfrwt>
<totfact> 0.77716294E+03</totfact>
</mgrwt>
</event>
<event>
12    1  0.1071811E-001  0.2128317E+03  0.7546771E-02  0.1141045E+00
         21   -1    0    0  501  502  0.00000000000E+00  0.00000000000E+00  0.30394363345E+03  0.30394363345E+03  0.00000000000E+00 0. -1.
         21   -1    0    0  502  503 -0.00000000000E+00 -0.00000000000E+00 -0.14403860014E+03  0.14403860014E+03  0.00000000000E+00 0.  1.
         -6    2    1    2    0  503  0.63223420215E+02 -0.87889400461E+02  0.63509045875E+02  0.22210519235E+03  0.18323637735E+03 0.  0.
        -24    2    3    3    0    0  0.99105002642E+02 -0.90776835088E+02  0.86557371592E+02  0.17910355803E+03  0.80769242814E+02 0.  0.
          6    2    1    2  501    0 -0.63223420215E+02  0.87889400461E+02  0.96395987439E+02  0.22587704124E+03  0.17322385455E+03 0.  0.
         24    2    5    5    0    0 -0.20106570489E+02  0.12365576885E+03  0.68959267804E+02  0.16332179028E+03  0.78889816947E+02 0.  0.
          5    1    5    5  501    0 -0.43116849726E+02 -0.35766368387E+02  0.27436719635E+02  0.62555250957E+02  0.47000000000E+01 0. -1.
        -13    1    6    6    0    0 -0.12031402234E+02 -0.86816420283E+01  0.11732815148E+02  0.18915192289E+02  0.00000000000E+00 0.  1.
         14    1    6    6    0    0 -0.80751682549E+01  0.13233741088E+03  0.57226452656E+02  0.14440659799E+03  0.00000000000E+00 0. -1.
         -5    1    3    3    0  503 -0.35881582427E+02  0.28874346267E+01 -0.23048325716E+02  0.43001634324E+02  0.47000000000E+01 0.  1.
         13    1    4    4    0    0  0.48193073900E+02  0.21871398161E+00  0.47758463725E+02  0.67849031424E+02  0.00000000000E+00 0. -1.
        -14    1    4    4    0    0  0.50911928742E+02 -0.90995549069E+02  0.38798907867E+02  0.11125452661E+03  0.00000000000E+00 0.  1.
<mgrwt>
<rscale>  2 0.21065945E+03</rscale>
<asrwt>0</asrwt>
<pdfrwt beam="1">  1       21 0.46760559E-01 0.21283166E+03</pdfrwt>
<pdfrwt beam="2">  1       21 0.22159785E-01 0.21283166E+03</pdfrwt>
<totfact> 0.82668671E+04</totfact>
</mgrwt>
</event>
<event>
12    1  0.1071811E-001  0.2448617E+03  0.7546771E-02  0.1116728E+00
         21   -1    0    0  501  502  0.00000000000E+00  0.00000000000E+00  0.24018424543E+03  0.24018424543E+03  0.00000000000E+00 0.  1.
         21   -1    0    0  502  503 -0.00000000000E+00 -0.00000000000E+00 -0.41669784442E+03  0.41669784442E+03  0.00000000000E+00 0. -1.
         -6    2    1    2    0  503  0.31580048273E+02  0.16890195155E+03 -0.29665150116E+03  0.38413610266E+03  0.17330107772E+03 0.  0.
        -24    2    3    3    0    0  0.63181368051E+02  0.16124575681E+03 -0.29473925913E+03  0.35122702489E+03  0.80604669758E+02 0.  0.
          6    2    1    2  501    0 -0.31580048273E+02 -0.16890195155E+03  0.12013790217E+03  0.27274598720E+03  0.17444795587E+03 0.  0.
         24    2    5    5    0    0 -0.39611934601E+02 -0.97760510778E+02  0.14268053183E+03  0.19754042925E+03  0.86823177756E+02 0.  0.
          5    1    5    5  501    0  0.80318863283E+01 -0.71141440774E+02 -0.22542629662E+02  0.75205557943E+02  0.47000000000E+01 0. -1.
        -11    1    6    6    0    0  0.82032364887E+01 -0.86546788783E+02  0.82340892215E+02  0.11973997774E+03  0.00000000000E+00 0.  1.
         12    1    6    6    0    0 -0.47815171090E+02 -0.11213721996E+02  0.60339639617E+02  0.77800451518E+02  0.00000000000E+00 0. -1.
         -5    1    3    3    0  503 -0.31601319779E+02  0.76561947432E+01 -0.19122420322E+01  0.32909077764E+02  0.47000000000E+01 0.  1.
         13    1    4    4    0    0  0.43810334082E+02  0.14358693605E+03 -0.18421875506E+03  0.23764070210E+03  0.00000000000E+00 0. -1.
        -14    1    4    4    0    0  0.19371033969E+02  0.17658820759E+02 -0.11052050406E+03  0.11358632279E+03  0.00000000000E+00 0.  1.
<mgrwt>
<rscale>  2 0.24465752E+03</rscale>
<asrwt>0</asrwt>
<pdfrwt beam="1">  1       21 0.36951423E-01 0.24486171E+03</pdfrwt>
<pdfrwt beam="2">  1       21 0.64107360E-01 0.24486171E+03</pdfrwt>
<totfact> 0.15389276E+04</totfact>
</mgrwt>
</event>
<event>
12    1  0.1071811E-001  0.1823774E+03  0.7546771E-02  0.1167090E+00
         21   -1    0    0  503  502  0.00000000000E+00  0.00000000000E+00  0.20835787172E+03  0.20835787172E+03  0.00000000000E+00 0. -1.
         21   -1    0    0  501  503 -0.00000000000E+00 -0.00000000000E+00 -0.18528709072E+03  0.18528709072E+03  0.00000000000E+00 0. -1.
          6    2    1    2  501    0  0.41615418301E+02  0.88240114344E+01 -0.69124348219E+02  0.19503763886E+03  0.17734655012E+03 0.  0.
         24    2    3    3    0    0 -0.17759563794E+02  0.40836816564E+02 -0.86126730260E+02  0.12531404755E+03  0.79389855488E+02 0.  0.
         -6    2    1    2    0  502 -0.41615418301E+02 -0.88240114344E+01  0.92195129217E+02  0.19860732357E+03  0.17069042418E+03 0.  0.
        -24    2    5    5    0    0 -0.17367384097E+02  0.22470177842E+02  0.12146418416E+03  0.14914965458E+03  0.81765130123E+02 0.  0.
          5    1    3    3  501    0  0.59374982095E+02 -0.32012805129E+02  0.17002382041E+02  0.69723591317E+02  0.47000000000E+01 0. -1.
        -11    1    4    4    0    0 -0.19565408729E+02 -0.16872123170E+02 -0.59500813583E+01  0.26511831833E+02  0.00000000000E+00 0.  1.
         12    1    4    4    0    0  0.18058449345E+01  0.57708939733E+02 -0.80176648902E+02  0.98802215715E+02  0.00000000000E+00 0. -1.
         -5    1    5    5    0  502 -0.24248034204E+02 -0.31294189276E+02 -0.29269054943E+02  0.49457668995E+02  0.47000000000E+01 0.  1.
         11    1    6    6    0    0 -0.59618686197E+01  0.49192455699E+02  0.10412491020E+03  0.11531451990E+03  0.00000000000E+00 0. -1.
        -12    1    6    6    0    0 -0.11405515477E+02 -0.26722277857E+02  0.17339273956E+02  0.33835134675E+02  0.00000000000E+00 0.  1.
<mgrwt>
<rscale>  2 0.18073901E+03</rscale>
<asrwt>0</asrwt>
<pdfrwt beam="1">  1       21 0.32055057E-01 0.18237737E+03</pdfrwt>
<pdfrwt beam="2">  1       21 0.28505706E-01 0.18237737E+03</pdfrwt>
<totfact> 0.11057012E+05</totfact>
</mgrwt>
</event>
<event>
12    1  0.1071811E-001  0.2048484E+03  0.7546771E-02  0.1146019E+00
         21   -1    0    0  503  502  0.00000000000E+00  0.00000000000E+00  0.60850972170E+02  0.60850972170E+02  0.00000000000E+00 0. -1.
         21   -1    0    0  501  503 -0.00000000000E+00 -0.00000000000E+00 -0.90352037727E+03  0.90352037727E+03  0.00000000000E+00 0. -1.
          6    2    1    2  501    0 -0.31855786190E+02 -0.10319773624E+03 -0.65752815875E+03  0.68825518837E+03  0.17230020571E+03 0.  0.
         24    2    3    3    0    0  0.49585333925E+01 -0.78379559352E+02 -0.19081792018E+03  0.21941430617E+03  0.74586974156E+02 0.  0.
         -6    2    1    2    0  502  0.31855786190E+02  0.10319773624E+03 -0.18514124635E+03  0.27611616107E+03  0.17406403830E+03 0.  0.
        -24    2    5    5    0    0 -0.79655867956E+01  0.10290197673E+03 -0.19519042280E+03  0.23477725485E+03  0.79804704488E+02 0.  0.
          5    1    3    3  501    0 -0.36814319582E+02 -0.24818176885E+02 -0.46671023857E+03  0.46884088219E+03  0.47000000000E+01 0. -1.
        -13    1    4    4    0    0  0.86105866169E+01 -0.22908188102E+01  0.43438954962E+01  0.99125920318E+01  0.00000000000E+00 0.  1.
         14    1    4    4    0    0 -0.36520532243E+01 -0.76088740541E+02 -0.19516181567E+03  0.20950171414E+03  0.00000000000E+00 0. -1.
         -5    1    5    5    0  502  0.39821372985E+02  0.29575951168E+00  0.10049176447E+02  0.41338906219E+02  0.47000000000E+01 0.  1.
         11    1    6    6    0    0  0.16050096149E+02  0.16269996611E+02 -0.35897858944E+01  0.23134496728E+02  0.00000000000E+00 0. -1.
        -12    1    6    6    0    0 -0.24015682945E+02  0.86631980115E+02 -0.19160063690E+03  0.21164275813E+03  0.00000000000E+00 0.  1.
<mgrwt>
<rscale>  2 0.20447318E+03</rscale>
<asrwt>0</asrwt>
<pdfrwt beam="1">  1       21 0.93616887E-02 0.20484837E+03</pdfrwt>
<pdfrwt beam="2">  1       21 0.13900312E+00 0.20484837E+03</pdfrwt>
<totfact> 0.32981552E+04</totfact>
</mgrwt>
</event>
<event>
12    1  0.1071811E-001  0.2482330E+03  0.7546771E-02  0.1114562E+00
         21   -1    0    0  501  502  0.00000000000E+00  0.00000000000E+00  0.93652452987E+02  0.93652452987E+02  0.00000000000E+00 0. -1.
         21   -1    0    0  502  503 -0.00000000000E+00 -0.00000000000E+00 -0.78081301910E+03  0.78081301910E+03  0.00000000000E+00 0.  1.
         -6    2    1    2    0  503 -0.67746159783E+02 -0.16291736561E+03 -0.51809968298E+03  0.57413031652E+03  0.17339760283E+03 0.  0.
        -24    2    3    3    0    0  0.65212147336E+01 -0.17077644083E+02 -0.19039570792E+03  0.20780143073E+03  0.81220298282E+02 0.  0.
          6    2    1    2  501    0  0.67746159783E+02  0.16291736561E+03 -0.16906088314E+03  0.30033515557E+03  0.17460817071E+03 0.  0.
         24    2    5    5    0    0  0.12065926843E+02  0.23142000077E+02 -0.11628610744E+03  0.14082118095E+03  0.75013381879E+02 0.  0.
          5    1    5    5  501    0  0.55680232940E+02  0.13977536553E+03 -0.52774775696E+02  0.15951397462E+03  0.47000000000E+01 0.  1.
        -13    1    6    6    0    0 -0.16634123655E+02 -0.19924581641E+02 -0.25901395246E+02  0.36668314647E+02  0.00000000000E+00 0.  1.
         14    1    6    6    0    0  0.28700050498E+02  0.43066581719E+02 -0.90384712198E+02  0.10415286630E+03  0.00000000000E+00 0. -1.
         -5    1    3    3    0  503 -0.74267374517E+02 -0.14583972153E+03 -0.32770397506E+03  0.36632888579E+03  0.47000000000E+01 0.  1.
         11    1    4    4    0    0  0.38006441387E+02 -0.28829782108E+02 -0.88956653483E+02  0.10094024035E+03  0.00000000000E+00 0. -1.
        -12    1    4    4    0    0 -0.31485226653E+02  0.11752138025E+02 -0.10143905443E+03  0.10686119038E+03  0.00000000000E+00 0.  1.
<mgrwt>
<rscale>  2 0.24802022E+03</rscale>
<asrwt>0</asrwt>
<pdfrwt beam="1">  1       21 0.14408070E-01 0.24823300E+03</pdfrwt>
<pdfrwt beam="2">  1       21 0.12012508E+00 0.24823300E+03</pdfrwt>
<totfact> 0.21534425E+04</totfact>
</mgrwt>
</event>
<event>
12    1  0.1071811E-001  0.2316568E+03  0.7546771E-02  0.1125570E+00
         21   -1    0    0  501  502  0.00000000000E+00  0.00000000000E+00  0.94704708336E+03  0.94704708336E+03  0.00000000000E+00 0.  1.
         21   -1    0    0  502  503 -0.00000000000E+00 -0.00000000000E+00 -0.69461057626E+02  0.69461057626E+02  0.00000000000E+00 0. -1.
         -6    2    1    2    0  503  0.12397120228E+03 -0.89853176453E+02  0.21997089675E+03  0.31945590232E+03  0.17384598298E+03 0.  0.
        -24    2    3    3    0    0  0.10051588480E+03 -0.12721498288E+03  0.14311882151E+03  0.23071815406E+03  0.80378943623E+02 0.  0.
          6    2    1    2  501    0 -0.12397120228E+03  0.89853176453E+02  0.65761512898E+03  0.69705223866E+03  0.17315228340E+03 0.  0.
         24    2    5    5    0    0 -0.24796140636E+02  0.47144753513E+02  0.47670386862E+03  0.48631383122E+03  0.80106727015E+02 0.  0.
          5    1    5    5  501    0 -0.99175061647E+02  0.42708422940E+02  0.18091126037E+03  0.21073840744E+03  0.47000000000E+01 0. -1.
        -11    1    6    6    0    0  0.18142541187E+02 -0.99398746128E+01  0.58419585922E+02  0.61974195657E+02  0.00000000000E+00 0.  1.
         12    1    6    6    0    0 -0.42938681823E+02  0.57084628126E+02  0.41828428269E+03  0.42433963557E+03  0.00000000000E+00 0. -1.
         -5    1    3    3    0  503  0.23455317486E+02  0.37361806424E+02  0.76852075244E+02  0.88737748263E+02  0.47000000000E+01 0.  1.
         11    1    4    4    0    0  0.54867530557E+02 -0.25922645682E+02  0.17798146991E+02  0.63239256043E+02  0.00000000000E+00 0. -1.
        -12    1    4    4    0    0  0.45648354239E+02 -0.10129233719E+03  0.12532067452E+03  0.16747889802E+03  0.00000000000E+00 0.  1.
<mgrwt>
<rscale>  2 0.23152667E+03</rscale>
<asrwt>0</asrwt>
<pdfrwt beam="1">  1       21 0.14569954E+00 0.23165681E+03</pdfrwt>
<pdfrwt beam="2">  1       21 0.10686317E-01 0.23165681E+03</pdfrwt>
<totfact> 0.22718941E+04</totfact>
</mgrwt>
</event>
<event>
12    1  0.1071811E-001  0.1804584E+03  0.7546771E-02  0.1167842E+00
         21   -1    0    0  501  502  0.00000000000E+00  0.00000000000E+00  0.97036677482E+03  0.97036677482E+03  0.00000000000E+00 0. -1.
         21   -1    0    0  502  503 -0.00000000000E+00 -0.00000000000E+00 -0.56900888791E+02  0.56900888791E+02  0.00000000000E+00 0. -1.
         -6    2    1    2    0  503 -0.46894200208E+02 -0.66747158313E+01  0.12370491281E+03  0.21715185991E+03  0.17207093586E+03 0.  0.
        -24    2    3    3    0    0 -0.71149488931E+02  0.48281666748E+02  0.85319651123E+02  0.14570928625E+03  0.80983850933E+02 0.  0.
          6    2    1    2  501    0  0.46894200208E+02  0.66747158313E+01  0.78976097322E+03  0.81011580370E+03  0.17413099303E+03 0.  0.
         24    2    5    5    0    0  0.32076364501E+02  0.71857032600E+02  0.49116695336E+03  0.50409491982E+03  0.81696914380E+02 0.  0.
          5    1    5    5  501    0  0.14817835707E+02 -0.65182316768E+02  0.29859401986E+03  0.30602088388E+03  0.47000000000E+01 0. -1.
        -13    1    6    6    0    0  0.32887374445E+01 -0.18332902717E+02  0.72074027957E+02  0.74441766650E+02  0.00000000000E+00 0.  1.
         14    1    6    6    0    0  0.28787627056E+02  0.90189935317E+02  0.41909292540E+03  0.42965315317E+03  0.00000000000E+00 0. -1.
         -5    1    3    3    0  503  0.24255288723E+02 -0.54956382580E+02  0.38385261683E+02  0.71442573664E+02  0.47000000000E+01 0.  1.
         13    1    4    4    0    0 -0.29556631595E+02  0.63592440410E+02  0.34103873506E+02  0.77978632564E+02  0.00000000000E+00 0. -1.
        -14    1    4    4    0    0 -0.41592857336E+02 -0.15310773661E+02  0.51215777617E+02  0.67730653683E+02  0.00000000000E+00 0.  1.
<mgrwt>
<rscale>  2 0.17995955E+03</rscale>
<asrwt>0</asrwt>
<pdfrwt beam="1">  1       21 0.14928718E+00 0.18045836E+03</pdfrwt>
<pdfrwt beam="2">  1       21 0.87539836E-02 0.18045836E+03</pdfrwt>
<totfact> 0.31272267E+04</totfact>
</mgrwt>
</event>
<event>
12    1  0.1071811E-001  0.2025456E+03  0.7546771E-02  0.1147942E+00
         21   -1    0    0  501  502  0.00000000000E+00  0.00000000000E+00  0.31467395009E+02  0.31467395009E+02  0.00000000000E+00 0.  1.
         21   -1    0    0  502  503 -0.00000000000E+00 -0.00000000000E+00 -0.13358730323E+04  0.13358730323E+04  0.00000000000E+00 0.  1.
         -6    2    1    2    0  503  0.61854454544E+02 -0.77913018683E+02 -0.77153379198E+03  0.79727279275E+03  0.17459410606E+03 0.  0.
        -24    2    3    3    0    0 -0.15076008862E+02 -0.75727615959E+02 -0.56916031082E+03  0.58070828028E+03  0.85537649688E+02 0.  0.
          6    2    1    2  501    0 -0.61854454544E+02  0.77913018683E+02 -0.53287184529E+03  0.57006763454E+03  0.17643211843E+03 0.  0.
         24    2    5    5    0    0 -0.78396638173E+02  0.33265225226E+01 -0.20837426855E+03  0.23666464031E+03  0.80207340995E+02 0.  0.
          5    1    5    5  501    0  0.16542183629E+02  0.74586496160E+02 -0.32449757674E+03  0.33340299423E+03  0.47000000000E+01 0. -1.
        -11    1    6    6    0    0 -0.43581501421E+02  0.40361138898E+02 -0.13405442242E+03  0.14662522624E+03  0.00000000000E+00 0.  1.
         12    1    6    6    0    0 -0.34815136753E+02 -0.37034616375E+02 -0.74319846132E+02  0.90039414071E+02  0.00000000000E+00 0. -1.
         -5    1    3    3    0  503  0.76930463406E+02 -0.21854027235E+01 -0.20237348117E+03  0.21656451248E+03  0.47000000000E+01 0.  1.
         11    1    4    4    0    0 -0.35867553204E+02 -0.48183203215E+01 -0.27672141530E+03  0.27907783730E+03  0.00000000000E+00 0. -1.
        -12    1    4    4    0    0  0.20791544343E+02 -0.70909295638E+02 -0.29243889551E+03  0.30163044298E+03  0.00000000000E+00 0.  1.
<mgrwt>
<rscale>  2 0.20214462E+03</rscale>
<asrwt>0</asrwt>
<pdfrwt beam="1">  1       21 0.48411368E-02 0.20254556E+03</pdfrwt>
<pdfrwt beam="2">  1       21 0.20551897E+00 0.20254556E+03</pdfrwt>
<totfact> 0.34935581E+04</totfact>
</mgrwt>
</event>
<event>
12    1  0.1071811E-001  0.2612096E+03  0.7546771E-02  0.1106518E+00
         21   -1    0    0  501  502  0.00000000000E+00  0.00000000000E+00  0.13726352869E+03  0.13726352869E+03  0.00000000000E+00 0. -1.
         21   -1    0    0  502  503 -0.00000000000E+00 -0.00000000000E+00 -0.69507431817E+03  0.69507431817E+03  0.00000000000E+00 0.  1.
         -6    2    1    2    0  503  0.14263132738E+03 -0.13338643300E+03 -0.50198920344E+03  0.56588302250E+03  0.17347852525E+03 0.  0.
        -24    2    3    3    0    0  0.19081957046E+02 -0.36528889309E+02 -0.27919847780E+03  0.29329610405E+03  0.79826899001E+02 0.  0.
          6    2    1    2  501    0 -0.14263132738E+03  0.13338643300E+03 -0.55821586034E+02  0.26645482436E+03  0.17247170174E+03 0.  0.
         24    2    5    5    0    0 -0.51191691406E+02  0.13422209765E+03 -0.64361108576E+02  0.17449331716E+03  0.75295449196E+02 0.  0.
          5    1    5    5  501    0 -0.91439635973E+02 -0.83566464908E+00  0.85395225421E+01  0.91961507205E+02  0.47000000000E+01 0. -1.
        -13    1    6    6    0    0 -0.12663250802E+02  0.97773914811E+02 -0.10906654382E+02  0.99191992863E+02  0.00000000000E+00 0.  1.
         14    1    6    6    0    0 -0.38528440603E+02  0.36448182839E+02 -0.53454454194E+02  0.75301324296E+02  0.00000000000E+00 0. -1.
         -5    1    3    3    0  503  0.12354937033E+03 -0.96857543692E+02 -0.22279072564E+03  0.27258691845E+03  0.47000000000E+01 0.  1.
         13    1    4    4    0    0 -0.12261474415E+02 -0.45192526763E+02 -0.91337000200E+02  0.10264090722E+03  0.00000000000E+00 0. -1.
        -14    1    4    4    0    0  0.31343431461E+02  0.86636374540E+01 -0.18786147760E+03  0.19065519683E+03  0.00000000000E+00 0.  1.
<mgrwt>
<rscale>  2 0.26104251E+03</rscale>
<asrwt>0</asrwt>
<pdfrwt beam="1">  1       21 0.21117466E-01 0.26120956E+03</pdfrwt>
<pdfrwt beam="2">  1       21 0.10693451E+00 0.26120956E+03</pdfrwt>
<totfact> 0.13997824E+04</totfact>
</mgrwt>
</event>
<event>
12    1  0.1071811E-001  0.2881869E+03  0.7546771E-02  0.1091428E+00
         21   -1    0    0  503  502  0.00000000000E+00  0.00000000000E+00  0.19194218462E+03  0.19194218462E+03  0.00000000000E+00 0.  1.
         21   -1    0    0  501  503 -0.00000000000E+00 -0.00000000000E+00 -0.56401370814E+03  0.56401370814E+03  0.00000000000E+00 0.  1.
          6    2    1    2  501    0 -0.21021162904E+03  0.89718939193E+02 -0.36919385518E+03  0.46775466511E+03  0.17393075343E+03 0.  0.
         24    2    3    3    0    0 -0.95389499625E+02  0.71117485022E+02 -0.30389865009E+03  0.33427923924E+03  0.72328189153E+02 0.  0.
         -6    2    1    2    0  502  0.21021162904E+03 -0.89718939193E+02 -0.28776683328E+01  0.28820122765E+03  0.17553703202E+03 0.  0.
        -24    2    5    5    0    0  0.11733376549E+03 -0.11083085418E+03 -0.42321838981E+02  0.18500266618E+03  0.79900924116E+02 0.  0.
          5    1    3    3  501    0 -0.11482212942E+03  0.18601454171E+02 -0.65295205087E+02  0.13347542586E+03  0.47000000000E+01 0. -1.
        -11    1    4    4    0    0 -0.10213059295E+03  0.48161979627E+02 -0.27115274977E+03  0.29372444230E+03  0.00000000000E+00 0.  1.
         12    1    4    4    0    0  0.67410933216E+01  0.22955505394E+02 -0.32745900326E+02  0.40554796945E+02  0.00000000000E+00 0. -1.
         -5    1    5    5    0  502  0.92877863549E+02  0.21111914989E+02  0.39444170648E+02  0.10319856147E+03  0.47000000000E+01 0.  1.
         13    1    6    6    0    0  0.65050835148E+02 -0.23225749941E+02 -0.45877405241E+02  0.82920340842E+02  0.00000000000E+00 0. -1.
        -14    1    6    6    0    0  0.52282930347E+02 -0.87605104241E+02  0.35555662598E+01  0.10208232534E+03  0.00000000000E+00 0.  1.
<mgrwt>
<rscale>  2 0.28794266E+03</rscale>
<asrwt>0</asrwt>
<pdfrwt beam="1">  1       21 0.29529567E-01 0.28818686E+03</pdfrwt>
<pdfrwt beam="2">  1       21 0.86771339E-01 0.28818686E+03</pdfrwt>
<totfact> 0.11899246E+04</totfact>
</mgrwt>
</event>
<event>
12    1  0.1071811E-001  0.2088976E+03  0.7546771E-02  0.1143220E+00
         21   -1    0    0  503  502  0.00000000000E+00  0.00000000000E+00  0.16345773977E+03  0.16345773977E+03  0.00000000000E+00 0.  1.
         21   -1    0    0  501  503 -0.00000000000E+00 -0.00000000000E+00 -0.30277675814E+03  0.30277675814E+03  0.00000000000E+00 0.  1.
          6    2    1    2  501    0  0.42674345971E+02 -0.10640174496E+03 -0.15458663617E+03  0.25677966556E+03  0.16998922738E+03 0.  0.
         24    2    3    3    0    0  0.71635787371E+02 -0.61958682398E+02 -0.35805145071E+02  0.12660638287E+03  0.76003969715E+02 0.  0.
         -6    2    1    2    0  502 -0.42674345971E+02  0.10640174496E+03  0.15267617805E+02  0.20945483235E+03  0.17463045412E+03 0.  0.
        -24    2    5    5    0    0 -0.65327677908E+02  0.77783023378E+02 -0.47068275519E+02  0.13706658559E+03  0.79081743141E+02 0.  0.
          5    1    3    3  501    0 -0.28961441400E+02 -0.44443062567E+02 -0.11878149110E+03  0.13017328269E+03  0.47000000000E+01 0. -1.
        -13    1    4    4    0    0 -0.17735896827E+01 -0.30003626927E+02 -0.35537222169E+02  0.46543070468E+02  0.00000000000E+00 0.  1.
         14    1    4    4    0    0  0.73409377054E+02 -0.31955055471E+02 -0.26792290143E+00  0.80063312399E+02  0.00000000000E+00 0. -1.
         -5    1    5    5    0  502  0.22653331937E+02  0.28618721587E+02  0.62335893324E+02  0.72388246764E+02  0.47000000000E+01 0.  1.
         13    1    6    6    0    0 -0.20106738407E+00 -0.15063052118E+02 -0.27977945952E+01  0.15321997970E+02  0.00000000000E+00 0. -1.
        -14    1    6    6    0    0 -0.65126610524E+02  0.92846075496E+02 -0.44270480924E+02  0.12174458762E+03  0.00000000000E+00 0.  1.
<mgrwt>
<rscale>  2 0.20792486E+03</rscale>
<asrwt>0</asrwt>
<pdfrwt beam="1">  1       21 0.25147345E-01 0.20889765E+03</pdfrwt>
<pdfrwt beam="2">  1       21 0.46581039E-01 0.20889765E+03</pdfrwt>
<totfact> 0.65620556E+04</totfact>
</mgrwt>
</event>
<event>
12    1  0.1071811E-001  0.1882002E+03  0.7546771E-02  0.1160368E+00
         21   -1    0    0  501  502  0.00000000000E+00  0.00000000000E+00  0.10303694043E+03  0.10303694043E+03  0.00000000000E+00 0.  1.
         21   -1    0    0  502  503 -0.00000000000E+00 -0.00000000000E+00 -0.34647398540E+03  0.34647398540E+03  0.00000000000E+00 0.  1.
         -6    2    1    2    0  503  0.20634295637E+02 -0.65482843213E+02 -0.14805498506E+03  0.23852028406E+03  0.17394789564E+03 0.  0.
        -24    2    3    3    0    0  0.17867248042E+02  0.26319111930E+02 -0.11864672837E+03  0.14196878960E+03  0.71176940533E+02 0.  0.
          6    2    1    2  501    0 -0.20634295637E+02  0.65482843213E+02 -0.95382059918E+02  0.21099064177E+03  0.17522995363E+03 0.  0.
         24    2    5    5    0    0  0.55939230184E+02  0.28645663653E+02 -0.64233374426E+02  0.12036606860E+03  0.80076791641E+02 0.  0.
          5    1    5    5  501    0 -0.76573525822E+02  0.36837179560E+02 -0.31148685492E+02  0.90624573172E+02  0.47000000000E+01 0. -1.
        -13    1    6    6    0    0  0.95611265108E+01  0.46968328078E+02 -0.14835726988E+02  0.50175071279E+02  0.00000000000E+00 0.  1.
         14    1    6    6    0    0  0.46378103674E+02 -0.18322664425E+02 -0.49397647438E+02  0.70190997317E+02  0.00000000000E+00 0. -1.
         -5    1    3    3    0  503  0.27670475953E+01 -0.91801955142E+02 -0.29408256686E+02  0.96551494456E+02  0.47000000000E+01 0.  1.
         11    1    4    4    0    0  0.16549208476E+02 -0.13325616077E+02 -0.91421136418E+02  0.93857724930E+02  0.00000000000E+00 0. -1.
        -12    1    4    4    0    0  0.13180395664E+01  0.39644728007E+02 -0.27225591951E+02  0.48111064675E+02  0.00000000000E+00 0.  1.
<mgrwt>
<rscale>  2 0.18790120E+03</rscale>
<asrwt>0</asrwt>
<pdfrwt beam="1">  1       21 0.15851837E-01 0.18820020E+03</pdfrwt>
<pdfrwt beam="2">  1       21 0.53303692E-01 0.18820020E+03</pdfrwt>
<totfact> 0.11837799E+05</totfact>
</mgrwt>
</event>
<event>
12    1  0.1071811E-001  0.1838775E+03  0.7546771E-02  0.1164136E+00
         21   -1    0    0  503  502  0.00000000000E+00  0.00000000000E+00  0.27631078712E+03  0.27631078712E+03  0.00000000000E+00 0.  1.
         21   -1    0    0  501  503 -0.00000000000E+00 -0.00000000000E+00 -0.12892625564E+03  0.12892625564E+03  0.00000000000E+00 0. -1.
          6    2    1    2  501    0  0.11142659786E+02 -0.63087833632E+02  0.27678599993E+02  0.18594905764E+03  0.17235635619E+03 0.  0.
         24    2    3    3    0    0 -0.22376546933E+02 -0.26161153911E+02  0.76841512895E+02  0.11576217212E+03  0.79442725043E+02 0.  0.
         -6    2    1    2    0  502 -0.11142659786E+02  0.63087833632E+02  0.11970593149E+03  0.21928798513E+03  0.17220184891E+03 0.  0.
        -24    2    5    5    0    0  0.39782103498E+02  0.83708222480E+02  0.11044901598E+03  0.16337454813E+03  0.76828221232E+02 0.  0.
          5    1    3    3  501    0  0.33519206719E+02 -0.36926679721E+02 -0.49162912902E+02  0.70186885522E+02  0.47000000000E+01 0. -1.
        -11    1    4    4    0    0 -0.48135813692E+02 -0.14944825691E+02  0.70991434053E+02  0.87064275588E+02  0.00000000000E+00 0.  1.
         12    1    4    4    0    0  0.25759266759E+02 -0.11216328220E+02  0.58500788421E+01  0.28697896528E+02  0.00000000000E+00 0. -1.
         -5    1    5    5    0  502 -0.50924763284E+02 -0.20620388848E+02  0.92569155088E+01  0.55913436995E+02  0.47000000000E+01 0.  1.
         11    1    6    6    0    0 -0.13715406905E+02  0.44857216108E+02  0.19186912677E+02  0.50679580125E+02  0.00000000000E+00 0. -1.
        -12    1    6    6    0    0  0.53497510403E+02  0.38851006372E+02  0.91262103303E+02  0.11269496801E+03  0.00000000000E+00 0.  1.
<mgrwt>
<rscale>  2 0.18384132E+03</rscale>
<asrwt>0</asrwt>
<pdfrwt beam="1">  1       21 0.42509352E-01 0.18387753E+03</pdfrwt>
<pdfrwt beam="2">  1       21 0.19834809E-01 0.18387753E+03</pdfrwt>
<totfact> 0.12519042E+05</totfact>
</mgrwt>
</event>
<event>
12    1  0.1071811E-001  0.1808572E+03  0.7546771E-02  0.1167420E+00
         21   -1    0    0  503  502  0.00000000000E+00  0.00000000000E+00  0.38601326581E+03  0.38601326581E+03  0.00000000000E+00 0.  1.
         21   -1    0    0  501  503 -0.00000000000E+00 -0.00000000000E+00 -0.85592079160E+02  0.85592079160E+02  0.00000000000E+00 0. -1.
          6    2    1    2  501    0 -0.40392462603E+02 -0.37316654642E+02  0.11609132430E+03  0.21336743606E+03  0.17036544087E+03 0.  0.
         24    2    3    3    0    0  0.25994253323E+02 -0.62651201742E+02  0.67121765940E+02  0.12694323242E+03  0.83716058851E+02 0.  0.
         -6    2    1    2    0  502  0.40392462603E+02  0.37316654642E+02  0.18432986236E+03  0.25823790892E+03  0.17229403848E+03 0.  0.
        -24    2    5    5    0    0  0.65123942890E+02  0.16677092093E+02  0.28862731273E+02  0.99399133715E+02  0.67289502812E+02 0.  0.
          5    1    3    3  501    0 -0.66386715926E+02  0.25334547100E+02  0.48969558355E+02  0.86424203634E+02  0.47000000000E+01 0. -1.
        -13    1    4    4    0    0 -0.22415446793E+01  0.15525991296E+02 -0.54433297988E+01  0.16604540571E+02  0.00000000000E+00 0.  1.
         14    1    4    4    0    0  0.28235798002E+02 -0.78177193038E+02  0.72565095739E+02  0.11033869185E+03  0.00000000000E+00 0. -1.
         -5    1    5    5    0  502 -0.24731480287E+02  0.20639562549E+02  0.15546713109E+03  0.15883877520E+03  0.47000000000E+01 0.  1.
         11    1    6    6    0    0  0.61471333565E+02 -0.89373471524E+00  0.44260043497E+02  0.75752723135E+02  0.00000000000E+00 0. -1.
        -12    1    6    6    0    0  0.36526093248E+01  0.17570826808E+02 -0.15397312224E+02  0.23646410580E+02  0.00000000000E+00 0.  1.
<mgrwt>
<rscale>  2 0.18039634E+03</rscale>
<asrwt>0</asrwt>
<pdfrwt beam="1">  1       21 0.59386655E-01 0.18085718E+03</pdfrwt>
<pdfrwt beam="2">  1       21 0.13168012E-01 0.18085718E+03</pdfrwt>
<totfact> 0.13210751E+05</totfact>
</mgrwt>
</event>
<event>
12    1  0.1071811E-001  0.1992005E+03  0.7546771E-02  0.1150506E+00
         21   -1    0    0  501  502  0.00000000000E+00  0.00000000000E+00  0.17817283992E+03  0.17817283992E+03  0.00000000000E+00 0. -1.
         21   -1    0    0  502  503 -0.00000000000E+00 -0.00000000000E+00 -0.51325516459E+03  0.51325516459E+03  0.00000000000E+00 0.  1.
         -6    2    1    2    0  503  0.14900756422E+02 -0.97602964634E+02 -0.42778740833E+03  0.47171212305E+03  0.17251634433E+03 0.  0.
        -24    2    3    3    0    0 -0.49310981563E+02 -0.87790508873E+02 -0.23818439853E+03  0.27123563338E+03  0.81842621930E+02 0.  0.
          6    2    1    2  501    0 -0.14900756422E+02  0.97602964634E+02  0.92705083656E+02  0.21971588146E+03  0.17301001353E+03 0.  0.
         24    2    5    5    0    0  0.49165871108E+02  0.62903164956E+02  0.90549787541E+02  0.14667244122E+03  0.83303360949E+02 0.  0.
          5    1    5    5  501    0 -0.64066627530E+02  0.34699799678E+02  0.21552961148E+01  0.73043440240E+02  0.47000000000E+01 0. -1.
        -11    1    6    6    0    0 -0.16196594930E+02  0.32588398615E+02  0.82965504720E+01  0.37325141143E+02  0.00000000000E+00 0.  1.
         12    1    6    6    0    0  0.65362466039E+02  0.30314766341E+02  0.82253237069E+02  0.10934730007E+03  0.00000000000E+00 0. -1.
         -5    1    3    3    0  503  0.64211737985E+02 -0.98124557609E+01 -0.18960300981E+03  0.20047648967E+03  0.47000000000E+01 0.  1.
         11    1    4    4    0    0 -0.62938422845E+02 -0.31237513621E+02 -0.11085475663E+03  0.13124711195E+03  0.00000000000E+00 0. -1.
        -12    1    4    4    0    0  0.13627441282E+02 -0.56552995252E+02 -0.12732964189E+03  0.13998852143E+03  0.00000000000E+00 0.  1.
<mgrwt>
<rscale>  2 0.19909325E+03</rscale>
<asrwt>0</asrwt>
<pdfrwt beam="1">  1       21 0.27411207E-01 0.19920049E+03</pdfrwt>
<pdfrwt beam="2">  1       21 0.78962332E-01 0.19920049E+03</pdfrwt>
<totfact> 0.17907807E+04</totfact>
</mgrwt>
</event>
<event>
12    1  0.1071811E-001  0.1918452E+03  0.7546771E-02  0.1156908E+00
         21   -1    0    0  503  502  0.00000000000E+00  0.00000000000E+00  0.59105797939E+03  0.59105797939E+03  0.00000000000E+00 0. -1.
         21   -1    0    0  501  503 -0.00000000000E+00 -0.00000000000E+00 -0.11092111326E+03  0.11092111326E+03  0.00000000000E+00 0. -1.
          6    2    1    2  501    0  0.54599313256E+02 -0.61382996184E+02  0.74239334379E+01  0.19198880911E+03  0.17336559868E+03 0.  0.
         24    2    3    3    0    0 -0.35805015126E+02 -0.25460331535E+02  0.19709291469E+02  0.93823639891E+02  0.80524478528E+02 0.  0.
         -6    2    1    2    0  502 -0.54599313256E+02  0.61382996184E+02  0.47271293270E+03  0.50999028354E+03  0.17286878070E+03 0.  0.
        -24    2    5    5    0    0 -0.35656708275E+02  0.10957375208E+03  0.32052589279E+03  0.34916691350E+03  0.76830186416E+02 0.  0.
          5    1    3    3  501    0  0.90404328383E+02 -0.35922664649E+02 -0.12285358031E+02  0.98165169219E+02  0.47000000000E+01 0. -1.
        -11    1    4    4    0    0  0.14055296736E+02  0.19873586428E+02  0.51817259647E+01  0.24886966224E+02  0.00000000000E+00 0.  1.
         12    1    4    4    0    0 -0.49860311862E+02 -0.45333917963E+02  0.14527565504E+02  0.68936673667E+02  0.00000000000E+00 0. -1.
         -5    1    5    5    0  502 -0.18942604981E+02 -0.48190755892E+02  0.15218703991E+03  0.16082337005E+03  0.47000000000E+01 0.  1.
         11    1    6    6    0    0 -0.93323891924E+01  0.96545020096E+02  0.29401078788E+03  0.30959712173E+03  0.00000000000E+00 0. -1.
        -12    1    6    6    0    0 -0.26324319083E+02  0.13028731980E+02  0.26515104903E+02  0.39569791764E+02  0.00000000000E+00 0.  1.
<mgrwt>
<rscale>  2 0.19173291E+03</rscale>
<asrwt>0</asrwt>
<pdfrwt beam="1">  1       21 0.90931995E-01 0.19184522E+03</pdfrwt>
<pdfrwt beam="2">  1       21 0.17064787E-01 0.19184522E+03</pdfrwt>
<totfact> 0.31794295E+04</totfact>
</mgrwt>
</event>
<event>
12    1  0.1071811E-001  0.1919422E+03  0.7546771E-02  0.1156951E+00
         21   -1    0    0  501  502  0.00000000000E+00  0.00000000000E+00  0.89578193862E+03  0.89578193862E+03  0.00000000000E+00 0.  1.
         21   -1    0    0  502  503 -0.00000000000E+00 -0.00000000000E+00 -0.41372777797E+02  0.41372777797E+02  0.00000000000E+00 0.  1.
         -6    2    1    2    0  503  0.72601997476E+02  0.33701477394E+02  0.47803265139E+03  0.51512817898E+03  0.17445625634E+03 0.  0.
        -24    2    3    3    0    0 -0.11943729315E+02  0.56302928627E+02  0.18971411605E+03  0.21378373597E+03  0.79996046742E+02 0.  0.
          6    2    1    2  501    0 -0.72601997476E+02 -0.33701477394E+02  0.37637650944E+03  0.42202653744E+03  0.17332132537E+03 0.  0.
         24    2    5    5    0    0 -0.96349591095E+02 -0.67304417781E+02  0.33179915737E+03  0.36117971235E+03  0.80913382248E+02 0.  0.
          5    1    5    5  501    0  0.23747593619E+02  0.33602940388E+02  0.44577352070E+02  0.60846825085E+02  0.47000000000E+01 0. -1.
        -11    1    6    6    0    0 -0.57457922379E+02 -0.19446315538E+02  0.71926759536E+02  0.94090545590E+02  0.00000000000E+00 0.  1.
         12    1    6    6    0    0 -0.38891668716E+02 -0.47858102243E+02  0.25987239784E+03  0.26708916676E+03  0.00000000000E+00 0. -1.
         -5    1    3    3    0  503  0.84545726791E+02 -0.22601451234E+02  0.28831853534E+03  0.30134444301E+03  0.47000000000E+01 0.  1.
         11    1    4    4    0    0  0.11126316394E+02  0.70230759111E+02  0.14671064173E+03  0.16303425051E+03  0.00000000000E+00 0. -1.
        -12    1    4    4    0    0 -0.23070045710E+02 -0.13927830483E+02  0.43003474316E+02  0.50749485458E+02  0.00000000000E+00 0.  1.
<mgrwt>
<rscale>  2 0.19168399E+03</rscale>
<asrwt>0</asrwt>
<pdfrwt beam="1">  1       21 0.13781259E+00 0.19194224E+03</pdfrwt>
<pdfrwt beam="2">  1       21 0.63650434E-02 0.19194224E+03</pdfrwt>
<totfact> 0.66429595E+04</totfact>
</mgrwt>
</event>
<event>
12    1  0.1071811E-001  0.2491166E+03  0.7546771E-02  0.1114663E+00
         21   -1    0    0  503  502  0.00000000000E+00  0.00000000000E+00  0.55230178767E+02  0.55230178767E+02  0.00000000000E+00 0. -1.
         21   -1    0    0  501  503 -0.00000000000E+00 -0.00000000000E+00 -0.13766038102E+04  0.13766038102E+04  0.00000000000E+00 0.  1.
          6    2    1    2  501    0 -0.69078788943E+02 -0.16488455107E+03 -0.97549705882E+03  0.10055832397E+04  0.16626588930E+03 0.  0.
         24    2    3    3    0    0 -0.72367411734E+02 -0.57447984592E+02 -0.68042365700E+03  0.69150708124E+03  0.81660132137E+02 0.  0.
         -6    2    1    2    0  502  0.69078788943E+02  0.16488455107E+03 -0.34587657266E+03  0.42625074930E+03  0.17349439042E+03 0.  0.
        -24    2    5    5    0    0  0.98456535953E+02  0.15545894769E+03 -0.33963009551E+03  0.39442304918E+03  0.79748141416E+02 0.  0.
          5    1    3    3  501    0  0.32886227910E+01 -0.10743656648E+03 -0.29507340182E+03  0.31407615847E+03  0.47000000000E+01 0. -1.
        -13    1    4    4    0    0  0.18172173815E+02 -0.10908767312E+02 -0.99675118931E+02  0.10190367235E+03  0.00000000000E+00 0.  1.
         14    1    4    4    0    0 -0.90539585549E+02 -0.46539217280E+02 -0.58074853807E+03  0.58960340888E+03  0.00000000000E+00 0. -1.
         -5    1    5    5    0  502 -0.29377747010E+02  0.94256033785E+01 -0.62464771449E+01  0.31827700124E+02  0.47000000000E+01 0.  1.
         11    1    6    6    0    0  0.50195404365E+02  0.92575366490E+02 -0.11362898214E+03  0.15492360273E+03  0.00000000000E+00 0. -1.
        -12    1    6    6    0    0  0.48261131587E+02  0.62883581203E+02 -0.22600111337E+03  0.23949944645E+03  0.00000000000E+00 0.  1.
<mgrwt>
<rscale>  2 0.24786242E+03</rscale>
<asrwt>0</asrwt>
<pdfrwt beam="1">  1       21 0.84969506E-02 0.24911663E+03</pdfrwt>
<pdfrwt beam="2">  1       21 0.21178520E+00 0.24911663E+03</pdfrwt>
<totfact> 0.11702660E+04</totfact>
</mgrwt>
</event>
<event>
12    1  0.1071811E-001  0.1796930E+03  0.7546771E-02  0.1168131E+00
         21   -1    0    0  503  502  0.00000000000E+00  0.00000000000E+00  0.29354964833E+02  0.29354964833E+02  0.00000000000E+00 0.  1.
         21   -1    0    0  501  503 -0.00000000000E+00 -0.00000000000E+00 -0.14638616549E+04  0.14638616549E+04  0.00000000000E+00 0.  1.
          6    2    1    2  501    0  0.31158609520E+02 -0.38044415474E+02 -0.10897013586E+04  0.11043975137E+04  0.17270373708E+03 0.  0.
         24    2    3    3    0    0 -0.67449297256E+00  0.13398979456E+02 -0.93044063508E+03  0.93396912006E+03  0.79990963450E+02 0.  0.
         -6    2    1    2    0  502 -0.31158609520E+02  0.38044415474E+02 -0.34480533143E+03  0.38881910601E+03  0.17283328418E+03 0.  0.
        -24    2    5    5    0    0 -0.65340564081E+01 -0.18871194443E+02 -0.30241752651E+03  0.31355575986E+03  0.80386804446E+02 0.  0.
          5    1    3    3  501    0  0.31833102493E+02 -0.51443394930E+02 -0.15926072354E+03  0.17042839364E+03  0.47000000000E+01 0. -1.
        -11    1    4    4    0    0  0.23433810172E+02  0.39260440383E+02 -0.51201138500E+03  0.51404881481E+03  0.00000000000E+00 0.  1.
         12    1    4    4    0    0 -0.24108303144E+02 -0.25861460927E+02 -0.41842925007E+03  0.41992030525E+03  0.00000000000E+00 0. -1.
         -5    1    5    5    0  502 -0.24624553112E+02  0.56915609917E+02 -0.42387804924E+02  0.75263346156E+02  0.47000000000E+01 0.  1.
         13    1    6    6    0    0 -0.31968084452E+02  0.18978743977E+02 -0.14133107527E+03  0.14613905700E+03  0.00000000000E+00 0. -1.
        -14    1    6    6    0    0  0.25434028044E+02 -0.37849938420E+02 -0.16108645124E+03  0.16741670285E+03  0.00000000000E+00 0.  1.
<mgrwt>
<rscale>  2 0.17966186E+03</rscale>
<asrwt>0</asrwt>
<pdfrwt beam="1">  1       21 0.45161466E-02 0.17969302E+03</pdfrwt>
<pdfrwt beam="2">  1       21 0.22520958E+00 0.17969302E+03</pdfrwt>
<totfact> 0.30176193E+04</totfact>
</mgrwt>
</event>
<event>
12    1  0.1071811E-001  0.2009500E+03  0.7546771E-02  0.1148944E+00
         21   -1    0    0  501  502  0.00000000000E+00  0.00000000000E+00  0.93712674989E+03  0.93712674989E+03  0.00000000000E+00 0. -1.
         21   -1    0    0  502  503 -0.00000000000E+00 -0.00000000000E+00 -0.16331980840E+03  0.16331980840E+03  0.00000000000E+00 0. -1.
         -6    2    1    2    0  503 -0.95774018218E+01 -0.10070760391E+03 -0.85190400979E+02  0.21826205289E+03  0.17362940765E+03 0.  0.
        -24    2    3    3    0    0 -0.48819188809E+02 -0.14280817967E+02 -0.74684943728E+02  0.12264844608E+03  0.82930968576E+02 0.  0.
          6    2    1    2  501    0  0.95774018218E+01  0.10070760391E+03  0.85899734247E+03  0.88218450539E+03  0.17360679442E+03 0.  0.
         24    2    5    5    0    0 -0.46360950235E+02  0.83768120301E+02  0.32560555271E+03  0.34557949542E+03  0.65113562470E+02 0.  0.
          5    1    5    5  501    0  0.55938352057E+02  0.16939483612E+02  0.53339178977E+03  0.53660500997E+03  0.47000000000E+01 0. -1.
        -13    1    6    6    0    0 -0.24299928300E+02  0.25120156499E+02  0.39718746217E+02  0.52906403950E+02  0.00000000000E+00 0.  1.
         14    1    6    6    0    0 -0.22061021935E+02  0.58647963802E+02  0.28588680649E+03  0.29267309147E+03  0.00000000000E+00 0. -1.
         -5    1    3    3    0  503  0.39241786987E+02 -0.86426785947E+02 -0.10505457251E+02  0.95613606809E+02  0.47000000000E+01 0.  1.
         11    1    4    4    0    0 -0.31293046308E+02 -0.33034713008E+02 -0.83843136505E+02  0.95395065647E+02  0.00000000000E+00 0. -1.
        -12    1    4    4    0    0 -0.17526142501E+02  0.18753895041E+02  0.91581927770E+01  0.27253380435E+02  0.00000000000E+00 0.  1.
<mgrwt>
<rscale>  2 0.20094516E+03</rscale>
<asrwt>0</asrwt>
<pdfrwt beam="1">  1       21 0.14417334E+00 0.20095004E+03</pdfrwt>
<pdfrwt beam="2">  1       21 0.25126125E-01 0.20095004E+03</pdfrwt>
<totfact> 0.49398858E+03</totfact>
</mgrwt>
</event>
<event>
12    1  0.1071811E-001  0.1874654E+03  0.7546771E-02  0.1160938E+00
         21   -1    0    0  503  502  0.00000000000E+00  0.00000000000E+00  0.24735752801E+03  0.24735752801E+03  0.00000000000E+00 0. -1.
         21   -1    0    0  501  503 -0.00000000000E+00 -0.00000000000E+00 -0.21016527805E+03  0.21016527805E+03  0.00000000000E+00 0. -1.
          6    2    1    2  501    0  0.70445364545E+02  0.47897158622E+01  0.14936641386E+03  0.23969479447E+03  0.17365994973E+03 0.  0.
         24    2    3    3    0    0  0.66412909098E+01  0.11241081049E+02  0.47608530566E+01  0.81437288674E+02  0.80242741832E+02 0.  0.
         -6    2    1    2    0  502 -0.70445364545E+02 -0.47897158622E+01 -0.11217416390E+03  0.21782801160E+03  0.17285979528E+03 0.  0.
        -24    2    5    5    0    0 -0.31351274062E+02 -0.59313432943E+02 -0.10765766032E+03  0.15042124310E+03  0.80841776548E+02 0.  0.
          5    1    3    3  501    0  0.63804073635E+02 -0.64513651864E+01  0.14460556080E+03  0.15825750579E+03  0.47000000000E+01 0. -1.
        -13    1    4    4    0    0  0.18747801618E+02 -0.22397591422E+02  0.26631847968E+02  0.39527047616E+02  0.00000000000E+00 0.  1.
         14    1    4    4    0    0 -0.12106510709E+02  0.33638672471E+02 -0.21870994911E+02  0.41910241058E+02  0.00000000000E+00 0. -1.
         -5    1    5    5    0  502 -0.39094090483E+02  0.54523717081E+02 -0.45165035755E+01  0.67406768499E+02  0.47000000000E+01 0.  1.
         11    1    6    6    0    0 -0.28154804911E+02  0.75651030648E+01 -0.77729714312E+01  0.30171889382E+02  0.00000000000E+00 0. -1.
        -12    1    6    6    0    0 -0.31964691507E+01 -0.66878536008E+02 -0.99884688893E+02  0.12024935371E+03  0.00000000000E+00 0.  1.
<mgrwt>
<rscale>  2 0.18727986E+03</rscale>
<asrwt>0</asrwt>
<pdfrwt beam="1">  1       21 0.38055004E-01 0.18746538E+03</pdfrwt>
<pdfrwt beam="2">  1       21 0.32333120E-01 0.18746538E+03</pdfrwt>
<totfact> 0.61425850E+04</totfact>
</mgrwt>
</event>
<event>
12    1  0.1071811E-001  0.4309781E+03  0.7546771E-02  0.1033566E+00
         21   -1    0    0  503  502  0.00000000000E+00  0.00000000000E+00  0.92103379989E+03  0.92103379989E+03  0.00000000000E+00 0.  1.
         21   -1    0    0  501  503 -0.00000000000E+00 -0.00000000000E+00 -0.22502245860E+03  0.22502245860E+03  0.00000000000E+00 0. -1.
          6    2    1    2  501    0  0.11633973732E+03  0.37771579882E+03  0.16299932288E+03  0.46060461552E+03  0.17141666612E+03 0.  0.
         24    2    3    3    0    0  0.47893450999E+02  0.78050349353E+02  0.29569077744E+02  0.12547777978E+03  0.80527654741E+02 0.  0.
         -6    2    1    2    0  502 -0.11633973732E+03 -0.37771579882E+03  0.53301201841E+03  0.68545164296E+03  0.17186618025E+03 0.  0.
        -24    2    5    5    0    0 -0.31301807189E+02 -0.22907938123E+03  0.22229496180E+03  0.33063984290E+03  0.80314940291E+02 0.  0.
          5    1    3    3  501    0  0.68446286324E+02  0.29966544946E+03  0.13343024514E+03  0.33512683574E+03  0.47000000000E+01 0. -1.
        -13    1    4    4    0    0 -0.14058321560E+02  0.18904135624E+02  0.32065247021E+02  0.39789229891E+02  0.00000000000E+00 0.  1.
         14    1    4    4    0    0  0.61951772560E+02  0.59146213729E+02 -0.24961692765E+01  0.85688549893E+02  0.00000000000E+00 0. -1.
         -5    1    5    5    0  502 -0.85037930135E+02 -0.14863641759E+03  0.31071705662E+03  0.35481180007E+03  0.47000000000E+01 0.  1.
         13    1    6    6    0    0 -0.23865226872E+02 -0.18522002150E+03  0.21627955299E+03  0.28574962898E+03  0.00000000000E+00 0. -1.
        -14    1    6    6    0    0 -0.74365803171E+01 -0.43859359730E+02  0.60154088026E+01  0.44890213920E+02  0.00000000000E+00 0.  1.
<mgrwt>
<rscale>  2 0.43093335E+03</rscale>
<asrwt>0</asrwt>
<pdfrwt beam="1">  1       21 0.14169751E+00 0.43097812E+03</pdfrwt>
<pdfrwt beam="2">  1       21 0.34618840E-01 0.43097812E+03</pdfrwt>
<totfact> 0.24183722E+03</totfact>
</mgrwt>
</event>
<event>
12    1  0.1071811E-001  0.1786035E+03  0.7546771E-02  0.1170023E+00
         21   -1    0    0  503  502  0.00000000000E+00  0.00000000000E+00  0.10715066974E+03  0.10715066974E+03  0.00000000000E+00 0.  1.
         21   -1    0    0  501  503 -0.00000000000E+00 -0.00000000000E+00 -0.56364549060E+03  0.56364549060E+03  0.00000000000E+00 0.  1.
          6    2    1    2  501    0  0.96217298767E+01  0.35118948118E+02 -0.46228296080E+03  0.49558526907E+03  0.17485223726E+03 0.  0.
         24    2    3    3    0    0 -0.25521447230E+02 -0.41250025710E+02 -0.26283099996E+03  0.27908945447E+03  0.80360936805E+02 0.  0.
         -6    2    1    2    0  502 -0.96217298767E+01 -0.35118948118E+02  0.57881399407E+01  0.17521089127E+03  0.17128758172E+03 0.  0.
        -24    2    5    5    0    0 -0.59263585163E+02 -0.52328953091E+02  0.29287988586E+02  0.11746289603E+03  0.81787858573E+02 0.  0.
          5    1    3    3  501    0  0.35143177107E+02  0.76368973828E+02 -0.19945196083E+03  0.21649581460E+03  0.47000000000E+01 0. -1.
        -11    1    4    4    0    0 -0.33372554325E+02  0.22434883212E+01 -0.19686637622E+03  0.19968758276E+03  0.00000000000E+00 0.  1.
         12    1    4    4    0    0  0.78511070949E+01 -0.43493514031E+02 -0.65964623741E+02  0.79401871708E+02  0.00000000000E+00 0. -1.
         -5    1    5    5    0  502  0.49641855287E+02  0.17210004973E+02 -0.23499848646E+02  0.57747995237E+02  0.47000000000E+01 0.  1.
         13    1    6    6    0    0  0.74669797162E+01  0.12097429991E+02  0.19584654915E+02  0.24200460877E+02  0.00000000000E+00 0. -1.
        -14    1    6    6    0    0 -0.66730564880E+02 -0.64426383082E+02  0.97033336709E+01  0.93262435152E+02  0.00000000000E+00 0.  1.
<mgrwt>
<rscale>  2 0.17772501E+03</rscale>
<asrwt>0</asrwt>
<pdfrwt beam="1">  1       21 0.16484719E-01 0.17860354E+03</pdfrwt>
<pdfrwt beam="2">  1       21 0.86714690E-01 0.17860354E+03</pdfrwt>
<totfact> 0.38066954E+04</totfact>
</mgrwt>
</event>
<event>
12    1  0.1071811E-001  0.2366246E+03  0.7546771E-02  0.1122573E+00
         21   -1    0    0  501  502  0.00000000000E+00  0.00000000000E+00  0.13440039811E+03  0.13440039811E+03  0.00000000000E+00 0. -1.
         21   -1    0    0  502  503 -0.00000000000E+00 -0.00000000000E+00 -0.42322360180E+03  0.42322360180E+03  0.00000000000E+00 0.  1.
         -6    2    1    2    0  503 -0.69772489466E+02  0.14604654851E+03 -0.19021181434E+03  0.30127386181E+03  0.16848623349E+03 0.  0.
        -24    2    3    3    0    0 -0.43814327094E+02  0.95763146027E+02 -0.36613745949E+02  0.13751579828E+03  0.80496912907E+02 0.  0.
          6    2    1    2  501    0  0.69772489466E+02 -0.14604654851E+03 -0.98611389352E+02  0.25635013810E+03  0.17260762606E+03 0.  0.
         24    2    5    5    0    0 -0.25179525678E+02 -0.40659078148E+02 -0.33085285017E+02  0.10002303092E+03  0.81380596463E+02 0.  0.
          5    1    5    5  501    0  0.94952015144E+02 -0.10538747037E+03 -0.65526104336E+02  0.15632710718E+03  0.47000000000E+01 0. -1.
        -13    1    6    6    0    0  0.15300176323E+02 -0.37926478183E+02 -0.41850941223E+02  0.58515078605E+02  0.00000000000E+00 0.  1.
         14    1    6    6    0    0 -0.40479702001E+02 -0.27325999648E+01  0.87656562069E+01  0.41507952315E+02  0.00000000000E+00 0. -1.
         -5    1    3    3    0  503 -0.25958162372E+02  0.50283402486E+02 -0.15359806839E+03  0.16375806353E+03  0.47000000000E+01 0.  1.
         11    1    4    4    0    0  0.19718551006E+02  0.52224079149E+01  0.16784242863E+01  0.20467337548E+02  0.00000000000E+00 0. -1.
        -12    1    4    4    0    0 -0.63532878101E+02  0.90540738112E+02 -0.38292170236E+02  0.11704846073E+03  0.00000000000E+00 0.  1.
<mgrwt>
<rscale>  2 0.23587366E+03</rscale>
<asrwt>0</asrwt>
<pdfrwt beam="1">  1       21 0.20676984E-01 0.23662457E+03</pdfrwt>
<pdfrwt beam="2">  1       21 0.65111323E-01 0.23662457E+03</pdfrwt>
<totfact> 0.46130494E+04</totfact>
</mgrwt>
</event>
<event>
12    1  0.1071811E-001  0.2252729E+03  0.7546771E-02  0.1130182E+00
         21   -1    0    0  503  502  0.00000000000E+00  0.00000000000E+00  0.15822115534E+04  0.15822115534E+04  0.00000000000E+00 0.  1.
         21   -1    0    0  501  503 -0.00000000000E+00 -0.00000000000E+00 -0.33208046925E+03  0.33208046925E+03  0.00000000000E+00 0.  1.
          6    2    1    2  501    0  0.44705984637E+01  0.14344750194E+03 -0.28501124138E+03  0.36270900755E+03  0.17242170507E+03 0.  0.
         24    2    3    3    0    0 -0.67588348785E+00  0.15910778686E+03 -0.17114773565E+03  0.24756249767E+03  0.81730644045E+02 0.  0.
         -6    2    1    2    0  502 -0.44705984637E+01 -0.14344750194E+03  0.15351423255E+04  0.15515830151E+04  0.17363962984E+03 0.  0.
        -24    2    5    5    0    0 -0.46498845266E+02 -0.14602710567E+03  0.10145230568E+04  0.10292425697E+04  0.81223004052E+02 0.  0.
          5    1    3    3  501    0  0.51464819515E+01 -0.15660284918E+02 -0.11386350573E+03  0.11514650988E+03  0.47000000000E+01 0. -1.
        -11    1    4    4    0    0  0.81295988132E+01 -0.11618896988E+01  0.47093334096E+01  0.94666882117E+01  0.00000000000E+00 0.  1.
         12    1    4    4    0    0 -0.88054823010E+01  0.16026967656E+03 -0.17585706906E+03  0.23809580946E+03  0.00000000000E+00 0. -1.
         -5    1    5    5    0  502  0.42028246802E+02  0.25796037332E+01  0.52061926870E+03  0.52234044533E+03  0.47000000000E+01 0.  1.
         11    1    6    6    0    0 -0.10988148010E+02  0.71779417863E+01  0.39649545831E+02  0.41765401106E+02  0.00000000000E+00 0. -1.
        -12    1    6    6    0    0 -0.35510697255E+02 -0.15320504746E+03  0.97487351095E+03  0.98747716862E+03  0.00000000000E+00 0.  1.
<mgrwt>
<rscale>  2 0.22503821E+03</rscale>
<asrwt>0</asrwt>
<pdfrwt beam="1">  1       21 0.24341716E+00 0.22527293E+03</pdfrwt>
<pdfrwt beam="2">  1       21 0.51089304E-01 0.22527293E+03</pdfrwt>
<totfact> 0.25383645E+02</totfact>
</mgrwt>
</event>
<event>
12    1  0.1071811E-001  0.2251156E+03  0.7546771E-02  0.1130221E+00
         21   -1    0    0  501  502  0.00000000000E+00  0.00000000000E+00  0.98874399479E+03  0.98874399479E+03  0.00000000000E+00 0. -1.
         21   -1    0    0  502  503 -0.00000000000E+00 -0.00000000000E+00 -0.51133946534E+02  0.51133946534E+02  0.00000000000E+00 0. -1.
         -6    2    1    2    0  503  0.13012579292E+02 -0.14315943130E+03  0.46879048809E+03  0.51981176454E+03  0.17255665400E+03 0.  0.
        -24    2    3    3    0    0 -0.53883177757E+02 -0.12019810474E+03  0.22237013157E+03  0.26339930981E+03  0.50791138693E+02 0.  0.
          6    2    1    2  501    0 -0.13012579292E+02  0.14315943130E+03  0.46881956017E+03  0.52006617679E+03  0.17324288803E+03 0.  0.
         24    2    5    5    0    0  0.96010105491E+01  0.23350285150E+01  0.17011515150E+03  0.18902342937E+03  0.81811125877E+02 0.  0.
          5    1    5    5  501    0 -0.22613589841E+02  0.14082440278E+03  0.29870440867E+03  0.33104274743E+03  0.47000000000E+01 0. -1.
        -13    1    6    6    0    0 -0.23358883596E+02  0.47164007925E+01  0.14645412306E+03  0.14838022793E+03  0.00000000000E+00 0.  1.
         14    1    6    6    0    0  0.32959894145E+02 -0.23813722775E+01  0.23661028439E+02  0.40643201433E+02  0.00000000000E+00 0. -1.
         -5    1    3    3    0  503  0.66895757048E+02 -0.22961326559E+02  0.24642035652E+03  0.25641245472E+03  0.47000000000E+01 0.  1.
         13    1    4    4    0    0 -0.37249807264E+02 -0.70393145840E+02  0.17665825712E+03  0.19378050194E+03  0.00000000000E+00 0. -1.
        -14    1    4    4    0    0 -0.16633370492E+02 -0.49804958897E+02  0.45711874447E+02  0.69618807876E+02  0.00000000000E+00 0.  1.
<mgrwt>
<rscale>  2 0.22498360E+03</rscale>
<asrwt>0</asrwt>
<pdfrwt beam="1">  1       21 0.15211445E+00 0.22511563E+03</pdfrwt>
<pdfrwt beam="2">  1       21 0.78667617E-02 0.22511563E+03</pdfrwt>
<totfact> 0.34920462E+04</totfact>
</mgrwt>
</event>
<event>
12    1  0.1071811E-001  0.1759265E+03  0.7546771E-02  0.1172092E+00
         21   -1    0    0  501  502  0.00000000000E+00  0.00000000000E+00  0.41426809481E+03  0.41426809481E+03  0.00000000000E+00 0.  1.
         21   -1    0    0  502  503 -0.00000000000E+00 -0.00000000000E+00 -0.84590347029E+02  0.84590347029E+02  0.00000000000E+00 0.  1.
         -6    2    1    2    0  503  0.88344896938E+01 -0.17978737014E+02  0.77995446081E+02  0.19244068380E+03  0.17478227593E+03 0.  0.
        -24    2    3    3    0    0  0.16059645559E+00 -0.50322651403E+02  0.37500332383E+01  0.11085737331E+03  0.98706126626E+02 0.  0.
          6    2    1    2  501    0 -0.88344896938E+01  0.17978737014E+02  0.25168230170E+03  0.30641775803E+03  0.17362770015E+03 0.  0.
         24    2    5    5    0    0  0.12556257258E+02  0.74202020506E+02  0.19164576860E+03  0.22129962267E+03  0.81128434767E+02 0.  0.
          5    1    5    5  501    0 -0.21390746952E+02 -0.56223283491E+02  0.60036533092E+02  0.85118135361E+02  0.47000000000E+01 0. -1.
        -11    1    6    6    0    0  0.47119189352E+02  0.41933298984E+02  0.10143123225E+03  0.11944418966E+03  0.00000000000E+00 0.  1.
         12    1    6    6    0    0 -0.34562932095E+02  0.32268721522E+02  0.90214536355E+02  0.10185543301E+03  0.00000000000E+00 0. -1.
         -5    1    3    3    0  503  0.86738932382E+01  0.32343914388E+02  0.74245412842E+02  0.81583310487E+02  0.47000000000E+01 0.  1.
         13    1    4    4    0    0  0.48487495768E+01 -0.30006665349E+02  0.50910195318E+02  0.59293830414E+02  0.00000000000E+00 0. -1.
        -14    1    4    4    0    0 -0.46881531212E+01 -0.20315986054E+02 -0.47160162080E+02  0.51563542900E+02  0.00000000000E+00 0.  1.
<mgrwt>
<rscale>  2 0.17563902E+03</rscale>
<asrwt>0</asrwt>
<pdfrwt beam="1">  1       21 0.63733552E-01 0.17592648E+03</pdfrwt>
<pdfrwt beam="2">  1       21 0.13013900E-01 0.17592648E+03</pdfrwt>
<totfact> 0.11611481E+05</totfact>
</mgrwt>
</event>
<event>
12    1  0.1071811E-001  0.2730565E+03  0.7546771E-02  0.1099651E+00
         21   -1    0    0  501  502  0.00000000000E+00  0.00000000000E+00  0.23342835828E+03  0.23342835828E+03  0.00000000000E+00 0.  1.
         21   -1    0    0  502  503 -0.00000000000E+00 -0.00000000000E+00 -0.42686064875E+03  0.42686064875E+03  0.00000000000E+00 0.  1.
         -6    2    1    2    0  503  0.46212591702E+02 -0.20550787961E+03 -0.26314484550E+03  0.37921636104E+03  0.17375484614E+03 0.  0.
        -24    2    3    3    0    0 -0.58123100695E+01 -0.69389288907E+02 -0.41554427163E+02  0.11396315251E+03  0.80076047289E+02 0.  0.
          6    2    1    2  501    0 -0.46212591702E+02  0.20550787961E+03  0.69712555025E+02  0.28107264599E+03  0.17254825350E+03 0.  0.
         24    2    5    5    0    0 -0.78657170504E+02  0.19323775510E+03  0.89596768190E+02  0.24081499353E+03  0.80227799239E+02 0.  0.
          5    1    5    5  501    0  0.32444578802E+02  0.12270124511E+02 -0.19884213164E+02  0.40257652469E+02  0.47000000000E+01 0. -1.
        -11    1    6    6    0    0 -0.55812721055E+02  0.85557741425E+02  0.81062146581E+02  0.13040804637E+03  0.00000000000E+00 0.  1.
         12    1    6    6    0    0 -0.22844449449E+02  0.10768001367E+03  0.85346216090E+01  0.11040694716E+03  0.00000000000E+00 0. -1.
         -5    1    3    3    0  503  0.52024901772E+02 -0.13611859070E+03 -0.22159041833E+03  0.26525320853E+03  0.47000000000E+01 0.  1.
         13    1    4    4    0    0 -0.41478811848E+02 -0.32159984001E+02 -0.32166539561E+02  0.61558449222E+02  0.00000000000E+00 0. -1.
        -14    1    4    4    0    0  0.35666501778E+02 -0.37229304906E+02 -0.93878876017E+01  0.52404703286E+02  0.00000000000E+00 0.  1.
<mgrwt>
<rscale>  2 0.27286472E+03</rscale>
<asrwt>0</asrwt>
<pdfrwt beam="1">  1       21 0.35912056E-01 0.27305648E+03</pdfrwt>
<pdfrwt beam="2">  1       21 0.65670868E-01 0.27305648E+03</pdfrwt>
<totfact> 0.15246220E+04</totfact>
</mgrwt>
</event>
<event>
11    1  0.1071811E-001  0.1929955E+03  0.7546771E-02  0.1155846E+00
         21   -1    0    0  503  502  0.00000000000E+00  0.00000000000E+00  0.62760383328E+03  0.62760383328E+03  0.00000000000E+00 0. -1.
         21   -1    0    0  501  503 -0.00000000000E+00 -0.00000000000E+00 -0.10339188242E+03  0.10339188242E+03  0.00000000000E+00 0. -1.
          6    2    1    2  501    0  0.24016849068E+02 -0.81543270590E+02  0.23230587378E+02  0.19412554628E+03  0.17297096146E+03 0.  0.
         24    2    3    3    0    0 -0.31007925098E+02 -0.69930627358E+01  0.46500681737E+02  0.98474897798E+02  0.80774982197E+02 0.  0.
         -6    2    1    2    0  502 -0.24016849068E+02  0.81543270590E+02  0.50098136348E+03  0.53687016941E+03  0.17326609084E+03 0.  0.
          5    1    3    3  501    0  0.55024774166E+02 -0.74550207855E+02 -0.23270094359E+02  0.95650648480E+02  0.47000000000E+01 0. -1.
        -13    1    4    4    0    0 -0.47361184518E-01  0.12029248910E+02  0.58872678166E+02  0.60089078100E+02  0.00000000000E+00 0.  1.
         14    1    4    4    0    0 -0.30960563914E+02 -0.19022311646E+02 -0.12371996429E+02  0.38385819698E+02  0.00000000000E+00 0. -1.
         -5    1    5    5    0  502 -0.16012659732E+02  0.35948478399E+02  0.71421643307E+01  0.40271564189E+02  0.47000000000E+01 0.  1.
         13    1    5    5    0    0 -0.10981968096E+02  0.59017518534E+01  0.11450894937E+03  0.11518564921E+03  0.00000000000E+00 0. -1.
        -14    1    5    5    0    0  0.29777787597E+01  0.39693040338E+02  0.37933024978E+03  0.38141295601E+03  0.00000000000E+00 0.  1.
<mgrwt>
<rscale>  2 0.19292921E+03</rscale>
<asrwt>0</asrwt>
<pdfrwt beam="1">  1       21 0.96554434E-01 0.19299547E+03</pdfrwt>
<pdfrwt beam="2">  1       21 0.15906444E-01 0.19299547E+03</pdfrwt>
<totfact> 0.31425266E+04</totfact>
</mgrwt>
</event>
<event>
12    1  0.1071811E-001  0.1851691E+03  0.7546771E-02  0.1163298E+00
         21   -1    0    0  503  502  0.00000000000E+00  0.00000000000E+00  0.24453675647E+03  0.24453675647E+03  0.00000000000E+00 0. -1.
         21   -1    0    0  501  503 -0.00000000000E+00 -0.00000000000E+00 -0.18851318320E+03  0.18851318320E+03  0.00000000000E+00 0. -1.
          6    2    1    2  501    0  0.27832030101E+02 -0.53375076094E+02  0.13898658266E+03  0.23014490361E+03  0.17327979066E+03 0.  0.
         24    2    3    3    0    0 -0.40406239663E+02  0.91174349664E+01  0.74023151086E+02  0.11698964372E+03  0.80568964351E+02 0.  0.
         -6    2    1    2    0  502 -0.27832030101E+02  0.53375076094E+02 -0.82963009384E+02  0.20290503606E+03  0.17511159895E+03 0.  0.
        -24    2    5    5    0    0 -0.65526877051E+00  0.19814444317E+02  0.26059141448E+02  0.85547412815E+02  0.79033153838E+02 0.  0.
          5    1    3    3  501    0  0.68238269764E+02 -0.62492511060E+02  0.64963431570E+02  0.11315525989E+03  0.47000000000E+01 0. -1.
        -11    1    4    4    0    0 -0.25667075453E+02 -0.10555809681E+02  0.85477371621E+02  0.89869933457E+02  0.00000000000E+00 0.  1.
         12    1    4    4    0    0 -0.14739164210E+02  0.19673244647E+02 -0.11454220536E+02  0.27119710261E+02  0.00000000000E+00 0. -1.
         -5    1    5    5    0  502 -0.27176761331E+02  0.33560631777E+02 -0.10902215083E+03  0.11735762325E+03  0.47000000000E+01 0.  1.
         11    1    6    6    0    0 -0.10461041644E+02 -0.14092947356E+02 -0.20586232613E+02  0.27052495830E+02  0.00000000000E+00 0. -1.
        -12    1    6    6    0    0  0.98057728736E+01  0.33907391673E+02  0.46645374061E+02  0.58494916985E+02  0.00000000000E+00 0.  1.
<mgrwt>
<rscale>  2 0.18473473E+03</rscale>
<asrwt>0</asrwt>
<pdfrwt beam="1">  1       21 0.37621040E-01 0.18516909E+03</pdfrwt>
<pdfrwt beam="2">  1       21 0.29002028E-01 0.18516909E+03</pdfrwt>
<totfact> 0.77788766E+04</totfact>
</mgrwt>
</event>
<event>
12    1  0.1071811E-001  0.1987314E+03  0.7546771E-02  0.1150871E+00
         21   -1    0    0  503  502  0.00000000000E+00  0.00000000000E+00  0.46582273386E+02  0.46582273386E+02  0.00000000000E+00 0.  1.
         21   -1    0    0  501  503 -0.00000000000E+00 -0.00000000000E+00 -0.87808558893E+03  0.87808558893E+03  0.00000000000E+00 0. -1.
          6    2    1    2  501    0 -0.48614907331E+02 -0.85103664058E+02 -0.50290033797E+03  0.54064432336E+03  0.17257314855E+03 0.  0.
         24    2    3    3    0    0  0.39808903059E+02 -0.53713724918E+02 -0.26074616874E+03  0.28090439536E+03  0.80304432081E+02 0.  0.
         -6    2    1    2    0  502  0.48614907331E+02  0.85103664058E+02 -0.32860297758E+03  0.38402353896E+03  0.17288180572E+03 0.  0.
        -24    2    5    5    0    0  0.21895200541E+02 -0.23879346078E+02 -0.13550118832E+03  0.16063681096E+03  0.79962428832E+02 0.  0.
          5    1    3    3  501    0 -0.88423810390E+02 -0.31389939140E+02 -0.24215416923E+03  0.25973992800E+03  0.47000000000E+01 0. -1.
        -13    1    4    4    0    0  0.39503077970E+02 -0.74170066807E+02 -0.20988481237E+03  0.22608256555E+03  0.00000000000E+00 0.  1.
         14    1    4    4    0    0  0.30582508945E+00  0.20456341889E+02 -0.50861356365E+02  0.54821829811E+02  0.00000000000E+00 0. -1.
         -5    1    5    5    0  502  0.26719706790E+02  0.10898301014E+03 -0.19310178926E+03  0.22338672799E+03  0.47000000000E+01 0.  1.
         13    1    6    6    0    0  0.31291320454E+02 -0.43569521953E+02 -0.12580143523E+03  0.13676056114E+03  0.00000000000E+00 0. -1.
        -14    1    6    6    0    0 -0.93961199131E+01  0.19690175875E+02 -0.96997530914E+01  0.23876249820E+02  0.00000000000E+00 0.  1.
<mgrwt>
<rscale>  2 0.19866423E+03</rscale>
<asrwt>0</asrwt>
<pdfrwt beam="1">  1       21 0.71665037E-02 0.19873138E+03</pdfrwt>
<pdfrwt beam="2">  1       21 0.13509009E+00 0.19873138E+03</pdfrwt>
<totfact> 0.56775335E+04</totfact>
</mgrwt>
</event>
<event>
12    1  0.1071811E-001  0.2448611E+03  0.7546771E-02  0.1117648E+00
         21   -1    0    0  503  502  0.00000000000E+00  0.00000000000E+00  0.10362607662E+03  0.10362607662E+03  0.00000000000E+00 0. -1.
         21   -1    0    0  501  503 -0.00000000000E+00 -0.00000000000E+00 -0.58227378542E+03  0.58227378542E+03  0.00000000000E+00 0. -1.
          6    2    1    2  501    0  0.92857145517E+02 -0.13559756997E+03 -0.18094916562E+03  0.30446598235E+03  0.18151524291E+03 0.  0.
         24    2    3    3    0    0  0.44707731761E+02 -0.13060988112E+03 -0.54561796359E+02  0.16904404840E+03  0.80877551593E+02 0.  0.
         -6    2    1    2    0  502 -0.92857145517E+02  0.13559756997E+03 -0.29769854318E+03  0.38143387969E+03  0.17279534575E+03 0.  0.
        -24    2    5    5    0    0 -0.78691472804E+02  0.11632958330E+03 -0.31334638530E+03  0.35247068655E+03  0.79528031872E+02 0.  0.
          5    1    3    3  501    0  0.48149413756E+02 -0.49876888544E+01 -0.12638736927E+03  0.13542193395E+03  0.47000000000E+01 0. -1.
        -11    1    4    4    0    0  0.21340691584E+02  0.52802646442E+01 -0.98629099849E+01  0.24095296333E+02  0.00000000000E+00 0.  1.
         12    1    4    4    0    0  0.23367040177E+02 -0.13589014576E+03 -0.44698886374E+02  0.14494875206E+03  0.00000000000E+00 0. -1.
         -5    1    5    5    0  502 -0.14165672713E+02  0.19267986670E+02  0.15647842124E+02  0.28963193140E+02  0.47000000000E+01 0.  1.
         11    1    6    6    0    0 -0.43093819917E+02  0.59280092662E+02 -0.75173219007E+02  0.10498675896E+03  0.00000000000E+00 0. -1.
        -12    1    6    6    0    0 -0.35597652887E+02  0.57049490639E+02 -0.23817316630E+03  0.24748392759E+03  0.00000000000E+00 0.  1.
<mgrwt>
<rscale>  2 0.24324711E+03</rscale>
<asrwt>0</asrwt>
<pdfrwt beam="1">  1       21 0.15942473E-01 0.24486105E+03</pdfrwt>
<pdfrwt beam="2">  1       21 0.89580584E-01 0.24486105E+03</pdfrwt>
<totfact> 0.36314892E+04</totfact>
</mgrwt>
</event>
<event>
12    1  0.1071811E-001  0.1905236E+03  0.7546771E-02  0.1158207E+00
         21   -1    0    0  503  502  0.00000000000E+00  0.00000000000E+00  0.38631589020E+02  0.38631589020E+02  0.00000000000E+00 0.  1.
         21   -1    0    0  501  503 -0.00000000000E+00 -0.00000000000E+00 -0.10104740722E+04  0.10104740722E+04  0.00000000000E+00 0.  1.
          6    2    1    2  501    0  0.22176079675E+02 -0.75673806853E+02 -0.63054569952E+03  0.65870108892E+03  0.17343858222E+03 0.  0.
         24    2    3    3    0    0 -0.80803777096E+01 -0.16375835635E+02 -0.53961419062E+03  0.54590777389E+03  0.80612420730E+02 0.  0.
         -6    2    1    2    0  502 -0.22176079675E+02  0.75673806853E+02 -0.34129678368E+03  0.39040457233E+03  0.17237729546E+03 0.  0.
        -24    2    5    5    0    0  0.51193378885E+02  0.29994422952E+02 -0.21930230160E+03  0.24082373391E+03  0.79888321284E+02 0.  0.
          5    1    3    3  501    0  0.30256457385E+02 -0.59297971219E+02 -0.90931508904E+02  0.11279331503E+03  0.47000000000E+01 0. -1.
        -11    1    4    4    0    0  0.30397263049E+02 -0.23605401718E+02 -0.36141901353E+03  0.36346239411E+03  0.00000000000E+00 0.  1.
         12    1    4    4    0    0 -0.38477640759E+02  0.72295660834E+01 -0.17819517709E+03  0.18244537978E+03  0.00000000000E+00 0. -1.
         -5    1    5    5    0  502 -0.73369458560E+02  0.45679383902E+02 -0.12199448208E+03  0.14958083842E+03  0.47000000000E+01 0.  1.
         11    1    6    6    0    0  0.60785923531E+02  0.48829163057E+02 -0.16310481194E+03  0.18078272966E+03  0.00000000000E+00 0. -1.
        -12    1    6    6    0    0 -0.95925446462E+01 -0.18834740106E+02 -0.56197489657E+02  0.60041004250E+02  0.00000000000E+00 0.  1.
<mgrwt>
<rscale>  2 0.19028175E+03</rscale>
<asrwt>0</asrwt>
<pdfrwt beam="1">  1       21 0.59433218E-02 0.19052361E+03</pdfrwt>
<pdfrwt beam="2">  1       21 0.15545754E+00 0.19052361E+03</pdfrwt>
<totfact> 0.54562014E+04</totfact>
</mgrwt>
</event>
<event>
12    1  0.1071811E-001  0.1793637E+03  0.7546771E-02  0.1168824E+00
         21   -1    0    0  503  502  0.00000000000E+00  0.00000000000E+00  0.35108519956E+03  0.35108519956E+03  0.00000000000E+00 0. -1.
         21   -1    0    0  501  503 -0.00000000000E+00 -0.00000000000E+00 -0.21918400534E+03  0.21918400534E+03  0.00000000000E+00 0. -1.
          6    2    1    2  501    0  0.17446441298E+02 -0.44506283714E+02 -0.15240466189E+03  0.23411275439E+03  0.17116195021E+03 0.  0.
         24    2    3    3    0    0  0.37368420817E+02 -0.65652095038E+02 -0.39421925955E+02  0.11735994190E+03  0.80701123041E+02 0.  0.
         -6    2    1    2    0  502 -0.17446441298E+02  0.44506283714E+02  0.28430585611E+03  0.33615645051E+03  0.17287611691E+03 0.  0.
        -24    2    5    5    0    0  0.35628959929E+02  0.73953419634E+02  0.17798638139E+03  0.21364093013E+03  0.84998611787E+02 0.  0.
          5    1    3    3  501    0 -0.19921979519E+02  0.21145811324E+02 -0.11298273594E+03  0.11675281249E+03  0.47000000000E+01 0. -1.
        -13    1    4    4    0    0  0.33515738201E+02 -0.60515465167E+02 -0.62607768976E+02  0.93301441402E+02  0.00000000000E+00 0.  1.
         14    1    4    4    0    0  0.38526826160E+01 -0.51366298718E+01  0.23185843021E+02  0.24058500501E+02  0.00000000000E+00 0. -1.
         -5    1    5    5    0  502 -0.53075401227E+02 -0.29447135920E+02  0.10631947472E+03  0.12251552038E+03  0.47000000000E+01 0.  1.
         13    1    6    6    0    0  0.58516100907E+02  0.25856228072E+02  0.11029641600E+03  0.12750677620E+03  0.00000000000E+00 0. -1.
        -14    1    6    6    0    0 -0.22887140978E+02  0.48097191562E+02  0.67689965395E+02  0.86134153931E+02  0.00000000000E+00 0.  1.
<mgrwt>
<rscale>  2 0.17894938E+03</rscale>
<asrwt>0</asrwt>
<pdfrwt beam="1">  1       21 0.54013108E-01 0.17936371E+03</pdfrwt>
<pdfrwt beam="2">  1       21 0.33720616E-01 0.17936371E+03</pdfrwt>
<totfact> 0.27657533E+04</totfact>
</mgrwt>
</event>
<event>
12    1  0.1071811E-001  0.2375031E+03  0.7546771E-02  0.1121492E+00
         21   -1    0    0  503  502  0.00000000000E+00  0.00000000000E+00  0.58305343638E+02  0.58305343638E+02  0.00000000000E+00 0.  1.
         21   -1    0    0  501  503 -0.00000000000E+00 -0.00000000000E+00 -0.11047006909E+04  0.11047006909E+04  0.00000000000E+00 0. -1.
          6    2    1    2  501    0  0.52779723334E+01  0.16433956753E+03 -0.72875261376E+03  0.76647770762E+03  0.17138364498E+03 0.  0.
         24    2    3    3    0    0 -0.10733063243E+02  0.49549011389E+02 -0.16425881153E+03  0.19018909260E+03  0.81367257565E+02 0.  0.
         -6    2    1    2    0  502 -0.52779723334E+01 -0.16433956753E+03 -0.31764273350E+03  0.39652832692E+03  0.17117960584E+03 0.  0.
        -24    2    5    5    0    0  0.99013070506E+01 -0.41966637786E+02 -0.50500339231E+02  0.10226196242E+03  0.77768824910E+02 0.  0.
          5    1    3    3  501    0  0.16011035576E+02  0.11479055614E+03 -0.56449380223E+03  0.57628861502E+03  0.47000000000E+01 0. -1.
        -11    1    4    4    0    0  0.13844710166E+02  0.57780111628E+02 -0.67065751218E+02  0.89599287306E+02  0.00000000000E+00 0.  1.
         12    1    4    4    0    0 -0.24577773409E+02 -0.82311002390E+01 -0.97193060307E+02  0.10058980529E+03  0.00000000000E+00 0. -1.
         -5    1    5    5    0  502 -0.15179279384E+02 -0.12237292974E+03 -0.26714239427E+03  0.29426636450E+03  0.47000000000E+01 0.  1.
         13    1    6    6    0    0  0.22201870154E+02  0.84492262768E+00 -0.53183256201E+02  0.57637623760E+02  0.00000000000E+00 0. -1.
        -14    1    6    6    0    0 -0.12300563103E+02 -0.42811560413E+02  0.26829169703E+01  0.44624338663E+02  0.00000000000E+00 0.  1.
<mgrwt>
<rscale>  2 0.23746625E+03</rscale>
<asrwt>0</asrwt>
<pdfrwt beam="1">  1       21 0.89700530E-02 0.23750306E+03</pdfrwt>
<pdfrwt beam="2">  1       21 0.16995395E+00 0.23750306E+03</pdfrwt>
<totfact> 0.20373722E+04</totfact>
</mgrwt>
</event>
<event>
12    1  0.1071811E-001  0.2048141E+03  0.7546771E-02  0.1146765E+00
         21   -1    0    0  503  502  0.00000000000E+00  0.00000000000E+00  0.14230893484E+03  0.14230893484E+03  0.00000000000E+00 0.  1.
         21   -1    0    0  501  503 -0.00000000000E+00 -0.00000000000E+00 -0.29771337895E+03  0.29771337895E+03  0.00000000000E+00 0.  1.
          6    2    1    2  501    0 -0.94096496741E+02  0.39327389030E+02 -0.11897629441E+03  0.23686323405E+03  0.17761767588E+03 0.  0.
         24    2    3    3    0    0 -0.10903150848E+03  0.37164185772E+02 -0.99271492968E+01  0.12667457731E+03  0.51757643872E+02 0.  0.
         -6    2    1    2    0  502  0.94096496741E+02 -0.39327389030E+02 -0.36428149698E+02  0.20315907973E+03  0.17188893903E+03 0.  0.
        -24    2    5    5    0    0  0.78812864317E+02  0.37072231136E+02 -0.37115836027E+02  0.12510106096E+03  0.81773298009E+02 0.  0.
          5    1    3    3  501    0  0.14935011736E+02  0.21632032575E+01 -0.10904914511E+03  0.11018865674E+03  0.47000000000E+01 0. -1.
        -11    1    4    4    0    0 -0.15194744006E+02  0.20846670336E+02 -0.17432334898E+02  0.31134389500E+02  0.00000000000E+00 0.  1.
         12    1    4    4    0    0 -0.93836764470E+02  0.16317515436E+02  0.75051856014E+01  0.95540187812E+02  0.00000000000E+00 0. -1.
         -5    1    5    5    0  502  0.15283632424E+02 -0.76399620165E+02  0.68768632861E+00  0.78058018768E+02  0.47000000000E+01 0.  1.
         11    1    6    6    0    0 -0.13612642179E+02  0.16090184901E+02  0.45631173713E+01  0.21564325109E+02  0.00000000000E+00 0. -1.
        -12    1    6    6    0    0  0.92425506496E+02  0.20982046235E+02 -0.41678953398E+02  0.10353673586E+03  0.00000000000E+00 0.  1.
<mgrwt>
<rscale>  2 0.20356586E+03</rscale>
<asrwt>0</asrwt>
<pdfrwt beam="1">  1       21 0.21893682E-01 0.20481414E+03</pdfrwt>
<pdfrwt beam="2">  1       21 0.45802058E-01 0.20481414E+03</pdfrwt>
<totfact> 0.88564738E+04</totfact>
</mgrwt>
</event>
<event>
12    1  0.1071811E-001  0.2116655E+03  0.7546771E-02  0.1140760E+00
         21   -1    0    0  503  502  0.00000000000E+00  0.00000000000E+00  0.29158416001E+02  0.29158416001E+02  0.00000000000E+00 0. -1.
         21   -1    0    0  501  503 -0.00000000000E+00 -0.00000000000E+00 -0.17759741898E+04  0.17759741898E+04  0.00000000000E+00 0. -1.
          6    2    1    2  501    0  0.11422745096E+03 -0.28821355189E+02 -0.12128874091E+04  0.12307792437E+04  0.17275155125E+03 0.  0.
         24    2    3    3    0    0  0.85304116973E+02 -0.76634143020E+02 -0.60308105584E+03  0.61839986747E+03  0.74579165522E+02 0.  0.
         -6    2    1    2    0  502 -0.11422745096E+03  0.28821355189E+02 -0.53392836470E+03  0.57435336212E+03  0.17585137156E+03 0.  0.
        -24    2    5    5    0    0 -0.16314724109E+02  0.28805686561E+02 -0.15161108678E+03  0.17966931973E+03  0.90549461706E+02 0.  0.
          5    1    3    3  501    0  0.28923333984E+02  0.47812787832E+02 -0.60980635330E+03  0.61237937624E+03  0.47000000000E+01 0. -1.
        -11    1    4    4    0    0  0.31317020163E+02  0.11370820287E+02 -0.16299696015E+03  0.16636724535E+03  0.00000000000E+00 0.  1.
         12    1    4    4    0    0  0.53987096810E+02 -0.88004963308E+02 -0.44008409568E+03  0.45203262212E+03  0.00000000000E+00 0. -1.
         -5    1    5    5    0  502 -0.97912726848E+02  0.15668627793E-01 -0.38231727792E+03  0.39468404239E+03  0.47000000000E+01 0.  1.
         13    1    6    6    0    0 -0.42013457375E+02  0.39971658205E+02 -0.13540545907E+03  0.14730072100E+03  0.00000000000E+00 0. -1.
        -14    1    6    6    0    0  0.25698733266E+02 -0.11165971644E+02 -0.16205627710E+02  0.32368598729E+02  0.00000000000E+00 0.  1.
<mgrwt>
<rscale>  2 0.21102051E+03</rscale>
<asrwt>0</asrwt>
<pdfrwt beam="1">  1       21 0.44859111E-02 0.21166550E+03</pdfrwt>
<pdfrwt beam="2">  1       21 0.27322674E+00 0.21166550E+03</pdfrwt>
<totfact> 0.15460048E+04</totfact>
</mgrwt>
</event>
<event>
12    1  0.1071811E-001  0.2167624E+03  0.7546771E-02  0.1136331E+00
         21   -1    0    0  503  502  0.00000000000E+00  0.00000000000E+00  0.51279185042E+03  0.51279185042E+03  0.00000000000E+00 0.  1.
         21   -1    0    0  501  503 -0.00000000000E+00 -0.00000000000E+00 -0.10011967751E+03  0.10011967751E+03  0.00000000000E+00 0.  1.
          6    2    1    2  501    0 -0.12179265939E+03  0.48008999286E+02  0.11693535191E+03  0.24624247777E+03  0.17269384888E+03 0.  0.
         24    2    3    3    0    0 -0.56880681498E+02 -0.94376512010E+01 -0.98318660135E+01  0.92601011804E+02  0.71789975694E+02 0.  0.
         -6    2    1    2    0  502  0.12179265939E+03 -0.48008999286E+02  0.29573682101E+03  0.36666905016E+03  0.17276460618E+03 0.  0.
        -24    2    5    5    0    0  0.11138452441E+03 -0.95580798129E+02  0.24413010238E+03  0.29555823012E+03  0.78822327116E+02 0.  0.
          5    1    3    3  501    0 -0.64911977892E+02  0.57446650487E+02  0.12676721792E+03  0.15364146597E+03  0.47000000000E+01 0. -1.
        -13    1    4    4    0    0 -0.57565878840E+02  0.20289211720E+02  0.74458345867E+00  0.61041272294E+02  0.00000000000E+00 0.  1.
         14    1    4    4    0    0  0.68519734207E+00 -0.29726862921E+02 -0.10576449472E+02  0.31559739510E+02  0.00000000000E+00 0. -1.
         -5    1    5    5    0  502  0.10408134979E+02  0.47571798843E+02  0.51606718629E+02  0.71110820039E+02  0.47000000000E+01 0.  1.
         11    1    6    6    0    0  0.40134994349E+02  0.10777556388E+01  0.10124633901E+03  0.10891648402E+03  0.00000000000E+00 0. -1.
        -12    1    6    6    0    0  0.71249530060E+02 -0.96658553768E+02  0.14288376337E+03  0.18664174610E+03  0.00000000000E+00 0.  1.
<mgrwt>
<rscale>  2 0.21674827E+03</rscale>
<asrwt>0</asrwt>
<pdfrwt beam="1">  1       21 0.78891052E-01 0.21676237E+03</pdfrwt>
<pdfrwt beam="2">  1       21 0.15403028E-01 0.21676237E+03</pdfrwt>
<totfact> 0.52439220E+04</totfact>
</mgrwt>
</event>
<event>
12    1  0.1071811E-001  0.1757677E+03  0.7546771E-02  0.1172131E+00
         21   -1    0    0  501  502  0.00000000000E+00  0.00000000000E+00  0.89486155961E+02  0.89486155961E+02  0.00000000000E+00 0. -1.
         21   -1    0    0  502  503 -0.00000000000E+00 -0.00000000000E+00 -0.35319643396E+03  0.35319643396E+03  0.00000000000E+00 0.  1.
         -6    2    1    2    0  503 -0.21723291500E+02 -0.14449302231E+02 -0.16746711200E+03  0.24229040760E+03  0.17314365216E+03 0.  0.
        -24    2    3    3    0    0 -0.74014279792E+02  0.32759057136E+01 -0.14529301002E+03  0.18260530685E+03  0.82132783691E+02 0.  0.
          6    2    1    2  501    0  0.21723291500E+02  0.14449302231E+02 -0.96243166000E+02  0.20039218232E+03  0.17382058568E+03 0.  0.
         24    2    5    5    0    0 -0.22280662752E+02  0.63807938968E+02 -0.77057032473E+02  0.13137898989E+03  0.82187418275E+02 0.  0.
          5    1    5    5  501    0  0.44003954252E+02 -0.49358636736E+02 -0.19186133527E+02  0.69013192435E+02  0.47000000000E+01 0. -1.
        -13    1    6    6    0    0  0.26882234111E+02  0.46672193576E+02 -0.45432514591E+02  0.70463192846E+02  0.00000000000E+00 0.  1.
         14    1    6    6    0    0 -0.49162896863E+02  0.17135745392E+02 -0.31624517881E+02  0.60915797042E+02  0.00000000000E+00 0. -1.
         -5    1    3    3    0  503  0.52290988291E+02 -0.17725207945E+02 -0.22174101982E+02  0.59685100753E+02  0.47000000000E+01 0.  1.
         13    1    4    4    0    0  0.12478216789E+02 -0.22901482866E+01  0.82768544026E+00  0.12713604391E+02  0.00000000000E+00 0. -1.
        -14    1    4    4    0    0 -0.86492496581E+02  0.55660540002E+01 -0.14612069546E+03  0.16989170246E+03  0.00000000000E+00 0.  1.
<mgrwt>
<rscale>  2 0.17560010E+03</rscale>
<asrwt>0</asrwt>
<pdfrwt beam="1">  1       21 0.13767101E-01 0.17576769E+03</pdfrwt>
<pdfrwt beam="2">  1       21 0.54337913E-01 0.17576769E+03</pdfrwt>
<totfact> 0.14749865E+05</totfact>
</mgrwt>
</event>
<event>
12    1  0.1071811E-001  0.2032724E+03  0.7546771E-02  0.1147081E+00
         21   -1    0    0  503  502  0.00000000000E+00  0.00000000000E+00  0.98531078737E+03  0.98531078737E+03  0.00000000000E+00 0. -1.
         21   -1    0    0  501  503 -0.00000000000E+00 -0.00000000000E+00 -0.15030899328E+03  0.15030899328E+03  0.00000000000E+00 0. -1.
          6    2    1    2  501    0 -0.18785338943E+02 -0.10430277765E+03 -0.64904957029E+02  0.21304088710E+03  0.17303701265E+03 0.  0.
         24    2    3    3    0    0 -0.59239968214E+02 -0.12253837190E+03 -0.44623832873E+02  0.16402529852E+03  0.79924875182E+02 0.  0.
         -6    2    1    2    0  502  0.18785338943E+02  0.10430277765E+03  0.89990675111E+03  0.92257889355E+03  0.17345805181E+03 0.  0.
        -24    2    5    5    0    0  0.17291555528E+02 -0.13073290296E+02  0.31834761683E+03  0.32927248925E+03  0.81272739728E+02 0.  0.
          5    1    3    3  501    0  0.40454629270E+02  0.18235594249E+02 -0.20281124156E+02  0.49015588582E+02  0.47000000000E+01 0. -1.
        -13    1    4    4    0    0  0.11722007864E+02 -0.33694755118E+01  0.91724557953E+01  0.15260824975E+02  0.00000000000E+00 0.  1.
         14    1    4    4    0    0 -0.70961976077E+02 -0.11916889639E+03 -0.53796288669E+02  0.14876447355E+03  0.00000000000E+00 0. -1.
         -5    1    5    5    0  502  0.14937834152E+01  0.11737606795E+03  0.58155913428E+03  0.59330640430E+03  0.47000000000E+01 0.  1.
         13    1    6    6    0    0  0.43648631746E-02  0.31593207430E+00  0.30192754220E+03  0.30192770752E+03  0.00000000000E+00 0. -1.
        -14    1    6    6    0    0  0.17287190665E+02 -0.13389222370E+02  0.16420074633E+02  0.27344781728E+02  0.00000000000E+00 0.  1.
<mgrwt>
<rscale>  2 0.20318251E+03</rscale>
<asrwt>0</asrwt>
<pdfrwt beam="1">  1       21 0.15158627E+00 0.20327236E+03</pdfrwt>
<pdfrwt beam="2">  1       21 0.23124461E-01 0.20327236E+03</pdfrwt>
<totfact> 0.50622339E+03</totfact>
</mgrwt>
</event>
<event>
12    1  0.1071811E-001  0.2512069E+03  0.7546771E-02  0.1113048E+00
         21   -1    0    0  503  502  0.00000000000E+00  0.00000000000E+00  0.42576680231E+03  0.42576680231E+03  0.00000000000E+00 0. -1.
         21   -1    0    0  501  503 -0.00000000000E+00 -0.00000000000E+00 -0.15100165000E+03  0.15100165000E+03  0.00000000000E+00 0. -1.
          6    2    1    2  501    0  0.10667210347E+03  0.14474664832E+03  0.85866858879E+02  0.26246374080E+03  0.17083198740E+03 0.  0.
         24    2    3    3    0    0  0.46165206308E+02  0.13361586894E+03  0.42257281354E+01  0.16012927405E+03  0.75093947330E+02 0.  0.
         -6    2    1    2    0  502 -0.10667210347E+03 -0.14474664832E+03  0.18889829344E+03  0.31430471152E+03  0.17542621400E+03 0.  0.
        -24    2    5    5    0    0 -0.59355487724E+02 -0.15600726476E+03  0.18967769827E+03  0.26543385025E+03  0.81339775387E+02 0.  0.
          5    1    3    3  501    0  0.60506897164E+02  0.11130779381E+02  0.81641130744E+02  0.10233446674E+03  0.47000000000E+01 0. -1.
        -13    1    4    4    0    0  0.28616457853E+02  0.53800089376E+02 -0.34140431013E+02  0.69849268476E+02  0.00000000000E+00 0.  1.
         14    1    4    4    0    0  0.17548748455E+02  0.79815779562E+02  0.38366159149E+02  0.90280005579E+02  0.00000000000E+00 0. -1.
         -5    1    5    5    0  502 -0.47316615748E+02  0.11260616441E+02 -0.77940482802E+00  0.48870861260E+02  0.47000000000E+01 0.  1.
         11    1    6    6    0    0 -0.78627245819E+02 -0.13989121610E+03  0.16669240099E+03  0.23138312962E+03  0.00000000000E+00 0. -1.
        -12    1    6    6    0    0  0.19271758095E+02 -0.16116048661E+02  0.22985297276E+02  0.34050720630E+02  0.00000000000E+00 0.  1.
<mgrwt>
<rscale>  2 0.25040642E+03</rscale>
<asrwt>0</asrwt>
<pdfrwt beam="1">  1       21 0.65502585E-01 0.25120686E+03</pdfrwt>
<pdfrwt beam="2">  1       21 0.23231023E-01 0.25120686E+03</pdfrwt>
<totfact> 0.36286857E+04</totfact>
</mgrwt>
</event>
<event>
12    1  0.1071811E-001  0.1859990E+03  0.7546771E-02  0.1162191E+00
         21   -1    0    0  501  502  0.00000000000E+00  0.00000000000E+00  0.61185097441E+02  0.61185097441E+02  0.00000000000E+00 0.  1.
         21   -1    0    0  502  503 -0.00000000000E+00 -0.00000000000E+00 -0.95375248273E+03  0.95375248273E+03  0.00000000000E+00 0.  1.
         -6    2    1    2    0  503  0.18934694738E+02 -0.61955024706E+02 -0.77026406663E+03  0.79233090823E+03  0.17402467653E+03 0.  0.
        -24    2    3    3    0    0 -0.33482850925E+02  0.83694070010E+01 -0.45798589233E+03  0.46793474159E+03  0.89558341493E+02 0.  0.
          6    2    1    2  501    0 -0.18934694738E+02  0.61955024706E+02 -0.12230331865E+03  0.22260667194E+03  0.17435217488E+03 0.  0.
         24    2    5    5    0    0 -0.13806103850E+02  0.42443307483E+01  0.70453167291E+01  0.80796989203E+02  0.79182663061E+02 0.  0.
          5    1    5    5  501    0 -0.51285908884E+01  0.57710693957E+02 -0.12934863538E+03  0.14180968273E+03  0.47000000000E+01 0. -1.
        -11    1    6    6    0    0 -0.16499638664E+02  0.31772521089E+02  0.28525733944E+02  0.45776070926E+02  0.00000000000E+00 0.  1.
         12    1    6    6    0    0  0.26935348143E+01 -0.27528190341E+02 -0.21480417215E+02  0.35020918277E+02  0.00000000000E+00 0. -1.
         -5    1    3    3    0  503  0.52417545663E+02 -0.70324431707E+02 -0.31227817430E+03  0.32439616664E+03  0.47000000000E+01 0.  1.
         13    1    4    4    0    0 -0.82987904498E+01 -0.64835767089E+01 -0.16458904831E+01  0.10659064000E+02  0.00000000000E+00 0. -1.
        -14    1    4    4    0    0 -0.25184060475E+02  0.14852983710E+02 -0.45634000185E+03  0.45727567759E+03  0.00000000000E+00 0.  1.
<mgrwt>
<rscale>  2 0.18592222E+03</rscale>
<asrwt>0</asrwt>
<pdfrwt beam="1">  1       21 0.94130922E-02 0.18599900E+03</pdfrwt>
<pdfrwt beam="2">  1       21 0.14673115E+00 0.18599900E+03</pdfrwt>
<totfact> 0.28708355E+04</totfact>
</mgrwt>
</event>
<event>
12    1  0.1071811E-001  0.1844640E+03  0.7546771E-02  0.1164176E+00
         21   -1    0    0  503  502  0.00000000000E+00  0.00000000000E+00  0.19136345762E+03  0.19136345762E+03  0.00000000000E+00 0.  1.
         21   -1    0    0  501  503 -0.00000000000E+00 -0.00000000000E+00 -0.17960739950E+03  0.17960739950E+03  0.00000000000E+00 0.  1.
          6    2    1    2  501    0  0.49695673826E+02 -0.24352695470E+01  0.34737234535E+02  0.18770628135E+03  0.17762708707E+03 0.  0.
         24    2    3    3    0    0  0.10156096894E+03  0.10422858917E+02  0.36626201081E+02  0.13403134772E+03  0.78737901717E+02 0.  0.
         -6    2    1    2    0  502 -0.49695673826E+02  0.24352695470E+01 -0.22981176420E+02  0.18326457577E+03  0.17487761357E+03 0.  0.
        -24    2    5    5    0    0  0.40605290153E+02  0.10082670167E+02  0.34814621708E+00  0.89567755512E+02  0.79194771264E+02 0.  0.
          5    1    3    3  501    0 -0.51865295116E+02 -0.12858128464E+02 -0.18889665451E+01  0.53674933625E+02  0.47000000000E+01 0. -1.
        -11    1    4    4    0    0  0.87136604964E+02  0.32767029162E+02  0.48425711956E+02  0.10493576942E+03  0.00000000000E+00 0.  1.
         12    1    4    4    0    0  0.14424363977E+02 -0.22344170245E+02 -0.11799510876E+02  0.29095578306E+02  0.00000000000E+00 0. -1.
         -5    1    5    5    0  502 -0.90300963979E+02 -0.76474006195E+01 -0.23329322637E+02  0.93696820258E+02  0.47000000000E+01 0.  1.
         11    1    6    6    0    0  0.49138464476E+02  0.84560567990E+01  0.30324492566E+02  0.58358105153E+02  0.00000000000E+00 0. -1.
        -12    1    6    6    0    0 -0.85331743224E+01  0.16266133676E+01 -0.29976346349E+02  0.31209650359E+02  0.00000000000E+00 0.  1.
<mgrwt>
<rscale>  2 0.18379891E+03</rscale>
<asrwt>0</asrwt>
<pdfrwt beam="1">  1       21 0.29440532E-01 0.18446401E+03</pdfrwt>
<pdfrwt beam="2">  1       21 0.27631908E-01 0.18446401E+03</pdfrwt>
<totfact> 0.13853884E+05</totfact>
</mgrwt>
</event>
<event>
12    1  0.1071811E-001  0.1883374E+03  0.7546771E-02  0.1163450E+00
         21   -1    0    0  501  502  0.00000000000E+00  0.00000000000E+00  0.40276001144E+03  0.40276001144E+03  0.00000000000E+00 0. -1.
         21   -1    0    0  502  503 -0.00000000000E+00 -0.00000000000E+00 -0.33772368677E+03  0.33772368677E+03  0.00000000000E+00 0. -1.
         -6    2    1    2    0  503 -0.26252171201E+02  0.13807347783E+02 -0.29030647597E+03  0.33831520175E+03  0.17117098586E+03 0.  0.
        -24    2    3    3    0    0  0.10998188900E+01  0.44139765232E+02 -0.28038870431E+03  0.29602289624E+03  0.84036903319E+02 0.  0.
          6    2    1    2  501    0  0.26252171201E+02 -0.13807347783E+02  0.35534280064E+03  0.40216849646E+03  0.18598702706E+03 0.  0.
         24    2    5    5    0    0  0.14100399042E+01  0.15511041344E+02  0.35416075195E+03  0.36343625321E+03  0.80084276298E+02 0.  0.
          5    1    5    5  501    0  0.24842131297E+02 -0.29318389127E+02  0.11820486926E+01  0.38732243254E+02  0.47000000000E+01 0. -1.
        -13    1    6    6    0    0 -0.73160567189E+01  0.17587436187E+02  0.15234261891E+02  0.24391091261E+02  0.00000000000E+00 0.  1.
         14    1    6    6    0    0  0.87260966231E+01 -0.20763948432E+01  0.33892649006E+03  0.33904516195E+03  0.00000000000E+00 0. -1.
         -5    1    3    3    0  503 -0.27351990091E+02 -0.30332417449E+02 -0.99177716598E+01  0.42292305505E+02  0.47000000000E+01 0.  1.
         13    1    4    4    0    0 -0.54249638469E+01  0.66019514257E+02 -0.24586496849E+03  0.25463226274E+03  0.00000000000E+00 0. -1.
        -14    1    4    4    0    0  0.65247827369E+01 -0.21879749025E+02 -0.34523735816E+02  0.41390633504E+02  0.00000000000E+00 0.  1.
<mgrwt>
<rscale>  2 0.18457216E+03</rscale>
<asrwt>0</asrwt>
<pdfrwt beam="1">  1       21 0.61963078E-01 0.18833745E+03</pdfrwt>
<pdfrwt beam="2">  1       21 0.51957491E-01 0.18833745E+03</pdfrwt>
<totfact> 0.85276084E+03</totfact>
</mgrwt>
</event>
<event>
12    1  0.1071811E-001  0.1799814E+03  0.7546771E-02  0.1167911E+00
         21   -1    0    0  501  502  0.00000000000E+00  0.00000000000E+00  0.10507437439E+03  0.10507437439E+03  0.00000000000E+00 0. -1.
         21   -1    0    0  502  503 -0.00000000000E+00 -0.00000000000E+00 -0.32670671827E+03  0.32670671827E+03  0.00000000000E+00 0. -1.
         -6    2    1    2    0  503 -0.16052672506E+02 -0.50123937071E+02 -0.16284796380E+03  0.24244305718E+03  0.17172384603E+03 0.  0.
        -24    2    3    3    0    0  0.54332362993E+02 -0.45244592561E+02 -0.78010820422E+02  0.13200170567E+03  0.79622128664E+02 0.  0.
          6    2    1    2  501    0  0.16052672506E+02  0.50123937071E+02 -0.58784380086E+02  0.18933803549E+03  0.17211388955E+03 0.  0.
         24    2    5    5    0    0  0.12806610153E+02 -0.36579805586E+02 -0.10105300790E+02  0.89739748991E+02  0.80305753247E+02 0.  0.
          5    1    5    5  501    0  0.32460623528E+01  0.86703742658E+02 -0.48679079296E+02  0.99598286495E+02  0.47000000000E+01 0. -1.
        -13    1    6    6    0    0 -0.32484782395E+02 -0.14723678745E+02 -0.16030454686E+02  0.39102727276E+02  0.00000000000E+00 0.  1.
         14    1    6    6    0    0  0.45291392548E+02 -0.21856126841E+02  0.59251538968E+01  0.50637021715E+02  0.00000000000E+00 0. -1.
         -5    1    3    3    0  503 -0.70385035499E+02 -0.48793445098E+01 -0.84837143379E+02  0.11044135150E+03  0.47000000000E+01 0.  1.
         11    1    4    4    0    0 -0.63311195908E+01 -0.19317768536E+00 -0.51553628314E+02  0.51941284016E+02  0.00000000000E+00 0. -1.
        -12    1    4    4    0    0  0.60663482584E+02 -0.45051414876E+02 -0.26457192108E+02  0.80060421656E+02  0.00000000000E+00 0.  1.
<mgrwt>
<rscale>  2 0.17988804E+03</rscale>
<asrwt>0</asrwt>
<pdfrwt beam="1">  1       21 0.16165289E-01 0.17998136E+03</pdfrwt>
<pdfrwt beam="2">  1       21 0.50262571E-01 0.17998136E+03</pdfrwt>
<totfact> 0.12953345E+05</totfact>
</mgrwt>
</event>
<event>
12    1  0.1071811E-001  0.2334464E+03  0.7546771E-02  0.1124309E+00
         21   -1    0    0  503  502  0.00000000000E+00  0.00000000000E+00  0.98702032666E+03  0.98702032666E+03  0.00000000000E+00 0. -1.
         21   -1    0    0  501  503 -0.00000000000E+00 -0.00000000000E+00 -0.29076400619E+03  0.29076400619E+03  0.00000000000E+00 0.  1.
          6    2    1    2  501    0  0.13668418974E+03  0.78224588443E+02 -0.22709087312E+03  0.32538355208E+03  0.17176302672E+03 0.  0.
         24    2    3    3    0    0  0.98246080139E+02  0.98692666629E+02 -0.23098004575E+03  0.28141030842E+03  0.80295986473E+02 0.  0.
         -6    2    1    2    0  502 -0.13668418974E+03 -0.78224588443E+02  0.92334719359E+03  0.95240078078E+03  0.17232397787E+03 0.  0.
        -24    2    5    5    0    0 -0.28774290903E+02  0.10269546739E+02  0.47821879958E+03  0.48588482672E+03  0.80358080884E+02 0.  0.
          5    1    3    3  501    0  0.38438109596E+02 -0.20468078186E+02  0.38891726280E+01  0.43973243657E+02  0.47000000000E+01 0. -1.
        -13    1    4    4    0    0  0.93322285359E+02  0.10819075167E+03 -0.18256918534E+03  0.23183139375E+03  0.00000000000E+00 0.  1.
         14    1    4    4    0    0  0.49237947801E+01 -0.94980850451E+01 -0.48410860412E+02  0.49578914675E+02  0.00000000000E+00 0. -1.
         -5    1    5    5    0  502 -0.10790989883E+03 -0.88494135182E+02  0.44512839401E+03  0.46651595405E+03  0.47000000000E+01 0.  1.
         13    1    6    6    0    0  0.31752562048E+01 -0.26574129742E+02  0.73171662844E+02  0.77912507769E+02  0.00000000000E+00 0. -1.
        -14    1    6    6    0    0 -0.31949547108E+02  0.36843676481E+02  0.40504713673E+03  0.40797231896E+03  0.00000000000E+00 0.  1.
<mgrwt>
<rscale>  2 0.23334286E+03</rscale>
<asrwt>0</asrwt>
<pdfrwt beam="1">  1       21 0.15184928E+00 0.23344637E+03</pdfrwt>
<pdfrwt beam="2">  1       21 0.44732925E-01 0.23344637E+03</pdfrwt>
<totfact> 0.13359349E+03</totfact>
</mgrwt>
</event>
<event>
12    1  0.1071811E-001  0.1758210E+03  0.7546771E-02  0.1172551E+00
         21   -1    0    0  501  502  0.00000000000E+00  0.00000000000E+00  0.64692514606E+02  0.64692514606E+02  0.00000000000E+00 0. -1.
         21   -1    0    0  502  503 -0.00000000000E+00 -0.00000000000E+00 -0.64082072352E+03  0.64082072352E+03  0.00000000000E+00 0. -1.
         -6    2    1    2    0  503  0.15931520731E+02  0.47244149554E+01 -0.46814148715E+03  0.49917814639E+03  0.17247097262E+03 0.  0.
        -24    2    3    3    0    0  0.73071484406E+02  0.12861832020E+02 -0.35809955637E+03  0.37482980690E+03  0.82202331542E+02 0.  0.
          6    2    1    2  501    0 -0.15931520731E+02 -0.47244149554E+01 -0.10798672176E+03  0.20633509173E+03  0.17503400970E+03 0.  0.
         24    2    5    5    0    0 -0.54692107614E+02  0.95038989248E+01 -0.85153301360E+01  0.98532142962E+02  0.80960000120E+02 0.  0.
          5    1    5    5  501    0  0.38760586883E+02 -0.14228313880E+02 -0.99471391623E+02  0.10780294877E+03  0.47000000000E+01 0. -1.
        -11    1    6    6    0    0  0.11233779202E+01 -0.28476079158E+02  0.68146721855E+01  0.29301686285E+02  0.00000000000E+00 0.  1.
         12    1    6    6    0    0 -0.55815485534E+02  0.37979978083E+02 -0.15330002321E+02  0.69230456677E+02  0.00000000000E+00 0. -1.
         -5    1    3    3    0  503 -0.57139963675E+02 -0.81374170646E+01 -0.11004193078E+03  0.12434833950E+03  0.47000000000E+01 0.  1.
         13    1    4    4    0    0  0.19472356314E+02 -0.22663506560E+02 -0.22539090207E+03  0.22736285081E+03  0.00000000000E+00 0. -1.
        -14    1    4    4    0    0  0.53599128091E+02  0.35525338580E+02 -0.13270865430E+03  0.14746695609E+03  0.00000000000E+00 0.  1.
<mgrwt>
<rscale>  2 0.17517969E+03</rscale>
<asrwt>0</asrwt>
<pdfrwt beam="1">  1       21 0.99526949E-02 0.17582104E+03</pdfrwt>
<pdfrwt beam="2">  1       21 0.98587800E-01 0.17582104E+03</pdfrwt>
<totfact> 0.70013740E+04</totfact>
</mgrwt>
</event>
<event>
12    1  0.1071811E-001  0.1813033E+03  0.7546771E-02  0.1166581E+00
         21   -1    0    0  503  502  0.00000000000E+00  0.00000000000E+00  0.64925667829E+02  0.64925667829E+02  0.00000000000E+00 0.  1.
         21   -1    0    0  501  503 -0.00000000000E+00 -0.00000000000E+00 -0.65933095891E+03  0.65933095891E+03  0.00000000000E+00 0.  1.
          6    2    1    2  501    0 -0.44642889876E+02 -0.28776153606E+02 -0.47180643539E+03  0.50539282925E+03  0.17320376655E+03 0.  0.
         24    2    3    3    0    0  0.13609731199E+02  0.35590037235E+02 -0.26345898944E+03  0.27963383692E+03  0.85630415728E+02 0.  0.
         -6    2    1    2    0  502  0.44642889876E+02  0.28776153606E+02 -0.12259885569E+03  0.21886379749E+03  0.17334886156E+03 0.  0.
        -24    2    5    5    0    0  0.34847108075E+01  0.52972712479E+02 -0.13861337000E+03  0.16828688741E+03  0.79300432878E+02 0.  0.
          5    1    3    3  501    0 -0.58252621075E+02 -0.64366190840E+02 -0.20834744595E+03  0.22575899233E+03  0.47000000000E+01 0. -1.
        -13    1    4    4    0    0 -0.31156478607E+01  0.67104604766E+01 -0.23681191239E+03  0.23692745597E+03  0.00000000000E+00 0.  1.
         14    1    4    4    0    0  0.16725379060E+02  0.28879576758E+02 -0.26647077051E+02  0.42706380949E+02  0.00000000000E+00 0. -1.
         -5    1    5    5    0  502  0.41158179068E+02 -0.24196558874E+02  0.16014514303E+02  0.50576910086E+02  0.47000000000E+01 0.  1.
         11    1    6    6    0    0 -0.28060670210E+02 -0.51163072389E+01 -0.52267221681E+02  0.59543599779E+02  0.00000000000E+00 0. -1.
        -12    1    6    6    0    0  0.31545381017E+02  0.58089019718E+02 -0.86346148316E+02  0.10874328763E+03  0.00000000000E+00 0.  1.
<mgrwt>
<rscale>  2 0.18126860E+03</rscale>
<asrwt>0</asrwt>
<pdfrwt beam="1">  1       21 0.99885642E-02 0.18130329E+03</pdfrwt>
<pdfrwt beam="2">  1       21 0.10143553E+00 0.18130329E+03</pdfrwt>
<totfact> 0.64867006E+04</totfact>
</mgrwt>
</event>
<event>
12    1  0.1071811E-001  0.1931115E+03  0.7546771E-02  0.1155830E+00
         21   -1    0    0  501  502  0.00000000000E+00  0.00000000000E+00  0.31477237094E+03  0.31477237094E+03  0.00000000000E+00 0.  1.
         21   -1    0    0  502  503 -0.00000000000E+00 -0.00000000000E+00 -0.12612375827E+03  0.12612375827E+03  0.00000000000E+00 0.  1.
         -6    2    1    2    0  503  0.38205817761E+02  0.73616352144E+02  0.38767229899E+02  0.19696435620E+03  0.17439325585E+03 0.  0.
        -24    2    3    3    0    0  0.29714195222E+02 -0.28308145338E+02  0.25970242878E+02  0.93782169185E+02  0.80226911020E+02 0.  0.
          6    2    1    2  501    0 -0.38205817761E+02 -0.73616352144E+02  0.14988138277E+03  0.24393177302E+03  0.17366412748E+03 0.  0.
         24    2    5    5    0    0 -0.29791095139E+02 -0.57212888580E+02  0.13108780917E+02  0.10584225209E+03  0.82884969810E+02 0.  0.
          5    1    5    5  501    0 -0.84147226229E+01 -0.16403463565E+02  0.13677260185E+03  0.13808952093E+03  0.47000000000E+01 0. -1.
        -13    1    6    6    0    0 -0.21139935840E+02  0.17290012941E+02 -0.69940180970E+01  0.28191447709E+02  0.00000000000E+00 0.  1.
         14    1    6    6    0    0 -0.86511592985E+01 -0.74502901521E+02  0.20102799014E+02  0.77650804377E+02  0.00000000000E+00 0. -1.
         -5    1    3    3    0  503  0.84916225399E+01  0.10192449748E+03  0.12796987021E+02  0.10318218702E+03  0.47000000000E+01 0.  1.
         13    1    4    4    0    0 -0.19515003602E+02  0.56569546250E+01 -0.11360597714E+02  0.23278738832E+02  0.00000000000E+00 0. -1.
        -14    1    4    4    0    0  0.49229198823E+02 -0.33965099963E+02  0.37330840591E+02  0.70503430353E+02  0.00000000000E+00 0.  1.
<mgrwt>
<rscale>  2 0.19294676E+03</rscale>
<asrwt>0</asrwt>
<pdfrwt beam="1">  1       21 0.48426518E-01 0.19311152E+03</pdfrwt>
<pdfrwt beam="2">  1       21 0.19403655E-01 0.19311152E+03</pdfrwt>
<totfact> 0.99455920E+04</totfact>
</mgrwt>
</event>
<event>
12    1  0.1071811E-001  0.2612511E+03  0.7546771E-02  0.1106468E+00
         21   -1    0    0  501  502  0.00000000000E+00  0.00000000000E+00  0.42866205500E+03  0.42866205500E+03  0.00000000000E+00 0.  1.
         21   -1    0    0  502  503 -0.00000000000E+00 -0.00000000000E+00 -0.16038678559E+03  0.16038678559E+03  0.00000000000E+00 0.  1.
         -6    2    1    2    0  503  0.50462604997E+02  0.18970435451E+03  0.10609591764E+03  0.28197247333E+03  0.17238884927E+03 0.  0.
        -24    2    3    3    0    0 -0.31100293446E+02  0.58605470736E+02  0.45803785286E+02  0.11615131981E+03  0.83614071156E+02 0.  0.
          6    2    1    2  501    0 -0.50462604997E+02 -0.18970435451E+03  0.16217935177E+03  0.30707636726E+03  0.17163780635E+03 0.  0.
         24    2    5    5    0    0 -0.20132230397E+02 -0.20464050900E+03  0.15440311584E+03  0.27206807996E+03  0.88868854663E+02 0.  0.
          5    1    5    5  501    0 -0.30330374601E+02  0.14936154493E+02  0.77762359245E+01  0.35008287299E+02  0.47000000000E+01 0. -1.
        -11    1    6    6    0    0 -0.30994043474E+02 -0.15953430632E+02  0.27753502077E+02  0.44557822628E+02  0.00000000000E+00 0.  1.
         12    1    6    6    0    0  0.10861813077E+02 -0.18868707837E+03  0.12664961376E+03  0.22751025733E+03  0.00000000000E+00 0. -1.
         -5    1    3    3    0  503  0.81562898443E+02  0.13109888377E+03  0.60292132355E+02  0.16582115351E+03  0.47000000000E+01 0.  1.
         11    1    4    4    0    0 -0.20822243795E+02  0.43896725243E+02  0.70502903479E+02  0.85622121690E+02  0.00000000000E+00 0. -1.
        -12    1    4    4    0    0 -0.10278049651E+02  0.14708745493E+02 -0.24699118192E+02  0.30529198124E+02  0.00000000000E+00 0.  1.
<mgrwt>
<rscale>  2 0.26112726E+03</rscale>
<asrwt>0</asrwt>
<pdfrwt beam="1">  1       21 0.65948008E-01 0.26125109E+03</pdfrwt>
<pdfrwt beam="2">  1       21 0.24674890E-01 0.26125109E+03</pdfrwt>
<totfact> 0.31719675E+04</totfact>
</mgrwt>
</event>
<event>
12    1  0.1071811E-001  0.3133706E+03  0.7546771E-02  0.1078877E+00
         21   -1    0    0  501  502  0.00000000000E+00  0.00000000000E+00  0.10269506727E+04  0.10269506727E+04  0.00000000000E+00 0.  1.
         21   -1    0    0  502  503 -0.00000000000E+00 -0.00000000000E+00 -0.13966855530E+03  0.13966855530E+03  0.00000000000E+00 0. -1.
         -6    2    1    2    0  503 -0.21203594757E+03 -0.14734916993E+03  0.11423419746E+03  0.33247041689E+03  0.17554516598E+03 0.  0.
        -24    2    3    3    0    0 -0.23136221298E+03 -0.10940382478E+03  0.10590661585E+03  0.28882648984E+03  0.81895417972E+02 0.  0.
          6    2    1    2  501    0  0.21203594757E+03  0.14734916993E+03  0.77304791994E+03  0.83414881110E+03  0.17756725934E+03 0.  0.
         24    2    5    5    0    0  0.19968492030E+03  0.17718095120E+03  0.71386748959E+03  0.76656999500E+03  0.82192503750E+02 0.  0.
          5    1    5    5  501    0  0.12351027269E+02 -0.29831781278E+02  0.59180430355E+02  0.67578816103E+02  0.47000000000E+01 0. -1.
        -13    1    6    6    0    0  0.11036512885E+03  0.12055958122E+03  0.52803304424E+03  0.55275127326E+03  0.00000000000E+00 0.  1.
         14    1    6    6    0    0  0.89319791454E+02  0.56621369984E+02  0.18583444535E+03  0.21381872173E+03  0.00000000000E+00 0. -1.
         -5    1    3    3    0  503  0.19326265403E+02 -0.37945345149E+02  0.83275816068E+01  0.43643927050E+02  0.47000000000E+01 0.  1.
         11    1    4    4    0    0 -0.54149668496E+02 -0.23653232108E+02 -0.10647725595E+02  0.60041952398E+02  0.00000000000E+00 0. -1.
        -12    1    4    4    0    0 -0.17721254448E+03 -0.85750592670E+02  0.11655434144E+03  0.22878453745E+03  0.00000000000E+00 0.  1.
<mgrwt>
<rscale>  2 0.31308490E+03</rscale>
<asrwt>0</asrwt>
<pdfrwt beam="1">  1       21 0.15799241E+00 0.31337063E+03</pdfrwt>
<pdfrwt beam="2">  1       21 0.21487471E-01 0.31337063E+03</pdfrwt>
<totfact> 0.48421591E+03</totfact>
</mgrwt>
</event>
<event>
12    1  0.1071811E-001  0.1868373E+03  0.7546771E-02  0.1164365E+00
         21   -1    0    0  501  502  0.00000000000E+00  0.00000000000E+00  0.15677062367E+04  0.15677062367E+04  0.00000000000E+00 0.  1.
         21   -1    0    0  502  503 -0.00000000000E+00 -0.00000000000E+00 -0.26649998826E+02  0.26649998826E+02  0.00000000000E+00 0.  1.
         -6    2    1    2    0  503  0.61613691465E+02 -0.37442654875E+02  0.37582195722E+03  0.41423798074E+03  0.15859622246E+03 0.  0.
        -24    2    3    3    0    0  0.48135421497E+02  0.35025419752E+02  0.20457540347E+03  0.22774198139E+03  0.80445730476E+02 0.  0.
          6    2    1    2  501    0 -0.61613691465E+02  0.37442654875E+02  0.11652342807E+04  0.11801182548E+04  0.17236579443E+03 0.  0.
         24    2    5    5    0    0 -0.90122996339E+02 -0.19534804035E+02  0.81308036549E+03  0.82221647880E+03  0.80227764704E+02 0.  0.
          5    1    5    5  501    0  0.28509304874E+02  0.56977458910E+02  0.35215391521E+03  0.35790177603E+03  0.47000000000E+01 0. -1.
        -13    1    6    6    0    0 -0.68425464134E+02 -0.21804719989E+02  0.29278718707E+03  0.30146612890E+03  0.00000000000E+00 0.  1.
         14    1    6    6    0    0 -0.21697532205E+02  0.22699159547E+01  0.52029317842E+03  0.52075034991E+03  0.00000000000E+00 0. -1.
         -5    1    3    3    0  503  0.13478269968E+02 -0.72468074627E+02  0.17124655376E+03  0.18649599935E+03  0.47000000000E+01 0.  1.
         13    1    4    4    0    0  0.27417105432E+02  0.10866424810E+01  0.17756558079E+03  0.17967307518E+03  0.00000000000E+00 0. -1.
        -14    1    4    4    0    0  0.20718316065E+02  0.33938777271E+02  0.27009822673E+02  0.48068906208E+02  0.00000000000E+00 0.  1.
<mgrwt>
<rscale>  2 0.18359853E+03</rscale>
<asrwt>0</asrwt>
<pdfrwt beam="1">  1       21 0.24118550E+00 0.18683727E+03</pdfrwt>
<pdfrwt beam="2">  1       21 0.41000010E-02 0.18683727E+03</pdfrwt>
<totfact> 0.28316859E+04</totfact>
</mgrwt>
</event>
<event>
12    1  0.1071811E-001  0.3705482E+03  0.7546771E-02  0.1054611E+00
         21   -1    0    0  503  502  0.00000000000E+00  0.00000000000E+00  0.20528366312E+03  0.20528366312E+03  0.00000000000E+00 0.  1.
         21   -1    0    0  501  503 -0.00000000000E+00 -0.00000000000E+00 -0.75553157851E+03  0.75553157851E+03  0.00000000000E+00 0.  1.
          6    2    1    2  501    0 -0.26881609480E+03 -0.18725012152E+03 -0.43964221448E+03  0.57411178021E+03  0.17027729909E+03 0.  0.
         24    2    3    3    0    0 -0.26993790309E+03 -0.18911150782E+03 -0.36191775594E+03  0.49621502374E+03  0.81334210539E+02 0.  0.
         -6    2    1    2    0  502  0.26881609480E+03  0.18725012152E+03 -0.11060570092E+03  0.38670346143E+03  0.17315093177E+03 0.  0.
        -24    2    5    5    0    0  0.48686781785E+02  0.88266659009E+02 -0.39150031473E+02  0.13494436429E+03  0.80720819340E+02 0.  0.
          5    1    3    3  501    0  0.11218082959E+01  0.18613862968E+01 -0.77724458540E+02  0.77896756468E+02  0.47000000000E+01 0. -1.
        -11    1    4    4    0    0 -0.14464546259E+03 -0.14225565473E+03 -0.24880908820E+03  0.32103729304E+03  0.00000000000E+00 0.  1.
         12    1    4    4    0    0 -0.12529244050E+03 -0.46855853090E+02 -0.11310866774E+03  0.17517773070E+03  0.00000000000E+00 0. -1.
         -5    1    5    5    0  502  0.22012931301E+03  0.98983462514E+02 -0.71455669442E+02  0.25175909714E+03  0.47000000000E+01 0.  1.
         13    1    6    6    0    0  0.35280635925E+02  0.95902667235E+02 -0.52190927499E+02  0.11474292034E+03  0.00000000000E+00 0. -1.
        -14    1    6    6    0    0  0.13406145860E+02 -0.76360082266E+01  0.13040896026E+02  0.20201443949E+02  0.00000000000E+00 0.  1.
<mgrwt>
<rscale>  2 0.37021420E+03</rscale>
<asrwt>0</asrwt>
<pdfrwt beam="1">  1       21 0.31582102E-01 0.37054817E+03</pdfrwt>
<pdfrwt beam="2">  1       21 0.11623563E+00 0.37054817E+03</pdfrwt>
<totfact> 0.49675535E+03</totfact>
</mgrwt>
</event>
<event>
12    1  0.1071811E-001  0.2186427E+03  0.7546771E-02  0.1134946E+00
         21   -1    0    0  501  502  0.00000000000E+00  0.00000000000E+00  0.84579678175E+02  0.84579678175E+02  0.00000000000E+00 0. -1.
         21   -1    0    0  502  503 -0.00000000000E+00 -0.00000000000E+00 -0.80058376019E+03  0.80058376019E+03  0.00000000000E+00 0. -1.
         -6    2    1    2    0  503 -0.57506893527E+02 -0.12111146490E+03 -0.59816560639E+03  0.63678767169E+03  0.17239900353E+03 0.  0.
        -24    2    3    3    0    0 -0.73471766850E+02 -0.14862539084E+02 -0.32878273850E+03  0.34673089978E+03  0.80655019296E+02 0.  0.
          6    2    1    2  501    0  0.57506893527E+02  0.12111146490E+03 -0.11783847563E+03  0.24837576668E+03  0.17271243557E+03 0.  0.
         24    2    5    5    0    0 -0.14082944053E+02  0.87057924663E+02 -0.11876524294E+03  0.16895475343E+03  0.81627900967E+02 0.  0.
          5    1    5    5  501    0  0.71589837580E+02  0.34053540234E+02  0.92676731412E+00  0.79421013245E+02  0.47000000000E+01 0. -1.
        -11    1    6    6    0    0 -0.21119148465E+02  0.16822721098E+02 -0.87830379472E+02  0.91886875750E+02  0.00000000000E+00 0.  1.
         12    1    6    6    0    0  0.70362044119E+01  0.70235203564E+02 -0.30934863469E+02  0.77067877680E+02  0.00000000000E+00 0. -1.
         -5    1    3    3    0  503  0.15964873323E+02 -0.10624892581E+03 -0.26938286789E+03  0.29005677191E+03  0.47000000000E+01 0.  1.
         13    1    4    4    0    0  0.55245684607E+01 -0.29068415033E+02 -0.78385559271E+02  0.83784184137E+02  0.00000000000E+00 0. -1.
        -14    1    4    4    0    0 -0.78996335311E+02  0.14205875950E+02 -0.25039717923E+03  0.26294671565E+03  0.00000000000E+00 0.  1.
<mgrwt>
<rscale>  2 0.21858076E+03</rscale>
<asrwt>0</asrwt>
<pdfrwt beam="1">  1       21 0.13012258E-01 0.21864267E+03</pdfrwt>
<pdfrwt beam="2">  1       21 0.12316673E+00 0.21864267E+03</pdfrwt>
<totfact> 0.24728632E+04</totfact>
</mgrwt>
</event>
<event>
12    1  0.1071811E-001  0.1787253E+03  0.7546771E-02  0.1169785E+00
         21   -1    0    0  501  502  0.00000000000E+00  0.00000000000E+00  0.20016091868E+03  0.20016091868E+03  0.00000000000E+00 0. -1.
         21   -1    0    0  502  503 -0.00000000000E+00 -0.00000000000E+00 -0.16939103067E+03  0.16939103067E+03  0.00000000000E+00 0. -1.
         -6    2    1    2    0  503  0.11435791099E+02  0.23572040756E+02  0.65669298426E+02  0.19040796040E+03  0.17679455932E+03 0.  0.
        -24    2    3    3    0    0  0.74928481552E+02  0.62507826007E+01  0.36726177208E+02  0.11835838031E+03  0.83705104188E+02 0.  0.
          6    2    1    2  501    0 -0.11435791099E+02 -0.23572040756E+02 -0.34899410421E+02  0.17914398895E+03  0.17374746475E+03 0.  0.
         24    2    5    5    0    0  0.58865621465E+02  0.47853126589E+01 -0.21988634861E+02  0.10210369932E+03  0.80334331043E+02 0.  0.
          5    1    5    5  501    0 -0.70301412564E+02 -0.28357353415E+02 -0.12910775560E+02  0.77040289634E+02  0.47000000000E+01 0. -1.
        -11    1    6    6    0    0 -0.82758749857E+01  0.17162701225E+02  0.15186819610E+02  0.24365711769E+02  0.00000000000E+00 0.  1.
         12    1    6    6    0    0  0.67141496451E+02 -0.12377388566E+02 -0.37175454471E+02  0.77737987551E+02  0.00000000000E+00 0. -1.
         -5    1    3    3    0  503 -0.63492690453E+02  0.17321258156E+02  0.28943121218E+02  0.72049580088E+02  0.47000000000E+01 0.  1.
         13    1    4    4    0    0  0.74853190006E+02  0.27536098464E+02  0.46894271610E+01  0.79895103102E+02  0.00000000000E+00 0. -1.
        -14    1    4    4    0    0  0.75291546294E-01 -0.21285315863E+02  0.32036750047E+02  0.38463277211E+02  0.00000000000E+00 0.  1.
<mgrwt>
<rscale>  2 0.17796709E+03</rscale>
<asrwt>0</asrwt>
<pdfrwt beam="1">  1       21 0.30793987E-01 0.17872530E+03</pdfrwt>
<pdfrwt beam="2">  1       21 0.26060159E-01 0.17872530E+03</pdfrwt>
<totfact> 0.14231626E+05</totfact>
</mgrwt>
</event>
<event>
12    1  0.1071811E-001  0.2026787E+03  0.7546771E-02  0.1151394E+00
         21   -1    0    0  503  502  0.00000000000E+00  0.00000000000E+00  0.16546221025E+03  0.16546221025E+03  0.00000000000E+00 0. -1.
         21   -1    0    0  501  503 -0.00000000000E+00 -0.00000000000E+00 -0.61107851966E+03  0.61107851966E+03  0.00000000000E+00 0.  1.
          6    2    1    2  501    0 -0.84323606764E+02 -0.64019878732E+02 -0.52675173717E+03  0.55822535895E+03  0.15145673717E+03 0.  0.
         24    2    3    3    0    0  0.13970760063E+02 -0.37199330333E+02 -0.19600945325E+03  0.21211313331E+03  0.70663309039E+02 0.  0.
         -6    2    1    2    0  502  0.84323606764E+02  0.64019878732E+02  0.81135427762E+02  0.21831537096E+03  0.17282831952E+03 0.  0.
        -24    2    5    5    0    0  0.53117643702E+02  0.33892830660E+02  0.12411835639E+03  0.15706936448E+03  0.72768199261E+02 0.  0.
          5    1    3    3  501    0 -0.98294366827E+02 -0.26820548399E+02 -0.33074228392E+03  0.34611222564E+03  0.47000000000E+01 0. -1.
        -13    1    4    4    0    0 -0.23450931473E+02 -0.36810258651E+02 -0.10577533577E+03  0.11442623382E+03  0.00000000000E+00 0.  1.
         14    1    4    4    0    0  0.37421691536E+02 -0.38907168208E+00 -0.90234117480E+02  0.97686899488E+02  0.00000000000E+00 0. -1.
         -5    1    5    5    0  502  0.31205963062E+02  0.30127048073E+02 -0.42982928623E+02  0.61246006476E+02  0.47000000000E+01 0.  1.
         13    1    6    6    0    0  0.43463386677E+02  0.16817512922E+02  0.19317513504E+02  0.50448598101E+02  0.00000000000E+00 0. -1.
        -14    1    6    6    0    0  0.96542570244E+01  0.17075317737E+02  0.10480084288E+03  0.10662076638E+03  0.00000000000E+00 0.  1.
<mgrwt>
<rscale>  2 0.19805096E+03</rscale>
<asrwt>0</asrwt>
<pdfrwt beam="1">  1       21 0.25455725E-01 0.20267867E+03</pdfrwt>
<pdfrwt beam="2">  1       21 0.94012079E-01 0.20267867E+03</pdfrwt>
<totfact> 0.13798574E+04</totfact>
</mgrwt>
</event>
<event>
12    1  0.1071811E-001  0.1816701E+03  0.7546771E-02  0.1166223E+00
         21   -1    0    0  503  502  0.00000000000E+00  0.00000000000E+00  0.19533107811E+04  0.19533107811E+04  0.00000000000E+00 0.  1.
         21   -1    0    0  501  503 -0.00000000000E+00 -0.00000000000E+00 -0.19505734374E+02  0.19505734374E+02  0.00000000000E+00 0.  1.
          6    2    1    2  501    0  0.43446682909E+02 -0.33994772229E+02  0.60567211524E+03  0.63233118790E+03  0.17309177109E+03 0.  0.
         24    2    3    3    0    0  0.79751647967E+02 -0.65581183844E+02  0.42774375110E+03  0.44795021098E+03  0.83865713375E+02 0.  0.
         -6    2    1    2    0  502 -0.43446682909E+02  0.33994772229E+02  0.13281329315E+04  0.13404853276E+04  0.17297563685E+03 0.  0.
        -24    2    5    5    0    0 -0.24543529511E+02  0.82917396148E+02  0.67730043239E+03  0.68752607599E+03  0.80489440514E+02 0.  0.
          5    1    3    3  501    0 -0.36304965058E+02  0.31586411614E+02  0.17792836414E+03  0.18438097692E+03  0.47000000000E+01 0. -1.
        -11    1    4    4    0    0  0.12964580499E+02 -0.40614581789E+02  0.61511417099E+02  0.74841693159E+02  0.00000000000E+00 0.  1.
         12    1    4    4    0    0  0.66787067468E+02 -0.24966602055E+02  0.36623233400E+03  0.37310851782E+03  0.00000000000E+00 0. -1.
         -5    1    5    5    0  502 -0.18903153398E+02 -0.48922623919E+02  0.65083249909E+03  0.65295925157E+03  0.47000000000E+01 0.  1.
         13    1    6    6    0    0  0.22853784944E+02  0.60157376612E+02  0.42079680939E+03  0.42568904172E+03  0.00000000000E+00 0. -1.
        -14    1    6    6    0    0 -0.47397314454E+02  0.22760019536E+02  0.25650362300E+03  0.26183703427E+03  0.00000000000E+00 0.  1.
<mgrwt>
<rscale>  2 0.18164242E+03</rscale>
<asrwt>0</asrwt>
<pdfrwt beam="1">  1       21 0.30050920E+00 0.18167009E+03</pdfrwt>
<pdfrwt beam="2">  1       21 0.30008837E-02 0.18167009E+03</pdfrwt>
<totfact> 0.21684619E+04</totfact>
</mgrwt>
</event>
<event>
12    1  0.1071811E-001  0.2718411E+03  0.7546771E-02  0.1100278E+00
         21   -1    0    0  501  502  0.00000000000E+00  0.00000000000E+00  0.43106544725E+03  0.43106544725E+03  0.00000000000E+00 0. -1.
         21   -1    0    0  502  503 -0.00000000000E+00 -0.00000000000E+00 -0.21725884762E+03  0.21725884762E+03  0.00000000000E+00 0. -1.
         -6    2    1    2    0  503 -0.18299767796E+03 -0.10230212457E+03 -0.42272216059E+02  0.27510824134E+03  0.17304256522E+03 0.  0.
        -24    2    3    3    0    0 -0.15060546593E+03 -0.36675748807E+02 -0.78637059014E+02  0.19325124165E+03  0.84469748616E+02 0.  0.
          6    2    1    2  501    0  0.18299767796E+03  0.10230212457E+03  0.25607881569E+03  0.37321605352E+03  0.17251083425E+03 0.  0.
         24    2    5    5    0    0  0.15317052723E+03  0.38681510909E+02  0.99817036621E+02  0.20181863522E+03  0.76222378772E+02 0.  0.
          5    1    5    5  501    0  0.29827150730E+02  0.63620613659E+02  0.15626177907E+03  0.17139741830E+03  0.47000000000E+01 0. -1.
        -11    1    6    6    0    0  0.74312408551E+02 -0.15778645655E+02  0.24160048530E+02  0.79718301966E+02  0.00000000000E+00 0.  1.
         12    1    6    6    0    0  0.78858118675E+02  0.54460156564E+02  0.75656988091E+02  0.12210033325E+03  0.00000000000E+00 0. -1.
         -5    1    3    3    0  503 -0.32392212026E+02 -0.65626375760E+02  0.36364842955E+02  0.81856999692E+02  0.47000000000E+01 0.  1.
         11    1    4    4    0    0 -0.15527018095E+03 -0.41784683661E+02 -0.57102324228E+02  0.17063254178E+03  0.00000000000E+00 0. -1.
        -12    1    4    4    0    0  0.46647150238E+01  0.51089348537E+01 -0.21534734786E+02  0.22618699872E+02  0.00000000000E+00 0.  1.
<mgrwt>
<rscale>  2 0.27175656E+03</rscale>
<asrwt>0</asrwt>
<pdfrwt beam="1">  1       21 0.66317761E-01 0.27184114E+03</pdfrwt>
<pdfrwt beam="2">  1       21 0.33424438E-01 0.27184114E+03</pdfrwt>
<totfact> 0.17232670E+04</totfact>
</mgrwt>
</event>
<event>
12    1  0.1071811E-001  0.1976507E+03  0.7546771E-02  0.1151841E+00
         21   -1    0    0  501  502  0.00000000000E+00  0.00000000000E+00  0.46321603985E+03  0.46321603985E+03  0.00000000000E+00 0. -1.
         21   -1    0    0  502  503 -0.00000000000E+00 -0.00000000000E+00 -0.89055219813E+02  0.89055219813E+02  0.00000000000E+00 0. -1.
         -6    2    1    2    0  503  0.35512296856E+02  0.87928582374E+02  0.25224658666E+03  0.32045925168E+03  0.17341635644E+03 0.  0.
        -24    2    3    3    0    0 -0.26716642224E+02  0.10360911257E+03  0.16754274551E+03  0.21408655504E+03  0.79459765248E+02 0.  0.
          6    2    1    2  501    0 -0.35512296856E+02 -0.87928582374E+02  0.12191423338E+03  0.23181200799E+03  0.17286170171E+03 0.  0.
         24    2    5    5    0    0  0.12187991588E+02 -0.51064267098E+02 -0.29735994983E+00  0.95459307967E+02  0.79726310221E+02 0.  0.
          5    1    5    5  501    0 -0.47700288444E+02 -0.36864315276E+02  0.12221159333E+03  0.13635270002E+03  0.47000000000E+01 0. -1.
        -13    1    6    6    0    0 -0.15092777139E+02 -0.62128649045E+02  0.90475953854E+01  0.64572594312E+02  0.00000000000E+00 0.  1.
         14    1    6    6    0    0  0.27280768727E+02  0.11064381947E+02 -0.93449553352E+01  0.30886713655E+02  0.00000000000E+00 0. -1.
         -5    1    3    3    0  503  0.62228939080E+02 -0.15680530199E+02  0.84703841146E+02  0.10637269664E+03  0.47000000000E+01 0.  1.
         13    1    4    4    0    0  0.33510276722E+01  0.10273696282E+03  0.12235581437E+03  0.15980318591E+03  0.00000000000E+00 0. -1.
        -14    1    4    4    0    0 -0.30067669896E+02  0.87214975738E+00  0.45186931141E+02  0.54283369130E+02  0.00000000000E+00 0.  1.
<mgrwt>
<rscale>  2 0.19752895E+03</rscale>
<asrwt>0</asrwt>
<pdfrwt beam="1">  1       21 0.71264004E-01 0.19765068E+03</pdfrwt>
<pdfrwt beam="2">  1       21 0.13700803E-01 0.19765068E+03</pdfrwt>
<totfact> 0.82174054E+04</totfact>
</mgrwt>
</event>
<event>
12    1  0.1071811E-001  0.2028168E+03  0.7546771E-02  0.1147670E+00
         21   -1    0    0  501  502  0.00000000000E+00  0.00000000000E+00  0.56314489304E+03  0.56314489304E+03  0.00000000000E+00 0. -1.
         21   -1    0    0  502  503 -0.00000000000E+00 -0.00000000000E+00 -0.85121314622E+02  0.85121314622E+02  0.00000000000E+00 0. -1.
         -6    2    1    2    0  503  0.10464279901E+03  0.70168434104E+01  0.11375383675E+03  0.23134041743E+03  0.17198576071E+03 0.  0.
        -24    2    3    3    0    0  0.24752551482E+02 -0.34925773991E+02  0.10593095348E+03  0.14064906003E+03  0.82026170764E+02 0.  0.
          6    2    1    2  501    0 -0.10464279901E+03 -0.70168434104E+01  0.36426974167E+03  0.41692579023E+03  0.17359527179E+03 0.  0.
         24    2    5    5    0    0 -0.99295283031E+02 -0.49913551204E+02  0.33036942358E+03  0.36178918684E+03  0.96935771788E+02 0.  0.
          5    1    5    5  501    0 -0.53475159755E+01  0.42896707794E+02  0.33900318085E+02  0.55136603386E+02  0.47000000000E+01 0. -1.
        -13    1    6    6    0    0 -0.32954119003E+01 -0.51021115124E+02  0.10339543134E+03  0.11534569411E+03  0.00000000000E+00 0.  1.
         14    1    6    6    0    0 -0.95999871131E+02  0.11075639200E+01  0.22697399225E+03  0.24644349274E+03  0.00000000000E+00 0. -1.
         -5    1    3    3    0  503  0.79890247524E+02  0.41942617402E+02  0.78228832735E+01  0.90691357398E+02  0.47000000000E+01 0.  1.
         11    1    4    4    0    0  0.37592379906E+02  0.12672752640E+02  0.28467093282E+02  0.48827872024E+02  0.00000000000E+00 0. -1.
        -12    1    4    4    0    0 -0.12839828424E+02 -0.47598526631E+02  0.77463860194E+02  0.91821188010E+02  0.00000000000E+00 0.  1.
<mgrwt>
<rscale>  2 0.20247199E+03</rscale>
<asrwt>0</asrwt>
<pdfrwt beam="1">  1       21 0.86637674E-01 0.20281684E+03</pdfrwt>
<pdfrwt beam="2">  1       21 0.13095587E-01 0.20281684E+03</pdfrwt>
<totfact> 0.57252818E+04</totfact>
</mgrwt>
</event>
<event>
12    1  0.1071811E-001  0.2262671E+03  0.7546771E-02  0.1129325E+00
         21   -1    0    0  501  502  0.00000000000E+00  0.00000000000E+00  0.98655589142E+02  0.98655589142E+02  0.00000000000E+00 0.  1.
         21   -1    0    0  502  503 -0.00000000000E+00 -0.00000000000E+00 -0.20690160701E+04  0.20690160701E+04  0.00000000000E+00 0. -1.
         -6    2    1    2    0  503 -0.57754005718E+02 -0.13311316776E+03 -0.19235067492E+04  0.19367692229E+04  0.17361499996E+03 0.  0.
        -24    2    3    3    0    0  0.26107920741E+02 -0.89948085117E+02 -0.79017728924E+03  0.79951208323E+03  0.77891856187E+02 0.  0.
          6    2    1    2  501    0  0.57754005718E+02  0.13311316776E+03 -0.46853731841E+02  0.23090243636E+03  0.17339556603E+03 0.  0.
         24    2    5    5    0    0 -0.22822853135E+02  0.55289176740E+02  0.17964276734E+02  0.10139310080E+03  0.79875340132E+02 0.  0.
          5    1    5    5  501    0  0.80576858853E+02  0.77823991021E+02 -0.64818008574E+02  0.12950933556E+03  0.47000000000E+01 0. -1.
        -11    1    6    6    0    0  0.30433864032E+01  0.62717753676E+01  0.40842578061E+02  0.41433242086E+02  0.00000000000E+00 0.  1.
         12    1    6    6    0    0 -0.25866239538E+02  0.49017401373E+02 -0.22878301328E+02  0.59959858712E+02  0.00000000000E+00 0. -1.
         -5    1    3    3    0  503 -0.83861926459E+02 -0.43165082644E+02 -0.11333294599E+04  0.11372571397E+04  0.47000000000E+01 0.  1.
         13    1    4    4    0    0  0.67869563639E+01 -0.98754491535E+02 -0.69362048364E+03  0.70064819111E+03  0.00000000000E+00 0. -1.
        -14    1    4    4    0    0  0.19320964377E+02  0.88064064180E+01 -0.96556805600E+02  0.98863892125E+02  0.00000000000E+00 0.  1.
<mgrwt>
<rscale>  2 0.22622502E+03</rscale>
<asrwt>0</asrwt>
<pdfrwt beam="1">  1       21 0.15177783E-01 0.22626712E+03</pdfrwt>
<pdfrwt beam="2">  1       21 0.31831017E+00 0.22626712E+03</pdfrwt>
<totfact> 0.98385447E+02</totfact>
</mgrwt>
</event>
<event>
12    1  0.1071811E-001  0.2418515E+03  0.7546771E-02  0.1118873E+00
         21   -1    0    0  503  502  0.00000000000E+00  0.00000000000E+00  0.31649401076E+03  0.31649401076E+03  0.00000000000E+00 0.  1.
         21   -1    0    0  501  503 -0.00000000000E+00 -0.00000000000E+00 -0.20757321310E+03  0.20757321310E+03  0.00000000000E+00 0.  1.
          6    2    1    2  501    0  0.13205214902E+03  0.10504538382E+03 -0.35151794464E+02  0.24255515858E+03  0.17066063863E+03 0.  0.
         24    2    3    3    0    0  0.69062581792E+02  0.47406394461E+02 -0.84984695834E+02  0.14358371455E+03  0.79855357486E+02 0.  0.
         -6    2    1    2    0  502 -0.13205214902E+03 -0.10504538382E+03  0.14407259213E+03  0.28151206528E+03  0.17326231089E+03 0.  0.
        -24    2    5    5    0    0 -0.61177135288E+02 -0.18878344265E+01  0.18000337973E+02  0.10380148362E+03  0.81881194625E+02 0.  0.
          5    1    3    3  501    0  0.62989567224E+02  0.57638989355E+02  0.49832901370E+02  0.98971444023E+02  0.47000000000E+01 0. -1.
        -13    1    4    4    0    0  0.64867847393E+02  0.66225247812E+02 -0.82587808333E+02  0.12415460990E+03  0.00000000000E+00 0.  1.
         14    1    4    4    0    0  0.41947343991E+01 -0.18818853350E+02 -0.23968875016E+01  0.19429104657E+02  0.00000000000E+00 0. -1.
         -5    1    5    5    0  502 -0.70875013729E+02 -0.10315754939E+03  0.12607225416E+03  0.17771058167E+03  0.47000000000E+01 0.  1.
         11    1    6    6    0    0 -0.12921919426E+02  0.29260256547E+02  0.31401322531E+02  0.44823896211E+02  0.00000000000E+00 0. -1.
        -12    1    6    6    0    0 -0.48255215862E+02 -0.31148090973E+02 -0.13400984558E+02  0.58977587406E+02  0.00000000000E+00 0.  1.
<mgrwt>
<rscale>  2 0.24138588E+03</rscale>
<asrwt>0</asrwt>
<pdfrwt beam="1">  1       21 0.48691386E-01 0.24185146E+03</pdfrwt>
<pdfrwt beam="2">  1       21 0.31934341E-01 0.24185146E+03</pdfrwt>
<totfact> 0.37075582E+04</totfact>
</mgrwt>
</event>
<event>
12    1  0.1071811E-001  0.1817374E+03  0.7546771E-02  0.1166376E+00
         21   -1    0    0  501  502  0.00000000000E+00  0.00000000000E+00  0.85435074727E+02  0.85435074727E+02  0.00000000000E+00 0.  1.
         21   -1    0    0  502  503 -0.00000000000E+00 -0.00000000000E+00 -0.39006922134E+03  0.39006922134E+03  0.00000000000E+00 0. -1.
         -6    2    1    2    0  503  0.55563264049E+02  0.24201425894E+01 -0.18133740390E+03  0.25673283041E+03  0.17301837693E+03 0.  0.
        -24    2    3    3    0    0  0.49522899393E+02  0.60768028785E+02 -0.15510688909E+03  0.19230386382E+03  0.82324711427E+02 0.  0.
          6    2    1    2  501    0 -0.55563264049E+02 -0.24201425894E+01 -0.12329674271E+03  0.21877146565E+03  0.17194689302E+03 0.  0.
         24    2    5    5    0    0 -0.72312492991E+02  0.16780283851E+02 -0.14739101874E+03  0.18339043708E+03  0.79982907161E+02 0.  0.
          5    1    5    5  501    0  0.16749228942E+02 -0.19200426441E+02  0.24094276027E+02  0.35381028574E+02  0.47000000000E+01 0. -1.
        -11    1    6    6    0    0 -0.10859275054E+02 -0.24989335483E+01  0.89566072298E+01  0.14296479869E+02  0.00000000000E+00 0.  1.
         12    1    6    6    0    0 -0.61453217937E+02  0.19279217400E+02 -0.15634762597E+03  0.16909395721E+03  0.00000000000E+00 0. -1.
         -5    1    3    3    0  503  0.60403646560E+01 -0.58347886196E+02 -0.26230514811E+02  0.64428966591E+02  0.47000000000E+01 0.  1.
         11    1    4    4    0    0  0.48871538917E+01  0.65497836445E+02 -0.69383650537E+02  0.95540262790E+02  0.00000000000E+00 0. -1.
        -12    1    4    4    0    0  0.44635745502E+02 -0.47298076597E+01 -0.85723238552E+02  0.96763601033E+02  0.00000000000E+00 0.  1.
<mgrwt>
<rscale>  2 0.18148194E+03</rscale>
<asrwt>0</asrwt>
<pdfrwt beam="1">  1       21 0.13143857E-01 0.18173743E+03</pdfrwt>
<pdfrwt beam="2">  1       21 0.60010650E-01 0.18173743E+03</pdfrwt>
<totfact> 0.12957009E+05</totfact>
</mgrwt>
</event>
<event>
12    1  0.1071811E-001  0.1822850E+03  0.7546771E-02  0.1165980E+00
         21   -1    0    0  503  502  0.00000000000E+00  0.00000000000E+00  0.62613753783E+03  0.62613753783E+03  0.00000000000E+00 0.  1.
         21   -1    0    0  501  503 -0.00000000000E+00 -0.00000000000E+00 -0.80079562194E+02  0.80079562194E+02  0.00000000000E+00 0.  1.
          6    2    1    2  501    0 -0.15020082913E+02  0.50426169944E+02  0.65485448243E+02  0.19223481544E+03  0.17290887436E+03 0.  0.
         24    2    3    3    0    0 -0.35690090837E+02  0.78212043590E+02  0.37781320325E+01  0.12131805526E+03  0.85515436635E+02 0.  0.
         -6    2    1    2    0  502  0.15020082913E+02 -0.50426169944E+02  0.48057252739E+03  0.51398228458E+03  0.17452631111E+03 0.  0.
        -24    2    5    5    0    0  0.49139152629E+02 -0.57287287614E+02  0.18157914375E+03  0.21293358533E+03  0.81689881109E+02 0.  0.
          5    1    3    3  501    0  0.20670007924E+02 -0.27785873646E+02  0.61707316210E+02  0.70916760189E+02  0.47000000000E+01 0. -1.
        -13    1    4    4    0    0 -0.22256405455E+02 -0.10462284051E+02 -0.16180044172E+02  0.29438084190E+02  0.00000000000E+00 0.  1.
         14    1    4    4    0    0 -0.13433685381E+02  0.88674327641E+02  0.19958176205E+02  0.91879971065E+02  0.00000000000E+00 0. -1.
         -5    1    5    5    0  502 -0.34119069716E+02  0.68611176699E+01  0.29899338364E+03  0.30104869925E+03  0.47000000000E+01 0.  1.
         11    1    6    6    0    0  0.30428118329E+01  0.22388404302E+01 -0.80571955021E+01  0.88988487840E+01  0.00000000000E+00 0. -1.
        -12    1    6    6    0    0  0.46096340796E+02 -0.59526128044E+02  0.18963633925E+03  0.20403473655E+03  0.00000000000E+00 0.  1.
<mgrwt>
<rscale>  2 0.18189680E+03</rscale>
<asrwt>0</asrwt>
<pdfrwt beam="1">  1       21 0.96328849E-01 0.18228504E+03</pdfrwt>
<pdfrwt beam="2">  1       21 0.12319933E-01 0.18228504E+03</pdfrwt>
<totfact> 0.50453540E+04</totfact>
</mgrwt>
</event>
<event>
12    1  0.1071811E-001  0.1872018E+03  0.7546771E-02  0.1162046E+00
         21   -1    0    0  501  502  0.00000000000E+00  0.00000000000E+00  0.33848851068E+03  0.33848851068E+03  0.00000000000E+00 0. -1.
         21   -1    0    0  502  503 -0.00000000000E+00 -0.00000000000E+00 -0.10123515859E+03  0.10123515859E+03  0.00000000000E+00 0. -1.
         -6    2    1    2    0  503 -0.61063928867E+02  0.20134541845E+02  0.10876975275E+03  0.21267182012E+03  0.17106794199E+03 0.  0.
        -24    2    3    3    0    0 -0.87273154144E+02 -0.29851664827E+02  0.62422399799E+02  0.13948909352E+03  0.83981699724E+02 0.  0.
          6    2    1    2  501    0  0.61063928867E+02 -0.20134541845E+02  0.12848359934E+03  0.22705184914E+03  0.17581326376E+03 0.  0.
         24    2    5    5    0    0  0.78116757907E+02  0.40867939875E+02  0.10720032560E+03  0.16006551102E+03  0.79728549671E+02 0.  0.
          5    1    5    5  501    0 -0.17052829040E+02 -0.61002481720E+02  0.21283273739E+02  0.66986338125E+02  0.47000000000E+01 0. -1.
        -11    1    6    6    0    0 -0.16322069854E+02  0.11344112661E+02  0.16361688152E+02  0.25744974181E+02  0.00000000000E+00 0.  1.
         12    1    6    6    0    0  0.94438827761E+02  0.29523827214E+02  0.90838637449E+02  0.13432053684E+03  0.00000000000E+00 0. -1.
         -5    1    3    3    0  503  0.26209225277E+02  0.49986206672E+02  0.46347352947E+02  0.73182726598E+02  0.47000000000E+01 0.  1.
         13    1    4    4    0    0 -0.40068813341E+02 -0.12256578071E-01 -0.16058780215E+02  0.43167051958E+02  0.00000000000E+00 0. -1.
        -14    1    4    4    0    0 -0.47204340803E+02 -0.29839408249E+02  0.78481180014E+02  0.96322041567E+02  0.00000000000E+00 0.  1.
<mgrwt>
<rscale>  2 0.18607938E+03</rscale>
<asrwt>0</asrwt>
<pdfrwt beam="1">  1       21 0.52075155E-01 0.18720178E+03</pdfrwt>
<pdfrwt beam="2">  1       21 0.15574640E-01 0.18720178E+03</pdfrwt>
<totfact> 0.12843480E+05</totfact>
</mgrwt>
</event>
<event>
12    1  0.1071811E-001  0.1763943E+03  0.7546771E-02  0.1171957E+00
         21   -1    0    0  503  502  0.00000000000E+00  0.00000000000E+00  0.69781741391E+03  0.69781741391E+03  0.00000000000E+00 0.  1.
         21   -1    0    0  501  503 -0.00000000000E+00 -0.00000000000E+00 -0.10670049009E+03  0.10670049009E+03  0.00000000000E+00 0.  1.
          6    2    1    2  501    0 -0.84053949629E+01  0.30322668666E+02 -0.13736744704E+02  0.17446797001E+03  0.17105630507E+03 0.  0.
         24    2    3    3    0    0 -0.32832189167E+02 -0.55152173178E+01  0.46643943763E+02  0.99976763236E+02  0.81922679582E+02 0.  0.
         -6    2    1    2    0  502  0.84053949629E+01 -0.30322668666E+02  0.60485366852E+03  0.63004993400E+03  0.17356510047E+03 0.  0.
        -24    2    5    5    0    0 -0.11808222566E+02 -0.46682553256E+02  0.95058042654E+02  0.11956985964E+03  0.54242280212E+02 0.  0.
          5    1    3    3  501    0  0.24426794204E+02  0.35837885983E+02 -0.60380688467E+02  0.74491206774E+02  0.47000000000E+01 0. -1.
        -13    1    4    4    0    0 -0.22230057153E+02 -0.73460897182E+01 -0.21019283352E+02  0.31463482767E+02  0.00000000000E+00 0.  1.
         14    1    4    4    0    0 -0.10602132014E+02  0.18308724005E+01  0.67663227116E+02  0.68513280469E+02  0.00000000000E+00 0. -1.
         -5    1    5    5    0  502  0.20213617529E+02  0.16359884590E+02  0.50979562587E+03  0.51048007435E+03  0.47000000000E+01 0.  1.
         13    1    6    6    0    0 -0.42121399918E+01 -0.58202376438E+02  0.71758054538E+02  0.92490416463E+02  0.00000000000E+00 0. -1.
        -14    1    6    6    0    0 -0.75960825741E+01  0.11519823182E+02  0.23299988116E+02  0.27079443178E+02  0.00000000000E+00 0.  1.
<mgrwt>
<rscale>  2 0.17577407E+03</rscale>
<asrwt>0</asrwt>
<pdfrwt beam="1">  1       21 0.10735652E+00 0.17639433E+03</pdfrwt>
<pdfrwt beam="2">  1       21 0.16415460E-01 0.17639433E+03</pdfrwt>
<totfact> 0.23272227E+04</totfact>
</mgrwt>
</event>
<event>
12    1  0.1071811E-001  0.2024505E+03  0.7546771E-02  0.1148567E+00
         21   -1    0    0  503  502  0.00000000000E+00  0.00000000000E+00  0.39977222552E+02  0.39977222552E+02  0.00000000000E+00 0.  1.
         21   -1    0    0  501  503 -0.00000000000E+00 -0.00000000000E+00 -0.16320571093E+04  0.16320571093E+04  0.00000000000E+00 0.  1.
          6    2    1    2  501    0  0.83068071258E+02 -0.51629949824E+02 -0.13196925038E+04  0.13351308899E+04  0.17725753151E+03 0.  0.
         24    2    3    3    0    0  0.10305210636E+03 -0.82301720403E+02 -0.84577845377E+03  0.85978182242E+03  0.80562270891E+02 0.  0.
         -6    2    1    2    0  502 -0.83068071258E+02  0.51629949824E+02 -0.27238738290E+03  0.33690344188E+03  0.17246184100E+03 0.  0.
        -24    2    5    5    0    0  0.81402125662E+01  0.47358409038E+02 -0.73225006054E+02  0.11775751002E+03  0.78713707107E+02 0.  0.
          5    1    3    3  501    0 -0.19984035098E+02  0.30671770579E+02 -0.47391405003E+03  0.47534906751E+03  0.47000000000E+01 0. -1.
        -13    1    4    4    0    0  0.11272911636E+03 -0.79822366242E+02 -0.82752328321E+03  0.83897213784E+03  0.00000000000E+00 0.  1.
         14    1    4    4    0    0 -0.96770100084E+01 -0.24793541608E+01 -0.18255170568E+02  0.20809684578E+02  0.00000000000E+00 0. -1.
         -5    1    5    5    0  502 -0.91208283824E+02  0.42715407860E+01 -0.19916237685E+03  0.21914593186E+03  0.47000000000E+01 0.  1.
         11    1    6    6    0    0  0.22606338286E+02 -0.14381887734E+02 -0.11154261774E+02  0.29022453053E+02  0.00000000000E+00 0. -1.
        -12    1    6    6    0    0 -0.14466125720E+02  0.61740296772E+02 -0.62070744280E+02  0.88735056963E+02  0.00000000000E+00 0.  1.
<mgrwt>
<rscale>  2 0.20139590E+03</rscale>
<asrwt>0</asrwt>
<pdfrwt beam="1">  1       21 0.61503415E-02 0.20245046E+03</pdfrwt>
<pdfrwt beam="2">  1       21 0.25108573E+00 0.20245046E+03</pdfrwt>
<totfact> 0.12272301E+04</totfact>
</mgrwt>
</event>
<event>
12    1  0.1071811E-001  0.1807234E+03  0.7546771E-02  0.1168590E+00
         21   -1    0    0  501  502  0.00000000000E+00  0.00000000000E+00  0.53759022805E+03  0.53759022805E+03  0.00000000000E+00 0.  1.
         21   -1    0    0  502  503 -0.00000000000E+00 -0.00000000000E+00 -0.64776877024E+02  0.64776877024E+02  0.00000000000E+00 0.  1.
         -6    2    1    2    0  503  0.14767858678E+02 -0.57139183010E+02  0.14808420749E+03  0.23364479950E+03  0.17081564315E+03 0.  0.
        -24    2    3    3    0    0 -0.12257848128E+02 -0.74293496590E+02  0.16364166986E+03  0.19774516248E+03  0.81576802430E+02 0.  0.
          6    2    1    2  501    0 -0.14767858678E+02  0.57139183010E+02  0.32472914354E+03  0.36872230557E+03  0.16439022500E+03 0.  0.
         24    2    5    5    0    0 -0.42987344787E+02  0.49233052805E+02  0.85452757697E+02  0.12761211268E+03  0.68635793909E+02 0.  0.
          5    1    5    5  501    0  0.28219486109E+02  0.79061302055E+01  0.23927638584E+03  0.24111019288E+03  0.47000000000E+01 0. -1.
        -11    1    6    6    0    0 -0.56895072701E+02  0.37542595546E+02  0.85622723982E+02  0.10944289214E+03  0.00000000000E+00 0.  1.
         12    1    6    6    0    0  0.13907727914E+02  0.11690457259E+02 -0.16996628504E+00  0.18169220544E+02  0.00000000000E+00 0. -1.
         -5    1    3    3    0  503  0.27025706806E+02  0.17154313579E+02 -0.15557462373E+02  0.35899637021E+02  0.47000000000E+01 0.  1.
         13    1    4    4    0    0 -0.42421339563E+02 -0.65602381911E+02  0.13050118023E+03  0.15209799671E+03  0.00000000000E+00 0. -1.
        -14    1    4    4    0    0  0.30163491435E+02 -0.86911146785E+01  0.33140489633E+02  0.45647165772E+02  0.00000000000E+00 0.  1.
<mgrwt>
<rscale>  2 0.17918886E+03</rscale>
<asrwt>0</asrwt>
<pdfrwt beam="1">  1       21 0.82706186E-01 0.18072343E+03</pdfrwt>
<pdfrwt beam="2">  1       21 0.99656737E-02 0.18072343E+03</pdfrwt>
<totfact> 0.10461021E+05</totfact>
</mgrwt>
</event>
<event>
12    1  0.1071811E-001  0.3350185E+03  0.7546771E-02  0.1069107E+00
         21   -1    0    0  501  502  0.00000000000E+00  0.00000000000E+00  0.23110683592E+03  0.23110683592E+03  0.00000000000E+00 0. -1.
         21   -1    0    0  502  503 -0.00000000000E+00 -0.00000000000E+00 -0.56702992289E+03  0.56702992289E+03  0.00000000000E+00 0.  1.
         -6    2    1    2    0  503  0.88440327465E+02  0.27198390444E+03 -0.32088782264E+03  0.46278109390E+03  0.17146547861E+03 0.  0.
        -24    2    3    3    0    0  0.11586262512E+03  0.14513983077E+03 -0.17296387567E+03  0.26594363425E+03  0.79497144195E+02 0.  0.
          6    2    1    2  501    0 -0.88440327465E+02 -0.27198390444E+03 -0.15035264330E+02  0.33535566490E+03  0.17447185163E+03 0.  0.
         24    2    5    5    0    0 -0.11394616493E+03 -0.25048964441E+03 -0.44780730872E+02  0.29041755481E+03  0.81291154659E+02 0.  0.
          5    1    5    5  501    0  0.25505837463E+02 -0.21494260038E+02  0.29745466542E+02  0.44938110096E+02  0.47000000000E+01 0. -1.
        -13    1    6    6    0    0 -0.93970563843E+02 -0.13649415309E+03 -0.54072256835E+02  0.17431273521E+03  0.00000000000E+00 0.  1.
         14    1    6    6    0    0 -0.19975601086E+02 -0.11399549132E+03  0.92915259630E+01  0.11610481960E+03  0.00000000000E+00 0. -1.
         -5    1    3    3    0  503 -0.27422297657E+02  0.12684407368E+03 -0.14792394697E+03  0.19683745965E+03  0.47000000000E+01 0.  1.
         13    1    4    4    0    0 -0.55994925277E+00  0.34547515420E+02 -0.74692432251E+01  0.35350162082E+02  0.00000000000E+00 0. -1.
        -14    1    4    4    0    0  0.11642257437E+03  0.11059231535E+03 -0.16549463244E+03  0.23059347216E+03  0.00000000000E+00 0.  1.
<mgrwt>
<rscale>  2 0.33462882E+03</rscale>
<asrwt>0</asrwt>
<pdfrwt beam="1">  1       21 0.35554898E-01 0.33501845E+03</pdfrwt>
<pdfrwt beam="2">  1       21 0.87235371E-01 0.33501845E+03</pdfrwt>
<totfact> 0.79565093E+03</totfact>
</mgrwt>
</event>
<event>
12    1  0.1071811E-001  0.3016161E+03  0.7546771E-02  0.1084537E+00
         21   -1    0    0  503  502  0.00000000000E+00  0.00000000000E+00  0.33221152644E+03  0.33221152644E+03  0.00000000000E+00 0.  1.
         21   -1    0    0  501  503 -0.00000000000E+00 -0.00000000000E+00 -0.30820878984E+03  0.30820878984E+03  0.00000000000E+00 0. -1.
          6    2    1    2  501    0  0.85482410253E+02 -0.23091940896E+03 -0.96090298403E+02  0.31577491145E+03  0.17276988556E+03 0.  0.
         24    2    3    3    0    0  0.37358298416E+02 -0.78311922959E+02 -0.10121750537E+03  0.15560826956E+03  0.80253039961E+02 0.  0.
         -6    2    1    2    0  502 -0.85482410253E+02  0.23091940896E+03  0.12009303501E+03  0.32464540483E+03  0.17418750221E+03 0.  0.
        -24    2    5    5    0    0  0.16649606656E+02  0.56217760390E+02  0.32655180229E+02  0.10414805034E+03  0.79641757946E+02 0.  0.
          5    1    3    3  501    0  0.48124111838E+02 -0.15260748600E+03  0.51272069678E+01  0.16016664189E+03  0.47000000000E+01 0. -1.
        -11    1    4    4    0    0  0.11911687443E+02 -0.15433662719E+02  0.12526851879E+02  0.23173438689E+02  0.00000000000E+00 0.  1.
         12    1    4    4    0    0  0.25446610972E+02 -0.62878260239E+02 -0.11374435725E+03  0.13243483087E+03  0.00000000000E+00 0. -1.
         -5    1    5    5    0  502 -0.10213201691E+03  0.17470164857E+03  0.87437854782E+02  0.22049735449E+03  0.47000000000E+01 0.  1.
         11    1    6    6    0    0 -0.20581515377E+02 -0.73572633238E+01 -0.34072750174E+01  0.22120976965E+02  0.00000000000E+00 0. -1.
        -12    1    6    6    0    0  0.37231122033E+02  0.63575023714E+02  0.36062455246E+02  0.82027073375E+02  0.00000000000E+00 0.  1.
<mgrwt>
<rscale>  2 0.30141183E+03</rscale>
<asrwt>0</asrwt>
<pdfrwt beam="1">  1       21 0.51109466E-01 0.30161615E+03</pdfrwt>
<pdfrwt beam="2">  1       21 0.47416737E-01 0.30161615E+03</pdfrwt>
<totfact> 0.14627998E+04</totfact>
</mgrwt>
</event>
<event>
12    1  0.1071811E-001  0.4397387E+03  0.7546771E-02  0.1030883E+00
         21   -1    0    0  501  502  0.00000000000E+00  0.00000000000E+00  0.26667849871E+03  0.26667849871E+03  0.00000000000E+00 0.  1.
         21   -1    0    0  502  503 -0.00000000000E+00 -0.00000000000E+00 -0.15570484943E+04  0.15570484943E+04  0.00000000000E+00 0. -1.
         -6    2    1    2    0  503  0.38272737609E+03  0.12951597440E+03 -0.13119552886E+04  0.13834588663E+04  0.17168903075E+03 0.  0.
        -24    2    3    3    0    0  0.24274707697E+03  0.13981267162E+03 -0.99113215680E+03  0.10332445347E+04  0.82326118259E+02 0.  0.
          6    2    1    2  501    0 -0.38272737609E+03 -0.12951597440E+03  0.21585292995E+02  0.44026812678E+03  0.17353808386E+03 0.  0.
         24    2    5    5    0    0 -0.24057191993E+03 -0.31761483099E+02  0.62478775686E+02  0.26290273779E+03  0.79565140961E+02 0.  0.
          5    1    5    5  501    0 -0.14215545616E+03 -0.97754491305E+02 -0.40893482692E+02  0.17736538899E+03  0.47000000000E+01 0. -1.
        -11    1    6    6    0    0 -0.17153546735E+03 -0.58327691753E+02  0.39411226096E+02  0.18541785493E+03  0.00000000000E+00 0.  1.
         12    1    6    6    0    0 -0.69036452582E+02  0.26566208654E+02  0.23067549591E+02  0.77484882858E+02  0.00000000000E+00 0. -1.
         -5    1    3    3    0  503  0.13998029912E+03 -0.10296697219E+02 -0.32082313183E+03  0.35021433156E+03  0.47000000000E+01 0.  1.
         13    1    4    4    0    0  0.14352728280E+03  0.11372876392E+03 -0.52701517573E+03  0.55792410604E+03  0.00000000000E+00 0. -1.
        -14    1    4    4    0    0  0.99219794175E+02  0.26083907701E+02 -0.46411698108E+03  0.47532042868E+03  0.00000000000E+00 0.  1.
<mgrwt>
<rscale>  2 0.43955695E+03</rscale>
<asrwt>0</asrwt>
<pdfrwt beam="1">  1       21 0.41027461E-01 0.43973867E+03</pdfrwt>
<pdfrwt beam="2">  1       21 0.23954592E+00 0.43973867E+03</pdfrwt>
<totfact> 0.35646126E+02</totfact>
</mgrwt>
</event>
<event>
12    1  0.1071811E-001  0.2019653E+03  0.7546771E-02  0.1148210E+00
         21   -1    0    0  501  502  0.00000000000E+00  0.00000000000E+00  0.18596831445E+03  0.18596831445E+03  0.00000000000E+00 0.  1.
         21   -1    0    0  502  503 -0.00000000000E+00 -0.00000000000E+00 -0.28259977397E+03  0.28259977397E+03  0.00000000000E+00 0. -1.
         -6    2    1    2    0  503  0.88806019076E+02 -0.52880884073E+02 -0.15965122698E+03  0.25699902064E+03  0.17284989270E+03 0.  0.
        -24    2    3    3    0    0 -0.13460778892E+02 -0.25841598990E+02 -0.11307636485E+03  0.14132305646E+03  0.79605032469E+02 0.  0.
          6    2    1    2  501    0 -0.88806019076E+02  0.52880884073E+02  0.63019767469E+02  0.21156906779E+03  0.17351392575E+03 0.  0.
         24    2    5    5    0    0 -0.20233814009E+02  0.79413915783E+02  0.74919817151E+02  0.13693763834E+03  0.80143374907E+02 0.  0.
          5    1    5    5  501    0 -0.68572205067E+02 -0.26533031711E+02 -0.11900049681E+02  0.74631429451E+02  0.47000000000E+01 0. -1.
        -11    1    6    6    0    0  0.25563905906E+02  0.58906956265E+02  0.37725131146E+02  0.74476360690E+02  0.00000000000E+00 0.  1.
         12    1    6    6    0    0 -0.45797719915E+02  0.20506959518E+02  0.37194686005E+02  0.62461277646E+02  0.00000000000E+00 0. -1.
         -5    1    3    3    0  503  0.10226679797E+03 -0.27039285083E+02 -0.46574862135E+02  0.11567596417E+03  0.47000000000E+01 0.  1.
         13    1    4    4    0    0  0.19236716940E+02 -0.37484714706E+01 -0.96585971550E+02  0.98554311003E+02  0.00000000000E+00 0. -1.
        -14    1    4    4    0    0 -0.32697495832E+02 -0.22093127519E+02 -0.16490393299E+02  0.42768745462E+02  0.00000000000E+00 0.  1.
<mgrwt>
<rscale>  2 0.20182259E+03</rscale>
<asrwt>0</asrwt>
<pdfrwt beam="1">  1       21 0.28610510E-01 0.20196529E+03</pdfrwt>
<pdfrwt beam="2">  1       21 0.43476888E-01 0.20196529E+03</pdfrwt>
<totfact> 0.59160934E+04</totfact>
</mgrwt>
</event>
<event>
12    1  0.1071811E-001  0.1916290E+03  0.7546771E-02  0.1157055E+00
         21   -1    0    0  501  502  0.00000000000E+00  0.00000000000E+00  0.39074503291E+03  0.39074503291E+03  0.00000000000E+00 0.  1.
         21   -1    0    0  502  503 -0.00000000000E+00 -0.00000000000E+00 -0.96754702467E+02  0.96754702467E+02  0.00000000000E+00 0.  1.
         -6    2    1    2    0  503 -0.42510145984E+02 -0.69980767169E+02  0.18908233003E+03  0.26903380434E+03  0.17298161771E+03 0.  0.
        -24    2    3    3    0    0 -0.30938587364E+02 -0.10291619608E+01  0.33100812202E+02  0.98035123841E+02  0.86930813729E+02 0.  0.
          6    2    1    2  501    0  0.42510145984E+02  0.69980767169E+02  0.10490800041E+03  0.21846593103E+03  0.17325488214E+03 0.  0.
         24    2    5    5    0    0  0.23099919892E+02  0.96329206597E+02  0.21363366790E+02  0.12861720848E+03  0.79202717973E+02 0.  0.
          5    1    5    5  501    0  0.19410226092E+02 -0.26348439428E+02  0.83544633621E+02  0.89848722551E+02  0.47000000000E+01 0. -1.
        -13    1    6    6    0    0  0.46833975164E+02  0.40825208060E+02  0.27493435091E+02  0.67941208525E+02  0.00000000000E+00 0.  1.
         14    1    6    6    0    0 -0.23734055272E+02  0.55503998537E+02 -0.61300683014E+01  0.60675999956E+02  0.00000000000E+00 0. -1.
         -5    1    3    3    0  503 -0.11571558619E+02 -0.68951605208E+02  0.15598151783E+03  0.17099868050E+03  0.47000000000E+01 0.  1.
         11    1    4    4    0    0  0.16653269368E+02  0.28408158239E+02  0.25315739309E+02  0.41536026434E+02  0.00000000000E+00 0. -1.
        -12    1    4    4    0    0 -0.47591856732E+02 -0.29437320200E+02  0.77850728931E+01  0.56499097406E+02  0.00000000000E+00 0.  1.
<mgrwt>
<rscale>  2 0.19156722E+03</rscale>
<asrwt>0</asrwt>
<pdfrwt beam="1">  1       21 0.60114620E-01 0.19162900E+03</pdfrwt>
<pdfrwt beam="2">  1       21 0.14885339E-01 0.19162900E+03</pdfrwt>
<totfact> 0.10270112E+05</totfact>
</mgrwt>
</event>
<event>
12    1  0.1071811E-001  0.1968843E+03  0.7546771E-02  0.1152626E+00
         21   -1    0    0  503  502  0.00000000000E+00  0.00000000000E+00  0.14360525121E+03  0.14360525121E+03  0.00000000000E+00 0. -1.
         21   -1    0    0  501  503 -0.00000000000E+00 -0.00000000000E+00 -0.54620236195E+03  0.54620236195E+03  0.00000000000E+00 0. -1.
          6    2    1    2  501    0  0.27730576678E+02 -0.86311241728E+02 -0.44697397676E+03  0.48798410324E+03  0.17356305417E+03 0.  0.
         24    2    3    3    0    0 -0.31575633366E+02 -0.92863834445E+02 -0.30376016333E+03  0.33276667709E+03  0.94035696329E+02 0.  0.
         -6    2    1    2    0  502 -0.27730576678E+02  0.86311241728E+02  0.44376866017E+02  0.20182350993E+03  0.17477072864E+03 0.  0.
        -24    2    5    5    0    0 -0.41723627762E+02  0.15762623739E+01  0.66843767676E+02  0.11292652530E+03  0.80876233365E+02 0.  0.
          5    1    3    3  501    0  0.59306210045E+02  0.65525927168E+01 -0.14321381343E+03  0.15521742614E+03  0.47000000000E+01 0. -1.
        -11    1    4    4    0    0  0.10682924886E+02  0.95902644151E+01 -0.69690910594E+01  0.15958267007E+02  0.00000000000E+00 0.  1.
         12    1    4    4    0    0 -0.42258558253E+02 -0.10245409886E+03 -0.29679107227E+03  0.31680841009E+03  0.00000000000E+00 0. -1.
         -5    1    5    5    0  502  0.13993051084E+02  0.84734979355E+02 -0.22466901659E+02  0.88896984623E+02  0.47000000000E+01 0.  1.
         13    1    6    6    0    0 -0.65862899098E+02 -0.32971470286E+01  0.53497064981E+02  0.84916009196E+02  0.00000000000E+00 0. -1.
        -14    1    6    6    0    0  0.24139271336E+02  0.48734094025E+01  0.13346702695E+02  0.28010516108E+02  0.00000000000E+00 0.  1.
<mgrwt>
<rscale>  2 0.19661593E+03</rscale>
<asrwt>0</asrwt>
<pdfrwt beam="1">  1       21 0.22093116E-01 0.19688429E+03</pdfrwt>
<pdfrwt beam="2">  1       21 0.84031132E-01 0.19688429E+03</pdfrwt>
<totfact> 0.23496989E+04</totfact>
</mgrwt>
</event>
<event>
12    1  0.1071811E-001  0.1950776E+03  0.7546771E-02  0.1154035E+00
         21   -1    0    0  501  502  0.00000000000E+00  0.00000000000E+00  0.40774663037E+03  0.40774663037E+03  0.00000000000E+00 0.  1.
         21   -1    0    0  502  503 -0.00000000000E+00 -0.00000000000E+00 -0.93208821224E+02  0.93208821224E+02  0.00000000000E+00 0. -1.
         -6    2    1    2    0  503  0.50951109104E+02 -0.73204121626E+02  0.16250335832E+03  0.25363024473E+03  0.17310719407E+03 0.  0.
        -24    2    3    3    0    0 -0.29626260109E+02 -0.48119634788E+02  0.47417510548E+02  0.11084093748E+03  0.82728946414E+02 0.  0.
          6    2    1    2  501    0 -0.50951109104E+02  0.73204121626E+02  0.15203445082E+03  0.24732520685E+03  0.17349473988E+03 0.  0.
         24    2    5    5    0    0 -0.20174072170E+02 -0.21835779895E+02  0.10778634880E+03  0.13796436644E+03  0.80823727630E+02 0.  0.
          5    1    5    5  501    0 -0.30777036935E+02  0.95039901521E+02  0.44248102023E+02  0.10936084041E+03  0.47000000000E+01 0. -1.
        -13    1    6    6    0    0  0.30822754998E+02 -0.15146362058E+02  0.37230416177E+02  0.50651341521E+02  0.00000000000E+00 0.  1.
         14    1    6    6    0    0 -0.50996827167E+02 -0.66894178369E+01  0.70555932623E+02  0.87313024919E+02  0.00000000000E+00 0. -1.
         -5    1    3    3    0  503  0.80577369214E+02 -0.25084486838E+02  0.11508584777E+03  0.14278930725E+03  0.47000000000E+01 0.  1.
         13    1    4    4    0    0 -0.14824688012E+02 -0.98810424204E+01 -0.23158380434E+02  0.29218435247E+02  0.00000000000E+00 0. -1.
        -14    1    4    4    0    0 -0.14801572097E+02 -0.38238592368E+02  0.70575890983E+02  0.81622502233E+02  0.00000000000E+00 0.  1.
<mgrwt>
<rscale>  2 0.19499143E+03</rscale>
<asrwt>0</asrwt>
<pdfrwt beam="1">  1       21 0.62730250E-01 0.19507764E+03</pdfrwt>
<pdfrwt beam="2">  1       21 0.14339819E-01 0.19507764E+03</pdfrwt>
<totfact> 0.10013089E+05</totfact>
</mgrwt>
</event>
<event>
12    1  0.1071811E-001  0.2666695E+03  0.7546771E-02  0.1103942E+00
         21   -1    0    0  503  502  0.00000000000E+00  0.00000000000E+00  0.37674069282E+03  0.37674069282E+03  0.00000000000E+00 0. -1.
         21   -1    0    0  501  503 -0.00000000000E+00 -0.00000000000E+00 -0.18825646053E+03  0.18825646053E+03  0.00000000000E+00 0.  1.
          6    2    1    2  501    0  0.19284355160E+03 -0.64592065370E+02  0.57379076982E+02  0.26784197831E+03  0.16457884605E+03 0.  0.
         24    2    3    3    0    0  0.29646577631E+02  0.17180833643E+01  0.17188697159E+02  0.87100049670E+02  0.80056829607E+02 0.  0.
         -6    2    1    2    0  502 -0.19284355160E+03  0.64592065370E+02  0.13110515531E+03  0.29715517505E+03  0.17248729231E+03 0.  0.
        -24    2    5    5    0    0 -0.19213046275E+03  0.74124007332E+02  0.66782518463E+02  0.23195657059E+03  0.83279425347E+02 0.  0.
          5    1    3    3  501    0  0.16319697397E+03 -0.66310148734E+02  0.40190379823E+02  0.18074192864E+03  0.47000000000E+01 0. -1.
        -13    1    4    4    0    0  0.30514194934E+02 -0.36259458266E+02  0.89067231818E+01  0.48220266736E+02  0.00000000000E+00 0.  1.
         14    1    4    4    0    0 -0.86761730209E+00  0.37977541631E+02  0.82819739771E+01  0.38879782935E+02  0.00000000000E+00 0. -1.
         -5    1    5    5    0  502 -0.71308884597E+00 -0.95319419622E+01  0.64322636846E+02  0.65198604464E+02  0.47000000000E+01 0.  1.
         11    1    6    6    0    0 -0.92167537904E+02  0.34487346225E+01  0.58570386298E+02  0.10925767234E+03  0.00000000000E+00 0. -1.
        -12    1    6    6    0    0 -0.99962924848E+02  0.70675272710E+02  0.82121321655E+01  0.12269889825E+03  0.00000000000E+00 0.  1.
<mgrwt>
<rscale>  2 0.26539902E+03</rscale>
<asrwt>0</asrwt>
<pdfrwt beam="1">  1       21 0.57960107E-01 0.26666953E+03</pdfrwt>
<pdfrwt beam="2">  1       21 0.28962532E-01 0.26666953E+03</pdfrwt>
<totfact> 0.30725536E+04</totfact>
</mgrwt>
</event>
<event>
12    1  0.1071811E-001  0.1967818E+03  0.7546771E-02  0.1153086E+00
         21   -1    0    0  501  502  0.00000000000E+00  0.00000000000E+00  0.23649233583E+03  0.23649233583E+03  0.00000000000E+00 0. -1.
         21   -1    0    0  502  503 -0.00000000000E+00 -0.00000000000E+00 -0.28646574350E+03  0.28646574350E+03  0.00000000000E+00 0.  1.
         -6    2    1    2    0  503  0.57982837394E+02 -0.67419398174E+02 -0.19762994204E+03  0.27693874573E+03  0.17242415786E+03 0.  0.
        -24    2    3    3    0    0 -0.21827363385E+02 -0.80510357149E+02 -0.12652112552E+03  0.16914451981E+03  0.75126040613E+02 0.  0.
          6    2    1    2  501    0 -0.57982837394E+02  0.67419398174E+02  0.14765653437E+03  0.24601933360E+03  0.17554394231E+03 0.  0.
         24    2    5    5    0    0  0.36271010445E+02  0.39501628265E+02  0.68020583236E+02  0.11942089592E+03  0.82210618567E+02 0.  0.
          5    1    5    5  501    0 -0.94253847839E+02  0.27917769909E+02  0.79635951137E+02  0.12659843768E+03  0.47000000000E+01 0. -1.
        -11    1    6    6    0    0 -0.16378794121E+02  0.25920052395E+01 -0.91773622823E+01  0.18952766724E+02  0.00000000000E+00 0.  1.
         12    1    6    6    0    0  0.52649804566E+02  0.36909623025E+02  0.77197945518E+02  0.10046812920E+03  0.00000000000E+00 0. -1.
         -5    1    3    3    0  503  0.79810200778E+02  0.13090958975E+02 -0.71108816513E+02  0.10779422592E+03  0.47000000000E+01 0.  1.
         13    1    4    4    0    0 -0.24708983739E+02 -0.55525579822E+02 -0.27014497710E+02  0.66508698518E+02  0.00000000000E+00 0. -1.
        -14    1    4    4    0    0  0.28816203544E+01 -0.24984777327E+02 -0.99506627814E+02  0.10263582130E+03  0.00000000000E+00 0.  1.
<mgrwt>
<rscale>  2 0.19608356E+03</rscale>
<asrwt>0</asrwt>
<pdfrwt beam="1">  1       21 0.36383436E-01 0.19678176E+03</pdfrwt>
<pdfrwt beam="2">  1       21 0.44071653E-01 0.19678176E+03</pdfrwt>
<totfact> 0.35952130E+04</totfact>
</mgrwt>
</event>
<event>
12    1  0.1071811E-001  0.2129421E+03  0.7546771E-02  0.1139324E+00
         21   -1    0    0  501  502  0.00000000000E+00  0.00000000000E+00  0.35418120389E+03  0.35418120389E+03  0.00000000000E+00 0. -1.
         21   -1    0    0  502  503 -0.00000000000E+00 -0.00000000000E+00 -0.21579560625E+03  0.21579560625E+03  0.00000000000E+00 0. -1.
         -6    2    1    2    0  503  0.61156116536E+02  0.10973407959E+03 -0.11274067839E+03  0.24094559983E+03  0.17193801993E+03 0.  0.
        -24    2    3    3    0    0  0.57089650147E+02  0.90353596302E+02 -0.72982731781E+01  0.13355691281E+03  0.79757028843E+02 0.  0.
          6    2    1    2  501    0 -0.61156116536E+02 -0.10973407959E+03  0.25112627604E+03  0.32903121031E+03  0.17150945171E+03 0.  0.
         24    2    5    5    0    0 -0.43633611868E+02 -0.76130377549E+02  0.26318814648E+03  0.28898341787E+03  0.80893070710E+02 0.  0.
          5    1    5    5  501    0 -0.17522504668E+02 -0.33603702045E+02 -0.12061870435E+02  0.40047792441E+02  0.47000000000E+01 0. -1.
        -13    1    6    6    0    0  0.15937834660E+01 -0.49333017587E+02  0.53437009666E+02  0.72744764567E+02  0.00000000000E+00 0.  1.
         14    1    6    6    0    0 -0.45227395334E+02 -0.26797359963E+02  0.20975113681E+03  0.21623865330E+03  0.00000000000E+00 0. -1.
         -5    1    3    3    0  503  0.40664663884E+01  0.19380483293E+02 -0.10544240521E+03  0.10738868702E+03  0.47000000000E+01 0.  1.
         13    1    4    4    0    0  0.32445656033E+02  0.77076516230E+02 -0.38132924035E+02  0.91910988707E+02  0.00000000000E+00 0. -1.
        -14    1    4    4    0    0  0.24643994114E+02  0.13277080072E+02  0.30834650857E+02  0.41645924105E+02  0.00000000000E+00 0.  1.
<mgrwt>
<rscale>  2 0.21285554E+03</rscale>
<asrwt>0</asrwt>
<pdfrwt beam="1">  1       21 0.54489416E-01 0.21294206E+03</pdfrwt>
<pdfrwt beam="2">  1       21 0.33199324E-01 0.21294206E+03</pdfrwt>
<totfact> 0.27482362E+04</totfact>
</mgrwt>
</event>
<event>
12    1  0.1071811E-001  0.1973141E+03  0.7546771E-02  0.1152085E+00
         21   -1    0    0  501  502  0.00000000000E+00  0.00000000000E+00  0.70984828958E+03  0.70984828958E+03  0.00000000000E+00 0. -1.
         21   -1    0    0  502  503 -0.00000000000E+00 -0.00000000000E+00 -0.30602024757E+03  0.30602024757E+03  0.00000000000E+00 0. -1.
         -6    2    1    2    0  503  0.33538468556E+02 -0.86478677209E+02 -0.25835440910E+03  0.32491379670E+03  0.17383493349E+03 0.  0.
        -24    2    3    3    0    0  0.70634246916E+02 -0.81352124247E+02 -0.12783243866E+03  0.18904454675E+03  0.88257256492E+02 0.  0.
          6    2    1    2  501    0 -0.33538468556E+02  0.86478677209E+02  0.66218245111E+03  0.69095474045E+03  0.17415356533E+03 0.  0.
         24    2    5    5    0    0  0.42444949815E+02  0.80415470495E+02  0.43123681796E+03  0.44770956001E+03  0.78806315067E+02 0.  0.
          5    1    5    5  501    0 -0.75983418370E+02  0.60632067139E+01  0.23094563314E+03  0.24324518045E+03  0.47000000000E+01 0. -1.
        -11    1    6    6    0    0  0.91751968155E+01 -0.38005318976E+01  0.35567267476E+01  0.10548866501E+02  0.00000000000E+00 0.  1.
         12    1    6    6    0    0  0.33269752999E+02  0.84216002393E+02  0.42768009121E+03  0.43716069350E+03  0.00000000000E+00 0. -1.
         -5    1    3    3    0  503 -0.37095778361E+02 -0.51265529622E+01 -0.13052197044E+03  0.13586924996E+03  0.47000000000E+01 0.  1.
         11    1    4    4    0    0  0.65755309110E+02 -0.14554293692E+02 -0.89055334430E+02  0.11165321639E+03  0.00000000000E+00 0. -1.
        -12    1    4    4    0    0  0.48789378068E+01 -0.66797830555E+02 -0.38777104234E+02  0.77391330353E+02  0.00000000000E+00 0.  1.
<mgrwt>
<rscale>  2 0.19724377E+03</rscale>
<asrwt>0</asrwt>
<pdfrwt beam="1">  1       21 0.10920743E+00 0.19731410E+03</pdfrwt>
<pdfrwt beam="2">  1       21 0.47080038E-01 0.19731410E+03</pdfrwt>
<totfact> 0.28578800E+03</totfact>
</mgrwt>
</event>
<event>
12    1  0.1071811E-001  0.2283774E+03  0.7546771E-02  0.1127791E+00
         21   -1    0    0  503  502  0.00000000000E+00  0.00000000000E+00  0.34605608494E+03  0.34605608494E+03  0.00000000000E+00 0. -1.
         21   -1    0    0  501  503 -0.00000000000E+00 -0.00000000000E+00 -0.27466649352E+03  0.27466649352E+03  0.00000000000E+00 0. -1.
          6    2    1    2  501    0  0.90935590309E+02 -0.11528696736E+03 -0.17280917748E+03  0.28639003347E+03  0.17491676025E+03 0.  0.
         24    2    3    3    0    0  0.21689013278E+02 -0.70097445681E+02 -0.12787242738E+02  0.10620598617E+03  0.75710849511E+02 0.  0.
         -6    2    1    2    0  502 -0.90935590309E+02  0.11528696736E+03  0.24419876891E+03  0.33433254500E+03  0.17488523517E+03 0.  0.
        -24    2    5    5    0    0 -0.10487618083E+03  0.54174107343E+02  0.22813022620E+03  0.26945258053E+03  0.81409126250E+02 0.  0.
          5    1    3    3  501    0  0.69246577032E+02 -0.45189521684E+02 -0.16002193474E+03  0.18018404730E+03  0.47000000000E+01 0. -1.
        -13    1    4    4    0    0  0.37370630996E+02 -0.78947414868E+02 -0.90252415189E+01  0.87810667689E+02  0.00000000000E+00 0.  1.
         14    1    4    4    0    0 -0.15681617719E+02  0.88499691872E+01 -0.37620012195E+01  0.18395318482E+02  0.00000000000E+00 0. -1.
         -5    1    5    5    0  502  0.13940590525E+02  0.61112860022E+02  0.16068542707E+02  0.64879964465E+02  0.47000000000E+01 0.  1.
         13    1    6    6    0    0 -0.84535514649E+01  0.37276074112E+02  0.30476455579E+02  0.48885402507E+02  0.00000000000E+00 0. -1.
        -14    1    6    6    0    0 -0.96422629369E+02  0.16898033231E+02  0.19765377062E+03  0.22056717802E+03  0.00000000000E+00 0.  1.
<mgrwt>
<rscale>  2 0.22837137E+03</rscale>
<asrwt>0</asrwt>
<pdfrwt beam="1">  1       21 0.53239398E-01 0.22837741E+03</pdfrwt>
<pdfrwt beam="2">  1       21 0.42256384E-01 0.22837741E+03</pdfrwt>
<totfact> 0.17630425E+04</totfact>
</mgrwt>
</event>
<event>
12    1  0.1071811E-001  0.2050575E+03  0.7546771E-02  0.1146643E+00
         21   -1    0    0  503  502  0.00000000000E+00  0.00000000000E+00  0.65006193930E+02  0.65006193930E+02  0.00000000000E+00 0. -1.
         21   -1    0    0  501  503 -0.00000000000E+00 -0.00000000000E+00 -0.63081920399E+03  0.63081920399E+03  0.00000000000E+00 0. -1.
          6    2    1    2  501    0 -0.97813083678E+02  0.17530241291E+02 -0.29045673963E+03  0.35250390027E+03  0.17326042077E+03 0.  0.
         24    2    3    3    0    0 -0.74870141740E+02  0.66606012935E+02 -0.26062041314E+03  0.29047885431E+03  0.80081620691E+02 0.  0.
         -6    2    1    2    0  502  0.97813083678E+02 -0.17530241291E+02 -0.27535627042E+03  0.34332149765E+03  0.17937075121E+03 0.  0.
        -24    2    5    5    0    0  0.11733678128E+03 -0.16746493005E+02 -0.28641343635E+03  0.32038375696E+03  0.81023021019E+02 0.  0.
          5    1    3    3  501    0 -0.22942941938E+02 -0.49075771643E+02 -0.29836326490E+02  0.62025045954E+02  0.47000000000E+01 0. -1.
        -13    1    4    4    0    0  0.21514714383E+01  0.44500006327E+02 -0.62381173036E+02  0.76656964079E+02  0.00000000000E+00 0.  1.
         14    1    4    4    0    0 -0.77021613178E+02  0.22106006608E+02 -0.19823924011E+03  0.21382189023E+03  0.00000000000E+00 0. -1.
         -5    1    5    5    0  502 -0.19523697607E+02 -0.78374828662E+00  0.11057165923E+02  0.22937740688E+02  0.47000000000E+01 0.  1.
         13    1    6    6    0    0  0.27566843568E+02  0.47054167190E+00 -0.10130867871E+02  0.29373231990E+02  0.00000000000E+00 0. -1.
        -14    1    6    6    0    0  0.89769937717E+02 -0.17217034677E+02 -0.27628256848E+03  0.29101052497E+03  0.00000000000E+00 0.  1.
<mgrwt>
<rscale>  2 0.20371360E+03</rscale>
<asrwt>0</asrwt>
<pdfrwt beam="1">  1       21 0.10000953E-01 0.20505749E+03</pdfrwt>
<pdfrwt beam="2">  1       21 0.97049106E-01 0.20505749E+03</pdfrwt>
<totfact> 0.71070110E+04</totfact>
</mgrwt>
</event>
<event>
12    1  0.1071811E-001  0.2157801E+03  0.7546771E-02  0.1137507E+00
         21   -1    0    0  503  502  0.00000000000E+00  0.00000000000E+00  0.15264323825E+03  0.15264323825E+03  0.00000000000E+00 0. -1.
         21   -1    0    0  501  503 -0.00000000000E+00 -0.00000000000E+00 -0.36325225036E+03  0.36325225036E+03  0.00000000000E+00 0. -1.
          6    2    1    2  501    0 -0.98847907448E+00  0.12490551036E+03 -0.21091940953E+03  0.30011517273E+03  0.17314663143E+03 0.  0.
         24    2    3    3    0    0 -0.53329972897E+02  0.40618184373E+02 -0.63300284382E+02  0.12218967875E+03  0.80183967720E+02 0.  0.
         -6    2    1    2    0  502  0.98847907448E+00 -0.12490551036E+03  0.31039742614E+00  0.21578031588E+03  0.17595080211E+03 0.  0.
        -24    2    5    5    0    0 -0.66327625082E+02 -0.73347436406E+02  0.23712106621E+02  0.12769272956E+03  0.77226736994E+02 0.  0.
          5    1    3    3  501    0  0.52341493823E+02  0.84287325991E+02 -0.14761912515E+03  0.17792549398E+03  0.47000000000E+01 0. -1.
        -13    1    4    4    0    0 -0.10131950859E+02  0.14314212276E+02  0.18832566594E+02  0.25733609654E+02  0.00000000000E+00 0.  1.
         14    1    4    4    0    0 -0.43198022038E+02  0.26303972097E+02 -0.82132850976E+02  0.96456069097E+02  0.00000000000E+00 0. -1.
         -5    1    5    5    0  502  0.67316104156E+02 -0.51558073958E+02 -0.23401709195E+02  0.88087586312E+02  0.47000000000E+01 0.  1.
         11    1    6    6    0    0 -0.45468068598E+02 -0.32930070257E+00  0.24704220682E+02  0.51747002043E+02  0.00000000000E+00 0. -1.
        -12    1    6    6    0    0 -0.20859556484E+02 -0.73018135703E+02 -0.99211406051E+00  0.75945727520E+02  0.00000000000E+00 0.  1.
<mgrwt>
<rscale>  2 0.21520772E+03</rscale>
<asrwt>0</asrwt>
<pdfrwt beam="1">  1       21 0.23483575E-01 0.21578009E+03</pdfrwt>
<pdfrwt beam="2">  1       21 0.55884961E-01 0.21578009E+03</pdfrwt>
<totfact> 0.50885320E+04</totfact>
</mgrwt>
</event>
<event>
12    1  0.1071811E-001  0.1906749E+03  0.7546771E-02  0.1158179E+00
         21   -1    0    0  503  502  0.00000000000E+00  0.00000000000E+00  0.23383945893E+03  0.23383945893E+03  0.00000000000E+00 0.  1.
         21   -1    0    0  501  503 -0.00000000000E+00 -0.00000000000E+00 -0.29480090090E+03  0.29480090090E+03  0.00000000000E+00 0.  1.
          6    2    1    2  501    0  0.25399449847E+02  0.73360828465E+02 -0.21301356736E+03  0.28588758102E+03  0.17415506279E+03 0.  0.
         24    2    3    3    0    0  0.45302182703E+02  0.59688035925E+01 -0.18835847755E+03  0.21127010823E+03  0.84072755350E+02 0.  0.
         -6    2    1    2    0  502 -0.25399449847E+02 -0.73360828465E+02  0.15205212540E+03  0.24275277881E+03  0.17257496799E+03 0.  0.
        -24    2    5    5    0    0  0.88490160417E+01 -0.18556600497E+02  0.42530324678E+01  0.81373961460E+02  0.78619214010E+02 0.  0.
          5    1    3    3  501    0 -0.19902732856E+02  0.67392024872E+02 -0.24655089812E+02  0.74617472787E+02  0.47000000000E+01 0. -1.
        -13    1    4    4    0    0  0.11956721606E+02  0.42160752090E+02 -0.11368478885E+03  0.12183892410E+03  0.00000000000E+00 0.  1.
         14    1    4    4    0    0  0.33345461096E+02 -0.36191948497E+02 -0.74673688700E+02  0.89431184135E+02  0.00000000000E+00 0. -1.
         -5    1    5    5    0  502 -0.34248465889E+02 -0.54804227968E+02  0.14779909293E+03  0.16137881735E+03  0.47000000000E+01 0.  1.
         13    1    6    6    0    0 -0.27622966245E+02 -0.34943518715E+01  0.24442050422E+02  0.37049326418E+02  0.00000000000E+00 0. -1.
        -14    1    6    6    0    0  0.36471982287E+02 -0.15062248625E+02 -0.20189017955E+02  0.44324635041E+02  0.00000000000E+00 0.  1.
<mgrwt>
<rscale>  2 0.19031338E+03</rscale>
<asrwt>0</asrwt>
<pdfrwt beam="1">  1       21 0.35975301E-01 0.19067493E+03</pdfrwt>
<pdfrwt beam="2">  1       21 0.45353985E-01 0.19067493E+03</pdfrwt>
<totfact> 0.34779957E+04</totfact>
</mgrwt>
</event>
<event>
12    1  0.1071811E-001  0.1888476E+03  0.7546771E-02  0.1160573E+00
         21   -1    0    0  503  502  0.00000000000E+00  0.00000000000E+00  0.16556658411E+03  0.16556658411E+03  0.00000000000E+00 0.  1.
         21   -1    0    0  501  503 -0.00000000000E+00 -0.00000000000E+00 -0.23000502543E+03  0.23000502543E+03  0.00000000000E+00 0.  1.
          6    2    1    2  501    0  0.43108110621E+02  0.50778415198E+02 -0.90700303037E+02  0.20949932478E+03  0.17671068292E+03 0.  0.
         24    2    3    3    0    0  0.13151417770E+02  0.94849297058E+02 -0.37683121397E+02  0.13418294128E+03  0.86114430554E+02 0.  0.
         -6    2    1    2    0  502 -0.43108110621E+02 -0.50778415198E+02  0.26261861714E+02  0.18607228476E+03  0.17174531471E+03 0.  0.
        -24    2    5    5    0    0  0.40264208486E+02 -0.44492702245E+01  0.88148828490E+01  0.88995921319E+02  0.78750043563E+02 0.  0.
          5    1    3    3  501    0  0.29956692851E+02 -0.44070881860E+02 -0.53017181640E+02  0.75316383500E+02  0.47000000000E+01 0. -1.
        -11    1    4    4    0    0 -0.29492082112E+02  0.61179049463E+02  0.25127128450E+00  0.67917023917E+02  0.00000000000E+00 0.  1.
         12    1    4    4    0    0  0.42643499883E+02  0.33670247595E+02 -0.37934392681E+02  0.66265917359E+02  0.00000000000E+00 0. -1.
         -5    1    5    5    0  502 -0.83372319107E+02 -0.46329144974E+02  0.17446978865E+02  0.97076363440E+02  0.47000000000E+01 0.  1.
         11    1    6    6    0    0 -0.11521843147E+02  0.21574845000E+02  0.17929277421E+02  0.30326321820E+02  0.00000000000E+00 0. -1.
        -12    1    6    6    0    0  0.51786051633E+02 -0.26024115225E+02 -0.91143945722E+01  0.58669599499E+02  0.00000000000E+00 0.  1.
<mgrwt>
<rscale>  2 0.18767730E+03</rscale>
<asrwt>0</asrwt>
<pdfrwt beam="1">  1       21 0.25471782E-01 0.18884762E+03</pdfrwt>
<pdfrwt beam="2">  1       21 0.35385389E-01 0.18884762E+03</pdfrwt>
<totfact> 0.11269333E+05</totfact>
</mgrwt>
</event>
<event>
12    1  0.1071811E-001  0.1926199E+03  0.7546771E-02  0.1158043E+00
         21   -1    0    0  503  502  0.00000000000E+00  0.00000000000E+00  0.13705229059E+03  0.13705229059E+03  0.00000000000E+00 0.  1.
         21   -1    0    0  501  503 -0.00000000000E+00 -0.00000000000E+00 -0.27158919639E+03  0.27158919639E+03  0.00000000000E+00 0.  1.
          6    2    1    2  501    0 -0.62810248052E+02 -0.91183392891E+01 -0.11280280248E+03  0.22321938432E+03  0.18186299766E+03 0.  0.
         24    2    3    3    0    0 -0.11331561436E+03 -0.20274860046E+02 -0.77550312583E+02  0.16044926384E+03  0.80488613346E+02 0.  0.
         -6    2    1    2    0  502  0.62810248052E+02  0.91183392891E+01 -0.21734103330E+02  0.18542210266E+03  0.17286038741E+03 0.  0.
        -24    2    5    5    0    0  0.84889146029E+02  0.34425681116E+02 -0.58488157752E+02  0.13541320543E+03  0.80774853591E+02 0.  0.
          5    1    3    3  501    0  0.50505366307E+02  0.11156520757E+02 -0.35252489893E+02  0.62770120478E+02  0.47000000000E+01 0. -1.
        -11    1    4    4    0    0 -0.93315957737E+02  0.87750819672E+01 -0.82463042232E+02  0.12483999105E+03  0.00000000000E+00 0.  1.
         12    1    4    4    0    0 -0.19999656622E+02 -0.29049942013E+02  0.49127296495E+01  0.35609272789E+02  0.00000000000E+00 0. -1.
         -5    1    5    5    0  502 -0.22078897978E+02 -0.25307341827E+02  0.36754054422E+02  0.50008897235E+02  0.47000000000E+01 0.  1.
         13    1    6    6    0    0  0.94072041282E+02  0.47441140098E+02 -0.55921955031E+02  0.11927898297E+03  0.00000000000E+00 0. -1.
        -14    1    6    6    0    0 -0.91828952527E+01 -0.13015458982E+02 -0.25662027203E+01  0.16134222452E+02  0.00000000000E+00 0.  1.
<mgrwt>
<rscale>  2 0.19046501E+03</rscale>
<asrwt>0</asrwt>
<pdfrwt beam="1">  1       21 0.21084968E-01 0.19261989E+03</pdfrwt>
<pdfrwt beam="2">  1       21 0.41782953E-01 0.19261989E+03</pdfrwt>
<totfact> 0.11530102E+05</totfact>
</mgrwt>
</event>
<event>
12    1  0.1071811E-001  0.3862748E+03  0.7546771E-02  0.1048650E+00
         21   -1    0    0  503  502  0.00000000000E+00  0.00000000000E+00  0.37593650927E+03  0.37593650927E+03  0.00000000000E+00 0. -1.
         21   -1    0    0  501  503 -0.00000000000E+00 -0.00000000000E+00 -0.41096549846E+03  0.41096549846E+03  0.00000000000E+00 0.  1.
          6    2    1    2  501    0  0.27734528753E+03  0.20562742257E+03 -0.90646294625E+02  0.39676814619E+03  0.17321999213E+03 0.  0.
         24    2    3    3    0    0  0.11447318891E+03  0.15323445513E+03 -0.10741171188E+02  0.20787859567E+03  0.80704575832E+02 0.  0.
         -6    2    1    2    0  502 -0.27734528753E+03 -0.20562742257E+03  0.55617305433E+02  0.39013386154E+03  0.17293958431E+03 0.  0.
        -24    2    5    5    0    0 -0.10210962836E+03 -0.70708180738E+02  0.77807161943E+02  0.16781603095E+03  0.81744986196E+02 0.  0.
          5    1    3    3  501    0  0.16287209862E+03  0.52392967447E+02 -0.79905123437E+02  0.18888955053E+03  0.47000000000E+01 0. -1.
        -11    1    4    4    0    0  0.40173939058E+02  0.10932596818E+02 -0.21744094238E+02  0.46970977070E+02  0.00000000000E+00 0.  1.
         12    1    4    4    0    0  0.74299249854E+02  0.14230185831E+03  0.11002923050E+02  0.16090761860E+03  0.00000000000E+00 0. -1.
         -5    1    5    5    0  502 -0.17523565917E+03 -0.13491924184E+03 -0.22189856510E+02  0.22231783058E+03  0.47000000000E+01 0.  1.
         11    1    6    6    0    0 -0.10207210276E+03 -0.85298117379E+02  0.63567922196E+02  0.14742918206E+03  0.00000000000E+00 0. -1.
        -12    1    6    6    0    0 -0.37525603390E-01  0.14589936641E+02  0.14239239747E+02  0.20386848897E+02  0.00000000000E+00 0.  1.
<mgrwt>
<rscale>  2 0.38624337E+03</rscale>
<asrwt>0</asrwt>
<pdfrwt beam="1">  1       21 0.57836386E-01 0.38627479E+03</pdfrwt>
<pdfrwt beam="2">  1       21 0.63225461E-01 0.38627479E+03</pdfrwt>
<totfact> 0.58541972E+03</totfact>
</mgrwt>
</event>
<event>
12    1  0.1071811E-001  0.2734793E+03  0.7546771E-02  0.1099385E+00
         21   -1    0    0  501  502  0.00000000000E+00  0.00000000000E+00  0.15618196614E+03  0.15618196614E+03  0.00000000000E+00 0. -1.
         21   -1    0    0  502  503 -0.00000000000E+00 -0.00000000000E+00 -0.96890277229E+03  0.96890277229E+03  0.00000000000E+00 0.  1.
         -6    2    1    2    0  503  0.78285463635E+02  0.19612799429E+03 -0.80704044719E+03  0.85211808928E+03  0.17377039658E+03 0.  0.
        -24    2    3    3    0    0  0.12036681022E+03  0.14227752873E+03 -0.63928376355E+03  0.67091348869E+03  0.81915290278E+02 0.  0.
          6    2    1    2  501    0 -0.78285463635E+02 -0.19612799429E+03 -0.56803589646E+01  0.27296664915E+03  0.17286908662E+03 0.  0.
         24    2    5    5    0    0  0.16688318822E+02 -0.76459104248E+02 -0.35301319838E+02  0.11727415119E+03  0.79890855218E+02 0.  0.
          5    1    5    5  501    0 -0.94973782457E+02 -0.11966889004E+03  0.29620960874E+02  0.15569249796E+03  0.47000000000E+01 0. -1.
        -11    1    6    6    0    0  0.35420302656E+02 -0.11911980552E+02 -0.33268987989E+02  0.50033175821E+02  0.00000000000E+00 0.  1.
         12    1    6    6    0    0 -0.18731983834E+02 -0.64547123696E+02 -0.20323318490E+01  0.67240975369E+02  0.00000000000E+00 0. -1.
         -5    1    3    3    0  503 -0.42081346587E+02  0.53850465558E+02 -0.16775668364E+03  0.18120460059E+03  0.47000000000E+01 0.  1.
         13    1    4    4    0    0  0.93440717897E+02  0.10185447832E+03 -0.32907735273E+03  0.35692773302E+03  0.00000000000E+00 0. -1.
        -14    1    4    4    0    0  0.26926092324E+02  0.40423050405E+02 -0.31020641082E+03  0.31398575567E+03  0.00000000000E+00 0.  1.
<mgrwt>
<rscale>  2 0.27333628E+03</rscale>
<asrwt>0</asrwt>
<pdfrwt beam="1">  1       21 0.24027995E-01 0.27347935E+03</pdfrwt>
<pdfrwt beam="2">  1       21 0.14906197E+00 0.27347935E+03</pdfrwt>
<totfact> 0.46809756E+03</totfact>
</mgrwt>
</event>
<event>
12    1  0.1071811E-001  0.2656691E+03  0.7546771E-02  0.1103967E+00
         21   -1    0    0  503  502  0.00000000000E+00  0.00000000000E+00  0.87296434787E+03  0.87296434787E+03  0.00000000000E+00 0.  1.
         21   -1    0    0  501  503 -0.00000000000E+00 -0.00000000000E+00 -0.85436726554E+02  0.85436726554E+02  0.00000000000E+00 0.  1.
          6    2    1    2  501    0 -0.60787602084E+02  0.19188676746E+03  0.50840699488E+03  0.57305917776E+03  0.17147444324E+03 0.  0.
         24    2    3    3    0    0 -0.24268712442E+02  0.18380293537E+03  0.30205635754E+03  0.36329346757E+03  0.79822371535E+02 0.  0.
         -6    2    1    2    0  502  0.60787602084E+02 -0.19188676746E+03  0.27912062644E+03  0.38534189666E+03  0.17339085652E+03 0.  0.
        -24    2    5    5    0    0 -0.15734815081E+02 -0.94948226595E+02  0.72506070941E+02  0.14458387379E+03  0.79903792756E+02 0.  0.
          5    1    3    3  501    0 -0.36518889643E+02  0.80838320983E+01  0.20635063734E+03  0.20976571019E+03  0.47000000000E+01 0. -1.
        -13    1    4    4    0    0 -0.47538003764E+02  0.12354411414E+03  0.23791636588E+03  0.27226312107E+03  0.00000000000E+00 0.  1.
         14    1    4    4    0    0  0.23269291322E+02  0.60258821228E+02  0.64139991655E+02  0.91030346501E+02  0.00000000000E+00 0. -1.
         -5    1    5    5    0  502  0.76522417165E+02 -0.96938540869E+02  0.20661455550E+03  0.24075802288E+03  0.47000000000E+01 0.  1.
         11    1    6    6    0    0  0.39090371212E+01 -0.38371375388E+02  0.75326981108E+02  0.84627401610E+02  0.00000000000E+00 0. -1.
        -12    1    6    6    0    0 -0.19643852202E+02 -0.56576851207E+02 -0.28209101664E+01  0.59956472178E+02  0.00000000000E+00 0.  1.
<mgrwt>
<rscale>  2 0.26535682E+03</rscale>
<asrwt>0</asrwt>
<pdfrwt beam="1">  1       21 0.13430220E+00 0.26566907E+03</pdfrwt>
<pdfrwt beam="2">  1       21 0.13144112E-01 0.26566907E+03</pdfrwt>
<totfact> 0.19014252E+04</totfact>
</mgrwt>
</event>
<event>
12    1  0.1071811E-001  0.2356402E+03  0.7546771E-02  0.1122879E+00
         21   -1    0    0  503  502  0.00000000000E+00  0.00000000000E+00  0.35806932666E+03  0.35806932666E+03  0.00000000000E+00 0. -1.
         21   -1    0    0  501  503 -0.00000000000E+00 -0.00000000000E+00 -0.17818796377E+03  0.17818796377E+03  0.00000000000E+00 0. -1.
          6    2    1    2  501    0  0.28229555784E+02  0.15709236138E+03 -0.79507879212E+01  0.23491494629E+03  0.17218274925E+03 0.  0.
         24    2    3    3    0    0 -0.27375856122E+02  0.71711937945E+02 -0.53053663099E+02  0.12338854633E+03  0.80734148013E+02 0.  0.
         -6    2    1    2    0  502 -0.28229555784E+02 -0.15709236138E+03  0.18783215080E+03  0.30134234414E+03  0.17335332033E+03 0.  0.
        -24    2    5    5    0    0 -0.31920743237E+02 -0.16138450721E+03  0.81964379863E+02  0.19521919725E+03  0.65791203005E+02 0.  0.
          5    1    3    3  501    0  0.55605411906E+02  0.85380423435E+02  0.45102875178E+02  0.11152639996E+03  0.47000000000E+01 0. -1.
        -13    1    4    4    0    0  0.21422967952E+02  0.21649207161E+02 -0.43095182323E+02  0.52771455030E+02  0.00000000000E+00 0.  1.
         14    1    4    4    0    0 -0.48798824074E+02  0.50062730784E+02 -0.99584807760E+01  0.70617091302E+02  0.00000000000E+00 0. -1.
         -5    1    5    5    0  502  0.36911874529E+01  0.42921458315E+01  0.10586777094E+03  0.10612314688E+03  0.47000000000E+01 0.  1.
         11    1    6    6    0    0 -0.20413477188E+02 -0.84677874624E+02  0.79007670989E+02  0.11759789359E+03  0.00000000000E+00 0. -1.
        -12    1    6    6    0    0 -0.11507266048E+02 -0.76706632588E+02  0.29567088740E+01  0.77621303663E+02  0.00000000000E+00 0.  1.
<mgrwt>
<rscale>  2 0.23542493E+03</rscale>
<asrwt>0</asrwt>
<pdfrwt beam="1">  1       21 0.55087589E-01 0.23564017E+03</pdfrwt>
<pdfrwt beam="2">  1       21 0.27413533E-01 0.23564017E+03</pdfrwt>
<totfact> 0.38634984E+04</totfact>
</mgrwt>
</event>
<event>
12    1  0.1071811E-001  0.1913044E+03  0.7546771E-02  0.1160117E+00
         21   -1    0    0  503  502  0.00000000000E+00  0.00000000000E+00  0.17633213693E+03  0.17633213693E+03  0.00000000000E+00 0.  1.
         21   -1    0    0  501  503 -0.00000000000E+00 -0.00000000000E+00 -0.59176468070E+03  0.59176468070E+03  0.00000000000E+00 0.  1.
          6    2    1    2  501    0 -0.45412860741E+02  0.14403344109E+02 -0.52007167503E+03  0.55004473182E+03  0.17264088621E+03 0.  0.
         24    2    3    3    0    0 -0.32054716466E+02 -0.37765345958E+02 -0.45822621582E+03  0.46790483246E+03  0.80684206469E+02 0.  0.
         -6    2    1    2    0  502  0.45412860741E+02 -0.14403344109E+02  0.10463913125E+03  0.21805208581E+03  0.18527703606E+03 0.  0.
        -24    2    5    5    0    0  0.61765729871E+02 -0.10271574537E+02 -0.96789310356E+01  0.10240089812E+03  0.80447197584E+02 0.  0.
          5    1    3    3  501    0 -0.13358144275E+02  0.52168690067E+02 -0.61845459211E+02  0.82139899359E+02  0.47000000000E+01 0. -1.
        -11    1    4    4    0    0  0.38383322312E+01 -0.28141975497E+02 -0.38249051266E+03  0.38354360359E+03  0.00000000000E+00 0.  1.
         12    1    4    4    0    0 -0.35893048697E+02 -0.96233704610E+01 -0.75735703160E+02  0.84361228873E+02  0.00000000000E+00 0. -1.
         -5    1    5    5    0  502 -0.16352869130E+02 -0.41317695722E+01  0.11431806229E+03  0.11565118769E+03  0.47000000000E+01 0.  1.
         11    1    6    6    0    0  0.47962535597E+02 -0.31630831929E+02  0.22223975095E+02  0.61602105633E+02  0.00000000000E+00 0. -1.
        -12    1    6    6    0    0  0.13803194274E+02  0.21359257392E+02 -0.31902906131E+02  0.40798792483E+02  0.00000000000E+00 0.  1.
<mgrwt>
<rscale>  2 0.18817587E+03</rscale>
<asrwt>0</asrwt>
<pdfrwt beam="1">  1       21 0.27128021E-01 0.19130438E+03</pdfrwt>
<pdfrwt beam="2">  1       21 0.91040720E-01 0.19130438E+03</pdfrwt>
<totfact> 0.13260513E+04</totfact>
</mgrwt>
</event>
<event>
12    1  0.1071811E-001  0.2028291E+03  0.7546771E-02  0.1147451E+00
         21   -1    0    0  501  502  0.00000000000E+00  0.00000000000E+00  0.10107469396E+04  0.10107469396E+04  0.00000000000E+00 0.  1.
         21   -1    0    0  502  503 -0.00000000000E+00 -0.00000000000E+00 -0.40725696607E+02  0.40725696607E+02  0.00000000000E+00 0.  1.
         -6    2    1    2    0  503  0.10340464948E+03 -0.18833745044E+02  0.45963646184E+03  0.50239956434E+03  0.17347165105E+03 0.  0.
        -24    2    3    3    0    0  0.78738768045E+02  0.44372658669E+02  0.37477054043E+03  0.39364401371E+03  0.79585960602E+02 0.  0.
          6    2    1    2  501    0 -0.10340464948E+03  0.18833745044E+02  0.51038478112E+03  0.54907307183E+03  0.17303578220E+03 0.  0.
         24    2    5    5    0    0 -0.19435643165E+02 -0.42548920732E+02  0.30143294592E+03  0.31561732632E+03  0.81020496812E+02 0.  0.
          5    1    5    5  501    0 -0.83969006313E+02  0.61382665777E+02  0.20895183520E+03  0.23345574551E+03  0.47000000000E+01 0. -1.
        -11    1    6    6    0    0 -0.32405652934E+02  0.12002118417E+02  0.79030497943E+02  0.86255416025E+02  0.00000000000E+00 0.  1.
         12    1    6    6    0    0  0.12970009769E+02 -0.54551039150E+02  0.22240244798E+03  0.22936191029E+03  0.00000000000E+00 0. -1.
         -5    1    3    3    0  503  0.24665881433E+02 -0.63206403714E+02  0.84865921403E+02  0.10875555063E+03  0.47000000000E+01 0.  1.
         11    1    4    4    0    0  0.87337645615E+02  0.18889768396E+02  0.32513397449E+03  0.33718954471E+03  0.00000000000E+00 0. -1.
        -12    1    4    4    0    0 -0.85988775701E+01  0.25482890273E+02  0.49636565939E+02  0.56454469002E+02  0.00000000000E+00 0.  1.
<mgrwt>
<rscale>  2 0.20273588E+03</rscale>
<asrwt>0</asrwt>
<pdfrwt beam="1">  1       21 0.15549951E+00 0.20282910E+03</pdfrwt>
<pdfrwt beam="2">  1       21 0.62654925E-02 0.20282910E+03</pdfrwt>
<totfact> 0.49456080E+04</totfact>
</mgrwt>
</event>
<event>
12    1  0.1071811E-001  0.1955624E+03  0.7546771E-02  0.1154766E+00
         21   -1    0    0  503  502  0.00000000000E+00  0.00000000000E+00  0.77185431572E+02  0.77185431572E+02  0.00000000000E+00 0.  1.
         21   -1    0    0  501  503 -0.00000000000E+00 -0.00000000000E+00 -0.49844378997E+03  0.49844378997E+03  0.00000000000E+00 0. -1.
          6    2    1    2  501    0  0.78806433578E+02  0.22920937502E+02 -0.15460637806E+03  0.24495122407E+03  0.17135386394E+03 0.  0.
         24    2    3    3    0    0  0.81533544165E+02 -0.44131063638E+02 -0.92447041396E+02  0.15335820510E+03  0.79856208325E+02 0.  0.
         -6    2    1    2    0  502 -0.78806433578E+02 -0.22920937502E+02 -0.26665198034E+03  0.33067799747E+03  0.17750728448E+03 0.  0.
        -24    2    5    5    0    0 -0.76632403529E+02 -0.80058950030E+02 -0.16525780639E+03  0.21417757948E+03  0.79246023413E+02 0.  0.
          5    1    3    3  501    0 -0.27271105864E+01  0.67052001140E+02 -0.62159336662E+02  0.91593018966E+02  0.47000000000E+01 0. -1.
        -11    1    4    4    0    0  0.48351897977E+02 -0.61104278138E+02 -0.85073122579E+02  0.11536496448E+03  0.00000000000E+00 0.  1.
         12    1    4    4    0    0  0.33181646188E+02  0.16973214500E+02 -0.73739188172E+01  0.37993240621E+02  0.00000000000E+00 0. -1.
         -5    1    5    5    0  502 -0.21740300494E+01  0.57138012528E+02 -0.10139417395E+03  0.11650041799E+03  0.47000000000E+01 0.  1.
         11    1    6    6    0    0 -0.12864814100E+02 -0.71251925712E+01 -0.90820138271E+02  0.92003094114E+02  0.00000000000E+00 0. -1.
        -12    1    6    6    0    0 -0.63767589429E+02 -0.72933757459E+02 -0.74437668123E+02  0.12217448536E+03  0.00000000000E+00 0.  1.
<mgrwt>
<rscale>  2 0.19415537E+03</rscale>
<asrwt>0</asrwt>
<pdfrwt beam="1">  1       21 0.11874682E-01 0.19556242E+03</pdfrwt>
<pdfrwt beam="2">  1       21 0.76683661E-01 0.19556242E+03</pdfrwt>
<totfact> 0.90351999E+04</totfact>
</mgrwt>
</event>
<event>
12    1  0.1071811E-001  0.2607087E+03  0.7546771E-02  0.1106790E+00
         21   -1    0    0  503  502  0.00000000000E+00  0.00000000000E+00  0.52755292299E+03  0.52755292299E+03  0.00000000000E+00 0. -1.
         21   -1    0    0  501  503 -0.00000000000E+00 -0.00000000000E+00 -0.13399625735E+03  0.13399625735E+03  0.00000000000E+00 0.  1.
          6    2    1    2  501    0  0.86778280247E+02  0.17425840514E+03  0.13058574646E+03  0.29158474052E+03  0.17341442283E+03 0.  0.
         24    2    3    3    0    0  0.78317071867E+02  0.15251669547E+03  0.36119079648E+02  0.19416638946E+03  0.83672532757E+02 0.  0.
         -6    2    1    2    0  502 -0.86778280247E+02 -0.17425840514E+03  0.26297091918E+03  0.36996443982E+03  0.17269487749E+03 0.  0.
        -24    2    5    5    0    0 -0.79821777514E+02 -0.11026296373E+03  0.26000062894E+03  0.30535235058E+03  0.84322557027E+02 0.  0.
          5    1    3    3  501    0  0.84612083805E+01  0.21741709669E+02  0.94466666808E+02  0.97418351066E+02  0.47000000000E+01 0. -1.
        -11    1    4    4    0    0  0.25247201178E+02  0.12814770116E+03  0.37040312616E+02  0.13576170019E+03  0.00000000000E+00 0.  1.
         12    1    4    4    0    0  0.53069870689E+02  0.24368994314E+02 -0.92123296779E+00  0.58404689272E+02  0.00000000000E+00 0. -1.
         -5    1    5    5    0  502 -0.69565027331E+01 -0.63995441411E+02  0.29702902479E+01  0.64612089239E+02  0.47000000000E+01 0.  1.
         13    1    6    6    0    0 -0.82614671657E+02 -0.11907964977E+03  0.25795307271E+03  0.29587993289E+03  0.00000000000E+00 0. -1.
        -14    1    6    6    0    0  0.27928941426E+01  0.88166860452E+01  0.20475562227E+01  0.94724176954E+01  0.00000000000E+00 0.  1.
<mgrwt>
<rscale>  2 0.26058910E+03</rscale>
<asrwt>0</asrwt>
<pdfrwt beam="1">  1       21 0.81161987E-01 0.26070870E+03</pdfrwt>
<pdfrwt beam="2">  1       21 0.20614809E-01 0.26070870E+03</pdfrwt>
<totfact> 0.28054316E+04</totfact>
</mgrwt>
</event>
<event>
12    1  0.1071811E-001  0.1833497E+03  0.7546771E-02  0.1164723E+00
         21   -1    0    0  501  502  0.00000000000E+00  0.00000000000E+00  0.30621005147E+02  0.30621005147E+02  0.00000000000E+00 0.  1.
         21   -1    0    0  502  503 -0.00000000000E+00 -0.00000000000E+00 -0.11913967667E+04  0.11913967667E+04  0.00000000000E+00 0.  1.
         -6    2    1    2    0  503 -0.39426320226E+02 -0.44299082109E+02 -0.40710811689E+03  0.44649089253E+03  0.17349425026E+03 0.  0.
        -24    2    3    3    0    0 -0.15080889811E+02 -0.90922048130E+02 -0.33753795007E+03  0.35914961332E+03  0.81008178219E+02 0.  0.
          6    2    1    2  501    0  0.39426320226E+02  0.44299082109E+02 -0.75366764465E+03  0.77552687930E+03  0.17294559412E+03 0.  0.
         24    2    5    5    0    0 -0.11058918652E+02  0.11106279936E+02 -0.65379035531E+03  0.65870186320E+03  0.78744312528E+02 0.  0.
          5    1    5    5  501    0  0.50485238878E+02  0.33192802172E+02 -0.99877289344E+02  0.11682501610E+03  0.47000000000E+01 0. -1.
        -13    1    6    6    0    0  0.27463740778E+02  0.26867386883E+02 -0.28812934005E+03  0.29067960047E+03  0.00000000000E+00 0.  1.
         14    1    6    6    0    0 -0.38522659430E+02 -0.15761106946E+02 -0.36566101526E+03  0.36802226272E+03  0.00000000000E+00 0. -1.
         -5    1    3    3    0  503 -0.24345430415E+02  0.46622966022E+02 -0.69570166824E+02  0.87341279213E+02  0.47000000000E+01 0.  1.
         11    1    4    4    0    0  0.14260498003E+02 -0.22297736145E+02 -0.20777829678E+03  0.20945732609E+03  0.00000000000E+00 0. -1.
        -12    1    4    4    0    0 -0.29341387814E+02 -0.68624311985E+02 -0.12975965328E+03  0.14969228722E+03  0.00000000000E+00 0.  1.
<mgrwt>
<rscale>  2 0.18321975E+03</rscale>
<asrwt>0</asrwt>
<pdfrwt beam="1">  1       21 0.47109242E-02 0.18334966E+03</pdfrwt>
<pdfrwt beam="2">  1       21 0.18329180E+00 0.18334966E+03</pdfrwt>
<totfact> 0.51726033E+04</totfact>
</mgrwt>
</event>
<event>
12    1  0.1071811E-001  0.2808676E+03  0.7546771E-02  0.1095679E+00
         21   -1    0    0  503  502  0.00000000000E+00  0.00000000000E+00  0.22392997700E+04  0.22392997700E+04  0.00000000000E+00 0.  1.
         21   -1    0    0  501  503 -0.00000000000E+00 -0.00000000000E+00 -0.40046524299E+02  0.40046524299E+02  0.00000000000E+00 0. -1.
          6    2    1    2  501    0  0.13755917936E+03 -0.17281171018E+03  0.69311563392E+03  0.74786087265E+03  0.17349405712E+03 0.  0.
         24    2    3    3    0    0  0.39971465943E+02 -0.82071186788E+02  0.48073684916E+03  0.49709396372E+03  0.87527669004E+02 0.  0.
         -6    2    1    2    0  502 -0.13755917936E+03  0.17281171018E+03  0.15061376118E+04  0.15314854217E+04  0.16796034085E+03 0.  0.
        -24    2    5    5    0    0 -0.13564539259E+03  0.82441370942E+02  0.79362948218E+03  0.81325120808E+03  0.79583417133E+02 0.  0.
          5    1    3    3  501    0  0.97587713420E+02 -0.90740523394E+02  0.21237878476E+03  0.25076690893E+03  0.47000000000E+01 0. -1.
        -11    1    4    4    0    0  0.66249922352E+02 -0.44275058005E+02  0.27783717234E+03  0.28903776104E+03  0.00000000000E+00 0.  1.
         12    1    4    4    0    0 -0.26278456409E+02 -0.37796128783E+02  0.20289967682E+03  0.20805620268E+03  0.00000000000E+00 0. -1.
         -5    1    5    5    0  502 -0.19137867736E+01  0.90370339240E+02  0.71250812963E+03  0.71823421360E+03  0.47000000000E+01 0.  1.
         13    1    6    6    0    0 -0.74418329400E+02  0.56983468422E+02  0.27799790286E+03  0.29337354587E+03  0.00000000000E+00 0. -1.
        -14    1    6    6    0    0 -0.61227063189E+02  0.25457902521E+02  0.51563157932E+03  0.51987766220E+03  0.00000000000E+00 0.  1.
<mgrwt>
<rscale>  2 0.28001772E+03</rscale>
<asrwt>0</asrwt>
<pdfrwt beam="1">  1       21 0.34450756E+00 0.28086759E+03</pdfrwt>
<pdfrwt beam="2">  1       21 0.61610055E-02 0.28086759E+03</pdfrwt>
<totfact> 0.32274132E+03</totfact>
</mgrwt>
</event>
<event>
12    1  0.1071811E-001  0.1819337E+03  0.7546771E-02  0.1166316E+00
         21   -1    0    0  503  502  0.00000000000E+00  0.00000000000E+00  0.16329883589E+04  0.16329883589E+04  0.00000000000E+00 0. -1.
         21   -1    0    0  501  503 -0.00000000000E+00 -0.00000000000E+00 -0.42748470524E+02  0.42748470524E+02  0.00000000000E+00 0. -1.
          6    2    1    2  501    0 -0.20388658955E+02  0.53474523598E+02  0.18681827461E+03  0.26076988226E+03  0.17269812297E+03 0.  0.
         24    2    3    3    0    0  0.97909656545E+01 -0.29861403386E+02  0.12731545736E+03  0.15391314766E+03  0.80575833345E+02 0.  0.
         -6    2    1    2    0  502  0.20388658955E+02 -0.53474523598E+02  0.14034216138E+04  0.14149669472E+04  0.17106727771E+03 0.  0.
        -24    2    5    5    0    0  0.59410648013E+02 -0.23330973989E+02  0.12394093695E+04  0.12436384455E+04  0.80168812452E+02 0.  0.
          5    1    3    3  501    0 -0.30179624609E+02  0.83335926984E+02  0.59502817248E+02  0.10685673459E+03  0.47000000000E+01 0. -1.
        -11    1    4    4    0    0  0.12405561926E+02  0.23753942981E+02  0.72037609514E+02  0.76860685388E+02  0.00000000000E+00 0.  1.
         12    1    4    4    0    0 -0.26145962717E+01 -0.53615346367E+02  0.55277847849E+02  0.77052462274E+02  0.00000000000E+00 0. -1.
         -5    1    5    5    0  502 -0.39021989058E+02 -0.30143549610E+02  0.16401224429E+03  0.17132850169E+03  0.47000000000E+01 0.  1.
         13    1    6    6    0    0  0.60822853154E+02  0.16058418747E+02  0.79458661256E+03  0.79707288070E+03  0.00000000000E+00 0. -1.
        -14    1    6    6    0    0 -0.14122051412E+01 -0.39389392736E+02  0.44482275695E+03  0.44656556482E+03  0.00000000000E+00 0.  1.
<mgrwt>
<rscale>  2 0.18154561E+03</rscale>
<asrwt>0</asrwt>
<pdfrwt beam="1">  1       21 0.25122893E+00 0.18193368E+03</pdfrwt>
<pdfrwt beam="2">  1       21 0.65766890E-02 0.18193368E+03</pdfrwt>
<totfact> 0.11130171E+04</totfact>
</mgrwt>
</event>
<event>
12    1  0.1071811E-001  0.3243038E+03  0.7546771E-02  0.1075144E+00
         21   -1    0    0  501  502  0.00000000000E+00  0.00000000000E+00  0.12360995993E+04  0.12360995993E+04  0.00000000000E+00 0.  1.
         21   -1    0    0  502  503 -0.00000000000E+00 -0.00000000000E+00 -0.26001106652E+03  0.26001106652E+03  0.00000000000E+00 0. -1.
         -6    2    1    2    0  503 -0.20847801225E+03 -0.15435365208E+03 -0.13426436206E+03  0.33936675343E+03  0.17278525085E+03 0.  0.
        -24    2    3    3    0    0 -0.82493469299E+02 -0.32874461603E+02 -0.10976878720E+03  0.16258603624E+03  0.80617180768E+02 0.  0.
          6    2    1    2  501    0  0.20847801225E+03  0.15435365208E+03  0.11103528948E+04  0.11567439124E+04  0.19464017126E+03 0.  0.
         24    2    5    5    0    0  0.12358069826E+03  0.50116216991E+01  0.61006412932E+03  0.62776231076E+03  0.81301731773E+02 0.  0.
          5    1    5    5  501    0  0.84897313987E+02  0.14934203038E+03  0.50028876553E+03  0.52898160164E+03  0.47000000000E+01 0. -1.
        -13    1    6    6    0    0  0.21111510861E+02  0.35178102254E+02  0.18294927390E+03  0.18749301744E+03  0.00000000000E+00 0.  1.
         14    1    6    6    0    0  0.10246918740E+03 -0.30166480555E+02  0.42711485542E+03  0.44026929332E+03  0.00000000000E+00 0. -1.
         -5    1    3    3    0  503 -0.12598454295E+03 -0.12147919048E+03 -0.24495574857E+02  0.17678071719E+03  0.47000000000E+01 0.  1.
         11    1    4    4    0    0 -0.33053923775E+02 -0.54878831222E+02 -0.45550784593E+02  0.78607391321E+02  0.00000000000E+00 0. -1.
        -12    1    4    4    0    0 -0.49439545524E+02  0.22004369619E+02 -0.64218002609E+02  0.83978644923E+02  0.00000000000E+00 0.  1.
<mgrwt>
<rscale>  2 0.32110004E+03</rscale>
<asrwt>0</asrwt>
<pdfrwt beam="1">  1       21 0.19016917E+00 0.32430376E+03</pdfrwt>
<pdfrwt beam="2">  1       21 0.40001703E-01 0.32430376E+03</pdfrwt>
<totfact> 0.83632869E+02</totfact>
</mgrwt>
</event>
<event>
12    1  0.1071811E-001  0.1918784E+03  0.7546771E-02  0.1156936E+00
         21   -1    0    0  501  502  0.00000000000E+00  0.00000000000E+00  0.33576023385E+03  0.33576023385E+03  0.00000000000E+00 0. -1.
         21   -1    0    0  502  503 -0.00000000000E+00 -0.00000000000E+00 -0.12105236964E+03  0.12105236964E+03  0.00000000000E+00 0. -1.
         -6    2    1    2    0  503  0.56415239342E+02 -0.57421851673E+02  0.35855518751E+02  0.19450463811E+03  0.17339690811E+03 0.  0.
        -24    2    3    3    0    0  0.68795757278E+02 -0.17214195964E+02 -0.33048837784E+02  0.11363540322E+03  0.82411130459E+02 0.  0.
          6    2    1    2  501    0 -0.56415239342E+02  0.57421851673E+02  0.17885234547E+03  0.26230796538E+03  0.17417622956E+03 0.  0.
         24    2    5    5    0    0 -0.39380856943E+02  0.64489309126E+02  0.33630489899E+02  0.11584433005E+03  0.81112120364E+02 0.  0.
          5    1    5    5  501    0 -0.17034382398E+02 -0.70674574528E+01  0.14522185557E+03  0.14646363533E+03  0.47000000000E+01 0. -1.
        -13    1    6    6    0    0  0.13006346382E+02  0.38663197264E+02 -0.11101162850E+02  0.42275804966E+02  0.00000000000E+00 0.  1.
         14    1    6    6    0    0 -0.52387203325E+02  0.25826111862E+02  0.44731652749E+02  0.73568525089E+02  0.00000000000E+00 0. -1.
         -5    1    3    3    0  503 -0.12380517937E+02 -0.40207655710E+02  0.68904356535E+02  0.80869234889E+02  0.47000000000E+01 0.  1.
         13    1    4    4    0    0  0.63587185136E+02 -0.45070579490E+02 -0.13233608025E+02  0.79055775440E+02  0.00000000000E+00 0. -1.
        -14    1    4    4    0    0  0.52085721427E+01  0.27856383526E+02 -0.19815229758E+02  0.34579627778E+02  0.00000000000E+00 0.  1.
<mgrwt>
<rscale>  2 0.19170133E+03</rscale>
<asrwt>0</asrwt>
<pdfrwt beam="1">  1       21 0.51655420E-01 0.19187837E+03</pdfrwt>
<pdfrwt beam="2">  1       21 0.18623442E-01 0.19187837E+03</pdfrwt>
<totfact> 0.93865669E+04</totfact>
</mgrwt>
</event>
<event>
12    1  0.1071811E-001  0.2654211E+03  0.7546771E-02  0.1104060E+00
         21   -1    0    0  503  502  0.00000000000E+00  0.00000000000E+00  0.13470911072E+04  0.13470911072E+04  0.00000000000E+00 0. -1.
         21   -1    0    0  501  503 -0.00000000000E+00 -0.00000000000E+00 -0.55829766262E+02  0.55829766262E+02  0.00000000000E+00 0. -1.
          6    2    1    2  501    0  0.49477666441E+02  0.19554169132E+03  0.46380984990E+03  0.53394198410E+03  0.17114284386E+03 0.  0.
         24    2    3    3    0    0  0.17035628673E+02  0.17863151649E+02  0.12406136264E+03  0.14913908148E+03  0.79005943405E+02 0.  0.
         -6    2    1    2    0  502 -0.49477666441E+02 -0.19554169132E+03  0.82745149103E+03  0.86897888935E+03  0.17252173083E+03 0.  0.
        -24    2    5    5    0    0 -0.60424291694E+02 -0.19289781129E+03  0.82865171965E+03  0.85671719066E+03  0.80249683358E+02 0.  0.
          5    1    3    3  501    0  0.32442037768E+02  0.17767853967E+03  0.33974848725E+03  0.38480290262E+03  0.47000000000E+01 0. -1.
        -11    1    4    4    0    0 -0.18502965479E+02 -0.18073868261E+02  0.17587848016E+02  0.31278696316E+02  0.00000000000E+00 0.  1.
         12    1    4    4    0    0  0.35538594152E+02  0.35937019910E+02  0.10647351463E+03  0.11786038517E+03  0.00000000000E+00 0. -1.
         -5    1    5    5    0  502  0.10946625253E+02 -0.26438800292E+01 -0.12002286131E+01  0.12261698690E+02  0.47000000000E+01 0.  1.
         11    1    6    6    0    0 -0.14776446699E+02 -0.11784151304E+02  0.23357390978E+02  0.30046252883E+02  0.00000000000E+00 0. -1.
        -12    1    6    6    0    0 -0.45647844995E+02 -0.18111365998E+03  0.80529432867E+03  0.82667093778E+03  0.00000000000E+00 0.  1.
<mgrwt>
<rscale>  2 0.26519723E+03</rscale>
<asrwt>0</asrwt>
<pdfrwt beam="1">  1       21 0.20724476E+00 0.26542106E+03</pdfrwt>
<pdfrwt beam="2">  1       21 0.85891958E-02 0.26542106E+03</pdfrwt>
<totfact> 0.12143579E+04</totfact>
</mgrwt>
</event>
<event>
12    1  0.1071811E-001  0.2071691E+03  0.7546771E-02  0.1145060E+00
         21   -1    0    0  503  502  0.00000000000E+00  0.00000000000E+00  0.22693323273E+03  0.22693323273E+03  0.00000000000E+00 0.  1.
         21   -1    0    0  501  503 -0.00000000000E+00 -0.00000000000E+00 -0.87518522914E+03  0.87518522914E+03  0.00000000000E+00 0. -1.
          6    2    1    2  501    0  0.28993137402E+02  0.97108329331E+02 -0.81294637940E+03  0.83746157795E+03  0.17375111255E+03 0.  0.
         24    2    3    3    0    0  0.12892485841E+02  0.86414344826E+00 -0.18591671895E+03  0.20286685737E+03  0.80143449507E+02 0.  0.
         -6    2    1    2    0  502 -0.28993137402E+02 -0.97108329331E+02  0.16469438300E+03  0.26465688392E+03  0.18068867361E+03 0.  0.
        -24    2    5    5    0    0  0.23745882524E+02 -0.10758395668E+03  0.52098979218E+02  0.13979312639E+03  0.68480945368E+02 0.  0.
          5    1    3    3  501    0  0.16100651561E+02  0.96244185883E+02 -0.62702966045E+03  0.63459472057E+03  0.47000000000E+01 0. -1.
        -11    1    4    4    0    0  0.15246607540E+02  0.50951418144E+01  0.79241816896E+00  0.16094950703E+02  0.00000000000E+00 0.  1.
         12    1    4    4    0    0 -0.23541216987E+01 -0.42309983661E+01 -0.18670913712E+03  0.18677190667E+03  0.00000000000E+00 0. -1.
         -5    1    5    5    0  502 -0.52739019926E+02  0.10475627353E+02  0.11259540378E+03  0.12486375753E+03  0.47000000000E+01 0.  1.
         11    1    6    6    0    0 -0.15708971439E+02 -0.67941194993E+02  0.11487507354E+02  0.70673478660E+02  0.00000000000E+00 0. -1.
        -12    1    6    6    0    0  0.39454853963E+02 -0.39642761692E+02  0.40611471864E+02  0.69119647733E+02  0.00000000000E+00 0.  1.
<mgrwt>
<rscale>  2 0.20564684E+03</rscale>
<asrwt>0</asrwt>
<pdfrwt beam="1">  1       21 0.34912805E-01 0.20716908E+03</pdfrwt>
<pdfrwt beam="2">  1       21 0.13464388E+00 0.20716908E+03</pdfrwt>
<totfact> 0.30883447E+03</totfact>
</mgrwt>
</event>
<event>
12    1  0.1071811E-001  0.1821147E+03  0.7546771E-02  0.1166538E+00
         21   -1    0    0  503  502  0.00000000000E+00  0.00000000000E+00  0.47024290049E+02  0.47024290049E+02  0.00000000000E+00 0. -1.
         21   -1    0    0  501  503 -0.00000000000E+00 -0.00000000000E+00 -0.95143447478E+03  0.95143447478E+03  0.00000000000E+00 0. -1.
          6    2    1    2  501    0  0.14425899296E+02  0.43887359762E+02 -0.71527896487E+03  0.73809874172E+03  0.17615773619E+03 0.  0.
         24    2    3    3    0    0  0.30826316296E+02 -0.13473309810E+02 -0.61505746469E+03  0.62136974279E+03  0.81687701231E+02 0.  0.
         -6    2    1    2    0  502 -0.14425899296E+02 -0.43887359762E+02 -0.18913121986E+03  0.26036002311E+03  0.17286560211E+03 0.  0.
        -24    2    5    5    0    0 -0.38410816966E+02 -0.39452614515E+02 -0.20789681217E+03  0.22922835603E+03  0.79326256969E+02 0.  0.
          5    1    3    3  501    0 -0.16400417000E+02  0.57360669572E+02 -0.10022150018E+03  0.11672899893E+03  0.47000000000E+01 0. -1.
        -13    1    4    4    0    0 -0.61616061690E+01 -0.23530098533E+02 -0.56685632224E+02  0.61683805234E+02  0.00000000000E+00 0.  1.
         14    1    4    4    0    0  0.36987922465E+02  0.10056788723E+02 -0.55837183247E+03  0.55968593756E+03  0.00000000000E+00 0. -1.
         -5    1    5    5    0  502  0.23984917670E+02 -0.44347452474E+01  0.18765592306E+02  0.31131667088E+02  0.47000000000E+01 0.  1.
         13    1    6    6    0    0 -0.24670829870E+02 -0.45601739607E+02 -0.54974564281E+02  0.75566998217E+02  0.00000000000E+00 0. -1.
        -14    1    6    6    0    0 -0.13739987096E+02  0.61491250922E+01 -0.15292224789E+03  0.15366135781E+03  0.00000000000E+00 0.  1.
<mgrwt>
<rscale>  2 0.18131378E+03</rscale>
<asrwt>0</asrwt>
<pdfrwt beam="1">  1       21 0.72345057E-02 0.18211468E+03</pdfrwt>
<pdfrwt beam="2">  1       21 0.14637454E+00 0.18211468E+03</pdfrwt>
<totfact> 0.45813300E+04</totfact>
</mgrwt>
</event>
<event>
12    1  0.1071811E-001  0.2198080E+03  0.7546771E-02  0.1134204E+00
         21   -1    0    0  501  502  0.00000000000E+00  0.00000000000E+00  0.16431303045E+03  0.16431303045E+03  0.00000000000E+00 0.  1.
         21   -1    0    0  502  503 -0.00000000000E+00 -0.00000000000E+00 -0.41874581180E+03  0.41874581180E+03  0.00000000000E+00 0.  1.
         -6    2    1    2    0  503  0.91299124185E+02 -0.98614939443E+02 -0.28692009129E+03  0.36086297428E+03  0.17273827329E+03 0.  0.
        -24    2    3    3    0    0 -0.17111441649E+02 -0.19429850199E+02 -0.10442496472E+03  0.13425827361E+03  0.80314321646E+02 0.  0.
          6    2    1    2  501    0 -0.91299124185E+02  0.98614939443E+02  0.32487309937E+02  0.22219586797E+03  0.17394005311E+03 0.  0.
         24    2    5    5    0    0 -0.95459678237E+02  0.10461402535E+02 -0.81970019778E+01  0.12490424698E+03  0.79447397435E+02 0.  0.
          5    1    5    5  501    0  0.41605540519E+01  0.88153536908E+02  0.40684311915E+02  0.97291620992E+02  0.47000000000E+01 0. -1.
        -11    1    6    6    0    0 -0.93502558131E+02  0.42784839569E+01  0.20217560908E+02  0.95758986894E+02  0.00000000000E+00 0.  1.
         12    1    6    6    0    0 -0.19571201058E+01  0.61829185780E+01 -0.28414562886E+02  0.29145260082E+02  0.00000000000E+00 0. -1.
         -5    1    3    3    0  503  0.10841056583E+03 -0.79185089243E+02 -0.18249512657E+03  0.22660470067E+03  0.47000000000E+01 0.  1.
         11    1    4    4    0    0  0.15418433494E+02  0.22065694166E+02 -0.58257986772E+02  0.64176444067E+02  0.00000000000E+00 0. -1.
        -12    1    4    4    0    0 -0.32529875142E+02 -0.41495544365E+02 -0.46166977948E+02  0.70081829541E+02  0.00000000000E+00 0.  1.
<mgrwt>
<rscale>  2 0.21957022E+03</rscale>
<asrwt>0</asrwt>
<pdfrwt beam="1">  1       21 0.25278928E-01 0.21980805E+03</pdfrwt>
<pdfrwt beam="2">  1       21 0.64422432E-01 0.21980805E+03</pdfrwt>
<totfact> 0.32483889E+04</totfact>
</mgrwt>
</event>
<event>
12    1  0.1071811E-001  0.3056015E+03  0.7546771E-02  0.1082512E+00
         21   -1    0    0  501  502  0.00000000000E+00  0.00000000000E+00  0.30358106963E+03  0.30358106963E+03  0.00000000000E+00 0. -1.
         21   -1    0    0  502  503 -0.00000000000E+00 -0.00000000000E+00 -0.55030588583E+03  0.55030588583E+03  0.00000000000E+00 0.  1.
         -6    2    1    2    0  503 -0.28134284984E+02  0.25063963088E+03 -0.40702659763E+03  0.50879432257E+03  0.17201525787E+03 0.  0.
        -24    2    3    3    0    0 -0.14186934942E+02  0.25855473827E+03 -0.41029276467E+03  0.49176683463E+03  0.80266089336E+02 0.  0.
          6    2    1    2  501    0  0.28134284984E+02 -0.25063963088E+03  0.16030178143E+03  0.34509263289E+03  0.17257028014E+03 0.  0.
         24    2    5    5    0    0  0.18636139127E+02 -0.15060730078E+03  0.20727413289E+02  0.17304677830E+03  0.80533825746E+02 0.  0.
          5    1    5    5  501    0  0.94981458566E+01 -0.10003233010E+03  0.13957436814E+03  0.17204585460E+03  0.47000000000E+01 0. -1.
        -11    1    6    6    0    0  0.28090211121E+02 -0.69826196283E+02  0.45594407330E+02  0.87997770585E+02  0.00000000000E+00 0.  1.
         12    1    6    6    0    0 -0.94540719932E+01 -0.80781104493E+02 -0.24866994042E+02  0.85049007713E+02  0.00000000000E+00 0. -1.
         -5    1    3    3    0  503 -0.13947350042E+02 -0.79151073924E+01  0.32661670419E+01  0.17027487935E+02  0.47000000000E+01 0.  1.
         11    1    4    4    0    0  0.89981914887E+01  0.42536459947E+01 -0.19311564435E+01  0.10138556087E+02  0.00000000000E+00 0. -1.
        -12    1    4    4    0    0 -0.23185126430E+02  0.25430109228E+03 -0.40836160823E+03  0.48162827855E+03  0.00000000000E+00 0.  1.
<mgrwt>
<rscale>  2 0.30552318E+03</rscale>
<asrwt>0</asrwt>
<pdfrwt beam="1">  1       21 0.46704781E-01 0.30560148E+03</pdfrwt>
<pdfrwt beam="2">  1       21 0.84662443E-01 0.30560148E+03</pdfrwt>
<totfact> 0.49426937E+03</totfact>
</mgrwt>
</event>
<event>
12    1  0.1071811E-001  0.1770645E+03  0.7546771E-02  0.1170853E+00
         21   -1    0    0  501  502  0.00000000000E+00  0.00000000000E+00  0.21321379388E+03  0.21321379388E+03  0.00000000000E+00 0.  1.
         21   -1    0    0  502  503 -0.00000000000E+00 -0.00000000000E+00 -0.16956882843E+03  0.16956882843E+03  0.00000000000E+00 0.  1.
         -6    2    1    2    0  503 -0.32936895814E+02  0.57285161817E+00  0.92460012383E+02  0.19911236999E+03  0.17323889496E+03 0.  0.
        -24    2    3    3    0    0 -0.48733477562E+01 -0.59743298443E+02  0.23168431430E+02  0.10294057641E+03  0.80417503260E+02 0.  0.
          6    2    1    2  501    0  0.32936895814E+02 -0.57285161817E+00 -0.48815046934E+02  0.18367025232E+03  0.17397323218E+03 0.  0.
         24    2    5    5    0    0  0.36982600811E+02  0.12405933445E+02  0.37176546336E+02  0.96483896138E+02  0.80033909496E+02 0.  0.
          5    1    5    5  501    0 -0.40457049972E+01 -0.12978785063E+02 -0.85991593270E+02  0.87186356179E+02  0.47000000000E+01 0. -1.
        -13    1    6    6    0    0  0.20956143440E+01 -0.29865108518E+02 -0.55483527275E+00  0.29943682947E+02  0.00000000000E+00 0.  1.
         14    1    6    6    0    0  0.34886986467E+02  0.42271041963E+02  0.37731381609E+02  0.66540213191E+02  0.00000000000E+00 0. -1.
         -5    1    3    3    0  503 -0.28063548058E+02  0.60316150061E+02  0.69291580953E+02  0.96171793571E+02  0.47000000000E+01 0.  1.
         13    1    4    4    0    0 -0.13854120383E+02 -0.72839860465E+02  0.36094773458E+02  0.82464626327E+02  0.00000000000E+00 0. -1.
        -14    1    4    4    0    0  0.89807726269E+01  0.13096562023E+02 -0.12926342028E+02  0.20475950088E+02  0.00000000000E+00 0.  1.
<mgrwt>
<rscale>  2 0.17688390E+03</rscale>
<asrwt>0</asrwt>
<pdfrwt beam="1">  1       21 0.32802122E-01 0.17706454E+03</pdfrwt>
<pdfrwt beam="2">  1       21 0.26087512E-01 0.17706454E+03</pdfrwt>
<totfact> 0.12557677E+05</totfact>
</mgrwt>
</event>
<event>
12    1  0.1071811E-001  0.2070840E+03  0.7546771E-02  0.1144120E+00
         21   -1    0    0  503  502  0.00000000000E+00  0.00000000000E+00  0.61218764830E+03  0.61218764830E+03  0.00000000000E+00 0.  1.
         21   -1    0    0  501  503 -0.00000000000E+00 -0.00000000000E+00 -0.76997755559E+02  0.76997755559E+02  0.00000000000E+00 0.  1.
          6    2    1    2  501    0  0.96153795600E+02 -0.59810224263E+02  0.16198232141E+03  0.26291071563E+03  0.17338095804E+03 0.  0.
         24    2    3    3    0    0  0.64511413353E+02 -0.57149578924E+02  0.24015916547E+02  0.12125924808E+03  0.81848910644E+02 0.  0.
         -6    2    1    2    0  502 -0.96153795600E+02  0.59810224263E+02  0.37320757132E+03  0.42627468822E+03  0.17205639538E+03 0.  0.
        -24    2    5    5    0    0 -0.94809114817E+02 -0.21080750572E+02  0.21383230660E+03  0.24747948979E+03  0.78029970039E+02 0.  0.
          5    1    3    3  501    0  0.31642382247E+02 -0.26606453386E+01  0.13796640487E+03  0.14165146755E+03  0.47000000000E+01 0. -1.
        -13    1    4    4    0    0  0.37091558083E+02  0.10814582006E+02 -0.10808207558E+02  0.40119274864E+02  0.00000000000E+00 0.  1.
         14    1    4    4    0    0  0.27419855270E+02 -0.67964160930E+02  0.34824124104E+02  0.81139973217E+02  0.00000000000E+00 0. -1.
         -5    1    5    5    0  502 -0.13446807826E+01  0.80890974835E+02  0.15937526472E+03  0.17879519843E+03  0.47000000000E+01 0.  1.
         13    1    6    6    0    0 -0.33226516764E+02 -0.25838680924E+02  0.25350873647E+02  0.49135584282E+02  0.00000000000E+00 0. -1.
        -14    1    6    6    0    0 -0.61582598054E+02  0.47579303519E+01  0.18848143296E+03  0.19834390551E+03  0.00000000000E+00 0.  1.
<mgrwt>
<rscale>  2 0.20680649E+03</rscale>
<asrwt>0</asrwt>
<pdfrwt beam="1">  1       21 0.94182712E-01 0.20708397E+03</pdfrwt>
<pdfrwt beam="2">  1       21 0.11845809E-01 0.20708397E+03</pdfrwt>
<totfact> 0.56365407E+04</totfact>
</mgrwt>
</event>
<event>
12    1  0.1071811E-001  0.2050201E+03  0.7546771E-02  0.1146311E+00
         21   -1    0    0  501  502  0.00000000000E+00  0.00000000000E+00  0.46244359077E+03  0.46244359077E+03  0.00000000000E+00 0. -1.
         21   -1    0    0  502  503 -0.00000000000E+00 -0.00000000000E+00 -0.11650943352E+03  0.11650943352E+03  0.00000000000E+00 0.  1.
         -6    2    1    2    0  503  0.10471637584E+03 -0.26854723500E+02  0.31165957167E+03  0.37108772149E+03  0.16996385759E+03 0.  0.
        -24    2    3    3    0    0  0.38703418329E+02 -0.76309487659E+02  0.14895285150E+03  0.18860744572E+03  0.77876338605E+02 0.  0.
          6    2    1    2  501    0 -0.10471637584E+03  0.26854723500E+02  0.34274585584E+02  0.20786530279E+03  0.17420258708E+03 0.  0.
         24    2    5    5    0    0 -0.13799324369E+03  0.40763824255E+02  0.42554539540E+02  0.17056301526E+03  0.81098882043E+02 0.  0.
          5    1    5    5  501    0  0.33276867849E+02 -0.13909100754E+02 -0.82799539551E+01  0.37302287532E+02  0.47000000000E+01 0. -1.
        -11    1    6    6    0    0 -0.12058775807E+03  0.60998972383E+02  0.22094464333E+02  0.13693227297E+03  0.00000000000E+00 0.  1.
         12    1    6    6    0    0 -0.17405485620E+02 -0.20235148128E+02  0.20460075207E+02  0.33630742289E+02  0.00000000000E+00 0. -1.
         -5    1    3    3    0  503  0.66012957509E+02  0.49454764158E+02  0.16270672016E+03  0.18248027577E+03  0.47000000000E+01 0.  1.
         13    1    4    4    0    0 -0.18782705106E+02 -0.42961438287E+02  0.80774472942E+02  0.93396952144E+02  0.00000000000E+00 0. -1.
        -14    1    4    4    0    0  0.57486123435E+02 -0.33348049371E+02  0.68178378560E+02  0.95210493579E+02  0.00000000000E+00 0.  1.
<mgrwt>
<rscale>  2 0.20411684E+03</rscale>
<asrwt>0</asrwt>
<pdfrwt beam="1">  1       21 0.71145167E-01 0.20502009E+03</pdfrwt>
<pdfrwt beam="2">  1       21 0.17924528E-01 0.20502009E+03</pdfrwt>
<totfact> 0.50274150E+04</totfact>
</mgrwt>
</event>
<event>
12    1  0.1071811E-001  0.1869211E+03  0.7546771E-02  0.1161501E+00
         21   -1    0    0  503  502  0.00000000000E+00  0.00000000000E+00  0.10273497535E+03  0.10273497535E+03  0.00000000000E+00 0.  1.
         21   -1    0    0  501  503 -0.00000000000E+00 -0.00000000000E+00 -0.37460820238E+03  0.37460820238E+03  0.00000000000E+00 0.  1.
          6    2    1    2  501    0 -0.91950310173E+01  0.67133300636E+02 -0.61922754836E+02  0.19691093466E+03  0.17420694582E+03 0.  0.
         24    2    3    3    0    0  0.27271652923E+02  0.10138861128E+03 -0.29120069470E+02  0.13689967312E+03  0.82886358965E+02 0.  0.
         -6    2    1    2    0  502  0.91950310173E+01 -0.67133300636E+02 -0.20995047219E+03  0.28043224307E+03  0.17312311669E+03 0.  0.
        -24    2    5    5    0    0 -0.12930734807E+02 -0.58092870118E+02 -0.23291282226E+03  0.24695630518E+03  0.56542448059E+02 0.  0.
          5    1    3    3  501    0 -0.36466683940E+02 -0.34255310645E+02 -0.32802685366E+02  0.60011261545E+02  0.47000000000E+01 0. -1.
        -13    1    4    4    0    0 -0.22014289238E+02  0.50741485052E+02 -0.35845060445E+02  0.65910512016E+02  0.00000000000E+00 0.  1.
         14    1    4    4    0    0  0.49285942161E+02  0.50647126230E+02  0.67249909746E+01  0.70989161100E+02  0.00000000000E+00 0. -1.
         -5    1    5    5    0  502  0.22125765825E+02 -0.90404305185E+01  0.22962350070E+02  0.33475937896E+02  0.47000000000E+01 0.  1.
         11    1    6    6    0    0 -0.11703850169E+02  0.84609804603E+01 -0.58945776731E+02  0.60689149718E+02  0.00000000000E+00 0. -1.
        -12    1    6    6    0    0 -0.12268846386E+01 -0.66553850578E+02 -0.17396704553E+03  0.18626715546E+03  0.00000000000E+00 0.  1.
<mgrwt>
<rscale>  2 0.18666814E+03</rscale>
<asrwt>0</asrwt>
<pdfrwt beam="1">  1       21 0.15805381E-01 0.18692108E+03</pdfrwt>
<pdfrwt beam="2">  1       21 0.57632031E-01 0.18692108E+03</pdfrwt>
<totfact> 0.10093100E+05</totfact>
</mgrwt>
</event>
<event>
12    1  0.1071811E-001  0.2471672E+03  0.7546771E-02  0.1115344E+00
         21   -1    0    0  503  502  0.00000000000E+00  0.00000000000E+00  0.89873678040E+03  0.89873678040E+03  0.00000000000E+00 0.  1.
         21   -1    0    0  501  503 -0.00000000000E+00 -0.00000000000E+00 -0.26803363654E+03  0.26803363654E+03  0.00000000000E+00 0. -1.
          6    2    1    2  501    0  0.22942202554E+02  0.17360568965E+03 -0.18892862517E+03  0.31110393731E+03  0.17443151741E+03 0.  0.
         24    2    3    3    0    0  0.14484060016E+02  0.12798895608E+03 -0.44142249883E+02  0.15899341491E+03  0.82093890682E+02 0.  0.
         -6    2    1    2    0  502 -0.22942202554E+02 -0.17360568965E+03  0.81963176902E+03  0.85566647963E+03  0.17234734530E+03 0.  0.
        -24    2    5    5    0    0 -0.30863029463E+02 -0.99932231112E+02  0.71553059013E+03  0.72780067717E+03  0.82285010026E+02 0.  0.
          5    1    3    3  501    0  0.84581425385E+01  0.45616733571E+02 -0.14478637528E+03  0.15211052240E+03  0.47000000000E+01 0. -1.
        -13    1    4    4    0    0 -0.25609667603E+02  0.99633060106E+02 -0.37231060853E+02  0.10940179904E+03  0.00000000000E+00 0.  1.
         14    1    4    4    0    0  0.40093727618E+02  0.28355895970E+02 -0.69111890302E+01  0.49591615868E+02  0.00000000000E+00 0. -1.
         -5    1    5    5    0  502  0.79208269094E+01 -0.73673458535E+02  0.10410117889E+03  0.12786580246E+03  0.47000000000E+01 0.  1.
         13    1    6    6    0    0 -0.59636869849E+01 -0.43657575915E+02  0.54002045575E+03  0.54181513649E+03  0.00000000000E+00 0. -1.
        -14    1    6    6    0    0 -0.24899342479E+02 -0.56274655197E+02  0.17551013438E+03  0.18598554068E+03  0.00000000000E+00 0.  1.
<mgrwt>
<rscale>  2 0.24679980E+03</rscale>
<asrwt>0</asrwt>
<pdfrwt beam="1">  1       21 0.13826720E+00 0.24716722E+03</pdfrwt>
<pdfrwt beam="2">  1       21 0.41235944E-01 0.24716722E+03</pdfrwt>
<totfact> 0.19981039E+03</totfact>
</mgrwt>
</event>
<event>
12    1  0.1071811E-001  0.2019191E+03  0.7546771E-02  0.1148325E+00
         21   -1    0    0  503  502  0.00000000000E+00  0.00000000000E+00  0.37822596430E+03  0.37822596430E+03  0.00000000000E+00 0. -1.
         21   -1    0    0  501  503 -0.00000000000E+00 -0.00000000000E+00 -0.10906770642E+03  0.10906770642E+03  0.00000000000E+00 0. -1.
          6    2    1    2  501    0  0.94574256658E+02 -0.40648266357E+02  0.10384030004E+03  0.22705536185E+03  0.17370883067E+03 0.  0.
         24    2    3    3    0    0  0.36277821012E+01  0.60393910738E+01  0.94837692658E+02  0.12432203946E+03  0.80075879628E+02 0.  0.
         -6    2    1    2    0  502 -0.94574256658E+02  0.40648266357E+02  0.16531795783E+03  0.26023830886E+03  0.17261917227E+03 0.  0.
        -24    2    5    5    0    0 -0.68722033713E+01 -0.50779227197E+01  0.21048351773E+02  0.85257327750E+02  0.82175217337E+02 0.  0.
          5    1    3    3  501    0  0.90946474557E+02 -0.46687657431E+02  0.90026073861E+01  0.10273332240E+03  0.47000000000E+01 0. -1.
        -13    1    4    4    0    0  0.14920558924E+02  0.14364735708E+02 -0.67395222916E+01  0.21780492907E+02  0.00000000000E+00 0.  1.
         14    1    4    4    0    0 -0.11292776823E+02 -0.83253446338E+01  0.10157721495E+03  0.10254154655E+03  0.00000000000E+00 0. -1.
         -5    1    5    5    0  502 -0.87702053286E+02  0.45726189077E+02  0.14426960606E+03  0.17498098111E+03  0.47000000000E+01 0.  1.
         13    1    6    6    0    0 -0.42432325385E+02 -0.13389033907E+02  0.19843751565E+02  0.48719020339E+02  0.00000000000E+00 0. -1.
        -14    1    6    6    0    0  0.35560122014E+02  0.83111111873E+01  0.12046002085E+01  0.36538307411E+02  0.00000000000E+00 0.  1.
<mgrwt>
<rscale>  2 0.20168454E+03</rscale>
<asrwt>0</asrwt>
<pdfrwt beam="1">  1       21 0.58188609E-01 0.20191912E+03</pdfrwt>
<pdfrwt beam="2">  1       21 0.16779647E-01 0.20191912E+03</pdfrwt>
<totfact> 0.88073193E+04</totfact>
</mgrwt>
</event>
<event>
12    1  0.1071811E-001  0.2063093E+03  0.7546771E-02  0.1146016E+00
         21   -1    0    0  501  502  0.00000000000E+00  0.00000000000E+00  0.47279557997E+03  0.47279557997E+03  0.00000000000E+00 0. -1.
         21   -1    0    0  502  503 -0.00000000000E+00 -0.00000000000E+00 -0.10556957303E+03  0.10556957303E+03  0.00000000000E+00 0. -1.
         -6    2    1    2    0  503 -0.10728401929E+03  0.10511467913E+01  0.59313816742E+02  0.20772591805E+03  0.16769306029E+03 0.  0.
        -24    2    3    3    0    0 -0.12483971847E+03 -0.30773451881E+02  0.73369875924E+02  0.16847454286E+03  0.80427434686E+02 0.  0.
          6    2    1    2  501    0  0.10728401929E+03 -0.10511467913E+01  0.30791219019E+03  0.37063923496E+03  0.17621736554E+03 0.  0.
         24    2    5    5    0    0  0.97935902491E+02  0.81486746258E+01  0.97924116161E+02  0.16018946604E+03  0.80085520599E+02 0.  0.
          5    1    5    5  501    0  0.93481167966E+01 -0.91998214171E+01  0.20998807403E+03  0.21044976892E+03  0.47000000000E+01 0. -1.
        -11    1    6    6    0    0  0.47069212716E+01  0.28990566679E+02  0.35488849189E+02  0.46065892817E+02  0.00000000000E+00 0.  1.
         12    1    6    6    0    0  0.93228981219E+02 -0.20841892053E+02  0.62435266972E+02  0.11412357322E+03  0.00000000000E+00 0. -1.
         -5    1    3    3    0  503  0.17555699182E+02  0.31824598673E+02 -0.14056059182E+02  0.39251375188E+02  0.47000000000E+01 0.  1.
         11    1    4    4    0    0 -0.66146275070E+02 -0.50257574581E+02  0.16997605094E+02  0.84794292776E+02  0.00000000000E+00 0. -1.
        -12    1    4    4    0    0 -0.58693443399E+02  0.19484122700E+02  0.56372270829E+02  0.83680250082E+02  0.00000000000E+00 0.  1.
<mgrwt>
<rscale>  2 0.20447713E+03</rscale>
<asrwt>0</asrwt>
<pdfrwt beam="1">  1       21 0.72737780E-01 0.20630930E+03</pdfrwt>
<pdfrwt beam="2">  1       21 0.16241473E-01 0.20630930E+03</pdfrwt>
<totfact> 0.57367752E+04</totfact>
</mgrwt>
</event>
<event>
12    1  0.1071811E-001  0.2198245E+03  0.7546771E-02  0.1134208E+00
         21   -1    0    0  501  502  0.00000000000E+00  0.00000000000E+00  0.25538039819E+03  0.25538039819E+03  0.00000000000E+00 0.  1.
         21   -1    0    0  502  503 -0.00000000000E+00 -0.00000000000E+00 -0.27562784647E+03  0.27562784647E+03  0.00000000000E+00 0. -1.
         -6    2    1    2    0  503  0.53789774317E+02  0.12243024648E+03 -0.15953195502E+03  0.27077187850E+03  0.17316021609E+03 0.  0.
        -24    2    3    3    0    0  0.18051983711E+02  0.87159363144E+02 -0.19869629378E+02  0.12228322542E+03  0.81460151898E+02 0.  0.
          6    2    1    2  501    0 -0.53789774317E+02 -0.12243024648E+03  0.13928450674E+03  0.26023636616E+03  0.17447145149E+03 0.  0.
         24    2    5    5    0    0  0.12557190914E+02 -0.22485511844E+02  0.10683052206E+03  0.13587310431E+03  0.79909065483E+02 0.  0.
          5    1    5    5  501    0 -0.66346965231E+02 -0.99944734633E+02  0.32453984678E+02  0.12436326185E+03  0.47000000000E+01 0. -1.
        -11    1    6    6    0    0 -0.17096355134E+02 -0.27193794062E+02  0.10006649978E+03  0.10509563346E+03  0.00000000000E+00 0.  1.
         12    1    6    6    0    0  0.29653546048E+02  0.47082822184E+01  0.67640222758E+01  0.30777470851E+02  0.00000000000E+00 0. -1.
         -5    1    3    3    0  503  0.35737790605E+02  0.35270883332E+02 -0.13966232565E+03  0.14848865308E+03  0.47000000000E+01 0.  1.
         13    1    4    4    0    0  0.15250063307E+02 -0.22338590741E+01 -0.28530718667E+02  0.32427711373E+02  0.00000000000E+00 0. -1.
        -14    1    4    4    0    0  0.28019204045E+01  0.89393222218E+02  0.86610892898E+01  0.89855514044E+02  0.00000000000E+00 0.  1.
<mgrwt>
<rscale>  2 0.21956418E+03</rscale>
<asrwt>0</asrwt>
<pdfrwt beam="1">  1       21 0.39289292E-01 0.21982446E+03</pdfrwt>
<pdfrwt beam="2">  1       21 0.42404284E-01 0.21982446E+03</pdfrwt>
<totfact> 0.32947275E+04</totfact>
</mgrwt>
</event>
<event>
12    1  0.1071811E-001  0.1848399E+03  0.7546771E-02  0.1163305E+00
         21   -1    0    0  503  502  0.00000000000E+00  0.00000000000E+00  0.80056876376E+03  0.80056876376E+03  0.00000000000E+00 0. -1.
         21   -1    0    0  501  503 -0.00000000000E+00 -0.00000000000E+00 -0.55668267077E+02  0.55668267077E+02  0.00000000000E+00 0. -1.
          6    2    1    2  501    0  0.14160436987E+02 -0.65200686004E+02  0.16445300166E+03  0.24706949307E+03  0.17189210924E+03 0.  0.
         24    2    3    3    0    0 -0.52957642165E+02 -0.66691956064E+02  0.11169886584E+03  0.16155838688E+03  0.79825728147E+02 0.  0.
         -6    2    1    2    0  502 -0.14160436987E+02  0.65200686004E+02  0.58044749502E+03  0.60916753777E+03  0.17237791959E+03 0.  0.
        -24    2    5    5    0    0  0.31987023980E+02  0.90754876277E+02  0.34612953974E+03  0.36893931511E+03  0.83969891517E+02 0.  0.
          5    1    3    3  501    0  0.67118079152E+02  0.14912700593E+01  0.52754135822E+02  0.85511106190E+02  0.47000000000E+01 0. -1.
        -13    1    4    4    0    0 -0.15480021449E+02  0.60648280324E+00  0.74358054951E+02  0.75954718231E+02  0.00000000000E+00 0.  1.
         14    1    4    4    0    0 -0.37477620716E+02 -0.67298438867E+02  0.37340810891E+02  0.85603668651E+02  0.00000000000E+00 0. -1.
         -5    1    5    5    0  502 -0.46147460967E+02 -0.25554190273E+02  0.23431795528E+03  0.24022822266E+03  0.47000000000E+01 0.  1.
         11    1    6    6    0    0  0.25770015407E+01  0.45721292413E+02  0.27989512835E+03  0.28361657285E+03  0.00000000000E+00 0. -1.
        -12    1    6    6    0    0  0.29410022439E+02  0.45033583865E+02  0.66234411386E+02  0.85322742262E+02  0.00000000000E+00 0.  1.
<mgrwt>
<rscale>  2 0.18472657E+03</rscale>
<asrwt>0</asrwt>
<pdfrwt beam="1">  1       21 0.12316442E+00 0.18483992E+03</pdfrwt>
<pdfrwt beam="2">  1       21 0.85643494E-02 0.18483992E+03</pdfrwt>
<totfact> 0.52952071E+04</totfact>
</mgrwt>
</event>
<event>
12    1  0.1071811E-001  0.1766364E+03  0.7546771E-02  0.1171686E+00
         21   -1    0    0  503  502  0.00000000000E+00  0.00000000000E+00  0.20969313745E+04  0.20969313745E+04  0.00000000000E+00 0. -1.
         21   -1    0    0  501  503 -0.00000000000E+00 -0.00000000000E+00 -0.32500761375E+02  0.32500761375E+02  0.00000000000E+00 0. -1.
          6    2    1    2  501    0 -0.16046623074E+02 -0.16691297676E+02  0.24697808804E+03  0.30364218815E+03  0.17511227519E+03 0.  0.
         24    2    3    3    0    0  0.18115263284E+01 -0.60288057332E+02  0.23517428701E+03  0.25484658721E+03  0.77471970783E+02 0.  0.
         -6    2    1    2    0  502  0.16046623074E+02  0.16691297676E+02  0.18174525251E+04  0.18257899477E+04  0.17274014802E+03 0.  0.
        -24    2    5    5    0    0  0.32162924482E+02 -0.45606814733E+02  0.13909178231E+04  0.13944029614E+04  0.81196014994E+02 0.  0.
          5    1    3    3  501    0 -0.17858149402E+02  0.43596759656E+02  0.11803801029E+02  0.48795600942E+02  0.47000000000E+01 0. -1.
        -11    1    4    4    0    0  0.79957526777E+01 -0.28430503288E+01  0.15906586162E+03  0.15929206926E+03  0.00000000000E+00 0.  1.
         12    1    4    4    0    0 -0.61842263493E+01 -0.57445007003E+02  0.76108425386E+02  0.95554517946E+02  0.00000000000E+00 0. -1.
         -5    1    5    5    0  502 -0.16116301408E+02  0.62298112409E+02  0.42653470196E+03  0.43138698631E+03  0.47000000000E+01 0.  1.
         13    1    6    6    0    0  0.20454668564E+01  0.16567805728E+02  0.66396177729E+03  0.66417160269E+03  0.00000000000E+00 0. -1.
        -14    1    6    6    0    0  0.30117457626E+02 -0.62174620461E+02  0.72695604583E+03  0.73023135872E+03  0.00000000000E+00 0.  1.
<mgrwt>
<rscale>  2 0.17604555E+03</rscale>
<asrwt>0</asrwt>
<pdfrwt beam="1">  1       21 0.32260472E+00 0.17663636E+03</pdfrwt>
<pdfrwt beam="2">  1       21 0.50001188E-02 0.17663636E+03</pdfrwt>
<totfact> 0.69344001E+03</totfact>
</mgrwt>
</event>
<event>
12    1  0.1071811E-001  0.2024038E+03  0.7546771E-02  0.1147836E+00
         21   -1    0    0  503  502  0.00000000000E+00  0.00000000000E+00  0.29289417271E+03  0.29289417271E+03  0.00000000000E+00 0.  1.
         21   -1    0    0  501  503 -0.00000000000E+00 -0.00000000000E+00 -0.19355805043E+03  0.19355805043E+03  0.00000000000E+00 0.  1.
          6    2    1    2  501    0  0.10364590608E+03  0.11240081556E+02 -0.78909707544E+02  0.21675078541E+03  0.17287379140E+03 0.  0.
         24    2    3    3    0    0  0.34417833423E+02  0.27439598491E+02 -0.10596048423E+03  0.14053540041E+03  0.81148356274E+02 0.  0.
         -6    2    1    2    0  502 -0.10364590608E+03 -0.11240081556E+02  0.17824582983E+03  0.26970143772E+03  0.17348912467E+03 0.  0.
        -24    2    5    5    0    0 -0.92636247050E+02  0.41445352494E+00  0.34933437254E+02  0.12541847738E+03  0.76992229415E+02 0.  0.
          5    1    3    3  501    0  0.69228072652E+02 -0.16199516935E+02  0.27050776691E+02  0.76215385006E+02  0.47000000000E+01 0. -1.
        -11    1    4    4    0    0  0.46855919479E+02  0.43407109428E+02 -0.10131636649E+03  0.11976919662E+03  0.00000000000E+00 0.  1.
         12    1    4    4    0    0 -0.12438086055E+02 -0.15967510937E+02 -0.46441177397E+01  0.20766203790E+02  0.00000000000E+00 0. -1.
         -5    1    5    5    0  502 -0.11009659026E+02 -0.11654535081E+02  0.14331239257E+03  0.14428296034E+03  0.47000000000E+01 0.  1.
         13    1    6    6    0    0 -0.37904009426E+02 -0.30401641707E+02 -0.81263677034E+01  0.49264709489E+02  0.00000000000E+00 0. -1.
        -14    1    6    6    0    0 -0.54732237624E+02  0.30816095232E+02  0.43059804957E+02  0.76153767889E+02  0.00000000000E+00 0.  1.
<mgrwt>
<rscale>  2 0.20227185E+03</rscale>
<asrwt>0</asrwt>
<pdfrwt beam="1">  1       21 0.45060642E-01 0.20240378E+03</pdfrwt>
<pdfrwt beam="2">  1       21 0.29778162E-01 0.20240378E+03</pdfrwt>
<totfact> 0.50848341E+04</totfact>
</mgrwt>
</event>
<event>
12    1  0.1071811E-001  0.2106905E+03  0.7546771E-02  0.1142420E+00
         21   -1    0    0  501  502  0.00000000000E+00  0.00000000000E+00  0.28062404412E+03  0.28062404412E+03  0.00000000000E+00 0. -1.
         21   -1    0    0  502  503 -0.00000000000E+00 -0.00000000000E+00 -0.37024815257E+03  0.37024815257E+03  0.00000000000E+00 0.  1.
         -6    2    1    2    0  503 -0.56614600209E+02 -0.92733315558E+02 -0.29377488370E+03  0.35749865434E+03  0.17232795706E+03 0.  0.
        -24    2    3    3    0    0 -0.10383025334E+03 -0.52016440469E+02 -0.18615823890E+03  0.23303735892E+03  0.78518081717E+02 0.  0.
          6    2    1    2  501    0  0.56614600209E+02  0.92733315558E+02  0.20415077525E+03  0.29337354236E+03  0.18051541637E+03 0.  0.
         24    2    5    5    0    0  0.40942244821E+02  0.40533144833E+02  0.34620864892E+02  0.11523606440E+03  0.93603114322E+02 0.  0.
          5    1    5    5  501    0  0.15672355389E+02  0.52200170724E+02  0.16952991036E+03  0.17813747796E+03  0.47000000000E+01 0. -1.
        -11    1    6    6    0    0  0.32290392531E+02  0.66726143227E+02  0.43875550524E+02  0.86140069500E+02  0.00000000000E+00 0.  1.
         12    1    6    6    0    0  0.86518522898E+01 -0.26192998394E+02 -0.92546856314E+01  0.29095994897E+02  0.00000000000E+00 0. -1.
         -5    1    3    3    0  503  0.47215653127E+02 -0.40716875088E+02 -0.10761664481E+03  0.12446129541E+03  0.47000000000E+01 0.  1.
         11    1    4    4    0    0 -0.43965573579E+02  0.62113490304E+01 -0.23604962287E+02  0.50286645956E+02  0.00000000000E+00 0. -1.
        -12    1    4    4    0    0 -0.59864679757E+02 -0.58227789500E+02 -0.16255327661E+03  0.18275071297E+03  0.00000000000E+00 0.  1.
<mgrwt>
<rscale>  2 0.20892570E+03</rscale>
<asrwt>0</asrwt>
<pdfrwt beam="1">  1       21 0.43172930E-01 0.21069052E+03</pdfrwt>
<pdfrwt beam="2">  1       21 0.56961254E-01 0.21069052E+03</pdfrwt>
<totfact> 0.14768253E+04</totfact>
</mgrwt>
</event>
<event>
11    1  0.1071811E-001  0.3353125E+03  0.7546771E-02  0.1069777E+00
         21   -1    0    0  501  502  0.00000000000E+00  0.00000000000E+00  0.34953923134E+03  0.34953923134E+03  0.00000000000E+00 0. -1.
         21   -1    0    0  502  503 -0.00000000000E+00 -0.00000000000E+00 -0.44845377727E+03  0.44845377727E+03  0.00000000000E+00 0.  1.
         -6    2    1    2    0  503  0.26979072612E+03  0.97746477833E+02  0.17003991013E+03  0.36814307712E+03  0.15580226046E+03 0.  0.
          6    2    1    2  501    0 -0.26979072612E+03 -0.97746477833E+02 -0.26895445607E+03  0.42984993148E+03  0.17347349749E+03 0.  0.
         24    2    4    4    0    0 -0.25996680905E+03 -0.42986988734E+02 -0.24723232409E+03  0.36994123420E+03  0.79385588609E+02 0.  0.
          5    1    4    4  501    0 -0.98239170749E+01 -0.54759489099E+02 -0.21722131976E+02  0.59908697287E+02  0.47000000000E+01 0. -1.
        -11    1    5    5    0    0 -0.15052219066E+03 -0.64055907891E+02 -0.15314390429E+03  0.22408289680E+03  0.00000000000E+00 0.  1.
         12    1    5    5    0    0 -0.10944461839E+03  0.21068919157E+02 -0.94088419802E+02  0.14585833740E+03  0.00000000000E+00 0. -1.
         -5    1    3    3    0  503  0.11941784773E+03  0.49460476702E+02 -0.42355792417E+01  0.12941016669E+03  0.47000000000E+01 0.  1.
         11    1    3    3    0    0  0.11769521559E+03  0.39091934179E+02  0.10878908726E+03  0.16497093258E+03  0.00000000000E+00 0. -1.
        -12    1    3    3    0    0  0.32677662801E+02  0.91940669516E+01  0.65486402115E+02  0.73761977842E+02  0.00000000000E+00 0.  1.
<mgrwt>
<rscale>  2 0.33309259E+03</rscale>
<asrwt>0</asrwt>
<pdfrwt beam="1">  1       21 0.53775266E-01 0.33531249E+03</pdfrwt>
<pdfrwt beam="2">  1       21 0.68992889E-01 0.33531249E+03</pdfrwt>
<totfact> 0.57606604E+03</totfact>
</mgrwt>
</event>
<event>
12    1  0.1071811E-001  0.2738258E+03  0.7546771E-02  0.1099229E+00
         21   -1    0    0  501  502  0.00000000000E+00  0.00000000000E+00  0.62092679760E+03  0.62092679760E+03  0.00000000000E+00 0. -1.
         21   -1    0    0  502  503 -0.00000000000E+00 -0.00000000000E+00 -0.16030534602E+03  0.16030534602E+03  0.00000000000E+00 0.  1.
         -6    2    1    2    0  503 -0.18173191020E+03  0.11017902967E+03  0.35647440319E+02  0.27613640781E+03  0.17266925016E+03 0.  0.
        -24    2    3    3    0    0 -0.13321586816E+03  0.14460299731E+03  0.45808783248E+02  0.21560411251E+03  0.75698047189E+02 0.  0.
          6    2    1    2  501    0  0.18173191020E+03 -0.11017902967E+03  0.42497401126E+03  0.50509573582E+03  0.17132684068E+03 0.  0.
         24    2    5    5    0    0  0.11687294273E+03  0.13994825328E+01  0.19349514917E+03  0.24002781313E+03  0.80695322231E+02 0.  0.
          5    1    5    5  501    0  0.64858967473E+02 -0.11157851220E+03  0.23147886209E+03  0.26506792269E+03  0.47000000000E+01 0. -1.
        -11    1    6    6    0    0  0.57817816732E+02 -0.36902776829E+02  0.70805629411E+02  0.98580687894E+02  0.00000000000E+00 0.  1.
         12    1    6    6    0    0  0.59055125997E+02  0.38302259362E+02  0.12268951976E+03  0.14144712524E+03  0.00000000000E+00 0. -1.
         -5    1    3    3    0  503 -0.48516042037E+02 -0.34423967641E+02 -0.10161342929E+02  0.60532295291E+02  0.47000000000E+01 0.  1.
         13    1    4    4    0    0  0.55592732140E+00  0.10526298580E+02 -0.13508932856E+02  0.17134855817E+02  0.00000000000E+00 0. -1.
        -14    1    4    4    0    0 -0.13377179549E+03  0.13407669873E+03  0.59317716103E+02  0.19846925670E+03  0.00000000000E+00 0.  1.
<mgrwt>
<rscale>  2 0.27361444E+03</rscale>
<asrwt>0</asrwt>
<pdfrwt beam="1">  1       21 0.95527199E-01 0.27382581E+03</pdfrwt>
<pdfrwt beam="2">  1       21 0.24662361E-01 0.27382581E+03</pdfrwt>
<totfact> 0.13568094E+04</totfact>
</mgrwt>
</event>
<event>
12    1  0.1071811E-001  0.2110271E+03  0.7546771E-02  0.1140933E+00
         21   -1    0    0  501  502  0.00000000000E+00  0.00000000000E+00  0.35174054763E+03  0.35174054763E+03  0.00000000000E+00 0.  1.
         21   -1    0    0  502  503 -0.00000000000E+00 -0.00000000000E+00 -0.59636574034E+03  0.59636574034E+03  0.00000000000E+00 0.  1.
         -6    2    1    2    0  503 -0.50619506427E+02  0.10765829734E+03 -0.54334486539E+03  0.58288597916E+03  0.17429795909E+03 0.  0.
        -24    2    3    3    0    0 -0.24221374755E+02  0.36105020102E+02 -0.11663276219E+03  0.14938621923E+03  0.82600204663E+02 0.  0.
          6    2    1    2  501    0  0.50619506427E+02 -0.10765829734E+03  0.29871967268E+03  0.36522030881E+03  0.17320446792E+03 0.  0.
         24    2    5    5    0    0  0.76205527823E+02 -0.81963122576E+02  0.29791035068E+03  0.32864666394E+03  0.82053743021E+02 0.  0.
          5    1    5    5  501    0 -0.25586021397E+02 -0.25695174764E+02  0.80932199499E+00  0.36573644871E+02  0.47000000000E+01 0. -1.
        -11    1    6    6    0    0 -0.87848942585E+01 -0.45338587376E+02  0.95229929193E+02  0.10583714512E+03  0.00000000000E+00 0.  1.
         12    1    6    6    0    0  0.84990422082E+02 -0.36624535199E+02  0.20268042149E+03  0.22280951883E+03  0.00000000000E+00 0. -1.
         -5    1    3    3    0  503 -0.26398131672E+02  0.71553277237E+02 -0.42671210320E+03  0.43349975993E+03  0.47000000000E+01 0.  1.
         11    1    4    4    0    0 -0.55055053469E+02  0.23462163800E+02 -0.70499761983E+02  0.92475664270E+02  0.00000000000E+00 0. -1.
        -12    1    4    4    0    0  0.30833678714E+02  0.12642856302E+02 -0.46133000204E+02  0.56910554964E+02  0.00000000000E+00 0.  1.
<mgrwt>
<rscale>  2 0.21080114E+03</rscale>
<asrwt>0</asrwt>
<pdfrwt beam="1">  1       21 0.54113931E-01 0.21102706E+03</pdfrwt>
<pdfrwt beam="2">  1       21 0.91748574E-01 0.21102706E+03</pdfrwt>
<totfact> 0.31943328E+03</totfact>
</mgrwt>
</event>
<event>
12    1  0.1071811E-001  0.1792980E+03  0.7546771E-02  0.1168669E+00
         21   -1    0    0  501  502  0.00000000000E+00  0.00000000000E+00  0.84287863976E+02  0.84287863976E+02  0.00000000000E+00 0. -1.
         21   -1    0    0  502  503 -0.00000000000E+00 -0.00000000000E+00 -0.39365547463E+03  0.39365547463E+03  0.00000000000E+00 0. -1.
         -6    2    1    2    0  503  0.15381859354E+02  0.44222682175E+02 -0.19983992763E+03  0.26848421112E+03  0.17307665275E+03 0.  0.
        -24    2    3    3    0    0  0.31834871572E+02  0.88896470996E+02 -0.17564474714E+03  0.21487501622E+03  0.80025957002E+02 0.  0.
          6    2    1    2  501    0 -0.15381859354E+02 -0.44222682175E+02 -0.10952768302E+03  0.20945912749E+03  0.17229209362E+03 0.  0.
         24    2    5    5    0    0  0.28845360775E+02 -0.80022680262E+02 -0.52874020316E+02  0.12902645775E+03  0.81341751768E+02 0.  0.
          5    1    5    5  501    0 -0.44227220129E+02  0.35799998087E+02 -0.56653662702E+02  0.80432669736E+02  0.47000000000E+01 0. -1.
        -13    1    6    6    0    0  0.53878819358E+02 -0.51345660324E+02 -0.52283924311E+02  0.90955553711E+02  0.00000000000E+00 0.  1.
         14    1    6    6    0    0 -0.25033458582E+02 -0.28677019938E+02 -0.59009600524E+00  0.38070904039E+02  0.00000000000E+00 0. -1.
         -5    1    3    3    0  503 -0.16453012218E+02 -0.44673788820E+02 -0.24195180496E+02  0.53609194900E+02  0.47000000000E+01 0.  1.
         13    1    4    4    0    0  0.31372174042E+02  0.17110973750E+02 -0.11651320684E+03  0.12187011978E+03  0.00000000000E+00 0. -1.
        -14    1    4    4    0    0  0.46269753013E+00  0.71785497245E+02 -0.59131540299E+02  0.93004896440E+02  0.00000000000E+00 0.  1.
<mgrwt>
<rscale>  2 0.17910840E+03</rscale>
<asrwt>0</asrwt>
<pdfrwt beam="1">  1       21 0.12967364E-01 0.17929801E+03</pdfrwt>
<pdfrwt beam="2">  1       21 0.60562381E-01 0.17929801E+03</pdfrwt>
<totfact> 0.13029034E+05</totfact>
</mgrwt>
</event>
<event>
12    1  0.1071811E-001  0.1790342E+03  0.7546771E-02  0.1169320E+00
         21   -1    0    0  501  502  0.00000000000E+00  0.00000000000E+00  0.38818848282E+03  0.38818848282E+03  0.00000000000E+00 0.  1.
         21   -1    0    0  502  503 -0.00000000000E+00 -0.00000000000E+00 -0.33279661807E+03  0.33279661807E+03  0.00000000000E+00 0.  1.
         -6    2    1    2    0  503  0.11455317674E+02  0.34652665002E+02 -0.28552253530E+03  0.33701095041E+03  0.17527473017E+03 0.  0.
        -24    2    3    3    0    0  0.40167807493E+02  0.49947197515E+02 -0.28598001309E+03  0.30413802717E+03  0.81284662667E+02 0.  0.
          6    2    1    2  501    0 -0.11455317674E+02 -0.34652665002E+02  0.34091440005E+03  0.38397415048E+03  0.17286262921E+03 0.  0.
         24    2    5    5    0    0  0.11108495200E+01  0.35091743742E+02  0.98198189111E+02  0.13108002211E+03  0.79412992553E+02 0.  0.
          5    1    5    5  501    0 -0.12566167194E+02 -0.69744408744E+02  0.24271621094E+03  0.25289412837E+03  0.47000000000E+01 0. -1.
        -13    1    6    6    0    0  0.38144569621E+02  0.31556628729E+02  0.52637038502E+02  0.72259856287E+02  0.00000000000E+00 0.  1.
         14    1    6    6    0    0 -0.37033720101E+02  0.35351150132E+01  0.45561150609E+02  0.58820165823E+02  0.00000000000E+00 0. -1.
         -5    1    3    3    0  503 -0.28712489819E+02 -0.15294532513E+02  0.45747778904E+00  0.32872923240E+02  0.47000000000E+01 0.  1.
         13    1    4    4    0    0  0.20630873981E+02  0.60642072045E+02 -0.11434897432E+03  0.13106785186E+03  0.00000000000E+00 0. -1.
        -14    1    4    4    0    0  0.19536933512E+02 -0.10694874531E+02 -0.17163103877E+03  0.17307017531E+03  0.00000000000E+00 0.  1.
<mgrwt>
<rscale>  2 0.17844112E+03</rscale>
<asrwt>0</asrwt>
<pdfrwt beam="1">  1       21 0.59721305E-01 0.17903425E+03</pdfrwt>
<pdfrwt beam="2">  1       21 0.51199480E-01 0.17903425E+03</pdfrwt>
<totfact> 0.95819776E+03</totfact>
</mgrwt>
</event>
<event>
12    1  0.1071811E-001  0.1886493E+03  0.7546771E-02  0.1159913E+00
         21   -1    0    0  503  502  0.00000000000E+00  0.00000000000E+00  0.58428169437E+03  0.58428169437E+03  0.00000000000E+00 0. -1.
         21   -1    0    0  501  503 -0.00000000000E+00 -0.00000000000E+00 -0.76553068754E+02  0.76553068754E+02  0.00000000000E+00 0. -1.
          6    2    1    2  501    0 -0.63977528361E+02 -0.31991625300E+02  0.10243620219E+03  0.21378832242E+03  0.17348107407E+03 0.  0.
         24    2    3    3    0    0 -0.34587475686E+00 -0.69497931065E+02  0.31133499840E+02  0.11101733588E+03  0.80780393677E+02 0.  0.
         -6    2    1    2    0  502  0.63977528361E+02  0.31991625300E+02  0.40529242343E+03  0.44704644070E+03  0.17456226233E+03 0.  0.
        -24    2    5    5    0    0  0.83546568329E+02 -0.26992028011E+02  0.31793762705E+03  0.33973861651E+03  0.81421091833E+02 0.  0.
          5    1    3    3  501    0 -0.63631653604E+02  0.37506305765E+02  0.71302702348E+02  0.10277098654E+03  0.47000000000E+01 0. -1.
        -13    1    4    4    0    0  0.19420391880E+02 -0.38451831377E+02  0.52928931031E+02  0.68243437026E+02  0.00000000000E+00 0.  1.
         14    1    4    4    0    0 -0.19766266637E+02 -0.31046099688E+02 -0.21795431191E+02  0.42773898857E+02  0.00000000000E+00 0. -1.
         -5    1    5    5    0  502 -0.19569039968E+02  0.58983653311E+02  0.87354796376E+02  0.10730782419E+03  0.47000000000E+01 0.  1.
         13    1    6    6    0    0  0.36768140532E+02 -0.39858484741E+02  0.78332492233E+02  0.95271057008E+02  0.00000000000E+00 0. -1.
        -14    1    6    6    0    0  0.46778427797E+02  0.12866456730E+02  0.23960513482E+03  0.24446755950E+03  0.00000000000E+00 0.  1.
<mgrwt>
<rscale>  2 0.18839884E+03</rscale>
<asrwt>0</asrwt>
<pdfrwt beam="1">  1       21 0.89889488E-01 0.18864934E+03</pdfrwt>
<pdfrwt beam="2">  1       21 0.11777396E-01 0.18864934E+03</pdfrwt>
<totfact> 0.64048233E+04</totfact>
</mgrwt>
</event>
<event>
12    1  0.1071811E-001  0.3045692E+03  0.7546771E-02  0.1083014E+00
         21   -1    0    0  503  502  0.00000000000E+00  0.00000000000E+00  0.55350688235E+03  0.55350688235E+03  0.00000000000E+00 0.  1.
         21   -1    0    0  501  503 -0.00000000000E+00 -0.00000000000E+00 -0.29662450078E+03  0.29662450078E+03  0.00000000000E+00 0.  1.
          6    2    1    2  501    0  0.11133811880E+03 -0.22470144852E+03 -0.15205062968E+03  0.34041413975E+03  0.17284523392E+03 0.  0.
         24    2    3    3    0    0  0.72543698324E+02 -0.20621534692E+03 -0.17769617663E+03  0.29014956882E+03  0.69451303967E+02 0.  0.
         -6    2    1    2    0  502 -0.11133811880E+03  0.22470144852E+03  0.40893301125E+03  0.50971724338E+03  0.17233265171E+03 0.  0.
        -24    2    5    5    0    0  0.34586427271E+01  0.10371831253E+03  0.13112988417E+03  0.18566187301E+03  0.80658750320E+02 0.  0.
          5    1    3    3  501    0  0.38794420476E+02 -0.18486101600E+02  0.25645546954E+02  0.50264570932E+02  0.47000000000E+01 0. -1.
        -13    1    4    4    0    0  0.40385675526E+02 -0.35772608179E+02 -0.59151186606E+02  0.80059635026E+02  0.00000000000E+00 0.  1.
         14    1    4    4    0    0  0.32158022798E+02 -0.17044273874E+03 -0.11854499003E+03  0.21008993379E+03  0.00000000000E+00 0. -1.
         -5    1    5    5    0  502 -0.11479676153E+03  0.12098313599E+03  0.27780312708E+03  0.32405537037E+03  0.47000000000E+01 0.  1.
         11    1    6    6    0    0 -0.33401114869E+01  0.78170829332E+01  0.72619360259E+02  0.73115214659E+02  0.00000000000E+00 0. -1.
        -12    1    6    6    0    0  0.67987542140E+01  0.95901229600E+02  0.58510523911E+02  0.11254665835E+03  0.00000000000E+00 0.  1.
<mgrwt>
<rscale>  2 0.30449652E+03</rscale>
<asrwt>0</asrwt>
<pdfrwt beam="1">  1       21 0.85154905E-01 0.30456919E+03</pdfrwt>
<pdfrwt beam="2">  1       21 0.45634539E-01 0.30456919E+03</pdfrwt>
<totfact> 0.51207811E+03</totfact>
</mgrwt>
</event>
<event>
12    1  0.1071811E-001  0.1775596E+03  0.7546771E-02  0.1170517E+00
         21   -1    0    0  501  502  0.00000000000E+00  0.00000000000E+00  0.49904513711E+03  0.49904513711E+03  0.00000000000E+00 0.  1.
         21   -1    0    0  502  503 -0.00000000000E+00 -0.00000000000E+00 -0.62900097738E+02  0.62900097738E+02  0.00000000000E+00 0.  1.
         -6    2    1    2    0  503  0.16276147659E+02 -0.23649005816E+02  0.23306817341E+03  0.29219045694E+03  0.17386863206E+03 0.  0.
        -24    2    3    3    0    0 -0.51911765291E+02  0.27086511502E+01  0.88348067459E+02  0.12998590516E+03  0.79929883956E+02 0.  0.
          6    2    1    2  501    0 -0.16276147659E+02  0.23649005816E+02  0.20307686597E+03  0.26975477791E+03  0.17522339529E+03 0.  0.
         24    2    5    5    0    0 -0.59536530147E+02  0.21887809970E+02  0.20320450066E+03  0.22620401679E+03  0.76501722035E+02 0.  0.
          5    1    5    5  501    0  0.43260382488E+02  0.17611958456E+01 -0.12763469458E+00  0.43550761123E+02  0.47000000000E+01 0. -1.
        -13    1    6    6    0    0 -0.15668681839E+02  0.22961478064E+02  0.16705051250E+03  0.16934760344E+03  0.00000000000E+00 0.  1.
         14    1    6    6    0    0 -0.43867848308E+02 -0.10736680939E+01  0.36153988161E+02  0.56856413343E+02  0.00000000000E+00 0. -1.
         -5    1    3    3    0  503  0.68187912950E+02 -0.26357656966E+02  0.14472010595E+03  0.16220455178E+03  0.47000000000E+01 0.  1.
         13    1    4    4    0    0 -0.34366138731E+02 -0.33687230782E+02  0.71551850974E+02  0.86229509954E+02  0.00000000000E+00 0. -1.
        -14    1    4    4    0    0 -0.17545626560E+02  0.36395881932E+02  0.16796216485E+02  0.43756395204E+02  0.00000000000E+00 0.  1.
<mgrwt>
<rscale>  2 0.17722449E+03</rscale>
<asrwt>0</asrwt>
<pdfrwt beam="1">  1       21 0.76776172E-01 0.17755964E+03</pdfrwt>
<pdfrwt beam="2">  1       21 0.96769384E-02 0.17755964E+03</pdfrwt>
<totfact> 0.13044190E+05</totfact>
</mgrwt>
</event>
<event>
12    1  0.1071811E-001  0.1818547E+03  0.7546771E-02  0.1168262E+00
         21   -1    0    0  503  502  0.00000000000E+00  0.00000000000E+00  0.41960845896E+03  0.41960845896E+03  0.00000000000E+00 0.  1.
         21   -1    0    0  501  503 -0.00000000000E+00 -0.00000000000E+00 -0.84512329803E+02  0.84512329803E+02  0.00000000000E+00 0.  1.
          6    2    1    2  501    0  0.66125895193E+01  0.10026834374E+02  0.25633171465E+03  0.31428818563E+03  0.18145757616E+03 0.  0.
         24    2    3    3    0    0 -0.70598022361E+02  0.54673781323E+01  0.95468837558E+02  0.13573504941E+03  0.65541831750E+02 0.  0.
         -6    2    1    2    0  502 -0.66125895193E+01 -0.10026834374E+02  0.78764414505E+02  0.18983260313E+03  0.17230299031E+03 0.  0.
        -24    2    5    5    0    0 -0.57860790383E+02  0.25113706364E+02  0.24493205760E+02  0.10719671629E+03  0.83142345069E+02 0.  0.
          5    1    3    3  501    0  0.77210611880E+02  0.45594562417E+01  0.16086287709E+03  0.17855313622E+03  0.47000000000E+01 0. -1.
        -11    1    4    4    0    0 -0.25631222258E+02 -0.22650635689E+02  0.67746967553E+02  0.75892440099E+02  0.00000000000E+00 0.  1.
         12    1    4    4    0    0 -0.44966800103E+02  0.28118013822E+02  0.27721870005E+02  0.59842609312E+02  0.00000000000E+00 0. -1.
         -5    1    5    5    0  502  0.51248200864E+02 -0.35140540738E+02  0.54271208745E+02  0.82635886839E+02  0.47000000000E+01 0.  1.
         13    1    6    6    0    0  0.16339571407E+02  0.10576173675E+02  0.24874793132E+02  0.31584685794E+02  0.00000000000E+00 0. -1.
        -14    1    6    6    0    0 -0.74200361790E+02  0.14537532688E+02 -0.38158737189E+00  0.75612030494E+02  0.00000000000E+00 0.  1.
<mgrwt>
<rscale>  2 0.17952696E+03</rscale>
<asrwt>0</asrwt>
<pdfrwt beam="1">  1       21 0.64555146E-01 0.18185466E+03</pdfrwt>
<pdfrwt beam="2">  1       21 0.13001897E-01 0.18185466E+03</pdfrwt>
<totfact> 0.11287146E+05</totfact>
</mgrwt>
</event>
<event>
12    1  0.1071811E-001  0.2568178E+03  0.7546771E-02  0.1109250E+00
         21   -1    0    0  503  502  0.00000000000E+00  0.00000000000E+00  0.33355088171E+02  0.33355088171E+02  0.00000000000E+00 0.  1.
         21   -1    0    0  501  503 -0.00000000000E+00 -0.00000000000E+00 -0.19840454027E+04  0.19840454027E+04  0.00000000000E+00 0.  1.
          6    2    1    2  501    0 -0.85282402246E+02  0.16956151429E+03 -0.88332013204E+03  0.91956876519E+03  0.17125438092E+03 0.  0.
         24    2    3    3    0    0 -0.63819547223E+02  0.13173526161E+03 -0.84576651658E+03  0.86191598059E+03  0.78428587063E+02 0.  0.
         -6    2    1    2    0  502  0.85282402246E+02 -0.16956151429E+03 -0.10673701825E+04  0.10978317256E+04  0.17300634722E+03 0.  0.
        -24    2    5    5    0    0 -0.15222160782E+02 -0.35881481397E+02 -0.40769904967E+03  0.41727341675E+03  0.79871110760E+02 0.  0.
          5    1    3    3  501    0 -0.21462855024E+02  0.37826252687E+02 -0.37553615458E+02  0.57652784599E+02  0.47000000000E+01 0. -1.
        -11    1    4    4    0    0 -0.44281576649E+02  0.64238097494E+02 -0.24673007494E+03  0.25877233446E+03  0.00000000000E+00 0.  1.
         12    1    4    4    0    0 -0.19537970573E+02  0.67497164112E+02 -0.59903644164E+03  0.60314364613E+03  0.00000000000E+00 0. -1.
         -5    1    5    5    0  502  0.10050456303E+03 -0.13368003290E+03 -0.65967113278E+03  0.68055830889E+03  0.47000000000E+01 0.  1.
         11    1    6    6    0    0 -0.25037742063E+02 -0.58748416199E+02 -0.30318601942E+03  0.30983871176E+03  0.00000000000E+00 0. -1.
        -12    1    6    6    0    0  0.98155812802E+01  0.22866934802E+02 -0.10451303025E+03  0.10743470499E+03  0.00000000000E+00 0.  1.
<mgrwt>
<rscale>  2 0.25652308E+03</rscale>
<asrwt>0</asrwt>
<pdfrwt beam="1">  1       21 0.51315521E-02 0.25681782E+03</pdfrwt>
<pdfrwt beam="2">  1       21 0.30523775E+00 0.25681782E+03</pdfrwt>
<totfact> 0.77002272E+03</totfact>
</mgrwt>
</event>
<event>
12    1  0.1071811E-001  0.1866945E+03  0.7546771E-02  0.1161611E+00
         21   -1    0    0  503  502  0.00000000000E+00  0.00000000000E+00  0.40584953572E+03  0.40584953572E+03  0.00000000000E+00 0. -1.
         21   -1    0    0  501  503 -0.00000000000E+00 -0.00000000000E+00 -0.91737869014E+02  0.91737869014E+02  0.00000000000E+00 0. -1.
          6    2    1    2  501    0 -0.67647490139E+02  0.35069423922E+01  0.22110433154E+03  0.28900839587E+03  0.17335006748E+03 0.  0.
         24    2    3    3    0    0 -0.90494007247E+02 -0.31115926751E+02  0.93574357815E+02  0.15481938511E+03  0.77817191680E+02 0.  0.
         -6    2    1    2    0  502  0.67647490139E+02 -0.35069423922E+01  0.93007335165E+02  0.20857900886E+03  0.17397228795E+03 0.  0.
        -24    2    5    5    0    0  0.60353300841E+02 -0.49016397779E+01 -0.13638875729E+02  0.10157127700E+03  0.80399989963E+02 0.  0.
          5    1    3    3  501    0  0.22846517109E+02  0.34622869144E+02  0.12752997372E+03  0.13418901076E+03  0.47000000000E+01 0. -1.
        -13    1    4    4    0    0 -0.38180494101E+02 -0.47030754466E+02  0.76406507049E+02  0.97506903934E+02  0.00000000000E+00 0.  1.
         14    1    4    4    0    0 -0.52313513147E+02  0.15914827714E+02  0.17167850766E+02  0.57312481179E+02  0.00000000000E+00 0. -1.
         -5    1    5    5    0  502  0.72941892981E+01  0.13946973857E+01  0.10664621089E+03  0.10700773185E+03  0.47000000000E+01 0.  1.
         11    1    6    6    0    0  0.17667662496E+02 -0.30241363560E+02  0.21186226943E+02  0.40933391994E+02  0.00000000000E+00 0. -1.
        -12    1    6    6    0    0  0.42685638345E+02  0.25339723783E+02 -0.34825102671E+02  0.60637885009E+02  0.00000000000E+00 0.  1.
<mgrwt>
<rscale>  2 0.18654942E+03</rscale>
<asrwt>0</asrwt>
<pdfrwt beam="1">  1       21 0.62438389E-01 0.18669451E+03</pdfrwt>
<pdfrwt beam="2">  1       21 0.14113519E-01 0.18669451E+03</pdfrwt>
<totfact> 0.10443873E+05</totfact>
</mgrwt>
</event>
<event>
12    1  0.1071811E-001  0.2075470E+03  0.7546771E-02  0.1146635E+00
         21   -1    0    0  501  502  0.00000000000E+00  0.00000000000E+00  0.25535505499E+03  0.25535505499E+03  0.00000000000E+00 0.  1.
         21   -1    0    0  502  503 -0.00000000000E+00 -0.00000000000E+00 -0.17443188389E+03  0.17443188389E+03  0.00000000000E+00 0. -1.
         -6    2    1    2    0  503 -0.50945671784E+02 -0.70677810442E+02 -0.26437822574E+02  0.20922412022E+03  0.18837451966E+03 0.  0.
        -24    2    3    3    0    0  0.22287792293E+02  0.25946787110E+02 -0.16245335525E+02  0.87464398202E+02  0.78842428805E+02 0.  0.
          6    2    1    2  501    0  0.50945671784E+02  0.70677810442E+02  0.10736099367E+03  0.22056281867E+03  0.17184516186E+03 0.  0.
         24    2    5    5    0    0 -0.21707181221E+02  0.40158936795E+01  0.17421338371E+02  0.87020766145E+02  0.82351573095E+02 0.  0.
          5    1    5    5  501    0  0.72652853005E+02  0.66661916762E+02  0.89939655302E+02  0.13354205252E+03  0.47000000000E+01 0. -1.
        -11    1    6    6    0    0 -0.34930702948E+02  0.19060189880E+02  0.40284975876E+02  0.56624412827E+02  0.00000000000E+00 0.  1.
         12    1    6    6    0    0  0.13223521727E+02 -0.15044296201E+02 -0.22863637505E+02  0.30396353318E+02  0.00000000000E+00 0. -1.
         -5    1    3    3    0  503 -0.73233464076E+02 -0.96624597552E+02 -0.10192487049E+02  0.12175972201E+03  0.47000000000E+01 0.  1.
         13    1    4    4    0    0 -0.39055789754E+01  0.91774355285E+01 -0.44403464214E+02  0.45509850628E+02  0.00000000000E+00 0. -1.
        -14    1    4    4    0    0  0.26193371268E+02  0.16769351582E+02  0.28158128689E+02  0.41954547574E+02  0.00000000000E+00 0.  1.
<mgrwt>
<rscale>  2 0.20372330E+03</rscale>
<asrwt>0</asrwt>
<pdfrwt beam="1">  1       21 0.39285393E-01 0.20754704E+03</pdfrwt>
<pdfrwt beam="2">  1       21 0.26835674E-01 0.20754704E+03</pdfrwt>
<totfact> 0.82083071E+04</totfact>
</mgrwt>
</event>
<event>
12    1  0.1071811E-001  0.3167441E+03  0.7546771E-02  0.1077241E+00
         21   -1    0    0  503  502  0.00000000000E+00  0.00000000000E+00  0.80693068160E+03  0.80693068160E+03  0.00000000000E+00 0. -1.
         21   -1    0    0  501  503 -0.00000000000E+00 -0.00000000000E+00 -0.12698359404E+03  0.12698359404E+03  0.00000000000E+00 0.  1.
          6    2    1    2  501    0 -0.26110151623E+03  0.42519328935E+02  0.41057717765E+03  0.51811748380E+03  0.17288786278E+03 0.  0.
         24    2    3    3    0    0 -0.90752271561E+02  0.74955803494E+02  0.19013716896E+03  0.23760567037E+03  0.80311669764E+02 0.  0.
         -6    2    1    2    0  502  0.26110151623E+03 -0.42519328935E+02  0.26936990991E+03  0.41579679184E+03  0.17419795816E+03 0.  0.
        -24    2    5    5    0    0  0.78044818020E+02  0.31790197375E+02  0.12483425788E+03  0.17096153055E+03  0.80886604082E+02 0.  0.
          5    1    3    3  501    0 -0.17034924467E+03 -0.32436474559E+02  0.22044000869E+03  0.28051181342E+03  0.47000000000E+01 0. -1.
        -11    1    4    4    0    0 -0.20319395322E+00  0.17598722602E+02 -0.18775192298E+01  0.17699757158E+02  0.00000000000E+00 0.  1.
         12    1    4    4    0    0 -0.90549077608E+02  0.57357080892E+02  0.19201468819E+03  0.21990591321E+03  0.00000000000E+00 0. -1.
         -5    1    5    5    0  502  0.18305669821E+03 -0.74309526311E+02  0.14453565203E+03  0.24483526128E+03  0.47000000000E+01 0.  1.
         13    1    6    6    0    0 -0.14327403110E+02  0.18214805069E+02  0.29638406905E+02  0.37622981905E+02  0.00000000000E+00 0. -1.
        -14    1    6    6    0    0  0.92372221130E+02  0.13575392307E+02  0.95195850975E+02  0.13333854865E+03  0.00000000000E+00 0.  1.
<mgrwt>
<rscale>  2 0.31656429E+03</rscale>
<asrwt>0</asrwt>
<pdfrwt beam="1">  1       21 0.12414318E+00 0.31674410E+03</pdfrwt>
<pdfrwt beam="2">  1       21 0.19535938E-01 0.31674410E+03</pdfrwt>
<totfact> 0.10909598E+04</totfact>
</mgrwt>
</event>
<event>
12    1  0.1071811E-001  0.2252267E+03  0.7546771E-02  0.1130522E+00
         21   -1    0    0  503  502  0.00000000000E+00  0.00000000000E+00  0.13495958450E+04  0.13495958450E+04  0.00000000000E+00 0. -1.
         21   -1    0    0  501  503 -0.00000000000E+00 -0.00000000000E+00 -0.46905991765E+02  0.46905991765E+02  0.00000000000E+00 0. -1.
          6    2    1    2  501    0 -0.13104187624E+03  0.60715202362E+02  0.97278077779E+03  0.99851365607E+03  0.17282583890E+03 0.  0.
         24    2    3    3    0    0 -0.10742145051E+02  0.53354978292E+02  0.56540130136E+03  0.57365329544E+03  0.80232938327E+02 0.  0.
         -6    2    1    2    0  502  0.13104187624E+03 -0.60715202362E+02  0.32990907542E+03  0.39798818067E+03  0.16939977799E+03 0.  0.
        -24    2    5    5    0    0  0.10926645961E+03 -0.99545686573E+02  0.19983630880E+03  0.26042732181E+03  0.77713169543E+02 0.  0.
          5    1    3    3  501    0 -0.12029973119E+03  0.73602240699E+01  0.40737947642E+03  0.42486036063E+03  0.47000000000E+01 0. -1.
        -13    1    4    4    0    0 -0.25813386877E+01  0.67397009709E+02  0.53454930329E+03  0.53878750716E+03  0.00000000000E+00 0.  1.
         14    1    4    4    0    0 -0.81608063637E+01 -0.14042031417E+02  0.30851998079E+02  0.34865788279E+02  0.00000000000E+00 0. -1.
         -5    1    5    5    0  502  0.21775416634E+02  0.38830484211E+02  0.13007276662E+03  0.13756085886E+03  0.47000000000E+01 0.  1.
         13    1    6    6    0    0  0.74267209726E+02 -0.48940848672E+02  0.58987140631E+02  0.10672538531E+03  0.00000000000E+00 0. -1.
        -14    1    6    6    0    0  0.34999249885E+02 -0.50604837901E+02  0.14084916817E+03  0.15370193650E+03  0.00000000000E+00 0.  1.
<mgrwt>
<rscale>  2 0.22456933E+03</rscale>
<asrwt>0</asrwt>
<pdfrwt beam="1">  1       21 0.20763010E+00 0.22522673E+03</pdfrwt>
<pdfrwt beam="2">  1       21 0.72163075E-02 0.22522673E+03</pdfrwt>
<totfact> 0.16812826E+04</totfact>
</mgrwt>
</event>
<event>
12    1  0.1071811E-001  0.2281784E+03  0.7546771E-02  0.1128234E+00
         21   -1    0    0  503  502  0.00000000000E+00  0.00000000000E+00  0.25485345980E+03  0.25485345980E+03  0.00000000000E+00 0. -1.
         21   -1    0    0  501  503 -0.00000000000E+00 -0.00000000000E+00 -0.21103645342E+03  0.21103645342E+03  0.00000000000E+00 0. -1.
          6    2    1    2  501    0  0.77670112800E+02  0.12487014108E+03 -0.24120981977E+02  0.22944977312E+03  0.17447113819E+03 0.  0.
         24    2    3    3    0    0 -0.38375759283E+01  0.10926337205E+02  0.15023683306E+02  0.83912531903E+02  0.81740382410E+02 0.  0.
         -6    2    1    2    0  502 -0.77670112800E+02 -0.12487014108E+03  0.67937988363E+02  0.23644014009E+03  0.17222999457E+03 0.  0.
        -24    2    5    5    0    0 -0.57274469607E+02 -0.57412602808E+02  0.10604913927E+03  0.15618397800E+03  0.81058270489E+02 0.  0.
          5    1    3    3  501    0  0.81507688728E+02  0.11394380387E+03 -0.39144665283E+02  0.14553724122E+03  0.47000000000E+01 0. -1.
        -13    1    4    4    0    0  0.35965568875E+02  0.19652583906E+02  0.13444322813E+02  0.43133467454E+02  0.00000000000E+00 0.  1.
         14    1    4    4    0    0 -0.39803144804E+02 -0.87262467011E+01  0.15793604928E+01  0.40779064449E+02  0.00000000000E+00 0. -1.
         -5    1    5    5    0  502 -0.20395643192E+02 -0.67457538268E+02 -0.38111150905E+02  0.80256162092E+02  0.47000000000E+01 0.  1.
         11    1    6    6    0    0 -0.22500831997E+02 -0.73047758013E+02  0.67669842593E+02  0.10208560128E+03  0.00000000000E+00 0. -1.
        -12    1    6    6    0    0 -0.34773637611E+02  0.15635155205E+02  0.38379296675E+02  0.54098376724E+02  0.00000000000E+00 0.  1.
<mgrwt>
<rscale>  2 0.22774992E+03</rscale>
<asrwt>0</asrwt>
<pdfrwt beam="1">  1       21 0.39208224E-01 0.22817839E+03</pdfrwt>
<pdfrwt beam="2">  1       21 0.32467147E-01 0.22817839E+03</pdfrwt>
<totfact> 0.56338941E+04</totfact>
</mgrwt>
</event>
<event>
12    1  0.1071811E-001  0.2681839E+03  0.7546771E-02  0.1102828E+00
         21   -1    0    0  501  502  0.00000000000E+00  0.00000000000E+00  0.88674822070E+02  0.88674822070E+02  0.00000000000E+00 0.  1.
         21   -1    0    0  502  503 -0.00000000000E+00 -0.00000000000E+00 -0.18414641917E+04  0.18414641917E+04  0.00000000000E+00 0. -1.
         -6    2    1    2    0  503  0.44001632413E+02 -0.19604312009E+03 -0.15994595876E+04  0.16212172990E+04  0.17235286385E+03 0.  0.
        -24    2    3    3    0    0 -0.10187433308E+02 -0.18815036912E+03 -0.13788019381E+04  0.13938175659E+04  0.78283313468E+02 0.  0.
          6    2    1    2  501    0 -0.44001632413E+02  0.19604312009E+03 -0.15332978196E+03  0.30892171468E+03  0.17763320403E+03 0.  0.
         24    2    5    5    0    0 -0.32833974584E+02  0.13132639602E+03 -0.19252814828E+02  0.15955071994E+03  0.82225720881E+02 0.  0.
          5    1    5    5  501    0 -0.11167657829E+02  0.64716724074E+02 -0.13407696713E+03  0.14937099474E+03  0.47000000000E+01 0. -1.
        -11    1    6    6    0    0  0.41855794558E+01  0.11942146872E+03 -0.14077862332E+02  0.12032120543E+03  0.00000000000E+00 0.  1.
         12    1    6    6    0    0 -0.37019554040E+02  0.11904927297E+02 -0.51749524958E+01  0.39229514509E+02  0.00000000000E+00 0. -1.
         -5    1    3    3    0  503  0.54189065721E+02 -0.78927509697E+01 -0.22065764952E+03  0.22739973319E+03  0.47000000000E+01 0.  1.
         11    1    4    4    0    0  0.24679521942E+02 -0.13589564227E+03 -0.10524803807E+04  0.10615044306E+04  0.00000000000E+00 0. -1.
        -12    1    4    4    0    0 -0.34866955250E+02 -0.52254726852E+02 -0.32632155740E+03  0.33231313527E+03  0.00000000000E+00 0.  1.
<mgrwt>
<rscale>  2 0.26731269E+03</rscale>
<asrwt>0</asrwt>
<pdfrwt beam="1">  1       21 0.13642282E-01 0.26818390E+03</pdfrwt>
<pdfrwt beam="2">  1       21 0.28330216E+00 0.26818390E+03</pdfrwt>
<totfact> 0.18334676E+03</totfact>
</mgrwt>
</event>
<event>
12    1  0.1071811E-001  0.2553800E+03  0.7546771E-02  0.1110098E+00
         21   -1    0    0  503  502  0.00000000000E+00  0.00000000000E+00  0.44171377552E+03  0.44171377552E+03  0.00000000000E+00 0.  1.
         21   -1    0    0  501  503 -0.00000000000E+00 -0.00000000000E+00 -0.22534189286E+03  0.22534189286E+03  0.00000000000E+00 0.  1.
          6    2    1    2  501    0 -0.15779739686E+03 -0.99223511710E+02 -0.88475007908E+02  0.26937417802E+03  0.17317418117E+03 0.  0.
         24    2    3    3    0    0 -0.16078455826E+03 -0.12464347603E+03 -0.52364266504E+02  0.22486380434E+03  0.80212491580E+02 0.  0.
         -6    2    1    2    0  502  0.15779739686E+03  0.99223511710E+02  0.30484689056E+03  0.39768149037E+03  0.17456694236E+03 0.  0.
        -24    2    5    5    0    0  0.17172340938E+03  0.64483955297E+02  0.18847997804E+03  0.27535357477E+03  0.81533914387E+02 0.  0.
          5    1    3    3  501    0  0.29871613982E+01  0.25419964325E+02 -0.36110741405E+02  0.44510373671E+02  0.47000000000E+01 0. -1.
        -11    1    4    4    0    0 -0.90864828247E+02 -0.21561063967E+02 -0.31583118705E+02  0.98583923024E+02  0.00000000000E+00 0.  1.
         12    1    4    4    0    0 -0.69919730012E+02 -0.10308241207E+03 -0.20781147799E+02  0.12627988132E+03  0.00000000000E+00 0. -1.
         -5    1    5    5    0  502 -0.13926012524E+02  0.34739556412E+02  0.11636691252E+03  0.12232791560E+03  0.47000000000E+01 0.  1.
         13    1    6    6    0    0 -0.38598772166E+01 -0.88979152632E+01  0.46215756118E+01  0.10743859143E+02  0.00000000000E+00 0. -1.
        -14    1    6    6    0    0  0.17558328660E+03  0.73381870561E+02  0.18385840243E+03  0.26460971563E+03  0.00000000000E+00 0.  1.
<mgrwt>
<rscale>  2 0.25514216E+03</rscale>
<asrwt>0</asrwt>
<pdfrwt beam="1">  1       21 0.67955965E-01 0.25537999E+03</pdfrwt>
<pdfrwt beam="2">  1       21 0.34667984E-01 0.25537999E+03</pdfrwt>
<totfact> 0.15302531E+04</totfact>
</mgrwt>
</event>
<event>
12    1  0.1071811E-001  0.1892069E+03  0.7546771E-02  0.1159245E+00
         21   -1    0    0  503  502  0.00000000000E+00  0.00000000000E+00  0.19835905668E+03  0.19835905668E+03  0.00000000000E+00 0.  1.
         21   -1    0    0  501  503 -0.00000000000E+00 -0.00000000000E+00 -0.21351294963E+03  0.21351294963E+03  0.00000000000E+00 0. -1.
          6    2    1    2  501    0 -0.55730114420E+02  0.52427194080E+02 -0.88921111225E+02  0.20879354961E+03  0.17272326422E+03 0.  0.
         24    2    3    3    0    0 -0.42682990250E+02  0.60935958200E+02 -0.12698858726E+03  0.16739488721E+03  0.79749095988E+02 0.  0.
         -6    2    1    2    0  502  0.55730114420E+02 -0.52427194080E+02  0.73767218278E+02  0.20307845671E+03  0.17304566090E+03 0.  0.
        -24    2    5    5    0    0  0.98122552640E+02 -0.39909218173E+02  0.22015997515E+02  0.13485751132E+03  0.80505050661E+02 0.  0.
          5    1    3    3  501    0 -0.13047124170E+02 -0.85087641197E+01  0.38067476040E+02  0.41398662394E+02  0.47000000000E+01 0. -1.
        -13    1    4    4    0    0 -0.54663857794E+01 -0.46667069724E+01  0.92244201105E+01  0.11693992211E+02  0.00000000000E+00 0.  1.
         14    1    4    4    0    0 -0.37216604470E+02  0.65602665172E+02 -0.13621300737E+03  0.15570089500E+03  0.00000000000E+00 0. -1.
         -5    1    5    5    0  502 -0.42392438220E+02 -0.12517975907E+02  0.51751220763E+02  0.68220945387E+02  0.47000000000E+01 0.  1.
         13    1    6    6    0    0  0.18244626565E+02 -0.44059907638E+02 -0.99601676456E+01  0.48717007288E+02  0.00000000000E+00 0. -1.
        -14    1    6    6    0    0  0.79877926075E+02  0.41506894645E+01  0.31976165160E+02  0.86140504035E+02  0.00000000000E+00 0.  1.
<mgrwt>
<rscale>  2 0.18913317E+03</rscale>
<asrwt>0</asrwt>
<pdfrwt beam="1">  1       21 0.30516778E-01 0.18920692E+03</pdfrwt>
<pdfrwt beam="2">  1       21 0.32848146E-01 0.18920692E+03</pdfrwt>
<totfact> 0.92075623E+04</totfact>
</mgrwt>
</event>
<event>
12    1  0.1071811E-001  0.2282870E+03  0.7546771E-02  0.1128103E+00
         21   -1    0    0  503  502  0.00000000000E+00  0.00000000000E+00  0.16059068079E+03  0.16059068079E+03  0.00000000000E+00 0.  1.
         21   -1    0    0  501  503 -0.00000000000E+00 -0.00000000000E+00 -0.32285214255E+03  0.32285214255E+03  0.00000000000E+00 0.  1.
          6    2    1    2  501    0  0.16581775206E+02  0.14771103738E+03 -0.73067296322E+02  0.23834985088E+03  0.17140103789E+03 0.  0.
         24    2    3    3    0    0  0.64384205903E+02  0.14530602599E+03 -0.47525312293E+02  0.18389492082E+03  0.79369511999E+02 0.  0.
         -6    2    1    2    0  502 -0.16581775206E+02 -0.14771103738E+03 -0.89194165437E+02  0.24509297246E+03  0.17326701985E+03 0.  0.
        -24    2    5    5    0    0 -0.45555737129E+02 -0.55421697927E+02 -0.97052539285E+02  0.14792993069E+03  0.85540512182E+02 0.  0.
          5    1    3    3  501    0 -0.47802430697E+02  0.24050113936E+01 -0.25541984030E+02  0.54454930066E+02  0.47000000000E+01 0. -1.
        -11    1    4    4    0    0  0.50420451516E+02  0.93277755162E+02 -0.68335475581E+02  0.12614554595E+03  0.00000000000E+00 0.  1.
         12    1    4    4    0    0  0.13963754387E+02  0.52028270829E+02  0.20810163288E+02  0.57749374872E+02  0.00000000000E+00 0. -1.
         -5    1    5    5    0  502  0.28973961923E+02 -0.92289339458E+02  0.78583738475E+01  0.97163041773E+02  0.47000000000E+01 0.  1.
         13    1    6    6    0    0 -0.54671644970E+00 -0.56116329143E+02 -0.84071984447E+02  0.10108135270E+03  0.00000000000E+00 0. -1.
        -14    1    6    6    0    0 -0.45009020679E+02  0.69463121649E+00 -0.12980554838E+02  0.46848577982E+02  0.00000000000E+00 0.  1.
<mgrwt>
<rscale>  2 0.22793295E+03</rscale>
<asrwt>0</asrwt>
<pdfrwt beam="1">  1       21 0.24706259E-01 0.22828703E+03</pdfrwt>
<pdfrwt beam="2">  1       21 0.49669560E-01 0.22828703E+03</pdfrwt>
<totfact> 0.58906233E+04</totfact>
</mgrwt>
</event>
<event>
12    1  0.1071811E-001  0.2486076E+03  0.7546771E-02  0.1114276E+00
         21   -1    0    0  503  502  0.00000000000E+00  0.00000000000E+00  0.55996320426E+03  0.55996320426E+03  0.00000000000E+00 0.  1.
         21   -1    0    0  501  503 -0.00000000000E+00 -0.00000000000E+00 -0.12155092473E+03  0.12155092473E+03  0.00000000000E+00 0. -1.
          6    2    1    2  501    0  0.15225174548E+03  0.91772400180E+02  0.11496829208E+03  0.27390405454E+03  0.17378997518E+03 0.  0.
         24    2    3    3    0    0  0.95844402777E+02 -0.93327961641E+01  0.92170667331E+02  0.15581141831E+03  0.80675371273E+02 0.  0.
         -6    2    1    2    0  502 -0.15225174548E+03 -0.91772400180E+02  0.32344398746E+03  0.40761007446E+03  0.17299477547E+03 0.  0.
        -24    2    5    5    0    0 -0.41228049702E+02  0.18081662856E+02  0.12621760258E+03  0.15598632144E+03  0.79838278172E+02 0.  0.
          5    1    3    3  501    0  0.56407342703E+02  0.10110519634E+03  0.22797624745E+02  0.11809263623E+03  0.47000000000E+01 0. -1.
        -13    1    4    4    0    0  0.70344799395E+01  0.54257423205E+01  0.59313399965E+02  0.59975011489E+02  0.00000000000E+00 0.  1.
         14    1    4    4    0    0  0.88809922837E+02 -0.14758538485E+02  0.32857267367E+02  0.95836406816E+02  0.00000000000E+00 0. -1.
         -5    1    5    5    0  502 -0.11102369578E+03 -0.10985406304E+03  0.19722638488E+03  0.25162375301E+03  0.47000000000E+01 0.  1.
         13    1    6    6    0    0 -0.46361188728E+02 -0.14934116593E+02  0.38389216169E+02  0.62017091005E+02  0.00000000000E+00 0. -1.
        -14    1    6    6    0    0  0.51331390253E+01  0.33015779449E+02  0.87828386412E+02  0.93969230436E+02  0.00000000000E+00 0.  1.
<mgrwt>
<rscale>  2 0.24846864E+03</rscale>
<asrwt>0</asrwt>
<pdfrwt beam="1">  1       21 0.86148184E-01 0.24860757E+03</pdfrwt>
<pdfrwt beam="2">  1       21 0.18700143E-01 0.24860757E+03</pdfrwt>
<totfact> 0.29533259E+04</totfact>
</mgrwt>
</event>
<event>
12    1  0.1071811E-001  0.2058372E+03  0.7546771E-02  0.1144957E+00
         21   -1    0    0  501  502  0.00000000000E+00  0.00000000000E+00  0.12703475926E+03  0.12703475926E+03  0.00000000000E+00 0. -1.
         21   -1    0    0  502  503 -0.00000000000E+00 -0.00000000000E+00 -0.84042133044E+03  0.84042133044E+03  0.00000000000E+00 0. -1.
         -6    2    1    2    0  503  0.11368017918E+02  0.11242813362E+03 -0.73243366262E+03  0.76073949256E+03  0.17174454384E+03 0.  0.
        -24    2    3    3    0    0 -0.15667157529E+02 -0.74580253906E+01 -0.30637349061E+03  0.31728379916E+03  0.80642491863E+02 0.  0.
          6    2    1    2  501    0 -0.11368017918E+02 -0.11242813362E+03  0.19047091436E+02  0.20671659715E+03  0.17204546720E+03 0.  0.
         24    2    5    5    0    0 -0.20416024161E+02  0.68309678336E+00  0.39310212309E+02  0.91353254066E+02  0.79892700374E+02 0.  0.
          5    1    5    5  501    0  0.90480062423E+01 -0.11311123040E+03 -0.20263120873E+02  0.11536334309E+03  0.47000000000E+01 0. -1.
        -11    1    6    6    0    0  0.28899347694E+02 -0.23097543630E+01  0.13054518568E+01  0.29020879844E+02  0.00000000000E+00 0.  1.
         12    1    6    6    0    0 -0.49315371855E+02  0.29928511463E+01  0.38004760452E+02  0.62332374222E+02  0.00000000000E+00 0. -1.
         -5    1    3    3    0  503  0.27035175447E+02  0.11988615901E+03 -0.42606017201E+03  0.44345569340E+03  0.47000000000E+01 0.  1.
         13    1    4    4    0    0  0.31185207403E+02  0.67468988371E+01 -0.91504684057E+02  0.96907920260E+02  0.00000000000E+00 0. -1.
        -14    1    4    4    0    0 -0.46852364932E+02 -0.14204924228E+02 -0.21486880655E+03  0.22037587890E+03  0.00000000000E+00 0.  1.
<mgrwt>
<rscale>  2 0.20577432E+03</rscale>
<asrwt>0</asrwt>
<pdfrwt beam="1">  1       21 0.19543809E-01 0.20583722E+03</pdfrwt>
<pdfrwt beam="2">  1       21 0.12929559E+00 0.20583722E+03</pdfrwt>
<totfact> 0.10460384E+04</totfact>
</mgrwt>
</event>
<event>
12    1  0.1071811E-001  0.2490602E+03  0.7546771E-02  0.1113908E+00
         21   -1    0    0  501  502  0.00000000000E+00  0.00000000000E+00  0.33310922197E+03  0.33310922197E+03  0.00000000000E+00 0. -1.
         21   -1    0    0  502  503 -0.00000000000E+00 -0.00000000000E+00 -0.26058017775E+03  0.26058017775E+03  0.00000000000E+00 0.  1.
         -6    2    1    2    0  503 -0.13029988800E+03 -0.12297889019E+03 -0.12235353568E+03  0.27744549097E+03  0.17292699188E+03 0.  0.
        -24    2    3    3    0    0 -0.87063181800E+02 -0.13329437012E+03 -0.36538284282E+02  0.18068718764E+03  0.77236175652E+02 0.  0.
          6    2    1    2  501    0  0.13029988800E+03  0.12297889019E+03  0.19488257989E+03  0.31624390875E+03  0.17300035153E+03 0.  0.
         24    2    5    5    0    0  0.79668113135E+02 -0.29991251415E+01  0.91787621594E+02  0.14570154627E+03  0.80299253457E+02 0.  0.
          5    1    5    5  501    0  0.50631774866E+02  0.12597801533E+03  0.10309495830E+03  0.17054236248E+03  0.47000000000E+01 0. -1.
        -13    1    6    6    0    0  0.30579256950E+02 -0.13945767472E+02 -0.74695700897E+01  0.34429200736E+02  0.00000000000E+00 0.  1.
         14    1    6    6    0    0  0.49088856185E+02  0.10946642331E+02  0.99257191684E+02  0.11127234553E+03  0.00000000000E+00 0. -1.
         -5    1    3    3    0  503 -0.43236706201E+02  0.10315479929E+02 -0.85815251400E+02  0.96758303324E+02  0.47000000000E+01 0.  1.
         13    1    4    4    0    0 -0.74224015121E+02 -0.89255703524E+02 -0.58314113070E+02  0.12990889429E+03  0.00000000000E+00 0. -1.
        -14    1    4    4    0    0 -0.12839166679E+02 -0.44038666598E+02  0.21775828788E+02  0.50778293356E+02  0.00000000000E+00 0.  1.
<mgrwt>
<rscale>  2 0.24904747E+03</rscale>
<asrwt>0</asrwt>
<pdfrwt beam="1">  1       21 0.51247573E-01 0.24906021E+03</pdfrwt>
<pdfrwt beam="2">  1       21 0.40089258E-01 0.24906021E+03</pdfrwt>
<totfact> 0.21050923E+04</totfact>
</mgrwt>
</event>
<event>
12    1  0.1071811E-001  0.2061849E+03  0.7546771E-02  0.1144869E+00
         21   -1    0    0  503  502  0.00000000000E+00  0.00000000000E+00  0.32103318428E+03  0.32103318428E+03  0.00000000000E+00 0. -1.
         21   -1    0    0  501  503 -0.00000000000E+00 -0.00000000000E+00 -0.14481961781E+03  0.14481961781E+03  0.00000000000E+00 0. -1.
          6    2    1    2  501    0  0.25353992241E+02 -0.11042170454E+03  0.17624812635E+02  0.20573245435E+03  0.17081987881E+03 0.  0.
         24    2    3    3    0    0 -0.25804114784E+02 -0.77280846554E+02 -0.40140430574E+02  0.12162311060E+03  0.80887238067E+02 0.  0.
         -6    2    1    2    0  502 -0.25353992241E+02  0.11042170454E+03  0.15858875384E+03  0.26012034775E+03  0.17226846698E+03 0.  0.
        -24    2    5    5    0    0  0.24927091962E+02  0.60120690070E+01  0.90836857817E+02  0.12579995155E+03  0.83167230237E+02 0.  0.
          5    1    3    3  501    0  0.51158107025E+02 -0.33140857981E+02  0.57765243209E+02  0.84109343744E+02  0.47000000000E+01 0. -1.
        -11    1    4    4    0    0 -0.34376858729E+02 -0.11123197795E+02  0.10773017553E+02  0.37703472684E+02  0.00000000000E+00 0.  1.
         12    1    4    4    0    0  0.85727439449E+01 -0.66157648759E+02 -0.50913448127E+02  0.83919637918E+02  0.00000000000E+00 0. -1.
         -5    1    5    5    0  502 -0.50281084203E+02  0.10440963553E+03  0.67751896020E+02  0.13432039620E+03  0.47000000000E+01 0.  1.
         13    1    6    6    0    0 -0.26166744823E+02 -0.16222285116E+02  0.25899471303E+02  0.40232371080E+02  0.00000000000E+00 0. -1.
        -14    1    6    6    0    0  0.51093836785E+02  0.22234354123E+02  0.64937386514E+02  0.85567580473E+02  0.00000000000E+00 0.  1.
<mgrwt>
<rscale>  2 0.20588202E+03</rscale>
<asrwt>0</asrwt>
<pdfrwt beam="1">  1       21 0.49389720E-01 0.20618487E+03</pdfrwt>
<pdfrwt beam="2">  1       21 0.22279941E-01 0.20618487E+03</pdfrwt>
<totfact> 0.73242232E+04</totfact>
</mgrwt>
</event>
<event>
12    1  0.1071811E-001  0.2371184E+03  0.7546771E-02  0.1121737E+00
         21   -1    0    0  501  502  0.00000000000E+00  0.00000000000E+00  0.29543709038E+03  0.29543709038E+03  0.00000000000E+00 0.  1.
         21   -1    0    0  502  503 -0.00000000000E+00 -0.00000000000E+00 -0.19080961377E+03  0.19080961377E+03  0.00000000000E+00 0.  1.
         -6    2    1    2    0  503  0.21327622814E+02 -0.16085508321E+03  0.39333347203E+02  0.24030265945E+03  0.17282659126E+03 0.  0.
        -24    2    3    3    0    0  0.10517879723E+01 -0.50515335179E+01  0.81763600078E+01  0.80056899984E+02  0.79470938860E+02 0.  0.
          6    2    1    2  501    0 -0.21327622814E+02  0.16085508321E+03  0.65294129412E+02  0.24594404470E+03  0.17290437964E+03 0.  0.
         24    2    5    5    0    0 -0.59229590059E+02  0.11741145613E+03 -0.71297662589E+01  0.15325521841E+03  0.78375595913E+02 0.  0.
          5    1    5    5  501    0  0.37901967245E+02  0.43443627081E+02  0.72423895671E+02  0.92688826290E+02  0.47000000000E+01 0. -1.
        -13    1    6    6    0    0 -0.13419357483E+02  0.10089726574E+03  0.84288007286E+01  0.10213413764E+03  0.00000000000E+00 0.  1.
         14    1    6    6    0    0 -0.45810232575E+02  0.16514190387E+02 -0.15558566988E+02  0.51121080774E+02  0.00000000000E+00 0. -1.
         -5    1    3    3    0  503  0.20275834842E+02 -0.15580354969E+03  0.31156987195E+02  0.16024575946E+03  0.47000000000E+01 0.  1.
         11    1    4    4    0    0  0.50787930533E+01  0.22084395374E+02  0.34995882988E+02  0.41692043414E+02  0.00000000000E+00 0. -1.
        -12    1    4    4    0    0 -0.40270050809E+01 -0.27135928891E+02 -0.26819522981E+02  0.38364856570E+02  0.00000000000E+00 0.  1.
<mgrwt>
<rscale>  2 0.23710425E+03</rscale>
<asrwt>0</asrwt>
<pdfrwt beam="1">  1       21 0.45451860E-01 0.23711843E+03</pdfrwt>
<pdfrwt beam="2">  1       21 0.29355325E-01 0.23711843E+03</pdfrwt>
<totfact> 0.50571921E+04</totfact>
</mgrwt>
</event>
<event>
12    1  0.1071811E-001  0.2019561E+03  0.7546771E-02  0.1148170E+00
         21   -1    0    0  503  502  0.00000000000E+00  0.00000000000E+00  0.15088706656E+04  0.15088706656E+04  0.00000000000E+00 0. -1.
         21   -1    0    0  501  503 -0.00000000000E+00 -0.00000000000E+00 -0.59481747130E+02  0.59481747130E+02  0.00000000000E+00 0. -1.
          6    2    1    2  501    0  0.10248568492E+03 -0.97635598045E+01  0.14535768605E+03  0.24882747240E+03  0.17374582416E+03 0.  0.
         24    2    3    3    0    0  0.10988618296E+02 -0.42359362556E+02  0.11501950295E+03  0.14696140881E+03  0.80331216174E+02 0.  0.
         -6    2    1    2    0  502 -0.10248568492E+03  0.97635598045E+01  0.13040312324E+04  0.13195249404E+04  0.17334927261E+03 0.  0.
        -24    2    5    5    0    0 -0.91224167001E+02 -0.54349486596E+02  0.79347771826E+03  0.80481697913E+03  0.82751224639E+02 0.  0.
          5    1    3    3  501    0  0.91497066622E+02  0.32595802751E+02  0.30338183097E+02  0.10186606359E+03  0.47000000000E+01 0. -1.
        -13    1    4    4    0    0 -0.33953582711E+02 -0.13264220833E+02  0.59906399160E+02  0.70125330613E+02  0.00000000000E+00 0.  1.
         14    1    4    4    0    0  0.44942201007E+02 -0.29095141723E+02  0.55113103794E+02  0.76836078200E+02  0.00000000000E+00 0. -1.
         -5    1    5    5    0  502 -0.11261517918E+02  0.64113046400E+02  0.51055351419E+03  0.51470796123E+03  0.47000000000E+01 0.  1.
         13    1    6    6    0    0 -0.53499223070E+02  0.14406884907E+02  0.28633691851E+03  0.29164800034E+03  0.00000000000E+00 0. -1.
        -14    1    6    6    0    0 -0.37724943930E+02 -0.68756371503E+02  0.50714079975E+03  0.51316897879E+03  0.00000000000E+00 0.  1.
<mgrwt>
<rscale>  2 0.20187075E+03</rscale>
<asrwt>0</asrwt>
<pdfrwt beam="1">  1       21 0.23213392E+00 0.20195607E+03</pdfrwt>
<pdfrwt beam="2">  1       21 0.91510391E-02 0.20195607E+03</pdfrwt>
<totfact> 0.79854142E+03</totfact>
</mgrwt>
</event>
<event>
12    1  0.1071811E-001  0.2294666E+03  0.7546771E-02  0.1127073E+00
         21   -1    0    0  503  502  0.00000000000E+00  0.00000000000E+00  0.33784381244E+02  0.33784381244E+02  0.00000000000E+00 0. -1.
         21   -1    0    0  501  503 -0.00000000000E+00 -0.00000000000E+00 -0.15671185042E+04  0.15671185042E+04  0.00000000000E+00 0. -1.
          6    2    1    2  501    0 -0.97270315177E+02 -0.11461308489E+03 -0.83242023967E+03  0.86338327497E+03  0.17294377886E+03 0.  0.
         24    2    3    3    0    0 -0.66770202571E+01  0.23698542459E-01 -0.34426264394E+03  0.35380632742E+03  0.81348424406E+02 0.  0.
         -6    2    1    2    0  502  0.97270315177E+02  0.11461308489E+03 -0.70091388332E+03  0.73751961050E+03  0.17337021258E+03 0.  0.
        -24    2    5    5    0    0  0.10178187889E+03  0.34543973991E+02 -0.55480103025E+03  0.57077887595E+03  0.80196664886E+02 0.  0.
          5    1    3    3  501    0 -0.90593294920E+02 -0.11463678343E+03 -0.48815759573E+03  0.50957694755E+03  0.47000000000E+01 0. -1.
        -13    1    4    4    0    0 -0.21808210510E+02  0.35937887149E+02 -0.20017625830E+03  0.20454257299E+03  0.00000000000E+00 0.  1.
         14    1    4    4    0    0  0.15131190253E+02 -0.35914188606E+02 -0.14408638564E+03  0.14926375443E+03  0.00000000000E+00 0. -1.
         -5    1    5    5    0  502 -0.45115637166E+01  0.80069110897E+02 -0.14611285307E+03  0.16674073455E+03  0.47000000000E+01 0.  1.
         11    1    6    6    0    0  0.50557277455E+02  0.27693039247E+02 -0.12233795855E+03  0.13523874751E+03  0.00000000000E+00 0. -1.
        -12    1    6    6    0    0  0.51224601439E+02  0.68509347439E+01 -0.43246307170E+03  0.43554012844E+03  0.00000000000E+00 0.  1.
<mgrwt>
<rscale>  2 0.22938602E+03</rscale>
<asrwt>0</asrwt>
<pdfrwt beam="1">  1       21 0.51975969E-02 0.22946656E+03</pdfrwt>
<pdfrwt beam="2">  1       21 0.24109516E+00 0.22946656E+03</pdfrwt>
<totfact> 0.18346843E+04</totfact>
</mgrwt>
</event>
<event>
12    1  0.1071811E-001  0.1968099E+03  0.7546771E-02  0.1156363E+00
         21   -1    0    0  503  502  0.00000000000E+00  0.00000000000E+00  0.56926380849E+02  0.56926380849E+02  0.00000000000E+00 0. -1.
         21   -1    0    0  501  503 -0.00000000000E+00 -0.00000000000E+00 -0.87668895397E+03  0.87668895397E+03  0.00000000000E+00 0. -1.
          6    2    1    2  501    0  0.11313851212E+02 -0.42676124035E+02 -0.64793113398E+03  0.67234881953E+03  0.17403713956E+03 0.  0.
         24    2    3    3    0    0 -0.16396625191E-01  0.32032427738E+02 -0.48213667376E+03  0.49008627465E+03  0.81870066099E+02 0.  0.
         -6    2    1    2    0  502 -0.11313851212E+02  0.42676124035E+02 -0.17183143915E+03  0.26126651530E+03  0.19179388349E+03 0.  0.
        -24    2    5    5    0    0 -0.28791034038E+02 -0.37297603304E+02 -0.29835901333E+02  0.97296787167E+02  0.79727341179E+02 0.  0.
          5    1    3    3  501    0  0.11330247837E+02 -0.74708551774E+02 -0.16579446022E+03  0.18226254488E+03  0.47000000000E+01 0. -1.
        -11    1    4    4    0    0 -0.19330335657E+02  0.49980524034E+02 -0.21208086723E+03  0.21874644890E+03  0.00000000000E+00 0.  1.
         12    1    4    4    0    0  0.19313939032E+02 -0.17948096295E+02 -0.27005580653E+03  0.27133982575E+03  0.00000000000E+00 0. -1.
         -5    1    5    5    0  502  0.17477182826E+02  0.79973727339E+02 -0.14199553781E+03  0.16396972813E+03  0.47000000000E+01 0.  1.
         13    1    6    6    0    0 -0.35613350541E+02 -0.11926727006E+02 -0.51155839045E+02  0.63462409522E+02  0.00000000000E+00 0. -1.
        -14    1    6    6    0    0  0.68223165030E+01 -0.25370876298E+02  0.21319937712E+02  0.33834377646E+02  0.00000000000E+00 0.  1.
<mgrwt>
<rscale>  2 0.19234530E+03</rscale>
<asrwt>0</asrwt>
<pdfrwt beam="1">  1       21 0.87579053E-02 0.19680993E+03</pdfrwt>
<pdfrwt beam="2">  1       21 0.13487522E+00 0.19680993E+03</pdfrwt>
<totfact> 0.40250466E+04</totfact>
</mgrwt>
</event>
<event>
12    1  0.1071811E-001  0.1899959E+03  0.7546771E-02  0.1158873E+00
         21   -1    0    0  503  502  0.00000000000E+00  0.00000000000E+00  0.12483301928E+04  0.12483301928E+04  0.00000000000E+00 0. -1.
         21   -1    0    0  501  503 -0.00000000000E+00 -0.00000000000E+00 -0.33918441098E+02  0.33918441098E+02  0.00000000000E+00 0. -1.
          6    2    1    2  501    0  0.70126185464E+02 -0.23310738139E+02  0.35682901212E+03  0.40425905629E+03  0.17503533444E+03 0.  0.
         24    2    3    3    0    0  0.42952291831E+02 -0.51500560560E+02  0.10290286793E+03  0.14728889598E+03  0.81288446541E+02 0.  0.
         -6    2    1    2    0  502 -0.70126185464E+02  0.23310738139E+02  0.85758273961E+03  0.87798957764E+03  0.17307937704E+03 0.  0.
        -24    2    5    5    0    0 -0.74555261304E+01 -0.18142045263E+02  0.18868417143E+03  0.20486750156E+03  0.77357985811E+02 0.  0.
          5    1    3    3  501    0  0.27173893632E+02  0.28189822421E+02  0.25392614419E+03  0.25697016031E+03  0.47000000000E+01 0. -1.
        -11    1    4    4    0    0  0.56618694843E+02 -0.32713279185E+02  0.10528120029E+03  0.12393533142E+03  0.00000000000E+00 0.  1.
         12    1    4    4    0    0 -0.13666403012E+02 -0.18787281376E+02 -0.23783323639E+01  0.23353564559E+02  0.00000000000E+00 0. -1.
         -5    1    5    5    0  502 -0.62670659333E+02  0.41452783402E+02  0.66889856818E+03  0.67312207608E+03  0.47000000000E+01 0.  1.
         11    1    6    6    0    0 -0.26889264852E+02 -0.38231576445E+02  0.15019582058E+03  0.15730057381E+03  0.00000000000E+00 0. -1.
        -12    1    6    6    0    0  0.19433738722E+02  0.20089531182E+02  0.38488350855E+02  0.47566927747E+02  0.00000000000E+00 0.  1.
<mgrwt>
<rscale>  2 0.18954419E+03</rscale>
<asrwt>0</asrwt>
<pdfrwt beam="1">  1       21 0.19205076E+00 0.18999590E+03</pdfrwt>
<pdfrwt beam="2">  1       21 0.52182227E-02 0.18999590E+03</pdfrwt>
<totfact> 0.37895753E+04</totfact>
</mgrwt>
</event>
<event>
12    1  0.1071811E-001  0.2145376E+03  0.7546771E-02  0.1138135E+00
         21   -1    0    0  503  502  0.00000000000E+00  0.00000000000E+00  0.14614997491E+04  0.14614997491E+04  0.00000000000E+00 0.  1.
         21   -1    0    0  501  503 -0.00000000000E+00 -0.00000000000E+00 -0.38191492744E+02  0.38191492744E+02  0.00000000000E+00 0.  1.
          6    2    1    2  501    0  0.10936831832E+03  0.64179522951E+02  0.10285053467E+04  0.10506424865E+04  0.17304897035E+03 0.  0.
         24    2    3    3    0    0  0.27221801032E+02  0.19276662340E+02  0.23877178448E+03  0.25536548670E+03  0.84184028012E+02 0.  0.
         -6    2    1    2    0  502 -0.10936831832E+03 -0.64179522951E+02  0.39480290963E+03  0.44904875527E+03  0.17232239244E+03 0.  0.
        -24    2    5    5    0    0 -0.77574643458E+02 -0.35002717159E+02  0.10787543253E+03  0.15885642100E+03  0.79719746807E+02 0.  0.
          5    1    3    3  501    0  0.82146517283E+02  0.44902860612E+02  0.78973356220E+03  0.79527699983E+03  0.47000000000E+01 0. -1.
        -13    1    4    4    0    0  0.24241937804E+02  0.24912354281E+02  0.24440116974E+03  0.24686074762E+03  0.00000000000E+00 0.  1.
         14    1    4    4    0    0  0.29798632282E+01 -0.56356919415E+01 -0.56293852585E+01  0.85047390852E+01  0.00000000000E+00 0. -1.
         -5    1    5    5    0  502 -0.31793674858E+02 -0.29176805792E+02  0.28692747710E+03  0.29019233427E+03  0.47000000000E+01 0.  1.
         11    1    6    6    0    0 -0.20766115285E+02 -0.52708829164E+02  0.45611425988E+02  0.72731385224E+02  0.00000000000E+00 0. -1.
        -12    1    6    6    0    0 -0.56808528173E+02  0.17706112006E+02  0.62264006547E+02  0.86125035772E+02  0.00000000000E+00 0.  1.
<mgrwt>
<rscale>  2 0.21439105E+03</rscale>
<asrwt>0</asrwt>
<pdfrwt beam="1">  1       21 0.22484607E+00 0.21453761E+03</pdfrwt>
<pdfrwt beam="2">  1       21 0.58756154E-02 0.21453761E+03</pdfrwt>
<totfact> 0.18872928E+04</totfact>
</mgrwt>
</event>
<event>
12    1  0.1071811E-001  0.1787246E+03  0.7546771E-02  0.1169178E+00
         21   -1    0    0  501  502  0.00000000000E+00  0.00000000000E+00  0.11199725454E+03  0.11199725454E+03  0.00000000000E+00 0.  1.
         21   -1    0    0  502  503 -0.00000000000E+00 -0.00000000000E+00 -0.30205305156E+03  0.30205305156E+03  0.00000000000E+00 0.  1.
         -6    2    1    2    0  503 -0.27412298574E+02  0.24102936010E+02 -0.45015491119E+02  0.18430650138E+03  0.17495744161E+03 0.  0.
        -24    2    3    3    0    0  0.44155896083E+02  0.23548578944E+02  0.77601437110E+01  0.95257798809E+02  0.80681780312E+02 0.  0.
          6    2    1    2  501    0  0.27412298574E+02 -0.24102936010E+02 -0.14504030590E+03  0.22974380473E+03  0.17439363474E+03 0.  0.
         24    2    5    5    0    0  0.45186477345E+02  0.24580102931E+02 -0.27637799260E+02  0.10132496547E+03  0.82806409679E+02 0.  0.
          5    1    5    5  501    0 -0.17774178771E+02 -0.48683038941E+02 -0.11740250664E+03  0.12841883926E+03  0.47000000000E+01 0. -1.
        -13    1    6    6    0    0 -0.29743934255E+01  0.11365559050E+02 -0.46484556388E+02  0.47946187871E+02  0.00000000000E+00 0.  1.
         14    1    6    6    0    0  0.48160870771E+02  0.13214543881E+02  0.18846757128E+02  0.53378777596E+02  0.00000000000E+00 0. -1.
         -5    1    3    3    0  503 -0.71568194657E+02  0.55435706609E+00 -0.52775634830E+02  0.89048702573E+02  0.47000000000E+01 0.  1.
         11    1    4    4    0    0  0.37195399196E+00 -0.39386361939E+01 -0.30618001475E+02  0.30872531791E+02  0.00000000000E+00 0. -1.
        -12    1    4    4    0    0  0.43783942091E+02  0.27487215138E+02  0.38378145186E+02  0.64385267018E+02  0.00000000000E+00 0.  1.
<mgrwt>
<rscale>  2 0.17858649E+03</rscale>
<asrwt>0</asrwt>
<pdfrwt beam="1">  1       21 0.17230347E-01 0.17872463E+03</pdfrwt>
<pdfrwt beam="2">  1       21 0.46469699E-01 0.17872463E+03</pdfrwt>
<totfact> 0.13562048E+05</totfact>
</mgrwt>
</event>
<event>
12    1  0.1071811E-001  0.3031436E+03  0.7546771E-02  0.1083857E+00
         21   -1    0    0  501  502  0.00000000000E+00  0.00000000000E+00  0.36039859626E+03  0.36039859626E+03  0.00000000000E+00 0. -1.
         21   -1    0    0  502  503 -0.00000000000E+00 -0.00000000000E+00 -0.43716622361E+03  0.43716622361E+03  0.00000000000E+00 0.  1.
         -6    2    1    2    0  503 -0.24164188083E+03 -0.62924001881E+02 -0.29661547756E+03  0.42309302228E+03  0.16934206623E+03 0.  0.
        -24    2    3    3    0    0 -0.15719797181E+03  0.17888669761E+02 -0.22328836871E+03  0.28503355480E+03  0.79719664560E+02 0.  0.
          6    2    1    2  501    0  0.24164188083E+03  0.62924001881E+02  0.21984785022E+03  0.37447179759E+03  0.17188897976E+03 0.  0.
         24    2    5    5    0    0  0.12657876429E+03 -0.87084144065E+01  0.51560227732E+02  0.15833864943E+03  0.79464776910E+02 0.  0.
          5    1    5    5  501    0  0.11506311653E+03  0.71632416287E+02  0.16828762248E+03  0.21613314815E+03  0.47000000000E+01 0. -1.
        -13    1    6    6    0    0  0.22275330720E+02  0.29155212760E+02  0.24514593728E+02  0.44126886310E+02  0.00000000000E+00 0.  1.
         14    1    6    6    0    0  0.10430343357E+03 -0.37863627166E+02  0.27045634004E+02  0.11421176312E+03  0.00000000000E+00 0. -1.
         -5    1    3    3    0  503 -0.84443909018E+02 -0.80812671642E+02 -0.73327108853E+02  0.13805946748E+03  0.47000000000E+01 0.  1.
         11    1    4    4    0    0 -0.10545206564E+03  0.48817533889E+02 -0.13496527628E+03  0.17809805042E+03  0.00000000000E+00 0. -1.
        -12    1    4    4    0    0 -0.51745906170E+02 -0.30928864128E+02 -0.88323092431E+02  0.10693550439E+03  0.00000000000E+00 0.  1.
<mgrwt>
<rscale>  2 0.30278376E+03</rscale>
<asrwt>0</asrwt>
<pdfrwt beam="1">  1       21 0.55445938E-01 0.30314361E+03</pdfrwt>
<pdfrwt beam="2">  1       21 0.67256341E-01 0.30314361E+03</pdfrwt>
<totfact> 0.57964115E+03</totfact>
</mgrwt>
</event>
<event>
12    1  0.1071811E-001  0.2019955E+03  0.7546771E-02  0.1148220E+00
         21   -1    0    0  503  502  0.00000000000E+00  0.00000000000E+00  0.17638301682E+03  0.17638301682E+03  0.00000000000E+00 0.  1.
         21   -1    0    0  501  503 -0.00000000000E+00 -0.00000000000E+00 -0.27817035218E+03  0.27817035218E+03  0.00000000000E+00 0. -1.
          6    2    1    2  501    0  0.47104443242E+01 -0.10396914033E+03 -0.14507422268E+03  0.24869401220E+03  0.17311964415E+03 0.  0.
         24    2    3    3    0    0 -0.34342897204E+02 -0.11389910609E+03 -0.62720877321E+02  0.15689024759E+03  0.80797279538E+02 0.  0.
         -6    2    1    2    0  502 -0.47104443242E+01  0.10396914033E+03  0.43286887321E+02  0.20585935680E+03  0.17225721971E+03 0.  0.
        -24    2    5    5    0    0 -0.46011738118E+02  0.61032888266E+02  0.80173219390E+02  0.13563108540E+03  0.78268465710E+02 0.  0.
          5    1    3    3  501    0  0.39053341528E+02  0.99299657566E+01 -0.82353345356E+02  0.91803764606E+02  0.47000000000E+01 0. -1.
        -13    1    4    4    0    0 -0.56617291286E+02 -0.53649796610E+02 -0.22808241335E+02  0.81265209172E+02  0.00000000000E+00 0.  1.
         14    1    4    4    0    0  0.22274394083E+02 -0.60249309478E+02 -0.39912635986E+02  0.75625038418E+02  0.00000000000E+00 0. -1.
         -5    1    5    5    0  502  0.41301293794E+02  0.42936252066E+02 -0.36886332068E+02  0.70228271401E+02  0.47000000000E+01 0.  1.
         13    1    6    6    0    0 -0.31154370990E+02  0.71957660690E+02  0.33170052516E+02  0.85139603873E+02  0.00000000000E+00 0. -1.
        -14    1    6    6    0    0 -0.14857367128E+02 -0.10924772425E+02  0.47003166874E+02  0.50491481526E+02  0.00000000000E+00 0.  1.
<mgrwt>
<rscale>  2 0.20181058E+03</rscale>
<asrwt>0</asrwt>
<pdfrwt beam="1">  1       21 0.27135849E-01 0.20199550E+03</pdfrwt>
<pdfrwt beam="2">  1       21 0.42795439E-01 0.20199550E+03</pdfrwt>
<totfact> 0.67689732E+04</totfact>
</mgrwt>
</event>
<event>
12    1  0.1071811E-001  0.2538221E+03  0.7546771E-02  0.1111382E+00
         21   -1    0    0  501  502  0.00000000000E+00  0.00000000000E+00  0.12236456858E+03  0.12236456858E+03  0.00000000000E+00 0. -1.
         21   -1    0    0  502  503 -0.00000000000E+00 -0.00000000000E+00 -0.68155251868E+03  0.68155251868E+03  0.00000000000E+00 0. -1.
         -6    2    1    2    0  503  0.14586581918E+03  0.11382524471E+03 -0.47639556018E+03  0.53979475705E+03  0.17376025564E+03 0.  0.
        -24    2    3    3    0    0  0.83009505433E+01  0.48253388067E+02 -0.14020073443E+03  0.17064328092E+03  0.84057052939E+02 0.  0.
          6    2    1    2  501    0 -0.14586581918E+03 -0.11382524471E+03 -0.82792389919E+02  0.26412233020E+03  0.16933104247E+03 0.  0.
         24    2    5    5    0    0 -0.10911422849E+03 -0.12236254463E+02 -0.71236326856E+02  0.15537199710E+03  0.83726951668E+02 0.  0.
          5    1    5    5  501    0 -0.36751590690E+02 -0.10158899025E+03 -0.11556063063E+02  0.10875033311E+03  0.47000000000E+01 0. -1.
        -13    1    6    6    0    0 -0.50022587392E+02  0.34143148194E+02 -0.17599877521E+02  0.63069560857E+02  0.00000000000E+00 0.  1.
         14    1    6    6    0    0 -0.59091641100E+02 -0.46379402657E+02 -0.53636449334E+02  0.92302436240E+02  0.00000000000E+00 0. -1.
         -5    1    3    3    0  503  0.13756486864E+03  0.65571856641E+02 -0.33619482575E+03  0.36915147613E+03  0.47000000000E+01 0.  1.
         13    1    4    4    0    0  0.84300120120E+01  0.72520946914E+02 -0.10536864561E+03  0.12819089017E+03  0.00000000000E+00 0. -1.
        -14    1    4    4    0    0 -0.12906146872E+00 -0.24267558847E+02 -0.34832088820E+02  0.42452390755E+02  0.00000000000E+00 0.  1.
<mgrwt>
<rscale>  2 0.25306587E+03</rscale>
<asrwt>0</asrwt>
<pdfrwt beam="1">  1       21 0.18825318E-01 0.25382208E+03</pdfrwt>
<pdfrwt beam="2">  1       21 0.10485423E+00 0.25382208E+03</pdfrwt>
<totfact> 0.18289453E+04</totfact>
</mgrwt>
</event>
<event>
12    1  0.1071811E-001  0.1828191E+03  0.7546771E-02  0.1165249E+00
         21   -1    0    0  501  502  0.00000000000E+00  0.00000000000E+00  0.54942993661E+03  0.54942993661E+03  0.00000000000E+00 0. -1.
         21   -1    0    0  502  503 -0.00000000000E+00 -0.00000000000E+00 -0.85871394766E+02  0.85871394766E+02  0.00000000000E+00 0. -1.
         -6    2    1    2    0  503 -0.42403149993E+02 -0.43612065958E+02  0.59823842524E+02  0.19235826652E+03  0.17240293250E+03 0.  0.
        -24    2    3    3    0    0  0.31885398856E+02 -0.50095605504E+02  0.63676336881E+02  0.11754011038E+03  0.78960454140E+02 0.  0.
          6    2    1    2  501    0  0.42403149993E+02  0.43612065958E+02  0.40373469932E+03  0.44294306486E+03  0.17174635905E+03 0.  0.
         24    2    5    5    0    0 -0.13540134080E+02 -0.27360579983E+02  0.25601112050E+03  0.26970590590E+03  0.79168461469E+02 0.  0.
          5    1    5    5  501    0  0.55943284072E+02  0.70972645941E+02  0.14772357883E+03  0.17323715896E+03  0.47000000000E+01 0. -1.
        -11    1    6    6    0    0  0.20514999832E+01 -0.93320721572E+01 -0.26763563431E+01  0.99226562070E+01  0.00000000000E+00 0.  1.
         12    1    6    6    0    0 -0.15591634063E+02 -0.18028507826E+02  0.25868747684E+03  0.25978324969E+03  0.00000000000E+00 0. -1.
         -5    1    3    3    0  503 -0.74288548849E+02  0.64835395455E+01 -0.38524943565E+01  0.74818156138E+02  0.47000000000E+01 0.  1.
         11    1    4    4    0    0  0.41015629733E+02 -0.20165188660E+02  0.71889553960E+02  0.85188172211E+02  0.00000000000E+00 0. -1.
        -12    1    4    4    0    0 -0.91302308770E+01 -0.29930416844E+02 -0.82132170793E+01  0.32351938166E+02  0.00000000000E+00 0.  1.
<mgrwt>
<rscale>  2 0.18266411E+03</rscale>
<asrwt>0</asrwt>
<pdfrwt beam="1">  1       21 0.84527680E-01 0.18281907E+03</pdfrwt>
<pdfrwt beam="2">  1       21 0.13210984E-01 0.18281907E+03</pdfrwt>
<totfact> 0.60197834E+04</totfact>
</mgrwt>
</event>
<event>
12    1  0.1071811E-001  0.1943865E+03  0.7546771E-02  0.1155890E+00
         21   -1    0    0  501  502  0.00000000000E+00  0.00000000000E+00  0.42532454359E+03  0.42532454359E+03  0.00000000000E+00 0.  1.
         21   -1    0    0  502  503 -0.00000000000E+00 -0.00000000000E+00 -0.11764739422E+03  0.11764739422E+03  0.00000000000E+00 0.  1.
         -6    2    1    2    0  503 -0.65678109628E+02  0.30689804783E+02  0.29608150913E+03  0.35418976307E+03  0.18036255157E+03 0.  0.
        -24    2    3    3    0    0 -0.26390282597E+02 -0.27487851939E+02  0.58801076999E+02  0.10669781054E+03  0.80466310323E+02 0.  0.
          6    2    1    2  501    0  0.65678109628E+02 -0.30689804783E+02  0.11595640241E+02  0.18878217474E+03  0.17392174224E+03 0.  0.
         24    2    5    5    0    0 -0.32940026917E+02 -0.48801081613E+01  0.10177219400E+02  0.86724449831E+02  0.79427284826E+02 0.  0.
          5    1    5    5  501    0  0.98618136545E+02 -0.25809696621E+02  0.14184208412E+01  0.10205772491E+03  0.47000000000E+01 0. -1.
        -11    1    6    6    0    0 -0.29359209501E+02 -0.32778284215E+02 -0.17413228181E+02  0.47324408230E+02  0.00000000000E+00 0.  1.
         12    1    6    6    0    0 -0.35808174164E+01  0.27898176054E+02  0.27590447581E+02  0.39400041602E+02  0.00000000000E+00 0. -1.
         -5    1    3    3    0  503 -0.39287827031E+02  0.58177656722E+02  0.23728043213E+03  0.24749195253E+03  0.47000000000E+01 0.  1.
         11    1    4    4    0    0 -0.23158358568E+02  0.44459578927E+01  0.69080921699E+02  0.72994861846E+02  0.00000000000E+00 0. -1.
        -12    1    4    4    0    0 -0.32319240296E+01 -0.31933809832E+02 -0.10279844700E+02  0.33702948690E+02  0.00000000000E+00 0.  1.
<mgrwt>
<rscale>  2 0.19287889E+03</rscale>
<asrwt>0</asrwt>
<pdfrwt beam="1">  1       21 0.65434544E-01 0.19438654E+03</pdfrwt>
<pdfrwt beam="2">  1       21 0.18099599E-01 0.19438654E+03</pdfrwt>
<totfact> 0.59651438E+04</totfact>
</mgrwt>
</event>
<event>
12    1  0.1071811E-001  0.2452863E+03  0.7546771E-02  0.1116359E+00
         21   -1    0    0  503  502  0.00000000000E+00  0.00000000000E+00  0.12648120436E+03  0.12648120436E+03  0.00000000000E+00 0. -1.
         21   -1    0    0  501  503 -0.00000000000E+00 -0.00000000000E+00 -0.48544979230E+03  0.48544979230E+03  0.00000000000E+00 0.  1.
          6    2    1    2  501    0  0.25397404655E+01 -0.17317198615E+03 -0.22379468375E+03  0.33186431196E+03  0.17336341599E+03 0.  0.
         24    2    3    3    0    0 -0.56347636222E+02 -0.94765694194E+02 -0.17666485050E+03  0.22296720027E+03  0.79676283097E+02 0.  0.
         -6    2    1    2    0  502 -0.25397404655E+01  0.17317198615E+03 -0.13517390419E+03  0.28006668470E+03  0.17369621882E+03 0.  0.
        -24    2    5    5    0    0 -0.12023042156E+02  0.15014914947E+03 -0.25037336291E+02  0.16705280233E+03  0.67752859181E+02 0.  0.
          5    1    3    3  501    0  0.58887376688E+02 -0.78406291960E+02 -0.47129833248E+02  0.10889711169E+03  0.47000000000E+01 0. -1.
        -11    1    4    4    0    0 -0.82647090106E+01  0.13231713314E+02 -0.96395375686E+01  0.18338602368E+02  0.00000000000E+00 0.  1.
         12    1    4    4    0    0 -0.48082927212E+02 -0.10799740751E+03 -0.16702531294E+03  0.20462859790E+03  0.00000000000E+00 0. -1.
         -5    1    5    5    0  502  0.94833016902E+01  0.23022836685E+02 -0.11013656790E+03  0.11301388237E+03  0.47000000000E+01 0.  1.
         11    1    6    6    0    0 -0.22926271127E+02  0.59359510875E+02 -0.38877124966E+02  0.74569405822E+02  0.00000000000E+00 0. -1.
        -12    1    6    6    0    0  0.10903228972E+02  0.90789638594E+02  0.13839788676E+02  0.92483396503E+02  0.00000000000E+00 0.  1.
<mgrwt>
<rscale>  2 0.24522738E+03</rscale>
<asrwt>0</asrwt>
<pdfrwt beam="1">  1       21 0.19458647E-01 0.24528629E+03</pdfrwt>
<pdfrwt beam="2">  1       21 0.74684583E-01 0.24528629E+03</pdfrwt>
<totfact> 0.38006838E+04</totfact>
</mgrwt>
</event>
<event>
12    1  0.1071811E-001  0.1757721E+03  0.7546771E-02  0.1172055E+00
         21   -1    0    0  503  502  0.00000000000E+00  0.00000000000E+00  0.70363688238E+02  0.70363688238E+02  0.00000000000E+00 0. -1.
         21   -1    0    0  501  503 -0.00000000000E+00 -0.00000000000E+00 -0.89668911726E+03  0.89668911726E+03  0.00000000000E+00 0. -1.
          6    2    1    2  501    0  0.25869914032E+02  0.10174964059E+02 -0.75916403066E+03  0.77924697968E+03  0.17355992496E+03 0.  0.
         24    2    3    3    0    0 -0.47910707185E+02  0.16602320477E+01 -0.53073438089E+03  0.53900069850E+03  0.80898564208E+02 0.  0.
         -6    2    1    2    0  502 -0.25869914032E+02 -0.10174964059E+02 -0.67161398358E+02  0.18780582581E+03  0.17316925949E+03 0.  0.
        -24    2    5    5    0    0  0.53882050911E+02 -0.21291585820E+02 -0.49186856016E+02  0.10516727933E+03  0.72692522316E+02 0.  0.
          5    1    3    3  501    0  0.73780621216E+02  0.85147320115E+01 -0.22842964977E+03  0.24024628118E+03  0.47000000000E+01 0. -1.
        -11    1    4    4    0    0 -0.52461880320E+02 -0.25375845342E+02 -0.23989804034E+03  0.24687497276E+03  0.00000000000E+00 0.  1.
         12    1    4    4    0    0  0.45511731359E+01  0.27036077390E+02 -0.29083634055E+03  0.29212572574E+03  0.00000000000E+00 0. -1.
         -5    1    5    5    0  502 -0.79751964942E+02  0.11116621761E+02 -0.17974542342E+02  0.82638546478E+02  0.47000000000E+01 0.  1.
         13    1    6    6    0    0  0.51968325974E+02 -0.29494207060E+02 -0.64353995598E+02  0.87818289121E+02  0.00000000000E+00 0. -1.
        -14    1    6    6    0    0  0.19137249366E+01  0.82026212397E+01  0.15167139582E+02  0.17348990214E+02  0.00000000000E+00 0.  1.
<mgrwt>
<rscale>  2 0.17567558E+03</rscale>
<asrwt>0</asrwt>
<pdfrwt beam="1">  1       21 0.10825184E-01 0.17577210E+03</pdfrwt>
<pdfrwt beam="2">  1       21 0.13795216E+00 0.17577210E+03</pdfrwt>
<totfact> 0.26488969E+04</totfact>
</mgrwt>
</event>
<event>
12    1  0.1071811E-001  0.1734111E+03  0.7546771E-02  0.1174608E+00
         21   -1    0    0  501  502  0.00000000000E+00  0.00000000000E+00  0.42709030242E+03  0.42709030242E+03  0.00000000000E+00 0. -1.
         21   -1    0    0  502  503 -0.00000000000E+00 -0.00000000000E+00 -0.71856739306E+02  0.71856739306E+02  0.00000000000E+00 0. -1.
         -6    2    1    2    0  503 -0.13167748159E+02 -0.13558473957E+02  0.13675448146E+03  0.22001245796E+03  0.17130811904E+03 0.  0.
        -24    2    3    3    0    0 -0.55833386711E+02 -0.19488002891E+02  0.29296141572E+02  0.10414658361E+03  0.80567348465E+02 0.  0.
          6    2    1    2  501    0  0.13167748159E+02  0.13558473957E+02  0.21847908165E+03  0.27893458377E+03  0.17237798901E+03 0.  0.
         24    2    5    5    0    0  0.63733049022E+02  0.25097546031E+02  0.84965813795E+02  0.13562414266E+03  0.80516645512E+02 0.  0.
          5    1    5    5  501    0 -0.50565300863E+02 -0.11539072074E+02  0.13351326786E+03  0.14331044110E+03  0.47000000000E+01 0. -1.
        -13    1    6    6    0    0  0.12210175062E+02 -0.97707368939E+01 -0.12483193268E+02  0.20009642392E+02  0.00000000000E+00 0.  1.
         14    1    6    6    0    0  0.51522873960E+02  0.34868282925E+02  0.97449007063E+02  0.11561450027E+03  0.00000000000E+00 0. -1.
         -5    1    3    3    0  503  0.42665638552E+02  0.59295289332E+01  0.10745833989E+03  0.11586587435E+03  0.47000000000E+01 0.  1.
         11    1    4    4    0    0 -0.16106254475E+02  0.31161347594E+02  0.54380235381E+01  0.35496663464E+02  0.00000000000E+00 0. -1.
        -12    1    4    4    0    0 -0.39727132236E+02 -0.50649350484E+02  0.23858118034E+02  0.68649920148E+02  0.00000000000E+00 0.  1.
<mgrwt>
<rscale>  2 0.17314457E+03</rscale>
<asrwt>0</asrwt>
<pdfrwt beam="1">  1       21 0.65706199E-01 0.17341105E+03</pdfrwt>
<pdfrwt beam="2">  1       21 0.11054883E-01 0.17341105E+03</pdfrwt>
<totfact> 0.14556019E+05</totfact>
</mgrwt>
</event>
<event>
12    1  0.1071811E-001  0.1925051E+03  0.7546771E-02  0.1156364E+00
         21   -1    0    0  501  502  0.00000000000E+00  0.00000000000E+00  0.23511258434E+04  0.23511258434E+04  0.00000000000E+00 0. -1.
         21   -1    0    0  502  503 -0.00000000000E+00 -0.00000000000E+00 -0.46977112022E+02  0.46977112022E+02  0.00000000000E+00 0. -1.
         -6    2    1    2    0  503 -0.24231099139E+02 -0.77444217161E+02  0.17319632116E+03  0.25847298879E+03  0.17385789408E+03 0.  0.
        -24    2    3    3    0    0 -0.49902292370E+01 -0.11903436205E+03  0.12037824021E+03  0.18838881867E+03  0.82494512235E+02 0.  0.
          6    2    1    2  501    0  0.24231099139E+02  0.77444217161E+02  0.21309524102E+04  0.21396299666E+04  0.17456651040E+03 0.  0.
         24    2    5    5    0    0  0.66201345250E+02  0.48617474944E+02  0.88905011137E+03  0.89667546525E+03  0.82888554497E+02 0.  0.
          5    1    5    5  501    0 -0.41970246111E+02  0.28826742217E+02  0.12419022988E+04  0.12429545014E+04  0.47000000000E+01 0. -1.
        -11    1    6    6    0    0  0.10775213447E+02 -0.18725911425E+02  0.77599012117E+02  0.80550429328E+02  0.00000000000E+00 0.  1.
         12    1    6    6    0    0  0.55426131803E+02  0.67343386368E+02  0.81145109925E+03  0.81612503592E+03  0.00000000000E+00 0. -1.
         -5    1    3    3    0  503 -0.19240869902E+02  0.41590144885E+02  0.52818080949E+02  0.70084170119E+02  0.47000000000E+01 0.  1.
         11    1    4    4    0    0  0.36707019124E+02 -0.35144259950E+02  0.49215390134E+02  0.70743755106E+02  0.00000000000E+00 0. -1.
        -12    1    4    4    0    0 -0.41697248361E+02 -0.83890102096E+02  0.71162850078E+02  0.11764506357E+03  0.00000000000E+00 0.  1.
<mgrwt>
<rscale>  2 0.19234433E+03</rscale>
<asrwt>0</asrwt>
<pdfrwt beam="1">  1       21 0.36171158E+00 0.19250512E+03</pdfrwt>
<pdfrwt beam="2">  1       21 0.72272498E-02 0.19250512E+03</pdfrwt>
<totfact> 0.21332536E+03</totfact>
</mgrwt>
</event>
<event>
12    1  0.1071811E-001  0.3426241E+03  0.7546771E-02  0.1065776E+00
         21   -1    0    0  503  502  0.00000000000E+00  0.00000000000E+00  0.10971156809E+04  0.10971156809E+04  0.00000000000E+00 0.  1.
         21   -1    0    0  501  503 -0.00000000000E+00 -0.00000000000E+00 -0.27762084823E+03  0.27762084823E+03  0.00000000000E+00 0. -1.
          6    2    1    2  501    0 -0.15935223254E+03  0.24919844555E+03 -0.12974639729E+03  0.36555360213E+03  0.17117917262E+03 0.  0.
         24    2    3    3    0    0 -0.88014122688E+02  0.73153613579E+02 -0.10236578360E+03  0.17358303983E+03  0.80959132240E+02 0.  0.
         -6    2    1    2    0  502  0.15935223254E+03 -0.24919844555E+03  0.94924123000E+03  0.10091829270E+04  0.17291115701E+03 0.  0.
        -24    2    5    5    0    0  0.14780881842E+03 -0.25391853039E+03  0.94737613004E+03  0.99572565361E+03  0.87326849261E+02 0.  0.
          5    1    3    3  501    0 -0.71338109856E+02  0.17604483197E+03 -0.27380613686E+02  0.19197056229E+03  0.47000000000E+01 0. -1.
        -11    1    4    4    0    0 -0.29233390302E+02 -0.16015066388E+02 -0.22318242355E+02  0.40114553491E+02  0.00000000000E+00 0.  1.
         12    1    4    4    0    0 -0.58780732387E+02  0.89168679966E+02 -0.80047541247E+02  0.13346848634E+03  0.00000000000E+00 0. -1.
         -5    1    5    5    0  502  0.11543414123E+02  0.47200848354E+01  0.18650999594E+01  0.13457273436E+02  0.47000000000E+01 0.  1.
         11    1    6    6    0    0  0.50127931488E+01 -0.85168362721E+02  0.25079257543E+03  0.26490695346E+03  0.00000000000E+00 0. -1.
        -12    1    6    6    0    0  0.14279602527E+03 -0.16875016766E+03  0.69658355461E+03  0.73081870014E+03  0.00000000000E+00 0.  1.
<mgrwt>
<rscale>  2 0.34240618E+03</rscale>
<asrwt>0</asrwt>
<pdfrwt beam="1">  1       21 0.16878703E+00 0.34262409E+03</pdfrwt>
<pdfrwt beam="2">  1       21 0.42710900E-01 0.34262409E+03</pdfrwt>
<totfact> 0.10187726E+03</totfact>
</mgrwt>
</event>
<event>
12    1  0.1071811E-001  0.2315066E+03  0.7546771E-02  0.1126260E+00
         21   -1    0    0  501  502  0.00000000000E+00  0.00000000000E+00  0.12802905971E+03  0.12802905971E+03  0.00000000000E+00 0. -1.
         21   -1    0    0  502  503 -0.00000000000E+00 -0.00000000000E+00 -0.12069856081E+04  0.12069856081E+04  0.00000000000E+00 0.  1.
         -6    2    1    2    0  503  0.99142866109E+02 -0.11447587654E+03 -0.10797656960E+04  0.11035066477E+04  0.16999685023E+03 0.  0.
        -24    2    3    3    0    0  0.12489127491E+03 -0.89437935494E+02 -0.10175028760E+04  0.10314745174E+04  0.70926740014E+02 0.  0.
          6    2    1    2  501    0 -0.99142866109E+02  0.11447587654E+03  0.80914756602E+00  0.23150802014E+03  0.17510361065E+03 0.  0.
         24    2    5    5    0    0 -0.44377490970E+02  0.11975396894E+03 -0.46945550530E+02  0.15850318630E+03  0.81295759869E+02 0.  0.
          5    1    5    5  501    0 -0.54765375138E+02 -0.52780924027E+01  0.47754698096E+02  0.73004833838E+02  0.47000000000E+01 0. -1.
        -11    1    6    6    0    0 -0.11846867775E+02 -0.54991218391E+01 -0.23646684317E+02  0.27013964838E+02  0.00000000000E+00 0.  1.
         12    1    6    6    0    0 -0.32530623195E+02  0.12525309078E+03 -0.23298866212E+02  0.13148922147E+03  0.00000000000E+00 0. -1.
         -5    1    3    3    0  503 -0.25748408805E+02 -0.25037941043E+02 -0.62262819936E+02  0.72032130290E+02  0.47000000000E+01 0.  1.
         11    1    4    4    0    0  0.19308514031E+02 -0.43691692208E+02 -0.18546756963E+03  0.19152023931E+03  0.00000000000E+00 0. -1.
        -12    1    4    4    0    0  0.10558276088E+03 -0.45746243286E+02 -0.83203530640E+03  0.83995427808E+03  0.00000000000E+00 0.  1.
<mgrwt>
<rscale>  2 0.23054107E+03</rscale>
<asrwt>0</asrwt>
<pdfrwt beam="1">  1       21 0.19696780E-01 0.23150661E+03</pdfrwt>
<pdfrwt beam="2">  1       21 0.18569008E+00 0.23150661E+03</pdfrwt>
<totfact> 0.38244540E+03</totfact>
</mgrwt>
</event>
<event>
12    1  0.1071811E-001  0.2027917E+03  0.7546771E-02  0.1149039E+00
         21   -1    0    0  503  502  0.00000000000E+00  0.00000000000E+00  0.71467974624E+02  0.71467974624E+02  0.00000000000E+00 0. -1.
         21   -1    0    0  501  503 -0.00000000000E+00 -0.00000000000E+00 -0.67486211760E+03  0.67486211760E+03  0.00000000000E+00 0. -1.
          6    2    1    2  501    0  0.72430839984E+02  0.78206092916E+02 -0.45497406302E+03  0.49502749084E+03  0.16336584439E+03 0.  0.
         24    2    3    3    0    0  0.42441016597E+02  0.35755090281E+02 -0.42234845151E+03  0.43348077965E+03  0.80297605580E+02 0.  0.
         -6    2    1    2    0  502 -0.72430839984E+02 -0.78206092916E+02 -0.14842007995E+03  0.25130260138E+03  0.17251683332E+03 0.  0.
        -24    2    5    5    0    0 -0.46780263199E+02 -0.81958968792E+02 -0.25045840442E+02  0.12514662990E+03  0.78286137093E+02 0.  0.
          5    1    3    3  501    0  0.29989823387E+02  0.42451002634E+02 -0.32625611510E+02  0.61546711186E+02  0.47000000000E+01 0. -1.
        -13    1    4    4    0    0  0.30621472912E+02 -0.22147758727E+02 -0.13977919321E+03  0.14479786142E+03  0.00000000000E+00 0.  1.
         14    1    4    4    0    0  0.11819543685E+02  0.57902849009E+02 -0.28256925831E+03  0.28868291823E+03  0.00000000000E+00 0. -1.
         -5    1    5    5    0  502 -0.25650576784E+02  0.37528758765E+01 -0.12337423951E+03  0.12615597148E+03  0.47000000000E+01 0.  1.
         11    1    6    6    0    0 -0.52072589786E+02 -0.54009399167E+02 -0.47594822012E+02  0.88847267194E+02  0.00000000000E+00 0. -1.
        -12    1    6    6    0    0  0.52923265864E+01 -0.27949569625E+02  0.22548981570E+02  0.36299362705E+02  0.00000000000E+00 0.  1.
<mgrwt>
<rscale>  2 0.20083211E+03</rscale>
<asrwt>0</asrwt>
<pdfrwt beam="1">  1       21 0.10995073E-01 0.20279171E+03</pdfrwt>
<pdfrwt beam="2">  1       21 0.10382494E+00 0.20279171E+03</pdfrwt>
<totfact> 0.51214687E+04</totfact>
</mgrwt>
</event>
<event>
12    1  0.1071811E-001  0.2246910E+03  0.7546771E-02  0.1130568E+00
         21   -1    0    0  501  502  0.00000000000E+00  0.00000000000E+00  0.30730633445E+03  0.30730633445E+03  0.00000000000E+00 0.  1.
         21   -1    0    0  502  503 -0.00000000000E+00 -0.00000000000E+00 -0.20770215676E+03  0.20770215676E+03  0.00000000000E+00 0. -1.
         -6    2    1    2    0  503 -0.79546532136E+02 -0.11806983774E+03 -0.68594520449E+02  0.23492815145E+03  0.17383293920E+03 0.  0.
        -24    2    3    3    0    0  0.75640533484E+01 -0.10699223969E+03 -0.62896911758E+02  0.14680596340E+03  0.78047518371E+02 0.  0.
          6    2    1    2  501    0  0.79546532136E+02  0.11806983774E+03  0.16819869814E+03  0.28008033976E+03  0.17287584362E+03 0.  0.
         24    2    5    5    0    0  0.74610327246E+02  0.20846185892E+02  0.13002445657E+03  0.17540862765E+03  0.88659815870E+02 0.  0.
          5    1    5    5  501    0  0.49362048905E+01  0.97223651845E+02  0.38174241564E+02  0.10467171211E+03  0.47000000000E+01 0. -1.
        -13    1    6    6    0    0 -0.15730744207E+00  0.62625740322E+01  0.88361014765E+02  0.88582805947E+02  0.00000000000E+00 0.  1.
         14    1    6    6    0    0  0.74767634688E+02  0.14583611859E+02  0.41663441808E+02  0.86825821707E+02  0.00000000000E+00 0. -1.
         -5    1    3    3    0  503 -0.87110585485E+02 -0.11077598045E+02 -0.56976086908E+01  0.88122188050E+02  0.47000000000E+01 0.  1.
         11    1    4    4    0    0  0.16471396002E+02 -0.69996770281E+02 -0.77797337269E+02  0.10593998500E+03  0.00000000000E+00 0. -1.
        -12    1    4    4    0    0 -0.89073426538E+01 -0.36995469410E+02  0.14900425511E+02  0.40865978398E+02  0.00000000000E+00 0.  1.
<mgrwt>
<rscale>  2 0.22450582E+03</rscale>
<asrwt>0</asrwt>
<pdfrwt beam="1">  1       21 0.47277898E-01 0.22469096E+03</pdfrwt>
<pdfrwt beam="2">  1       21 0.31954178E-01 0.22469096E+03</pdfrwt>
<totfact> 0.39677862E+04</totfact>
</mgrwt>
</event>
<event>
12    1  0.1071811E-001  0.1920338E+03  0.7546771E-02  0.1157028E+00
         21   -1    0    0  503  502  0.00000000000E+00  0.00000000000E+00  0.12597483380E+03  0.12597483380E+03  0.00000000000E+00 0. -1.
         21   -1    0    0  501  503 -0.00000000000E+00 -0.00000000000E+00 -0.38416237627E+03  0.38416237627E+03  0.00000000000E+00 0. -1.
          6    2    1    2  501    0  0.20082232751E+02 -0.76310485018E+02 -0.25486966811E+03  0.31807479911E+03  0.17316594327E+03 0.  0.
         24    2    3    3    0    0 -0.40167169933E+02 -0.25820233850E+02 -0.20307571380E+03  0.22382003960E+03  0.81089941276E+02 0.  0.
         -6    2    1    2    0  502 -0.20082232751E+02  0.76310485018E+02 -0.33178743466E+01  0.19206241096E+03  0.17507248561E+03 0.  0.
        -24    2    5    5    0    0 -0.23746368524E+02  0.11825275060E+03  0.15032831494E+02  0.14589512885E+03  0.80695722045E+02 0.  0.
          5    1    3    3  501    0  0.60249402684E+02 -0.50490251168E+02 -0.51793954318E+02  0.94254759512E+02  0.47000000000E+01 0. -1.
        -11    1    4    4    0    0  0.81985663760E+01 -0.40030848954E+02 -0.11865535207E+03  0.12549413506E+03  0.00000000000E+00 0.  1.
         12    1    4    4    0    0 -0.48365736309E+02  0.14210615104E+02 -0.84420361726E+02  0.98325904543E+02  0.00000000000E+00 0. -1.
         -5    1    5    5    0  502  0.36641357727E+01 -0.41942265579E+02 -0.18350705840E+02  0.46167282113E+02  0.47000000000E+01 0.  1.
         11    1    6    6    0    0  0.45244404871E+01  0.97288253930E+02 -0.16330123781E+02  0.98752963789E+02  0.00000000000E+00 0. -1.
        -12    1    6    6    0    0 -0.28270809011E+02  0.20964496667E+02  0.31362955275E+02  0.47142165056E+02  0.00000000000E+00 0.  1.
<mgrwt>
<rscale>  2 0.19159814E+03</rscale>
<asrwt>0</asrwt>
<pdfrwt beam="1">  1       21 0.19380744E-01 0.19203375E+03</pdfrwt>
<pdfrwt beam="2">  1       21 0.59101903E-01 0.19203375E+03</pdfrwt>
<totfact> 0.65532832E+04</totfact>
</mgrwt>
</event>
<event>
12    1  0.1071811E-001  0.1769409E+03  0.7546771E-02  0.1170922E+00
         21   -1    0    0  503  502  0.00000000000E+00  0.00000000000E+00  0.30105131600E+03  0.30105131600E+03  0.00000000000E+00 0.  1.
         21   -1    0    0  501  503 -0.00000000000E+00 -0.00000000000E+00 -0.32031475256E+03  0.32031475256E+03  0.00000000000E+00 0.  1.
          6    2    1    2  501    0  0.56863278388E+01 -0.35723243603E+02 -0.26512632626E+03  0.31874763766E+03  0.17320393524E+03 0.  0.
         24    2    3    3    0    0  0.22278063508E+02 -0.68392971495E+02 -0.93167786177E+02  0.14286578436E+03  0.80972126664E+02 0.  0.
         -6    2    1    2    0  502 -0.56863278388E+01  0.35723243603E+02  0.24586288970E+03  0.30261843090E+03  0.17268720200E+03 0.  0.
        -24    2    5    5    0    0  0.32821269586E+02  0.40156709002E+02  0.24492061751E+03  0.26356118379E+03  0.82392910531E+02 0.  0.
          5    1    3    3  501    0 -0.16591735669E+02  0.32669727892E+02 -0.17195854008E+03  0.17588185330E+03  0.47000000000E+01 0. -1.
        -11    1    4    4    0    0 -0.17578744036E+02 -0.32198080878E+02 -0.79140782286E+02  0.87229536711E+02  0.00000000000E+00 0.  1.
         12    1    4    4    0    0  0.39856807544E+02 -0.36194890617E+02 -0.14027003892E+02  0.55636247650E+02  0.00000000000E+00 0. -1.
         -5    1    5    5    0  502 -0.38507597425E+02 -0.44334653994E+01  0.94227218754E+00  0.39057247109E+02  0.47000000000E+01 0.  1.
         11    1    6    6    0    0  0.24918302760E+02  0.58102193246E+02  0.10721300886E+03  0.12446451679E+03  0.00000000000E+00 0. -1.
        -12    1    6    6    0    0  0.79029668254E+01 -0.17945484244E+02  0.13770760865E+03  0.13909666700E+03  0.00000000000E+00 0.  1.
<mgrwt>
<rscale>  2 0.17681433E+03</rscale>
<asrwt>0</asrwt>
<pdfrwt beam="1">  1       21 0.46315587E-01 0.17694092E+03</pdfrwt>
<pdfrwt beam="2">  1       21 0.49279193E-01 0.17694092E+03</pdfrwt>
<totfact> 0.17710151E+04</totfact>
</mgrwt>
</event>
<event>
12    1  0.1071811E-001  0.2858176E+03  0.7546771E-02  0.1092569E+00
         21   -1    0    0  501  502  0.00000000000E+00  0.00000000000E+00  0.20994323525E+03  0.20994323525E+03  0.00000000000E+00 0. -1.
         21   -1    0    0  502  503 -0.00000000000E+00 -0.00000000000E+00 -0.62275506335E+03  0.62275506335E+03  0.00000000000E+00 0. -1.
         -6    2    1    2    0  503 -0.13055700854E+03  0.18648230374E+03 -0.46154051225E+03  0.54287325149E+03  0.17283211697E+03 0.  0.
        -24    2    3    3    0    0 -0.11210893537E+03  0.17116536669E+03 -0.46796690474E+03  0.51760808803E+03  0.84018526048E+02 0.  0.
          6    2    1    2  501    0  0.13055700854E+03 -0.18648230374E+03  0.48728684148E+02  0.28982504710E+03  0.17263629740E+03 0.  0.
         24    2    5    5    0    0  0.53366689620E+02 -0.96204188076E+02  0.91092689744E+02  0.16362963327E+03  0.79834387289E+02 0.  0.
          5    1    5    5  501    0  0.77190318916E+02 -0.90278115668E+02 -0.42364005596E+02  0.12619541384E+03  0.47000000000E+01 0. -1.
        -13    1    6    6    0    0  0.15356158346E+02  0.96840223515E+01 -0.10835242307E+01  0.18186970963E+02  0.00000000000E+00 0.  1.
         14    1    6    6    0    0  0.38010531273E+02 -0.10588821043E+03  0.92176213974E+02  0.14544266230E+03  0.00000000000E+00 0. -1.
         -5    1    3    3    0  503 -0.18448073169E+02  0.15316937050E+02  0.64263924953E+01  0.25265163462E+02  0.47000000000E+01 0.  1.
         11    1    4    4    0    0 -0.10587171997E+03  0.14529521186E+03 -0.45232118868E+03  0.48673809940E+03  0.00000000000E+00 0. -1.
        -12    1    4    4    0    0 -0.62372153973E+01  0.25870154838E+02 -0.15645716063E+02  0.30869988636E+02  0.00000000000E+00 0.  1.
<mgrwt>
<rscale>  2 0.28578804E+03</rscale>
<asrwt>0</asrwt>
<pdfrwt beam="1">  1       21 0.32298959E-01 0.28581764E+03</pdfrwt>
<pdfrwt beam="2">  1       21 0.95808473E-01 0.28581764E+03</pdfrwt>
<totfact> 0.79096626E+03</totfact>
</mgrwt>
</event>
<event>
12    1  0.1071811E-001  0.2398991E+03  0.7546771E-02  0.1119899E+00
         21   -1    0    0  503  502  0.00000000000E+00  0.00000000000E+00  0.37001067212E+03  0.37001067212E+03  0.00000000000E+00 0. -1.
         21   -1    0    0  501  503 -0.00000000000E+00 -0.00000000000E+00 -0.16670114472E+03  0.16670114472E+03  0.00000000000E+00 0. -1.
          6    2    1    2  501    0  0.14301236858E+03 -0.83926144943E+02  0.31700462787E+02  0.24175206661E+03  0.17304047791E+03 0.  0.
         24    2    3    3    0    0  0.69913022753E+02 -0.23678006057E+02  0.79358039913E+02  0.13560741409E+03  0.81505788367E+02 0.  0.
         -6    2    1    2    0  502 -0.14301236858E+03  0.83926144943E+02  0.17160906462E+03  0.29495975023E+03  0.17336507095E+03 0.  0.
        -24    2    5    5    0    0 -0.10505066598E+03 -0.76939353370E+00  0.50961338881E+02  0.14266927506E+03  0.81983105553E+02 0.  0.
          5    1    3    3  501    0  0.73099345830E+02 -0.60248138886E+02 -0.47657577126E+02  0.10614465251E+03  0.47000000000E+01 0. -1.
        -11    1    4    4    0    0  0.78327925602E+02  0.58530523925E+01  0.63753116388E+02  0.10116314547E+03  0.00000000000E+00 0.  1.
         12    1    4    4    0    0 -0.84149028491E+01 -0.29531058450E+02  0.15604923525E+02  0.34444268628E+02  0.00000000000E+00 0. -1.
         -5    1    5    5    0  502 -0.37961702598E+02  0.84695538477E+02  0.12064772574E+03  0.15229047517E+03  0.47000000000E+01 0.  1.
         11    1    6    6    0    0 -0.47023935771E+01 -0.12628203771E+02  0.38581646062E+02  0.40867192816E+02  0.00000000000E+00 0. -1.
        -12    1    6    6    0    0 -0.10034827241E+03  0.11858810237E+02  0.12379692819E+02  0.10180208225E+03  0.00000000000E+00 0.  1.
<mgrwt>
<rscale>  2 0.23984047E+03</rscale>
<asrwt>0</asrwt>
<pdfrwt beam="1">  1       21 0.56924719E-01 0.23989911E+03</pdfrwt>
<pdfrwt beam="2">  1       21 0.25646330E-01 0.23989911E+03</pdfrwt>
<totfact> 0.40894382E+04</totfact>
</mgrwt>
</event>
<event>
12    1  0.1071811E-001  0.2092243E+03  0.7546771E-02  0.1142854E+00
         21   -1    0    0  501  502  0.00000000000E+00  0.00000000000E+00  0.29784088215E+03  0.29784088215E+03  0.00000000000E+00 0.  1.
         21   -1    0    0  502  503 -0.00000000000E+00 -0.00000000000E+00 -0.21891554510E+03  0.21891554510E+03  0.00000000000E+00 0.  1.
         -6    2    1    2    0  503 -0.91857397144E+02  0.73568479343E+02 -0.11125685326E+03  0.23401260790E+03  0.16891924312E+03 0.  0.
        -24    2    3    3    0    0 -0.11603753276E+03  0.72079591044E+02 -0.47592288452E+02  0.16573257744E+03  0.80883155553E+02 0.  0.
          6    2    1    2  501    0  0.91857397144E+02 -0.73568479343E+02  0.19018219030E+03  0.28274381935E+03  0.17298756982E+03 0.  0.
         24    2    5    5    0    0  0.49037281091E+02 -0.11516207880E+03  0.14588289120E+03  0.20825819822E+03  0.80141748495E+02 0.  0.
          5    1    5    5  501    0  0.42820116053E+02  0.41593599458E+02  0.44299299102E+02  0.74485621133E+02  0.47000000000E+01 0. -1.
        -11    1    6    6    0    0  0.78129033478E+01 -0.80549244699E+02  0.12818772817E+03  0.15159589683E+03  0.00000000000E+00 0.  1.
         12    1    6    6    0    0  0.41224377743E+02 -0.34612834102E+02  0.17695163022E+02  0.56662301394E+02  0.00000000000E+00 0. -1.
         -5    1    3    3    0  503  0.24180135617E+02  0.14888882989E+01 -0.63664564804E+02  0.68280030452E+02  0.47000000000E+01 0.  1.
         11    1    4    4    0    0 -0.57407069297E+02 -0.15838154678E+00  0.70461871791E+01  0.57838096820E+02  0.00000000000E+00 0. -1.
        -12    1    4    4    0    0 -0.58630463463E+02  0.72237972591E+02 -0.54638475631E+02  0.10789448062E+03  0.00000000000E+00 0.  1.
<mgrwt>
<rscale>  2 0.20838146E+03</rscale>
<asrwt>0</asrwt>
<pdfrwt beam="1">  1       21 0.45821674E-01 0.20922429E+03</pdfrwt>
<pdfrwt beam="2">  1       21 0.33679315E-01 0.20922429E+03</pdfrwt>
<totfact> 0.38441987E+04</totfact>
</mgrwt>
</event>
<event>
12    1  0.1071811E-001  0.2233485E+03  0.7546771E-02  0.1132277E+00
         21   -1    0    0  503  502  0.00000000000E+00  0.00000000000E+00  0.14583183387E+03  0.14583183387E+03  0.00000000000E+00 0. -1.
         21   -1    0    0  501  503 -0.00000000000E+00 -0.00000000000E+00 -0.33494453766E+03  0.33494453766E+03  0.00000000000E+00 0. -1.
          6    2    1    2  501    0 -0.28845497569E+02 -0.12906646031E+03 -0.95056898713E+02  0.23843149276E+03  0.17413658100E+03 0.  0.
         24    2    3    3    0    0  0.98570653840E+01 -0.88009738635E+02  0.10650233669E+02  0.11851639526E+03  0.78037379729E+02 0.  0.
         -6    2    1    2    0  502  0.28845497569E+02  0.12906646031E+03 -0.94055805076E+02  0.24234487877E+03  0.17998425456E+03 0.  0.
        -24    2    5    5    0    0 -0.38026188290E+02  0.28482804673E+02 -0.10280616383E+02  0.95275961621E+02  0.81942398254E+02 0.  0.
          5    1    3    3  501    0 -0.38702562953E+02 -0.41056721671E+02 -0.10570713238E+03  0.11991509751E+03  0.47000000000E+01 0. -1.
        -13    1    4    4    0    0  0.24016757227E+02 -0.51117482522E+01  0.22844733524E+02  0.33538283315E+02  0.00000000000E+00 0.  1.
         14    1    4    4    0    0 -0.14159691843E+02 -0.82897990382E+02 -0.12194499856E+02  0.84978111942E+02  0.00000000000E+00 0. -1.
         -5    1    5    5    0  502  0.66871685859E+02  0.10058365563E+03 -0.83775188693E+02  0.14706891715E+03  0.47000000000E+01 0.  1.
         11    1    6    6    0    0 -0.36500405123E+02  0.31319345901E+02  0.28802489137E+02  0.56060363736E+02  0.00000000000E+00 0. -1.
        -12    1    6    6    0    0 -0.15257831674E+01 -0.28365412279E+01 -0.39083105520E+02  0.39215597885E+02  0.00000000000E+00 0.  1.
<mgrwt>
<rscale>  2 0.22216793E+03</rscale>
<asrwt>0</asrwt>
<pdfrwt beam="1">  1       21 0.22435667E-01 0.22334849E+03</pdfrwt>
<pdfrwt beam="2">  1       21 0.51529929E-01 0.22334849E+03</pdfrwt>
<totfact> 0.65661381E+04</totfact>
</mgrwt>
</event>
<event>
12    1  0.1071811E-001  0.1855286E+03  0.7546771E-02  0.1162560E+00
         21   -1    0    0  503  502  0.00000000000E+00  0.00000000000E+00  0.56357672689E+03  0.56357672689E+03  0.00000000000E+00 0. -1.
         21   -1    0    0  501  503 -0.00000000000E+00 -0.00000000000E+00 -0.65820287217E+02  0.65820287217E+02  0.00000000000E+00 0.  1.
          6    2    1    2  501    0 -0.59605302795E+02 -0.32603319602E+02  0.16433745431E+03  0.24783564224E+03  0.17262658574E+03 0.  0.
         24    2    3    3    0    0 -0.84676006335E+02 -0.60951741499E+02  0.76533823659E+02  0.15210821276E+03  0.79964625826E+02 0.  0.
         -6    2    1    2    0  502  0.59605302795E+02  0.32603319602E+02  0.33341898537E+03  0.38156137187E+03  0.17264151335E+03 0.  0.
        -24    2    5    5    0    0  0.36070774106E+02  0.34769310878E+02  0.72335528823E+02  0.11936826204E+03  0.80661933587E+02 0.  0.
          5    1    3    3  501    0  0.25070703540E+02  0.28348421897E+02  0.87803630649E+02  0.95727429482E+02  0.47000000000E+01 0. -1.
        -11    1    4    4    0    0 -0.29581409752E+02 -0.69506616282E+02  0.40345562168E+02  0.85638740629E+02  0.00000000000E+00 0.  1.
         12    1    4    4    0    0 -0.55094596583E+02  0.85548747831E+01  0.36188261491E+02  0.66469472127E+02  0.00000000000E+00 0. -1.
         -5    1    5    5    0  502  0.23534528689E+02 -0.21659912760E+01  0.26108345655E+03  0.26219310983E+03  0.47000000000E+01 0.  1.
         13    1    6    6    0    0 -0.70287779735E+01  0.18431323860E+02  0.70534339280E+02  0.73240770317E+02  0.00000000000E+00 0. -1.
        -14    1    6    6    0    0  0.43099552080E+02  0.16337987018E+02  0.18011895427E+01  0.46127491727E+02  0.00000000000E+00 0.  1.
<mgrwt>
<rscale>  2 0.18552513E+03</rscale>
<asrwt>0</asrwt>
<pdfrwt beam="1">  1       21 0.86704109E-01 0.18552860E+03</pdfrwt>
<pdfrwt beam="2">  1       21 0.10126198E-01 0.18552860E+03</pdfrwt>
<totfact> 0.91135982E+04</totfact>
</mgrwt>
</event>
<event>
12    1  0.1071811E-001  0.2307038E+03  0.7546771E-02  0.1127542E+00
         21   -1    0    0  501  502  0.00000000000E+00  0.00000000000E+00  0.10299379379E+03  0.10299379379E+03  0.00000000000E+00 0. -1.
         21   -1    0    0  502  503 -0.00000000000E+00 -0.00000000000E+00 -0.54810269178E+03  0.54810269178E+03  0.00000000000E+00 0.  1.
         -6    2    1    2    0  503  0.72201678570E+02 -0.12142508983E+03 -0.12202230869E+03  0.25409626030E+03  0.17239005438E+03 0.  0.
        -24    2    3    3    0    0 -0.18104229248E+02 -0.10075982545E+03 -0.81533375596E+02  0.15288532294E+03  0.79031165314E+02 0.  0.
          6    2    1    2  501    0 -0.72201678570E+02  0.12142508983E+03 -0.32308658930E+03  0.39700022528E+03  0.18239270779E+03 0.  0.
         24    2    5    5    0    0 -0.78511560222E+02  0.94184254035E+02 -0.33558280858E+03  0.36601436983E+03  0.79473006162E+02 0.  0.
          5    1    5    5  501    0  0.63098816524E+01  0.27240835796E+02  0.12496219285E+02  0.30985855446E+02  0.47000000000E+01 0. -1.
        -11    1    6    6    0    0 -0.54861205639E+02  0.18594030171E+02 -0.20738399601E+03  0.21532211136E+03  0.00000000000E+00 0.  1.
         12    1    6    6    0    0 -0.23650354583E+02  0.75590223864E+02 -0.12819881258E+03  0.15069225847E+03  0.00000000000E+00 0. -1.
         -5    1    3    3    0  503  0.90305907818E+02 -0.20665264378E+02 -0.40488933097E+02  0.10121093736E+03  0.47000000000E+01 0.  1.
         11    1    4    4    0    0  0.23211536755E+02 -0.56401705091E+02 -0.14861887757E+02  0.62775819257E+02  0.00000000000E+00 0. -1.
        -12    1    4    4    0    0 -0.41315766003E+02 -0.44358120362E+02 -0.66671487839E+02  0.90109503678E+02  0.00000000000E+00 0.  1.
<mgrwt>
<rscale>  2 0.22872244E+03</rscale>
<asrwt>0</asrwt>
<pdfrwt beam="1">  1       21 0.15845199E-01 0.23070378E+03</pdfrwt>
<pdfrwt beam="2">  1       21 0.84323490E-01 0.23070378E+03</pdfrwt>
<totfact> 0.42506287E+04</totfact>
</mgrwt>
</event>
<event>
12    1  0.1071811E-001  0.2965087E+03  0.7546771E-02  0.1087107E+00
         21   -1    0    0  503  502  0.00000000000E+00  0.00000000000E+00  0.35842633367E+03  0.35842633367E+03  0.00000000000E+00 0. -1.
         21   -1    0    0  501  503 -0.00000000000E+00 -0.00000000000E+00 -0.31782217135E+03  0.31782217135E+03  0.00000000000E+00 0. -1.
          6    2    1    2  501    0  0.16092441626E+03  0.17969609391E+03 -0.14203287309E+03  0.32800474531E+03  0.17095736893E+03 0.  0.
         24    2    3    3    0    0  0.18689123065E+02  0.42516002086E+02 -0.74860359980E+02  0.11923814659E+03  0.80354018890E+02 0.  0.
         -6    2    1    2    0  502 -0.16092441626E+03 -0.17969609391E+03  0.18263703541E+03  0.34824375971E+03  0.17242411537E+03 0.  0.
        -24    2    5    5    0    0 -0.14248051697E+02 -0.47092402322E+02  0.33447972937E+02  0.10049961486E+03  0.80998175046E+02 0.  0.
          5    1    3    3  501    0  0.14223529320E+03  0.13718009182E+03 -0.67172513114E+02  0.20876659872E+03  0.47000000000E+01 0. -1.
        -11    1    4    4    0    0  0.84958400140E+01  0.62485813244E+02 -0.73401248425E+02  0.96769827036E+02  0.00000000000E+00 0.  1.
         12    1    4    4    0    0  0.10193283051E+02 -0.19969811159E+02 -0.14591115553E+01  0.22468319555E+02  0.00000000000E+00 0. -1.
         -5    1    5    5    0  502 -0.14667636456E+03 -0.13260369159E+03  0.14918906248E+03  0.24774414485E+03  0.47000000000E+01 0.  1.
         11    1    6    6    0    0  0.71560028007E+01 -0.52788972376E+02  0.49834604886E+02  0.72947733514E+02  0.00000000000E+00 0. -1.
        -12    1    6    6    0    0 -0.21404054498E+02  0.56965700540E+01 -0.16386631950E+02  0.27551881351E+02  0.00000000000E+00 0.  1.
<mgrwt>
<rscale>  2 0.29629587E+03</rscale>
<asrwt>0</asrwt>
<pdfrwt beam="1">  1       21 0.55142513E-01 0.29650873E+03</pdfrwt>
<pdfrwt beam="2">  1       21 0.48895718E-01 0.29650873E+03</pdfrwt>
<totfact> 0.11695661E+04</totfact>
</mgrwt>
</event>
<event>
12    1  0.1071811E-001  0.2710882E+03  0.7546771E-02  0.1101509E+00
         21   -1    0    0  501  502  0.00000000000E+00  0.00000000000E+00  0.20315517428E+03  0.20315517428E+03  0.00000000000E+00 0. -1.
         21   -1    0    0  502  503 -0.00000000000E+00 -0.00000000000E+00 -0.44104334042E+03  0.44104334042E+03  0.00000000000E+00 0. -1.
         -6    2    1    2    0  503 -0.18400126927E+03  0.89501187288E+02 -0.26106071813E+03  0.37212175574E+03  0.16868601874E+03 0.  0.
        -24    2    3    3    0    0 -0.14056381422E+03  0.12318668240E+03 -0.23511065129E+03  0.31115437879E+03  0.81282744159E+02 0.  0.
          6    2    1    2  501    0  0.18400126927E+03 -0.89501187288E+02  0.23172551996E+02  0.27207675896E+03  0.17782538058E+03 0.  0.
         24    2    5    5    0    0  0.19684929859E+03 -0.46043329977E+02 -0.58752917926E+01  0.21804413504E+03  0.81480618426E+02 0.  0.
          5    1    5    5  501    0 -0.12848029317E+02 -0.43457857311E+02  0.29047843789E+02  0.54032623924E+02  0.47000000000E+01 0. -1.
        -11    1    6    6    0    0  0.52178208150E+02  0.10109716779E+02  0.26695674092E+02  0.59476304478E+02  0.00000000000E+00 0.  1.
         12    1    6    6    0    0  0.14467109044E+03 -0.56153046757E+02 -0.32570965885E+02  0.15856783056E+03  0.00000000000E+00 0. -1.
         -5    1    3    3    0  503 -0.43437455057E+02 -0.33685495116E+02 -0.25950066841E+02  0.60967376949E+02  0.47000000000E+01 0.  1.
         11    1    4    4    0    0 -0.39359554901E+02  0.64836069321E+02 -0.14492127436E+03  0.16356975946E+03  0.00000000000E+00 0. -1.
        -12    1    4    4    0    0 -0.10120425932E+03  0.58350613084E+02 -0.90189376932E+02  0.14758461933E+03  0.00000000000E+00 0.  1.
<mgrwt>
<rscale>  2 0.26959960E+03</rscale>
<asrwt>0</asrwt>
<pdfrwt beam="1">  1       21 0.31254643E-01 0.27108817E+03</pdfrwt>
<pdfrwt beam="2">  1       21 0.67852821E-01 0.27108817E+03</pdfrwt>
<totfact> 0.18721408E+04</totfact>
</mgrwt>
</event>
<event>
12    1  0.1071811E-001  0.2373851E+03  0.7546771E-02  0.1122803E+00
         21   -1    0    0  503  502  0.00000000000E+00  0.00000000000E+00  0.33106037611E+03  0.33106037611E+03  0.00000000000E+00 0.  1.
         21   -1    0    0  501  503 -0.00000000000E+00 -0.00000000000E+00 -0.18069886034E+03  0.18069886034E+03  0.00000000000E+00 0. -1.
          6    2    1    2  501    0 -0.12510863544E+03  0.86771834845E+02  0.87439482233E+00  0.23738666494E+03  0.18212672000E+03 0.  0.
         24    2    3    3    0    0 -0.13721538898E+03  0.25118893461E+02  0.36578967575E+02  0.16496729475E+03  0.80107213705E+02 0.  0.
         -6    2    1    2    0  502  0.12510863544E+03 -0.86771834845E+02  0.14948712095E+03  0.27437257151E+03  0.17248880162E+03 0.  0.
        -24    2    5    5    0    0  0.23682607186E+02  0.12215772168E+02  0.80681888298E+02  0.11675900741E+03  0.80081257096E+02 0.  0.
          5    1    3    3  501    0  0.12106753539E+02  0.61652941383E+02 -0.35704572753E+02  0.72419370185E+02  0.47000000000E+01 0. -1.
        -13    1    4    4    0    0 -0.21856686855E+02 -0.25991797403E+02  0.14268177440E+02  0.36835705232E+02  0.00000000000E+00 0.  1.
         14    1    4    4    0    0 -0.11535870213E+03  0.51110690864E+02  0.22310790135E+02  0.12813158952E+03  0.00000000000E+00 0. -1.
         -5    1    5    5    0  502  0.10142602825E+03 -0.98987607013E+02  0.68805232651E+02  0.15761356410E+03  0.47000000000E+01 0.  1.
         11    1    6    6    0    0 -0.22659049712E+02 -0.16971803704E+02  0.18123776136E+02  0.33614668171E+02  0.00000000000E+00 0. -1.
        -12    1    6    6    0    0  0.46341656899E+02  0.29187575872E+02  0.62558112162E+02  0.83144339234E+02  0.00000000000E+00 0.  1.
<mgrwt>
<rscale>  2 0.23553572E+03</rscale>
<asrwt>0</asrwt>
<pdfrwt beam="1">  1       21 0.50932366E-01 0.23738505E+03</pdfrwt>
<pdfrwt beam="2">  1       21 0.27799825E-01 0.23738505E+03</pdfrwt>
<totfact> 0.44347594E+04</totfact>
</mgrwt>
</event>
<event>
12    1  0.1071811E-001  0.1745510E+03  0.7546771E-02  0.1173612E+00
         21   -1    0    0  503  502  0.00000000000E+00  0.00000000000E+00  0.13860403594E+03  0.13860403594E+03  0.00000000000E+00 0.  1.
         21   -1    0    0  501  503 -0.00000000000E+00 -0.00000000000E+00 -0.22388902024E+03  0.22388902024E+03  0.00000000000E+00 0.  1.
          6    2    1    2  501    0 -0.79709794101E+01 -0.80170032500E+01 -0.12692311850E+02  0.17501189220E+03  0.17418455379E+03 0.  0.
         24    2    3    3    0    0 -0.51412992363E+01 -0.70053875560E+02  0.12393482716E+02  0.10787049137E+03  0.80922592993E+02 0.  0.
         -6    2    1    2    0  502  0.79709794101E+01  0.80170032500E+01 -0.72592672441E+02  0.18748116398E+03  0.17248675863E+03 0.  0.
        -24    2    5    5    0    0  0.33501959392E+02  0.14465515315E+02  0.19430073887E+02  0.91649592519E+02  0.81795400979E+02 0.  0.
          5    1    3    3  501    0 -0.28296801739E+01  0.62036872310E+02 -0.25085794566E+02  0.67141400826E+02  0.47000000000E+01 0. -1.
        -11    1    4    4    0    0 -0.22037051028E+02 -0.29727872442E+02  0.41302374606E+02  0.55455064386E+02  0.00000000000E+00 0.  1.
         12    1    4    4    0    0  0.16895751792E+02 -0.40326003118E+02 -0.28908891890E+02  0.52415426988E+02  0.00000000000E+00 0. -1.
         -5    1    5    5    0  502 -0.25530979982E+02 -0.64485120651E+01 -0.92022746328E+02  0.95831571460E+02  0.47000000000E+01 0.  1.
         13    1    6    6    0    0  0.54459598306E+02  0.10271118120E+02 -0.89330618456E+01  0.56135045284E+02  0.00000000000E+00 0. -1.
        -14    1    6    6    0    0 -0.20957638915E+02  0.41943971947E+01  0.28363135733E+02  0.35514547235E+02  0.00000000000E+00 0.  1.
<mgrwt>
<rscale>  2 0.17412595E+03</rscale>
<asrwt>0</asrwt>
<pdfrwt beam="1">  1       21 0.21323698E-01 0.17455105E+03</pdfrwt>
<pdfrwt beam="2">  1       21 0.34444464E-01 0.17455105E+03</pdfrwt>
<totfact> 0.16722576E+05</totfact>
</mgrwt>
</event>
<event>
12    1  0.1071811E-001  0.2203608E+03  0.7546771E-02  0.1134088E+00
         21   -1    0    0  503  502  0.00000000000E+00  0.00000000000E+00  0.27045123035E+03  0.27045123035E+03  0.00000000000E+00 0. -1.
         21   -1    0    0  501  503 -0.00000000000E+00 -0.00000000000E+00 -0.26343977728E+03  0.26343977728E+03  0.00000000000E+00 0.  1.
          6    2    1    2  501    0  0.26351968780E+02 -0.13475836582E+03 -0.14895287197E+03  0.26598091409E+03  0.17235035588E+03 0.  0.
         24    2    3    3    0    0 -0.46297695449E+02 -0.78271411430E+02 -0.51930481287E+02  0.13217439697E+03  0.80643697058E+02 0.  0.
         -6    2    1    2    0  502 -0.26351968780E+02  0.13475836582E+03  0.15596432504E+03  0.26791009355E+03  0.16910560050E+03 0.  0.
        -24    2    5    5    0    0 -0.56651649085E+02  0.13403253236E+03  0.77439153573E+02  0.18360772101E+03  0.80875482280E+02 0.  0.
          5    1    3    3  501    0  0.72649664229E+02 -0.56486954392E+02 -0.97022390687E+02  0.13380651712E+03  0.47000000000E+01 0. -1.
        -13    1    4    4    0    0  0.88410406480E+00 -0.74046766437E+02 -0.28761252388E+02  0.79441266976E+02  0.00000000000E+00 0.  1.
         14    1    4    4    0    0 -0.47181799514E+02 -0.42246449931E+01 -0.23169228899E+02  0.52733129989E+02  0.00000000000E+00 0. -1.
         -5    1    5    5    0  502  0.30299680305E+02  0.72583346072E+00  0.78525171471E+02  0.84302372537E+02  0.47000000000E+01 0.  1.
         13    1    6    6    0    0 -0.45137513176E+02  0.62197457796E+02  0.79839208163E+02  0.11081614509E+03  0.00000000000E+00 0. -1.
        -14    1    6    6    0    0 -0.11514135909E+02  0.71835074566E+02 -0.24000545899E+01  0.72791575925E+02  0.00000000000E+00 0.  1.
<mgrwt>
<rscale>  2 0.21972597E+03</rscale>
<asrwt>0</asrwt>
<pdfrwt beam="1">  1       21 0.41607882E-01 0.22036081E+03</pdfrwt>
<pdfrwt beam="2">  1       21 0.40529196E-01 0.22036081E+03</pdfrwt>
<totfact> 0.32148727E+04</totfact>
</mgrwt>
</event>
<event>
12    1  0.1071811E-001  0.1865110E+03  0.7546771E-02  0.1162619E+00
         21   -1    0    0  503  502  0.00000000000E+00  0.00000000000E+00  0.31248646695E+03  0.31248646695E+03  0.00000000000E+00 0. -1.
         21   -1    0    0  501  503 -0.00000000000E+00 -0.00000000000E+00 -0.22432627339E+03  0.22432627339E+03  0.00000000000E+00 0. -1.
          6    2    1    2  501    0  0.66247750228E+01  0.55596881834E+02 -0.14824536242E+03  0.23824999107E+03  0.17790859971E+03 0.  0.
         24    2    3    3    0    0  0.10392463725E+02 -0.40626137345E+01 -0.71513418546E+00  0.78999530684E+02  0.78204260106E+02 0.  0.
         -6    2    1    2    0  502 -0.66247750228E+01 -0.55596881834E+02  0.23640555598E+03  0.29856274927E+03  0.17354315729E+03 0.  0.
        -24    2    5    5    0    0 -0.46705470313E+02 -0.10574640419E+01  0.64844786785E+02  0.11407373129E+03  0.81396871013E+02 0.  0.
          5    1    3    3  501    0 -0.37676887024E+01  0.59659495569E+02 -0.14753022823E+03  0.15925046038E+03  0.47000000000E+01 0. -1.
        -13    1    4    4    0    0  0.11213076604E+02  0.34527108249E+02  0.12200367879E+02  0.38297562159E+02  0.00000000000E+00 0.  1.
         14    1    4    4    0    0 -0.82061287927E+00 -0.38589721983E+02 -0.12915502064E+02  0.40701968525E+02  0.00000000000E+00 0. -1.
         -5    1    5    5    0  502  0.40080695290E+02 -0.54539417792E+02  0.17156076919E+03  0.18448901798E+03  0.47000000000E+01 0.  1.
         13    1    6    6    0    0 -0.12283080138E+02  0.25552167510E+02  0.64618944533E+02  0.70564830579E+02  0.00000000000E+00 0. -1.
        -14    1    6    6    0    0 -0.34422390174E+02 -0.26609631552E+02  0.22584225263E+00  0.43508900715E+02  0.00000000000E+00 0.  1.
<mgrwt>
<rscale>  2 0.18546239E+03</rscale>
<asrwt>0</asrwt>
<pdfrwt beam="1">  1       21 0.48074841E-01 0.18651105E+03</pdfrwt>
<pdfrwt beam="2">  1       21 0.34511734E-01 0.18651105E+03</pdfrwt>
<totfact> 0.33562783E+04</totfact>
</mgrwt>
</event>
<event>
12    1  0.1071811E-001  0.1985443E+03  0.7546771E-02  0.1151129E+00
         21   -1    0    0  503  502  0.00000000000E+00  0.00000000000E+00  0.44546911909E+02  0.44546911909E+02  0.00000000000E+00 0. -1.
         21   -1    0    0  501  503 -0.00000000000E+00 -0.00000000000E+00 -0.11140316733E+04  0.11140316733E+04  0.00000000000E+00 0.  1.
          6    2    1    2  501    0  0.53691986801E+02 -0.79603224016E+02 -0.79853722031E+03  0.82267322388E+03  0.17294518882E+03 0.  0.
         24    2    3    3    0    0  0.60688027170E+02  0.72555749779E+01 -0.31812029140E+03  0.33439470589E+03  0.82967581109E+02 0.  0.
         -6    2    1    2    0  502 -0.53691986801E+02  0.79603224016E+02 -0.27094754104E+03  0.33590536129E+03  0.17378244742E+03 0.  0.
        -24    2    5    5    0    0 -0.43594003117E+02  0.10013472572E+03 -0.27926254695E+03  0.31111138703E+03  0.82917577181E+02 0.  0.
          5    1    3    3  501    0 -0.69960403688E+01 -0.86858798994E+02 -0.48041692891E+03  0.48827851799E+03  0.47000000000E+01 0. -1.
        -11    1    4    4    0    0  0.29267106421E+02  0.44413681170E+02 -0.19136576680E+03  0.19862022882E+03  0.00000000000E+00 0.  1.
         12    1    4    4    0    0  0.31420920748E+02 -0.37158106192E+02 -0.12675452461E+03  0.13577447707E+03  0.00000000000E+00 0. -1.
         -5    1    5    5    0  502 -0.10097983684E+02 -0.20531501699E+02  0.83150059148E+01  0.24793974265E+02  0.47000000000E+01 0.  1.
         13    1    6    6    0    0 -0.12762641011E+02 -0.12733181441E+02 -0.21650830104E+02  0.28174054720E+02  0.00000000000E+00 0. -1.
        -14    1    6    6    0    0 -0.30831362106E+02  0.11286790716E+03 -0.25761171685E+03  0.28293733231E+03  0.00000000000E+00 0.  1.
<mgrwt>
<rscale>  2 0.19836095E+03</rscale>
<asrwt>0</asrwt>
<pdfrwt beam="1">  1       21 0.68533712E-02 0.19854431E+03</pdfrwt>
<pdfrwt beam="2">  1       21 0.17138948E+00 0.19854431E+03</pdfrwt>
<totfact> 0.32610294E+04</totfact>
</mgrwt>
</event>
<event>
12    1  0.1071811E-001  0.1887486E+03  0.7546771E-02  0.1160693E+00
         21   -1    0    0  503  502  0.00000000000E+00  0.00000000000E+00  0.11829890167E+03  0.11829890167E+03  0.00000000000E+00 0.  1.
         21   -1    0    0  501  503 -0.00000000000E+00 -0.00000000000E+00 -0.43663295155E+03  0.43663295155E+03  0.00000000000E+00 0. -1.
          6    2    1    2  501    0  0.59976447004E+02  0.18653113837E+01 -0.31659724651E+03  0.36617530241E+03  0.17392493213E+03 0.  0.
         24    2    3    3    0    0 -0.54903629704E+01  0.55802311683E+02 -0.15184900527E+03  0.18081301876E+03  0.80567892340E+02 0.  0.
         -6    2    1    2    0  502 -0.59976447004E+02 -0.18653113837E+01 -0.17368033713E+01  0.18875655080E+03  0.17895632261E+03 0.  0.
        -24    2    5    5    0    0  0.15227572309E+02  0.19362635000E+02  0.50953980529E+02  0.94391944425E+02  0.75542970871E+02 0.  0.
          5    1    3    3  501    0  0.65466809974E+02 -0.53937000299E+02 -0.16474824124E+03  0.18536228365E+03  0.47000000000E+01 0. -1.
        -11    1    4    4    0    0 -0.44468069255E+01  0.71134235850E+02 -0.14902025531E+03  0.16518743928E+03  0.00000000000E+00 0.  1.
         12    1    4    4    0    0 -0.10435560449E+01 -0.15331924167E+02 -0.28287499636E+01  0.15625579485E+02  0.00000000000E+00 0. -1.
         -5    1    5    5    0  502 -0.75204019313E+02 -0.21227946384E+02 -0.52690783901E+02  0.94364606376E+02  0.47000000000E+01 0.  1.
         11    1    6    6    0    0 -0.66672399692E+01  0.18222160952E+02 -0.15232699830E+02  0.24668489672E+02  0.00000000000E+00 0. -1.
        -12    1    6    6    0    0  0.21894812278E+02  0.11404740476E+01  0.66186680360E+02  0.69723454754E+02  0.00000000000E+00 0.  1.
<mgrwt>
<rscale>  2 0.18754627E+03</rscale>
<asrwt>0</asrwt>
<pdfrwt beam="1">  1       21 0.18199831E-01 0.18874856E+03</pdfrwt>
<pdfrwt beam="2">  1       21 0.67174301E-01 0.18874856E+03</pdfrwt>
<totfact> 0.55900111E+04</totfact>
</mgrwt>
</event>
<event>
12    1  0.1071811E-001  0.2980578E+03  0.7546771E-02  0.1086329E+00
         21   -1    0    0  501  502  0.00000000000E+00  0.00000000000E+00  0.15693147730E+03  0.15693147730E+03  0.00000000000E+00 0.  1.
         21   -1    0    0  502  503 -0.00000000000E+00 -0.00000000000E+00 -0.57099079785E+03  0.57099079785E+03  0.00000000000E+00 0. -1.
         -6    2    1    2    0  503 -0.21896473164E+03 -0.10105969648E+03 -0.24584960033E+03  0.38567537204E+03  0.17362272507E+03 0.  0.
        -24    2    3    3    0    0 -0.13836681311E+03 -0.49743291455E+02 -0.23551466100E+03  0.28945531765E+03  0.81837982349E+02 0.  0.
          6    2    1    2  501    0  0.21896473164E+03  0.10105969648E+03 -0.16820972022E+03  0.34224690312E+03  0.17515654931E+03 0.  0.
         24    2    5    5    0    0  0.20329410824E+03  0.40012401473E+02 -0.87167439812E+02  0.23947394034E+03  0.82584010685E+02 0.  0.
          5    1    5    5  501    0  0.15670623396E+02  0.61047295004E+02 -0.81042280403E+02  0.10277296278E+03  0.47000000000E+01 0. -1.
        -13    1    6    6    0    0  0.24825113147E+02  0.14394256632E+02  0.14853643561E+02  0.32312715667E+02  0.00000000000E+00 0.  1.
         14    1    6    6    0    0  0.17846899510E+03  0.25618144841E+02 -0.10202108337E+03  0.20716122467E+03  0.00000000000E+00 0. -1.
         -5    1    3    3    0  503 -0.80597918533E+02 -0.51316405022E+02 -0.10334939334E+02  0.96220054392E+02  0.47000000000E+01 0.  1.
         13    1    4    4    0    0 -0.26299684687E+02  0.22077559935E+02 -0.60628251427E+02  0.69676946966E+02  0.00000000000E+00 0. -1.
        -14    1    4    4    0    0 -0.11206712842E+03 -0.71820851390E+02 -0.17488640957E+03  0.21977837068E+03  0.00000000000E+00 0.  1.
<mgrwt>
<rscale>  2 0.29783282E+03</rscale>
<asrwt>0</asrwt>
<pdfrwt beam="1">  1       21 0.24143305E-01 0.29805777E+03</pdfrwt>
<pdfrwt beam="2">  1       21 0.87844737E-01 0.29805777E+03</pdfrwt>
<totfact> 0.17024872E+04</totfact>
</mgrwt>
</event>
<event>
12    1  0.1071811E-001  0.2700991E+03  0.7546771E-02  0.1101454E+00
         21   -1    0    0  503  502  0.00000000000E+00  0.00000000000E+00  0.10619418694E+04  0.10619418694E+04  0.00000000000E+00 0. -1.
         21   -1    0    0  501  503 -0.00000000000E+00 -0.00000000000E+00 -0.91735458805E+02  0.91735458805E+02  0.00000000000E+00 0.  1.
          6    2    1    2  501    0  0.18221016964E+03 -0.96535002062E+02  0.19455974720E+03  0.33287685577E+03  0.17445329843E+03 0.  0.
         24    2    3    3    0    0  0.18904611354E+03 -0.61849517887E+02  0.10996204822E+03  0.24106904774E+03  0.80366895067E+02 0.  0.
         -6    2    1    2    0  502 -0.18221016964E+03  0.96535002062E+02  0.77564666340E+03  0.82080047244E+03  0.17194800543E+03 0.  0.
        -24    2    5    5    0    0 -0.14025031585E+03  0.13227648902E+03  0.54844689309E+03  0.58696311689E+03  0.81021512027E+02 0.  0.
          5    1    3    3  501    0 -0.68359439059E+01 -0.34685484175E+02  0.84597698978E+02  0.91807808023E+02  0.47000000000E+01 0. -1.
        -13    1    4    4    0    0  0.10082931742E+03 -0.70408273231E+02  0.44104834585E+02  0.13064881409E+03  0.00000000000E+00 0.  1.
         14    1    4    4    0    0  0.88216796127E+02  0.85587553438E+01  0.65857213633E+02  0.11042023365E+03  0.00000000000E+00 0. -1.
         -5    1    5    5    0  502 -0.41959853791E+02 -0.35741486959E+02  0.22719977031E+03  0.23383735554E+03  0.47000000000E+01 0.  1.
         13    1    6    6    0    0 -0.10018319865E+03  0.48795490079E+02  0.23423758432E+03  0.25939336741E+03  0.00000000000E+00 0. -1.
        -14    1    6    6    0    0 -0.40067117195E+02  0.83480998942E+02  0.31420930877E+03  0.32756974949E+03  0.00000000000E+00 0.  1.
<mgrwt>
<rscale>  2 0.26969533E+03</rscale>
<asrwt>0</asrwt>
<pdfrwt beam="1">  1       21 0.16337566E+00 0.27009907E+03</pdfrwt>
<pdfrwt beam="2">  1       21 0.14113148E-01 0.27009907E+03</pdfrwt>
<totfact> 0.98942583E+03</totfact>
</mgrwt>
</event>
<event>
12    1  0.1071811E-001  0.2384886E+03  0.7546771E-02  0.1121280E+00
         21   -1    0    0  503  502  0.00000000000E+00  0.00000000000E+00  0.77064380776E+03  0.77064380776E+03  0.00000000000E+00 0. -1.
         21   -1    0    0  501  503 -0.00000000000E+00 -0.00000000000E+00 -0.41701372008E+03  0.41701372008E+03  0.00000000000E+00 0. -1.
          6    2    1    2  501    0 -0.16257848094E+03  0.19529757047E+01 -0.36277300958E+03  0.43260110309E+03  0.17059859710E+03 0.  0.
         24    2    3    3    0    0 -0.13908624328E+03  0.59045416983E+02 -0.23364153531E+03  0.28939335284E+03  0.79553763654E+02 0.  0.
         -6    2    1    2    0  502  0.16257848094E+03 -0.19529757047E+01  0.71640309726E+03  0.75505642474E+03  0.17447415338E+03 0.  0.
        -24    2    5    5    0    0  0.10546775294E+02 -0.16430866699E+02  0.16920033704E+03  0.18692246198E+03  0.77006784689E+02 0.  0.
          5    1    3    3  501    0 -0.23492237654E+02 -0.57092441279E+02 -0.12913147428E+03  0.14320775024E+03  0.47000000000E+01 0. -1.
        -13    1    4    4    0    0 -0.36269907473E+02  0.57393992084E+02 -0.89862563378E+02  0.11262706962E+03  0.00000000000E+00 0.  1.
         14    1    4    4    0    0 -0.10281633581E+03  0.16514248995E+01 -0.14377897193E+03  0.17676628322E+03  0.00000000000E+00 0. -1.
         -5    1    5    5    0  502  0.15203170564E+03  0.14477890994E+02  0.54720276022E+03  0.56813396276E+03  0.47000000000E+01 0.  1.
         13    1    6    6    0    0  0.22029360684E+02 -0.60274185145E+01  0.16988445079E+03  0.17141280328E+03  0.00000000000E+00 0. -1.
        -14    1    6    6    0    0 -0.11482585390E+02 -0.10403448184E+02 -0.68411375391E+00  0.15509658700E+02  0.00000000000E+00 0.  1.
<mgrwt>
<rscale>  2 0.23778032E+03</rscale>
<asrwt>0</asrwt>
<pdfrwt beam="1">  1       21 0.11856059E+00 0.23848859E+03</pdfrwt>
<pdfrwt beam="2">  1       21 0.64155957E-01 0.23848859E+03</pdfrwt>
<totfact> 0.11700817E+03</totfact>
</mgrwt>
</event>
<event>
12    1  0.1071811E-001  0.2180344E+03  0.7546771E-02  0.1135450E+00
         21   -1    0    0  501  502  0.00000000000E+00  0.00000000000E+00  0.37492323068E+02  0.37492323068E+02  0.00000000000E+00 0. -1.
         21   -1    0    0  502  503 -0.00000000000E+00 -0.00000000000E+00 -0.12718833981E+04  0.12718833981E+04  0.00000000000E+00 0.  1.
         -6    2    1    2    0  503  0.78591858199E+02 -0.10362702093E+03 -0.57013777602E+03  0.61040649511E+03  0.17499647421E+03 0.  0.
        -24    2    3    3    0    0  0.68911149719E+02 -0.11084677132E+03 -0.57432873922E+03  0.59678683708E+03  0.96256298209E+02 0.  0.
          6    2    1    2  501    0 -0.78591858199E+02  0.10362702093E+03 -0.66425329905E+03  0.69896922609E+03  0.17438547555E+03 0.  0.
         24    2    5    5    0    0 -0.90686118198E+02  0.15162409334E+02 -0.46252207446E+03  0.47831149202E+03  0.80008395486E+02 0.  0.
          5    1    5    5  501    0  0.12094259999E+02  0.88464611599E+02 -0.20173122459E+03  0.22065773407E+03  0.47000000000E+01 0. -1.
        -13    1    6    6    0    0 -0.42464015881E+02 -0.32162116666E+02 -0.17328734474E+03  0.18129009416E+03  0.00000000000E+00 0.  1.
         14    1    6    6    0    0 -0.48222102316E+02  0.47324526000E+02 -0.28923472972E+03  0.29702139786E+03  0.00000000000E+00 0. -1.
         -5    1    3    3    0  503  0.96807084802E+01  0.72197503915E+01  0.41909632019E+01  0.13619658034E+02  0.47000000000E+01 0.  1.
         11    1    4    4    0    0  0.12538533004E+02 -0.34750389399E+02 -0.36698233779E+03  0.36883714648E+03  0.00000000000E+00 0. -1.
        -12    1    4    4    0    0  0.56372616715E+02 -0.76096381925E+02 -0.20734640144E+03  0.22794969060E+03  0.00000000000E+00 0.  1.
<mgrwt>
<rscale>  2 0.21791179E+03</rscale>
<asrwt>0</asrwt>
<pdfrwt beam="1">  1       21 0.57680508E-02 0.21803441E+03</pdfrwt>
<pdfrwt beam="2">  1       21 0.19567433E+00 0.21803441E+03</pdfrwt>
<totfact> 0.29681949E+04</totfact>
</mgrwt>
</event>
<event>
12    1  0.1071811E-001  0.1902149E+03  0.7546771E-02  0.1160952E+00
         21   -1    0    0  503  502  0.00000000000E+00  0.00000000000E+00  0.64487880254E+02  0.64487880254E+02  0.00000000000E+00 0.  1.
         21   -1    0    0  501  503 -0.00000000000E+00 -0.00000000000E+00 -0.64265234713E+03  0.64265234713E+03  0.00000000000E+00 0.  1.
          6    2    1    2  501    0 -0.77229264933E+01  0.63713382251E+02 -0.44605925509E+03  0.48492326844E+03  0.17906054436E+03 0.  0.
         24    2    3    3    0    0 -0.30823066865E+02  0.18849925373E+02 -0.87453476325E+02  0.12275405272E+03  0.78198886183E+02 0.  0.
         -6    2    1    2    0  502  0.77229264933E+01 -0.63713382251E+02 -0.13210521178E+03  0.22221695894E+03  0.16676195966E+03 0.  0.
        -24    2    5    5    0    0  0.42540715495E+02 -0.92494086968E+02 -0.10936229288E+03  0.17142387127E+03  0.84030732114E+02 0.  0.
          5    1    3    3  501    0  0.23100140372E+02  0.44863456878E+02 -0.35860577877E+03  0.36216921572E+03  0.47000000000E+01 0. -1.
        -13    1    4    4    0    0 -0.56143298842E+02  0.17915224914E+02 -0.72128159945E+02  0.93142346683E+02  0.00000000000E+00 0.  1.
         14    1    4    4    0    0  0.25320231976E+02  0.93470045958E+00 -0.15325316380E+02  0.29611706037E+02  0.00000000000E+00 0. -1.
         -5    1    5    5    0  502 -0.34817789002E+02  0.28780704717E+02 -0.22742918903E+02  0.50793087672E+02  0.47000000000E+01 0.  1.
         11    1    6    6    0    0  0.14842604469E+01 -0.65742441489E+02 -0.10272988447E+03  0.12197418090E+03  0.00000000000E+00 0. -1.
        -12    1    6    6    0    0  0.41056455048E+02 -0.26751645480E+02 -0.66324084065E+01  0.49449690376E+02  0.00000000000E+00 0.  1.
<mgrwt>
<rscale>  2 0.18726470E+03</rscale>
<asrwt>0</asrwt>
<pdfrwt beam="1">  1       21 0.99212120E-02 0.19021492E+03</pdfrwt>
<pdfrwt beam="2">  1       21 0.98869595E-01 0.19021492E+03</pdfrwt>
<totfact> 0.69474158E+04</totfact>
</mgrwt>
</event>
<event>
12    1  0.1071811E-001  0.1803474E+03  0.7546771E-02  0.1167501E+00
         21   -1    0    0  503  502  0.00000000000E+00  0.00000000000E+00  0.29531100423E+03  0.29531100423E+03  0.00000000000E+00 0.  1.
         21   -1    0    0  501  503 -0.00000000000E+00 -0.00000000000E+00 -0.15127675705E+03  0.15127675705E+03  0.00000000000E+00 0. -1.
          6    2    1    2  501    0  0.50331578136E+02 -0.31864628007E+01 -0.44565347945E+02  0.18563759603E+03  0.17300816605E+03 0.  0.
         24    2    3    3    0    0  0.50026044522E+02  0.10808406003E+02  0.37758251081E+02  0.10200019614E+03  0.79742885056E+02 0.  0.
         -6    2    1    2    0  502 -0.50331578136E+02  0.31864628007E+01  0.18859959512E+03  0.26095016525E+03  0.17315241888E+03 0.  0.
        -24    2    5    5    0    0  0.38406535270E+02  0.60975380160E+01  0.11992090823E+03  0.14860347343E+03  0.78674812771E+02 0.  0.
          5    1    3    3  501    0  0.30553361413E+00 -0.13994868804E+02 -0.82323599027E+02  0.83637399890E+02  0.47000000000E+01 0. -1.
        -11    1    4    4    0    0  0.52675672607E+02 -0.13790143047E+02 -0.27653583648E+01  0.54521021054E+02  0.00000000000E+00 0.  1.
         12    1    4    4    0    0 -0.26496280849E+01  0.24598549051E+02  0.40523609446E+02  0.47479175087E+02  0.00000000000E+00 0. -1.
         -5    1    5    5    0  502 -0.88738113406E+02 -0.29110752154E+01  0.68678686895E+02  0.11234669182E+03  0.47000000000E+01 0.  1.
         13    1    6    6    0    0  0.56878605726E+02  0.20272584202E+02  0.63800393060E+02  0.87844428476E+02  0.00000000000E+00 0. -1.
        -14    1    6    6    0    0 -0.18472070457E+02 -0.14175046186E+02  0.56120515165E+02  0.60759044954E+02  0.00000000000E+00 0.  1.
<mgrwt>
<rscale>  2 0.18031276E+03</rscale>
<asrwt>0</asrwt>
<pdfrwt beam="1">  1       21 0.45432462E-01 0.18034739E+03</pdfrwt>
<pdfrwt beam="2">  1       21 0.23273347E-01 0.18034739E+03</pdfrwt>
<totfact> 0.81044951E+04</totfact>
</mgrwt>
</event>
<event>
12    1  0.1071811E-001  0.2593351E+03  0.7546771E-02  0.1107770E+00
         21   -1    0    0  503  502  0.00000000000E+00  0.00000000000E+00  0.10099218768E+03  0.10099218768E+03  0.00000000000E+00 0. -1.
         21   -1    0    0  501  503 -0.00000000000E+00 -0.00000000000E+00 -0.67459028834E+03  0.67459028834E+03  0.00000000000E+00 0. -1.
          6    2    1    2  501    0 -0.19231272157E+03  0.48713985227E+01 -0.23322497025E+03  0.34767061556E+03  0.17167718769E+03 0.  0.
         24    2    3    3    0    0 -0.92421323395E+02  0.18784002519E+02 -0.42107758115E+02  0.13152314101E+03  0.81429316335E+02 0.  0.
         -6    2    1    2    0  502  0.19231272157E+03 -0.48713985227E+01 -0.34037313041E+03  0.42791186045E+03  0.17391601137E+03 0.  0.
        -24    2    5    5    0    0  0.99182987035E+02  0.59223588508E+02 -0.22984583639E+03  0.26973573222E+03  0.81139129786E+02 0.  0.
          5    1    3    3  501    0 -0.99891398175E+02 -0.13912603996E+02 -0.19111721214E+03  0.21614747455E+03  0.47000000000E+01 0. -1.
        -11    1    4    4    0    0 -0.10549732296E+03  0.12236860553E+02 -0.25170835128E+02  0.10914667585E+03  0.00000000000E+00 0.  1.
         12    1    4    4    0    0  0.13075999569E+02  0.65471419661E+01 -0.16936922987E+02  0.22376465156E+02  0.00000000000E+00 0. -1.
         -5    1    5    5    0  502  0.93129734536E+02 -0.64094987030E+02 -0.11052729402E+03  0.15817612823E+03  0.47000000000E+01 0.  1.
         13    1    6    6    0    0  0.72420969279E+02  0.35841770272E+02 -0.72941359516E+02  0.10885711376E+03  0.00000000000E+00 0. -1.
        -14    1    6    6    0    0  0.26762017756E+02  0.23381818236E+02 -0.15690447687E+03  0.16087861847E+03  0.00000000000E+00 0.  1.
<mgrwt>
<rscale>  2 0.25896027E+03</rscale>
<asrwt>0</asrwt>
<pdfrwt beam="1">  1       21 0.15537260E-01 0.25933510E+03</pdfrwt>
<pdfrwt beam="2">  1       21 0.10378312E+00 0.25933510E+03</pdfrwt>
<totfact> 0.26689357E+04</totfact>
</mgrwt>
</event>
<event>
12    1  0.1071811E-001  0.2307100E+03  0.7546771E-02  0.1128195E+00
         21   -1    0    0  503  502  0.00000000000E+00  0.00000000000E+00  0.18251591873E+03  0.18251591873E+03  0.00000000000E+00 0.  1.
         21   -1    0    0  501  503 -0.00000000000E+00 -0.00000000000E+00 -0.27794716307E+03  0.27794716307E+03  0.00000000000E+00 0.  1.
          6    2    1    2  501    0  0.66938128510E+02  0.11708342024E+03 -0.59233539900E+02  0.23819257608E+03  0.18718400227E+03 0.  0.
         24    2    3    3    0    0  0.10990724127E+03  0.81732997879E+02 -0.79486257708E+02  0.17879342128E+03  0.83000829524E+02 0.  0.
         -6    2    1    2    0  502 -0.66938128510E+02 -0.11708342024E+03 -0.36197704434E+02  0.22227050572E+03  0.17292964917E+03 0.  0.
        -24    2    5    5    0    0 -0.48611793587E+02  0.76967504609E+01  0.37215309830E+01  0.89901397130E+02  0.75140301900E+02 0.  0.
          5    1    3    3  501    0 -0.42969112760E+02  0.35350422366E+02  0.20252717808E+02  0.59399154804E+02  0.47000000000E+01 0. -1.
        -11    1    4    4    0    0  0.75947656555E+02  0.40047612173E+02 -0.37877090797E+01  0.85943030648E+02  0.00000000000E+00 0.  1.
         12    1    4    4    0    0  0.33959584715E+02  0.41685385706E+02 -0.75698548628E+02  0.92850390629E+02  0.00000000000E+00 0. -1.
         -5    1    5    5    0  502 -0.18326334923E+02 -0.12478017071E+03 -0.39919235417E+02  0.13236910859E+03  0.47000000000E+01 0.  1.
         13    1    6    6    0    0  0.52534130270E+01 -0.25766593150E+02 -0.97130216873E+00  0.26314617590E+02  0.00000000000E+00 0. -1.
        -14    1    6    6    0    0 -0.53865206614E+02  0.33463343611E+02  0.46928331518E+01  0.63586779540E+02  0.00000000000E+00 0.  1.
<mgrwt>
<rscale>  2 0.22780383E+03</rscale>
<asrwt>0</asrwt>
<pdfrwt beam="1">  1       21 0.28079372E-01 0.23070997E+03</pdfrwt>
<pdfrwt beam="2">  1       21 0.42761102E-01 0.23070997E+03</pdfrwt>
<totfact> 0.62687630E+04</totfact>
</mgrwt>
</event>
<event>
12    1  0.1071811E-001  0.2184826E+03  0.7546771E-02  0.1135104E+00
         21   -1    0    0  501  502  0.00000000000E+00  0.00000000000E+00  0.35138041730E+03  0.35138041730E+03  0.00000000000E+00 0. -1.
         21   -1    0    0  502  503 -0.00000000000E+00 -0.00000000000E+00 -0.15489609852E+03  0.15489609852E+03  0.00000000000E+00 0.  1.
         -6    2    1    2    0  503 -0.43834386235E+02 -0.12541162195E+03  0.89135558041E+01  0.21866430253E+03  0.17345056179E+03 0.  0.
        -24    2    3    3    0    0 -0.44743761341E+02 -0.61182583185E+02  0.69622565101E+02  0.13015514937E+03  0.79672759909E+02 0.  0.
          6    2    1    2  501    0  0.43834386235E+02  0.12541162195E+03  0.18757076297E+03  0.28761221330E+03  0.17288280938E+03 0.  0.
         24    2    5    5    0    0  0.71149827678E+02  0.10315707639E+03  0.69532384576E+02  0.16433793815E+03  0.80427141084E+02 0.  0.
          5    1    5    5  501    0 -0.27315441442E+02  0.22254545562E+02  0.11803837839E+03  0.12327427515E+03  0.47000000000E+01 0. -1.
        -13    1    6    6    0    0 -0.11245213927E+02  0.32235832896E+02 -0.20023572739E+01  0.34199608089E+02  0.00000000000E+00 0.  1.
         14    1    6    6    0    0  0.82395041604E+02  0.70921243489E+02  0.71534741850E+02  0.13013833006E+03  0.00000000000E+00 0. -1.
         -5    1    3    3    0  503  0.90937510586E+00 -0.64229038763E+02 -0.60709009296E+02  0.88509153161E+02  0.47000000000E+01 0.  1.
         11    1    4    4    0    0  0.19141060170E+02 -0.25360838308E+02  0.40159367042E+02  0.51208662015E+02  0.00000000000E+00 0. -1.
        -12    1    4    4    0    0 -0.63884821511E+02 -0.35821744877E+02  0.29463198058E+02  0.78946487353E+02  0.00000000000E+00 0.  1.
<mgrwt>
<rscale>  2 0.21836985E+03</rscale>
<asrwt>0</asrwt>
<pdfrwt beam="1">  1       21 0.54058526E-01 0.21848255E+03</pdfrwt>
<pdfrwt beam="2">  1       21 0.23830169E-01 0.21848255E+03</pdfrwt>
<totfact> 0.53035571E+04</totfact>
</mgrwt>
</event>
<event>
12    1  0.1071811E-001  0.1924111E+03  0.7546771E-02  0.1156493E+00
         21   -1    0    0  501  502  0.00000000000E+00  0.00000000000E+00  0.14594373210E+03  0.14594373210E+03  0.00000000000E+00 0.  1.
         21   -1    0    0  502  503 -0.00000000000E+00 -0.00000000000E+00 -0.12194990246E+04  0.12194990246E+04  0.00000000000E+00 0.  1.
         -6    2    1    2    0  503 -0.16681597957E+02  0.83385668578E+02 -0.11444613855E+04  0.11603825133E+04  0.17165159139E+03 0.  0.
        -24    2    3    3    0    0 -0.19428386584E+02  0.90962119183E+02 -0.11444769324E+04  0.11510531139E+04  0.80276105217E+02 0.  0.
          6    2    1    2  501    0  0.16681597957E+02 -0.83385668578E+02  0.70906093071E+02  0.20506024334E+03  0.17259948994E+03 0.  0.
         24    2    5    5    0    0 -0.54023747513E+02 -0.24712933375E+02  0.24270053611E+02  0.10191594679E+03  0.79174050899E+02 0.  0.
          5    1    5    5  501    0  0.70705345469E+02 -0.58672735203E+02  0.46636039460E+02  0.10314429655E+03  0.47000000000E+01 0. -1.
        -11    1    6    6    0    0 -0.82126597850E+01 -0.43901438640E+02  0.26971410465E+02  0.52175100171E+02  0.00000000000E+00 0.  1.
         12    1    6    6    0    0 -0.45811087728E+02  0.19188505265E+02 -0.27013568534E+01  0.49740846615E+02  0.00000000000E+00 0. -1.
         -5    1    3    3    0  503  0.27467886273E+01 -0.75764506057E+01  0.15546813744E-01  0.93293994044E+01  0.47000000000E+01 0.  1.
         13    1    4    4    0    0 -0.18330745576E+02  0.36526803535E+02 -0.16223624721E+03  0.16730458308E+03  0.00000000000E+00 0. -1.
        -14    1    4    4    0    0 -0.10976410079E+01  0.54435315649E+02 -0.98224068515E+03  0.98374853086E+03  0.00000000000E+00 0.  1.
<mgrwt>
<rscale>  2 0.19219828E+03</rscale>
<asrwt>0</asrwt>
<pdfrwt beam="1">  1       21 0.22452882E-01 0.19241109E+03</pdfrwt>
<pdfrwt beam="2">  1       21 0.18761523E+00 0.19241109E+03</pdfrwt>
<totfact> 0.30050820E+03</totfact>
</mgrwt>
</event>
<event>
12    1  0.1071811E-001  0.1865951E+03  0.7546771E-02  0.1161808E+00
         21   -1    0    0  501  502  0.00000000000E+00  0.00000000000E+00  0.10217282787E+03  0.10217282787E+03  0.00000000000E+00 0.  1.
         21   -1    0    0  502  503 -0.00000000000E+00 -0.00000000000E+00 -0.34640148306E+03  0.34640148306E+03  0.00000000000E+00 0.  1.
         -6    2    1    2    0  503 -0.57137053675E+02  0.33560913367E+02 -0.15548086726E+03  0.24288277954E+03  0.17443269964E+03 0.  0.
        -24    2    3    3    0    0  0.97760564757E+01 -0.24066675965E+02 -0.12343379638E+03  0.14882211765E+03  0.78976860164E+02 0.  0.
          6    2    1    2  501    0  0.57137053675E+02 -0.33560913367E+02 -0.88747787932E+02  0.20569153139E+03  0.17332587347E+03 0.  0.
         24    2    5    5    0    0  0.33587029603E+02  0.12495469681E+02 -0.11734335424E+03  0.14639911648E+03  0.79868724802E+02 0.  0.
          5    1    5    5  501    0  0.23550024072E+02 -0.46056383048E+02  0.28595566307E+02  0.59292414909E+02  0.47000000000E+01 0. -1.
        -11    1    6    6    0    0  0.32773568745E+02 -0.30303393903E+02 -0.56452514705E+02  0.71967276639E+02  0.00000000000E+00 0.  1.
         12    1    6    6    0    0  0.81346085735E+00  0.42798863584E+02 -0.60890839534E+02  0.74431839839E+02  0.00000000000E+00 0. -1.
         -5    1    3    3    0  503 -0.66913110151E+02  0.57627589332E+02 -0.32047070877E+02  0.94060661884E+02  0.47000000000E+01 0.  1.
         13    1    4    4    0    0  0.38234822193E+02  0.78956097336E+01 -0.45870930083E+02  0.60236073144E+02  0.00000000000E+00 0. -1.
        -14    1    4    4    0    0 -0.28458765717E+02 -0.31962285699E+02 -0.77562866299E+02  0.88586044509E+02  0.00000000000E+00 0.  1.
<mgrwt>
<rscale>  2 0.18633603E+03</rscale>
<asrwt>0</asrwt>
<pdfrwt beam="1">  1       21 0.15718897E-01 0.18659514E+03</pdfrwt>
<pdfrwt beam="2">  1       21 0.53292535E-01 0.18659514E+03</pdfrwt>
<totfact> 0.12033415E+05</totfact>
</mgrwt>
</event>
<event>
12    1  0.1071811E-001  0.2166513E+03  0.7546771E-02  0.1139793E+00
         21   -1    0    0  503  502  0.00000000000E+00  0.00000000000E+00  0.28445759540E+03  0.28445759540E+03  0.00000000000E+00 0.  1.
         21   -1    0    0  501  503 -0.00000000000E+00 -0.00000000000E+00 -0.70173274961E+03  0.70173274961E+03  0.00000000000E+00 0.  1.
          6    2    1    2  501    0 -0.97455345372E+02 -0.32470751858E+02 -0.64303135925E+03  0.67329472894E+03  0.17112734725E+03 0.  0.
         24    2    3    3    0    0 -0.78269464571E+02 -0.80470448691E+02 -0.35774117050E+03  0.38332119444E+03  0.79716941966E+02 0.  0.
         -6    2    1    2    0  502  0.97455345372E+02  0.32470751858E+02  0.22575620504E+03  0.31289561606E+03  0.19075090660E+03 0.  0.
        -24    2    5    5    0    0  0.96109198170E+02 -0.27654789473E+01  0.24256635200E+03  0.27355003036E+03  0.82137434441E+02 0.  0.
          5    1    3    3  501    0 -0.19185880801E+02  0.47999696833E+02 -0.28529018875E+03  0.28997353450E+03  0.47000000000E+01 0. -1.
        -11    1    4    4    0    0 -0.52396453332E+02 -0.16967227393E+02 -0.24702444526E+03  0.25308961196E+03  0.00000000000E+00 0.  1.
         12    1    4    4    0    0 -0.25873011239E+02 -0.63503221298E+02 -0.11071672524E+03  0.13023158248E+03  0.00000000000E+00 0. -1.
         -5    1    5    5    0  502  0.13461472018E+01  0.35236230805E+02 -0.16810146965E+02  0.39345585707E+02  0.47000000000E+01 0.  1.
         11    1    6    6    0    0  0.43289086524E+01 -0.19952737651E+02  0.95880768290E+01  0.22556205513E+02  0.00000000000E+00 0. -1.
        -12    1    6    6    0    0  0.91780289518E+02  0.17187258703E+02  0.23297827517E+03  0.25099382484E+03  0.00000000000E+00 0.  1.
<mgrwt>
<rscale>  2 0.21225412E+03</rscale>
<asrwt>0</asrwt>
<pdfrwt beam="1">  1       21 0.43762707E-01 0.21665134E+03</pdfrwt>
<pdfrwt beam="2">  1       21 0.10795888E+00 0.21665134E+03</pdfrwt>
<totfact> 0.33615545E+03</totfact>
</mgrwt>
</event>
<event>
12    1  0.1071811E-001  0.3755158E+03  0.7546771E-02  0.1052801E+00
         21   -1    0    0  503  502  0.00000000000E+00  0.00000000000E+00  0.42876499291E+03  0.42876499291E+03  0.00000000000E+00 0.  1.
         21   -1    0    0  501  503 -0.00000000000E+00 -0.00000000000E+00 -0.35308387044E+03  0.35308387044E+03  0.00000000000E+00 0. -1.
          6    2    1    2  501    0  0.14201580697E+03  0.30190592814E+03 -0.68423094020E+02  0.37963235375E+03  0.16770010538E+03 0.  0.
         24    2    3    3    0    0  0.47023026809E+02  0.24663723700E+03 -0.52395730901E+02  0.26846930741E+03  0.79305514808E+02 0.  0.
         -6    2    1    2    0  502 -0.14201580697E+03 -0.30190592814E+03  0.14410421649E+03  0.40221650960E+03  0.17232648231E+03 0.  0.
        -24    2    5    5    0    0 -0.14556673547E+03 -0.17335200513E+03  0.11470293574E+03  0.27021179179E+03  0.92828103483E+02 0.  0.
          5    1    3    3  501    0  0.94992780165E+02  0.55268691141E+02 -0.16027363119E+02  0.11116304634E+03  0.47000000000E+01 0. -1.
        -11    1    4    4    0    0  0.43192552922E+02  0.50972524036E+02 -0.43351646613E+01  0.66952135792E+02  0.00000000000E+00 0.  1.
         12    1    4    4    0    0  0.38304738878E+01  0.19566471296E+03 -0.48060566240E+02  0.20151717162E+03  0.00000000000E+00 0. -1.
         -5    1    5    5    0  502  0.35509284938E+01 -0.12855392301E+03  0.29401280757E+02  0.13200471781E+03  0.47000000000E+01 0.  1.
         13    1    6    6    0    0  0.73756973755E+01 -0.10821084841E+02  0.27767970135E+02  0.30701090442E+02  0.00000000000E+00 0. -1.
        -14    1    6    6    0    0 -0.15294243284E+03 -0.16253092029E+03  0.86934965602E+02  0.23951070134E+03  0.00000000000E+00 0.  1.
<mgrwt>
<rscale>  2 0.37498956E+03</rscale>
<asrwt>0</asrwt>
<pdfrwt beam="1">  1       21 0.65963845E-01 0.37551577E+03</pdfrwt>
<pdfrwt beam="2">  1       21 0.54320596E-01 0.37551577E+03</pdfrwt>
<totfact> 0.61277393E+03</totfact>
</mgrwt>
</event>
<event>
12    1  0.1071811E-001  0.1866331E+03  0.7546771E-02  0.1162054E+00
         21   -1    0    0  503  502  0.00000000000E+00  0.00000000000E+00  0.57096362593E+03  0.57096362593E+03  0.00000000000E+00 0. -1.
         21   -1    0    0  501  503 -0.00000000000E+00 -0.00000000000E+00 -0.60293941825E+02  0.60293941825E+02  0.00000000000E+00 0. -1.
          6    2    1    2  501    0  0.60576767496E+01 -0.64021057197E+02  0.25130744758E+03  0.31302933643E+03  0.17520428376E+03 0.  0.
         24    2    3    3    0    0 -0.41074457461E+01 -0.88550876874E+02  0.98507436597E+02  0.15786821010E+03  0.85793518343E+02 0.  0.
         -6    2    1    2    0  502 -0.60576767496E+01  0.64021057197E+02  0.25936223653E+03  0.31822823132E+03  0.17281506376E+03 0.  0.
        -24    2    5    5    0    0 -0.37336902568E+02  0.64520032138E+02  0.78785570644E+02  0.13490157967E+03  0.80214657115E+02 0.  0.
          5    1    3    3  501    0  0.10165122496E+02  0.24529819677E+02  0.15280001098E+03  0.15516112633E+03  0.47000000000E+01 0. -1.
        -13    1    4    4    0    0 -0.24071232262E+02 -0.20549212518E+02 -0.53854724237E+01  0.32104480544E+02  0.00000000000E+00 0.  1.
         14    1    4    4    0    0  0.19963786516E+02 -0.68001664356E+02  0.10389290902E+03  0.12576372956E+03  0.00000000000E+00 0. -1.
         -5    1    5    5    0  502  0.31279225818E+02 -0.49897494103E+00  0.18057666588E+03  0.18332665165E+03  0.47000000000E+01 0.  1.
         13    1    6    6    0    0 -0.36361850170E+02 -0.67049948602E+01  0.17380271063E+02  0.40856026802E+02  0.00000000000E+00 0. -1.
        -14    1    6    6    0    0 -0.97505239830E+00  0.71225026998E+02  0.61405299582E+02  0.94045552871E+02  0.00000000000E+00 0.  1.
<mgrwt>
<rscale>  2 0.18607034E+03</rscale>
<asrwt>0</asrwt>
<pdfrwt beam="1">  1       21 0.87840554E-01 0.18663315E+03</pdfrwt>
<pdfrwt beam="2">  1       21 0.92759914E-02 0.18663315E+03</pdfrwt>
<totfact> 0.10317954E+05</totfact>
</mgrwt>
</event>
<event>
12    1  0.1071811E-001  0.1856440E+03  0.7546771E-02  0.1163122E+00
         21   -1    0    0  503  502  0.00000000000E+00  0.00000000000E+00  0.10837541996E+03  0.10837541996E+03  0.00000000000E+00 0.  1.
         21   -1    0    0  501  503 -0.00000000000E+00 -0.00000000000E+00 -0.35555941110E+03  0.35555941110E+03  0.00000000000E+00 0.  1.
          6    2    1    2  501    0 -0.63654656257E+02  0.19784617044E+02 -0.20289456121E+03  0.27308079524E+03  0.17018687207E+03 0.  0.
         24    2    3    3    0    0 -0.26310026899E+02 -0.28410453159E+01 -0.22519917674E+02  0.87436931972E+02  0.80235785824E+02 0.  0.
         -6    2    1    2    0  502  0.63654656257E+02 -0.19784617044E+02 -0.44289429935E+02  0.19085403582E+03  0.17326385384E+03 0.  0.
        -24    2    5    5    0    0  0.32864330838E+02 -0.79591494402E+02 -0.24563203347E+02  0.12059650431E+03  0.80779302234E+02 0.  0.
          5    1    3    3  501    0 -0.37344629358E+02  0.22625662360E+02 -0.18037464353E+03  0.18564386327E+03  0.47000000000E+01 0. -1.
        -13    1    4    4    0    0  0.28673350428E+02  0.44608826706E+01 -0.74028196634E+01  0.29947658304E+02  0.00000000000E+00 0.  1.
         14    1    4    4    0    0 -0.54983377327E+02 -0.73019279865E+01 -0.15117098011E+02  0.57489273668E+02  0.00000000000E+00 0. -1.
         -5    1    5    5    0  502  0.30790325419E+02  0.59806877357E+02 -0.19726226587E+02  0.70257531511E+02  0.47000000000E+01 0.  1.
         11    1    6    6    0    0  0.33198323262E+02 -0.12582074663E+02  0.19394821405E+02  0.40454868280E+02  0.00000000000E+00 0. -1.
        -12    1    6    6    0    0 -0.33399242415E+00 -0.67009419738E+02 -0.43958024752E+02  0.80141636025E+02  0.00000000000E+00 0.  1.
<mgrwt>
<rscale>  2 0.18492274E+03</rscale>
<asrwt>0</asrwt>
<pdfrwt beam="1">  1       21 0.16673142E-01 0.18564404E+03</pdfrwt>
<pdfrwt beam="2">  1       21 0.54701447E-01 0.18564404E+03</pdfrwt>
<totfact> 0.10228124E+05</totfact>
</mgrwt>
</event>
<event>
12    1  0.1071811E-001  0.1863607E+03  0.7546771E-02  0.1161856E+00
         21   -1    0    0  503  502  0.00000000000E+00  0.00000000000E+00  0.52730962906E+03  0.52730962906E+03  0.00000000000E+00 0.  1.
         21   -1    0    0  501  503 -0.00000000000E+00 -0.00000000000E+00 -0.73583035741E+02  0.73583035741E+02  0.00000000000E+00 0.  1.
          6    2    1    2  501    0 -0.32654311479E+02 -0.63275976320E+02  0.12903307919E+03  0.22667123328E+03  0.17222125082E+03 0.  0.
         24    2    3    3    0    0 -0.79125965982E+01  0.29499888884E+02  0.36943310343E+02  0.93546745878E+02  0.80332638798E+02 0.  0.
         -6    2    1    2    0  502  0.32654311479E+02  0.63275976320E+02  0.32469351413E+03  0.37422143152E+03  0.17188847679E+03 0.  0.
        -24    2    5    5    0    0  0.59575781367E+02  0.30026914155E+02  0.31226731316E+03  0.32942448803E+03  0.80985981175E+02 0.  0.
          5    1    3    3  501    0 -0.24741714881E+02 -0.92775865204E+02  0.92089768845E+02  0.13312448740E+03  0.47000000000E+01 0. -1.
        -11    1    4    4    0    0  0.36087781836E+02  0.11680781685E+02  0.21637701645E+02  0.43668739289E+02  0.00000000000E+00 0.  1.
         12    1    4    4    0    0 -0.44000378434E+02  0.17819107200E+02  0.15305608698E+02  0.49878006590E+02  0.00000000000E+00 0. -1.
         -5    1    5    5    0  502 -0.26921469888E+02  0.33249062165E+02  0.12426200973E+02  0.44796943494E+02  0.47000000000E+01 0.  1.
         13    1    6    6    0    0  0.47882091877E+02  0.32588673049E+02  0.91228913493E+02  0.10806216262E+03  0.00000000000E+00 0. -1.
        -14    1    6    6    0    0  0.11693689490E+02 -0.25617588944E+01  0.22103839966E+03  0.22136232540E+03  0.00000000000E+00 0.  1.
<mgrwt>
<rscale>  2 0.18628379E+03</rscale>
<asrwt>0</asrwt>
<pdfrwt beam="1">  1       21 0.81124556E-01 0.18636071E+03</pdfrwt>
<pdfrwt beam="2">  1       21 0.11320467E-01 0.18636071E+03</pdfrwt>
<totfact> 0.87000351E+04</totfact>
</mgrwt>
</event>
<event>
12    1  0.1071811E-001  0.2276571E+03  0.7546771E-02  0.1128664E+00
         21   -1    0    0  501  502  0.00000000000E+00  0.00000000000E+00  0.78900676834E+02  0.78900676834E+02  0.00000000000E+00 0. -1.
         21   -1    0    0  502  503 -0.00000000000E+00 -0.00000000000E+00 -0.10127484037E+04  0.10127484037E+04  0.00000000000E+00 0.  1.
         -6    2    1    2    0  503 -0.55224084660E+01 -0.14778985383E+03 -0.79178270446E+03  0.82330187378E+03  0.17039303505E+03 0.  0.
        -24    2    3    3    0    0  0.50781379454E+02 -0.11534907226E+03 -0.41659132327E+03  0.44249590828E+03  0.79813164616E+02 0.  0.
          6    2    1    2  501    0  0.55224084660E+01  0.14778985383E+03 -0.14206502240E+03  0.26834720675E+03  0.17307632678E+03 0.  0.
         24    2    5    5    0    0 -0.29068861381E+02  0.16309376610E+02 -0.33772931313E+02  0.94470989767E+02  0.81689427411E+02 0.  0.
          5    1    5    5  501    0  0.34591269847E+02  0.13148047722E+03 -0.10829209109E+03  0.17387621698E+03  0.47000000000E+01 0. -1.
        -11    1    6    6    0    0 -0.35961768295E+02  0.25380646589E+02 -0.54961028832E+02  0.70414065999E+02  0.00000000000E+00 0.  1.
         12    1    6    6    0    0  0.68929069139E+01 -0.90712699788E+01  0.21188097519E+02  0.24056923769E+02  0.00000000000E+00 0. -1.
         -5    1    3    3    0  503 -0.56303787920E+02 -0.32440781570E+02 -0.37519138119E+03  0.38080596550E+03  0.47000000000E+01 0.  1.
         13    1    4    4    0    0  0.34956956345E+02 -0.24101885886E+01 -0.10481367432E+03  0.11051562844E+03  0.00000000000E+00 0. -1.
        -14    1    4    4    0    0  0.15824423109E+02 -0.11293888368E+03 -0.31177764895E+03  0.33198027983E+03  0.00000000000E+00 0.  1.
<mgrwt>
<rscale>  2 0.22714707E+03</rscale>
<asrwt>0</asrwt>
<pdfrwt beam="1">  1       21 0.12138566E-01 0.22765709E+03</pdfrwt>
<pdfrwt beam="2">  1       21 0.15580744E+00 0.22765709E+03</pdfrwt>
<totfact> 0.15172924E+04</totfact>
</mgrwt>
</event>
<event>
12    1  0.1071811E-001  0.2131768E+03  0.7546771E-02  0.1139081E+00
         21   -1    0    0  503  502  0.00000000000E+00  0.00000000000E+00  0.50654062331E+03  0.50654062331E+03  0.00000000000E+00 0. -1.
         21   -1    0    0  501  503 -0.00000000000E+00 -0.00000000000E+00 -0.15505638641E+03  0.15505638641E+03  0.00000000000E+00 0. -1.
          6    2    1    2  501    0 -0.12403533824E+03  0.20872147672E+00 -0.39011592629E+02  0.21671699052E+03  0.17337687541E+03 0.  0.
         24    2    3    3    0    0 -0.45027645402E+02 -0.52423859566E+02 -0.55634828194E+02  0.12022436866E+03  0.81135163821E+02 0.  0.
         -6    2    1    2    0  502  0.12403533824E+03 -0.20872147672E+00  0.39049582952E+03  0.44488001920E+03  0.17333906055E+03 0.  0.
        -24    2    5    5    0    0  0.94415140998E+02 -0.27442856910E+02  0.38347852841E+03  0.40376570621E+03  0.79395431339E+02 0.  0.
          5    1    3    3  501    0 -0.79007692835E+02  0.52632581043E+02  0.16623235566E+02  0.96492621869E+02  0.47000000000E+01 0. -1.
        -13    1    4    4    0    0 -0.14095653181E+02 -0.14137276228E+02  0.21108142245E+02  0.29053462561E+02  0.00000000000E+00 0.  1.
         14    1    4    4    0    0 -0.30931992221E+02 -0.38286583338E+02 -0.76742970439E+02  0.91170906095E+02  0.00000000000E+00 0. -1.
         -5    1    5    5    0  502  0.29620197239E+02  0.27234135433E+02  0.70173011105E+01  0.41114312984E+02  0.47000000000E+01 0.  1.
         11    1    6    6    0    0  0.58295846568E+02 -0.48119950045E+01  0.90869923160E+02  0.10806897778E+03  0.00000000000E+00 0. -1.
        -12    1    6    6    0    0  0.36119294430E+02 -0.22630861905E+02  0.29260860525E+03  0.29569672844E+03  0.00000000000E+00 0.  1.
<mgrwt>
<rscale>  2 0.21316911E+03</rscale>
<asrwt>0</asrwt>
<pdfrwt beam="1">  1       21 0.77929326E-01 0.21317680E+03</pdfrwt>
<pdfrwt beam="2">  1       21 0.23854829E-01 0.21317680E+03</pdfrwt>
<totfact> 0.23880944E+04</totfact>
</mgrwt>
</event>
<event>
12    1  0.1071811E-001  0.2007492E+03  0.7546771E-02  0.1149903E+00
         21   -1    0    0  501  502  0.00000000000E+00  0.00000000000E+00  0.85691267674E+02  0.85691267674E+02  0.00000000000E+00 0.  1.
         21   -1    0    0  502  503 -0.00000000000E+00 -0.00000000000E+00 -0.80856313427E+03  0.80856313427E+03  0.00000000000E+00 0.  1.
         -6    2    1    2    0  503 -0.16310796459E+02  0.94198760381E+02 -0.65628747804E+03  0.68630422531E+03  0.17652418335E+03 0.  0.
        -24    2    3    3    0    0  0.35099195584E+02  0.10061623693E+03 -0.33433262547E+03  0.36017359446E+03  0.81185793257E+02 0.  0.
          6    2    1    2  501    0  0.16310796459E+02 -0.94198760381E+02 -0.66584388552E+02  0.20795017663E+03  0.17225082474E+03 0.  0.
         24    2    5    5    0    0  0.65237480554E+02 -0.26640086049E+02 -0.16386561206E+02  0.11048271147E+03  0.83500222110E+02 0.  0.
          5    1    5    5  501    0 -0.48926684094E+02 -0.67558674332E+02 -0.50197827346E+02  0.97467465158E+02  0.47000000000E+01 0. -1.
        -13    1    6    6    0    0  0.78346942636E+01  0.14398152740E+02  0.24087257403E+02  0.29135634637E+02  0.00000000000E+00 0.  1.
         14    1    6    6    0    0  0.57402786290E+02 -0.41038238789E+02 -0.40473818609E+02  0.81347076835E+02  0.00000000000E+00 0. -1.
         -5    1    3    3    0  503 -0.51409992044E+02 -0.64174765440E+01 -0.32195485257E+03  0.32613063085E+03  0.47000000000E+01 0.  1.
         13    1    4    4    0    0  0.87654280308E+01  0.23754187709E+02 -0.12487899699E+02  0.28231928754E+02  0.00000000000E+00 0. -1.
        -14    1    4    4    0    0  0.26333767554E+02  0.76862049216E+02 -0.32184472577E+03  0.33194166570E+03  0.00000000000E+00 0.  1.
<mgrwt>
<rscale>  2 0.19980576E+03</rscale>
<asrwt>0</asrwt>
<pdfrwt beam="1">  1       21 0.13183271E-01 0.20074919E+03</pdfrwt>
<pdfrwt beam="2">  1       21 0.12439433E+00 0.20074919E+03</pdfrwt>
<totfact> 0.23812190E+04</totfact>
</mgrwt>
</event>
<event>
12    1  0.1071811E-001  0.2170033E+03  0.7546771E-02  0.1136496E+00
         21   -1    0    0  503  502  0.00000000000E+00  0.00000000000E+00  0.56733172553E+02  0.56733172553E+02  0.00000000000E+00 0. -1.
         21   -1    0    0  501  503 -0.00000000000E+00 -0.00000000000E+00 -0.97883889736E+03  0.97883889736E+03  0.00000000000E+00 0. -1.
          6    2    1    2  501    0  0.85451970637E+02  0.96854953642E+02 -0.66944126283E+03  0.70373435363E+03  0.17437750648E+03 0.  0.
         24    2    3    3    0    0 -0.34600382024E+00  0.31939567712E+02 -0.45482848957E+03  0.46361764826E+03  0.83976860794E+02 0.  0.
         -6    2    1    2    0  502 -0.85451970637E+02 -0.96854953642E+02 -0.25266446197E+03  0.33183771628E+03  0.17202912042E+03 0.  0.
        -24    2    5    5    0    0 -0.78363254164E+02 -0.87452516156E+02 -0.90013486063E+02  0.16869334556E+03  0.81032555058E+02 0.  0.
          5    1    3    3  501    0  0.85797974458E+02  0.64915385930E+02 -0.21461277326E+03  0.24011670537E+03  0.47000000000E+01 0. -1.
        -11    1    4    4    0    0 -0.11669520925E+02  0.52715453760E+02 -0.18401073622E+03  0.19176821381E+03  0.00000000000E+00 0.  1.
         12    1    4    4    0    0  0.11323517105E+02 -0.20775886049E+02 -0.27081775335E+03  0.27184943445E+03  0.00000000000E+00 0. -1.
         -5    1    5    5    0  502 -0.70887164736E+01 -0.94024374860E+01 -0.16265097591E+03  0.16314437071E+03  0.47000000000E+01 0.  1.
         11    1    6    6    0    0 -0.38407852683E+02 -0.59977585757E+02 -0.96323366614E+02  0.11979426070E+03  0.00000000000E+00 0. -1.
        -12    1    6    6    0    0 -0.39955401481E+02 -0.27474930399E+02  0.63098805508E+01  0.48899084864E+02  0.00000000000E+00 0.  1.
<mgrwt>
<rscale>  2 0.21653113E+03</rscale>
<asrwt>0</asrwt>
<pdfrwt beam="1">  1       21 0.87281811E-02 0.21700331E+03</pdfrwt>
<pdfrwt beam="2">  1       21 0.15059059E+00 0.21700331E+03</pdfrwt>
<totfact> 0.30040923E+04</totfact>
</mgrwt>
</event>
<event>
12    1  0.1071811E-001  0.2140545E+03  0.7546771E-02  0.1139512E+00
         21   -1    0    0  501  502  0.00000000000E+00  0.00000000000E+00  0.55528293543E+03  0.55528293543E+03  0.00000000000E+00 0. -1.
         21   -1    0    0  502  503 -0.00000000000E+00 -0.00000000000E+00 -0.20068935284E+03  0.20068935284E+03  0.00000000000E+00 0.  1.
         -6    2    1    2    0  503 -0.11857370194E+03 -0.41138173812E+02 -0.11637010853E+03  0.23864634103E+03  0.16630695052E+03 0.  0.
        -24    2    3    3    0    0 -0.36498202018E+02 -0.33433434131E+02 -0.12594393166E+03  0.15552294607E+03  0.76652459602E+02 0.  0.
          6    2    1    2  501    0  0.11857370194E+03  0.41138173812E+02  0.47096369112E+03  0.51732594724E+03  0.17339914992E+03 0.  0.
         24    2    5    5    0    0  0.67230949864E+00  0.19101071375E+02  0.27820625167E+03  0.29024910410E+03  0.80501683445E+02 0.  0.
          5    1    5    5  501    0  0.11790139244E+03  0.22037102436E+02  0.19275743945E+03  0.22707684313E+03  0.47000000000E+01 0. -1.
        -13    1    6    6    0    0  0.70695475729E+01  0.44422130286E+02  0.23862872997E+03  0.24283116548E+03  0.00000000000E+00 0.  1.
         14    1    6    6    0    0 -0.63972380743E+01 -0.25321058911E+02  0.39577521701E+02  0.47417938624E+02  0.00000000000E+00 0. -1.
         -5    1    3    3    0  503 -0.82075499920E+02 -0.77047396803E+01  0.95738231255E+01  0.83123394961E+02  0.47000000000E+01 0.  1.
         11    1    4    4    0    0 -0.56430419294E+01 -0.38704131331E+02 -0.17860878819E+02  0.42998426675E+02  0.00000000000E+00 0. -1.
        -12    1    4    4    0    0 -0.30855160089E+02  0.52706971998E+01 -0.10808305284E+03  0.11252451939E+03  0.00000000000E+00 0.  1.
<mgrwt>
<rscale>  2 0.21261413E+03</rscale>
<asrwt>0</asrwt>
<pdfrwt beam="1">  1       21 0.85428143E-01 0.21405452E+03</pdfrwt>
<pdfrwt beam="2">  1       21 0.30875285E-01 0.21405452E+03</pdfrwt>
<totfact> 0.11765549E+04</totfact>
</mgrwt>
</event>
<event>
12    1  0.1071811E-001  0.2198526E+03  0.7546771E-02  0.1134196E+00
         21   -1    0    0  501  502  0.00000000000E+00  0.00000000000E+00  0.54497003469E+02  0.54497003469E+02  0.00000000000E+00 0. -1.
         21   -1    0    0  502  503 -0.00000000000E+00 -0.00000000000E+00 -0.10018580324E+04  0.10018580324E+04  0.00000000000E+00 0. -1.
         -6    2    1    2    0  503  0.99918969994E+02  0.89846562850E+02 -0.65490892100E+03  0.69048158708E+03  0.17263522778E+03 0.  0.
        -24    2    3    3    0    0  0.96572778267E+02  0.22075082454E+01 -0.45785066977E+03  0.47473672556E+03  0.80103359475E+02 0.  0.
          6    2    1    2  501    0 -0.99918969994E+02 -0.89846562850E+02 -0.29245210794E+03  0.36587344880E+03  0.17400844714E+03 0.  0.
         24    2    5    5    0    0 -0.73778029674E+02 -0.10660655567E+03 -0.14290689431E+03  0.21306603066E+03  0.90369229296E+02 0.  0.
          5    1    5    5  501    0 -0.26140940320E+02  0.16759992821E+02 -0.14954521363E+03  0.15280741814E+03  0.47000000000E+01 0. -1.
        -13    1    6    6    0    0  0.20002027228E+02 -0.29869615519E+02 -0.23520858946E+02  0.42959350903E+02  0.00000000000E+00 0.  1.
         14    1    6    6    0    0 -0.93780056902E+02 -0.76736940152E+02 -0.11938603537E+03  0.17010667975E+03  0.00000000000E+00 0. -1.
         -5    1    3    3    0  503  0.33461917270E+01  0.87639054605E+02 -0.19705825124E+03  0.21574486152E+03  0.47000000000E+01 0.  1.
         11    1    4    4    0    0  0.50054393724E+02  0.28288583884E+02 -0.34692182434E+03  0.35165386179E+03  0.00000000000E+00 0. -1.
        -12    1    4    4    0    0  0.46518384542E+02 -0.26081075639E+02 -0.11092884543E+03  0.12308286377E+03  0.00000000000E+00 0.  1.
<mgrwt>
<rscale>  2 0.21958073E+03</rscale>
<asrwt>0</asrwt>
<pdfrwt beam="1">  1       21 0.83841550E-02 0.21985255E+03</pdfrwt>
<pdfrwt beam="2">  1       21 0.15413199E+00 0.21985255E+03</pdfrwt>
<totfact> 0.30254239E+04</totfact>
</mgrwt>
</event>
<event>
12    1  0.1071811E-001  0.2104189E+03  0.7546771E-02  0.1141726E+00
         21   -1    0    0  503  502  0.00000000000E+00  0.00000000000E+00  0.48373497092E+03  0.48373497092E+03  0.00000000000E+00 0. -1.
         21   -1    0    0  501  503 -0.00000000000E+00 -0.00000000000E+00 -0.12718826115E+03  0.12718826115E+03  0.00000000000E+00 0.  1.
          6    2    1    2  501    0 -0.33558478292E+02 -0.11179617739E+03  0.14872781602E+02  0.21094389149E+03  0.17507589492E+03 0.  0.
         24    2    3    3    0    0  0.38873459070E+02 -0.32859198046E+02 -0.21848861479E+02  0.97594867109E+02  0.80352427603E+02 0.  0.
         -6    2    1    2    0  502  0.33558478292E+02  0.11179617739E+03  0.34167392816E+03  0.39997934057E+03  0.17209835256E+03 0.  0.
        -24    2    5    5    0    0  0.68673494342E+02  0.11854158816E+03  0.32092789216E+03  0.35837341638E+03  0.81661720844E+02 0.  0.
          5    1    3    3  501    0 -0.72431937362E+02 -0.78936979347E+02  0.36721643082E+02  0.11334902439E+03  0.47000000000E+01 0. -1.
        -11    1    4    4    0    0 -0.21027958641E+02 -0.27981888712E+02 -0.89000955803E+01  0.36116102251E+02  0.00000000000E+00 0.  1.
         12    1    4    4    0    0  0.59901417711E+02 -0.48773093339E+01 -0.12948765899E+02  0.61478764858E+02  0.00000000000E+00 0. -1.
         -5    1    5    5    0  502 -0.35115016050E+02 -0.67454107652E+01  0.20746036004E+02  0.41605924199E+02  0.47000000000E+01 0.  1.
         11    1    6    6    0    0 -0.86745908264E+01  0.64612066183E+02  0.13253204516E+03  0.14769803864E+03  0.00000000000E+00 0. -1.
        -12    1    6    6    0    0  0.77348085169E+02  0.53929521975E+02  0.18839584700E+03  0.21067537774E+03  0.00000000000E+00 0.  1.
<mgrwt>
<rscale>  2 0.20979848E+03</rscale>
<asrwt>0</asrwt>
<pdfrwt beam="1">  1       21 0.74420764E-01 0.21041893E+03</pdfrwt>
<pdfrwt beam="2">  1       21 0.19567425E-01 0.21041893E+03</pdfrwt>
<totfact> 0.38536638E+04</totfact>
</mgrwt>
</event>
<event>
12    1  0.1071811E-001  0.1864266E+03  0.7546771E-02  0.1162707E+00
         21   -1    0    0  501  502  0.00000000000E+00  0.00000000000E+00  0.12994178438E+03  0.12994178438E+03  0.00000000000E+00 0. -1.
         21   -1    0    0  502  503 -0.00000000000E+00 -0.00000000000E+00 -0.33643639923E+03  0.33643639923E+03  0.00000000000E+00 0. -1.
         -6    2    1    2    0  503  0.59199190859E+02 -0.30804040545E+02 -0.21239890090E+03  0.27985812923E+03  0.16956959126E+03 0.  0.
        -24    2    3    3    0    0  0.10299204817E+03 -0.40541218722E+02 -0.14622436450E+03  0.19977201147E+03  0.79223351310E+02 0.  0.
          6    2    1    2  501    0 -0.59199190859E+02  0.30804040545E+02  0.59042860513E+01  0.18652005437E+03  0.17407307942E+03 0.  0.
         24    2    5    5    0    0 -0.28157512061E+02 -0.45303381234E+02  0.29559978165E+02  0.10086021990E+03  0.80335233943E+02 0.  0.
          5    1    5    5  501    0 -0.31041678799E+02  0.76107421779E+02 -0.23655692114E+02  0.85659834472E+02  0.47000000000E+01 0. -1.
        -13    1    6    6    0    0  0.85031928782E+01 -0.54809237385E+02  0.29847746042E+02  0.62986067790E+02  0.00000000000E+00 0.  1.
         14    1    6    6    0    0 -0.36660704939E+02  0.95058561514E+01 -0.28776787686E+00  0.37874152111E+02  0.00000000000E+00 0. -1.
         -5    1    3    3    0  503 -0.43792857307E+02  0.97371781769E+01 -0.66174536403E+02  0.80086117761E+02  0.47000000000E+01 0.  1.
         11    1    4    4    0    0  0.71131079711E+02 -0.60931235575E+02 -0.12563454594E+03  0.15670445145E+03  0.00000000000E+00 0. -1.
        -12    1    4    4    0    0  0.31860968455E+02  0.20390016853E+02 -0.20589818562E+02  0.43067560026E+02  0.00000000000E+00 0.  1.
<mgrwt>
<rscale>  2 0.18536812E+03</rscale>
<asrwt>0</asrwt>
<pdfrwt beam="1">  1       21 0.19991044E-01 0.18642658E+03</pdfrwt>
<pdfrwt beam="2">  1       21 0.51759446E-01 0.18642658E+03</pdfrwt>
<totfact> 0.82096293E+04</totfact>
</mgrwt>
</event>
<event>
12    1  0.1071811E-001  0.2067107E+03  0.7546771E-02  0.1144199E+00
         21   -1    0    0  503  502  0.00000000000E+00  0.00000000000E+00  0.38799836278E+03  0.38799836278E+03  0.00000000000E+00 0. -1.
         21   -1    0    0  501  503 -0.00000000000E+00 -0.00000000000E+00 -0.11256981856E+03  0.11256981856E+03  0.00000000000E+00 0. -1.
          6    2    1    2  501    0  0.11230530316E+03  0.12413161530E+02  0.10082664678E+03  0.22998985580E+03  0.17309752561E+03 0.  0.
         24    2    3    3    0    0  0.30390737619E+02 -0.18119456013E+02 -0.97555582601E+01  0.88948192259E+02  0.81022826227E+02 0.  0.
         -6    2    1    2    0  502 -0.11230530316E+03 -0.12413161530E+02  0.17460189744E+03  0.27057832555E+03  0.17309026538E+03 0.  0.
        -24    2    5    5    0    0 -0.49003887077E+02 -0.57086398556E+01  0.11069624610E+01  0.85714585584E+02  0.70084201488E+02 0.  0.
          5    1    3    3  501    0  0.81914565545E+02  0.30532617543E+02  0.11058220504E+03  0.14104166354E+03  0.47000000000E+01 0. -1.
        -11    1    4    4    0    0 -0.16289657830E+02 -0.62398150513E+01  0.24331733024E+02  0.29938628493E+02  0.00000000000E+00 0.  1.
         12    1    4    4    0    0  0.46680395449E+02 -0.11879640962E+02 -0.34087291284E+02  0.59009563765E+02  0.00000000000E+00 0. -1.
         -5    1    5    5    0  502 -0.63301416087E+02 -0.67045216743E+01  0.17349493498E+03  0.18486373996E+03  0.47000000000E+01 0.  1.
         13    1    6    6    0    0 -0.53057446295E+02 -0.37237341124E+01  0.26848605711E+02  0.59580252028E+02  0.00000000000E+00 0. -1.
        -14    1    6    6    0    0  0.40535592185E+01 -0.19849057433E+01 -0.25741643250E+02  0.26134333555E+02  0.00000000000E+00 0.  1.
<mgrwt>
<rscale>  2 0.20670920E+03</rscale>
<asrwt>0</asrwt>
<pdfrwt beam="1">  1       21 0.59692055E-01 0.20671072E+03</pdfrwt>
<pdfrwt beam="2">  1       21 0.17318434E-01 0.20671072E+03</pdfrwt>
<totfact> 0.78507456E+04</totfact>
</mgrwt>
</event>
<event>
12    1  0.1071811E-001  0.1978096E+03  0.7546771E-02  0.1152079E+00
         21   -1    0    0  501  502  0.00000000000E+00  0.00000000000E+00  0.14993477731E+04  0.14993477731E+04  0.00000000000E+00 0. -1.
         21   -1    0    0  502  503 -0.00000000000E+00 -0.00000000000E+00 -0.25951529441E+02  0.25951529441E+02  0.00000000000E+00 0. -1.
         -6    2    1    2    0  503 -0.51248181652E+02 -0.80353289242E+02  0.68344601363E+03  0.71149637613E+03  0.17333670261E+03 0.  0.
        -24    2    3    3    0    0 -0.72361422532E+02 -0.10968746233E+03  0.62006081765E+03  0.63837978621E+03  0.76064571200E+02 0.  0.
          6    2    1    2  501    0  0.51248181652E+02  0.80353289242E+02  0.78995023007E+03  0.81380292646E+03  0.17079464252E+03 0.  0.
         24    2    5    5    0    0  0.37478801121E+01 -0.23234450653E+02  0.31840853365E+03  0.32866340017E+03  0.77985575655E+02 0.  0.
          5    1    5    5  501    0  0.47500301540E+02  0.10358773990E+03  0.47154169642E+03  0.48513952628E+03  0.47000000000E+01 0. -1.
        -13    1    6    6    0    0 -0.18214690635E+02 -0.18912411233E+02  0.32055352581E+02  0.41436697295E+02  0.00000000000E+00 0.  1.
         14    1    6    6    0    0  0.21962570747E+02 -0.43220394200E+01  0.28635318107E+03  0.28722670288E+03  0.00000000000E+00 0. -1.
         -5    1    3    3    0  503  0.21113240880E+02  0.29334173085E+02  0.63385195980E+02  0.73116589913E+02  0.47000000000E+01 0.  1.
         13    1    4    4    0    0 -0.24939074770E+02 -0.71416640905E+02  0.19828586721E+03  0.21222530288E+03  0.00000000000E+00 0. -1.
        -14    1    4    4    0    0 -0.47422347762E+02 -0.38270821422E+02  0.42177495044E+03  0.42615448333E+03  0.00000000000E+00 0.  1.
<mgrwt>
<rscale>  2 0.19725131E+03</rscale>
<asrwt>0</asrwt>
<pdfrwt beam="1">  1       21 0.23066882E+00 0.19780960E+03</pdfrwt>
<pdfrwt beam="2">  1       21 0.39925442E-02 0.19780960E+03</pdfrwt>
<totfact> 0.33924223E+04</totfact>
</mgrwt>
</event>
<event>
12    1  0.1071811E-001  0.2843436E+03  0.7546771E-02  0.1093449E+00
         21   -1    0    0  503  502  0.00000000000E+00  0.00000000000E+00  0.12520985630E+04  0.12520985630E+04  0.00000000000E+00 0. -1.
         21   -1    0    0  501  503 -0.00000000000E+00 -0.00000000000E+00 -0.10257494262E+03  0.10257494262E+03  0.00000000000E+00 0. -1.
          6    2    1    2  501    0  0.19187899991E+03  0.11777841334E+03  0.98855139920E+03  0.10286326608E+04  0.17367203809E+03 0.  0.
         24    2    3    3    0    0  0.60938598382E+02  0.28024788222E+02  0.21900348076E+03  0.24286730734E+03  0.80765728263E+02 0.  0.
         -6    2    1    2    0  502 -0.19187899991E+03 -0.11777841334E+03  0.16097222121E+03  0.32604084481E+03  0.17234056757E+03 0.  0.
        -24    2    5    5    0    0 -0.17255660144E+03 -0.13213699550E+03  0.87454327729E+02  0.24853926660E+03  0.82991212326E+02 0.  0.
          5    1    3    3  501    0  0.13094040152E+03  0.89753625114E+02  0.76954791844E+03  0.78576535349E+03  0.47000000000E+01 0. -1.
        -11    1    4    4    0    0  0.61551213040E+02  0.51831328311E+02  0.15637868152E+03  0.17586736609E+03  0.00000000000E+00 0.  1.
         12    1    4    4    0    0 -0.61261465793E+00 -0.23806540089E+02  0.62624799239E+02  0.66999941250E+02  0.00000000000E+00 0. -1.
         -5    1    5    5    0  502 -0.19322398468E+02  0.14358582159E+02  0.73517893477E+02  0.77501578213E+02  0.47000000000E+01 0.  1.
         13    1    6    6    0    0 -0.10299241727E+03 -0.26844163561E+02  0.38653977360E+02  0.11323505243E+03  0.00000000000E+00 0. -1.
        -14    1    6    6    0    0 -0.69564184166E+02 -0.10529283193E+03  0.48800350369E+02  0.13530421417E+03  0.00000000000E+00 0.  1.
<mgrwt>
<rscale>  2 0.28414056E+03</rscale>
<asrwt>0</asrwt>
<pdfrwt beam="1">  1       21 0.19263054E+00 0.28434360E+03</pdfrwt>
<pdfrwt beam="2">  1       21 0.15780761E-01 0.28434360E+03</pdfrwt>
<totfact> 0.49989014E+03</totfact>
</mgrwt>
</event>
<event>
12    1  0.1071811E-001  0.2034262E+03  0.7546771E-02  0.1147015E+00
         21   -1    0    0  501  502  0.00000000000E+00  0.00000000000E+00  0.29017465264E+03  0.29017465264E+03  0.00000000000E+00 0.  1.
         21   -1    0    0  502  503 -0.00000000000E+00 -0.00000000000E+00 -0.22394053194E+03  0.22394053194E+03  0.00000000000E+00 0.  1.
         -6    2    1    2    0  503  0.53680922201E+02 -0.91900456067E+02 -0.12219680528E+03  0.23730625317E+03  0.17336338523E+03 0.  0.
        -24    2    3    3    0    0 -0.11020163763E+02 -0.72307221398E+02 -0.12952976205E+03  0.16914477120E+03  0.80512210827E+02 0.  0.
          6    2    1    2  501    0 -0.53680922201E+02  0.91900456067E+02  0.18843092598E+03  0.27680893141E+03  0.17259674217E+03 0.  0.
         24    2    5    5    0    0 -0.21730008819E+02  0.12226339402E+03  0.13079374066E+03  0.20409783185E+03  0.95542616507E+02 0.  0.
          5    1    5    5  501    0 -0.31950913382E+02 -0.30362937953E+02  0.57637185323E+02  0.72711099558E+02  0.47000000000E+01 0. -1.
        -11    1    6    6    0    0  0.26652684056E+02  0.46566044638E+02  0.91437346306E+02  0.10601674575E+03  0.00000000000E+00 0.  1.
         12    1    6    6    0    0 -0.48382692875E+02  0.75697349381E+02  0.39356394355E+02  0.98081086096E+02  0.00000000000E+00 0. -1.
         -5    1    3    3    0  503  0.64701085963E+02 -0.19593234669E+02  0.73329567632E+01  0.68161481971E+02  0.47000000000E+01 0.  1.
         11    1    4    4    0    0 -0.84103620213E+00  0.16891892690E+02 -0.34444975872E+02  0.38373164365E+02  0.00000000000E+00 0. -1.
        -12    1    4    4    0    0 -0.10179127561E+02 -0.89199114088E+02 -0.95084786176E+02  0.13077160683E+03  0.00000000000E+00 0.  1.
<mgrwt>
<rscale>  2 0.20326272E+03</rscale>
<asrwt>0</asrwt>
<pdfrwt beam="1">  1       21 0.44642255E-01 0.20342615E+03</pdfrwt>
<pdfrwt beam="2">  1       21 0.34452389E-01 0.20342615E+03</pdfrwt>
<totfact> 0.38892455E+04</totfact>
</mgrwt>
</event>
<event>
12    1  0.1071811E-001  0.2021607E+03  0.7546771E-02  0.1147941E+00
         21   -1    0    0  503  502  0.00000000000E+00  0.00000000000E+00  0.46623048289E+03  0.46623048289E+03  0.00000000000E+00 0.  1.
         21   -1    0    0  501  503 -0.00000000000E+00 -0.00000000000E+00 -0.87840377069E+02  0.87840377069E+02  0.00000000000E+00 0.  1.
          6    2    1    2  501    0 -0.86186374110E+02  0.58714652614E+02  0.17569467673E+03  0.26779411731E+03  0.17311720978E+03 0.  0.
         24    2    3    3    0    0 -0.59822230638E+02  0.81002357890E+02  0.70482528107E+02  0.15696318262E+03  0.97619530153E+02 0.  0.
         -6    2    1    2    0  502  0.86186374110E+02 -0.58714652614E+02  0.20269542910E+03  0.28627674265E+03  0.17318612789E+03 0.  0.
        -24    2    5    5    0    0  0.23556621743E+02 -0.22016496005E+02  0.19481576256E+03  0.21310967544E+03  0.80143071431E+02 0.  0.
          5    1    3    3  501    0 -0.26364143473E+02 -0.22287705276E+02  0.10521214862E+03  0.11083093469E+03  0.47000000000E+01 0. -1.
        -13    1    4    4    0    0 -0.77290161050E+02  0.60801821949E+02  0.81843580884E+02  0.12794140174E+03  0.00000000000E+00 0.  1.
         14    1    4    4    0    0  0.17467930412E+02  0.20200535941E+02 -0.11361052776E+02  0.29021780879E+02  0.00000000000E+00 0. -1.
         -5    1    5    5    0  502  0.62629752367E+02 -0.36698156609E+02  0.78796665361E+01  0.73167067215E+02  0.47000000000E+01 0.  1.
         11    1    6    6    0    0 -0.21067525025E+02 -0.47692534097E+01  0.13236237481E+02  0.25333463471E+02  0.00000000000E+00 0. -1.
        -12    1    6    6    0    0  0.44624146768E+02 -0.17247242596E+02  0.18157952508E+03  0.18777621197E+03  0.00000000000E+00 0.  1.
<mgrwt>
<rscale>  2 0.20214591E+03</rscale>
<asrwt>0</asrwt>
<pdfrwt beam="1">  1       21 0.71727765E-01 0.20216067E+03</pdfrwt>
<pdfrwt beam="2">  1       21 0.13513904E-01 0.20216067E+03</pdfrwt>
<totfact> 0.82874135E+04</totfact>
</mgrwt>
</event>
<event>
12    1  0.1071811E-001  0.2431844E+03  0.7546771E-02  0.1117710E+00
         21   -1    0    0  503  502  0.00000000000E+00  0.00000000000E+00  0.73760486479E+02  0.73760486479E+02  0.00000000000E+00 0. -1.
         21   -1    0    0  501  503 -0.00000000000E+00 -0.00000000000E+00 -0.93834760518E+03  0.93834760518E+03  0.00000000000E+00 0. -1.
          6    2    1    2  501    0 -0.16985975296E+03 -0.15406539098E+02 -0.62575227524E+03  0.67134533737E+03  0.17334634382E+03 0.  0.
         24    2    3    3    0    0 -0.94551685429E+02 -0.28226243234E+02 -0.54670274630E+03  0.56131548744E+03  0.80339539490E+02 0.  0.
         -6    2    1    2    0  502  0.16985975296E+03  0.15406539098E+02 -0.23883484346E+03  0.34076275429E+03  0.17316892082E+03 0.  0.
        -24    2    5    5    0    0  0.12785983254E+03  0.56761420160E+02 -0.96234263477E+02  0.18638906834E+03  0.76875586064E+02 0.  0.
          5    1    3    3  501    0 -0.75308067534E+02  0.12819704136E+02 -0.79049528942E+02  0.11002984993E+03  0.47000000000E+01 0. -1.
        -11    1    4    4    0    0  0.33415394010E+01 -0.68290114063E+01 -0.25582802368E+01  0.80216008456E+01  0.00000000000E+00 0.  1.
         12    1    4    4    0    0 -0.97893224830E+02 -0.21397231828E+02 -0.54414446606E+03  0.55329388660E+03  0.00000000000E+00 0. -1.
         -5    1    5    5    0  502  0.41999920423E+02 -0.41354881061E+02 -0.14260057999E+03  0.15437368596E+03  0.47000000000E+01 0.  1.
         13    1    6    6    0    0  0.12230628252E+03  0.27995183504E+02 -0.94434548285E+02  0.15703643193E+03  0.00000000000E+00 0. -1.
        -14    1    6    6    0    0  0.55535500168E+01  0.28766236656E+02 -0.17997151917E+01  0.29352636404E+02  0.00000000000E+00 0.  1.
<mgrwt>
<rscale>  2 0.24315278E+03</rscale>
<asrwt>0</asrwt>
<pdfrwt beam="1">  1       21 0.11347768E-01 0.24318440E+03</pdfrwt>
<pdfrwt beam="2">  1       21 0.14436116E+00 0.24318440E+03</pdfrwt>
<totfact> 0.20776073E+04</totfact>
</mgrwt>
</event>
<event>
12    1  0.1071811E-001  0.2773830E+03  0.7546771E-02  0.1097404E+00
         21   -1    0    0  503  502  0.00000000000E+00  0.00000000000E+00  0.13899011037E+03  0.13899011037E+03  0.00000000000E+00 0. -1.
         21   -1    0    0  501  503 -0.00000000000E+00 -0.00000000000E+00 -0.58111922787E+03  0.58111922787E+03  0.00000000000E+00 0. -1.
          6    2    1    2  501    0 -0.50444333595E+02  0.21119232725E+03 -0.30568458242E+03  0.41277647243E+03  0.17261089879E+03 0.  0.
         24    2    3    3    0    0 -0.25858911072E+02  0.35873220170E+02 -0.86934886610E+02  0.13132531907E+03  0.87938010625E+02 0.  0.
         -6    2    1    2    0  502  0.50444333595E+02 -0.21119232725E+03 -0.13644453508E+03  0.30733286580E+03  0.16937989659E+03 0.  0.
        -24    2    5    5    0    0  0.71719857864E+02 -0.21955418348E+03 -0.14417164206E+03  0.28274899395E+03  0.76247975119E+02 0.  0.
          5    1    3    3  501    0 -0.24585422523E+02  0.17531910708E+03 -0.21874969581E+03  0.28145115336E+03  0.47000000000E+01 0. -1.
        -13    1    4    4    0    0 -0.53140795712E+02  0.20000169199E+02 -0.81451637737E+02  0.99289074056E+02  0.00000000000E+00 0.  1.
         14    1    4    4    0    0  0.27281884640E+02  0.15873050971E+02 -0.54832488730E+01  0.32036245018E+02  0.00000000000E+00 0. -1.
         -5    1    5    5    0  502 -0.21275524269E+02  0.83618562357E+01  0.77271069852E+01  0.24583871847E+02  0.47000000000E+01 0.  1.
         11    1    6    6    0    0  0.86038431972E+02 -0.18197222216E+03 -0.10688099186E+03  0.22790359329E+03  0.00000000000E+00 0. -1.
        -12    1    6    6    0    0 -0.14318574108E+02 -0.37581961326E+02 -0.37290650199E+02  0.54845400662E+02  0.00000000000E+00 0.  1.
<mgrwt>
<rscale>  2 0.27688194E+03</rscale>
<asrwt>0</asrwt>
<pdfrwt beam="1">  1       21 0.21383094E-01 0.27738304E+03</pdfrwt>
<pdfrwt beam="2">  1       21 0.89402956E-01 0.27738304E+03</pdfrwt>
<totfact> 0.20784733E+04</totfact>
</mgrwt>
</event>
<event>
12    1  0.1071811E-001  0.1756383E+03  0.7546771E-02  0.1172453E+00
         21   -1    0    0  501  502  0.00000000000E+00  0.00000000000E+00  0.44872998789E+03  0.44872998789E+03  0.00000000000E+00 0.  1.
         21   -1    0    0  502  503 -0.00000000000E+00 -0.00000000000E+00 -0.69336136446E+02  0.69336136446E+02  0.00000000000E+00 0. -1.
         -6    2    1    2    0  503  0.14094948465E+02 -0.25841772686E+02  0.15709180824E+03  0.23564094543E+03  0.17315413412E+03 0.  0.
        -24    2    3    3    0    0 -0.51747025362E+02 -0.31772339697E+02  0.56866864798E+02  0.11548493672E+03  0.80098028029E+02 0.  0.
          6    2    1    2  501    0 -0.14094948465E+02  0.25841772686E+02  0.22230204321E+03  0.28242517890E+03  0.17169542357E+03 0.  0.
         24    2    5    5    0    0 -0.68560661551E+02 -0.16882400365E+02  0.16533952040E+03  0.19265498413E+03  0.69232984555E+02 0.  0.
          5    1    5    5  501    0  0.54465713086E+02  0.42724173051E+02  0.56962522812E+02  0.89770194775E+02  0.47000000000E+01 0. -1.
        -13    1    6    6    0    0  0.13710666235E+02  0.22778359006E+00  0.14293290461E+02  0.19807382618E+02  0.00000000000E+00 0.  1.
         14    1    6    6    0    0 -0.82271327785E+02 -0.17110183955E+02  0.15104622993E+03  0.17284760151E+03  0.00000000000E+00 0. -1.
         -5    1    3    3    0  503  0.65841973827E+02  0.59305670104E+01  0.10022494344E+03  0.12015600871E+03  0.47000000000E+01 0.  1.
         13    1    4    4    0    0 -0.30252728237E+02 -0.18384804514E+02 -0.15626263940E+02  0.38696365818E+02  0.00000000000E+00 0. -1.
        -14    1    4    4    0    0 -0.21494297124E+02 -0.13387535183E+02  0.72493128738E+02  0.76788570904E+02  0.00000000000E+00 0.  1.
<mgrwt>
<rscale>  2 0.17527773E+03</rscale>
<asrwt>0</asrwt>
<pdfrwt beam="1">  1       21 0.69035381E-01 0.17563832E+03</pdfrwt>
<pdfrwt beam="2">  1       21 0.10667098E-01 0.17563832E+03</pdfrwt>
<totfact> 0.13909178E+05</totfact>
</mgrwt>
</event>
<event>
11    1  0.1071811E-001  0.1824496E+03  0.7546771E-02  0.1165518E+00
         21   -1    0    0  501  502  0.00000000000E+00  0.00000000000E+00  0.22093709410E+04  0.22093709410E+04  0.00000000000E+00 0. -1.
         21   -1    0    0  502  503 -0.00000000000E+00 -0.00000000000E+00 -0.15123960842E+02  0.15123960842E+02  0.00000000000E+00 0. -1.
         -6    2    1    2    0  503  0.38518036600E+02 -0.44566889114E+02  0.10172155912E+04  0.10334483076E+04  0.17267888910E+03 0.  0.
        -24    2    3    3    0    0  0.28460804356E+02 -0.91240085854E+02  0.86098696078E+03  0.87001939284E+03  0.80625223321E+02 0.  0.
          6    2    1    2  501    0 -0.38518036600E+02  0.44566889114E+02  0.11770313890E+04  0.11910465943E+04  0.17239272701E+03 0.  0.
          5    1    5    5  501    0  0.87133516190E+00  0.98842377160E+02  0.83993077544E+03  0.84574013283E+03  0.47000000000E+01 0. -1.
        -13    1    5    5    0    0 -0.42236993548E+02 -0.33655660261E+02  0.24578174773E+03  0.25164525549E+03  0.00000000000E+00 0.  1.
         14    1    5    5    0    0  0.28476217856E+01 -0.20619827785E+02  0.91318865798E+02  0.93661205941E+02  0.00000000000E+00 0. -1.
         -5    1    3    3    0  503  0.10057232244E+02  0.46673196740E+02  0.15622863040E+03  0.16342891474E+03  0.47000000000E+01 0.  1.
         11    1    4    4    0    0  0.24111437053E+02 -0.75004236670E+02  0.35006337177E+03  0.35881939910E+03  0.00000000000E+00 0. -1.
        -12    1    4    4    0    0  0.43493673037E+01 -0.16235849184E+02  0.51092358901E+03  0.51119999374E+03  0.00000000000E+00 0.  1.
<mgrwt>
<rscale>  2 0.18238183E+03</rscale>
<asrwt>0</asrwt>
<pdfrwt beam="1">  1       21 0.33990297E+00 0.18244957E+03</pdfrwt>
<pdfrwt beam="2">  1       21 0.23267650E-02 0.18244957E+03</pdfrwt>
<totfact> 0.19497416E+04</totfact>
</mgrwt>
</event>
<event>
12    1  0.1071811E-001  0.1971623E+03  0.7546771E-02  0.1152254E+00
         21   -1    0    0  503  502  0.00000000000E+00  0.00000000000E+00  0.70231890276E+03  0.70231890276E+03  0.00000000000E+00 0.  1.
         21   -1    0    0  501  503 -0.00000000000E+00 -0.00000000000E+00 -0.84512438349E+02  0.84512438349E+02  0.00000000000E+00 0.  1.
          6    2    1    2  501    0  0.65366139326E+02 -0.66266558392E+02  0.77525503057E+02  0.21185652353E+03  0.17380734739E+03 0.  0.
         24    2    3    3    0    0 -0.19499256187E+02  0.14158086616E+02  0.22699166844E+02  0.82634714135E+02  0.75713746415E+02 0.  0.
         -6    2    1    2    0  502 -0.65366139326E+02  0.66266558392E+02  0.54028096135E+03  0.57497481758E+03  0.17328743382E+03 0.  0.
        -24    2    5    5    0    0 -0.10271871513E+03  0.80968479327E+02  0.46227023436E+03  0.48711626692E+03  0.80507507971E+02 0.  0.
          5    1    3    3  501    0  0.84865395512E+02 -0.80424645008E+02  0.54826336213E+02  0.12922180939E+03  0.47000000000E+01 0. -1.
        -13    1    4    4    0    0 -0.14107387455E+02 -0.10082869042E+02 -0.24079339286E+02  0.29673173227E+02  0.00000000000E+00 0.  1.
         14    1    4    4    0    0 -0.53918687320E+01  0.24240955658E+02  0.46778506129E+02  0.52961540908E+02  0.00000000000E+00 0. -1.
         -5    1    5    5    0  502  0.37352575802E+02 -0.14701920935E+02  0.78010726986E+02  0.87858550655E+02  0.47000000000E+01 0.  1.
         13    1    6    6    0    0  0.42140501548E+01  0.24854788893E+02  0.35170387314E+02  0.43272102947E+02  0.00000000000E+00 0. -1.
        -14    1    6    6    0    0 -0.10693276528E+03  0.56113690433E+02  0.42709984705E+03  0.44384416398E+03  0.00000000000E+00 0.  1.
<mgrwt>
<rscale>  2 0.19704768E+03</rscale>
<asrwt>0</asrwt>
<pdfrwt beam="1">  1       21 0.10804906E+00 0.19716233E+03</pdfrwt>
<pdfrwt beam="2">  1       21 0.13001914E-01 0.19716233E+03</pdfrwt>
<totfact> 0.34568187E+04</totfact>
</mgrwt>
</event>
<event>
12    1  0.1071811E-001  0.1827937E+03  0.7546771E-02  0.1165513E+00
         21   -1    0    0  503  502  0.00000000000E+00  0.00000000000E+00  0.18971895504E+03  0.18971895504E+03  0.00000000000E+00 0. -1.
         21   -1    0    0  501  503 -0.00000000000E+00 -0.00000000000E+00 -0.17457579156E+03  0.17457579156E+03  0.00000000000E+00 0. -1.
          6    2    1    2  501    0 -0.44886739513E+02 -0.34198852003E+02  0.91907912220E+01  0.18140413923E+03  0.17215867745E+03 0.  0.
         24    2    3    3    0    0 -0.29014850652E+02 -0.39976394315E+01  0.70231892868E+02  0.11131750579E+03  0.81247926986E+02 0.  0.
         -6    2    1    2    0  502  0.44886739513E+02  0.34198852003E+02  0.59523722584E+01  0.18289060738E+03  0.17386535788E+03 0.  0.
        -24    2    5    5    0    0  0.91689402166E+02  0.35195509806E+02  0.29903559305E+02  0.13009636604E+03  0.79907266359E+02 0.  0.
          5    1    3    3  501    0 -0.15871888861E+02 -0.30201212571E+02 -0.61041101646E+02  0.70086633439E+02  0.47000000000E+01 0. -1.
        -11    1    4    4    0    0 -0.14777800068E+02 -0.19963972784E+02  0.82841953747E+02  0.86485448977E+02  0.00000000000E+00 0.  1.
         12    1    4    4    0    0 -0.14237050584E+02  0.15966333353E+02 -0.12610060879E+02  0.24832056810E+02  0.00000000000E+00 0. -1.
         -5    1    5    5    0  502 -0.46802662653E+02 -0.99665780352E+00 -0.23951187046E+02  0.52794241344E+02  0.47000000000E+01 0.  1.
         13    1    6    6    0    0  0.73152768432E+02  0.60455305528E+02  0.18077607520E+02  0.96607305052E+02  0.00000000000E+00 0. -1.
        -14    1    6    6    0    0  0.18536633734E+02 -0.25259795721E+02  0.11825951785E+02  0.33489060985E+02  0.00000000000E+00 0.  1.
<mgrwt>
<rscale>  2 0.18238672E+03</rscale>
<asrwt>0</asrwt>
<pdfrwt beam="1">  1       21 0.29187531E-01 0.18279372E+03</pdfrwt>
<pdfrwt beam="2">  1       21 0.26857814E-01 0.18279372E+03</pdfrwt>
<totfact> 0.14888164E+05</totfact>
</mgrwt>
</event>
<event>
12    1  0.1071811E-001  0.1825863E+03  0.7546771E-02  0.1165373E+00
         21   -1    0    0  503  502  0.00000000000E+00  0.00000000000E+00  0.89614631414E+02  0.89614631414E+02  0.00000000000E+00 0. -1.
         21   -1    0    0  501  503 -0.00000000000E+00 -0.00000000000E+00 -0.39965104233E+03  0.39965104233E+03  0.00000000000E+00 0. -1.
          6    2    1    2  501    0 -0.19554598347E+01  0.58683997207E+02 -0.21992871633E+03  0.28584330998E+03  0.17288760003E+03 0.  0.
         24    2    3    3    0    0 -0.32698134051E+02  0.90199548442E+02 -0.20364495438E+03  0.23866712011E+03  0.79281777651E+02 0.  0.
         -6    2    1    2    0  502  0.19554598347E+01 -0.58683997207E+02 -0.90107694588E+02  0.20342236376E+03  0.17266622746E+03 0.  0.
        -24    2    5    5    0    0 -0.26009786603E+02  0.41786138451E+01  0.76181307310E+01  0.83813878233E+02  0.79200760450E+02 0.  0.
          5    1    3    3  501    0  0.30742674217E+02 -0.31515551235E+02 -0.16283761948E+02  0.47176189871E+02  0.47000000000E+01 0. -1.
        -13    1    4    4    0    0 -0.11334883571E+02 -0.25096052643E+01  0.22761838527E+01  0.11830414916E+02  0.00000000000E+00 0.  1.
         14    1    4    4    0    0 -0.21363250480E+02  0.92709153706E+02 -0.20592113824E+03  0.22683670520E+03  0.00000000000E+00 0. -1.
         -5    1    5    5    0  502  0.27965246438E+02 -0.62862611052E+02 -0.97725825319E+02  0.11960848553E+03  0.47000000000E+01 0.  1.
         13    1    6    6    0    0 -0.27144534287E+02  0.34748406711E+02 -0.14104558162E+02  0.46294881699E+02  0.00000000000E+00 0. -1.
        -14    1    6    6    0    0  0.11347476836E+01 -0.30569792866E+02  0.21722688893E+02  0.37518996534E+02  0.00000000000E+00 0.  1.
<mgrwt>
<rscale>  2 0.18253388E+03</rscale>
<asrwt>0</asrwt>
<pdfrwt beam="1">  1       21 0.13786866E-01 0.18258630E+03</pdfrwt>
<pdfrwt beam="2">  1       21 0.61484776E-01 0.18258630E+03</pdfrwt>
<totfact> 0.11280526E+05</totfact>
</mgrwt>
</event>
<event>
12    1  0.1071811E-001  0.1903726E+03  0.7546771E-02  0.1158389E+00
         21   -1    0    0  503  502  0.00000000000E+00  0.00000000000E+00  0.92861090718E+03  0.92861090718E+03  0.00000000000E+00 0.  1.
         21   -1    0    0  501  503 -0.00000000000E+00 -0.00000000000E+00 -0.39357523735E+02  0.39357523735E+02  0.00000000000E+00 0.  1.
          6    2    1    2  501    0 -0.78266717784E+02 -0.13990986895E+02  0.38780317663E+03  0.43201044588E+03  0.17297483839E+03 0.  0.
         24    2    3    3    0    0 -0.56820394544E+01 -0.47251247073E+01  0.32875810280E+03  0.33786798747E+03  0.77577538165E+02 0.  0.
         -6    2    1    2    0  502  0.78266717784E+02  0.13990986895E+02  0.50145020681E+03  0.53595798504E+03  0.17168932693E+03 0.  0.
        -24    2    5    5    0    0  0.16402621604E+02 -0.20776407357E+02  0.41813565352E+03  0.42641647286E+03  0.79327665309E+02 0.  0.
          5    1    3    3  501    0 -0.72584678330E+02 -0.92658621882E+01  0.59045073829E+02  0.94142458401E+02  0.47000000000E+01 0. -1.
        -13    1    4    4    0    0 -0.18937015651E+02 -0.23988080328E+02  0.53465112219E+02  0.61583737985E+02  0.00000000000E+00 0.  1.
         14    1    4    4    0    0  0.13254976196E+02  0.19262955621E+02  0.27529299058E+03  0.27628424949E+03  0.00000000000E+00 0. -1.
         -5    1    5    5    0  502  0.61864096180E+02  0.34767394252E+02  0.83314553294E+02  0.10954151218E+03  0.47000000000E+01 0.  1.
         11    1    6    6    0    0  0.18364605963E+02 -0.50468769563E+02  0.25602218791E+03  0.26159456447E+03  0.00000000000E+00 0. -1.
        -12    1    6    6    0    0 -0.19619843592E+01  0.29692362206E+02  0.16211346561E+03  0.16482190839E+03  0.00000000000E+00 0.  1.
<mgrwt>
<rscale>  2 0.19008010E+03</rscale>
<asrwt>0</asrwt>
<pdfrwt beam="1">  1       21 0.14286320E+00 0.19037259E+03</pdfrwt>
<pdfrwt beam="2">  1       21 0.60550043E-02 0.19037259E+03</pdfrwt>
<totfact> 0.65990561E+04</totfact>
</mgrwt>
</event>
<event>
12    1  0.1071811E-001  0.2084784E+03  0.7546771E-02  0.1142863E+00
         21   -1    0    0  501  502  0.00000000000E+00  0.00000000000E+00  0.63857622663E+02  0.63857622663E+02  0.00000000000E+00 0.  1.
         21   -1    0    0  502  503 -0.00000000000E+00 -0.00000000000E+00 -0.70076090422E+03  0.70076090422E+03  0.00000000000E+00 0.  1.
         -6    2    1    2    0  503 -0.39003343798E+02 -0.10890284151E+03 -0.38581263712E+03  0.43853693909E+03  0.17344211214E+03 0.  0.
        -24    2    3    3    0    0  0.38907682367E+02 -0.74906320162E+02 -0.24832126283E+03  0.27682157350E+03  0.88554895035E+02 0.  0.
          6    2    1    2  501    0  0.39003343798E+02  0.10890284151E+03 -0.25109064444E+03  0.32608158780E+03  0.17292079245E+03 0.  0.
         24    2    5    5    0    0  0.55895433648E+02  0.13693939332E+03 -0.23523646262E+03  0.28940958188E+03  0.80901271893E+02 0.  0.
          5    1    5    5  501    0 -0.16892089850E+02 -0.28036551807E+02 -0.15854181811E+02  0.36672005912E+02  0.47000000000E+01 0. -1.
        -13    1    6    6    0    0  0.15506336451E+01  0.99626056973E+02 -0.16746894413E+03  0.19486816811E+03  0.00000000000E+00 0.  1.
         14    1    6    6    0    0  0.54344800003E+02  0.37313336343E+02 -0.67767518494E+02  0.94541413778E+02  0.00000000000E+00 0. -1.
         -5    1    3    3    0  503 -0.77911026165E+02 -0.33996521348E+02 -0.13749137429E+03  0.16171536558E+03  0.47000000000E+01 0.  1.
         11    1    4    4    0    0  0.15794993453E+02 -0.97529078856E+01  0.50509279960E+00  0.18570302883E+02  0.00000000000E+00 0. -1.
        -12    1    4    4    0    0  0.23112688914E+02 -0.65153412276E+02 -0.24882635563E+03  0.25825127062E+03  0.00000000000E+00 0.  1.
<mgrwt>
<rscale>  2 0.20836997E+03</rscale>
<asrwt>0</asrwt>
<pdfrwt beam="1">  1       21 0.98242493E-02 0.20847843E+03</pdfrwt>
<pdfrwt beam="2">  1       21 0.10780937E+00 0.20847843E+03</pdfrwt>
<totfact> 0.56951161E+04</totfact>
</mgrwt>
</event>
<event>
12    1  0.1071811E-001  0.1862930E+03  0.7546771E-02  0.1162023E+00
         21   -1    0    0  501  502  0.00000000000E+00  0.00000000000E+00  0.12539343928E+03  0.12539343928E+03  0.00000000000E+00 0.  1.
         21   -1    0    0  502  503 -0.00000000000E+00 -0.00000000000E+00 -0.45721769590E+03  0.45721769590E+03  0.00000000000E+00 0.  1.
         -6    2    1    2    0  503 -0.60055988327E+02  0.34789098408E+02 -0.34968792738E+03  0.39621551718E+03  0.17288171215E+03 0.  0.
        -24    2    3    3    0    0 -0.44882082086E+02  0.79766950781E+02 -0.31326593174E+03  0.33619963261E+03  0.80730918770E+02 0.  0.
          6    2    1    2  501    0  0.60055988327E+02 -0.34789098408E+02  0.17863670765E+02  0.18639561800E+03  0.17206746519E+03 0.  0.
         24    2    5    5    0    0  0.89868043858E+02 -0.68781943341E+02  0.66200021880E+01  0.13956846515E+03  0.81414439739E+02 0.  0.
          5    1    5    5  501    0 -0.29812055531E+02  0.33992844932E+02  0.11243668577E+02  0.46827152857E+02  0.47000000000E+01 0. -1.
        -13    1    6    6    0    0  0.69664472581E+02 -0.73790183067E+02  0.32314727562E+02  0.10650057030E+03  0.00000000000E+00 0.  1.
         14    1    6    6    0    0  0.20203571278E+02  0.50082397264E+01 -0.25694725374E+02  0.33067894847E+02  0.00000000000E+00 0. -1.
         -5    1    3    3    0  503 -0.15173906241E+02 -0.44977852372E+02 -0.36421995635E+02  0.60015884570E+02  0.47000000000E+01 0.  1.
         11    1    4    4    0    0  0.21619723311E+02  0.10754893105E+02 -0.91046690336E+02  0.94194373415E+02  0.00000000000E+00 0. -1.
        -12    1    4    4    0    0 -0.66501805397E+02  0.69012057676E+02 -0.22221924140E+03  0.24200525919E+03  0.00000000000E+00 0.  1.
<mgrwt>
<rscale>  2 0.18610389E+03</rscale>
<asrwt>0</asrwt>
<pdfrwt beam="1">  1       21 0.19291298E-01 0.18629302E+03</pdfrwt>
<pdfrwt beam="2">  1       21 0.70341185E-01 0.18629302E+03</pdfrwt>
<totfact> 0.45400141E+04</totfact>
</mgrwt>
</event>
<event>
12    1  0.1071811E-001  0.5486933E+03  0.7546771E-02  0.1001923E+00
         21   -1    0    0  503  502  0.00000000000E+00  0.00000000000E+00  0.45536581078E+03  0.45536581078E+03  0.00000000000E+00 0. -1.
         21   -1    0    0  501  503 -0.00000000000E+00 -0.00000000000E+00 -0.66168567748E+03  0.66168567748E+03  0.00000000000E+00 0.  1.
          6    2    1    2  501    0  0.24150096966E+03  0.45863236618E+03 -0.14187485399E+03  0.56673872069E+03  0.17999427125E+03 0.  0.
         24    2    3    3    0    0  0.25021506378E+03  0.46614911629E+03 -0.13394002959E+03  0.55199123253E+03  0.82775675801E+02 0.  0.
         -6    2    1    2    0  502 -0.24150096966E+03 -0.45863236618E+03 -0.64445012709E+02  0.55031276757E+03  0.17327612887E+03 0.  0.
        -24    2    5    5    0    0 -0.14224553343E+03 -0.35686305735E+03  0.44089222744E+01  0.39228875610E+03  0.79284273864E+02 0.  0.
          5    1    3    3  501    0 -0.87140941230E+01 -0.75167501138E+01 -0.79348244000E+01  0.14747488156E+02  0.47000000000E+01 0. -1.
        -13    1    4    4    0    0  0.12500961742E+03  0.24122711827E+03 -0.11118732962E+03  0.29356523859E+03  0.00000000000E+00 0.  1.
         14    1    4    4    0    0  0.12520544637E+03  0.22492199802E+03 -0.22752699968E+02  0.25842599395E+03  0.00000000000E+00 0. -1.
         -5    1    5    5    0  502 -0.99255436227E+02 -0.10176930883E+03 -0.68853934984E+02  0.15802401147E+03  0.47000000000E+01 0.  1.
         13    1    6    6    0    0 -0.69991812464E+02 -0.17643113014E+03  0.41820154624E+02  0.19435977677E+03  0.00000000000E+00 0. -1.
        -14    1    6    6    0    0 -0.72253720970E+02 -0.18043192721E+03 -0.37411232349E+02  0.19792897933E+03  0.00000000000E+00 0.  1.
<mgrwt>
<rscale>  2 0.54815072E+03</rscale>
<asrwt>0</asrwt>
<pdfrwt beam="1">  1       21 0.70056279E-01 0.54869327E+03</pdfrwt>
<pdfrwt beam="2">  1       21 0.10179780E+00 0.54869327E+03</pdfrwt>
<totfact> 0.11993175E+03</totfact>
</mgrwt>
</event>
<event>
12    1  0.1071811E-001  0.1728299E+03  0.7546771E-02  0.1176770E+00
         21   -1    0    0  503  502  0.00000000000E+00  0.00000000000E+00  0.53278526624E+02  0.53278526624E+02  0.00000000000E+00 0.  1.
         21   -1    0    0  501  503 -0.00000000000E+00 -0.00000000000E+00 -0.54301417127E+03  0.54301417127E+03  0.00000000000E+00 0.  1.
          6    2    1    2  501    0 -0.13781893291E+02  0.25664355736E+01 -0.21109333011E+03  0.26840289371E+03  0.16517624575E+03 0.  0.
         24    2    3    3    0    0 -0.36841096939E+02 -0.24517823130E+02 -0.51677408652E+02  0.10499906892E+03  0.79974119778E+02 0.  0.
         -6    2    1    2    0  502  0.13781893291E+02 -0.25664355736E+01 -0.27864231453E+03  0.32788980418E+03  0.17226043383E+03 0.  0.
        -24    2    5    5    0    0  0.65590814562E+02 -0.35469199907E+02 -0.15465703145E+03  0.18946582994E+03  0.80114194994E+02 0.  0.
          5    1    3    3  501    0  0.23059203648E+02  0.27084258704E+02 -0.15941592146E+03  0.16340382479E+03  0.47000000000E+01 0. -1.
        -13    1    4    4    0    0  0.15060881264E+02  0.14050264795E+02  0.23569316896E+01  0.20731502894E+02  0.00000000000E+00 0.  1.
         14    1    4    4    0    0 -0.51901978203E+02 -0.38568087925E+02 -0.54034340342E+02  0.84267566025E+02  0.00000000000E+00 0. -1.
         -5    1    5    5    0  502 -0.51808921271E+02  0.32902764333E+02 -0.12398528308E+03  0.13842397424E+03  0.47000000000E+01 0.  1.
         11    1    6    6    0    0 -0.29813643640E+01  0.20206488243E+02 -0.21310518598E+02  0.29518280836E+02  0.00000000000E+00 0. -1.
        -12    1    6    6    0    0  0.68572178926E+02 -0.55675688149E+02 -0.13334651285E+03  0.15994754910E+03  0.00000000000E+00 0.  1.
<mgrwt>
<rscale>  2 0.17103727E+03</rscale>
<asrwt>0</asrwt>
<pdfrwt beam="1">  1       21 0.81966958E-02 0.17282993E+03</pdfrwt>
<pdfrwt beam="2">  1       21 0.83540648E-01 0.17282993E+03</pdfrwt>
<totfact> 0.14440863E+05</totfact>
</mgrwt>
</event>
<event>
12    1  0.1071811E-001  0.3329688E+03  0.7546771E-02  0.1070592E+00
         21   -1    0    0  501  502  0.00000000000E+00  0.00000000000E+00  0.27824128829E+03  0.27824128829E+03  0.00000000000E+00 0. -1.
         21   -1    0    0  502  503 -0.00000000000E+00 -0.00000000000E+00 -0.42173847441E+03  0.42173847441E+03  0.00000000000E+00 0. -1.
         -6    2    1    2    0  503 -0.27090598024E+03 -0.56861168315E+02 -0.16804690110E+03  0.37297179157E+03  0.18505392117E+03 0.  0.
        -24    2    3    3    0    0 -0.17058180934E+03 -0.66760878460E+02 -0.30875047439E+02  0.20267454859E+03  0.81046502214E+02 0.  0.
          6    2    1    2  501    0  0.27090598024E+03  0.56861168315E+02  0.24549714980E+02  0.32700797113E+03  0.17236090648E+03 0.  0.
         24    2    5    5    0    0  0.12016063140E+03 -0.32954048111E+02  0.31556964233E+02  0.15133177798E+03  0.79880651027E+02 0.  0.
          5    1    5    5  501    0  0.15074534884E+03  0.89815216426E+02 -0.70072492533E+01  0.17567619315E+03  0.47000000000E+01 0. -1.
        -11    1    6    6    0    0  0.48594958174E+02 -0.47626207701E+02 -0.75656610574E+01  0.68461411372E+02  0.00000000000E+00 0.  1.
         12    1    6    6    0    0  0.71565673227E+02  0.14672159590E+02  0.39122625291E+02  0.82870366604E+02  0.00000000000E+00 0. -1.
         -5    1    3    3    0  503 -0.10032417090E+03  0.98997101451E+01 -0.13717185366E+03  0.17029724298E+03  0.47000000000E+01 0.  1.
         11    1    4    4    0    0 -0.11957346694E+03 -0.28374353545E+02  0.15362121177E+02  0.12385036416E+03  0.00000000000E+00 0. -1.
        -12    1    4    4    0    0 -0.51008342399E+02 -0.38386524915E+02 -0.46237168617E+02  0.78824184430E+02  0.00000000000E+00 0.  1.
<mgrwt>
<rscale>  2 0.33123435E+03</rscale>
<asrwt>0</asrwt>
<pdfrwt beam="1">  1       21 0.42806352E-01 0.33296876E+03</pdfrwt>
<pdfrwt beam="2">  1       21 0.64882842E-01 0.33296876E+03</pdfrwt>
<totfact> 0.10670766E+04</totfact>
</mgrwt>
</event>
<event>
12    1  0.1071811E-001  0.2090319E+03  0.7546771E-02  0.1143629E+00
         21   -1    0    0  503  502  0.00000000000E+00  0.00000000000E+00  0.11952180014E+03  0.11952180014E+03  0.00000000000E+00 0. -1.
         21   -1    0    0  501  503 -0.00000000000E+00 -0.00000000000E+00 -0.35665303680E+03  0.35665303680E+03  0.00000000000E+00 0.  1.
          6    2    1    2  501    0 -0.11490448564E+03  0.17980456289E+02 -0.13528653440E+03  0.24365238513E+03  0.16594487266E+03 0.  0.
         24    2    3    3    0    0 -0.12809227269E+03  0.83844421322E+01 -0.56393986780E+02  0.16295464486E+03  0.83042190135E+02 0.  0.
         -6    2    1    2    0  502  0.11490448564E+03 -0.17980456289E+02 -0.10184470225E+03  0.23252245181E+03  0.17368940551E+03 0.  0.
        -24    2    5    5    0    0  0.94796307628E+02 -0.28338625564E+02 -0.13921488963E+03  0.18858782539E+03  0.79969774005E+02 0.  0.
          5    1    3    3  501    0  0.13187787055E+02  0.95960141568E+01 -0.78892547622E+02  0.80697740274E+02  0.47000000000E+01 0. -1.
        -13    1    4    4    0    0 -0.56579147464E+02 -0.25538412487E+02 -0.56299416201E+02  0.83803548282E+02  0.00000000000E+00 0.  1.
         14    1    4    4    0    0 -0.71513125230E+02  0.33922854620E+02 -0.94570579674E-01  0.79151096577E+02  0.00000000000E+00 0. -1.
         -5    1    5    5    0  502  0.20108178012E+02  0.10358169275E+02  0.37370187373E+02  0.43934626412E+02  0.47000000000E+01 0.  1.
         13    1    6    6    0    0  0.35731465006E+02 -0.18530958091E+02 -0.36819715614E+01  0.40418942512E+02  0.00000000000E+00 0. -1.
        -14    1    6    6    0    0  0.59064842623E+02 -0.98076674731E+01 -0.13553291806E+03  0.14816888288E+03  0.00000000000E+00 0.  1.
<mgrwt>
<rscale>  2 0.20741596E+03</rscale>
<asrwt>0</asrwt>
<pdfrwt beam="1">  1       21 0.18387970E-01 0.20903193E+03</pdfrwt>
<pdfrwt beam="2">  1       21 0.54869697E-01 0.20903193E+03</pdfrwt>
<totfact> 0.84021635E+04</totfact>
</mgrwt>
</event>
<event>
12    1  0.1071811E-001  0.2247615E+03  0.7546771E-02  0.1130410E+00
         21   -1    0    0  503  502  0.00000000000E+00  0.00000000000E+00  0.87826875817E+02  0.87826875817E+02  0.00000000000E+00 0. -1.
         21   -1    0    0  501  503 -0.00000000000E+00 -0.00000000000E+00 -0.59937860768E+03  0.59937860768E+03  0.00000000000E+00 0. -1.
          6    2    1    2  501    0 -0.14027141636E+03  0.20936812392E+02 -0.18627978482E+03  0.29192100830E+03  0.17436541083E+03 0.  0.
         24    2    3    3    0    0 -0.43445175898E+02 -0.21929931358E+02 -0.15508222437E+02  0.90928732131E+02  0.75227150455E+02 0.  0.
         -6    2    1    2    0  502  0.14027141636E+03 -0.20936812392E+02 -0.32527194704E+03  0.39528447520E+03  0.17416531353E+03 0.  0.
        -24    2    5    5    0    0  0.88774204301E+02  0.49795487001E+02 -0.24028026754E+03  0.27321606564E+03  0.80944188663E+02 0.  0.
          5    1    3    3  501    0 -0.96826240464E+02  0.42866743750E+02 -0.17077156238E+03  0.20099227617E+03  0.47000000000E+01 0. -1.
        -11    1    4    4    0    0 -0.53914125448E+01 -0.35937544113E+02 -0.30754881629E+02  0.47607112390E+02  0.00000000000E+00 0.  1.
         12    1    4    4    0    0 -0.38053763354E+02  0.14007612755E+02  0.15246659192E+02  0.43321619741E+02  0.00000000000E+00 0. -1.
         -5    1    5    5    0  502  0.51497212061E+02 -0.70732299392E+02 -0.84991679507E+02  0.12206840956E+03  0.47000000000E+01 0.  1.
         13    1    6    6    0    0  0.98935015723E+02  0.24190466603E+02 -0.19964083753E+03  0.22412001254E+03  0.00000000000E+00 0. -1.
        -14    1    6    6    0    0 -0.10160811422E+02  0.25605020398E+02 -0.40639430004E+02  0.49096053094E+02  0.00000000000E+00 0.  1.
<mgrwt>
<rscale>  2 0.22472266E+03</rscale>
<asrwt>0</asrwt>
<pdfrwt beam="1">  1       21 0.13511827E-01 0.22476147E+03</pdfrwt>
<pdfrwt beam="2">  1       21 0.92212096E-01 0.22476147E+03</pdfrwt>
<totfact> 0.46336373E+04</totfact>
</mgrwt>
</event>
<event>
12    1  0.1071811E-001  0.2089959E+03  0.7546771E-02  0.1142658E+00
         21   -1    0    0  501  502  0.00000000000E+00  0.00000000000E+00  0.16482169339E+03  0.16482169339E+03  0.00000000000E+00 0. -1.
         21   -1    0    0  502  503 -0.00000000000E+00 -0.00000000000E+00 -0.27784399463E+03  0.27784399463E+03  0.00000000000E+00 0.  1.
         -6    2    1    2    0  503 -0.98581709835E+02 -0.62304399989E+02 -0.10722679358E+03  0.23358940267E+03  0.17165730980E+03 0.  0.
        -24    2    3    3    0    0 -0.97641505758E+02 -0.39316439764E+02 -0.96699749188E+01  0.13324622569E+03  0.81125841528E+02 0.  0.
          6    2    1    2  501    0  0.98581709835E+02  0.62304399989E+02 -0.57955076649E+01  0.20907628535E+03  0.17343331115E+03 0.  0.
         24    2    5    5    0    0  0.71921004474E+02  0.83328396769E+02  0.47510807303E+02  0.14570077852E+03  0.82796059432E+02 0.  0.
          5    1    5    5  501    0  0.26660705361E+02 -0.21023996780E+02 -0.53306314968E+02  0.63375506833E+02  0.47000000000E+01 0. -1.
        -13    1    6    6    0    0  0.64765721568E+02  0.33383328045E+02 -0.48017772678E+01  0.73021245857E+02  0.00000000000E+00 0.  1.
         14    1    6    6    0    0  0.71552829060E+01  0.49945068724E+02  0.52312584571E+02  0.72679532661E+02  0.00000000000E+00 0. -1.
         -5    1    3    3    0  503 -0.94020407627E+00 -0.22987960225E+02 -0.97556818659E+02  0.10034317698E+03  0.47000000000E+01 0.  1.
         13    1    4    4    0    0 -0.24128645873E+02  0.19017630766E+02  0.17744213073E+02  0.35478429069E+02  0.00000000000E+00 0. -1.
        -14    1    4    4    0    0 -0.73512859885E+02 -0.58334070531E+02 -0.27414187992E+02  0.97767796622E+02  0.00000000000E+00 0.  1.
<mgrwt>
<rscale>  2 0.20862711E+03</rscale>
<asrwt>0</asrwt>
<pdfrwt beam="1">  1       21 0.25357184E-01 0.20899595E+03</pdfrwt>
<pdfrwt beam="2">  1       21 0.42745230E-01 0.20899595E+03</pdfrwt>
<totfact> 0.77058518E+04</totfact>
</mgrwt>
</event>
<event>
12    1  0.1071811E-001  0.2685334E+03  0.7546771E-02  0.1102571E+00
         21   -1    0    0  501  502  0.00000000000E+00  0.00000000000E+00  0.33717752507E+03  0.33717752507E+03  0.00000000000E+00 0. -1.
         21   -1    0    0  502  503 -0.00000000000E+00 -0.00000000000E+00 -0.33327821645E+03  0.33327821645E+03  0.00000000000E+00 0.  1.
         -6    2    1    2    0  503 -0.19474072925E+03  0.28826822929E+02  0.20465944069E+03  0.33517256728E+03  0.17804557238E+03 0.  0.
        -24    2    3    3    0    0 -0.67339377287E+02  0.70298708081E+02  0.13204332218E+03  0.18270548097E+03  0.80432292973E+02 0.  0.
          6    2    1    2  501    0  0.19474072925E+03 -0.28826822929E+02 -0.20076013207E+03  0.33528317423E+03  0.18263416697E+03 0.  0.
         24    2    5    5    0    0  0.17578475492E+02  0.35056574317E+01 -0.93975789562E+02  0.12586292868E+03  0.81784689016E+02 0.  0.
          5    1    5    5  501    0  0.17716225376E+03 -0.32332480361E+02 -0.10678434251E+03  0.20942024556E+03  0.47000000000E+01 0. -1.
        -11    1    6    6    0    0  0.35854840205E+02  0.29384052539E+02 -0.77109772396E+02  0.89971712825E+02  0.00000000000E+00 0.  1.
         12    1    6    6    0    0 -0.18276364713E+02 -0.25878395107E+02 -0.16866017166E+02  0.35891215854E+02  0.00000000000E+00 0. -1.
         -5    1    3    3    0  503 -0.12740135196E+03 -0.41471885152E+02  0.72616118505E+02  0.15246708631E+03  0.47000000000E+01 0.  1.
         13    1    4    4    0    0 -0.49024576634E+02  0.23235714518E+02  0.16657145812E+02  0.56751810983E+02  0.00000000000E+00 0. -1.
        -14    1    4    4    0    0 -0.18314800653E+02  0.47062993564E+02  0.11538617637E+03  0.12595366999E+03  0.00000000000E+00 0.  1.
<mgrwt>
<rscale>  2 0.26775514E+03</rscale>
<asrwt>0</asrwt>
<pdfrwt beam="1">  1       21 0.51873465E-01 0.26853338E+03</pdfrwt>
<pdfrwt beam="2">  1       21 0.51273572E-01 0.26853338E+03</pdfrwt>
<totfact> 0.12209919E+04</totfact>
</mgrwt>
</event>
<event>
12    1  0.1071811E-001  0.1988346E+03  0.7546771E-02  0.1151092E+00
         21   -1    0    0  503  502  0.00000000000E+00  0.00000000000E+00  0.11091283939E+04  0.11091283939E+04  0.00000000000E+00 0.  1.
         21   -1    0    0  501  503 -0.00000000000E+00 -0.00000000000E+00 -0.37132023906E+02  0.37132023906E+02  0.00000000000E+00 0.  1.
          6    2    1    2  501    0  0.95304381070E+02  0.19787619385E+02  0.65974653029E+03  0.68856496394E+03  0.17141105682E+03 0.  0.
         24    2    3    3    0    0 -0.40499532840E+01 -0.11091829166E+02  0.17718907839E+03  0.19489644308E+03  0.80307055917E+02 0.  0.
         -6    2    1    2    0  502 -0.95304381070E+02 -0.19787619385E+02  0.41224983968E+03  0.45769545385E+03  0.17338028499E+03 0.  0.
        -24    2    5    5    0    0 -0.95809848250E+02 -0.40930353599E+01  0.13641052337E+03  0.18136957035E+03  0.71349913832E+02 0.  0.
          5    1    3    3  501    0  0.99354334354E+02  0.30879448551E+02  0.48255745191E+03  0.49366852086E+03  0.47000000000E+01 0. -1.
        -11    1    4    4    0    0 -0.34617664714E+02  0.48214786699E+00  0.14479979123E+03  0.14888114292E+03  0.00000000000E+00 0.  1.
         12    1    4    4    0    0  0.30567711430E+02 -0.11573977033E+02  0.32389287160E+02  0.46015300164E+02  0.00000000000E+00 0. -1.
         -5    1    5    5    0  502  0.50546718000E+00 -0.15694584026E+02  0.27583931631E+03  0.27632588349E+03  0.47000000000E+01 0.  1.
         13    1    6    6    0    0 -0.77434231550E+02 -0.33864165947E+02  0.98241447053E+02  0.12959253015E+03  0.00000000000E+00 0. -1.
        -14    1    6    6    0    0 -0.18375616700E+02  0.29771130587E+02  0.38169076316E+02  0.51777040205E+02  0.00000000000E+00 0.  1.
<mgrwt>
<rscale>  2 0.19840451E+03</rscale>
<asrwt>0</asrwt>
<pdfrwt beam="1">  1       21 0.17063511E+00 0.19883460E+03</pdfrwt>
<pdfrwt beam="2">  1       21 0.57126199E-02 0.19883460E+03</pdfrwt>
<totfact> 0.45117224E+04</totfact>
</mgrwt>
</event>
<event>
12    1  0.1071811E-001  0.2357213E+03  0.7546771E-02  0.1122993E+00
         21   -1    0    0  503  502  0.00000000000E+00  0.00000000000E+00  0.83094261768E+02  0.83094261768E+02  0.00000000000E+00 0. -1.
         21   -1    0    0  501  503 -0.00000000000E+00 -0.00000000000E+00 -0.67582798581E+03  0.67582798581E+03  0.00000000000E+00 0. -1.
          6    2    1    2  501    0  0.11847510592E+03  0.10750417803E+03 -0.34655521699E+03  0.41808737518E+03  0.17059611907E+03 0.  0.
         24    2    3    3    0    0  0.39898512417E+02  0.78855099917E+02 -0.92471643593E+02  0.15055120380E+03  0.79401775930E+02 0.  0.
         -6    2    1    2    0  502 -0.11847510592E+03 -0.10750417803E+03 -0.24617850704E+03  0.34083487240E+03  0.17312150039E+03 0.  0.
        -24    2    5    5    0    0 -0.11837548693E+03 -0.34896277653E+02 -0.10387222332E+03  0.18100657232E+03  0.82118416587E+02 0.  0.
          5    1    3    3  501    0  0.78576593503E+02  0.28649078108E+02 -0.25408357340E+03  0.26753617138E+03  0.47000000000E+01 0. -1.
        -11    1    4    4    0    0  0.20624536343E+02  0.92754315892E+02 -0.72786909682E+02  0.11969406350E+03  0.00000000000E+00 0.  1.
         12    1    4    4    0    0  0.19273976074E+02 -0.13899215975E+02 -0.19684733911E+02  0.30857140301E+02  0.00000000000E+00 0. -1.
         -5    1    5    5    0  502 -0.99618987225E-01 -0.72607900372E+02 -0.14230628372E+03  0.15982830008E+03  0.47000000000E+01 0.  1.
         11    1    6    6    0    0 -0.41709686566E+02 -0.87902227118E+01  0.75202630424E+01  0.43284181002E+02  0.00000000000E+00 0. -1.
        -12    1    6    6    0    0 -0.76665800366E+02 -0.26106054941E+02 -0.11139248637E+03  0.13772239131E+03  0.00000000000E+00 0.  1.
<mgrwt>
<rscale>  2 0.23525787E+03</rscale>
<asrwt>0</asrwt>
<pdfrwt beam="1">  1       21 0.12783733E-01 0.23572135E+03</pdfrwt>
<pdfrwt beam="2">  1       21 0.10397354E+00 0.23572135E+03</pdfrwt>
<totfact> 0.38329433E+04</totfact>
</mgrwt>
</event>
<event>
12    1  0.1071811E-001  0.2862437E+03  0.7546771E-02  0.1092404E+00
         21   -1    0    0  501  502  0.00000000000E+00  0.00000000000E+00  0.61135315421E+03  0.61135315421E+03  0.00000000000E+00 0.  1.
         21   -1    0    0  502  503 -0.00000000000E+00 -0.00000000000E+00 -0.18726003580E+03  0.18726003580E+03  0.00000000000E+00 0. -1.
         -6    2    1    2    0  503 -0.22799257784E+03  0.18157589731E+02 -0.12475462452E+01  0.28624639736E+03  0.17211952247E+03 0.  0.
        -24    2    3    3    0    0 -0.16609894937E+03 -0.44645497429E+02  0.29979903853E+02  0.19258587931E+03  0.81292341902E+02 0.  0.
          6    2    1    2  501    0  0.22799257784E+03 -0.18157589731E+02  0.42534066466E+03  0.51236679266E+03  0.17115704949E+03 0.  0.
         24    2    5    5    0    0  0.15969271959E+03  0.35343035671E+02  0.35902110231E+03  0.40306188927E+03  0.82533870707E+02 0.  0.
          5    1    5    5  501    0  0.68299858250E+02 -0.53500625401E+02  0.66319562345E+02  0.10930490339E+03  0.47000000000E+01 0. -1.
        -13    1    6    6    0    0  0.85733082018E+02  0.28137900719E+02  0.28179915581E+03  0.29589299928E+03  0.00000000000E+00 0.  1.
         14    1    6    6    0    0  0.73959637567E+02  0.72051349519E+01  0.77221946506E+02  0.10716888999E+03  0.00000000000E+00 0. -1.
         -5    1    3    3    0  503 -0.61893628461E+02  0.62803087159E+02 -0.31227450098E+02  0.93660518045E+02  0.47000000000E+01 0.  1.
         11    1    4    4    0    0 -0.43143973287E+02 -0.15899388944E+02 -0.27791754810E+02  0.53726852087E+02  0.00000000000E+00 0. -1.
        -12    1    4    4    0    0 -0.12295497609E+03 -0.28746108485E+02  0.57771658662E+02  0.13885902723E+03  0.00000000000E+00 0.  1.
<mgrwt>
<rscale>  2 0.28609914E+03</rscale>
<asrwt>0</asrwt>
<pdfrwt beam="1">  1       21 0.94054330E-01 0.28624368E+03</pdfrwt>
<pdfrwt beam="2">  1       21 0.28809237E-01 0.28624368E+03</pdfrwt>
<totfact> 0.10350227E+04</totfact>
</mgrwt>
</event>
<event>
12    1  0.1071811E-001  0.1892732E+03  0.7546771E-02  0.1160868E+00
         21   -1    0    0  503  502  0.00000000000E+00  0.00000000000E+00  0.11967742952E+03  0.11967742952E+03  0.00000000000E+00 0.  1.
         21   -1    0    0  501  503 -0.00000000000E+00 -0.00000000000E+00 -0.29316264213E+03  0.29316264213E+03  0.00000000000E+00 0.  1.
          6    2    1    2  501    0  0.12170123582E+02 -0.64514583013E+02 -0.59834256871E+02  0.19850562170E+03  0.17752211192E+03 0.  0.
         24    2    3    3    0    0  0.43029433004E+02  0.14056845053E+02 -0.68065738660E+02  0.11356085388E+03  0.78828901792E+02 0.  0.
         -6    2    1    2    0  502 -0.12170123582E+02  0.64514583013E+02 -0.11365095574E+03  0.21433444995E+03  0.16944755343E+03 0.  0.
        -24    2    5    5    0    0 -0.25610843725E+02  0.10785800596E+03 -0.93317962009E+02  0.16438621769E+03  0.77622946137E+02 0.  0.
          5    1    3    3  501    0 -0.30859309422E+02 -0.78571428065E+02  0.82314817898E+01  0.84944767812E+02  0.47000000000E+01 0. -1.
        -11    1    4    4    0    0  0.31706883825E+02  0.90309095843E+01 -0.85807142179E+02  0.91922518780E+02  0.00000000000E+00 0.  1.
         12    1    4    4    0    0  0.11322549178E+02  0.50259354684E+01  0.17741403519E+02  0.21638335103E+02  0.00000000000E+00 0. -1.
         -5    1    5    5    0  502  0.13440720144E+02 -0.43343422952E+02 -0.20332993731E+02  0.49948232253E+02  0.47000000000E+01 0.  1.
         11    1    6    6    0    0  0.12444444502E+01  0.37605847022E+02 -0.79448381386E+02  0.87907870393E+02  0.00000000000E+00 0. -1.
        -12    1    6    6    0    0 -0.26855288176E+02  0.70252158942E+02 -0.13869580623E+02  0.76478347300E+02  0.00000000000E+00 0.  1.
<mgrwt>
<rscale>  2 0.18735636E+03</rscale>
<asrwt>0</asrwt>
<pdfrwt beam="1">  1       21 0.18411912E-01 0.18927320E+03</pdfrwt>
<pdfrwt beam="2">  1       21 0.45101945E-01 0.18927320E+03</pdfrwt>
<totfact> 0.12714399E+05</totfact>
</mgrwt>
</event>
<event>
12    1  0.1071811E-001  0.2076695E+03  0.7546771E-02  0.1143535E+00
         21   -1    0    0  503  502  0.00000000000E+00  0.00000000000E+00  0.19184122790E+03  0.19184122790E+03  0.00000000000E+00 0. -1.
         21   -1    0    0  501  503 -0.00000000000E+00 -0.00000000000E+00 -0.36021983402E+03  0.36021983402E+03  0.00000000000E+00 0. -1.
          6    2    1    2  501    0  0.10896376951E+03  0.32624884424E+02 -0.25386903547E+03  0.32798799053E+03  0.17375024780E+03 0.  0.
         24    2    3    3    0    0  0.88659440656E+02 -0.15827653484E+02 -0.76974305072E+02  0.14339722737E+03  0.80788056946E+02 0.  0.
         -6    2    1    2    0  502 -0.10896376951E+03 -0.32624884424E+02  0.85490429351E+02  0.22407307139E+03  0.17309720293E+03 0.  0.
        -24    2    5    5    0    0 -0.13491201178E+03 -0.49179519248E+02  0.39829433758E+02  0.16880659213E+03  0.79305773554E+02 0.  0.
          5    1    3    3  501    0  0.20304328859E+02  0.48452537908E+02 -0.17689473040E+03  0.18459076316E+03  0.47000000000E+01 0. -1.
        -11    1    4    4    0    0  0.35694843517E+02  0.33204602243E+02 -0.33237852060E+02  0.59003578480E+02  0.00000000000E+00 0.  1.
         12    1    4    4    0    0  0.52964597138E+02 -0.49032255727E+02 -0.43736453012E+02  0.84393648895E+02  0.00000000000E+00 0. -1.
         -5    1    5    5    0  502  0.25948242264E+02  0.16554634824E+02  0.45660995593E+02  0.55266479255E+02  0.47000000000E+01 0.  1.
         13    1    6    6    0    0 -0.92242886092E+02 -0.69392649320E+01  0.54006281196E+02  0.10711480682E+03  0.00000000000E+00 0. -1.
        -14    1    6    6    0    0 -0.42669125687E+02 -0.42240254316E+02 -0.14176847438E+02  0.61691785311E+02  0.00000000000E+00 0.  1.
<mgrwt>
<rscale>  2 0.20753288E+03</rscale>
<asrwt>0</asrwt>
<pdfrwt beam="1">  1       21 0.29514035E-01 0.20766953E+03</pdfrwt>
<pdfrwt beam="2">  1       21 0.55418435E-01 0.20766953E+03</pdfrwt>
<totfact> 0.33496251E+04</totfact>
</mgrwt>
</event>
<event>
12    1  0.1071811E-001  0.1837780E+03  0.7546771E-02  0.1164544E+00
         21   -1    0    0  501  502  0.00000000000E+00  0.00000000000E+00  0.23888698623E+03  0.23888698623E+03  0.00000000000E+00 0. -1.
         21   -1    0    0  502  503 -0.00000000000E+00 -0.00000000000E+00 -0.14203864353E+03  0.14203864353E+03  0.00000000000E+00 0. -1.
         -6    2    1    2    0  503 -0.33329450555E+02 -0.45361207259E+02  0.69966380054E+02  0.19664601817E+03  0.17494533640E+03 0.  0.
        -24    2    3    3    0    0  0.25043345625E+01  0.22568757151E+02  0.84283407281E+02  0.11837975795E+03  0.79965329106E+02 0.  0.
          6    2    1    2  501    0  0.33329450555E+02  0.45361207259E+02  0.26881962652E+02  0.18427961159E+03  0.17340081872E+03 0.  0.
         24    2    5    5    0    0 -0.49192618198E+01  0.35172934879E+02  0.78765616009E+02  0.11885203041E+03  0.81611570157E+02 0.  0.
          5    1    5    5  501    0  0.38248712374E+02  0.10188272380E+02 -0.51883653357E+02  0.65427581172E+02  0.47000000000E+01 0. -1.
        -11    1    6    6    0    0 -0.41129059231E+02  0.14918705152E+02  0.23248569876E+02  0.49544558510E+02  0.00000000000E+00 0.  1.
         12    1    6    6    0    0  0.36209797412E+02  0.20254229727E+02  0.55517046133E+02  0.69307471904E+02  0.00000000000E+00 0. -1.
         -5    1    3    3    0  503 -0.35833785117E+02 -0.67929964410E+02 -0.14317027227E+02  0.78266260222E+02  0.47000000000E+01 0.  1.
         11    1    4    4    0    0 -0.32663729824E+02 -0.97657825364E+01  0.25180966012E+02  0.42383614804E+02  0.00000000000E+00 0. -1.
        -12    1    4    4    0    0  0.35168064386E+02  0.32334539687E+02  0.59102441269E+02  0.75996143148E+02  0.00000000000E+00 0.  1.
<mgrwt>
<rscale>  2 0.18340950E+03</rscale>
<asrwt>0</asrwt>
<pdfrwt beam="1">  1       21 0.36751844E-01 0.18377802E+03</pdfrwt>
<pdfrwt beam="2">  1       21 0.21852099E-01 0.18377802E+03</pdfrwt>
<totfact> 0.14000044E+05</totfact>
</mgrwt>
</event>
<event>
12    1  0.1071811E-001  0.1793084E+03  0.7546771E-02  0.1168566E+00
         21   -1    0    0  503  502  0.00000000000E+00  0.00000000000E+00  0.16007401128E+02  0.16007401128E+02  0.00000000000E+00 0. -1.
         21   -1    0    0  501  503 -0.00000000000E+00 -0.00000000000E+00 -0.21082724549E+04  0.21082724549E+04  0.00000000000E+00 0. -1.
          6    2    1    2  501    0 -0.18366363648E+01  0.49458792957E+02 -0.81132993699E+03  0.83090780608E+03  0.17234259516E+03 0.  0.
         24    2    3    3    0    0 -0.49896400588E+02  0.66460567538E+02 -0.39723739554E+03  0.41366264533E+03  0.80078573295E+02 0.  0.
         -6    2    1    2    0  502  0.18366363648E+01 -0.49458792957E+02 -0.12809351168E+04  0.12933720500E+04  0.17195040204E+03 0.  0.
        -24    2    5    5    0    0  0.26524551581E+01 -0.78908028127E+02 -0.12228848963E+04  0.12281045916E+04  0.80993247106E+02 0.  0.
          5    1    3    3  501    0  0.48059764223E+02 -0.17001774581E+02 -0.41409254145E+03  0.41724516074E+03  0.47000000000E+01 0. -1.
        -13    1    4    4    0    0 -0.26056031057E+02  0.68682366978E+02 -0.17032747420E+03  0.18549294530E+03  0.00000000000E+00 0.  1.
         14    1    4    4    0    0 -0.23840369530E+02 -0.22217994405E+01 -0.22690992134E+03  0.22816970004E+03  0.00000000000E+00 0. -1.
         -5    1    5    5    0  502 -0.81581879334E+00  0.29449235170E+02 -0.58050220513E+02  0.65267458308E+02  0.47000000000E+01 0.  1.
         11    1    6    6    0    0 -0.10540104593E+02 -0.26612122402E+02 -0.10248004960E+03  0.10640234692E+03  0.00000000000E+00 0. -1.
        -12    1    6    6    0    0  0.13192559752E+02 -0.52295905725E+02 -0.11204048467E+04  0.11217022447E+04  0.00000000000E+00 0.  1.
<mgrwt>
<rscale>  2 0.17921413E+03</rscale>
<asrwt>0</asrwt>
<pdfrwt beam="1">  1       21 0.24626767E-02 0.17930844E+03</pdfrwt>
<pdfrwt beam="2">  1       21 0.32434965E+00 0.17930844E+03</pdfrwt>
<totfact> 0.21949266E+04</totfact>
</mgrwt>
</event>
<event>
12    1  0.1071811E-001  0.4076500E+03  0.7546771E-02  0.1041339E+00
         21   -1    0    0  501  502  0.00000000000E+00  0.00000000000E+00  0.16375504050E+03  0.16375504050E+03  0.00000000000E+00 0. -1.
         21   -1    0    0  502  503 -0.00000000000E+00 -0.00000000000E+00 -0.10840562298E+04  0.10840562298E+04  0.00000000000E+00 0.  1.
         -6    2    1    2    0  503 -0.13119594617E+02  0.36662220724E+03 -0.62253384412E+03  0.74299060908E+03  0.17292394714E+03 0.  0.
        -24    2    3    3    0    0  0.46582882181E+02  0.30755296043E+03 -0.49467504405E+03  0.58994315105E+03  0.81060063391E+02 0.  0.
          6    2    1    2  501    0  0.13119594617E+02 -0.36662220724E+03 -0.29776734521E+03  0.50482066125E+03  0.17774853459E+03 0.  0.
         24    2    5    5    0    0 -0.23854673937E+01 -0.15036984952E+03 -0.21055929272E+03  0.27108400690E+03  0.80836507517E+02 0.  0.
          5    1    5    5  501    0  0.15505062010E+02 -0.21625235772E+03 -0.87208052486E+02  0.23373665435E+03  0.47000000000E+01 0. -1.
        -11    1    6    6    0    0  0.28202322152E+01 -0.15945779484E+03 -0.20306474616E+03  0.25820540889E+03  0.00000000000E+00 0.  1.
         12    1    6    6    0    0 -0.52056996090E+01  0.90879453241E+01 -0.74945465598E+01  0.12878598013E+02  0.00000000000E+00 0. -1.
         -5    1    3    3    0  503 -0.59702476797E+02  0.59069246810E+02 -0.12785880007E+03  0.15304745803E+03  0.47000000000E+01 0.  1.
         13    1    4    4    0    0  0.37354074886E+01  0.90664060593E+02 -0.84556126711E+02  0.12403089823E+03  0.00000000000E+00 0. -1.
        -14    1    4    4    0    0  0.42847474692E+02  0.21688889984E+03 -0.41011891734E+03  0.46591225281E+03  0.00000000000E+00 0.  1.
<mgrwt>
<rscale>  2 0.40712888E+03</rscale>
<asrwt>0</asrwt>
<pdfrwt beam="1">  1       21 0.25193083E-01 0.40764998E+03</pdfrwt>
<pdfrwt beam="2">  1       21 0.16677788E+00 0.40764998E+03</pdfrwt>
<totfact> 0.29330579E+03</totfact>
</mgrwt>
</event>
<event>
12    1  0.1071811E-001  0.2120579E+03  0.7546771E-02  0.1140087E+00
         21   -1    0    0  501  502  0.00000000000E+00  0.00000000000E+00  0.34620413190E+03  0.34620413190E+03  0.00000000000E+00 0. -1.
         21   -1    0    0  502  503 -0.00000000000E+00 -0.00000000000E+00 -0.13715847433E+03  0.13715847433E+03  0.00000000000E+00 0. -1.
         -6    2    1    2    0  503  0.86910691472E+02  0.86271981678E+02  0.16164799822E+03  0.26607227871E+03  0.17224418439E+03 0.  0.
        -24    2    3    3    0    0  0.86941792091E+02  0.11994799032E+03  0.10001129308E+03  0.19567875666E+03  0.79633670465E+02 0.  0.
          6    2    1    2  501    0 -0.86910691472E+02 -0.86271981678E+02  0.47397659354E+02  0.21729032752E+03  0.17312488327E+03 0.  0.
         24    2    5    5    0    0 -0.39628021734E+02 -0.10663962974E+03 -0.10992007461E+02  0.13930356495E+03  0.79638359121E+02 0.  0.
          5    1    5    5  501    0 -0.47282669737E+02  0.20367648057E+02  0.58389666816E+02  0.77986762567E+02  0.47000000000E+01 0. -1.
        -11    1    6    6    0    0 -0.29025472249E+01 -0.76226311206E+02  0.24212792308E+02  0.80032084890E+02  0.00000000000E+00 0.  1.
         12    1    6    6    0    0 -0.36725474509E+02 -0.30413318529E+02 -0.35204799769E+02  0.59271480061E+02  0.00000000000E+00 0. -1.
         -5    1    3    3    0  503 -0.31100619810E-01 -0.33676008645E+02  0.61636705142E+02  0.70393522048E+02  0.47000000000E+01 0.  1.
         13    1    4    4    0    0  0.56747498203E+02  0.94645660764E+02  0.10917484975E+03  0.15523281700E+03  0.00000000000E+00 0. -1.
        -14    1    4    4    0    0  0.30194293889E+02  0.25302329559E+02 -0.91635566774E+01  0.40445939667E+02  0.00000000000E+00 0.  1.
<mgrwt>
<rscale>  2 0.21187806E+03</rscale>
<asrwt>0</asrwt>
<pdfrwt beam="1">  1       21 0.53262174E-01 0.21205789E+03</pdfrwt>
<pdfrwt beam="2">  1       21 0.21101304E-01 0.21205789E+03</pdfrwt>
<totfact> 0.69090643E+04</totfact>
</mgrwt>
</event>
<event>
12    1  0.1071811E-001  0.3824929E+03  0.7546771E-02  0.1050209E+00
         21   -1    0    0  503  502  0.00000000000E+00  0.00000000000E+00  0.42423769751E+03  0.42423769751E+03  0.00000000000E+00 0.  1.
         21   -1    0    0  501  503 -0.00000000000E+00 -0.00000000000E+00 -0.34477807315E+03  0.34477807315E+03  0.00000000000E+00 0.  1.
          6    2    1    2  501    0  0.56399232199E+02  0.33631835734E+03  0.67697764210E+02  0.38843765476E+03  0.17323369615E+03 0.  0.
         24    2    3    3    0    0  0.81068457154E+02  0.30771568536E+03  0.21892642330E+02  0.32888194391E+03  0.80143667752E+02 0.  0.
         -6    2    1    2    0  502 -0.56399232199E+02 -0.33631835734E+03  0.11761860144E+02  0.38057811590E+03  0.16855399750E+03 0.  0.
        -24    2    5    5    0    0 -0.63799028390E+02 -0.13515118480E+03 -0.26507667386E+02  0.17561559486E+03  0.88329054979E+02 0.  0.
          5    1    3    3  501    0 -0.24669224955E+02  0.28602671975E+02  0.45805121880E+02  0.59555710846E+02  0.47000000000E+01 0. -1.
        -13    1    4    4    0    0  0.37842747340E+02  0.59521111363E+02  0.30406651822E+02  0.76807556263E+02  0.00000000000E+00 0.  1.
         14    1    4    4    0    0  0.43225709815E+02  0.24819457400E+03 -0.85140094915E+01  0.25207438765E+03  0.00000000000E+00 0. -1.
         -5    1    5    5    0  502  0.73997961912E+01 -0.20116717254E+03  0.38269527530E+02  0.20496252104E+03  0.47000000000E+01 0.  1.
         11    1    6    6    0    0  0.19936801381E+02 -0.43653695655E+02  0.31325086770E+01  0.48092970425E+02  0.00000000000E+00 0. -1.
        -12    1    6    6    0    0 -0.83735829771E+02 -0.91497489141E+02 -0.29640176063E+02  0.12752262444E+03  0.00000000000E+00 0.  1.
<mgrwt>
<rscale>  2 0.38196768E+03</rscale>
<asrwt>0</asrwt>
<pdfrwt beam="1">  1       21 0.65267338E-01 0.38249291E+03</pdfrwt>
<pdfrwt beam="2">  1       21 0.53042781E-01 0.38249291E+03</pdfrwt>
<totfact> 0.65843780E+03</totfact>
</mgrwt>
</event>
<event>
12    1  0.1071811E-001  0.1717516E+03  0.7546771E-02  0.1176332E+00
         21   -1    0    0  503  502  0.00000000000E+00  0.00000000000E+00  0.10275411688E+03  0.10275411688E+03  0.00000000000E+00 0.  1.
         21   -1    0    0  501  503 -0.00000000000E+00 -0.00000000000E+00 -0.41646486893E+03  0.41646486893E+03  0.00000000000E+00 0.  1.
          6    2    1    2  501    0  0.98927691633E+01 -0.13406627115E+02 -0.30299203583E+03  0.34828548031E+03  0.17094150310E+03 0.  0.
         24    2    3    3    0    0  0.11008024230E+02 -0.85755501922E+01 -0.48610751030E+02  0.93812473575E+02  0.79013026926E+02 0.  0.
         -6    2    1    2    0  502 -0.98927691633E+01  0.13406627115E+02 -0.10718716218E+02  0.17093350551E+03  0.16978152990E+03 0.  0.
        -24    2    5    5    0    0 -0.52207918488E+02 -0.25172109024E+02 -0.40075677051E+02  0.10641364892E+03  0.79740221722E+02 0.  0.
          5    1    3    3  501    0 -0.11152550670E+01 -0.48310769229E+01 -0.25438128480E+03  0.25447300673E+03  0.47000000000E+01 0. -1.
        -11    1    4    4    0    0  0.89271587299E+01 -0.40783871320E+02 -0.89844798954E+01  0.42705259651E+02  0.00000000000E+00 0.  1.
         12    1    4    4    0    0  0.20808655005E+01  0.32208321128E+02 -0.39626271135E+02  0.51107213925E+02  0.00000000000E+00 0. -1.
         -5    1    5    5    0  502  0.42315149325E+02  0.38578736139E+02  0.29356960833E+02  0.64519856586E+02  0.47000000000E+01 0.  1.
         13    1    6    6    0    0 -0.23774918606E+02 -0.51444441917E+02 -0.10361464750E+02  0.57611954581E+02  0.00000000000E+00 0. -1.
        -14    1    6    6    0    0 -0.28432999882E+02  0.26272332893E+02 -0.29714212301E+02  0.48801694342E+02  0.00000000000E+00 0.  1.
<mgrwt>
<rscale>  2 0.17146222E+03</rscale>
<asrwt>0</asrwt>
<pdfrwt beam="1">  1       21 0.15808326E-01 0.17175157E+03</pdfrwt>
<pdfrwt beam="2">  1       21 0.64071518E-01 0.17175157E+03</pdfrwt>
<totfact> 0.80863857E+04</totfact>
</mgrwt>
</event>
<event>
12    1  0.1071811E-001  0.2316667E+03  0.7546771E-02  0.1125699E+00
         21   -1    0    0  503  502  0.00000000000E+00  0.00000000000E+00  0.12506051331E+03  0.12506051331E+03  0.00000000000E+00 0.  1.
         21   -1    0    0  501  503 -0.00000000000E+00 -0.00000000000E+00 -0.42674944111E+03  0.42674944111E+03  0.00000000000E+00 0. -1.
          6    2    1    2  501    0  0.13040596556E+03 -0.81366143603E+02 -0.14936917199E+03  0.27455421060E+03  0.17158875208E+03 0.  0.
         24    2    3    3    0    0  0.14561162889E+03 -0.10669621984E+03 -0.11233230941E+03  0.22694492423E+03  0.79363852607E+02 0.  0.
         -6    2    1    2    0  502 -0.13040596556E+03  0.81366143603E+02 -0.15231975582E+03  0.27725574382E+03  0.17332995785E+03 0.  0.
        -24    2    5    5    0    0 -0.12309274779E+03  0.11221681735E+03 -0.15973936530E+03  0.24435608076E+03  0.80304363035E+02 0.  0.
          5    1    3    3  501    0 -0.15205663327E+02  0.25330076236E+02 -0.37036862572E+02  0.47609286369E+02  0.47000000000E+01 0. -1.
        -13    1    4    4    0    0  0.14901990905E+02 -0.48803428541E+02 -0.12370391480E+02  0.52505909722E+02  0.00000000000E+00 0.  1.
         14    1    4    4    0    0  0.13070963798E+03 -0.57892791297E+02 -0.99961917935E+02  0.17443901451E+03  0.00000000000E+00 0. -1.
         -5    1    5    5    0  502 -0.73132177701E+01 -0.30850673748E+02  0.74196094776E+01  0.32899663063E+02  0.47000000000E+01 0.  1.
         11    1    6    6    0    0 -0.11082606553E+03  0.55424801794E+02 -0.12799108118E+03  0.17814612630E+03  0.00000000000E+00 0. -1.
        -12    1    6    6    0    0 -0.12266682266E+02  0.56792015558E+02 -0.31748284114E+02  0.66209954456E+02  0.00000000000E+00 0.  1.
<mgrwt>
<rscale>  2 0.23134101E+03</rscale>
<asrwt>0</asrwt>
<pdfrwt beam="1">  1       21 0.19240079E-01 0.23166666E+03</pdfrwt>
<pdfrwt beam="2">  1       21 0.65653760E-01 0.23166666E+03</pdfrwt>
<totfact> 0.51963859E+04</totfact>
</mgrwt>
</event>
<event>
12    1  0.1071811E-001  0.1749439E+03  0.7546771E-02  0.1172893E+00
         21   -1    0    0  501  502  0.00000000000E+00  0.00000000000E+00  0.13846982260E+02  0.13846982260E+02  0.00000000000E+00 0. -1.
         21   -1    0    0  502  503 -0.00000000000E+00 -0.00000000000E+00 -0.22245594077E+04  0.22245594077E+04  0.00000000000E+00 0. -1.
         -6    2    1    2    0  503  0.19591490895E+02  0.15478374471E+02 -0.10016942047E+04  0.10168562495E+04  0.17315295501E+03 0.  0.
        -24    2    3    3    0    0 -0.56050038411E+02  0.85644001501E+01 -0.62277466046E+03  0.63037008545E+03  0.79392765182E+02 0.  0.
          6    2    1    2  501    0 -0.19591490895E+02 -0.15478374471E+02 -0.12090182208E+04  0.12215501405E+04  0.17273181809E+03 0.  0.
         24    2    5    5    0    0 -0.48473926840E+02  0.45000399824E+02 -0.83891093171E+03  0.84539409220E+03  0.80900322755E+02 0.  0.
          5    1    5    5  501    0  0.28882435945E+02 -0.60478774294E+02 -0.37010728909E+03  0.37615604832E+03  0.47000000000E+01 0. -1.
        -13    1    6    6    0    0 -0.22030481731E+02  0.61661824232E+02 -0.69768830864E+03  0.70075423559E+03  0.00000000000E+00 0.  1.
         14    1    6    6    0    0 -0.26443445108E+02 -0.16661424408E+02 -0.14122262307E+03  0.14463985661E+03  0.00000000000E+00 0. -1.
         -5    1    3    3    0  503  0.75641529305E+02  0.69139743204E+01 -0.37891954420E+03  0.38648616401E+03  0.47000000000E+01 0.  1.
         11    1    4    4    0    0  0.68593163889E+01  0.33252232815E+01 -0.44404745156E+01  0.88218561039E+01  0.00000000000E+00 0. -1.
        -12    1    4    4    0    0 -0.62909354799E+02  0.52391768686E+01 -0.61833418594E+03  0.62154822935E+03  0.00000000000E+00 0.  1.
<mgrwt>
<rscale>  2 0.17483956E+03</rscale>
<asrwt>0</asrwt>
<pdfrwt beam="1">  1       21 0.21303062E-02 0.17494386E+03</pdfrwt>
<pdfrwt beam="2">  1       21 0.34223971E+00 0.17494386E+03</pdfrwt>
<totfact> 0.22012514E+04</totfact>
</mgrwt>
</event>
<event>
12    1  0.1071811E-001  0.1960471E+03  0.7546771E-02  0.1155465E+00
         21   -1    0    0  501  502  0.00000000000E+00  0.00000000000E+00  0.14195202440E+03  0.14195202440E+03  0.00000000000E+00 0. -1.
         21   -1    0    0  502  503 -0.00000000000E+00 -0.00000000000E+00 -0.30575927258E+03  0.30575927258E+03  0.00000000000E+00 0. -1.
         -6    2    1    2    0  503 -0.65414842694E+02 -0.20425932831E+02  0.61050473267E+01  0.19614210135E+03  0.18367942711E+03 0.  0.
        -24    2    3    3    0    0 -0.80481420667E+02 -0.26782189513E+02  0.64646192473E+02  0.13517851020E+03  0.83063558020E+02 0.  0.
          6    2    1    2  501    0  0.65414842694E+02  0.20425932831E+02 -0.16991229550E+03  0.25156919563E+03  0.17239649547E+03 0.  0.
         24    2    5    5    0    0 -0.85861164144E+01  0.51370522568E+02 -0.52959763620E+02  0.10967594598E+03  0.80693398614E+02 0.  0.
          5    1    5    5  501    0  0.74000959109E+02 -0.30944589737E+02 -0.11695253188E+03  0.14189324965E+03  0.47000000000E+01 0. -1.
        -13    1    6    6    0    0  0.22189125164E+02  0.47885389439E+02 -0.55794581911E+01  0.53070690131E+02  0.00000000000E+00 0.  1.
         14    1    6    6    0    0 -0.30775241578E+02  0.34851331287E+01 -0.47380305429E+02  0.56605255849E+02  0.00000000000E+00 0. -1.
         -5    1    3    3    0  503  0.15066577972E+02  0.63562566815E+01 -0.58541145146E+02  0.60963591149E+02  0.47000000000E+01 0.  1.
         11    1    4    4    0    0 -0.81830357363E+02  0.80399280807E+01  0.55327288759E+02  0.99105785458E+02  0.00000000000E+00 0. -1.
        -12    1    4    4    0    0  0.13489366965E+01 -0.34822117593E+02  0.93189037134E+01  0.36072724742E+02  0.00000000000E+00 0.  1.
<mgrwt>
<rscale>  2 0.19336002E+03</rscale>
<asrwt>0</asrwt>
<pdfrwt beam="1">  1       21 0.21838773E-01 0.19604707E+03</pdfrwt>
<pdfrwt beam="2">  1       21 0.47039888E-01 0.19604707E+03</pdfrwt>
<totfact> 0.84532852E+04</totfact>
</mgrwt>
</event>
<event>
12    1  0.1071811E-001  0.1885543E+03  0.7546771E-02  0.1160071E+00
         21   -1    0    0  501  502  0.00000000000E+00  0.00000000000E+00  0.93243318303E+02  0.93243318303E+02  0.00000000000E+00 0.  1.
         21   -1    0    0  502  503 -0.00000000000E+00 -0.00000000000E+00 -0.84154021449E+03  0.84154021449E+03  0.00000000000E+00 0.  1.
         -6    2    1    2    0  503 -0.74678963632E+02  0.14012763172E+02 -0.72137712594E+03  0.74561229002E+03  0.17256715811E+03 0.  0.
        -24    2    3    3    0    0 -0.24015899581E+02 -0.45446921923E+02 -0.24521624863E+03  0.26306335851E+03  0.80181892333E+02 0.  0.
          6    2    1    2  501    0  0.74678963632E+02 -0.14012763172E+02 -0.26919770240E+02  0.18917124277E+03  0.17113672873E+03 0.  0.
         24    2    5    5    0    0 -0.15021904646E+02 -0.41614630071E+02 -0.25496714532E+02  0.95191330479E+02  0.80335993747E+02 0.  0.
          5    1    5    5  501    0  0.89700868278E+02  0.27601866899E+02 -0.14230557081E+01  0.93979912288E+02  0.47000000000E+01 0. -1.
        -13    1    6    6    0    0  0.16773912512E+02 -0.38613610843E+02  0.14028847676E+02  0.44375484791E+02  0.00000000000E+00 0.  1.
         14    1    6    6    0    0 -0.31795817158E+02 -0.30010192279E+01 -0.39525562208E+02  0.50815845688E+02  0.00000000000E+00 0. -1.
         -5    1    3    3    0  503 -0.50663064051E+02  0.59459685095E+02 -0.47616087732E+03  0.48254893151E+03  0.47000000000E+01 0.  1.
         13    1    4    4    0    0  0.22899049996E+02  0.38638241180E+01 -0.10038777473E+03  0.10303883221E+03  0.00000000000E+00 0. -1.
        -14    1    4    4    0    0 -0.46914949576E+02 -0.49310746041E+02 -0.14482847390E+03  0.16002452631E+03  0.00000000000E+00 0.  1.
<mgrwt>
<rscale>  2 0.18822639E+03</rscale>
<asrwt>0</asrwt>
<pdfrwt beam="1">  1       21 0.14345125E-01 0.18855431E+03</pdfrwt>
<pdfrwt beam="2">  1       21 0.12946773E+00 0.18855431E+03</pdfrwt>
<totfact> 0.18630844E+04</totfact>
</mgrwt>
</event>
<event>
12    1  0.1071811E-001  0.2260301E+03  0.7546771E-02  0.1129511E+00
         21   -1    0    0  501  502  0.00000000000E+00  0.00000000000E+00  0.39897084563E+03  0.39897084563E+03  0.00000000000E+00 0.  1.
         21   -1    0    0  502  503 -0.00000000000E+00 -0.00000000000E+00 -0.13039204000E+03  0.13039204000E+03  0.00000000000E+00 0.  1.
         -6    2    1    2    0  503  0.14306108128E+03  0.20206446739E+02  0.97713037705E+02  0.24601734713E+03  0.17349906019E+03 0.  0.
        -24    2    3    3    0    0  0.42462985055E+01  0.26723778399E+02  0.25590459510E+02  0.89378348753E+02  0.81249161380E+02 0.  0.
          6    2    1    2  501    0 -0.14306108128E+03 -0.20206446739E+02  0.17086576793E+03  0.28334553849E+03  0.17382407793E+03 0.  0.
         24    2    5    5    0    0 -0.10695139107E+03  0.15477839151E+02  0.36506893898E+02  0.13963863185E+03  0.80548312491E+02 0.  0.
          5    1    5    5  501    0 -0.36109690205E+02 -0.35684285890E+02  0.13435887403E+03  0.14370690664E+03  0.47000000000E+01 0. -1.
        -11    1    6    6    0    0 -0.45956152021E+02 -0.31258506348E+02  0.28271362889E+02  0.62356491942E+02  0.00000000000E+00 0.  1.
         12    1    6    6    0    0 -0.60995239052E+02  0.46736345498E+02  0.82355310087E+01  0.77282139907E+02  0.00000000000E+00 0. -1.
         -5    1    3    3    0  503  0.13881478277E+03 -0.65173316605E+01  0.72122578195E+02  0.15663899838E+03  0.47000000000E+01 0.  1.
         11    1    4    4    0    0 -0.97738151084E+01 -0.27168844477E+02  0.15548456507E+02  0.32793720005E+02  0.00000000000E+00 0. -1.
        -12    1    4    4    0    0  0.14020113614E+02  0.53892622876E+02  0.10042003003E+02  0.56584628748E+02  0.00000000000E+00 0.  1.
<mgrwt>
<rscale>  2 0.22596756E+03</rscale>
<asrwt>0</asrwt>
<pdfrwt beam="1">  1       21 0.61380129E-01 0.22603005E+03</pdfrwt>
<pdfrwt beam="2">  1       21 0.20060314E-01 0.22603005E+03</pdfrwt>
<totfact> 0.55776280E+04</totfact>
</mgrwt>
</event>
<event>
12    1  0.1071811E-001  0.2032815E+03  0.7546771E-02  0.1147151E+00
         21   -1    0    0  503  502  0.00000000000E+00  0.00000000000E+00  0.85518624904E+02  0.85518624904E+02  0.00000000000E+00 0.  1.
         21   -1    0    0  501  503 -0.00000000000E+00 -0.00000000000E+00 -0.72531993893E+03  0.72531993893E+03  0.00000000000E+00 0.  1.
          6    2    1    2  501    0  0.10164108424E+03 -0.29225539730E+02 -0.55458792551E+03  0.59041918629E+03  0.17274838999E+03 0.  0.
         24    2    3    3    0    0  0.11811476502E+03 -0.16053981067E+02 -0.54973043219E+03  0.56827065683E+03  0.80741335832E+02 0.  0.
         -6    2    1    2    0  502 -0.10164108424E+03  0.29225539730E+02 -0.85213388523E+02  0.22041937755E+03  0.17360396953E+03 0.  0.
        -24    2    5    5    0    0 -0.43370364936E+02 -0.50365147346E+02 -0.57721391345E+02  0.11791057740E+03  0.78444302680E+02 0.  0.
          5    1    3    3  501    0 -0.16473680778E+02 -0.13171558663E+02 -0.48574933135E+01  0.22148529461E+02  0.47000000000E+01 0. -1.
        -13    1    4    4    0    0  0.52663441324E+02  0.28598845824E+01 -0.40368647474E+03  0.40711716603E+03  0.00000000000E+00 0.  1.
         14    1    4    4    0    0  0.65451323696E+02 -0.18913865650E+02 -0.14604395745E+03  0.16115349080E+03  0.00000000000E+00 0. -1.
         -5    1    5    5    0  502 -0.58270719306E+02  0.79590687076E+02 -0.27491997179E+02  0.10250880014E+03  0.47000000000E+01 0.  1.
         13    1    6    6    0    0  0.22913907917E+02 -0.86672320322E+01 -0.13107053140E+02  0.27784220867E+02  0.00000000000E+00 0. -1.
        -14    1    6    6    0    0 -0.66284272853E+02 -0.41697915314E+02 -0.44614338204E+02  0.90126356537E+02  0.00000000000E+00 0.  1.
<mgrwt>
<rscale>  2 0.20309874E+03</rscale>
<asrwt>0</asrwt>
<pdfrwt beam="1">  1       21 0.13156711E-01 0.20328153E+03</pdfrwt>
<pdfrwt beam="2">  1       21 0.11158768E+00 0.20328153E+03</pdfrwt>
<totfact> 0.31187992E+04</totfact>
</mgrwt>
</event>
<event>
12    1  0.1071811E-001  0.1925993E+03  0.7546771E-02  0.1156252E+00
         21   -1    0    0  503  502  0.00000000000E+00  0.00000000000E+00  0.17253915900E+04  0.17253915900E+04  0.00000000000E+00 0. -1.
         21   -1    0    0  501  503 -0.00000000000E+00 -0.00000000000E+00 -0.21722097000E+02  0.21722097000E+02  0.00000000000E+00 0. -1.
          6    2    1    2  501    0 -0.72487417160E+02  0.43370028455E+02  0.94996762128E+03  0.96919274839E+03  0.17251294744E+03 0.  0.
         24    2    3    3    0    0  0.18791269092E+01  0.46394345659E+02  0.54260489647E+03  0.55505990867E+03  0.10731012119E+03 0.  0.
         -6    2    1    2    0  502  0.72487417160E+02 -0.43370028455E+02  0.75370187172E+03  0.77792093861E+03  0.17308694428E+03 0.  0.
        -24    2    5    5    0    0  0.68507352905E+02 -0.61154074748E+02  0.27661074684E+03  0.30045874675E+03  0.72999143647E+02 0.  0.
          5    1    3    3  501    0 -0.74366544069E+02 -0.30243172046E+01  0.40736272480E+03  0.41413283972E+03  0.47000000000E+01 0. -1.
        -11    1    4    4    0    0 -0.55547971268E+01 -0.33654329769E+02  0.21774090992E+03  0.22039640091E+03  0.00000000000E+00 0.  1.
         12    1    4    4    0    0  0.74339240360E+01  0.80048675428E+02  0.32486398656E+03  0.33466350776E+03  0.00000000000E+00 0. -1.
         -5    1    5    5    0  502  0.39800642548E+01  0.17784046293E+02  0.47709112488E+03  0.47746219186E+03  0.47000000000E+01 0.  1.
         11    1    6    6    0    0  0.17811033394E+01 -0.40296882008E+02  0.15522789443E+03  0.16038301106E+03  0.00000000000E+00 0. -1.
        -12    1    6    6    0    0  0.66726249565E+02 -0.20857192739E+02  0.12138285241E+03  0.14007573569E+03  0.00000000000E+00 0.  1.
<mgrwt>
<rscale>  2 0.19247021E+03</rscale>
<asrwt>0</asrwt>
<pdfrwt beam="1">  1       21 0.26544475E+00 0.19259926E+03</pdfrwt>
<pdfrwt beam="2">  1       21 0.33418624E-02 0.19259926E+03</pdfrwt>
<totfact> 0.28580574E+04</totfact>
</mgrwt>
</event>
<event>
12    1  0.1071811E-001  0.2251929E+03  0.7546771E-02  0.1130086E+00
         21   -1    0    0  503  502  0.00000000000E+00  0.00000000000E+00  0.37634561132E+02  0.37634561132E+02  0.00000000000E+00 0.  1.
         21   -1    0    0  501  503 -0.00000000000E+00 -0.00000000000E+00 -0.14196289330E+04  0.14196289330E+04  0.00000000000E+00 0. -1.
          6    2    1    2  501    0  0.17650547066E+02  0.14172356810E+03 -0.85572584631E+03  0.88483846864E+03  0.17399793096E+03 0.  0.
         24    2    3    3    0    0 -0.33628968918E+02  0.14904592082E+03 -0.68646429458E+03  0.70776569123E+03  0.79708543305E+02 0.  0.
         -6    2    1    2    0  502 -0.17650547066E+02 -0.14172356810E+03 -0.52626852560E+03  0.57242502553E+03  0.17411127836E+03 0.  0.
        -24    2    5    5    0    0 -0.58855758249E+02 -0.38319838259E+02 -0.34101599982E+03  0.35625197198E+03  0.75439678701E+02 0.  0.
          5    1    3    3  501    0  0.51279515985E+02 -0.73223527138E+01 -0.16926155173E+03  0.17707277742E+03  0.47000000000E+01 0. -1.
        -11    1    4    4    0    0 -0.42510539319E+02  0.45463389876E+02 -0.35385322331E+03  0.35928563765E+03  0.00000000000E+00 0.  1.
         12    1    4    4    0    0  0.88815704006E+01  0.10358253094E+03 -0.33261107127E+03  0.34848005358E+03  0.00000000000E+00 0. -1.
         -5    1    5    5    0  502  0.41205211183E+02 -0.10340372984E+03 -0.18525252577E+03  0.21617305355E+03  0.47000000000E+01 0.  1.
         13    1    6    6    0    0  0.14035852522E+01  0.19496578034E+02 -0.66974567890E+02  0.69768756264E+02  0.00000000000E+00 0. -1.
        -14    1    6    6    0    0 -0.60259343502E+02 -0.57816416293E+02 -0.27404143193E+03  0.28648321572E+03  0.00000000000E+00 0.  1.
<mgrwt>
<rscale>  2 0.22517101E+03</rscale>
<asrwt>0</asrwt>
<pdfrwt beam="1">  1       21 0.57899327E-02 0.22519291E+03</pdfrwt>
<pdfrwt beam="2">  1       21 0.21840444E+00 0.22519291E+03</pdfrwt>
<totfact> 0.21039353E+04</totfact>
</mgrwt>
</event>
<event>
12    1  0.1071811E-001  0.1852010E+03  0.7546771E-02  0.1163423E+00
         21   -1    0    0  503  502  0.00000000000E+00  0.00000000000E+00  0.36297449778E+02  0.36297449778E+02  0.00000000000E+00 0.  1.
         21   -1    0    0  501  503 -0.00000000000E+00 -0.00000000000E+00 -0.15705492920E+04  0.15705492920E+04  0.00000000000E+00 0.  1.
          6    2    1    2  501    0  0.54489424872E+02 -0.23931009403E+02 -0.12820469354E+04  0.12953546809E+04  0.17537848760E+03 0.  0.
         24    2    3    3    0    0 -0.47280594203E+01 -0.65294014177E+02 -0.56383394765E+03  0.57350317643E+03  0.81923806196E+02 0.  0.
         -6    2    1    2    0  502 -0.54489424872E+02  0.23931009403E+02 -0.25220490680E+03  0.31149206094E+03  0.17285311215E+03 0.  0.
        -24    2    5    5    0    0  0.56764253290E+01  0.43924769908E+02 -0.59220659667E+02  0.10830571880E+03  0.79129229605E+02 0.  0.
          5    1    3    3  501    0  0.59217484292E+02  0.41363004773E+02 -0.71821298780E+03  0.72185150443E+03  0.47000000000E+01 0. -1.
        -11    1    4    4    0    0  0.30511254660E+02 -0.18576135363E+02 -0.34962140200E+03  0.35144150893E+03  0.00000000000E+00 0.  1.
         12    1    4    4    0    0 -0.35239314080E+02 -0.46717878813E+02 -0.21421254565E+03  0.22206166749E+03  0.00000000000E+00 0. -1.
         -5    1    5    5    0  502 -0.60165850201E+02 -0.19993760504E+02 -0.19298424713E+03  0.20318634213E+03  0.47000000000E+01 0.  1.
         13    1    6    6    0    0  0.32668952890E+02  0.83039712109E+01 -0.53520784317E+02  0.63251014021E+02  0.00000000000E+00 0. -1.
        -14    1    6    6    0    0 -0.26992527561E+02  0.35620798697E+02 -0.56998753501E+01  0.45054704781E+02  0.00000000000E+00 0.  1.
<mgrwt>
<rscale>  2 0.18460066E+03</rscale>
<asrwt>0</asrwt>
<pdfrwt beam="1">  1       21 0.55842218E-02 0.18520098E+03</pdfrwt>
<pdfrwt beam="2">  1       21 0.24162302E+00 0.18520098E+03</pdfrwt>
<totfact> 0.16720607E+04</totfact>
</mgrwt>
</event>
<event>
12    1  0.1071811E-001  0.1870252E+03  0.7546771E-02  0.1161178E+00
         21   -1    0    0  503  502  0.00000000000E+00  0.00000000000E+00  0.17954622536E+03  0.17954622536E+03  0.00000000000E+00 0. -1.
         21   -1    0    0  501  503 -0.00000000000E+00 -0.00000000000E+00 -0.30625901395E+03  0.30625901395E+03  0.00000000000E+00 0. -1.
          6    2    1    2  501    0  0.71401237985E+02 -0.16364803025E+02 -0.20989623940E+03  0.28111542869E+03  0.17205670393E+03 0.  0.
         24    2    3    3    0    0 -0.59614454912E+01 -0.50596964118E+02 -0.83147021086E+02  0.12865467967E+03  0.83922630294E+02 0.  0.
         -6    2    1    2    0  502 -0.71401237985E+02  0.16364803025E+02  0.83183450813E+02  0.20468981061E+03  0.17208279553E+03 0.  0.
        -24    2    5    5    0    0 -0.38104349142E+02 -0.52164916060E+02  0.75640241663E+02  0.12798260620E+03  0.80529382466E+02 0.  0.
          5    1    3    3  501    0  0.77362683476E+02  0.34232161094E+02 -0.12674921832E+03  0.15246074902E+03  0.47000000000E+01 0. -1.
        -13    1    4    4    0    0  0.33766831040E+01 -0.71885708817E+02 -0.47959756546E+02  0.86481763216E+02  0.00000000000E+00 0.  1.
         14    1    4    4    0    0 -0.93381285952E+01  0.21288744699E+02 -0.35187264539E+02  0.42172916455E+02  0.00000000000E+00 0. -1.
         -5    1    5    5    0  502 -0.33296888842E+02  0.68529719085E+02  0.75432091497E+01  0.76707204412E+02  0.47000000000E+01 0.  1.
         13    1    6    6    0    0 -0.29674046663E+02  0.15689798095E+02  0.15715620704E+02  0.37063452939E+02  0.00000000000E+00 0. -1.
        -14    1    6    6    0    0 -0.84303024791E+01 -0.67854714156E+02  0.59924620959E+02  0.90919153263E+02  0.00000000000E+00 0.  1.
<mgrwt>
<rscale>  2 0.18701922E+03</rscale>
<asrwt>0</asrwt>
<pdfrwt beam="1">  1       21 0.27622496E-01 0.18702522E+03</pdfrwt>
<pdfrwt beam="2">  1       21 0.47116771E-01 0.18702522E+03</pdfrwt>
<totfact> 0.54051552E+04</totfact>
</mgrwt>
</event>
<event>
12    1  0.1071811E-001  0.2116912E+03  0.7546771E-02  0.1140338E+00
         21   -1    0    0  503  502  0.00000000000E+00  0.00000000000E+00  0.33793528493E+03  0.33793528493E+03  0.00000000000E+00 0. -1.
         21   -1    0    0  501  503 -0.00000000000E+00 -0.00000000000E+00 -0.17258687788E+03  0.17258687788E+03  0.00000000000E+00 0. -1.
          6    2    1    2  501    0 -0.10566369024E+03  0.59762582465E+02 -0.40770141578E+02  0.21505981424E+03  0.17277771141E+03 0.  0.
         24    2    3    3    0    0 -0.21402512968E+02 -0.28401426786E+02 -0.73809404064E+01  0.88530105175E+02  0.80736563192E+02 0.  0.
         -6    2    1    2    0  502  0.10566369024E+03 -0.59762582465E+02  0.20611854863E+03  0.29546234856E+03  0.17342653094E+03 0.  0.
        -24    2    5    5    0    0  0.42547754713E+02 -0.68864226855E+02  0.45753530835E+02  0.12281968240E+03  0.80241483222E+02 0.  0.
          5    1    3    3  501    0 -0.84261177272E+02  0.88164009250E+02 -0.33389201172E+02  0.12652970907E+03  0.47000000000E+01 0. -1.
        -11    1    4    4    0    0  0.30634239476E+01 -0.33501185325E+02  0.28984338226E+02  0.44405020514E+02  0.00000000000E+00 0.  1.
         12    1    4    4    0    0 -0.24465936915E+02  0.50997585389E+01 -0.36365278632E+02  0.44125084661E+02  0.00000000000E+00 0. -1.
         -5    1    5    5    0  502  0.63115935527E+02  0.91016443906E+01  0.16036501779E+03  0.17264266616E+03  0.47000000000E+01 0.  1.
         13    1    6    6    0    0  0.59269759302E+02 -0.43709445853E+02  0.54218969757E+02  0.91450077671E+02  0.00000000000E+00 0. -1.
        -14    1    6    6    0    0 -0.16722004589E+02 -0.25154781002E+02 -0.84654389223E+01  0.31369604729E+02  0.00000000000E+00 0.  1.
<mgrwt>
<rscale>  2 0.21155822E+03</rscale>
<asrwt>0</asrwt>
<pdfrwt beam="1">  1       21 0.51990044E-01 0.21169115E+03</pdfrwt>
<pdfrwt beam="2">  1       21 0.26551827E-01 0.21169115E+03</pdfrwt>
<totfact> 0.46957320E+04</totfact>
</mgrwt>
</event>
<event>
12    1  0.1071811E-001  0.3225489E+03  0.7546771E-02  0.1075442E+00
         21   -1    0    0  503  502  0.00000000000E+00  0.00000000000E+00  0.27269895028E+03  0.27269895028E+03  0.00000000000E+00 0.  1.
         21   -1    0    0  501  503 -0.00000000000E+00 -0.00000000000E+00 -0.41876942360E+03  0.41876942360E+03  0.00000000000E+00 0. -1.
          6    2    1    2  501    0  0.23892178562E+03  0.13041356985E+03 -0.18973111875E+03  0.37421345032E+03  0.17305054214E+03 0.  0.
         24    2    3    3    0    0  0.45015741852E+02  0.66053060527E+02 -0.99391485431E+02  0.15077404395E+03  0.80403489569E+02 0.  0.
         -6    2    1    2    0  502 -0.23892178562E+03 -0.13041356985E+03  0.43660645432E+02  0.31725492357E+03  0.15701310686E+03 0.  0.
        -24    2    5    5    0    0 -0.11294068851E+03 -0.10139675869E+03 -0.20019553787E+02  0.17306591590E+03  0.80710141373E+02 0.  0.
          5    1    3    3  501    0  0.19390604376E+03  0.64360509319E+02 -0.90339633315E+02  0.22343940636E+03  0.47000000000E+01 0. -1.
        -13    1    4    4    0    0  0.51179405933E+02  0.46910655957E+01 -0.50764043942E+02  0.72237980630E+02  0.00000000000E+00 0.  1.
         14    1    4    4    0    0 -0.61636640815E+01  0.61361994931E+02 -0.48627441489E+02  0.78536063325E+02  0.00000000000E+00 0. -1.
         -5    1    5    5    0  502 -0.12598109711E+03 -0.29016811160E+02  0.63680199219E+02  0.14418900766E+03  0.47000000000E+01 0.  1.
         11    1    6    6    0    0 -0.45481880120E+02 -0.40699123494E+00 -0.24249575287E+02  0.51544242770E+02  0.00000000000E+00 0. -1.
        -12    1    6    6    0    0 -0.67458808390E+02 -0.10098976745E+03  0.42300215007E+01  0.12152167313E+03  0.00000000000E+00 0.  1.
<mgrwt>
<rscale>  2 0.32045037E+03</rscale>
<asrwt>0</asrwt>
<pdfrwt beam="1">  1       21 0.41953685E-01 0.32254892E+03</pdfrwt>
<pdfrwt beam="2">  1       21 0.64426065E-01 0.32254892E+03</pdfrwt>
<totfact> 0.11345532E+04</totfact>
</mgrwt>
</event>
<event>
12    1  0.1071811E-001  0.2024504E+03  0.7546771E-02  0.1147801E+00
         21   -1    0    0  503  502  0.00000000000E+00  0.00000000000E+00  0.90152923612E+03  0.90152923612E+03  0.00000000000E+00 0.  1.
         21   -1    0    0  501  503 -0.00000000000E+00 -0.00000000000E+00 -0.10671028331E+03  0.10671028331E+03  0.00000000000E+00 0.  1.
          6    2    1    2  501    0  0.62993978157E+02  0.82671835601E+02  0.15334207802E+02  0.20303027904E+03  0.17373336638E+03 0.  0.
         24    2    3    3    0    0  0.10276623678E+03  0.40674329559E+02  0.28326077794E+02  0.14356178523E+03  0.87133914116E+02 0.  0.
         -6    2    1    2    0  502 -0.62993978157E+02 -0.82671835601E+02  0.77948474501E+03  0.80520924040E+03  0.17309702318E+03 0.  0.
        -24    2    5    5    0    0 -0.67531896431E+02  0.65237833219E+01  0.33570427655E+03  0.35250663899E+03  0.83429326091E+02 0.  0.
          5    1    3    3  501    0 -0.39772258623E+02  0.41997506042E+02 -0.12991869992E+02  0.59468493806E+02  0.47000000000E+01 0. -1.
        -11    1    4    4    0    0  0.48598050715E+02  0.61686987821E+02  0.33192748203E+02  0.85257337121E+02  0.00000000000E+00 0.  1.
         12    1    4    4    0    0  0.54168186065E+02 -0.21012658262E+02 -0.48666704087E+01  0.58304448112E+02  0.00000000000E+00 0. -1.
         -5    1    5    5    0  502  0.45379182740E+01 -0.89195618923E+02  0.44378046846E+03  0.45270260141E+03  0.47000000000E+01 0.  1.
         11    1    6    6    0    0 -0.17879056517E+02  0.26950470527E+02  0.24482841000E+03  0.24695533780E+03  0.00000000000E+00 0. -1.
        -12    1    6    6    0    0 -0.49652839914E+02 -0.20426687206E+02  0.90875866550E+02  0.10555130119E+03  0.00000000000E+00 0.  1.
<mgrwt>
<rscale>  2 0.20231379E+03</rscale>
<asrwt>0</asrwt>
<pdfrwt beam="1">  1       21 0.13869680E+00 0.20245038E+03</pdfrwt>
<pdfrwt beam="2">  1       21 0.16416967E-01 0.20245038E+03</pdfrwt>
<totfact> 0.12107613E+04</totfact>
</mgrwt>
</event>
<event>
12    1  0.1071811E-001  0.2067834E+03  0.7546771E-02  0.1144304E+00
         21   -1    0    0  503  502  0.00000000000E+00  0.00000000000E+00  0.59028903563E+03  0.59028903563E+03  0.00000000000E+00 0. -1.
         21   -1    0    0  501  503 -0.00000000000E+00 -0.00000000000E+00 -0.74244462692E+02  0.74244462692E+02  0.00000000000E+00 0. -1.
          6    2    1    2  501    0  0.31748224815E+02 -0.10649687796E+03  0.20274164288E+03  0.28959203405E+03  0.17438416680E+03 0.  0.
         24    2    3    3    0    0  0.65535910026E+02 -0.84501925933E+02  0.20967636472E+03  0.24841478361E+03  0.79436740888E+02 0.  0.
         -6    2    1    2    0  502 -0.31748224815E+02  0.10649687796E+03  0.31330293006E+03  0.37494146427E+03  0.17341522671E+03 0.  0.
        -24    2    5    5    0    0 -0.62370672873E+02  0.66358076040E+01  0.15971721223E+03  0.18914418114E+03  0.79572599560E+02 0.  0.
          5    1    3    3  501    0 -0.33787685211E+02 -0.21994952028E+02 -0.69347218434E+01  0.41177250438E+02  0.47000000000E+01 0. -1.
        -13    1    4    4    0    0 -0.84877466808E+01 -0.85029612664E+01  0.79873086265E+02  0.80771604561E+02  0.00000000000E+00 0.  1.
         14    1    4    4    0    0  0.74023656707E+02 -0.75998964667E+02  0.12980327846E+03  0.16764317905E+03  0.00000000000E+00 0. -1.
         -5    1    5    5    0  502  0.30622448058E+02  0.99861070358E+02  0.15358571783E+03  0.18579728313E+03  0.47000000000E+01 0.  1.
         11    1    6    6    0    0 -0.68814161225E+00  0.33035493443E+02  0.39757762588E+02  0.51696199589E+02  0.00000000000E+00 0. -1.
        -12    1    6    6    0    0 -0.61682531261E+02 -0.26399685839E+02  0.11995944964E+03  0.13744798156E+03  0.00000000000E+00 0.  1.
<mgrwt>
<rscale>  2 0.20657898E+03</rscale>
<asrwt>0</asrwt>
<pdfrwt beam="1">  1       21 0.90813695E-01 0.20678339E+03</pdfrwt>
<pdfrwt beam="2">  1       21 0.11422225E-01 0.20678339E+03</pdfrwt>
<totfact> 0.65501414E+04</totfact>
</mgrwt>
</event>
<event>
12    1  0.1071811E-001  0.1938855E+03  0.7546771E-02  0.1155252E+00
         21   -1    0    0  501  502  0.00000000000E+00  0.00000000000E+00  0.92825036061E+03  0.92825036061E+03  0.00000000000E+00 0. -1.
         21   -1    0    0  502  503 -0.00000000000E+00 -0.00000000000E+00 -0.11435208358E+03  0.11435208358E+03  0.00000000000E+00 0. -1.
         -6    2    1    2    0  503  0.90139714827E+01  0.88027359777E+02 -0.12243815292E+02  0.19427168762E+03  0.17251524526E+03 0.  0.
        -24    2    3    3    0    0 -0.18677194396E+02  0.39356265757E+02 -0.66334439721E+02  0.11627449721E+03  0.84980865870E+02 0.  0.
          6    2    1    2  501    0 -0.90139714827E+01 -0.88027359777E+02  0.82614209232E+03  0.84833075657E+03  0.17124324243E+03 0.  0.
         24    2    5    5    0    0  0.36284547962E+02 -0.29696652538E+02  0.24210637364E+03  0.25962519521E+03  0.81186736846E+02 0.  0.
          5    1    5    5  501    0 -0.45298519444E+02 -0.58330707238E+02  0.58403571869E+03  0.58870556136E+03  0.47000000000E+01 0. -1.
        -13    1    6    6    0    0 -0.15259318986E+02  0.10077857728E+02  0.11867448625E+03  0.12007515863E+03  0.00000000000E+00 0.  1.
         14    1    6    6    0    0  0.51543866948E+02 -0.39774510266E+02  0.12343188739E+03  0.13955003659E+03  0.00000000000E+00 0. -1.
         -5    1    3    3    0  503  0.27691165878E+02  0.48671094019E+02  0.54090624429E+02  0.77997190410E+02  0.47000000000E+01 0.  1.
         13    1    4    4    0    0  0.12674377894E+02  0.57588203363E+02 -0.45211374797E+02  0.74304168340E+02  0.00000000000E+00 0. -1.
        -14    1    4    4    0    0 -0.31351572290E+02 -0.18231937606E+02 -0.21123064924E+02  0.41970328873E+02  0.00000000000E+00 0.  1.
<mgrwt>
<rscale>  2 0.19360212E+03</rscale>
<asrwt>0</asrwt>
<pdfrwt beam="1">  1       21 0.14280774E+00 0.19388548E+03</pdfrwt>
<pdfrwt beam="2">  1       21 0.17592629E-01 0.19388548E+03</pdfrwt>
<totfact> 0.99458164E+03</totfact>
</mgrwt>
</event>
<event>
12    1  0.1071811E-001  0.2358645E+03  0.7546771E-02  0.1122628E+00
         21   -1    0    0  503  502  0.00000000000E+00  0.00000000000E+00  0.67696432898E+02  0.67696432898E+02  0.00000000000E+00 0.  1.
         21   -1    0    0  501  503 -0.00000000000E+00 -0.00000000000E+00 -0.86059549103E+03  0.86059549103E+03  0.00000000000E+00 0.  1.
          6    2    1    2  501    0  0.12715518214E+03  0.97236295863E+02 -0.29638766227E+03  0.37860507206E+03  0.17283754415E+03 0.  0.
         24    2    3    3    0    0  0.80695510482E+02  0.12667921534E+03 -0.26614703246E+03  0.31566087226E+03  0.79045267879E+02 0.  0.
         -6    2    1    2    0  502 -0.12715518214E+03 -0.97236295863E+02 -0.49651139586E+03  0.54968685187E+03  0.17323028407E+03 0.  0.
        -24    2    5    5    0    0 -0.21010951284E+02 -0.63361629797E+02 -0.13280061757E+03  0.16926378344E+03  0.80981900161E+02 0.  0.
          5    1    3    3  501    0  0.46459671654E+02 -0.29442919478E+02 -0.30240629802E+02  0.62944199799E+02  0.47000000000E+01 0. -1.
        -11    1    4    4    0    0  0.90991102192E+02  0.10965954711E+03 -0.25679527747E+03  0.29368079862E+03  0.00000000000E+00 0.  1.
         12    1    4    4    0    0 -0.10295591710E+02  0.17019668235E+02 -0.93517549932E+01  0.21980073633E+02  0.00000000000E+00 0. -1.
         -5    1    5    5    0  502 -0.10614423085E+03 -0.33874666067E+02 -0.36371077829E+03  0.38042306843E+03  0.47000000000E+01 0.  1.
         11    1    6    6    0    0 -0.23945000869E+01 -0.36778935665E+02 -0.13173425037E+03  0.13679304244E+03  0.00000000000E+00 0. -1.
        -12    1    6    6    0    0 -0.18616451197E+02 -0.26582694132E+02 -0.10663672041E+01  0.32470741006E+02  0.00000000000E+00 0.  1.
<mgrwt>
<rscale>  2 0.23579241E+03</rscale>
<asrwt>0</asrwt>
<pdfrwt beam="1">  1       21 0.10414836E-01 0.23586451E+03</pdfrwt>
<pdfrwt beam="2">  1       21 0.13239931E+00 0.23586451E+03</pdfrwt>
<totfact> 0.30414184E+04</totfact>
</mgrwt>
</event>
<event>
12    1  0.1071811E-001  0.2048185E+03  0.7546771E-02  0.1145832E+00
         21   -1    0    0  503  502  0.00000000000E+00  0.00000000000E+00  0.81142930382E+03  0.81142930382E+03  0.00000000000E+00 0.  1.
         21   -1    0    0  501  503 -0.00000000000E+00 -0.00000000000E+00 -0.52502831831E+02  0.52502831831E+02  0.00000000000E+00 0.  1.
          6    2    1    2  501    0  0.10642010859E+03  0.22978428030E+02  0.32180229964E+03  0.38120223645E+03  0.17293113472E+03 0.  0.
         24    2    3    3    0    0  0.11139961508E+03  0.20930197042E+02  0.13550991050E+03  0.19477279944E+03  0.82009512664E+02 0.  0.
         -6    2    1    2    0  502 -0.10642010859E+03 -0.22978428030E+02  0.43712417235E+03  0.48272989920E+03  0.17348592410E+03 0.  0.
        -24    2    5    5    0    0 -0.93387500250E+02 -0.36427773226E+02  0.16213381581E+03  0.20706249098E+03  0.80865895630E+02 0.  0.
          5    1    3    3  501    0 -0.49795064894E+01  0.20482309882E+01  0.18629238914E+03  0.18642943702E+03  0.47000000000E+01 0. -1.
        -11    1    4    4    0    0  0.70200291145E+02  0.48838430180E+02  0.60488309128E+02  0.10474783377E+03  0.00000000000E+00 0.  1.
         12    1    4    4    0    0  0.41199323938E+02 -0.27908233138E+02  0.75021601373E+02  0.90024965662E+02  0.00000000000E+00 0. -1.
         -5    1    5    5    0  502 -0.13032608343E+02  0.13449345196E+02  0.27499035654E+03  0.27566740822E+03  0.47000000000E+01 0.  1.
         11    1    6    6    0    0 -0.31451955879E+01 -0.37455664112E+02  0.59661944934E+02  0.70515010478E+02  0.00000000000E+00 0. -1.
        -12    1    6    6    0    0 -0.90242304662E+02  0.10278908864E+01  0.10247187088E+03  0.13654748050E+03  0.00000000000E+00 0.  1.
<mgrwt>
<rscale>  2 0.20470096E+03</rscale>
<asrwt>0</asrwt>
<pdfrwt beam="1">  1       21 0.12483527E+00 0.20481849E+03</pdfrwt>
<pdfrwt beam="2">  1       21 0.80773593E-02 0.20481849E+03</pdfrwt>
<totfact> 0.56121089E+04</totfact>
</mgrwt>
</event>
<event>
12    1  0.1071811E-001  0.4268120E+03  0.7546771E-02  0.1034897E+00
         21   -1    0    0  503  502  0.00000000000E+00  0.00000000000E+00  0.58051698003E+03  0.58051698003E+03  0.00000000000E+00 0.  1.
         21   -1    0    0  501  503 -0.00000000000E+00 -0.00000000000E+00 -0.31993028868E+03  0.31993028868E+03  0.00000000000E+00 0. -1.
          6    2    1    2  501    0 -0.16348438528E+03 -0.35371440552E+03  0.66855085902E+02  0.43201632206E+03  0.17414785416E+03 0.  0.
         24    2    3    3    0    0 -0.83286261446E+02 -0.28838570550E+03  0.41635473427E+01  0.31097130101E+03  0.81135062980E+02 0.  0.
         -6    2    1    2    0  502  0.16348438528E+03  0.35371440552E+03  0.19373160545E+03  0.46843094664E+03  0.17336260242E+03 0.  0.
        -24    2    5    5    0    0  0.16058296600E+03  0.28930209919E+03  0.10272999318E+03  0.35680323110E+03  0.85278957907E+02 0.  0.
          5    1    3    3  501    0 -0.80198123833E+02 -0.65328700024E+02  0.62691538559E+02  0.12104502105E+03  0.47000000000E+01 0. -1.
        -13    1    4    4    0    0  0.84819484158E+01 -0.10758637009E+03 -0.46957424437E+01  0.10802231471E+03  0.00000000000E+00 0.  1.
         14    1    4    4    0    0 -0.91768209862E+02 -0.18079933541E+03  0.88592897864E+01  0.20294898630E+03  0.00000000000E+00 0. -1.
         -5    1    5    5    0  502  0.29014192812E+01  0.64412306334E+02  0.91001612269E+02  0.11162771554E+03  0.47000000000E+01 0.  1.
         13    1    6    6    0    0  0.83042645800E+01 -0.27257407364E+01  0.12621877914E+02  0.15352598309E+02  0.00000000000E+00 0. -1.
        -14    1    6    6    0    0  0.15227870142E+03  0.29202783993E+03  0.90108115265E+02  0.34145063279E+03  0.00000000000E+00 0.  1.
<mgrwt>
<rscale>  2 0.42673205E+03</rscale>
<asrwt>0</asrwt>
<pdfrwt beam="1">  1       21 0.89310304E-01 0.42681202E+03</pdfrwt>
<pdfrwt beam="2">  1       21 0.49220045E-01 0.42681202E+03</pdfrwt>
<totfact> 0.37096622E+03</totfact>
</mgrwt>
</event>
<event>
12    1  0.1071811E-001  0.1742901E+03  0.7546771E-02  0.1173933E+00
         21   -1    0    0  503  502  0.00000000000E+00  0.00000000000E+00  0.45473656841E+03  0.45473656841E+03  0.00000000000E+00 0. -1.
         21   -1    0    0  501  503 -0.00000000000E+00 -0.00000000000E+00 -0.21323988102E+03  0.21323988102E+03  0.00000000000E+00 0. -1.
          6    2    1    2  501    0 -0.21527549407E+02 -0.12956316751E+02 -0.15650853859E+03  0.23424764757E+03  0.17246952256E+03 0.  0.
         24    2    3    3    0    0  0.17063898934E+01 -0.72545898702E+02 -0.84234870741E+02  0.13762307887E+03  0.81109673920E+02 0.  0.
         -6    2    1    2    0  502  0.21527549407E+02  0.12956316751E+02  0.39800522598E+03  0.43372880186E+03  0.17053214396E+03 0.  0.
        -24    2    5    5    0    0  0.43711919155E+02 -0.40021961950E+02  0.15896574101E+03  0.18784100296E+03  0.80632786511E+02 0.  0.
          5    1    3    3  501    0 -0.23233939301E+02  0.59589581951E+02 -0.72273667850E+02  0.96624568703E+02  0.47000000000E+01 0. -1.
        -11    1    4    4    0    0 -0.31867495339E-01 -0.29563568824E+02  0.12236038036E+02  0.31995722276E+02  0.00000000000E+00 0.  1.
         12    1    4    4    0    0  0.17382573888E+01 -0.42982329878E+02 -0.96470908776E+02  0.10562735659E+03  0.00000000000E+00 0. -1.
         -5    1    5    5    0  502 -0.22184369747E+02  0.52978278701E+02  0.23903948497E+03  0.24588779890E+03  0.47000000000E+01 0.  1.
         11    1    6    6    0    0  0.50242977959E+02  0.52212337428E+01  0.10890451941E+03  0.12004920851E+03  0.00000000000E+00 0. -1.
        -12    1    6    6    0    0 -0.65310588039E+01 -0.45243195693E+02  0.50061221604E+02  0.67791794445E+02  0.00000000000E+00 0.  1.
<mgrwt>
<rscale>  2 0.17380888E+03</rscale>
<asrwt>0</asrwt>
<pdfrwt beam="1">  1       21 0.69959472E-01 0.17429010E+03</pdfrwt>
<pdfrwt beam="2">  1       21 0.32806136E-01 0.17429010E+03</pdfrwt>
<totfact> 0.16787253E+04</totfact>
</mgrwt>
</event>
<event>
12    1  0.1071811E-001  0.1983133E+03  0.7546771E-02  0.1153184E+00
         21   -1    0    0  501  502  0.00000000000E+00  0.00000000000E+00  0.39744436460E+02  0.39744436460E+02  0.00000000000E+00 0. -1.
         21   -1    0    0  502  503 -0.00000000000E+00 -0.00000000000E+00 -0.22148359050E+04  0.22148359050E+04  0.00000000000E+00 0. -1.
         -6    2    1    2    0  503  0.74397134982E+02  0.18922950789E+02 -0.19523278240E+04  0.19623740975E+04  0.18285282151E+03 0.  0.
        -24    2    3    3    0    0  0.62331460115E+02 -0.79620669298E+01 -0.18941637031E+04  0.18970017819E+04  0.82528909280E+02 0.  0.
          6    2    1    2  501    0 -0.74397134982E+02 -0.18922950789E+02 -0.22276364450E+03  0.29220624394E+03  0.17282313481E+03 0.  0.
         24    2    5    5    0    0 -0.43292620980E+02 -0.79904157567E+02 -0.14732541918E+03  0.19022970639E+03  0.78890028706E+02 0.  0.
          5    1    5    5  501    0 -0.31104514003E+02  0.60981206777E+02 -0.75438225325E+02  0.10197653755E+03  0.47000000000E+01 0. -1.
        -11    1    6    6    0    0 -0.15183809782E+02  0.31915030914E+01 -0.74851860132E+02  0.76443016271E+02  0.00000000000E+00 0.  1.
         12    1    6    6    0    0 -0.28108811198E+02 -0.83095660658E+02 -0.72473559044E+02  0.11378669012E+03  0.00000000000E+00 0. -1.
         -5    1    3    3    0  503  0.12065674868E+02  0.26885017719E+02 -0.58164120924E+02  0.65372315629E+02  0.47000000000E+01 0.  1.
         11    1    4    4    0    0  0.39424670369E+02  0.23994834283E+02 -0.46223687564E+03  0.46453523645E+03  0.00000000000E+00 0. -1.
        -12    1    4    4    0    0  0.22906789746E+02 -0.31956901213E+02 -0.14319268275E+04  0.14324665454E+04  0.00000000000E+00 0.  1.
<mgrwt>
<rscale>  2 0.19597012E+03</rscale>
<asrwt>0</asrwt>
<pdfrwt beam="1">  1       21 0.61145284E-02 0.19831330E+03</pdfrwt>
<pdfrwt beam="2">  1       21 0.34074400E+00 0.19831330E+03</pdfrwt>
<totfact> 0.37567854E+03</totfact>
</mgrwt>
</event>
<event>
12    1  0.1071811E-001  0.1791403E+03  0.7546771E-02  0.1168783E+00
         21   -1    0    0  503  502  0.00000000000E+00  0.00000000000E+00  0.10369782431E+03  0.10369782431E+03  0.00000000000E+00 0. -1.
         21   -1    0    0  501  503 -0.00000000000E+00 -0.00000000000E+00 -0.31448655781E+03  0.31448655781E+03  0.00000000000E+00 0. -1.
          6    2    1    2  501    0  0.38001630351E+02  0.34111295892E+02 -0.13421344584E+03  0.22336393727E+03  0.17108622099E+03 0.  0.
         24    2    3    3    0    0  0.46485442676E+02 -0.14816232245E+01 -0.15326604162E+02  0.98885015009E+02  0.85908380325E+02 0.  0.
         -6    2    1    2    0  502 -0.38001630351E+02 -0.34111295892E+02 -0.76575287658E+02  0.19482044485E+03  0.17170767786E+03 0.  0.
        -24    2    5    5    0    0  0.33335212139E+02  0.18223644329E+02 -0.48991428308E+02  0.10202577711E+03  0.81029387057E+02 0.  0.
          5    1    3    3  501    0 -0.84838123249E+01  0.35592919117E+02 -0.11888684168E+03  0.12447892226E+03  0.47000000000E+01 0. -1.
        -11    1    4    4    0    0  0.65981306594E+02 -0.21736024737E+02 -0.87992217280E+01  0.70024380713E+02  0.00000000000E+00 0.  1.
         12    1    4    4    0    0 -0.19495863918E+02  0.20254401513E+02 -0.65273824344E+01  0.28860634296E+02  0.00000000000E+00 0. -1.
         -5    1    5    5    0  502 -0.71336842490E+02 -0.52334940221E+02 -0.27583859351E+02  0.92794667741E+02  0.47000000000E+01 0.  1.
         13    1    6    6    0    0  0.21612492747E+02 -0.31609472015E+02 -0.21657936129E+02  0.43992326162E+02  0.00000000000E+00 0. -1.
        -14    1    6    6    0    0  0.11722719393E+02  0.49833116344E+02 -0.27333492178E+02  0.58033450950E+02  0.00000000000E+00 0.  1.
<mgrwt>
<rscale>  2 0.17899117E+03</rscale>
<asrwt>0</asrwt>
<pdfrwt beam="1">  1       21 0.15953512E-01 0.17914026E+03</pdfrwt>
<pdfrwt beam="2">  1       21 0.48382547E-01 0.17914026E+03</pdfrwt>
<totfact> 0.14366945E+05</totfact>
</mgrwt>
</event>
<event>
12    1  0.1071811E-001  0.2304561E+03  0.7546771E-02  0.1126860E+00
         21   -1    0    0  503  502  0.00000000000E+00  0.00000000000E+00  0.12361717134E+04  0.12361717134E+04  0.00000000000E+00 0. -1.
         21   -1    0    0  501  503 -0.00000000000E+00 -0.00000000000E+00 -0.10625627066E+03  0.10625627066E+03  0.00000000000E+00 0.  1.
          6    2    1    2  501    0 -0.75546479256E+02  0.12762928252E+03  0.46109498817E+02  0.23502357854E+03  0.17639017065E+03 0.  0.
         24    2    3    3    0    0 -0.27584390952E+02  0.14574780748E+03  0.42921401499E+01  0.16869542202E+03  0.80227183264E+02 0.  0.
         -6    2    1    2    0  502  0.75546479256E+02 -0.12762928252E+03  0.10838059439E+04  0.11074044055E+04  0.17237369000E+03 0.  0.
        -24    2    5    5    0    0  0.78116108200E+02 -0.82944729051E+02  0.10188272984E+04  0.10283624756E+04  0.80860143659E+02 0.  0.
          5    1    3    3  501    0 -0.47962088304E+02 -0.18118524954E+02  0.41817358667E+02  0.66328156517E+02  0.47000000000E+01 0. -1.
        -11    1    4    4    0    0 -0.52737682180E+02  0.10792027512E+03 -0.11347445588E+02  0.12065162007E+03  0.00000000000E+00 0.  1.
         12    1    4    4    0    0  0.25153291228E+02  0.37827532360E+02  0.15639585738E+02  0.48043801953E+02  0.00000000000E+00 0. -1.
         -5    1    5    5    0  502 -0.25696289443E+01 -0.44684553473E+02  0.64978645561E+02  0.79041929955E+02  0.47000000000E+01 0.  1.
         13    1    6    6    0    0  0.18521718285E+02 -0.71304552858E+02  0.69481270325E+03  0.69870743943E+03  0.00000000000E+00 0. -1.
        -14    1    6    6    0    0  0.59594389915E+02 -0.11640176193E+02  0.32401459513E+03  0.32965503616E+03  0.00000000000E+00 0.  1.
<mgrwt>
<rscale>  2 0.22968735E+03</rscale>
<asrwt>0</asrwt>
<pdfrwt beam="1">  1       21 0.19018025E+00 0.23045606E+03</pdfrwt>
<pdfrwt beam="2">  1       21 0.16347119E-01 0.23045606E+03</pdfrwt>
<totfact> 0.50492871E+03</totfact>
</mgrwt>
</event>
<event>
12    1  0.1071811E-001  0.2195786E+03  0.7546771E-02  0.1134582E+00
         21   -1    0    0  503  502  0.00000000000E+00  0.00000000000E+00  0.21496166597E+03  0.21496166597E+03  0.00000000000E+00 0. -1.
         21   -1    0    0  501  503 -0.00000000000E+00 -0.00000000000E+00 -0.24571072129E+03  0.24571072129E+03  0.00000000000E+00 0. -1.
          6    2    1    2  501    0 -0.30989970677E+02  0.12765596828E+03 -0.86542217771E+02  0.23411639507E+03  0.17339119489E+03 0.  0.
         24    2    3    3    0    0 -0.61261755832E+01  0.30709356293E+02 -0.96397871984E+02  0.13343830509E+03  0.86790765363E+02 0.  0.
         -6    2    1    2    0  502  0.30989970677E+02 -0.12765596828E+03  0.55793162456E+02  0.22655599218E+03  0.17594975447E+03 0.  0.
        -24    2    5    5    0    0 -0.48186610437E+02 -0.57397445662E+02  0.87808360989E+01  0.11063602054E+03  0.80912358536E+02 0.  0.
          5    1    3    3  501    0 -0.24863795094E+02  0.96946611984E+02  0.98556542131E+01  0.10067808998E+03  0.47000000000E+01 0. -1.
        -13    1    4    4    0    0  0.12232457840E+02  0.30263178456E+02  0.26059309325E+01  0.32745745847E+02  0.00000000000E+00 0.  1.
         14    1    4    4    0    0 -0.18358633423E+02  0.44617783649E+00 -0.99003802916E+02  0.10069255925E+03  0.00000000000E+00 0. -1.
         -5    1    5    5    0  502  0.79176581115E+02 -0.70258522615E+02  0.47012326357E+02  0.11591997165E+03  0.47000000000E+01 0.  1.
         13    1    6    6    0    0 -0.63654029472E+01 -0.23687911714E+02 -0.34029300238E+02  0.41947929517E+02  0.00000000000E+00 0. -1.
        -14    1    6    6    0    0 -0.41821207490E+02 -0.33709533948E+02  0.42810136337E+02  0.68688091021E+02  0.00000000000E+00 0.  1.
<mgrwt>
<rscale>  2 0.21906556E+03</rscale>
<asrwt>0</asrwt>
<pdfrwt beam="1">  1       21 0.33071026E-01 0.21957855E+03</pdfrwt>
<pdfrwt beam="2">  1       21 0.37801649E-01 0.21957855E+03</pdfrwt>
<totfact> 0.58690567E+04</totfact>
</mgrwt>
</event>
<event>
12    1  0.1071811E-001  0.2446285E+03  0.7546771E-02  0.1116804E+00
         21   -1    0    0  501  502  0.00000000000E+00  0.00000000000E+00  0.14942347119E+03  0.14942347119E+03  0.00000000000E+00 0. -1.
         21   -1    0    0  502  503 -0.00000000000E+00 -0.00000000000E+00 -0.86876290091E+03  0.86876290091E+03  0.00000000000E+00 0. -1.
         -6    2    1    2    0  503  0.12942528968E+03 -0.11402840275E+03 -0.73354097969E+03  0.77314599853E+03  0.17297104937E+03 0.  0.
        -24    2    3    3    0    0  0.32249589284E+02 -0.27879881570E+02 -0.14378335240E+03  0.16924134265E+03  0.78432492179E+02 0.  0.
          6    2    1    2  501    0 -0.12942528968E+03  0.11402840275E+03  0.14201549964E+02  0.24504037356E+03  0.17346388215E+03 0.  0.
         24    2    5    5    0    0 -0.59360501949E+02  0.10089867876E+03 -0.48965828758E+02  0.14967962762E+03  0.79385930563E+02 0.  0.
          5    1    5    5  501    0 -0.70064787736E+02  0.13129723989E+02  0.63167378722E+02  0.95360745945E+02  0.47000000000E+01 0. -1.
        -11    1    6    6    0    0  0.10143985757E+01  0.18198188317E+02 -0.43472253744E+02  0.47138518306E+02  0.00000000000E+00 0.  1.
         12    1    6    6    0    0 -0.60374900525E+02  0.82700490443E+02 -0.54935750139E+01  0.10254110931E+03  0.00000000000E+00 0. -1.
         -5    1    3    3    0  503  0.97175700401E+02 -0.86148521179E+02 -0.58975762729E+03  0.60390465588E+03  0.47000000000E+01 0.  1.
         11    1    4    4    0    0  0.27019198223E+02 -0.51340787839E+02 -0.66224554105E+02  0.88043200390E+02  0.00000000000E+00 0. -1.
        -12    1    4    4    0    0  0.52303910606E+01  0.23460906269E+02 -0.77558798291E+02  0.81198142257E+02  0.00000000000E+00 0.  1.
<mgrwt>
<rscale>  2 0.24454114E+03</rscale>
<asrwt>0</asrwt>
<pdfrwt beam="1">  1       21 0.22988227E-01 0.24462850E+03</pdfrwt>
<pdfrwt beam="2">  1       21 0.13365583E+00 0.24462850E+03</pdfrwt>
<totfact> 0.68981583E+03</totfact>
</mgrwt>
</event>
<event>
12    1  0.1071811E-001  0.1907045E+03  0.7546771E-02  0.1157883E+00
         21   -1    0    0  501  502  0.00000000000E+00  0.00000000000E+00  0.44437524109E+03  0.44437524109E+03  0.00000000000E+00 0. -1.
         21   -1    0    0  502  503 -0.00000000000E+00 -0.00000000000E+00 -0.88951370964E+02  0.88951370964E+02  0.00000000000E+00 0. -1.
         -6    2    1    2    0  503 -0.44748588691E+02 -0.65982122430E+02  0.10186853377E+03  0.21620689794E+03  0.17324014510E+03 0.  0.
        -24    2    3    3    0    0  0.70610813234E+01 -0.98943247971E+02  0.59138236869E+02  0.14124927006E+03  0.81328961901E+02 0.  0.
          6    2    1    2  501    0  0.44748588691E+02  0.65982122430E+02  0.25355533636E+03  0.31711971412E+03  0.17296973093E+03 0.  0.
         24    2    5    5    0    0  0.65598493627E+02 -0.16612534151E+02  0.15216279471E+03  0.18460883407E+03  0.79672874072E+02 0.  0.
          5    1    5    5  501    0 -0.20849904935E+02  0.82594656581E+02  0.10139254164E+03  0.13251088005E+03  0.47000000000E+01 0. -1.
        -13    1    6    6    0    0  0.71076808737E+02 -0.26169668952E+02  0.15561156628E+03  0.17306566347E+03  0.00000000000E+00 0.  1.
         14    1    6    6    0    0 -0.54783151101E+01  0.95571348010E+01 -0.34487715649E+01  0.11543170594E+02  0.00000000000E+00 0. -1.
         -5    1    3    3    0  503 -0.51809670015E+02  0.32961125541E+02  0.42730296906E+02  0.74957627881E+02  0.47000000000E+01 0.  1.
         11    1    4    4    0    0  0.43611681242E+02 -0.44866111860E+02  0.34744368450E+02  0.71568972839E+02  0.00000000000E+00 0. -1.
        -12    1    4    4    0    0 -0.36550599918E+02 -0.54077136110E+02  0.24393868419E+02  0.69680297220E+02  0.00000000000E+00 0.  1.
<mgrwt>
<rscale>  2 0.19064311E+03</rscale>
<asrwt>0</asrwt>
<pdfrwt beam="1">  1       21 0.68365420E-01 0.19070455E+03</pdfrwt>
<pdfrwt beam="2">  1       21 0.13684827E-01 0.19070455E+03</pdfrwt>
<totfact> 0.90507762E+04</totfact>
</mgrwt>
</event>
<event>
12    1  0.1071811E-001  0.2620295E+03  0.7546771E-02  0.1105987E+00
         21   -1    0    0  501  502  0.00000000000E+00  0.00000000000E+00  0.18015719878E+03  0.18015719878E+03  0.00000000000E+00 0.  1.
         21   -1    0    0  502  503 -0.00000000000E+00 -0.00000000000E+00 -0.49754321762E+03  0.49754321762E+03  0.00000000000E+00 0.  1.
         -6    2    1    2    0  503 -0.35290748033E+02 -0.19322728871E+03 -0.32291695019E+03  0.41561254703E+03  0.17284736194E+03 0.  0.
        -24    2    3    3    0    0 -0.32708238333E+02 -0.88732150155E+02 -0.27222046887E+03  0.29934506854E+03  0.80995450850E+02 0.  0.
          6    2    1    2  501    0  0.35290748033E+02  0.19322728871E+03  0.55309313534E+01  0.26208786936E+03  0.17342790452E+03 0.  0.
         24    2    5    5    0    0  0.58589434369E+02  0.21260792065E+03  0.47568233402E+01  0.23141007735E+03  0.69951031354E+02 0.  0.
          5    1    5    5  501    0 -0.23298686336E+02 -0.19380631942E+02  0.77410801317E+00  0.30677792011E+02  0.47000000000E+01 0. -1.
        -13    1    6    6    0    0  0.47240182326E+02  0.93148319834E+02  0.30248854107E+02  0.10873471152E+03  0.00000000000E+00 0.  1.
         14    1    6    6    0    0  0.11349252043E+02  0.11945960082E+03 -0.25492030767E+02  0.12267536583E+03  0.00000000000E+00 0. -1.
         -5    1    3    3    0  503 -0.25825096998E+01 -0.10449513855E+03 -0.50696481324E+02  0.11626747850E+03  0.47000000000E+01 0.  1.
         13    1    4    4    0    0 -0.31329987708E+02 -0.14730425657E+02 -0.16791940789E+03  0.17145110415E+03  0.00000000000E+00 0. -1.
        -14    1    4    4    0    0 -0.13782506256E+01 -0.74001724498E+02 -0.10430106098E+03  0.12789396438E+03  0.00000000000E+00 0.  1.
<mgrwt>
<rscale>  2 0.26193348E+03</rscale>
<asrwt>0</asrwt>
<pdfrwt beam="1">  1       21 0.27716492E-01 0.26202950E+03</pdfrwt>
<pdfrwt beam="2">  1       21 0.76545109E-01 0.26202950E+03</pdfrwt>
<totfact> 0.18171470E+04</totfact>
</mgrwt>
</event>
<event>
12    1  0.1071811E-001  0.1983655E+03  0.7546771E-02  0.1151150E+00
         21   -1    0    0  503  502  0.00000000000E+00  0.00000000000E+00  0.15651276097E+04  0.15651276097E+04  0.00000000000E+00 0. -1.
         21   -1    0    0  501  503 -0.00000000000E+00 -0.00000000000E+00 -0.25456623854E+02  0.25456623854E+02  0.00000000000E+00 0. -1.
          6    2    1    2  501    0 -0.87163999249E+02 -0.42760811762E+02  0.86062817369E+03  0.88319291494E+03  0.17298214318E+03 0.  0.
         24    2    3    3    0    0 -0.22305886173E+02  0.30849445722E+02  0.56112055772E+03  0.56799147639E+03  0.79427930204E+02 0.  0.
         -6    2    1    2    0  502  0.87163999249E+02  0.42760811762E+02  0.67904281218E+03  0.70739131864E+03  0.17285047622E+03 0.  0.
        -24    2    5    5    0    0 -0.23302539642E+02  0.39435912281E+02  0.27035076731E+03  0.28399411895E+03  0.73925115345E+02 0.  0.
          5    1    3    3  501    0 -0.64858113075E+02 -0.73610257483E+02  0.29950761597E+03  0.31520143855E+03  0.47000000000E+01 0. -1.
        -13    1    4    4    0    0 -0.44372420287E+02  0.41330415050E+02  0.45907268442E+03  0.46306030328E+03  0.00000000000E+00 0.  1.
         14    1    4    4    0    0  0.22066534114E+02 -0.10480969328E+02  0.10204787330E+03  0.10493117311E+03  0.00000000000E+00 0. -1.
         -5    1    5    5    0  502  0.11046653889E+03  0.33248994809E+01  0.40869204487E+03  0.42339719970E+03  0.47000000000E+01 0.  1.
         13    1    6    6    0    0  0.97325853623E+01  0.36596369465E+00  0.17920771608E+03  0.17947217793E+03  0.00000000000E+00 0. -1.
        -14    1    6    6    0    0 -0.33035125005E+02  0.39069948586E+02  0.91143051233E+02  0.10452194102E+03  0.00000000000E+00 0.  1.
<mgrwt>
<rscale>  2 0.19833679E+03</rscale>
<asrwt>0</asrwt>
<pdfrwt beam="1">  1       21 0.24078879E+00 0.19836550E+03</pdfrwt>
<pdfrwt beam="2">  1       21 0.39164049E-02 0.19836550E+03</pdfrwt>
<totfact> 0.30457926E+04</totfact>
</mgrwt>
</event>
<event>
12    1  0.1071811E-001  0.1864180E+03  0.7546771E-02  0.1162259E+00
         21   -1    0    0  501  502  0.00000000000E+00  0.00000000000E+00  0.83286446919E+02  0.83286446919E+02  0.00000000000E+00 0.  1.
         21   -1    0    0  502  503 -0.00000000000E+00 -0.00000000000E+00 -0.42053605611E+03  0.42053605611E+03  0.00000000000E+00 0.  1.
         -6    2    1    2    0  503  0.22721431560E+02  0.63352238966E+02 -0.20308275085E+03  0.27414352952E+03  0.17141266420E+03 0.  0.
        -24    2    3    3    0    0 -0.19358393774E+02 -0.84553356022E+01 -0.29071542829E+02  0.81195272249E+02  0.72809872432E+02 0.  0.
          6    2    1    2  501    0 -0.22721431560E+02 -0.63352238966E+02 -0.13416685834E+03  0.22967897351E+03  0.17384451490E+03 0.  0.
         24    2    5    5    0    0  0.45958846973E+02 -0.68914382664E+02 -0.10285634200E+03  0.15384786818E+03  0.78919780164E+02 0.  0.
          5    1    5    5  501    0 -0.68680278533E+02  0.55621436985E+01 -0.31310516331E+02  0.75831105325E+02  0.47000000000E+01 0. -1.
        -13    1    6    6    0    0  0.35458172861E+01 -0.11632437588E+02  0.13013681049E+02  0.17811297508E+02  0.00000000000E+00 0.  1.
         14    1    6    6    0    0  0.42413029687E+02 -0.57281945076E+02 -0.11587002305E+03  0.13603657068E+03  0.00000000000E+00 0. -1.
         -5    1    3    3    0  503  0.42079825334E+02  0.71807574568E+02 -0.17401120802E+03  0.19294825727E+03  0.47000000000E+01 0.  1.
         11    1    4    4    0    0 -0.40306992735E+02  0.24223777226E+00 -0.39315883979E+02  0.56306758702E+02  0.00000000000E+00 0. -1.
        -12    1    4    4    0    0  0.20948598961E+02 -0.86975733744E+01  0.10244341150E+02  0.24888513548E+02  0.00000000000E+00 0.  1.
<mgrwt>
<rscale>  2 0.18584900E+03</rscale>
<asrwt>0</asrwt>
<pdfrwt beam="1">  1       21 0.12813300E-01 0.18641804E+03</pdfrwt>
<pdfrwt beam="2">  1       21 0.64697855E-01 0.18641804E+03</pdfrwt>
<totfact> 0.11512743E+05</totfact>
</mgrwt>
</event>
<event>
12    1  0.1071811E-001  0.1892360E+03  0.7546771E-02  0.1159303E+00
         21   -1    0    0  501  502  0.00000000000E+00  0.00000000000E+00  0.29474539032E+03  0.29474539032E+03  0.00000000000E+00 0. -1.
         21   -1    0    0  502  503 -0.00000000000E+00 -0.00000000000E+00 -0.14473165978E+03  0.14473165978E+03  0.00000000000E+00 0. -1.
         -6    2    1    2    0  503 -0.61659060583E+02 -0.44583177351E+02  0.16374661927E+03  0.24974344112E+03  0.17253791353E+03 0.  0.
        -24    2    3    3    0    0 -0.30570980121E+02 -0.38275689326E+02  0.12649754510E+02  0.95281129557E+02  0.80739483164E+02 0.  0.
          6    2    1    2  501    0  0.61659060583E+02  0.44583177351E+02 -0.13732888731E+02  0.18973360898E+03  0.17326497248E+03 0.  0.
         24    2    5    5    0    0  0.91195611903E+02 -0.14884402919E+02 -0.45600118401E+01  0.12253961641E+03  0.80355328388E+02 0.  0.
          5    1    5    5  501    0 -0.29536551320E+02  0.59467580270E+02 -0.91728768909E+01  0.67193992570E+02  0.47000000000E+01 0. -1.
        -13    1    6    6    0    0  0.18925021340E+02 -0.14804515922E+02 -0.36360211046E+02  0.43582049879E+02  0.00000000000E+00 0.  1.
         14    1    6    6    0    0  0.72270590563E+02 -0.79886997218E-01  0.31800199206E+02  0.78957566527E+02  0.00000000000E+00 0. -1.
         -5    1    3    3    0  503 -0.31088080462E+02 -0.63074880247E+01  0.15109686476E+03  0.15446231156E+03  0.47000000000E+01 0.  1.
         13    1    4    4    0    0 -0.21520541963E+02 -0.56662265464E+02  0.30726160267E+02  0.67954712704E+02  0.00000000000E+00 0. -1.
        -14    1    4    4    0    0 -0.90504381585E+01  0.18386576138E+02 -0.18076405757E+02  0.27326416853E+02  0.00000000000E+00 0.  1.
<mgrwt>
<rscale>  2 0.18906938E+03</rscale>
<asrwt>0</asrwt>
<pdfrwt beam="1">  1       21 0.45345445E-01 0.18923596E+03</pdfrwt>
<pdfrwt beam="2">  1       21 0.22266409E-01 0.18923596E+03</pdfrwt>
<totfact> 0.88143553E+04</totfact>
</mgrwt>
</event>
<event>
12    1  0.1071811E-001  0.2148946E+03  0.7546771E-02  0.1137795E+00
         21   -1    0    0  501  502  0.00000000000E+00  0.00000000000E+00  0.20889114371E+03  0.20889114371E+03  0.00000000000E+00 0.  1.
         21   -1    0    0  502  503 -0.00000000000E+00 -0.00000000000E+00 -0.24129963181E+03  0.24129963181E+03  0.00000000000E+00 0.  1.
         -6    2    1    2    0  503 -0.94729196774E+02  0.84936728765E+02 -0.81776437966E+02  0.22969845344E+03  0.17287603967E+03 0.  0.
        -24    2    3    3    0    0 -0.11679869152E+03  0.25048286313E+02 -0.83071550903E+02  0.16568708371E+03  0.79258918414E+02 0.  0.
          6    2    1    2  501    0  0.94729196774E+02 -0.84936728765E+02  0.49367949866E+02  0.22049232209E+03  0.17318141070E+03 0.  0.
         24    2    5    5    0    0  0.96762026330E+02 -0.11976453543E+03  0.59583449558E+02  0.18383778694E+03  0.80868478158E+02 0.  0.
          5    1    5    5  501    0 -0.20328295554E+01  0.34827806664E+02 -0.10215499692E+02  0.36654535149E+02  0.47000000000E+01 0. -1.
        -13    1    6    6    0    0  0.10622531460E+03 -0.80093698314E+02  0.43033585719E+02  0.13982384443E+03  0.00000000000E+00 0.  1.
         14    1    6    6    0    0 -0.94632882681E+01 -0.39670837115E+02  0.16549863840E+02  0.44013942511E+02  0.00000000000E+00 0. -1.
         -5    1    3    3    0  503  0.22069494750E+02  0.59888442452E+02  0.12951129370E+01  0.64011369735E+02  0.47000000000E+01 0.  1.
         13    1    4    4    0    0 -0.10091276145E+02 -0.89124629675E+01 -0.45688232767E+02  0.47630667261E+02  0.00000000000E+00 0. -1.
        -14    1    4    4    0    0 -0.10670741538E+03  0.33960749281E+02 -0.37383318136E+02  0.11805641644E+03  0.00000000000E+00 0.  1.
<mgrwt>
<rscale>  2 0.21483302E+03</rscale>
<asrwt>0</asrwt>
<pdfrwt beam="1">  1       21 0.32137099E-01 0.21489455E+03</pdfrwt>
<pdfrwt beam="2">  1       21 0.37123020E-01 0.21489455E+03</pdfrwt>
<totfact> 0.64534556E+04</totfact>
</mgrwt>
</event>
<event>
12    1  0.1071811E-001  0.1901012E+03  0.7546771E-02  0.1158399E+00
         21   -1    0    0  501  502  0.00000000000E+00  0.00000000000E+00  0.92504371667E+03  0.92504371667E+03  0.00000000000E+00 0. -1.
         21   -1    0    0  502  503 -0.00000000000E+00 -0.00000000000E+00 -0.40355068764E+02  0.40355068764E+02  0.00000000000E+00 0. -1.
         -6    2    1    2    0  503  0.28320396502E+02  0.74044093557E+02  0.52962462797E+03  0.56270837521E+03  0.17278280102E+03 0.  0.
        -24    2    3    3    0    0  0.29074424261E+02  0.67896633361E+02  0.17041942224E+03  0.20341903547E+03  0.82953297387E+02 0.  0.
          6    2    1    2  501    0 -0.28320396502E+02 -0.74044093557E+02  0.35506401994E+03  0.40269041023E+03  0.17263990149E+03 0.  0.
         24    2    5    5    0    0  0.43681540499E+02 -0.32232601293E+02  0.13155707008E+03  0.16413239537E+03  0.81762845816E+02 0.  0.
          5    1    5    5  501    0 -0.72001937001E+02 -0.41811492264E+02  0.22350694986E+03  0.23855801486E+03  0.47000000000E+01 0. -1.
        -11    1    6    6    0    0  0.44633114461E+02  0.13561836738E+02  0.38772130458E+02  0.60657369070E+02  0.00000000000E+00 0.  1.
         12    1    6    6    0    0 -0.95157396144E+00 -0.45794438031E+02  0.92784939622E+02  0.10347502630E+03  0.00000000000E+00 0. -1.
         -5    1    3    3    0  503 -0.75402775904E+00  0.61474601955E+01  0.35920520573E+03  0.35928933974E+03  0.47000000000E+01 0.  1.
         13    1    4    4    0    0  0.52020290252E+02  0.21460909196E+02  0.11201609402E+03  0.12535663740E+03  0.00000000000E+00 0. -1.
        -14    1    4    4    0    0 -0.22945865992E+02  0.46435724165E+02  0.58403328214E+02  0.78062398062E+02  0.00000000000E+00 0.  1.
<mgrwt>
<rscale>  2 0.19006873E+03</rscale>
<asrwt>0</asrwt>
<pdfrwt beam="1">  1       21 0.14231440E+00 0.19010121E+03</pdfrwt>
<pdfrwt beam="2">  1       21 0.62084728E-02 0.19010121E+03</pdfrwt>
<totfact> 0.63863785E+04</totfact>
</mgrwt>
</event>
<event>
12    1  0.1071811E-001  0.2302822E+03  0.7546771E-02  0.1126832E+00
         21   -1    0    0  503  502  0.00000000000E+00  0.00000000000E+00  0.56609420806E+03  0.56609420806E+03  0.00000000000E+00 0. -1.
         21   -1    0    0  501  503 -0.00000000000E+00 -0.00000000000E+00 -0.29753807406E+03  0.29753807406E+03  0.00000000000E+00 0. -1.
          6    2    1    2  501    0 -0.11093383561E+03  0.10690459215E+03 -0.22414198971E+03  0.31977444348E+03  0.16817001945E+03 0.  0.
         24    2    3    3    0    0 -0.99435991867E+02  0.14290816005E+03 -0.19732120076E+03  0.27319223622E+03  0.73403562422E+02 0.  0.
         -6    2    1    2    0  502  0.11093383561E+03 -0.10690459215E+03  0.49269812371E+03  0.54385783865E+03  0.17115782146E+03 0.  0.
        -24    2    5    5    0    0  0.14451333722E+03 -0.10467845405E+03  0.42275618389E+03  0.46609857190E+03  0.81752090693E+02 0.  0.
          5    1    3    3  501    0 -0.11497843738E+02 -0.36003567902E+02 -0.26820788956E+02  0.46582207252E+02  0.47000000000E+01 0. -1.
        -11    1    4    4    0    0 -0.40840160839E+02  0.92992237107E+02 -0.66479873306E+02  0.12138800787E+03  0.00000000000E+00 0.  1.
         12    1    4    4    0    0 -0.58595831028E+02  0.49915922947E+02 -0.13084132745E+03  0.15180422835E+03  0.00000000000E+00 0. -1.
         -5    1    5    5    0  502 -0.33579501615E+02 -0.22261380994E+01  0.69941939820E+02  0.77759266749E+02  0.47000000000E+01 0.  1.
         13    1    6    6    0    0  0.12388076889E+03 -0.10832271306E+03  0.30566329271E+03  0.34714593988E+03  0.00000000000E+00 0. -1.
        -14    1    6    6    0    0  0.20632568327E+02  0.36442590046E+01  0.11709289117E+03  0.11895263201E+03  0.00000000000E+00 0.  1.
<mgrwt>
<rscale>  2 0.22972725E+03</rscale>
<asrwt>0</asrwt>
<pdfrwt beam="1">  1       21 0.87091417E-01 0.23028223E+03</pdfrwt>
<pdfrwt beam="2">  1       21 0.45775088E-01 0.23028223E+03</pdfrwt>
<totfact> 0.50425979E+03</totfact>
</mgrwt>
</event>
<event>
12    1  0.1071811E-001  0.1918255E+03  0.7546771E-02  0.1156911E+00
         21   -1    0    0  503  502  0.00000000000E+00  0.00000000000E+00  0.28712756607E+03  0.28712756607E+03  0.00000000000E+00 0. -1.
         21   -1    0    0  501  503 -0.00000000000E+00 -0.00000000000E+00 -0.18394534113E+03  0.18394534113E+03  0.00000000000E+00 0. -1.
          6    2    1    2  501    0 -0.77380543360E+02 -0.13905061283E+02 -0.78460505360E+02  0.20689281222E+03  0.17454937877E+03 0.  0.
         24    2    3    3    0    0 -0.30850807826E+02 -0.72457237444E+02 -0.72062508152E+02  0.13168378357E+03  0.77108950020E+02 0.  0.
         -6    2    1    2    0  502  0.77380543360E+02  0.13905061283E+02  0.18164273029E+03  0.26418009498E+03  0.17497411778E+03 0.  0.
        -24    2    5    5    0    0  0.78089596707E+02  0.72578543818E+02  0.99569592082E+02  0.16317925178E+03  0.73128205290E+02 0.  0.
          5    1    3    3  501    0 -0.46529735534E+02  0.58552176161E+02 -0.63979972078E+01  0.75209028649E+02  0.47000000000E+01 0. -1.
        -11    1    4    4    0    0 -0.14479138676E+02 -0.85210746750E+02 -0.44597256626E+02  0.97259611952E+02  0.00000000000E+00 0.  1.
         12    1    4    4    0    0 -0.16371669150E+02  0.12753509305E+02 -0.27465251526E+02  0.34424171620E+02  0.00000000000E+00 0. -1.
         -5    1    5    5    0  502 -0.70905334762E+00 -0.58673482535E+02  0.82073138212E+02  0.10100084319E+03  0.47000000000E+01 0.  1.
         13    1    6    6    0    0  0.91814658894E+02  0.68833080879E+02  0.91908388778E+02  0.14702066705E+03  0.00000000000E+00 0. -1.
        -14    1    6    6    0    0 -0.13725062187E+02  0.37454629396E+01  0.76612033040E+01  0.16158584738E+02  0.00000000000E+00 0.  1.
<mgrwt>
<rscale>  2 0.19172864E+03</rscale>
<asrwt>0</asrwt>
<pdfrwt beam="1">  1       21 0.44173472E-01 0.19182555E+03</pdfrwt>
<pdfrwt beam="2">  1       21 0.28299283E-01 0.19182555E+03</pdfrwt>
<totfact> 0.58774285E+04</totfact>
</mgrwt>
</event>
<event>
12    1  0.1071811E-001  0.2584782E+03  0.7546771E-02  0.1108742E+00
         21   -1    0    0  501  502  0.00000000000E+00  0.00000000000E+00  0.32817973700E+02  0.32817973700E+02  0.00000000000E+00 0.  1.
         21   -1    0    0  502  503 -0.00000000000E+00 -0.00000000000E+00 -0.20008498947E+04  0.20008498947E+04  0.00000000000E+00 0. -1.
         -6    2    1    2    0  503  0.17802224186E+03  0.52222015223E+02 -0.99429592161E+03  0.10273438406E+04  0.17997758081E+03 0.  0.
        -24    2    3    3    0    0  0.88634287140E+02  0.92121572817E+02 -0.72777604067E+03  0.74337708534E+03  0.81296399755E+02 0.  0.
          6    2    1    2  501    0 -0.17802224186E+03 -0.52222015223E+02 -0.97373599936E+03  0.10063240278E+04  0.17351425004E+03 0.  0.
         24    2    5    5    0    0 -0.53805022220E+02  0.33220228768E+02 -0.36229377915E+03  0.37655107396E+03  0.80841603589E+02 0.  0.
          5    1    5    5  501    0 -0.12421721965E+03 -0.85442243991E+02 -0.61144222021E+03  0.62977295383E+03  0.47000000000E+01 0. -1.
        -13    1    6    6    0    0  0.24341135762E+01 -0.77447095144E+01 -0.50629706410E+00  0.81339886329E+01  0.00000000000E+00 0.  1.
         14    1    6    6    0    0 -0.56239135796E+02  0.40964938283E+02 -0.36178748209E+03  0.36841708533E+03  0.00000000000E+00 0. -1.
         -5    1    3    3    0  503  0.89387954725E+02 -0.39899557594E+02 -0.26651988094E+03  0.28396675524E+03  0.47000000000E+01 0.  1.
         13    1    4    4    0    0  0.21019315947E+02 -0.76657330107E+01 -0.23542487445E+03  0.23648561608E+03  0.00000000000E+00 0. -1.
        -14    1    4    4    0    0  0.67614971193E+02  0.99787305827E+02 -0.49235116622E+03  0.50689146926E+03  0.00000000000E+00 0.  1.
<mgrwt>
<rscale>  2 0.25735642E+03</rscale>
<asrwt>0</asrwt>
<pdfrwt beam="1">  1       21 0.50489196E-02 0.25847821E+03</pdfrwt>
<pdfrwt beam="2">  1       21 0.30782303E+00 0.25847821E+03</pdfrwt>
<totfact> 0.76348062E+03</totfact>
</mgrwt>
</event>
<event>
12    1  0.1071811E-001  0.2743470E+03  0.7546771E-02  0.1099359E+00
         21   -1    0    0  503  502  0.00000000000E+00  0.00000000000E+00  0.12091502137E+04  0.12091502137E+04  0.00000000000E+00 0.  1.
         21   -1    0    0  501  503 -0.00000000000E+00 -0.00000000000E+00 -0.11033261830E+03  0.11033261830E+03  0.00000000000E+00 0.  1.
          6    2    1    2  501    0 -0.20277615668E+03 -0.61563417720E+02  0.11211535522E+03  0.29637165239E+03  0.17423570055E+03 0.  0.
         24    2    3    3    0    0 -0.21717280379E+03 -0.26212324402E+02  0.11057258569E+03  0.25788225925E+03  0.80161401367E+02 0.  0.
         -6    2    1    2    0  502  0.20277615668E+03  0.61563417720E+02  0.98670224020E+03  0.10231111796E+04  0.16812778163E+03 0.  0.
        -24    2    5    5    0    0  0.30829486861E+02  0.43617329621E+02  0.40538529941E+03  0.41661369820E+03  0.79854892425E+02 0.  0.
          5    1    3    3  501    0  0.14396647114E+02 -0.35351093318E+02  0.15427695311E+01  0.38489393146E+02  0.47000000000E+01 0. -1.
        -11    1    4    4    0    0 -0.90584135328E+02 -0.11029774975E+02  0.33851905064E+01  0.91315940689E+02  0.00000000000E+00 0.  1.
         12    1    4    4    0    0 -0.12658866847E+03 -0.15182549427E+02  0.10718739519E+03  0.16656631856E+03  0.00000000000E+00 0. -1.
         -5    1    5    5    0  502  0.17194666982E+03  0.17946088099E+02  0.58131694079E+03  0.60649748144E+03  0.47000000000E+01 0.  1.
         11    1    6    6    0    0  0.31114327805E+02  0.62002562408E+02  0.37279079577E+03  0.37919044892E+03  0.00000000000E+00 0. -1.
        -12    1    6    6    0    0 -0.28484094477E+00 -0.18385232787E+02  0.32594503636E+02  0.37423249275E+02  0.00000000000E+00 0.  1.
<mgrwt>
<rscale>  2 0.27338249E+03</rscale>
<asrwt>0</asrwt>
<pdfrwt beam="1">  1       21 0.18602310E+00 0.27434705E+03</pdfrwt>
<pdfrwt beam="2">  1       21 0.16974250E-01 0.27434705E+03</pdfrwt>
<totfact> 0.48691403E+03</totfact>
</mgrwt>
</event>
<event>
12    1  0.1071811E-001  0.2616103E+03  0.7546771E-02  0.1106197E+00
         21   -1    0    0  501  502  0.00000000000E+00  0.00000000000E+00  0.32485258033E+03  0.32485258033E+03  0.00000000000E+00 0.  1.
         21   -1    0    0  502  503 -0.00000000000E+00 -0.00000000000E+00 -0.23777212548E+03  0.23777212548E+03  0.00000000000E+00 0. -1.
         -6    2    1    2    0  503 -0.15674451208E+03  0.11807233975E+03 -0.51570484243E+02  0.26664484358E+03  0.17300300079E+03 0.  0.
        -24    2    3    3    0    0 -0.95253397427E+02  0.14223193883E+03 -0.13009285374E+02  0.19000347442E+03  0.81418331110E+02 0.  0.
          6    2    1    2  501    0  0.15674451208E+03 -0.11807233975E+03  0.13865093909E+03  0.29597986223E+03  0.17282961684E+03 0.  0.
         24    2    5    5    0    0  0.18187382146E+03 -0.12365320684E+03  0.11578813615E+03  0.26123182595E+03  0.80417485162E+02 0.  0.
          5    1    5    5  501    0 -0.25129309381E+02  0.55808670923E+01  0.22862802942E+02  0.34748036287E+02  0.47000000000E+01 0. -1.
        -11    1    6    6    0    0  0.77390368169E+02 -0.59374775200E+02  0.96209434566E+02  0.13700689149E+03  0.00000000000E+00 0.  1.
         12    1    6    6    0    0  0.10448345329E+03 -0.64278431643E+02  0.19578701583E+02  0.12422493446E+03  0.00000000000E+00 0. -1.
         -5    1    3    3    0  503 -0.61491114649E+02 -0.24159599077E+02 -0.38561198869E+02  0.76641369159E+02  0.47000000000E+01 0.  1.
         11    1    4    4    0    0 -0.13763555487E+02 -0.89793884931E+01 -0.77044999865E+01  0.18150046760E+02  0.00000000000E+00 0. -1.
        -12    1    4    4    0    0 -0.81489841939E+02  0.15121132732E+03 -0.53047853873E+01  0.17185342766E+03  0.00000000000E+00 0.  1.
<mgrwt>
<rscale>  2 0.26158166E+03</rscale>
<asrwt>0</asrwt>
<pdfrwt beam="1">  1       21 0.49977320E-01 0.26161032E+03</pdfrwt>
<pdfrwt beam="2">  1       21 0.36580327E-01 0.26161032E+03</pdfrwt>
<totfact> 0.26554604E+04</totfact>
</mgrwt>
</event>
<event>
12    1  0.1071811E-001  0.2187053E+03  0.7546771E-02  0.1137556E+00
         21   -1    0    0  503  502  0.00000000000E+00  0.00000000000E+00  0.18034576772E+04  0.18034576772E+04  0.00000000000E+00 0.  1.
         21   -1    0    0  501  503 -0.00000000000E+00 -0.00000000000E+00 -0.25134282899E+02  0.25134282899E+02  0.00000000000E+00 0.  1.
          6    2    1    2  501    0  0.97425921485E+02  0.96067061657E+02  0.82315926592E+03  0.85171777392E+03  0.17062033529E+03 0.  0.
         24    2    3    3    0    0  0.65359932045E+02  0.11402339250E+03  0.77948944889E+03  0.79444823213E+03  0.79189253440E+02 0.  0.
         -6    2    1    2    0  502 -0.97425921485E+02 -0.96067061657E+02  0.95516412836E+03  0.97687418617E+03  0.15239413696E+03 0.  0.
        -24    2    5    5    0    0 -0.38802820301E+02 -0.85880318509E+02  0.40652556731E+03  0.42499847697E+03  0.80495842007E+02 0.  0.
          5    1    3    3  501    0  0.32065989440E+02 -0.17956330840E+02  0.43669817040E+02  0.57269541785E+02  0.47000000000E+01 0. -1.
        -11    1    4    4    0    0  0.24429934406E+02  0.17629020664E+02  0.57605815346E+02  0.65007953562E+02  0.00000000000E+00 0.  1.
         12    1    4    4    0    0  0.40929997639E+02  0.96394371832E+02  0.72188363354E+03  0.72944027857E+03  0.00000000000E+00 0. -1.
         -5    1    5    5    0  502 -0.58623101184E+02 -0.10186743148E+02  0.54863856105E+03  0.55187570920E+03  0.47000000000E+01 0.  1.
         11    1    6    6    0    0 -0.20290239605E+02 -0.30045348234E+02  0.40834625046E+02  0.54606623924E+02  0.00000000000E+00 0. -1.
        -12    1    6    6    0    0 -0.18512580696E+02 -0.55834970275E+02  0.36569094226E+03  0.37039185305E+03  0.00000000000E+00 0.  1.
<mgrwt>
<rscale>  2 0.21514388E+03</rscale>
<asrwt>0</asrwt>
<pdfrwt beam="1">  1       21 0.27745492E+00 0.21870526E+03</pdfrwt>
<pdfrwt beam="2">  1       21 0.38668142E-02 0.21870526E+03</pdfrwt>
<totfact> 0.18644286E+04</totfact>
</mgrwt>
</event>
<event>
12    1  0.1071811E-001  0.2022350E+03  0.7546771E-02  0.1148616E+00
         21   -1    0    0  501  502  0.00000000000E+00  0.00000000000E+00  0.17743082563E+03  0.17743082563E+03  0.00000000000E+00 0.  1.
         21   -1    0    0  502  503 -0.00000000000E+00 -0.00000000000E+00 -0.25713108417E+03  0.25713108417E+03  0.00000000000E+00 0.  1.
         -6    2    1    2    0  503 -0.88747779502E+02  0.42687522760E+02 -0.11520723410E+03  0.23274813110E+03  0.17663689528E+03 0.  0.
        -24    2    3    3    0    0 -0.77799240019E+02 -0.11045211751E+02 -0.13322730344E+03  0.17483535035E+03  0.81505624957E+02 0.  0.
          6    2    1    2  501    0  0.88747779502E+02 -0.42687522760E+02  0.35506975564E+02  0.20181377870E+03  0.17253887386E+03 0.  0.
         24    2    5    5    0    0  0.19978862771E+02 -0.78291649813E+02  0.46236308696E+02  0.12349375341E+03  0.81142920225E+02 0.  0.
          5    1    5    5  501    0  0.68768916731E+02  0.35604127053E+02 -0.10729333132E+02  0.78320025287E+02  0.47000000000E+01 0. -1.
        -11    1    6    6    0    0 -0.12956404439E+02  0.11740340671E+02  0.10627198973E+01  0.17516660316E+02  0.00000000000E+00 0.  1.
         12    1    6    6    0    0  0.32935267210E+02 -0.90031990483E+02  0.45173588799E+02  0.10597709310E+03  0.00000000000E+00 0. -1.
         -5    1    3    3    0  503 -0.10948539482E+02  0.53732734511E+02  0.18020069343E+02  0.57912780748E+02  0.47000000000E+01 0.  1.
         11    1    4    4    0    0 -0.10063402836E+01  0.28046795866E+01  0.10704779460E+02  0.11111761860E+02  0.00000000000E+00 0. -1.
        -12    1    4    4    0    0 -0.76792899736E+02 -0.13849891338E+02 -0.14393208290E+03  0.16372358849E+03  0.00000000000E+00 0.  1.
<mgrwt>
<rscale>  2 0.20133669E+03</rscale>
<asrwt>0</asrwt>
<pdfrwt beam="1">  1       21 0.27297050E-01 0.20223498E+03</pdfrwt>
<pdfrwt beam="2">  1       21 0.39558628E-01 0.20223498E+03</pdfrwt>
<totfact> 0.78501527E+04</totfact>
</mgrwt>
</event>
<event>
12    1  0.1071811E-001  0.1818244E+03  0.7546771E-02  0.1167338E+00
         21   -1    0    0  501  502  0.00000000000E+00  0.00000000000E+00  0.15238835436E+03  0.15238835436E+03  0.00000000000E+00 0.  1.
         21   -1    0    0  502  503 -0.00000000000E+00 -0.00000000000E+00 -0.35796985449E+03  0.35796985449E+03  0.00000000000E+00 0.  1.
         -6    2    1    2    0  503  0.22998847785E+02  0.27368200257E+02 -0.26737624644E+03  0.32334216830E+03  0.17827544770E+03 0.  0.
        -24    2    3    3    0    0 -0.33446928828E+02  0.32756744201E+02 -0.64289846194E+02  0.11243617486E+03  0.79479605899E+02 0.  0.
          6    2    1    2  501    0 -0.22998847785E+02 -0.27368200257E+02  0.61794746322E+02  0.18701604055E+03  0.17285382080E+03 0.  0.
         24    2    5    5    0    0 -0.34556134644E+02 -0.23263194454E+02  0.10726732275E+03  0.13968457999E+03  0.79184598881E+02 0.  0.
          5    1    5    5  501    0  0.11557286859E+02 -0.41050058027E+01 -0.45472576424E+02  0.47331460561E+02  0.47000000000E+01 0. -1.
        -11    1    6    6    0    0 -0.40936235868E+02  0.11207613503E+02  0.22683987649E+02  0.48124310937E+02  0.00000000000E+00 0.  1.
         12    1    6    6    0    0  0.63801012240E+01 -0.34470807957E+02  0.84583335097E+02  0.91560269052E+02  0.00000000000E+00 0. -1.
         -5    1    3    3    0  503  0.56445776613E+02 -0.53885439443E+01 -0.20308640025E+03  0.21090599344E+03  0.47000000000E+01 0.  1.
         11    1    4    4    0    0 -0.36497676854E+02 -0.74562102890E+01 -0.61638387170E+02  0.72020596086E+02  0.00000000000E+00 0. -1.
        -12    1    4    4    0    0  0.30507480260E+01  0.40212954490E+02 -0.26514590242E+01  0.40415578770E+02  0.00000000000E+00 0.  1.
<mgrwt>
<rscale>  2 0.18048142E+03</rscale>
<asrwt>0</asrwt>
<pdfrwt beam="1">  1       21 0.23444363E-01 0.18182437E+03</pdfrwt>
<pdfrwt beam="2">  1       21 0.55072284E-01 0.18182437E+03</pdfrwt>
<totfact> 0.53508147E+04</totfact>
</mgrwt>
</event>
<event>
12    1  0.1071811E-001  0.2065713E+03  0.7546771E-02  0.1144534E+00
         21   -1    0    0  503  502  0.00000000000E+00  0.00000000000E+00  0.32117647354E+03  0.32117647354E+03  0.00000000000E+00 0.  1.
         21   -1    0    0  501  503 -0.00000000000E+00 -0.00000000000E+00 -0.20688574104E+03  0.20688574104E+03  0.00000000000E+00 0.  1.
          6    2    1    2  501    0 -0.20825657736E+02 -0.10810450722E+03 -0.10144658090E+03  0.23013711627E+03  0.17478956207E+03 0.  0.
         24    2    3    3    0    0 -0.99073854845E+01 -0.40280571116E+02 -0.12829249617E+03  0.15623117507E+03  0.78921066851E+02 0.  0.
         -6    2    1    2    0  502  0.20825657736E+02  0.10810450722E+03  0.21573731339E+03  0.29792509831E+03  0.17348338051E+03 0.  0.
        -24    2    5    5    0    0  0.53240092931E+02  0.28714107618E+02  0.17489697950E+03  0.20282749566E+03  0.83012240574E+02 0.  0.
          5    1    3    3  501    0 -0.10918272252E+02 -0.67823936102E+02  0.26845915275E+02  0.73905941197E+02  0.47000000000E+01 0. -1.
        -13    1    4    4    0    0 -0.24591607515E+02 -0.57438763344E+02 -0.11245638756E+03  0.12864834938E+03  0.00000000000E+00 0.  1.
         14    1    4    4    0    0  0.14684222030E+02  0.17158192229E+02 -0.15836108615E+02  0.27582825694E+02  0.00000000000E+00 0. -1.
         -5    1    5    5    0  502 -0.32414435195E+02  0.79390399599E+02  0.40840333892E+02  0.95097602651E+02  0.47000000000E+01 0.  1.
         11    1    6    6    0    0  0.60143867660E+02  0.45269567777E+02  0.96411653879E+02  0.12231854147E+03  0.00000000000E+00 0. -1.
        -12    1    6    6    0    0 -0.69037747286E+01 -0.16555460159E+02  0.78485325620E+02  0.80508954187E+02  0.00000000000E+00 0.  1.
<mgrwt>
<rscale>  2 0.20629469E+03</rscale>
<asrwt>0</asrwt>
<pdfrwt beam="1">  1       21 0.49411766E-01 0.20657126E+03</pdfrwt>
<pdfrwt beam="2">  1       21 0.31828575E-01 0.20657126E+03</pdfrwt>
<totfact> 0.36801515E+04</totfact>
</mgrwt>
</event>
<event>
12    1  0.1071811E-001  0.1765753E+03  0.7546771E-02  0.1171972E+00
         21   -1    0    0  501  502  0.00000000000E+00  0.00000000000E+00  0.40381660656E+02  0.40381660656E+02  0.00000000000E+00 0.  1.
         21   -1    0    0  502  503 -0.00000000000E+00 -0.00000000000E+00 -0.77756851699E+03  0.77756851699E+03  0.00000000000E+00 0.  1.
         -6    2    1    2    0  503  0.24506075760E+02 -0.49808606258E+01 -0.30037460109E+03  0.34679863906E+03  0.17151978997E+03 0.  0.
        -24    2    3    3    0    0 -0.31739586142E+01 -0.54507474468E+02 -0.10125229435E+03  0.13969756996E+03  0.79260615409E+02 0.  0.
          6    2    1    2  501    0 -0.24506075760E+02  0.49808606258E+01 -0.43681225525E+03  0.47115153859E+03  0.17479550698E+03 0.  0.
         24    2    5    5    0    0 -0.14190790365E+02  0.12012357805E+01 -0.44735138052E+03  0.45521874730E+03  0.83054372235E+02 0.  0.
          5    1    5    5  501    0 -0.10315285395E+02  0.37796248453E+01  0.10539125269E+02  0.15932791287E+02  0.47000000000E+01 0. -1.
        -13    1    6    6    0    0  0.18797390288E+02 -0.32018771507E+02 -0.17833445339E+03  0.18215850482E+03  0.00000000000E+00 0.  1.
         14    1    6    6    0    0 -0.32988180653E+02  0.33220007288E+02 -0.26901692713E+03  0.27306024249E+03  0.00000000000E+00 0. -1.
         -5    1    3    3    0  503  0.27680034374E+02  0.49526613842E+02 -0.19912230674E+03  0.20710106910E+03  0.47000000000E+01 0.  1.
         11    1    4    4    0    0 -0.48239876725E+01 -0.35813972510E+02 -0.11226555393E+03  0.11793839953E+03  0.00000000000E+00 0. -1.
        -12    1    4    4    0    0  0.16500290583E+01 -0.18693501958E+02  0.11013259578E+02  0.21759170432E+02  0.00000000000E+00 0.  1.
<mgrwt>
<rscale>  2 0.17575911E+03</rscale>
<asrwt>0</asrwt>
<pdfrwt beam="1">  1       21 0.62125635E-02 0.17657527E+03</pdfrwt>
<pdfrwt beam="2">  1       21 0.11962592E+00 0.17657527E+03</pdfrwt>
<totfact> 0.99557503E+04</totfact>
</mgrwt>
</event>
<event>
12    1  0.1071811E-001  0.2362055E+03  0.7546771E-02  0.1122368E+00
         21   -1    0    0  503  502  0.00000000000E+00  0.00000000000E+00  0.31200164217E+03  0.31200164217E+03  0.00000000000E+00 0. -1.
         21   -1    0    0  501  503 -0.00000000000E+00 -0.00000000000E+00 -0.18223317482E+03  0.18223317482E+03  0.00000000000E+00 0.  1.
          6    2    1    2  501    0  0.16045928151E+03 -0.86694969802E+01  0.30631534442E+02  0.23818338291E+03  0.17312045457E+03 0.  0.
         24    2    3    3    0    0  0.18391970552E+03  0.10041291647E+02  0.10791369559E+02  0.20190381223E+03  0.81984206526E+02 0.  0.
         -6    2    1    2    0  502 -0.16045928151E+03  0.86694969802E+01  0.99136932910E+02  0.25605143408E+03  0.17295046755E+03 0.  0.
        -24    2    5    5    0    0 -0.79301157280E+02  0.46102253180E+02  0.11098847215E+03  0.16577186082E+03  0.82144857373E+02 0.  0.
          5    1    3    3  501    0 -0.23460424011E+02 -0.18710788627E+02  0.19840164883E+02  0.36279570676E+02  0.47000000000E+01 0. -1.
        -11    1    4    4    0    0  0.49860037375E+02  0.39720401276E+02 -0.35814431570E+01  0.63847947028E+02  0.00000000000E+00 0.  1.
         12    1    4    4    0    0  0.13405966815E+03 -0.29679109629E+02  0.14372812716E+02  0.13805586521E+03  0.00000000000E+00 0. -1.
         -5    1    5    5    0  502 -0.81158124232E+02 -0.37432756200E+02 -0.11851539245E+02  0.90279573260E+02  0.47000000000E+01 0.  1.
         13    1    6    6    0    0 -0.64632628177E+02  0.45231668771E+02  0.31512552786E+02  0.84948934472E+02  0.00000000000E+00 0. -1.
        -14    1    6    6    0    0 -0.14668529104E+02  0.87058440938E+00  0.79475919369E+02  0.80822926344E+02  0.00000000000E+00 0.  1.
<mgrwt>
<rscale>  2 0.23617434E+03</rscale>
<asrwt>0</asrwt>
<pdfrwt beam="1">  1       21 0.48000252E-01 0.23620549E+03</pdfrwt>
<pdfrwt beam="2">  1       21 0.28035873E-01 0.23620549E+03</pdfrwt>
<totfact> 0.49412061E+04</totfact>
</mgrwt>
</event>
<event>
12    1  0.1071811E-001  0.1751771E+03  0.7546771E-02  0.1172655E+00
         21   -1    0    0  503  502  0.00000000000E+00  0.00000000000E+00  0.13799630125E+03  0.13799630125E+03  0.00000000000E+00 0.  1.
         21   -1    0    0  501  503 -0.00000000000E+00 -0.00000000000E+00 -0.22366377194E+03  0.22366377194E+03  0.00000000000E+00 0.  1.
          6    2    1    2  501    0 -0.22027673104E+02 -0.13459850717E+02 -0.58993297854E+02  0.18446379989E+03  0.17285918638E+03 0.  0.
         24    2    3    3    0    0  0.33466232019E+01 -0.11538779672E+02 -0.10351579888E+03  0.13296730949E+03  0.82585964008E+02 0.  0.
         -6    2    1    2    0  502  0.22027673104E+02  0.13459850717E+02 -0.26674172833E+02  0.17719627329E+03  0.17326460056E+03 0.  0.
        -24    2    5    5    0    0  0.15302663674E+02 -0.59249580041E+02 -0.21814058325E+02  0.10386416718E+03  0.81038434300E+02 0.  0.
          5    1    3    3  501    0 -0.25374296306E+02 -0.19210710453E+01  0.44522501024E+02  0.51496490409E+02  0.47000000000E+01 0. -1.
        -11    1    4    4    0    0 -0.53743037997E+01 -0.45235920508E+02 -0.40390490085E+02  0.60881551679E+02  0.00000000000E+00 0.  1.
         12    1    4    4    0    0  0.87209270016E+01  0.33697140836E+02 -0.63125308793E+02  0.72085757807E+02  0.00000000000E+00 0. -1.
         -5    1    5    5    0  502  0.67250094300E+01  0.72709430758E+02 -0.48601145087E+01  0.73332106106E+02  0.47000000000E+01 0.  1.
         13    1    6    6    0    0  0.76291076899E+01 -0.39094352224E+02 -0.52782959148E+02  0.66125732029E+02  0.00000000000E+00 0. -1.
        -14    1    6    6    0    0  0.76735559838E+01 -0.20155227816E+02  0.30968900823E+02  0.37738435155E+02  0.00000000000E+00 0.  1.
<mgrwt>
<rscale>  2 0.17507674E+03</rscale>
<asrwt>0</asrwt>
<pdfrwt beam="1">  1       21 0.21230200E-01 0.17517708E+03</pdfrwt>
<pdfrwt beam="2">  1       21 0.34409811E-01 0.17517708E+03</pdfrwt>
<totfact> 0.16891065E+05</totfact>
</mgrwt>
</event>
<event>
12    1  0.1071811E-001  0.1800666E+03  0.7546771E-02  0.1167975E+00
         21   -1    0    0  503  502  0.00000000000E+00  0.00000000000E+00  0.41017256738E+03  0.41017256738E+03  0.00000000000E+00 0.  1.
         21   -1    0    0  501  503 -0.00000000000E+00 -0.00000000000E+00 -0.78636885029E+02  0.78636885029E+02  0.00000000000E+00 0.  1.
          6    2    1    2  501    0  0.26695708551E+02 -0.39398543045E+02  0.16198728419E+03  0.24148249106E+03  0.17265285171E+03 0.  0.
         24    2    3    3    0    0 -0.26735823617E+02 -0.70868204269E+02  0.13371641165E+03  0.17316997068E+03  0.79816372755E+02 0.  0.
         -6    2    1    2    0  502 -0.26695708551E+02  0.39398543045E+02  0.16954839816E+03  0.24732696134E+03  0.17366364167E+03 0.  0.
        -24    2    5    5    0    0  0.12286871356E+02 -0.20411216899E+02  0.26914052119E+02  0.87754107788E+02  0.80055182525E+02 0.  0.
          5    1    3    3  501    0  0.53431532168E+02  0.31469661224E+02  0.28270872537E+02  0.68312520385E+02  0.47000000000E+01 0. -1.
        -13    1    4    4    0    0  0.18554407952E+02 -0.31243870196E+02  0.13557843101E+02  0.38784798425E+02  0.00000000000E+00 0.  1.
         14    1    4    4    0    0 -0.45290231569E+02 -0.39624334073E+02  0.12015856855E+03  0.13438517225E+03  0.00000000000E+00 0. -1.
         -5    1    5    5    0  502 -0.38982579907E+02  0.59809759943E+02  0.14263434604E+03  0.15957285355E+03  0.47000000000E+01 0.  1.
         11    1    6    6    0    0 -0.67876343640E+01 -0.17294304864E+02 -0.25694493239E+02  0.31707600726E+02  0.00000000000E+00 0. -1.
        -12    1    6    6    0    0  0.19074505720E+02 -0.31169120350E+01  0.52608545358E+02  0.56046507062E+02  0.00000000000E+00 0.  1.
<mgrwt>
<rscale>  2 0.17982240E+03</rscale>
<asrwt>0</asrwt>
<pdfrwt beam="1">  1       21 0.63103471E-01 0.18006656E+03</pdfrwt>
<pdfrwt beam="2">  1       21 0.12097983E-01 0.18006656E+03</pdfrwt>
<totfact> 0.13500375E+05</totfact>
</mgrwt>
</event>
<event>
12    1  0.1071811E-001  0.1964465E+03  0.7546771E-02  0.1154244E+00
         21   -1    0    0  501  502  0.00000000000E+00  0.00000000000E+00  0.27383906181E+02  0.27383906181E+02  0.00000000000E+00 0. -1.
         21   -1    0    0  502  503 -0.00000000000E+00 -0.00000000000E+00 -0.14079436425E+04  0.14079436425E+04  0.00000000000E+00 0.  1.
         -6    2    1    2    0  503  0.91653360498E+02  0.43292398007E+01 -0.83195355780E+03  0.85483212918E+03  0.17370137001E+03 0.  0.
        -24    2    3    3    0    0  0.45608088425E+02 -0.36008584240E+00 -0.18765774349E+03  0.20885895390E+03  0.79538710950E+02 0.  0.
          6    2    1    2  501    0 -0.91653360498E+02 -0.43292398007E+01 -0.54860617855E+03  0.58049541953E+03  0.16609368483E+03 0.  0.
         24    2    5    5    0    0 -0.56328982270E+02 -0.65469126938E+02 -0.32807525619E+03  0.34888826244E+03  0.81427790832E+02 0.  0.
          5    1    5    5  501    0 -0.35324378227E+02  0.61139887137E+02 -0.22053092236E+03  0.23160715708E+03  0.47000000000E+01 0. -1.
        -11    1    6    6    0    0  0.10601430533E+02 -0.57615998212E+01 -0.14002005249E+03  0.14053896777E+03  0.00000000000E+00 0.  1.
         12    1    6    6    0    0 -0.66930412803E+02 -0.59707527117E+02 -0.18805520370E+03  0.20834929467E+03  0.00000000000E+00 0. -1.
         -5    1    3    3    0  503  0.46045272073E+02  0.46893256431E+01 -0.64429581431E+03  0.64597317529E+03  0.47000000000E+01 0.  1.
         13    1    4    4    0    0  0.64304587804E+02  0.23053823302E+01 -0.17410127392E+03  0.18561155239E+03  0.00000000000E+00 0. -1.
        -14    1    4    4    0    0 -0.18696499379E+02 -0.26654681726E+01 -0.13556469572E+02  0.23247401508E+02  0.00000000000E+00 0.  1.
<mgrwt>
<rscale>  2 0.19475134E+03</rscale>
<asrwt>0</asrwt>
<pdfrwt beam="1">  1       21 0.42129089E-02 0.19644655E+03</pdfrwt>
<pdfrwt beam="2">  1       21 0.21660670E+00 0.19644655E+03</pdfrwt>
<totfact> 0.37810538E+04</totfact>
</mgrwt>
</event>
<event>
12    1  0.1071811E-001  0.2700229E+03  0.7546771E-02  0.1103256E+00
         21   -1    0    0  501  502  0.00000000000E+00  0.00000000000E+00  0.81583466643E+02  0.81583466643E+02  0.00000000000E+00 0.  1.
         21   -1    0    0  502  503 -0.00000000000E+00 -0.00000000000E+00 -0.92858470402E+03  0.92858470402E+03  0.00000000000E+00 0.  1.
         -6    2    1    2    0  503 -0.13260559382E+03 -0.13486408096E+03 -0.58082545994E+03  0.64052369036E+03  0.19271694051E+03 0.  0.
        -24    2    3    3    0    0 -0.83669508844E+02 -0.39377449058E+02 -0.13629547432E+03  0.18320385109E+03  0.80224837351E+02 0.  0.
          6    2    1    2  501    0  0.13260559382E+03  0.13486408096E+03 -0.26617577744E+03  0.36964448030E+03  0.17324818462E+03 0.  0.
         24    2    5    5    0    0  0.84850395849E+02  0.47868510706E+02 -0.54998304381E+02  0.13626324004E+03  0.77793785802E+02 0.  0.
          5    1    5    5  501    0  0.47755197971E+02  0.86995570250E+02 -0.21117747305E+03  0.23338124025E+03  0.47000000000E+01 0. -1.
        -11    1    6    6    0    0  0.39501237717E+02  0.11442563409E+02 -0.65319623306E+02  0.77187649448E+02  0.00000000000E+00 0.  1.
         12    1    6    6    0    0  0.45349158132E+02  0.36425947297E+02  0.10321318925E+02  0.59075590595E+02  0.00000000000E+00 0. -1.
         -5    1    3    3    0  503 -0.48936084976E+02 -0.95486631898E+02 -0.44452998562E+03  0.45731983928E+03  0.47000000000E+01 0.  1.
         13    1    4    4    0    0  0.83705370109E+01  0.12646402254E+02 -0.86488246627E+01  0.17458509326E+02  0.00000000000E+00 0. -1.
        -14    1    4    4    0    0 -0.92040045855E+02 -0.52023851313E+02 -0.12764664966E+03  0.16574534176E+03  0.00000000000E+00 0.  1.
<mgrwt>
<rscale>  2 0.26657438E+03</rscale>
<asrwt>0</asrwt>
<pdfrwt beam="1">  1       21 0.12551303E-01 0.27002293E+03</pdfrwt>
<pdfrwt beam="2">  1       21 0.14285918E+00 0.27002293E+03</pdfrwt>
<totfact> 0.17563542E+04</totfact>
</mgrwt>
</event>
<event>
12    1  0.1071811E-001  0.2525049E+03  0.7546771E-02  0.1111912E+00
         21   -1    0    0  501  502  0.00000000000E+00  0.00000000000E+00  0.14670368005E+04  0.14670368005E+04  0.00000000000E+00 0. -1.
         21   -1    0    0  502  503 -0.00000000000E+00 -0.00000000000E+00 -0.44281386241E+02  0.44281386241E+02  0.00000000000E+00 0.  1.
         -6    2    1    2    0  503 -0.42284813229E+02 -0.17914378792E+03  0.82759876009E+03  0.86526206371E+03  0.17285320079E+03 0.  0.
        -24    2    3    3    0    0  0.28369316291E+02 -0.13180809212E+03  0.64340019848E+03  0.66232395932E+03  0.80814729072E+02 0.  0.
          6    2    1    2  501    0  0.42284813229E+02  0.17914378792E+03  0.59515665419E+03  0.64605612305E+03  0.17116240509E+03 0.  0.
         24    2    5    5    0    0  0.44766562670E+02  0.13028047231E+03  0.24545878951E+03  0.29292092337E+03  0.81090094321E+02 0.  0.
          5    1    5    5  501    0 -0.24817494412E+01  0.48863315609E+02  0.34969786468E+03  0.35313519968E+03  0.47000000000E+01 0. -1.
        -13    1    6    6    0    0  0.43836422351E+02  0.22335189602E+02  0.10333348417E+03  0.11444781155E+03  0.00000000000E+00 0.  1.
         14    1    6    6    0    0  0.93014031941E+00  0.10794528271E+03  0.14212530535E+03  0.17847311181E+03  0.00000000000E+00 0. -1.
         -5    1    3    3    0  503 -0.70654129519E+02 -0.47335695801E+02  0.18419856161E+03  0.20293810439E+03  0.47000000000E+01 0.  1.
         11    1    4    4    0    0  0.28872876795E+02 -0.11921538973E+03  0.63597592912E+03  0.64769694656E+03  0.00000000000E+00 0. -1.
        -12    1    4    4    0    0 -0.50356050414E+00 -0.12592702396E+02  0.74242693542E+01  0.14627012759E+02  0.00000000000E+00 0.  1.
<mgrwt>
<rscale>  2 0.25221581E+03</rscale>
<asrwt>0</asrwt>
<pdfrwt beam="1">  1       21 0.22569793E+00 0.25250491E+03</pdfrwt>
<pdfrwt beam="2">  1       21 0.68125221E-02 0.25250491E+03</pdfrwt>
<totfact> 0.14061657E+04</totfact>
</mgrwt>
</event>
<event>
12    1  0.1071811E-001  0.2190988E+03  0.7546771E-02  0.1134648E+00
         21   -1    0    0  503  502  0.00000000000E+00  0.00000000000E+00  0.18716002294E+04  0.18716002294E+04  0.00000000000E+00 0. -1.
         21   -1    0    0  501  503 -0.00000000000E+00 -0.00000000000E+00 -0.26682328457E+02  0.26682328457E+02  0.00000000000E+00 0.  1.
          6    2    1    2  501    0 -0.36008359418E+02  0.12850976147E+03  0.11153503875E+04  0.11366665239E+04  0.17376115508E+03 0.  0.
         24    2    3    3    0    0  0.91018966319E+01  0.55811030757E+02  0.29179561112E+03  0.30866616141E+03  0.83261064476E+02 0.  0.
         -6    2    1    2    0  502  0.36008359418E+02 -0.12850976147E+03  0.72956751348E+03  0.76161603395E+03  0.17314406054E+03 0.  0.
        -24    2    5    5    0    0 -0.43143082651E+02 -0.93377232812E+02  0.45707900171E+03  0.47565917637E+03  0.82157197309E+02 0.  0.
          5    1    3    3  501    0 -0.45110256049E+02  0.72698730716E+02  0.82355477637E+03  0.82800036252E+03  0.47000000000E+01 0. -1.
        -11    1    4    4    0    0  0.45229542032E+02  0.42399491407E+02  0.18708036931E+03  0.19708498909E+03  0.00000000000E+00 0.  1.
         12    1    4    4    0    0 -0.36127645400E+02  0.13411539350E+02  0.10471524180E+03  0.11158117232E+03  0.00000000000E+00 0. -1.
         -5    1    5    5    0  502  0.79151442069E+02 -0.35132528661E+02  0.27248851177E+03  0.28595685758E+03  0.47000000000E+01 0.  1.
         11    1    6    6    0    0 -0.32400257076E+02 -0.70011362221E+02  0.43493002882E+03  0.44171879908E+03  0.00000000000E+00 0. -1.
        -12    1    6    6    0    0 -0.10742825576E+02 -0.23365870592E+02  0.22148972894E+02  0.33940377283E+02  0.00000000000E+00 0.  1.
<mgrwt>
<rscale>  2 0.21897646E+03</rscale>
<asrwt>0</asrwt>
<pdfrwt beam="1">  1       21 0.28793839E+00 0.21909884E+03</pdfrwt>
<pdfrwt beam="2">  1       21 0.41049751E-02 0.21909884E+03</pdfrwt>
<totfact> 0.14652313E+04</totfact>
</mgrwt>
</event>
<event>
12    1  0.1071811E-001  0.1828448E+03  0.7546771E-02  0.1166488E+00
         21   -1    0    0  503  502  0.00000000000E+00  0.00000000000E+00  0.96485794376E+02  0.96485794376E+02  0.00000000000E+00 0. -1.
         21   -1    0    0  501  503 -0.00000000000E+00 -0.00000000000E+00 -0.35287831779E+03  0.35287831779E+03  0.00000000000E+00 0. -1.
          6    2    1    2  501    0  0.40265613058E+02  0.11535755755E+02 -0.17605341194E+03  0.24964779077E+03  0.17197331863E+03 0.  0.
         24    2    3    3    0    0 -0.21963988789E+02  0.42478742765E+02 -0.14283044661E+03  0.17247365509E+03  0.84022406727E+02 0.  0.
         -6    2    1    2    0  502 -0.40265613058E+02 -0.11535755755E+02 -0.80339111468E+02  0.19971632140E+03  0.17798270406E+03 0.  0.
        -24    2    5    5    0    0 -0.22547224699E+02 -0.41921296040E+02 -0.11644797291E+03  0.14908863906E+03  0.80009496298E+02 0.  0.
          5    1    3    3  501    0  0.62229601847E+02 -0.30942987011E+02 -0.33222965331E+02  0.77174135671E+02  0.47000000000E+01 0. -1.
        -13    1    4    4    0    0 -0.13823546247E+02 -0.12934554349E+02 -0.10050255271E+03  0.10227001627E+03  0.00000000000E+00 0.  1.
         14    1    4    4    0    0 -0.81404425427E+01  0.55413297114E+02 -0.42327893901E+02  0.70203638823E+02  0.00000000000E+00 0. -1.
         -5    1    5    5    0  502 -0.17718388359E+02  0.30385540285E+02  0.36108861442E+02  0.50627682340E+02  0.47000000000E+01 0.  1.
         11    1    6    6    0    0 -0.46625027230E+02 -0.74857473163E+01 -0.40140441749E+02  0.61977291332E+02  0.00000000000E+00 0. -1.
        -12    1    6    6    0    0  0.24077802531E+02 -0.34435548723E+02 -0.76307531160E+02  0.87111347725E+02  0.00000000000E+00 0.  1.
<mgrwt>
<rscale>  2 0.18136594E+03</rscale>
<asrwt>0</asrwt>
<pdfrwt beam="1">  1       21 0.14843968E-01 0.18284484E+03</pdfrwt>
<pdfrwt beam="2">  1       21 0.54288973E-01 0.18284484E+03</pdfrwt>
<totfact> 0.12862451E+05</totfact>
</mgrwt>
</event>
<event>
12    1  0.1071811E-001  0.2081772E+03  0.7546771E-02  0.1144468E+00
         21   -1    0    0  501  502  0.00000000000E+00  0.00000000000E+00  0.19002759593E+03  0.19002759593E+03  0.00000000000E+00 0.  1.
         21   -1    0    0  502  503 -0.00000000000E+00 -0.00000000000E+00 -0.34570615735E+03  0.34570615735E+03  0.00000000000E+00 0.  1.
         -6    2    1    2    0  503  0.10592171809E+03 -0.44731047303E+02  0.84316541030E+02  0.21803046376E+03  0.16494764951E+03 0.  0.
        -24    2    3    3    0    0  0.10404413701E+03 -0.30800267873E+02  0.23632826511E+01  0.13474770152E+03  0.79859370228E+02 0.  0.
          6    2    1    2  501    0 -0.10592171809E+03  0.44731047303E+02 -0.23999510245E+03  0.31770328953E+03  0.17354381010E+03 0.  0.
         24    2    5    5    0    0 -0.80644314887E+02 -0.38228070604E+02 -0.15270369876E+03  0.19456498714E+03  0.81069252506E+02 0.  0.
          5    1    5    5  501    0 -0.25277403199E+02  0.82959117908E+02 -0.87291403689E+02  0.12313830239E+03  0.47000000000E+01 0. -1.
        -13    1    6    6    0    0 -0.67597236741E+02  0.85434556130E+01 -0.11249984877E+03  0.13152411575E+03  0.00000000000E+00 0.  1.
         14    1    6    6    0    0 -0.13047078146E+02 -0.46771526217E+02 -0.40203849984E+02  0.63040871396E+02  0.00000000000E+00 0. -1.
         -5    1    3    3    0  503  0.18775810728E+01 -0.13930779431E+02  0.81953258379E+02  0.83282762233E+02  0.47000000000E+01 0.  1.
         11    1    4    4    0    0 -0.29178845026E+01  0.97029348813E+01 -0.15970789304E+02  0.18913675113E+02  0.00000000000E+00 0. -1.
        -12    1    4    4    0    0  0.10696202152E+03 -0.40503202754E+02  0.18334071955E+02  0.11583402641E+03  0.00000000000E+00 0.  1.
<mgrwt>
<rscale>  2 0.20637643E+03</rscale>
<asrwt>0</asrwt>
<pdfrwt beam="1">  1       21 0.29235015E-01 0.20817716E+03</pdfrwt>
<pdfrwt beam="2">  1       21 0.53185562E-01 0.20817716E+03</pdfrwt>
<totfact> 0.37213468E+04</totfact>
</mgrwt>
</event>
<event>
12    1  0.1071811E-001  0.2138459E+03  0.7546771E-02  0.1138613E+00
         21   -1    0    0  503  502  0.00000000000E+00  0.00000000000E+00  0.72586213897E+03  0.72586213897E+03  0.00000000000E+00 0. -1.
         21   -1    0    0  501  503 -0.00000000000E+00 -0.00000000000E+00 -0.11382632907E+03  0.11382632907E+03  0.00000000000E+00 0. -1.
          6    2    1    2  501    0  0.84613892535E+02 -0.88410404614E+02  0.25348085311E+02  0.21534301068E+03  0.17536868696E+03 0.  0.
         24    2    3    3    0    0  0.63998616521E+02 -0.50477352045E+02 -0.53693594931E+02  0.12515662979E+03  0.78341520653E+02 0.  0.
         -6    2    1    2    0  502 -0.84613892535E+02  0.88410404614E+02  0.58668772459E+03  0.62434545737E+03  0.17501100964E+03 0.  0.
        -24    2    5    5    0    0 -0.75373751517E+02 -0.56060170236E+01  0.21903302926E+03  0.24471862383E+03  0.78734408600E+02 0.  0.
          5    1    3    3  501    0  0.20615276013E+02 -0.37933052569E+02  0.79041680242E+02  0.90186380888E+02  0.47000000000E+01 0. -1.
        -11    1    4    4    0    0  0.14955171467E+01  0.11039007546E+01  0.17311871715E+02  0.17411377621E+02  0.00000000000E+00 0.  1.
         12    1    4    4    0    0  0.62503099375E+02 -0.51581252800E+02 -0.71005466645E+02  0.10774525217E+03  0.00000000000E+00 0. -1.
         -5    1    5    5    0  502 -0.92401410180E+01  0.94016421638E+02  0.36765469533E+03  0.37962683354E+03  0.47000000000E+01 0.  1.
         13    1    6    6    0    0 -0.74712657245E+02  0.22216229216E+02  0.13147112530E+03  0.15284043569E+03  0.00000000000E+00 0. -1.
        -14    1    6    6    0    0 -0.66109427227E+00 -0.27822246239E+02  0.87561903957E+02  0.91878188140E+02  0.00000000000E+00 0.  1.
<mgrwt>
<rscale>  2 0.21377260E+03</rscale>
<asrwt>0</asrwt>
<pdfrwt beam="1">  1       21 0.11167110E+00 0.21384594E+03</pdfrwt>
<pdfrwt beam="2">  1       21 0.17511743E-01 0.21384594E+03</pdfrwt>
<totfact> 0.18353203E+04</totfact>
</mgrwt>
</event>
<event>
12    1  0.1071811E-001  0.1925742E+03  0.7546771E-02  0.1156169E+00
         21   -1    0    0  503  502  0.00000000000E+00  0.00000000000E+00  0.24020428738E+03  0.24020428738E+03  0.00000000000E+00 0. -1.
         21   -1    0    0  501  503 -0.00000000000E+00 -0.00000000000E+00 -0.22162294336E+03  0.22162294336E+03  0.00000000000E+00 0. -1.
          6    2    1    2  501    0 -0.12511210636E+02  0.82745172185E+02 -0.11792482488E+03  0.22581205042E+03  0.17344026026E+03 0.  0.
         24    2    3    3    0    0 -0.51887445475E+02  0.10179573292E+03 -0.56687954967E+02  0.15041008777E+03  0.79718203869E+02 0.  0.
         -6    2    1    2    0  502  0.12511210636E+02 -0.82745172185E+02  0.13650616890E+03  0.23601518032E+03  0.17339532082E+03 0.  0.
        -24    2    5    5    0    0  0.31786802564E+02 -0.57376097458E+02  0.83558740201E+01  0.10387992206E+03  0.80117415090E+02 0.  0.
          5    1    3    3  501    0  0.39376234839E+02 -0.19050560730E+02 -0.61236869913E+02  0.75401962647E+02  0.47000000000E+01 0. -1.
        -11    1    4    4    0    0 -0.67479635075E+02  0.93988677549E+02 -0.31751107060E+02  0.11998127127E+03  0.00000000000E+00 0.  1.
         12    1    4    4    0    0  0.15592189600E+02  0.78070553674E+01 -0.24936847907E+02  0.30428816500E+02  0.00000000000E+00 0. -1.
         -5    1    5    5    0  502 -0.19275591928E+02 -0.25369074728E+02  0.12815029488E+03  0.13213525826E+03  0.47000000000E+01 0.  1.
         13    1    6    6    0    0 -0.23092870148E+02 -0.31874537198E+02  0.16766363895E+02  0.42782914014E+02  0.00000000000E+00 0. -1.
        -14    1    6    6    0    0  0.54879672713E+02 -0.25501560260E+02 -0.84104898748E+01  0.61097008050E+02  0.00000000000E+00 0.  1.
<mgrwt>
<rscale>  2 0.19256407E+03</rscale>
<asrwt>0</asrwt>
<pdfrwt beam="1">  1       21 0.36954506E-01 0.19257419E+03</pdfrwt>
<pdfrwt beam="2">  1       21 0.34095837E-01 0.19257419E+03</pdfrwt>
<totfact> 0.58539694E+04</totfact>
</mgrwt>
</event>
<event>
12    1  0.1071811E-001  0.2101909E+03  0.7546771E-02  0.1141471E+00
         21   -1    0    0  503  502  0.00000000000E+00  0.00000000000E+00  0.24143656607E+03  0.24143656607E+03  0.00000000000E+00 0.  1.
         21   -1    0    0  501  503 -0.00000000000E+00 -0.00000000000E+00 -0.20773836872E+03  0.20773836872E+03  0.00000000000E+00 0.  1.
          6    2    1    2  501    0 -0.12309499171E+02 -0.11766385380E+03 -0.61046734448E+02  0.21887647057E+03  0.17373514129E+03 0.  0.
         24    2    3    3    0    0 -0.28629538445E+02 -0.13948564451E+03 -0.12124071137E+02  0.16267992960E+03  0.77729472509E+02 0.  0.
         -6    2    1    2    0  502  0.12309499171E+02  0.11766385380E+03  0.94744931791E+02  0.23029846422E+03  0.17339110202E+03 0.  0.
        -24    2    5    5    0    0  0.33190532232E+01  0.13674395379E+03  0.11856010929E+03  0.19814055674E+03  0.80580740238E+02 0.  0.
          5    1    3    3  501    0  0.16320039275E+02  0.21821790709E+02 -0.48922663311E+02  0.56196540971E+02  0.47000000000E+01 0. -1.
        -13    1    4    4    0    0  0.26177334934E+02 -0.56923482062E+02  0.13629061327E+01  0.62668917235E+02  0.00000000000E+00 0.  1.
         14    1    4    4    0    0 -0.54806873379E+02 -0.82562162452E+02 -0.13486977269E+02  0.10001101236E+03  0.00000000000E+00 0. -1.
         -5    1    5    5    0  502  0.89904459475E+01 -0.19080099987E+02 -0.23815177501E+02  0.32157907476E+02  0.47000000000E+01 0.  1.
         13    1    6    6    0    0  0.22947327577E+02  0.85922363504E+02  0.11237741434E+03  0.14331055665E+03  0.00000000000E+00 0. -1.
        -14    1    6    6    0    0 -0.19628274354E+02  0.50821590288E+02  0.61826949547E+01  0.54830000095E+02  0.00000000000E+00 0.  1.
<mgrwt>
<rscale>  2 0.21011977E+03</rscale>
<asrwt>0</asrwt>
<pdfrwt beam="1">  1       21 0.37144087E-01 0.21019088E+03</pdfrwt>
<pdfrwt beam="2">  1       21 0.31959749E-01 0.21019088E+03</pdfrwt>
<totfact> 0.65300141E+04</totfact>
</mgrwt>
</event>
<event>
12    1  0.1071811E-001  0.2250846E+03  0.7546771E-02  0.1130200E+00
         21   -1    0    0  503  502  0.00000000000E+00  0.00000000000E+00  0.32768673033E+03  0.32768673033E+03  0.00000000000E+00 0. -1.
         21   -1    0    0  501  503 -0.00000000000E+00 -0.00000000000E+00 -0.16296076559E+03  0.16296076559E+03  0.00000000000E+00 0. -1.
          6    2    1    2  501    0 -0.13857018608E+03  0.37136157168E+02  0.13860164785E+03  0.26433598554E+03  0.17344251446E+03 0.  0.
         24    2    3    3    0    0 -0.21137158863E+02  0.31363791248E+02  0.11179597432E+03  0.14365263862E+03  0.81897947601E+02 0.  0.
         -6    2    1    2    0  502  0.13857018608E+03 -0.37136157168E+02  0.26124316884E+02  0.22631151039E+03  0.17307116791E+03 0.  0.
        -24    2    5    5    0    0  0.11219284626E+03 -0.43333460383E+02 -0.42374725889E+02  0.15249837142E+03  0.83636788266E+02 0.  0.
          5    1    3    3  501    0 -0.11743302722E+03  0.57723659196E+01  0.26805673527E+02  0.12068334692E+03  0.47000000000E+01 0. -1.
        -11    1    4    4    0    0 -0.15070063470E+02  0.22410228097E+02 -0.40455140582E+01  0.27307349201E+02  0.00000000000E+00 0.  1.
         12    1    4    4    0    0 -0.60670953928E+01  0.89535631507E+01  0.11584148838E+03  0.11634528942E+03  0.00000000000E+00 0. -1.
         -5    1    5    5    0  502  0.26377339818E+02  0.61973032151E+01  0.68499042774E+02  0.73813138965E+02  0.47000000000E+01 0.  1.
         11    1    6    6    0    0  0.81249715589E+02 -0.20282487507E+02  0.13266583116E+02  0.84787368224E+02  0.00000000000E+00 0. -1.
        -12    1    6    6    0    0  0.30943130673E+02 -0.23050972876E+02 -0.55641309006E+02  0.67711003199E+02  0.00000000000E+00 0.  1.
<mgrwt>
<rscale>  2 0.22501310E+03</rscale>
<asrwt>0</asrwt>
<pdfrwt beam="1">  1       21 0.50413343E-01 0.22508464E+03</pdfrwt>
<pdfrwt beam="2">  1       21 0.25070887E-01 0.22508464E+03</pdfrwt>
<totfact> 0.55595901E+04</totfact>
</mgrwt>
</event>
<event>
12    1  0.1071811E-001  0.2631100E+03  0.7546771E-02  0.1105412E+00
         21   -1    0    0  501  502  0.00000000000E+00  0.00000000000E+00  0.28661851873E+03  0.28661851873E+03  0.00000000000E+00 0.  1.
         21   -1    0    0  502  503 -0.00000000000E+00 -0.00000000000E+00 -0.10946507937E+04  0.10946507937E+04  0.00000000000E+00 0. -1.
         -6    2    1    2    0  503 -0.16054546691E+02  0.19794447174E+03 -0.10141282120E+04  0.10477036285E+04  0.17258939826E+03 0.  0.
        -24    2    3    3    0    0 -0.57980895691E+02  0.14187627408E+03 -0.87306253897E+03  0.89015022281E+03  0.81477363820E+02 0.  0.
          6    2    1    2  501    0  0.16054546691E+02 -0.19794447174E+03  0.20609593705E+03  0.33356568395E+03  0.17132065806E+03 0.  0.
         24    2    5    5    0    0  0.12338066951E+02 -0.13803447208E+02  0.80771409806E+02  0.11074275814E+03  0.73465466631E+02 0.  0.
          5    1    5    5  501    0  0.37164797398E+01 -0.18414102453E+03  0.12532452724E+03  0.22282292581E+03  0.47000000000E+01 0. -1.
        -13    1    6    6    0    0  0.23742329161E+02 -0.15082592263E+02  0.91075288401E+02  0.95319939891E+02  0.00000000000E+00 0.  1.
         14    1    6    6    0    0 -0.11404262210E+02  0.12791450542E+01 -0.10303878595E+02  0.15422818249E+02  0.00000000000E+00 0. -1.
         -5    1    3    3    0  503  0.41926349000E+02  0.56068197663E+02 -0.14106567308E+03  0.15755340571E+03  0.47000000000E+01 0.  1.
         13    1    4    4    0    0 -0.51055828839E+01  0.72520402896E+02 -0.57539742900E+03  0.57997196235E+03  0.00000000000E+00 0. -1.
        -14    1    4    4    0    0 -0.52875312807E+02  0.69355871182E+02 -0.29766510996E+03  0.31017826046E+03  0.00000000000E+00 0.  1.
<mgrwt>
<rscale>  2 0.26290211E+03</rscale>
<asrwt>0</asrwt>
<pdfrwt beam="1">  1       21 0.44095157E-01 0.26310998E+03</pdfrwt>
<pdfrwt beam="2">  1       21 0.16840781E+00 0.26310998E+03</pdfrwt>
<totfact> 0.10134133E+03</totfact>
</mgrwt>
</event>
<event>
12    1  0.1071811E-001  0.1731766E+03  0.7546771E-02  0.1174584E+00
         21   -1    0    0  503  502  0.00000000000E+00  0.00000000000E+00  0.86813853651E+02  0.86813853651E+02  0.00000000000E+00 0.  1.
         21   -1    0    0  501  503 -0.00000000000E+00 -0.00000000000E+00 -0.57975040186E+03  0.57975040186E+03  0.00000000000E+00 0.  1.
          6    2    1    2  501    0 -0.11235027347E+02  0.99764284193E+01 -0.34578016109E+02  0.17659498905E+03  0.17252360996E+03 0.  0.
         24    2    3    3    0    0 -0.17764841222E+02 -0.16436646354E+02 -0.84414736220E+02  0.11962062938E+03  0.81224961403E+02 0.  0.
         -6    2    1    2    0  502  0.11235027347E+02 -0.99764284193E+01 -0.45835853210E+03  0.48996926646E+03  0.17248647241E+03 0.  0.
        -24    2    5    5    0    0  0.30690251170E+02 -0.28667887353E+02 -0.12988853510E+03  0.16035964085E+03  0.84145371704E+02 0.  0.
          5    1    3    3  501    0  0.65298138747E+01  0.26413074773E+02  0.49836720111E+02  0.56974359669E+02  0.47000000000E+01 0. -1.
        -13    1    4    4    0    0 -0.42751692288E+02 -0.29302313722E+02 -0.34263819106E+02  0.62131651215E+02  0.00000000000E+00 0.  1.
         14    1    4    4    0    0  0.24986851066E+02  0.12865667368E+02 -0.50150917114E+02  0.57488978164E+02  0.00000000000E+00 0. -1.
         -5    1    5    5    0  502 -0.19455223822E+02  0.18691458934E+02 -0.32846999700E+03  0.32960962561E+03  0.47000000000E+01 0.  1.
         11    1    6    6    0    0  0.35734347970E+02 -0.41607185221E+02 -0.13487803077E+03  0.14560283195E+03  0.00000000000E+00 0. -1.
        -12    1    6    6    0    0 -0.50440968002E+01  0.12939297868E+02  0.49894956678E+01  0.14756808898E+02  0.00000000000E+00 0.  1.
<mgrwt>
<rscale>  2 0.17316740E+03</rscale>
<asrwt>0</asrwt>
<pdfrwt beam="1">  1       21 0.13355978E-01 0.17317665E+03</pdfrwt>
<pdfrwt beam="2">  1       21 0.89192369E-01 0.17317665E+03</pdfrwt>
<totfact> 0.52434868E+04</totfact>
</mgrwt>
</event>
<event>
12    1  0.1071811E-001  0.1879973E+03  0.7546771E-02  0.1160314E+00
         21   -1    0    0  501  502  0.00000000000E+00  0.00000000000E+00  0.19497308011E+03  0.19497308011E+03  0.00000000000E+00 0.  1.
         21   -1    0    0  502  503 -0.00000000000E+00 -0.00000000000E+00 -0.18884375410E+03  0.18884375410E+03  0.00000000000E+00 0.  1.
         -6    2    1    2    0  503 -0.68957876185E+02 -0.27074950364E+02  0.41852853303E+02  0.19259972451E+03  0.17278527404E+03 0.  0.
        -24    2    3    3    0    0  0.34566520073E+01 -0.63086951473E+02  0.24796143412E+01  0.10252714231E+03  0.80707834399E+02 0.  0.
          6    2    1    2  501    0  0.68957876185E+02  0.27074950364E+02 -0.35723527285E+02  0.19121710970E+03  0.17262552250E+03 0.  0.
         24    2    5    5    0    0  0.90781859412E+02 -0.11084259736E+02 -0.64694083188E+02  0.13836075088E+03  0.81204471375E+02 0.  0.
          5    1    5    5  501    0 -0.21823983226E+02  0.38159210100E+02  0.28970555903E+02  0.52856358829E+02  0.47000000000E+01 0. -1.
        -11    1    6    6    0    0  0.31635006647E+02  0.27838253388E+02 -0.51149281228E+02  0.66272097956E+02  0.00000000000E+00 0.  1.
         12    1    6    6    0    0  0.59146852764E+02 -0.38922513124E+02 -0.13544801959E+02  0.72088652920E+02  0.00000000000E+00 0. -1.
         -5    1    3    3    0  503 -0.72414528193E+02  0.36012001109E+02  0.39373238962E+02  0.90072582197E+02  0.47000000000E+01 0.  1.
         13    1    4    4    0    0  0.35849705037E+02 -0.17988748802E+02  0.19296604001E+02  0.44510171430E+02  0.00000000000E+00 0. -1.
        -14    1    4    4    0    0 -0.32393053030E+02 -0.45098202671E+02 -0.16816989660E+02  0.58016970879E+02  0.00000000000E+00 0.  1.
<mgrwt>
<rscale>  2 0.18796061E+03</rscale>
<asrwt>0</asrwt>
<pdfrwt beam="1">  1       21 0.29995858E-01 0.18799732E+03</pdfrwt>
<pdfrwt beam="2">  1       21 0.29052885E-01 0.18799732E+03</pdfrwt>
<totfact> 0.12109725E+05</totfact>
</mgrwt>
</event>
<event>
12    1  0.1071811E-001  0.1822979E+03  0.7546771E-02  0.1166217E+00
         21   -1    0    0  501  502  0.00000000000E+00  0.00000000000E+00  0.17286168559E+03  0.17286168559E+03  0.00000000000E+00 0.  1.
         21   -1    0    0  502  503 -0.00000000000E+00 -0.00000000000E+00 -0.20266343261E+03  0.20266343261E+03  0.00000000000E+00 0. -1.
         -6    2    1    2    0  503 -0.37974507129E+02  0.32659995605E+02 -0.62587512525E+02  0.19030241846E+03  0.17259511940E+03 0.  0.
        -24    2    3    3    0    0 -0.82849764249E+02  0.54593101600E+02 -0.65330203244E+02  0.14005839202E+03  0.74187785657E+02 0.  0.
          6    2    1    2  501    0  0.37974507129E+02 -0.32659995605E+02  0.32785765502E+02  0.18522269975E+03  0.17528206862E+03 0.  0.
         24    2    5    5    0    0  0.21738394652E+02  0.44989125090E+02  0.44418466604E+02  0.10490827372E+03  0.80846561720E+02 0.  0.
          5    1    5    5  501    0  0.16236112476E+02 -0.77649120695E+02 -0.11632701101E+02  0.80314426026E+02  0.47000000000E+01 0. -1.
        -11    1    6    6    0    0 -0.12960487045E+02 -0.34592650669E+01  0.43273400691E+02  0.45304833590E+02  0.00000000000E+00 0.  1.
         12    1    6    6    0    0  0.34698881697E+02  0.48448390157E+02  0.11450659124E+01  0.59603440134E+02  0.00000000000E+00 0. -1.
         -5    1    3    3    0  503  0.44875257120E+02 -0.21933105995E+02  0.27426907185E+01  0.50244026436E+02  0.47000000000E+01 0.  1.
         11    1    4    4    0    0 -0.67789136874E+02  0.36576414436E+02 -0.71984498129E+01  0.77362903583E+02  0.00000000000E+00 0. -1.
        -12    1    4    4    0    0 -0.15060627375E+02  0.18016687164E+02 -0.58131753431E+02  0.62695488436E+02  0.00000000000E+00 0.  1.
<mgrwt>
<rscale>  2 0.18164899E+03</rscale>
<asrwt>0</asrwt>
<pdfrwt beam="1">  1       21 0.26594106E-01 0.18229795E+03</pdfrwt>
<pdfrwt beam="2">  1       21 0.31178990E-01 0.18229795E+03</pdfrwt>
<totfact> 0.13344825E+05</totfact>
</mgrwt>
</event>
<event>
12    1  0.1071811E-001  0.2197869E+03  0.7546771E-02  0.1134055E+00
         21   -1    0    0  503  502  0.00000000000E+00  0.00000000000E+00  0.78777079540E+03  0.78777079540E+03  0.00000000000E+00 0.  1.
         21   -1    0    0  501  503 -0.00000000000E+00 -0.00000000000E+00 -0.10157761940E+03  0.10157761940E+03  0.00000000000E+00 0.  1.
          6    2    1    2  501    0 -0.58911145363E+02 -0.12172811984E+03  0.63056339041E+02  0.22858688699E+03  0.17316929521E+03 0.  0.
         24    2    3    3    0    0 -0.88688856226E+02 -0.10403765797E+03  0.18954807609E+01  0.15814254661E+03  0.79472792248E+02 0.  0.
         -6    2    1    2    0  502  0.58911145363E+02  0.12172811984E+03  0.62313683696E+03  0.66076152782E+03  0.17325709470E+03 0.  0.
        -24    2    5    5    0    0  0.18538661580E+02 -0.92568908007E+01  0.22703479686E+03  0.24158862002E+03  0.79943044345E+02 0.  0.
          5    1    3    3  501    0  0.29777710864E+02 -0.17690461873E+02  0.61160858280E+02  0.70444340376E+02  0.47000000000E+01 0. -1.
        -11    1    4    4    0    0 -0.11395998398E+02 -0.42493169155E+02 -0.31210727261E+02  0.53941150345E+02  0.00000000000E+00 0.  1.
         12    1    4    4    0    0 -0.77292857829E+02 -0.61544488810E+02  0.33106208022E+02  0.10420139627E+03  0.00000000000E+00 0. -1.
         -5    1    5    5    0  502  0.40372483783E+02  0.13098501064E+03  0.39610204010E+03  0.41917290779E+03  0.47000000000E+01 0.  1.
         11    1    6    6    0    0  0.39332184930E+02  0.86381487984E+00  0.52903156081E+02  0.65928073465E+02  0.00000000000E+00 0. -1.
        -12    1    6    6    0    0 -0.20793523350E+02 -0.10120705681E+02  0.17413164078E+03  0.17566054656E+03  0.00000000000E+00 0.  1.
<mgrwt>
<rscale>  2 0.21976959E+03</rscale>
<asrwt>0</asrwt>
<pdfrwt beam="1">  1       21 0.12119550E+00 0.21978689E+03</pdfrwt>
<pdfrwt beam="2">  1       21 0.15627327E-01 0.21978689E+03</pdfrwt>
<totfact> 0.18439757E+04</totfact>
</mgrwt>
</event>
<event>
11    1  0.1071811E-001  0.3213149E+03  0.7546771E-02  0.1075056E+00
         21   -1    0    0  501  502  0.00000000000E+00  0.00000000000E+00  0.18382913658E+04  0.18382913658E+04  0.00000000000E+00 0.  1.
         21   -1    0    0  502  503 -0.00000000000E+00 -0.00000000000E+00 -0.63793565387E+02  0.63793565387E+02  0.00000000000E+00 0. -1.
         -6    2    1    2    0  503 -0.26150144357E+03 -0.67962518968E+02  0.55810167064E+03  0.64398813323E+03  0.17390035077E+03 0.  0.
          6    2    1    2  501    0  0.26150144357E+03  0.67962518968E+02  0.12163961298E+04  0.12580967979E+04  0.17374147326E+03 0.  0.
         24    2    4    4    0    0  0.17087812122E+03  0.71659000861E+02  0.56229499761E+03  0.59772066905E+03  0.82219153233E+02 0.  0.
          5    1    4    4  501    0  0.90623322346E+02 -0.36964818930E+01  0.65410113215E+03  0.66037612889E+03  0.47000000000E+01 0. -1.
        -11    1    5    5    0    0  0.51259395560E+02  0.25406252999E+02  0.30402447392E+03  0.30936044360E+03  0.00000000000E+00 0.  1.
         12    1    5    5    0    0  0.11961872566E+03  0.46252747863E+02  0.25827052369E+03  0.28836022545E+03  0.00000000000E+00 0. -1.
         -5    1    3    3    0  503  0.99498722247E+01 -0.17883074885E+02  0.32855175428E+02  0.38991753962E+02  0.47000000000E+01 0.  1.
         11    1    3    3    0    0 -0.10994975225E+03  0.51918002507E+01  0.10810619726E+03  0.15428173157E+03  0.00000000000E+00 0. -1.
        -12    1    3    3    0    0 -0.16150156355E+03 -0.55271244334E+02  0.41714029795E+03  0.45071464770E+03  0.00000000000E+00 0.  1.
<mgrwt>
<rscale>  2 0.32129337E+03</rscale>
<asrwt>0</asrwt>
<pdfrwt beam="1">  1       21 0.28281402E+00 0.32131486E+03</pdfrwt>
<pdfrwt beam="2">  1       21 0.98143961E-02 0.32131486E+03</pdfrwt>
<totfact> 0.32057350E+03</totfact>
</mgrwt>
</event>
<event>
12    1  0.1071811E-001  0.1766677E+03  0.7546771E-02  0.1171716E+00
         21   -1    0    0  501  502  0.00000000000E+00  0.00000000000E+00  0.75869138238E+02  0.75869138238E+02  0.00000000000E+00 0. -1.
         21   -1    0    0  502  503 -0.00000000000E+00 -0.00000000000E+00 -0.63126465419E+03  0.63126465419E+03  0.00000000000E+00 0. -1.
         -6    2    1    2    0  503 -0.30593525193E+02  0.70545965383E+01 -0.48788015389E+03  0.51800471050E+03  0.17121946277E+03 0.  0.
        -24    2    3    3    0    0 -0.56854417714E+02  0.82662611157E+01 -0.47992641906E+03  0.49013977726E+03  0.81282702061E+02 0.  0.
          6    2    1    2  501    0  0.30593525193E+02 -0.70545965383E+01 -0.67515362067E+02  0.18912908193E+03  0.17385555614E+03 0.  0.
         24    2    5    5    0    0 -0.14401564540E+02 -0.10527989832E+02 -0.99379844285E+02  0.13368489569E+03  0.87618800797E+02 0.  0.
          5    1    5    5  501    0  0.44995089733E+02  0.34733932933E+01  0.31864482218E+02  0.55444186243E+02  0.47000000000E+01 0. -1.
        -11    1    6    6    0    0  0.33340981997E+02  0.65014216322E+01 -0.62028757646E+02  0.70720975240E+02  0.00000000000E+00 0.  1.
         12    1    6    6    0    0 -0.47742546537E+02 -0.17029411464E+02 -0.37351086639E+02  0.62963920445E+02  0.00000000000E+00 0. -1.
         -5    1    3    3    0  503  0.26260892521E+02 -0.12116645774E+01 -0.79537348317E+01  0.27864933247E+02  0.47000000000E+01 0.  1.
         13    1    4    4    0    0 -0.10695014547E+02 -0.25141638923E+02 -0.30378650438E+03  0.30501266463E+03  0.00000000000E+00 0. -1.
        -14    1    4    4    0    0 -0.46159403167E+02  0.33407900039E+02 -0.17613991468E+03  0.18512711263E+03  0.00000000000E+00 0.  1.
<mgrwt>
<rscale>  2 0.17601575E+03</rscale>
<asrwt>0</asrwt>
<pdfrwt beam="1">  1       21 0.11672175E-01 0.17666773E+03</pdfrwt>
<pdfrwt beam="2">  1       21 0.97117640E-01 0.17666773E+03</pdfrwt>
<totfact> 0.54664108E+04</totfact>
</mgrwt>
</event>
<event>
12    1  0.1071811E-001  0.1811658E+03  0.7546771E-02  0.1166748E+00
         21   -1    0    0  501  502  0.00000000000E+00  0.00000000000E+00  0.10590317458E+03  0.10590317458E+03  0.00000000000E+00 0.  1.
         21   -1    0    0  502  503 -0.00000000000E+00 -0.00000000000E+00 -0.13792719111E+04  0.13792719111E+04  0.00000000000E+00 0.  1.
         -6    2    1    2    0  503 -0.33700298063E+01 -0.48162077538E+02 -0.12908048817E+04  0.13034562847E+04  0.17461414743E+03 0.  0.
        -24    2    3    3    0    0 -0.69160224428E+02 -0.30712086423E+02 -0.69720827213E+03  0.70595157602E+03  0.80881914370E+02 0.  0.
          6    2    1    2  501    0  0.33700298063E+01  0.48162077538E+02  0.17436145193E+02  0.18171880104E+03  0.17431798725E+03 0.  0.
         24    2    5    5    0    0 -0.18148785818E+02  0.81731424071E+02  0.53462294050E+02  0.12777499830E+03  0.80366841414E+02 0.  0.
          5    1    5    5  501    0  0.21518815624E+02 -0.33569346533E+02 -0.36026148857E+02  0.53943802739E+02  0.47000000000E+01 0. -1.
        -11    1    6    6    0    0 -0.13030687134E+02  0.58587422131E+02  0.74786003865E+02  0.95891768225E+02  0.00000000000E+00 0.  1.
         12    1    6    6    0    0 -0.51180986843E+01  0.23144001939E+02 -0.21323709815E+02  0.31883230078E+02  0.00000000000E+00 0. -1.
         -5    1    3    3    0  503  0.65790194622E+02 -0.17449991115E+02 -0.59359660962E+03  0.59750470864E+03  0.47000000000E+01 0.  1.
         13    1    4    4    0    0 -0.49385877947E+02 -0.54285013058E+02 -0.36391601834E+03  0.37124209889E+03  0.00000000000E+00 0. -1.
        -14    1    4    4    0    0 -0.19774346481E+02  0.23572926635E+02 -0.33329225379E+03  0.33470947714E+03  0.00000000000E+00 0.  1.
<mgrwt>
<rscale>  2 0.18109439E+03</rscale>
<asrwt>0</asrwt>
<pdfrwt beam="1">  1       21 0.16292797E-01 0.18116579E+03</pdfrwt>
<pdfrwt beam="2">  1       21 0.21219567E+00 0.18116579E+03</pdfrwt>
<totfact> 0.38362918E+03</totfact>
</mgrwt>
</event>
<event>
12    1  0.1071811E-001  0.2750441E+03  0.7546771E-02  0.1098490E+00
         21   -1    0    0  501  502  0.00000000000E+00  0.00000000000E+00  0.48150189123E+03  0.48150189123E+03  0.00000000000E+00 0.  1.
         21   -1    0    0  502  503 -0.00000000000E+00 -0.00000000000E+00 -0.18956509213E+03  0.18956509213E+03  0.00000000000E+00 0. -1.
         -6    2    1    2    0  503  0.71487735651E+02 -0.20117483384E+03  0.28525040660E+03  0.39594164504E+03  0.17268520982E+03 0.  0.
        -24    2    3    3    0    0  0.22219532434E+02 -0.17823291529E+03  0.14687141819E+03  0.24719850433E+03  0.85294826020E+02 0.  0.
          6    2    1    2  501    0 -0.71487735651E+02  0.20117483384E+03  0.66863924985E+01  0.27512533832E+03  0.17339963617E+03 0.  0.
         24    2    5    5    0    0 -0.32796983004E+02  0.14064409591E+03 -0.62308966788E+02  0.17540876910E+03  0.77649372992E+02 0.  0.
          5    1    5    5  501    0 -0.38690752647E+02  0.60530737925E+02  0.68995359287E+02  0.99716569221E+02  0.47000000000E+01 0. -1.
        -11    1    6    6    0    0 -0.48380261475E+01  0.11545829648E+02 -0.39406191243E+02  0.41346832860E+02  0.00000000000E+00 0.  1.
         12    1    6    6    0    0 -0.27958956856E+02  0.12909826626E+03 -0.22902775545E+02  0.13406193624E+03  0.00000000000E+00 0. -1.
         -5    1    3    3    0  503  0.49268203217E+02 -0.22941918548E+02  0.13837898841E+03  0.14874314071E+03  0.47000000000E+01 0.  1.
         11    1    4    4    0    0  0.35780830454E+02 -0.27469214908E+02  0.18624070710E+02  0.48802475403E+02  0.00000000000E+00 0. -1.
        -12    1    4    4    0    0 -0.13561298020E+02 -0.15076370038E+03  0.12824734748E+03  0.19839602892E+03  0.00000000000E+00 0.  1.
<mgrwt>
<rscale>  2 0.27493155E+03</rscale>
<asrwt>0</asrwt>
<pdfrwt beam="1">  1       21 0.74077214E-01 0.27504408E+03</pdfrwt>
<pdfrwt beam="2">  1       21 0.29163860E-01 0.27504408E+03</pdfrwt>
<totfact> 0.17607288E+04</totfact>
</mgrwt>
</event>
<event>
12    1  0.1071811E-001  0.2701555E+03  0.7546771E-02  0.1101245E+00
         21   -1    0    0  503  502  0.00000000000E+00  0.00000000000E+00  0.10169852947E+03  0.10169852947E+03  0.00000000000E+00 0. -1.
         21   -1    0    0  501  503 -0.00000000000E+00 -0.00000000000E+00 -0.10342253234E+04  0.10342253234E+04  0.00000000000E+00 0. -1.
          6    2    1    2  501    0 -0.30134351365E+02  0.20396642932E+03 -0.78076552065E+03  0.82606019534E+03  0.17398351834E+03 0.  0.
         24    2    3    3    0    0 -0.82343874107E+02  0.14974981236E+03 -0.48361742606E+03  0.51949151471E+03  0.82341357545E+02 0.  0.
         -6    2    1    2    0  502  0.30134351365E+02 -0.20396642932E+03 -0.15176127327E+03  0.30986365752E+03  0.17456694636E+03 0.  0.
        -24    2    5    5    0    0  0.46053838539E+02 -0.77093824059E+02 -0.13703200534E+02  0.12162920401E+03  0.80879365796E+02 0.  0.
          5    1    3    3  501    0  0.52209522742E+02  0.54216616963E+02 -0.29714809460E+03  0.30656868063E+03  0.47000000000E+01 0. -1.
        -11    1    4    4    0    0 -0.13681869504E+02  0.50750078704E+02 -0.63457727274E+02  0.82399315485E+02  0.00000000000E+00 0.  1.
         12    1    4    4    0    0 -0.68662004603E+02  0.98999733657E+02 -0.42015969878E+03  0.43709219922E+03  0.00000000000E+00 0. -1.
         -5    1    5    5    0  502 -0.15919487174E+02 -0.12687260527E+03 -0.13805807273E+03  0.18823445350E+03  0.47000000000E+01 0.  1.
         13    1    6    6    0    0 -0.99321393895E+01  0.11982369245E+02 -0.32744360457E+01  0.15904291779E+02  0.00000000000E+00 0. -1.
        -14    1    6    6    0    0  0.55985977929E+02 -0.89076193303E+02 -0.10428764488E+02  0.10572491223E+03  0.00000000000E+00 0.  1.
<mgrwt>
<rscale>  2 0.27006131E+03</rscale>
<asrwt>0</asrwt>
<pdfrwt beam="1">  1       21 0.15645927E-01 0.27015551E+03</pdfrwt>
<pdfrwt beam="2">  1       21 0.15911160E+00 0.27015551E+03</pdfrwt>
<totfact> 0.88052553E+03</totfact>
</mgrwt>
</event>
<event>
12    1  0.1071811E-001  0.3475548E+03  0.7546771E-02  0.1063688E+00
         21   -1    0    0  503  502  0.00000000000E+00  0.00000000000E+00  0.67563554640E+02  0.67563554640E+02  0.00000000000E+00 0.  1.
         21   -1    0    0  501  503 -0.00000000000E+00 -0.00000000000E+00 -0.18618766822E+04  0.18618766822E+04  0.00000000000E+00 0. -1.
          6    2    1    2  501    0 -0.61321145579E+02 -0.29483000670E+03 -0.10944217663E+04  0.11482827847E+04  0.17352041771E+03 0.  0.
         24    2    3    3    0    0 -0.37560809182E+02 -0.27608898428E+03 -0.10724265705E+04  0.11105779024E+04  0.75157080376E+02 0.  0.
         -6    2    1    2    0  502  0.61321145579E+02  0.29483000670E+03 -0.69989136128E+03  0.78115745215E+03  0.17226152128E+03 0.  0.
        -24    2    5    5    0    0 -0.12159787642E+02  0.21833526518E+03 -0.39080785355E+03  0.45434619504E+03  0.76691186529E+02 0.  0.
          5    1    3    3  501    0 -0.23760336396E+02 -0.18741022421E+02 -0.21995195844E+02  0.37704882273E+02  0.47000000000E+01 0. -1.
        -11    1    4    4    0    0  0.18452848387E+02 -0.39021959237E+02 -0.12123660716E+03  0.12869163078E+03  0.00000000000E+00 0.  1.
         12    1    4    4    0    0 -0.56013657569E+02 -0.23706702504E+03 -0.95118996331E+03  0.98188627167E+03  0.00000000000E+00 0. -1.
         -5    1    5    5    0  502  0.73480933221E+02  0.76494741522E+02 -0.30908350773E+03  0.32681125712E+03  0.47000000000E+01 0.  1.
         13    1    6    6    0    0 -0.29732514375E+02  0.34890346552E+02 -0.58057637486E+02  0.73973292234E+02  0.00000000000E+00 0. -1.
        -14    1    6    6    0    0  0.17572726733E+02  0.18344491863E+03 -0.33275021607E+03  0.38037290281E+03  0.00000000000E+00 0.  1.
<mgrwt>
<rscale>  2 0.34739801E+03</rscale>
<asrwt>0</asrwt>
<pdfrwt beam="1">  1       21 0.10394393E-01 0.34755482E+03</pdfrwt>
<pdfrwt beam="2">  1       21 0.28644256E+00 0.34755482E+03</pdfrwt>
<totfact> 0.27048857E+03</totfact>
</mgrwt>
</event>
<event>
12    1  0.1071811E-001  0.2046734E+03  0.7546771E-02  0.1145924E+00
         21   -1    0    0  501  502  0.00000000000E+00  0.00000000000E+00  0.27624156541E+03  0.27624156541E+03  0.00000000000E+00 0. -1.
         21   -1    0    0  502  503 -0.00000000000E+00 -0.00000000000E+00 -0.41116644242E+03  0.41116644242E+03  0.00000000000E+00 0.  1.
         -6    2    1    2    0  503  0.94329079032E+02  0.53421825054E+02 -0.34063570598E+03  0.39722160372E+03  0.17320638479E+03 0.  0.
        -24    2    3    3    0    0  0.56535241429E+02  0.80129735471E+02 -0.13112425295E+03  0.18260840378E+03  0.80840901703E+02 0.  0.
          6    2    1    2  501    0 -0.94329079032E+02 -0.53421825054E+02  0.20571082897E+03  0.29018640411E+03  0.17360684730E+03 0.  0.
         24    2    5    5    0    0 -0.25098671212E+02  0.20201116740E+02  0.36032672730E+02  0.92636527797E+02  0.79026225799E+02 0.  0.
          5    1    5    5  501    0 -0.69230407820E+02 -0.73622941794E+02  0.16967815624E+03  0.19754987631E+03  0.47000000000E+01 0. -1.
        -13    1    6    6    0    0 -0.38890320363E+02  0.94881528178E+01  0.54236911849E+02  0.67410122896E+02  0.00000000000E+00 0.  1.
         14    1    6    6    0    0  0.13791649151E+02  0.10712963922E+02 -0.18204239120E+02  0.25226404901E+02  0.00000000000E+00 0. -1.
         -5    1    3    3    0  503  0.37793837603E+02 -0.26707910417E+02 -0.20951145303E+03  0.21461319995E+03  0.47000000000E+01 0.  1.
         11    1    4    4    0    0  0.30498329370E+02 -0.12011809077E+01 -0.59779944805E+01  0.31101886566E+02  0.00000000000E+00 0. -1.
        -12    1    4    4    0    0  0.26036912059E+02  0.81330916379E+02 -0.12514625847E+03  0.15150651721E+03  0.00000000000E+00 0.  1.
<mgrwt>
<rscale>  2 0.20458846E+03</rscale>
<asrwt>0</asrwt>
<pdfrwt beam="1">  1       21 0.42498702E-01 0.20467341E+03</pdfrwt>
<pdfrwt beam="2">  1       21 0.63256376E-01 0.20467341E+03</pdfrwt>
<totfact> 0.12217875E+04</totfact>
</mgrwt>
</event>
<event>
12    1  0.1071811E-001  0.1808086E+03  0.7546771E-02  0.1167139E+00
         21   -1    0    0  503  502  0.00000000000E+00  0.00000000000E+00  0.21694103917E+03  0.21694103917E+03  0.00000000000E+00 0.  1.
         21   -1    0    0  501  503 -0.00000000000E+00 -0.00000000000E+00 -0.16858796826E+03  0.16858796826E+03  0.00000000000E+00 0.  1.
          6    2    1    2  501    0 -0.37146060235E+02  0.39202539534E+02  0.87648398440E+02  0.20049960466E+03  0.17204993700E+03 0.  0.
         24    2    3    3    0    0 -0.23248921498E+02  0.34184386755E+01 -0.20066037669E+02  0.86052577236E+02  0.80313150277E+02 0.  0.
         -6    2    1    2    0  502  0.37146060235E+02 -0.39202539534E+02 -0.39295327529E+02  0.18502940277E+03  0.17255459491E+03 0.  0.
        -24    2    5    5    0    0  0.70455962594E+02 -0.67177526373E+02 -0.56955579887E+02  0.13784758426E+03  0.79253742451E+02 0.  0.
          5    1    3    3  501    0 -0.13897138737E+02  0.35784100858E+02  0.10771443611E+03  0.11444702742E+03  0.47000000000E+01 0. -1.
        -13    1    4    4    0    0 -0.24734533281E+02  0.26532906908E+02  0.18763563716E+02  0.40839485904E+02  0.00000000000E+00 0.  1.
         14    1    4    4    0    0  0.14856117825E+01 -0.23114468233E+02 -0.38829601385E+02  0.45213091332E+02  0.00000000000E+00 0. -1.
         -5    1    5    5    0  502 -0.33309902359E+02  0.27974986839E+02  0.17660252358E+02  0.47181818502E+02  0.47000000000E+01 0.  1.
         13    1    6    6    0    0  0.54426679616E+02 -0.12335556332E+01 -0.10074504997E+02  0.55364977779E+02  0.00000000000E+00 0. -1.
        -14    1    6    6    0    0  0.16029282978E+02 -0.65943970740E+02 -0.46881074890E+02  0.82482606485E+02  0.00000000000E+00 0.  1.
<mgrwt>
<rscale>  2 0.18068811E+03</rscale>
<asrwt>0</asrwt>
<pdfrwt beam="1">  1       21 0.33375544E-01 0.18080862E+03</pdfrwt>
<pdfrwt beam="2">  1       21 0.25936611E-01 0.18080862E+03</pdfrwt>
<totfact> 0.12255856E+05</totfact>
</mgrwt>
</event>
<event>
12    1  0.1071811E-001  0.1736115E+03  0.7546771E-02  0.1174260E+00
         21   -1    0    0  503  502  0.00000000000E+00  0.00000000000E+00  0.35922565998E+02  0.35922565998E+02  0.00000000000E+00 0.  1.
         21   -1    0    0  501  503 -0.00000000000E+00 -0.00000000000E+00 -0.91283049107E+03  0.91283049107E+03  0.00000000000E+00 0.  1.
          6    2    1    2  501    0 -0.15418503911E+02  0.22061034447E+00 -0.30198505293E+03  0.34833308569E+03  0.17292538121E+03 0.  0.
         24    2    3    3    0    0  0.34103349832E+02 -0.42704933181E+02 -0.12110226252E+03  0.15588649530E+03  0.81535830431E+02 0.  0.
         -6    2    1    2    0  502  0.15418503911E+02 -0.22061034447E+00 -0.57492287214E+03  0.60041997137E+03  0.17242405337E+03 0.  0.
        -24    2    5    5    0    0  0.44329242047E+02  0.39292816778E+02 -0.21936799466E+03  0.24147916483E+03  0.81736545155E+02 0.  0.
          5    1    3    3  501    0 -0.49521853743E+02  0.42925543526E+02 -0.18088279041E+03  0.19244659039E+03  0.47000000000E+01 0. -1.
        -13    1    4    4    0    0  0.29426727459E+02 -0.36235646916E+02 -0.13334044323E+03  0.14127500911E+03  0.00000000000E+00 0.  1.
         14    1    4    4    0    0  0.46766223735E+01 -0.64692862655E+01  0.12238180718E+02  0.14611486197E+02  0.00000000000E+00 0. -1.
         -5    1    5    5    0  502 -0.28910738136E+02 -0.39513427122E+02 -0.35555487748E+03  0.35894080654E+03  0.47000000000E+01 0.  1.
         13    1    6    6    0    0  0.67734966377E+02  0.20639862802E+02 -0.16105906536E+03  0.17593763708E+03  0.00000000000E+00 0. -1.
        -14    1    6    6    0    0 -0.23405724330E+02  0.18652953976E+02 -0.58308929297E+02  0.65541527746E+02  0.00000000000E+00 0.  1.
<mgrwt>
<rscale>  2 0.17348657E+03</rscale>
<asrwt>0</asrwt>
<pdfrwt beam="1">  1       21 0.55265489E-02 0.17361154E+03</pdfrwt>
<pdfrwt beam="2">  1       21 0.14043545E+00 0.17361154E+03</pdfrwt>
<totfact> 0.81299871E+04</totfact>
</mgrwt>
</event>
<event>
12    1  0.1071811E-001  0.1978264E+03  0.7546771E-02  0.1152049E+00
         21   -1    0    0  503  502  0.00000000000E+00  0.00000000000E+00  0.29141491054E+03  0.29141491054E+03  0.00000000000E+00 0.  1.
         21   -1    0    0  501  503 -0.00000000000E+00 -0.00000000000E+00 -0.26152165986E+03  0.26152165986E+03  0.00000000000E+00 0.  1.
          6    2    1    2  501    0  0.49239556093E+02  0.77693216354E+02 -0.17894459261E+03  0.26675169943E+03  0.17514146331E+03 0.  0.
         24    2    3    3    0    0  0.87641110654E+02  0.92248588071E+02 -0.16533963605E+03  0.22323477075E+03  0.79409075964E+02 0.  0.
         -6    2    1    2    0  502 -0.49239556093E+02 -0.77693216354E+02  0.20883784329E+03  0.28618487098E+03  0.17270716787E+03 0.  0.
        -24    2    5    5    0    0  0.21314266120E+02 -0.12244468369E+02  0.41574591339E+02  0.93155168873E+02  0.79656850910E+02 0.  0.
          5    1    3    3  501    0 -0.38401554561E+02 -0.14555371716E+02 -0.13604956560E+02  0.43516928677E+02  0.47000000000E+01 0. -1.
        -11    1    4    4    0    0  0.46984637758E+02 -0.22830069312E+01 -0.49357151842E+02  0.68182818538E+02  0.00000000000E+00 0.  1.
         12    1    4    4    0    0  0.40656472896E+02  0.94531595002E+02 -0.11598248420E+03  0.15505195221E+03  0.00000000000E+00 0. -1.
         -5    1    5    5    0  502 -0.70553822213E+02 -0.65448747985E+02  0.16726325195E+03  0.19302970210E+03  0.47000000000E+01 0.  1.
         13    1    6    6    0    0 -0.19381428463E+01  0.61523165219E+01  0.58607282179E+02  0.58961181473E+02  0.00000000000E+00 0. -1.
        -14    1    6    6    0    0  0.23252408966E+02 -0.18396784891E+02 -0.17032690840E+02  0.34193987400E+02  0.00000000000E+00 0.  1.
<mgrwt>
<rscale>  2 0.19728627E+03</rscale>
<asrwt>0</asrwt>
<pdfrwt beam="1">  1       21 0.44833063E-01 0.19782644E+03</pdfrwt>
<pdfrwt beam="2">  1       21 0.40234101E-01 0.19782644E+03</pdfrwt>
<totfact> 0.28343036E+04</totfact>
</mgrwt>
</event>
<event>
12    1  0.1071811E-001  0.2785452E+03  0.7546771E-02  0.1096630E+00
         21   -1    0    0  501  502  0.00000000000E+00  0.00000000000E+00  0.73509514890E+03  0.73509514890E+03  0.00000000000E+00 0.  1.
         21   -1    0    0  502  503 -0.00000000000E+00 -0.00000000000E+00 -0.12567034917E+03  0.12567034917E+03  0.00000000000E+00 0.  1.
         -6    2    1    2    0  503 -0.16993888340E+03  0.13651332979E+03  0.13032392456E+03  0.30657682748E+03  0.17172627211E+03 0.  0.
        -24    2    3    3    0    0 -0.52046388158E+02  0.27801291011E+02  0.31945259942E+00  0.10008178991E+03  0.80836404672E+02 0.  0.
          6    2    1    2  501    0  0.16993888340E+03 -0.13651332979E+03  0.47910087517E+03  0.55418867059E+03  0.17341372700E+03 0.  0.
         24    2    5    5    0    0  0.18430108341E+03 -0.15302510318E+03  0.45137903028E+03  0.51855859714E+03  0.88184001594E+02 0.  0.
          5    1    5    5  501    0 -0.14362200011E+02  0.16511773394E+02  0.27721844889E+02  0.35630073447E+02  0.47000000000E+01 0. -1.
        -11    1    6    6    0    0  0.60823426834E+02 -0.35077404130E+01  0.95506678908E+02  0.11328424079E+03  0.00000000000E+00 0.  1.
         12    1    6    6    0    0  0.12347765658E+03 -0.14951736277E+03  0.35587235138E+03  0.40527435635E+03  0.00000000000E+00 0. -1.
         -5    1    3    3    0  503 -0.11789249524E+03  0.10871203878E+03  0.13000447196E+03  0.20649503757E+03  0.47000000000E+01 0.  1.
         13    1    4    4    0    0 -0.36383659165E+02 -0.23887099389E+02  0.11300575346E+02  0.44967401244E+02  0.00000000000E+00 0. -1.
        -14    1    4    4    0    0 -0.15662728993E+02  0.51688390401E+02 -0.10981122747E+02  0.55114388670E+02  0.00000000000E+00 0.  1.
<mgrwt>
<rscale>  2 0.27828299E+03</rscale>
<asrwt>0</asrwt>
<pdfrwt beam="1">  1       21 0.11309156E+00 0.27854521E+03</pdfrwt>
<pdfrwt beam="2">  1       21 0.19333900E-01 0.27854521E+03</pdfrwt>
<totfact> 0.14291719E+04</totfact>
</mgrwt>
</event>
<event>
12    1  0.1071811E-001  0.1812369E+03  0.7546771E-02  0.1166670E+00
         21   -1    0    0  501  502  0.00000000000E+00  0.00000000000E+00  0.12987920237E+04  0.12987920237E+04  0.00000000000E+00 0. -1.
         21   -1    0    0  502  503 -0.00000000000E+00 -0.00000000000E+00 -0.27714279841E+02  0.27714279841E+02  0.00000000000E+00 0. -1.
         -6    2    1    2    0  503  0.41795690027E+02 -0.35650597722E+02  0.43840315239E+03  0.47438817691E+03  0.17271066424E+03 0.  0.
        -24    2    3    3    0    0 -0.13526322067E+01  0.32625364593E+02  0.13140467561E+03  0.15690819409E+03  0.79289019245E+02 0.  0.
          6    2    1    2  501    0 -0.41795690027E+02  0.35650597722E+02  0.83267459150E+03  0.85211812667E+03  0.17245428855E+03 0.  0.
         24    2    5    5    0    0  0.40364238317E+02 -0.29480841526E+00  0.45916829488E+03  0.46796793512E+03  0.80802887525E+02 0.  0.
          5    1    5    5  501    0 -0.82159928344E+02  0.35945406138E+02  0.37350629662E+03  0.38415019155E+03  0.47000000000E+01 0. -1.
        -13    1    6    6    0    0  0.21179285977E+01  0.30399369297E+02  0.79407088844E+02  0.85053471615E+02  0.00000000000E+00 0.  1.
         14    1    6    6    0    0  0.38246309719E+02 -0.30694177712E+02  0.37976120604E+03  0.38291446351E+03  0.00000000000E+00 0. -1.
         -5    1    3    3    0  503  0.43148322233E+02 -0.68275962315E+02  0.30699847678E+03  0.31747998281E+03  0.47000000000E+01 0.  1.
         11    1    4    4    0    0  0.10964853608E+02  0.29894189906E+02  0.79614201396E+01  0.32821864899E+02  0.00000000000E+00 0. -1.
        -12    1    4    4    0    0 -0.12317485814E+02  0.27311746865E+01  0.12344325547E+03  0.12408632919E+03  0.00000000000E+00 0.  1.
<mgrwt>
<rscale>  2 0.18117581E+03</rscale>
<asrwt>0</asrwt>
<pdfrwt beam="1">  1       21 0.19981411E+00 0.18123691E+03</pdfrwt>
<pdfrwt beam="2">  1       21 0.42637364E-02 0.18123691E+03</pdfrwt>
<totfact> 0.47755150E+04</totfact>
</mgrwt>
</event>
<event>
12    1  0.1071811E-001  0.1894493E+03  0.7546771E-02  0.1158966E+00
         21   -1    0    0  501  502  0.00000000000E+00  0.00000000000E+00  0.16902398896E+03  0.16902398896E+03  0.00000000000E+00 0.  1.
         21   -1    0    0  502  503 -0.00000000000E+00 -0.00000000000E+00 -0.28596465807E+03  0.28596465807E+03  0.00000000000E+00 0.  1.
         -6    2    1    2    0  503  0.74452914507E+02 -0.14148630759E+02 -0.17393033969E+03  0.25718242478E+03  0.17363068944E+03 0.  0.
        -24    2    3    3    0    0  0.31558829186E+01  0.42166472208E+02 -0.12222706897E+03  0.15254029302E+03  0.80877151466E+02 0.  0.
          6    2    1    2  501    0 -0.74452914507E+02  0.14148630759E+02  0.56989670583E+02  0.19780622226E+03  0.17359740430E+03 0.  0.
         24    2    5    5    0    0 -0.26798995238E+02  0.52231653394E+02 -0.18488267570E+02  0.10064541852E+03  0.79632609339E+02 0.  0.
          5    1    5    5  501    0 -0.47653919269E+02 -0.38083022635E+02  0.75477938154E+02  0.97160803736E+02  0.47000000000E+01 0. -1.
        -13    1    6    6    0    0 -0.51700077331E+02  0.17397774211E+02 -0.19175043059E+02  0.57820954850E+02  0.00000000000E+00 0.  1.
         14    1    6    6    0    0  0.24901082093E+02  0.34833879183E+02  0.68677548829E+00  0.42824463674E+02  0.00000000000E+00 0. -1.
         -5    1    3    3    0  503  0.71297031588E+02 -0.56315102967E+02 -0.51703270727E+02  0.10464213176E+03  0.47000000000E+01 0.  1.
         11    1    4    4    0    0  0.76991210662E+00 -0.18970542935E+02 -0.68607827286E+02  0.71186432899E+02  0.00000000000E+00 0. -1.
        -12    1    4    4    0    0  0.23859708120E+01  0.61137015143E+02 -0.53619241682E+02  0.81353860116E+02  0.00000000000E+00 0.  1.
<mgrwt>
<rscale>  2 0.18944167E+03</rscale>
<asrwt>0</asrwt>
<pdfrwt beam="1">  1       21 0.26003691E-01 0.18944930E+03</pdfrwt>
<pdfrwt beam="2">  1       21 0.43994563E-01 0.18944930E+03</pdfrwt>
<totfact> 0.69821642E+04</totfact>
</mgrwt>
</event>
<event>
12    1  0.1071811E-001  0.1798949E+03  0.7546771E-02  0.1168032E+00
         21   -1    0    0  501  502  0.00000000000E+00  0.00000000000E+00  0.54215364085E+02  0.54215364085E+02  0.00000000000E+00 0.  1.
         21   -1    0    0  502  503 -0.00000000000E+00 -0.00000000000E+00 -0.10859725758E+04  0.10859725758E+04  0.00000000000E+00 0.  1.
         -6    2    1    2    0  503 -0.20506390878E+02  0.41257608843E+02 -0.89871987872E+03  0.91644453846E+03  0.17335071190E+03 0.  0.
        -24    2    3    3    0    0 -0.14461121419E+02 -0.26325408511E+02 -0.71676706154E+03  0.72219488673E+03  0.83116079962E+02 0.  0.
          6    2    1    2  501    0  0.20506390878E+02 -0.41257608843E+02 -0.13303733302E+03  0.22374340144E+03  0.17389501246E+03 0.  0.
         24    2    5    5    0    0  0.70790793894E+02 -0.57421072901E+02 -0.67315066909E+02  0.13929646533E+03  0.81016485402E+02 0.  0.
          5    1    5    5  501    0 -0.50284403016E+02  0.16163464058E+02 -0.65722266107E+02  0.84446936115E+02  0.47000000000E+01 0. -1.
        -11    1    6    6    0    0  0.38209682947E+02 -0.15533223006E+02  0.12811602191E+02  0.43190253977E+02  0.00000000000E+00 0.  1.
         12    1    6    6    0    0  0.32581110948E+02 -0.41887849895E+02 -0.80126669100E+02  0.96106211352E+02  0.00000000000E+00 0. -1.
         -5    1    3    3    0  503 -0.60452694596E+01  0.67583017354E+02 -0.18195281718E+03  0.19424965173E+03  0.47000000000E+01 0.  1.
         11    1    4    4    0    0  0.21182930971E+02 -0.57220791471E+01 -0.55982733094E+02  0.60129237139E+02  0.00000000000E+00 0. -1.
        -12    1    4    4    0    0 -0.35644052390E+02 -0.20603329364E+02 -0.66078432845E+03  0.66206564959E+03  0.00000000000E+00 0.  1.
<mgrwt>
<rscale>  2 0.17976324E+03</rscale>
<asrwt>0</asrwt>
<pdfrwt beam="1">  1       21 0.83408256E-02 0.17989491E+03</pdfrwt>
<pdfrwt beam="2">  1       21 0.16707270E+00 0.17989491E+03</pdfrwt>
<totfact> 0.25189051E+04</totfact>
</mgrwt>
</event>
<event>
12    1  0.1071811E-001  0.1960927E+03  0.7546771E-02  0.1153673E+00
         21   -1    0    0  503  502  0.00000000000E+00  0.00000000000E+00  0.63415679765E+02  0.63415679765E+02  0.00000000000E+00 0.  1.
         21   -1    0    0  501  503 -0.00000000000E+00 -0.00000000000E+00 -0.83075806203E+03  0.83075806203E+03  0.00000000000E+00 0. -1.
          6    2    1    2  501    0 -0.87882216242E+02  0.77023901227E+01 -0.61841136682E+03  0.64793645360E+03  0.17206515786E+03 0.  0.
         24    2    3    3    0    0  0.66748352123E+01  0.78906378317E+01 -0.42772840943E+03  0.43504410603E+03  0.78771608877E+02 0.  0.
         -6    2    1    2    0  502  0.87882216242E+02 -0.77023901227E+01 -0.14893101545E+03  0.24623728820E+03  0.17512779331E+03 0.  0.
        -24    2    5    5    0    0  0.29796106162E+02 -0.42487094242E+02 -0.16574628753E+02  0.97494977726E+02  0.80855372388E+02 0.  0.
          5    1    3    3  501    0 -0.94557051455E+02 -0.18824770901E+00 -0.19068295738E+03  0.21289234757E+03  0.47000000000E+01 0. -1.
        -11    1    4    4    0    0 -0.27713125190E+02  0.18426798816E+01 -0.65614828866E+02  0.71251095038E+02  0.00000000000E+00 0.  1.
         12    1    4    4    0    0  0.34387960402E+02  0.60479579501E+01 -0.36211358057E+03  0.36379301099E+03  0.00000000000E+00 0. -1.
         -5    1    5    5    0  502  0.58086110081E+02  0.34784704119E+02 -0.13235638670E+03  0.14874231047E+03  0.47000000000E+01 0.  1.
         11    1    6    6    0    0  0.14978745406E+02 -0.54066902929E+02 -0.38925990323E+02  0.68284885069E+02  0.00000000000E+00 0. -1.
        -12    1    6    6    0    0  0.14817360756E+02  0.11579808687E+02  0.22351361570E+02  0.29210092657E+02  0.00000000000E+00 0.  1.
<mgrwt>
<rscale>  2 0.19540655E+03</rscale>
<asrwt>0</asrwt>
<pdfrwt beam="1">  1       21 0.97562584E-02 0.19609272E+03</pdfrwt>
<pdfrwt beam="2">  1       21 0.12780893E+00 0.19609272E+03</pdfrwt>
<totfact> 0.38164812E+04</totfact>
</mgrwt>
</event>
<event>
12    1  0.1071811E-001  0.1789091E+03  0.7546771E-02  0.1169605E+00
         21   -1    0    0  501  502  0.00000000000E+00  0.00000000000E+00  0.10310661089E+03  0.10310661089E+03  0.00000000000E+00 0. -1.
         21   -1    0    0  502  503 -0.00000000000E+00 -0.00000000000E+00 -0.52525538867E+03  0.52525538867E+03  0.00000000000E+00 0. -1.
         -6    2    1    2    0  503  0.64117823793E+01  0.50114795031E+02 -0.41337081167E+03  0.44923766866E+03  0.16848279251E+03 0.  0.
        -24    2    3    3    0    0 -0.18530165700E+02  0.51785966740E+02 -0.41232685025E+03  0.42378038199E+03  0.80939652416E+02 0.  0.
          6    2    1    2  501    0 -0.64117823793E+01 -0.50114795031E+02 -0.87779661169E+01  0.17912433090E+03  0.17162712372E+03 0.  0.
         24    2    5    5    0    0 -0.31940743689E+01 -0.54870723271E+02  0.57208491531E+02  0.11272195827E+03  0.80077649750E+02 0.  0.
          5    1    5    5  501    0 -0.32177080104E+01  0.47559282397E+01 -0.65986457648E+02  0.66402372632E+02  0.47000000000E+01 0. -1.
        -13    1    6    6    0    0 -0.23988980259E+02 -0.58354033959E+02  0.64677039294E+02  0.90353659943E+02  0.00000000000E+00 0.  1.
         14    1    6    6    0    0  0.20794905890E+02  0.34833106885E+01 -0.74685477629E+01  0.22368298327E+02  0.00000000000E+00 0. -1.
         -5    1    3    3    0  503  0.24941948080E+02 -0.16711717087E+01 -0.10439614145E+01  0.25457286665E+02  0.47000000000E+01 0.  1.
         11    1    4    4    0    0 -0.38561321164E+02  0.13299456335E+02 -0.93437975265E+02  0.10195345139E+03  0.00000000000E+00 0. -1.
        -12    1    4    4    0    0  0.20031155464E+02  0.38486510405E+02 -0.31888887499E+03  0.32182693060E+03  0.00000000000E+00 0.  1.
<mgrwt>
<rscale>  2 0.17815078E+03</rscale>
<asrwt>0</asrwt>
<pdfrwt beam="1">  1       21 0.15862555E-01 0.17890912E+03</pdfrwt>
<pdfrwt beam="2">  1       21 0.80808522E-01 0.17890912E+03</pdfrwt>
<totfact> 0.47945813E+04</totfact>
</mgrwt>
</event>
<event>
12    1  0.1071811E-001  0.2131421E+03  0.7546771E-02  0.1139621E+00
         21   -1    0    0  501  502  0.00000000000E+00  0.00000000000E+00  0.75352468703E+02  0.75352468703E+02  0.00000000000E+00 0.  1.
         21   -1    0    0  502  503 -0.00000000000E+00 -0.00000000000E+00 -0.59745947962E+03  0.59745947962E+03  0.00000000000E+00 0.  1.
         -6    2    1    2    0  503 -0.30407792516E+02 -0.11757189504E+03 -0.24295880562E+03  0.32320046059E+03  0.17516213102E+03 0.  0.
        -24    2    3    3    0    0  0.22307101739E+02 -0.42553581389E+02 -0.40361244276E+02  0.10077188930E+03  0.78851312971E+02 0.  0.
          6    2    1    2  501    0  0.30407792516E+02  0.11757189504E+03 -0.27914820529E+03  0.34961148773E+03  0.17192058483E+03 0.  0.
         24    2    5    5    0    0  0.40587640241E+02  0.12884463409E+03 -0.29156838465E+03  0.32943588859E+03  0.72578133682E+02 0.  0.
          5    1    5    5  501    0 -0.10179847726E+02 -0.11272739049E+02  0.12420179362E+02  0.20175599143E+02  0.47000000000E+01 0. -1.
        -13    1    6    6    0    0 -0.18788533989E+02  0.48321840869E+02 -0.12188980038E+03  0.13245804147E+03  0.00000000000E+00 0.  1.
         14    1    6    6    0    0  0.59376174230E+02  0.80522793218E+02 -0.16967858428E+03  0.19697784712E+03  0.00000000000E+00 0. -1.
         -5    1    3    3    0  503 -0.52714894255E+02 -0.75018313650E+02 -0.20259756135E+03  0.22242857128E+03  0.47000000000E+01 0.  1.
         13    1    4    4    0    0  0.39155316094E+02 -0.29640625349E+01 -0.42282089233E+02  0.57703548548E+02  0.00000000000E+00 0. -1.
        -14    1    4    4    0    0 -0.16848214355E+02 -0.39589518854E+02  0.19208449571E+01  0.43068340755E+02  0.00000000000E+00 0.  1.
<mgrwt>
<rscale>  2 0.21247502E+03</rscale>
<asrwt>0</asrwt>
<pdfrwt beam="1">  1       21 0.11592688E-01 0.21314210E+03</pdfrwt>
<pdfrwt beam="2">  1       21 0.91916842E-01 0.21314210E+03</pdfrwt>
<totfact> 0.61840809E+04</totfact>
</mgrwt>
</event>
<event>
12    1  0.1071811E-001  0.1882709E+03  0.7546771E-02  0.1160137E+00
         21   -1    0    0  501  502  0.00000000000E+00  0.00000000000E+00  0.74340303101E+02  0.74340303101E+02  0.00000000000E+00 0. -1.
         21   -1    0    0  502  503 -0.00000000000E+00 -0.00000000000E+00 -0.11340649073E+04  0.11340649073E+04  0.00000000000E+00 0. -1.
         -6    2    1    2    0  503  0.71680454629E+02  0.15272620418E+02 -0.99052411985E+03  0.10082578844E+04  0.17342026670E+03 0.  0.
        -24    2    3    3    0    0  0.86056613439E+01  0.50191633092E+02 -0.78529189200E+03  0.79068002627E+03  0.76800331086E+02 0.  0.
          6    2    1    2  501    0 -0.71680454629E+02 -0.15272620418E+02 -0.69200484347E+02  0.20014732602E+03  0.17291299710E+03 0.  0.
         24    2    5    5    0    0 -0.70410222046E+02 -0.67533565252E+02 -0.20949183776E+02  0.12885147864E+03  0.81519650661E+02 0.  0.
          5    1    5    5  501    0 -0.12702325824E+01  0.52260944834E+02 -0.48251300571E+02  0.71295847372E+02  0.47000000000E+01 0. -1.
        -13    1    6    6    0    0  0.67421455971E+01 -0.10019127682E+02 -0.29859236347E+02  0.32208903148E+02  0.00000000000E+00 0.  1.
         14    1    6    6    0    0 -0.77152367643E+02 -0.57514437570E+02  0.89100525708E+01  0.96642575497E+02  0.00000000000E+00 0. -1.
         -5    1    3    3    0  503  0.63074793285E+02 -0.34919012675E+02 -0.20523222785E+03  0.21757785811E+03  0.47000000000E+01 0.  1.
         13    1    4    4    0    0  0.31005998624E+02  0.27288270415E+02 -0.66221806744E+03  0.66350492877E+03  0.00000000000E+00 0. -1.
        -14    1    4    4    0    0 -0.22400337280E+02  0.22903362677E+02 -0.12307382456E+03  0.12717509750E+03  0.00000000000E+00 0.  1.
<mgrwt>
<rscale>  2 0.18815400E+03</rscale>
<asrwt>0</asrwt>
<pdfrwt beam="1">  1       21 0.11436971E-01 0.18827089E+03</pdfrwt>
<pdfrwt beam="2">  1       21 0.17447150E+00 0.18827089E+03</pdfrwt>
<totfact> 0.12740983E+04</totfact>
</mgrwt>
</event>
<event>
12    1  0.1071811E-001  0.1820259E+03  0.7546771E-02  0.1166314E+00
         21   -1    0    0  503  502  0.00000000000E+00  0.00000000000E+00  0.16344481098E+04  0.16344481098E+04  0.00000000000E+00 0. -1.
         21   -1    0    0  501  503 -0.00000000000E+00 -0.00000000000E+00 -0.40119430226E+02  0.40119430226E+02  0.00000000000E+00 0. -1.
          6    2    1    2  501    0  0.17131447115E+02 -0.49570501288E+02  0.20302969699E+03  0.27141170439E+03  0.17231521797E+03 0.  0.
         24    2    3    3    0    0 -0.29696688244E+02  0.25814165196E+02  0.11968518850E+03  0.14957525952E+03  0.80622264286E+02 0.  0.
         -6    2    1    2    0  502 -0.17131447115E+02  0.49570501288E+02  0.13912989826E+04  0.14031558357E+04  0.17430639420E+03 0.  0.
        -24    2    5    5    0    0 -0.65492977899E+02 -0.12086103840E+02  0.79542785286E+03  0.80213597918E+03  0.79254374824E+02 0.  0.
          5    1    3    3  501    0  0.46828135359E+02 -0.75384666484E+02  0.83344508493E+02  0.12183644487E+03  0.47000000000E+01 0. -1.
        -13    1    4    4    0    0 -0.31318971529E+02  0.47969523814E+02  0.11246719880E+03  0.12621736806E+03  0.00000000000E+00 0.  1.
         14    1    4    4    0    0  0.16222832849E+01 -0.22155358618E+02  0.72179896939E+01  0.23357891467E+02  0.00000000000E+00 0. -1.
         -5    1    5    5    0  502  0.48361530784E+02  0.61656605128E+02  0.59587112977E+03  0.60101985650E+03  0.47000000000E+01 0.  1.
         13    1    6    6    0    0 -0.34061706002E+02  0.33539571007E+02  0.33745202731E+03  0.34082102837E+03  0.00000000000E+00 0. -1.
        -14    1    6    6    0    0 -0.31431271897E+02 -0.45625674846E+02  0.45797582555E+03  0.46131495082E+03  0.00000000000E+00 0.  1.
<mgrwt>
<rscale>  2 0.18154760E+03</rscale>
<asrwt>0</asrwt>
<pdfrwt beam="1">  1       21 0.25145350E+00 0.18202593E+03</pdfrwt>
<pdfrwt beam="2">  1       21 0.61722213E-02 0.18202593E+03</pdfrwt>
<totfact> 0.12372094E+04</totfact>
</mgrwt>
</event>
<event>
12    1  0.1071811E-001  0.1868860E+03  0.7546771E-02  0.1161554E+00
         21   -1    0    0  503  502  0.00000000000E+00  0.00000000000E+00  0.18272082827E+03  0.18272082827E+03  0.00000000000E+00 0. -1.
         21   -1    0    0  501  503 -0.00000000000E+00 -0.00000000000E+00 -0.30829521745E+03  0.30829521745E+03  0.00000000000E+00 0.  1.
          6    2    1    2  501    0 -0.12938623872E+00  0.69956041710E+02 -0.21496359280E+03  0.28484333026E+03  0.17329890955E+03 0.  0.
         24    2    3    3    0    0 -0.66383550484E+02  0.55805645767E+02 -0.12783082332E+03  0.17437135416E+03  0.80892545314E+02 0.  0.
         -6    2    1    2    0  502  0.12938623872E+00 -0.69956041710E+02  0.89389203624E+02  0.20617271546E+03  0.17211302787E+03 0.  0.
        -24    2    5    5    0    0 -0.27608707848E+02 -0.10391630882E+03  0.39771836017E+02  0.13978992572E+03  0.79991152039E+02 0.  0.
          5    1    3    3  501    0  0.66254164245E+02  0.14150395944E+02 -0.87132769477E+02  0.11047197609E+03  0.47000000000E+01 0. -1.
        -13    1    4    4    0    0 -0.74918706593E+02  0.67673319391E+02 -0.95863893267E+02  0.13922060475E+03  0.00000000000E+00 0.  1.
         14    1    4    4    0    0  0.85351561092E+01 -0.11867673624E+02 -0.31966930058E+02  0.35150749414E+02  0.00000000000E+00 0. -1.
         -5    1    5    5    0  502  0.27738094087E+02  0.33960267110E+02  0.49617367608E+02  0.66382789743E+02  0.47000000000E+01 0.  1.
         13    1    6    6    0    0  0.16751576545E+02 -0.80360104734E+02  0.35328383123E+02  0.89366976024E+02  0.00000000000E+00 0. -1.
        -14    1    6    6    0    0 -0.44360284393E+02 -0.23556204087E+02  0.44434528943E+01  0.50422949696E+02  0.00000000000E+00 0.  1.
<mgrwt>
<rscale>  2 0.18661061E+03</rscale>
<asrwt>0</asrwt>
<pdfrwt beam="1">  1       21 0.28110897E-01 0.18688600E+03</pdfrwt>
<pdfrwt beam="2">  1       21 0.47430033E-01 0.18688600E+03</pdfrwt>
<totfact> 0.51545083E+04</totfact>
</mgrwt>
</event>
<event>
12    1  0.1071811E-001  0.2032216E+03  0.7546771E-02  0.1147632E+00
         21   -1    0    0  501  502  0.00000000000E+00  0.00000000000E+00  0.24334275527E+04  0.24334275527E+04  0.00000000000E+00 0.  1.
         21   -1    0    0  502  503 -0.00000000000E+00 -0.00000000000E+00 -0.47331440698E+02  0.47331440698E+02  0.00000000000E+00 0. -1.
         -6    2    1    2    0  503  0.22377177402E+02  0.10020653426E+03  0.19291291313E+03  0.27818060138E+03  0.17212485978E+03 0.  0.
        -24    2    3    3    0    0 -0.45194496315E+02  0.80674682967E+02  0.83851133661E+02  0.14831919046E+03  0.80103824347E+02 0.  0.
          6    2    1    2  501    0 -0.22377177402E+02 -0.10020653426E+03  0.21931831988E+04  0.22025783920E+04  0.17537657082E+03 0.  0.
         24    2    5    5    0    0 -0.13656123850E+02 -0.84304648950E+02  0.21674692676E+04  0.21707629399E+04  0.83635827996E+02 0.  0.
          5    1    5    5  501    0 -0.87210535523E+01 -0.15901885308E+02  0.25713931253E+02  0.31815452093E+02  0.47000000000E+01 0. -1.
        -11    1    6    6    0    0 -0.48440583272E+02 -0.50567976147E+02  0.11362201647E+04  0.11383759805E+04  0.00000000000E+00 0.  1.
         12    1    6    6    0    0  0.34784459422E+02 -0.33736672802E+02  0.10312491029E+04  0.10323869594E+04  0.00000000000E+00 0. -1.
         -5    1    3    3    0  503  0.67571673717E+02  0.19531851291E+02  0.10906177947E+03  0.12986141091E+03  0.47000000000E+01 0.  1.
         11    1    4    4    0    0  0.89220744732E+01  0.63317295026E+02  0.32519232481E+02  0.71736906425E+02  0.00000000000E+00 0. -1.
        -12    1    4    4    0    0 -0.54116570788E+02  0.17357387941E+02  0.51331901180E+02  0.76582284040E+02  0.00000000000E+00 0.  1.
<mgrwt>
<rscale>  2 0.20251812E+03</rscale>
<asrwt>0</asrwt>
<pdfrwt beam="1">  1       21 0.37437337E+00 0.20322163E+03</pdfrwt>
<pdfrwt beam="2">  1       21 0.72817620E-02 0.20322163E+03</pdfrwt>
<totfact> 0.17413915E+03</totfact>
</mgrwt>
</event>
<event>
12    1  0.1071811E-001  0.2412517E+03  0.7546771E-02  0.1118996E+00
         21   -1    0    0  503  502  0.00000000000E+00  0.00000000000E+00  0.65348309069E+03  0.65348309069E+03  0.00000000000E+00 0.  1.
         21   -1    0    0  501  503 -0.00000000000E+00 -0.00000000000E+00 -0.95520560071E+02  0.95520560071E+02  0.00000000000E+00 0. -1.
          6    2    1    2  501    0  0.15956364126E+03 -0.49547227598E+02  0.37680937371E+03  0.44731033365E+03  0.17374045903E+03 0.  0.
         24    2    3    3    0    0  0.17707202856E+03 -0.67062817329E+02  0.36595654354E+03  0.41986559952E+03  0.80690799557E+02 0.  0.
         -6    2    1    2    0  502 -0.15956364126E+03  0.49547227598E+02  0.18115315692E+03  0.30169331711E+03  0.17403134187E+03 0.  0.
        -24    2    5    5    0    0 -0.14427889953E+03  0.52506052552E+02  0.20762648175E+03  0.27062396078E+03  0.80964719614E+02 0.  0.
          5    1    3    3  501    0 -0.17508387294E+02  0.17515589731E+02  0.10852830169E+02  0.27444734138E+02  0.47000000000E+01 0. -1.
        -11    1    4    4    0    0  0.88837294310E+02 -0.18772499126E+02  0.25204428967E+03  0.26790071956E+03  0.00000000000E+00 0.  1.
         12    1    4    4    0    0  0.88234734245E+02 -0.48290318203E+02  0.11391225387E+03  0.15196487996E+03  0.00000000000E+00 0. -1.
         -5    1    5    5    0  502 -0.15284741734E+02 -0.29588249538E+01 -0.26473324833E+02  0.31069356329E+02  0.47000000000E+01 0.  1.
         13    1    6    6    0    0 -0.14619219177E+03  0.43772481126E+02  0.15600237893E+03  0.21823136638E+03  0.00000000000E+00 0. -1.
        -14    1    6    6    0    0  0.19132922387E+01  0.87335714263E+01  0.51624102816E+02  0.52392594406E+02  0.00000000000E+00 0.  1.
<mgrwt>
<rscale>  2 0.24119926E+03</rscale>
<asrwt>0</asrwt>
<pdfrwt beam="1">  1       21 0.10053586E+00 0.24125172E+03</pdfrwt>
<pdfrwt beam="2">  1       21 0.14695471E-01 0.24125172E+03</pdfrwt>
<totfact> 0.32177355E+04</totfact>
</mgrwt>
</event>
<event>
12    1  0.1071811E-001  0.2459480E+03  0.7546771E-02  0.1116605E+00
         21   -1    0    0  501  502  0.00000000000E+00  0.00000000000E+00  0.44566503679E+03  0.44566503679E+03  0.00000000000E+00 0. -1.
         21   -1    0    0  502  503 -0.00000000000E+00 -0.00000000000E+00 -0.31545783602E+03  0.31545783602E+03  0.00000000000E+00 0.  1.
         -6    2    1    2    0  503 -0.12820334716E+03 -0.11736149782E+03 -0.22380812014E+03  0.33253647238E+03  0.17401325073E+03 0.  0.
        -24    2    3    3    0    0 -0.55855226957E+02 -0.84915707602E+02 -0.39333580077E+02  0.13168845588E+03  0.73920464797E+02 0.  0.
          6    2    1    2  501    0  0.12820334716E+03  0.11736149782E+03  0.35401532091E+03  0.42858640043E+03  0.16777853201E+03 0.  0.
         24    2    5    5    0    0  0.11950433593E+03  0.12656068634E+03  0.21331984947E+03  0.28724424979E+03  0.81884108494E+02 0.  0.
          5    1    5    5  501    0  0.86990112290E+01 -0.91991885212E+01  0.14069547144E+03  0.14134215065E+03  0.47000000000E+01 0. -1.
        -13    1    6    6    0    0  0.68611408350E+02  0.12295582526E+03  0.16581222786E+03  0.21753012488E+03  0.00000000000E+00 0.  1.
         14    1    6    6    0    0  0.50892927577E+02  0.36048610842E+01  0.47507621612E+02  0.69714124910E+02  0.00000000000E+00 0. -1.
         -5    1    3    3    0  503 -0.72348120199E+02 -0.32445790222E+02 -0.18447454006E+03  0.20084801649E+03  0.47000000000E+01 0.  1.
         13    1    4    4    0    0  0.52298885427E+00 -0.66094159735E+02 -0.17562770796E+02  0.68389782764E+02  0.00000000000E+00 0. -1.
        -14    1    4    4    0    0 -0.56378215811E+02 -0.18821547866E+02 -0.21770809281E+02  0.63298673121E+02  0.00000000000E+00 0.  1.
<mgrwt>
<rscale>  2 0.24484791E+03</rscale>
<asrwt>0</asrwt>
<pdfrwt beam="1">  1       21 0.68563852E-01 0.24594802E+03</pdfrwt>
<pdfrwt beam="2">  1       21 0.48531975E-01 0.24594802E+03</pdfrwt>
<totfact> 0.75904543E+03</totfact>
</mgrwt>
</event>
<event>
11    1  0.1071811E-001  0.2287515E+03  0.7546771E-02  0.1127641E+00
         21   -1    0    0  503  502  0.00000000000E+00  0.00000000000E+00  0.17586666958E+03  0.17586666958E+03  0.00000000000E+00 0. -1.
         21   -1    0    0  501  503 -0.00000000000E+00 -0.00000000000E+00 -0.46506324259E+03  0.46506324259E+03  0.00000000000E+00 0. -1.
          6    2    1    2  501    0 -0.61704226063E+02 -0.13536742297E+03 -0.33757473090E+03  0.40777926186E+03  0.17376845728E+03 0.  0.
         -6    2    1    2    0  502  0.61704226063E+02  0.13536742297E+03  0.48378157895E+02  0.23315065031E+03  0.17287865358E+03 0.  0.
        -24    2    4    4    0    0  0.67418034383E+02  0.61848735820E+02  0.87228099679E+02  0.14966979657E+03  0.80136440826E+02 0.  0.
          5    1    3    3  501    0  0.44334904359E+01  0.52974300313E+01  0.70827403228E+01  0.10953255811E+02  0.47000000000E+01 0. -1.
        -11    1    3    3    0    0 -0.74050776511E+01  0.83777381972E+01  0.49767172029E+01  0.12238847431E+02  0.00000000000E+00 0.  1.
         12    1    3    3    0    0 -0.58732638848E+02 -0.14904259120E+03 -0.34963418842E+03  0.38458715861E+03  0.00000000000E+00 0. -1.
         -5    1    4    4    0  502 -0.57138083199E+01  0.73518687146E+02 -0.38849941783E+02  0.83480853744E+02  0.47000000000E+01 0.  1.
         13    1    5    5    0    0  0.39152334678E+02  0.37245999920E+02  0.96916961923E+02  0.11096426150E+03  0.00000000000E+00 0. -1.
        -14    1    5    5    0    0  0.28265699705E+02  0.24602735900E+02 -0.96888622448E+01  0.38705535072E+02  0.00000000000E+00 0.  1.
<mgrwt>
<rscale>  2 0.22858247E+03</rscale>
<asrwt>0</asrwt>
<pdfrwt beam="1">  1       21 0.27056411E-01 0.22875145E+03</pdfrwt>
<pdfrwt beam="2">  1       21 0.71548189E-01 0.22875145E+03</pdfrwt>
<totfact> 0.22519011E+04</totfact>
</mgrwt>
</event>
<event>
12    1  0.1071811E-001  0.1918631E+03  0.7546771E-02  0.1156858E+00
         21   -1    0    0  503  502  0.00000000000E+00  0.00000000000E+00  0.12248436862E+03  0.12248436862E+03  0.00000000000E+00 0.  1.
         21   -1    0    0  501  503 -0.00000000000E+00 -0.00000000000E+00 -0.30398133020E+03  0.30398133020E+03  0.00000000000E+00 0.  1.
          6    2    1    2  501    0 -0.75580843208E+02  0.33864338654E+02 -0.11499970185E+03  0.22368816624E+03  0.17306705925E+03 0.  0.
         24    2    3    3    0    0 -0.62104215596E+02  0.82469778185E+02 -0.54478669807E+02  0.14476419293E+03  0.85618620532E+02 0.  0.
         -6    2    1    2    0  502  0.75580843208E+02 -0.33864338654E+02 -0.66497259734E+02  0.20277753257E+03  0.17273559237E+03 0.  0.
        -24    2    5    5    0    0  0.71247491261E+02 -0.66635223679E+02 -0.96196677346E+02  0.15809135741E+03  0.78883575660E+02 0.  0.
          5    1    3    3  501    0 -0.13476627612E+02 -0.48605439531E+02 -0.60521032042E+02  0.78923973311E+02  0.47000000000E+01 0. -1.
        -13    1    4    4    0    0 -0.67429189700E+02  0.30985885483E+02 -0.56026146056E+02  0.92982523974E+02  0.00000000000E+00 0.  1.
         14    1    4    4    0    0  0.53249741042E+01  0.51483892702E+02  0.15474762491E+01  0.51781668955E+02  0.00000000000E+00 0. -1.
         -5    1    5    5    0  502  0.43333519467E+01  0.32770885025E+02  0.29699417612E+02  0.44686175165E+02  0.47000000000E+01 0.  1.
         11    1    6    6    0    0 -0.41932674560E+01 -0.46546128879E+02 -0.43935251501E+02  0.64143837818E+02  0.00000000000E+00 0. -1.
        -12    1    6    6    0    0  0.75440758717E+02 -0.20089094800E+02 -0.52261425845E+02  0.93947519590E+02  0.00000000000E+00 0.  1.
<mgrwt>
<rscale>  2 0.19178836E+03</rscale>
<asrwt>0</asrwt>
<pdfrwt beam="1">  1       21 0.18843749E-01 0.19186314E+03</pdfrwt>
<pdfrwt beam="2">  1       21 0.46766358E-01 0.19186314E+03</pdfrwt>
<totfact> 0.11293742E+05</totfact>
</mgrwt>
</event>
<event>
12    1  0.1071811E-001  0.1876808E+03  0.7546771E-02  0.1160871E+00
         21   -1    0    0  501  502  0.00000000000E+00  0.00000000000E+00  0.37707221280E+03  0.37707221280E+03  0.00000000000E+00 0. -1.
         21   -1    0    0  502  503 -0.00000000000E+00 -0.00000000000E+00 -0.94851253365E+02  0.94851253365E+02  0.00000000000E+00 0. -1.
         -6    2    1    2    0  503  0.44766603025E+02 -0.58864120211E+02  0.10658837332E+03  0.21583598561E+03  0.17249654479E+03 0.  0.
        -24    2    3    3    0    0  0.44076966517E+02  0.26783098299E+02  0.84779515582E+02  0.12732814464E+03  0.79779551414E+02 0.  0.
          6    2    1    2  501    0 -0.44766603025E+02  0.58864120211E+02  0.17563258612E+03  0.25608748056E+03  0.17107004120E+03 0.  0.
         24    2    5    5    0    0 -0.36376566909E+02  0.10513620711E+03  0.10675533293E+03  0.17255506326E+03  0.77470459421E+02 0.  0.
          5    1    5    5  501    0 -0.83900361159E+01 -0.46272086899E+02  0.68877253191E+02  0.83532417295E+02  0.47000000000E+01 0. -1.
        -11    1    6    6    0    0 -0.45975035404E+01  0.74366902518E+01  0.58320703121E+02  0.58972415698E+02  0.00000000000E+00 0.  1.
         12    1    6    6    0    0 -0.31779063369E+02  0.97699516858E+02  0.48434629806E+02  0.11358264756E+03  0.00000000000E+00 0. -1.
         -5    1    3    3    0  503  0.68963650805E+00 -0.85647218509E+02  0.21808857733E+02  0.88507840966E+02  0.47000000000E+01 0.  1.
         13    1    4    4    0    0  0.44830470133E+02  0.24516527384E+01  0.65180420216E+01  0.45368122347E+02  0.00000000000E+00 0. -1.
        -14    1    4    4    0    0 -0.75350361615E+00  0.24331445560E+02  0.78261473560E+02  0.81960022295E+02  0.00000000000E+00 0.  1.
<mgrwt>
<rscale>  2 0.18735240E+03</rscale>
<asrwt>0</asrwt>
<pdfrwt beam="1">  1       21 0.58011109E-01 0.18768082E+03</pdfrwt>
<pdfrwt beam="2">  1       21 0.14592501E-01 0.18768082E+03</pdfrwt>
<totfact> 0.11507784E+05</totfact>
</mgrwt>
</event>
<event>
11    1  0.1071811E-001  0.1933628E+03  0.7546771E-02  0.1156013E+00
         21   -1    0    0  501  502  0.00000000000E+00  0.00000000000E+00  0.39214663020E+02  0.39214663020E+02  0.00000000000E+00 0. -1.
         21   -1    0    0  502  503 -0.00000000000E+00 -0.00000000000E+00 -0.10334744738E+04  0.10334744738E+04  0.00000000000E+00 0. -1.
         -6    2    1    2    0  503 -0.73709188230E+02 -0.35235872320E+02 -0.66025850342E+03  0.68799016650E+03  0.17525571811E+03 0.  0.
          6    2    1    2  501    0  0.73709188230E+02  0.35235872320E+02 -0.33400130734E+03  0.38469897031E+03  0.17251612481E+03 0.  0.
         24    2    4    4    0    0  0.26020757808E+02 -0.45179142000E+02 -0.19261589666E+03  0.21513280246E+03  0.80392812730E+02 0.  0.
          5    1    4    4  501    0  0.47688430422E+02  0.80415014321E+02 -0.14138541068E+03  0.16956616785E+03  0.47000000000E+01 0. -1.
        -13    1    5    5    0    0  0.15322291427E+02  0.12012473023E+02 -0.12241842998E+03  0.12395702530E+03  0.00000000000E+00 0.  1.
         14    1    5    5    0    0  0.10698466381E+02 -0.57191615023E+02 -0.70197466678E+02  0.91175777155E+02  0.00000000000E+00 0. -1.
         -5    1    3    3    0  503 -0.73393007971E+02  0.49462704335E+02 -0.20102319139E+03  0.21969411966E+03  0.47000000000E+01 0.  1.
         13    1    3    3    0    0  0.23181266804E+01 -0.67430632671E+02 -0.41949456077E+03  0.42488580872E+03  0.00000000000E+00 0. -1.
        -14    1    3    3    0    0 -0.26343069391E+01 -0.17267943984E+02 -0.39740751267E+02  0.43410238121E+02  0.00000000000E+00 0.  1.
<mgrwt>
<rscale>  2 0.19273993E+03</rscale>
<asrwt>0</asrwt>
<pdfrwt beam="1">  1       21 0.60330253E-02 0.19336281E+03</pdfrwt>
<pdfrwt beam="2">  1       21 0.15899607E+00 0.19336281E+03</pdfrwt>
<totfact> 0.49987320E+04</totfact>
</mgrwt>
</event>
<event>
12    1  0.1071811E-001  0.1773480E+03  0.7546771E-02  0.1170521E+00
         21   -1    0    0  501  502  0.00000000000E+00  0.00000000000E+00  0.42772719452E+03  0.42772719452E+03  0.00000000000E+00 0.  1.
         21   -1    0    0  502  503 -0.00000000000E+00 -0.00000000000E+00 -0.92758021750E+02  0.92758021750E+02  0.00000000000E+00 0.  1.
         -6    2    1    2    0  503  0.93265513846E+01 -0.39560325973E+02  0.48550308583E+02  0.18387348180E+03  0.17262769445E+03 0.  0.
        -24    2    3    3    0    0 -0.17115021871E+02  0.10719340652E+02 -0.28805745348E+02  0.87783676136E+02  0.80426205886E+02 0.  0.
          6    2    1    2  501    0 -0.93265513846E+01  0.39560325973E+02  0.28641886419E+03  0.33661173448E+03  0.17210371894E+03 0.  0.
         24    2    5    5    0    0 -0.82481384979E+01  0.61425395108E+02  0.29555584017E+03  0.31242871248E+03  0.80108269034E+02 0.  0.
          5    1    5    5  501    0 -0.10784128866E+01 -0.21865069136E+02 -0.91369759862E+01  0.24183021996E+02  0.47000000000E+01 0. -1.
        -13    1    6    6    0    0  0.10483390257E+02  0.23735511885E+02  0.24620302414E+03  0.24756656699E+03  0.00000000000E+00 0.  1.
         14    1    6    6    0    0 -0.18731528755E+02  0.37689883224E+02  0.49352816033E+02  0.64862145487E+02  0.00000000000E+00 0. -1.
         -5    1    3    3    0  503  0.26441573256E+02 -0.50279666624E+02  0.77356053931E+02  0.96089805660E+02  0.47000000000E+01 0.  1.
         11    1    4    4    0    0 -0.27314045307E+02  0.47770788415E+01  0.22143234960E+02  0.35485213932E+02  0.00000000000E+00 0. -1.
        -12    1    4    4    0    0  0.10199023436E+02  0.59422618102E+01 -0.50948980308E+02  0.52298462204E+02  0.00000000000E+00 0.  1.
<mgrwt>
<rscale>  2 0.17722040E+03</rscale>
<asrwt>0</asrwt>
<pdfrwt beam="1">  1       21 0.65804182E-01 0.17734803E+03</pdfrwt>
<pdfrwt beam="2">  1       21 0.14270465E-01 0.17734803E+03</pdfrwt>
<totfact> 0.91689888E+04</totfact>
</mgrwt>
</event>
<event>
12    1  0.1071811E-001  0.1879924E+03  0.7546771E-02  0.1160292E+00
         21   -1    0    0  501  502  0.00000000000E+00  0.00000000000E+00  0.53177612127E+03  0.53177612127E+03  0.00000000000E+00 0. -1.
         21   -1    0    0  502  503 -0.00000000000E+00 -0.00000000000E+00 -0.73128445468E+02  0.73128445468E+02  0.00000000000E+00 0. -1.
         -6    2    1    2    0  503 -0.10579375383E+02  0.73534415509E+02  0.32072287797E+03  0.37174281120E+03  0.17265665287E+03 0.  0.
        -24    2    3    3    0    0 -0.17973044568E+02  0.78566557970E+02  0.10797008208E+03  0.15875025039E+03  0.83954565171E+02 0.  0.
          6    2    1    2  501    0  0.10579375383E+02 -0.73534415509E+02  0.13792479783E+03  0.23316175553E+03  0.17269024564E+03 0.  0.
         24    2    5    5    0    0  0.41471672225E+02 -0.93128571565E+01  0.13222546105E+03  0.16151459927E+03  0.82442490993E+02 0.  0.
          5    1    5    5  501    0 -0.30892296842E+02 -0.64221558353E+02  0.56993367839E+01  0.71647156268E+02  0.47000000000E+01 0. -1.
        -11    1    6    6    0    0 -0.24748810679E+02 -0.92179695371E+01  0.41547853895E+02  0.49231075102E+02  0.00000000000E+00 0.  1.
         12    1    6    6    0    0  0.66220482904E+02 -0.94887619327E-01  0.90677607154E+02  0.11228352416E+03  0.00000000000E+00 0. -1.
         -5    1    3    3    0  503  0.73936691853E+01 -0.50321424608E+01  0.21275279589E+03  0.21299256081E+03  0.47000000000E+01 0.  1.
         11    1    4    4    0    0 -0.43602473159E+02  0.75128337091E+02  0.98203762494E+02  0.13110843477E+03  0.00000000000E+00 0. -1.
        -12    1    4    4    0    0  0.25629428590E+02  0.34382208787E+01  0.97663195843E+01  0.27641815622E+02  0.00000000000E+00 0.  1.
<mgrwt>
<rscale>  2 0.18798472E+03</rscale>
<asrwt>0</asrwt>
<pdfrwt beam="1">  1       21 0.81811709E-01 0.18799243E+03</pdfrwt>
<pdfrwt beam="2">  1       21 0.11250530E-01 0.18799243E+03</pdfrwt>
<totfact> 0.86242565E+04</totfact>
</mgrwt>
</event>
<event>
12    1  0.1071811E-001  0.2009637E+03  0.7546771E-02  0.1149025E+00
         21   -1    0    0  503  502  0.00000000000E+00  0.00000000000E+00  0.35185452406E+03  0.35185452406E+03  0.00000000000E+00 0.  1.
         21   -1    0    0  501  503 -0.00000000000E+00 -0.00000000000E+00 -0.11714281335E+03  0.11714281335E+03  0.00000000000E+00 0.  1.
          6    2    1    2  501    0 -0.55960069227E+02 -0.85780381660E+02  0.15232205344E+03  0.25180051896E+03  0.17237079266E+03 0.  0.
         24    2    3    3    0    0 -0.43784799281E+02 -0.39327701588E+02  0.79663295405E+01  0.99594232281E+02  0.79948558067E+02 0.  0.
         -6    2    1    2    0  502  0.55960069227E+02  0.85780381660E+02  0.82389657276E+02  0.21719681845E+03  0.17290633040E+03 0.  0.
        -24    2    5    5    0    0  0.20005580022E+02 -0.23355642111E+02  0.38257348553E+02  0.94017487183E+02  0.80186993506E+02 0.  0.
          5    1    3    3  501    0 -0.12175269946E+02 -0.46452680073E+02  0.14435572389E+03  0.15220628668E+03  0.47000000000E+01 0. -1.
        -13    1    4    4    0    0  0.11145870150E+02 -0.37345204405E+02  0.19271248580E+02  0.43477301380E+02  0.00000000000E+00 0.  1.
         14    1    4    4    0    0 -0.54930669431E+02 -0.19824971824E+01 -0.11304919039E+02  0.56116930901E+02  0.00000000000E+00 0. -1.
         -5    1    5    5    0  502  0.35954489205E+02  0.10913602377E+03  0.44132308723E+02  0.12317933127E+03  0.47000000000E+01 0.  1.
         11    1    6    6    0    0 -0.22400598949E+01  0.22556821013E+02  0.36504112348E+02  0.42969503848E+02  0.00000000000E+00 0. -1.
        -12    1    6    6    0    0  0.22245639917E+02 -0.45912463124E+02  0.17532362048E+01  0.51047983336E+02  0.00000000000E+00 0.  1.
<mgrwt>
<rscale>  2 0.20084844E+03</rscale>
<asrwt>0</asrwt>
<pdfrwt beam="1">  1       21 0.54131465E-01 0.20096368E+03</pdfrwt>
<pdfrwt beam="2">  1       21 0.18021971E-01 0.20096368E+03</pdfrwt>
<totfact> 0.90050277E+04</totfact>
</mgrwt>
</event>
<event>
12    1  0.1071811E-001  0.2245211E+03  0.7546771E-02  0.1131085E+00
         21   -1    0    0  503  502  0.00000000000E+00  0.00000000000E+00  0.20387251258E+03  0.20387251258E+03  0.00000000000E+00 0. -1.
         21   -1    0    0  501  503 -0.00000000000E+00 -0.00000000000E+00 -0.25498505920E+03  0.25498505920E+03  0.00000000000E+00 0.  1.
          6    2    1    2  501    0 -0.11722570989E+03  0.71235221476E+02 -0.73139058860E+02  0.23613354548E+03  0.17774533899E+03 0.  0.
         24    2    3    3    0    0  0.10442033902E+02  0.25253225281E+01 -0.22333054781E+02  0.82434348774E+02  0.78620882697E+02 0.  0.
         -6    2    1    2    0  502  0.11722570989E+03 -0.71235221476E+02  0.22026512243E+02  0.22272402630E+03  0.17408187963E+03 0.  0.
        -24    2    5    5    0    0  0.11229570259E+03 -0.70765740091E+02  0.72961573889E+02  0.17133340567E+03  0.80085141204E+02 0.  0.
          5    1    3    3  501    0 -0.12766774379E+03  0.68709898948E+02 -0.50806004079E+02  0.15369919670E+03  0.47000000000E+01 0. -1.
        -11    1    4    4    0    0  0.20262405571E+00  0.30890487543E+02  0.15084236068E+02  0.34377281086E+02  0.00000000000E+00 0.  1.
         12    1    4    4    0    0  0.10239409846E+02 -0.28365165014E+02 -0.37417290849E+02  0.48057067688E+02  0.00000000000E+00 0. -1.
         -5    1    5    5    0  502  0.49300072932E+01 -0.46948138547E+00 -0.50935061645E+02  0.51390620637E+02  0.47000000000E+01 0.  1.
         11    1    6    6    0    0  0.64919289941E+02 -0.83630766387E+02  0.52034411686E+02  0.11796694152E+03  0.00000000000E+00 0. -1.
        -12    1    6    6    0    0  0.47376412650E+02  0.12865026296E+02  0.20927162203E+02  0.53366464143E+02  0.00000000000E+00 0.  1.
<mgrwt>
<rscale>  2 0.22379537E+03</rscale>
<asrwt>0</asrwt>
<pdfrwt beam="1">  1       21 0.31365002E-01 0.22452111E+03</pdfrwt>
<pdfrwt beam="2">  1       21 0.39228471E-01 0.22452111E+03</pdfrwt>
<totfact> 0.60336227E+04</totfact>
</mgrwt>
</event>
<event>
12    1  0.1071811E-001  0.2171579E+03  0.7546771E-02  0.1138134E+00
         21   -1    0    0  503  502  0.00000000000E+00  0.00000000000E+00  0.65948916741E+03  0.65948916741E+03  0.00000000000E+00 0. -1.
         21   -1    0    0  501  503 -0.00000000000E+00 -0.00000000000E+00 -0.95018705809E+02  0.95018705809E+02  0.00000000000E+00 0.  1.
          6    2    1    2  501    0 -0.12649155155E+03 -0.33491595096E+02  0.75854213652E+02  0.21980853653E+03  0.15949962836E+03 0.  0.
         24    2    3    3    0    0 -0.14253322318E+03  0.57906335187E+01  0.55280619067E+02  0.17241875379E+03  0.79517473972E+02 0.  0.
         -6    2    1    2    0  502  0.12649155155E+03  0.33491595096E+02  0.48861624795E+03  0.53469933669E+03  0.17330823218E+03 0.  0.
        -24    2    5    5    0    0  0.13848482139E+03  0.18198032085E+02  0.48867050474E+03  0.51470372380E+03  0.81313264372E+02 0.  0.
          5    1    3    3  501    0  0.16041671634E+02 -0.39282228614E+02  0.20573594585E+02  0.47389782737E+02  0.47000000000E+01 0. -1.
        -13    1    4    4    0    0 -0.75928147727E+02  0.29990918345E+02  0.60124899525E+02  0.10138807791E+03  0.00000000000E+00 0.  1.
         14    1    4    4    0    0 -0.66605075457E+02 -0.24200284826E+02 -0.48442804579E+01  0.71030675877E+02  0.00000000000E+00 0. -1.
         -5    1    5    5    0  502 -0.11993269843E+02  0.15293563011E+02 -0.54256790430E-01  0.19995612891E+02  0.47000000000E+01 0.  1.
         11    1    6    6    0    0  0.13201910784E+03  0.35705042009E+02  0.36785663020E+03  0.39245687055E+03  0.00000000000E+00 0. -1.
        -12    1    6    6    0    0  0.64657135530E+01 -0.17507009925E+02  0.12081387454E+03  0.12224685325E+03  0.00000000000E+00 0.  1.
<mgrwt>
<rscale>  2 0.21439238E+03</rscale>
<asrwt>0</asrwt>
<pdfrwt beam="1">  1       21 0.10145987E+00 0.21715788E+03</pdfrwt>
<pdfrwt beam="2">  1       21 0.14618263E-01 0.21715788E+03</pdfrwt>
<totfact> 0.32167743E+04</totfact>
</mgrwt>
</event>
<event>
12    1  0.1071811E-001  0.2066393E+03  0.7546771E-02  0.1144820E+00
         21   -1    0    0  501  502  0.00000000000E+00  0.00000000000E+00  0.29776996314E+03  0.29776996314E+03  0.00000000000E+00 0.  1.
         21   -1    0    0  502  503 -0.00000000000E+00 -0.00000000000E+00 -0.25752541272E+03  0.25752541272E+03  0.00000000000E+00 0.  1.
         -6    2    1    2    0  503  0.90443427557E+02  0.64114590577E+02 -0.16632872763E+03  0.26310998029E+03  0.17108746821E+03 0.  0.
        -24    2    3    3    0    0  0.21651669623E+02 -0.20188390237E+02 -0.36454240802E+02  0.93614343580E+02  0.80983749936E+02 0.  0.
          6    2    1    2  501    0 -0.90443427557E+02 -0.64114590577E+02  0.20657327805E+03  0.29218539558E+03  0.17438202852E+03 0.  0.
         24    2    5    5    0    0 -0.13238790690E+02 -0.58295781430E+02  0.40371389122E+02  0.10877445703E+03  0.81414800444E+02 0.  0.
          5    1    5    5  501    0 -0.77204636866E+02 -0.58188091466E+01  0.16620188893E+03  0.18341093854E+03  0.47000000000E+01 0. -1.
        -11    1    6    6    0    0 -0.46209134686E+01 -0.46181442698E+02  0.65082250206E+02  0.79936085611E+02  0.00000000000E+00 0.  1.
         12    1    6    6    0    0 -0.86178772216E+01 -0.12114338732E+02 -0.24710861084E+02  0.28838371421E+02  0.00000000000E+00 0. -1.
         -5    1    3    3    0  503  0.68791757933E+02  0.84302980813E+02 -0.12987448683E+03  0.16949563671E+03  0.47000000000E+01 0.  1.
         13    1    4    4    0    0  0.41223438677E+02 -0.37509960713E+02 -0.37961768424E+02  0.67434893868E+02  0.00000000000E+00 0. -1.
        -14    1    4    4    0    0 -0.19571769054E+02  0.17321570477E+02  0.15075276228E+01  0.26179449712E+02  0.00000000000E+00 0.  1.
<mgrwt>
<rscale>  2 0.20594260E+03</rscale>
<asrwt>0</asrwt>
<pdfrwt beam="1">  1       21 0.45810763E-01 0.20663927E+03</pdfrwt>
<pdfrwt beam="2">  1       21 0.39619294E-01 0.20663927E+03</pdfrwt>
<totfact> 0.27833171E+04</totfact>
</mgrwt>
</event>
<event>
12    1  0.1071811E-001  0.3492252E+03  0.7546771E-02  0.1062984E+00
         21   -1    0    0  503  502  0.00000000000E+00  0.00000000000E+00  0.72578710176E+03  0.72578710176E+03  0.00000000000E+00 0. -1.
         21   -1    0    0  501  503 -0.00000000000E+00 -0.00000000000E+00 -0.29904267715E+03  0.29904267715E+03  0.00000000000E+00 0.  1.
          6    2    1    2  501    0  0.30208134859E+03 -0.22825324807E+02 -0.12617471362E+03  0.37085896685E+03  0.17274888802E+03 0.  0.
         24    2    3    3    0    0  0.72391522574E+02  0.22692153643E+02 -0.13174243228E+02  0.11081963650E+03  0.79699214367E+02 0.  0.
         -6    2    1    2    0  502 -0.30208134859E+03  0.22825324807E+02  0.55291913823E+03  0.65397081206E+03  0.17373575619E+03 0.  0.
        -24    2    5    5    0    0 -0.28190453416E+03  0.55148540572E+01  0.38487354342E+03  0.48377043552E+03  0.80035053933E+02 0.  0.
          5    1    3    3  501    0  0.22968982602E+03 -0.45517478450E+02 -0.11300047039E+03  0.26003933035E+03  0.47000000000E+01 0. -1.
        -13    1    4    4    0    0  0.75387750418E+02  0.42565995098E+02 -0.21274415685E+02  0.89150309111E+02  0.00000000000E+00 0.  1.
         14    1    4    4    0    0 -0.29962278443E+01 -0.19873841455E+02  0.81001724575E+01  0.21669327385E+02  0.00000000000E+00 0. -1.
         -5    1    5    5    0  502 -0.20176814427E+02  0.17310470750E+02  0.16804559481E+03  0.17020037654E+03  0.47000000000E+01 0.  1.
         13    1    6    6    0    0 -0.12585227494E+03  0.41685964626E+02  0.16287450944E+03  0.21001100109E+03  0.00000000000E+00 0. -1.
        -14    1    6    6    0    0 -0.15605225923E+03 -0.36171110569E+02  0.22199903398E+03  0.27375943442E+03  0.00000000000E+00 0.  1.
<mgrwt>
<rscale>  2 0.34910267E+03</rscale>
<asrwt>0</asrwt>
<pdfrwt beam="1">  1       21 0.11165955E+00 0.34922521E+03</pdfrwt>
<pdfrwt beam="2">  1       21 0.46006566E-01 0.34922521E+03</pdfrwt>
<totfact> 0.25741613E+03</totfact>
</mgrwt>
</event>
<event>
12    1  0.1071811E-001  0.2419889E+03  0.7546771E-02  0.1118528E+00
         21   -1    0    0  503  502  0.00000000000E+00  0.00000000000E+00  0.65203347924E+03  0.65203347924E+03  0.00000000000E+00 0. -1.
         21   -1    0    0  501  503 -0.00000000000E+00 -0.00000000000E+00 -0.12318393307E+03  0.12318393307E+03  0.00000000000E+00 0. -1.
          6    2    1    2  501    0  0.12943097637E+03 -0.10808689788E+03  0.62184403876E+02  0.24954166805E+03  0.17311553619E+03 0.  0.
         24    2    3    3    0    0  0.70940896223E+02 -0.95145405573E+02 -0.22873309730E+02  0.14540005128E+03  0.80825290944E+02 0.  0.
         -6    2    1    2    0  502 -0.12943097637E+03  0.10808689788E+03  0.46666514229E+03  0.52567574426E+03  0.17356116483E+03 0.  0.
        -24    2    5    5    0    0 -0.64788727822E+02  0.13508106329E+03  0.29297558778E+03  0.33833259224E+03  0.78675123293E+02 0.  0.
          5    1    3    3  501    0  0.58490080151E+02 -0.12941492307E+02  0.85057713606E+02  0.10414161677E+03  0.47000000000E+01 0. -1.
        -11    1    4    4    0    0  0.67235132510E+02 -0.10940935057E+03 -0.17009068045E+02  0.12953871016E+03  0.00000000000E+00 0.  1.
         12    1    4    4    0    0  0.37057637124E+01  0.14263944994E+02 -0.58642416852E+01  0.15861341117E+02  0.00000000000E+00 0. -1.
         -5    1    5    5    0  502 -0.64642248552E+02 -0.26994165405E+02  0.17368955451E+03  0.18734315203E+03  0.47000000000E+01 0.  1.
         13    1    6    6    0    0 -0.49277344608E+02  0.84812232085E+02  0.25566973873E+03  0.27384007505E+03  0.00000000000E+00 0. -1.
        -14    1    6    6    0    0 -0.15511383214E+02  0.50268831200E+02  0.37305849045E+02  0.64492517181E+02  0.00000000000E+00 0.  1.
<mgrwt>
<rscale>  2 0.24190902E+03</rscale>
<asrwt>0</asrwt>
<pdfrwt beam="1">  1       21 0.10031284E+00 0.24198891E+03</pdfrwt>
<pdfrwt beam="2">  1       21 0.18951375E-01 0.24198891E+03</pdfrwt>
<totfact> 0.20216104E+04</totfact>
</mgrwt>
</event>
<event>
12    1  0.1071811E-001  0.2769743E+03  0.7546771E-02  0.1097481E+00
         21   -1    0    0  503  502  0.00000000000E+00  0.00000000000E+00  0.64463596147E+03  0.64463596147E+03  0.00000000000E+00 0. -1.
         21   -1    0    0  501  503 -0.00000000000E+00 -0.00000000000E+00 -0.18491328322E+03  0.18491328322E+03  0.00000000000E+00 0.  1.
          6    2    1    2  501    0 -0.18709056440E+03  0.10709600605E+03 -0.18754584602E+02  0.27668828064E+03  0.17243038131E+03 0.  0.
         24    2    3    3    0    0 -0.53042726291E+02  0.10112389863E+03 -0.26550971427E+02  0.14219901484E+03  0.80473797288E+02 0.  0.
         -6    2    1    2    0  502  0.18709056440E+03 -0.10709600605E+03  0.47847726286E+03  0.55286096405E+03  0.17390319348E+03 0.  0.
        -24    2    5    5    0    0  0.15654795750E+02 -0.14643569663E+02  0.13947765095E+03  0.16186160006E+03  0.79282127232E+02 0.  0.
          5    1    3    3  501    0 -0.13404783811E+03  0.59721074179E+01  0.77963868249E+01  0.13448926580E+03  0.47000000000E+01 0. -1.
        -13    1    4    4    0    0 -0.23491936067E+01  0.65430317548E+02  0.15503187751E+02  0.67282939855E+02  0.00000000000E+00 0.  1.
         14    1    4    4    0    0 -0.50693532684E+02  0.35693581085E+02 -0.42054159178E+02  0.74916074983E+02  0.00000000000E+00 0. -1.
         -5    1    5    5    0  502  0.17143576865E+03 -0.92452436388E+02  0.33899961191E+03  0.39099936399E+03  0.47000000000E+01 0.  1.
         13    1    6    6    0    0  0.25176894705E+02  0.16715246180E+02  0.11998031916E+03  0.12372773524E+03  0.00000000000E+00 0. -1.
        -14    1    6    6    0    0 -0.95220989543E+01 -0.31358815843E+02  0.19497331791E+02  0.38133864826E+02  0.00000000000E+00 0.  1.
<mgrwt>
<rscale>  2 0.27674341E+03</rscale>
<asrwt>0</asrwt>
<pdfrwt beam="1">  1       21 0.99174762E-01 0.27697428E+03</pdfrwt>
<pdfrwt beam="2">  1       21 0.28448198E-01 0.27697428E+03</pdfrwt>
<totfact> 0.93964114E+03</totfact>
</mgrwt>
</event>
<event>
12    1  0.1071811E-001  0.1734030E+03  0.7546771E-02  0.1174356E+00
         21   -1    0    0  501  502  0.00000000000E+00  0.00000000000E+00  0.20589697623E+03  0.20589697623E+03  0.00000000000E+00 0.  1.
         21   -1    0    0  502  503 -0.00000000000E+00 -0.00000000000E+00 -0.15415000452E+03  0.15415000452E+03  0.00000000000E+00 0.  1.
         -6    2    1    2    0  503  0.28107552723E+01  0.75634340599E+01 -0.15522060925E+02  0.17405306217E+03  0.17317167262E+03 0.  0.
        -24    2    3    3    0    0 -0.17993384269E+02  0.68192188480E+02 -0.55618582121E+00  0.10806271817E+03  0.81873715365E+02 0.  0.
          6    2    1    2  501    0 -0.28107552723E+01 -0.75634340599E+01  0.67269032638E+02  0.18599391858E+03  0.17321521041E+03 0.  0.
         24    2    5    5    0    0 -0.50988265168E+02  0.24548711161E+02  0.20612692202E+01  0.98664629450E+02  0.80796150089E+02 0.  0.
          5    1    5    5  501    0  0.48177509896E+02 -0.32112145221E+02  0.65207763418E+02  0.87329289132E+02  0.47000000000E+01 0. -1.
        -13    1    6    6    0    0 -0.58686150732E+02  0.76071071434E+01  0.29018003304E+02  0.65908852840E+02  0.00000000000E+00 0.  1.
         14    1    6    6    0    0  0.76978855643E+01  0.16941604018E+02 -0.26956734084E+02  0.32755776610E+02  0.00000000000E+00 0. -1.
         -5    1    3    3    0  503  0.20804139542E+02 -0.60628754420E+02 -0.14965875104E+02  0.65990344008E+02  0.47000000000E+01 0.  1.
         13    1    4    4    0    0 -0.40868252538E+02  0.55598688500E+01 -0.28633120603E+01  0.41343980978E+02  0.00000000000E+00 0. -1.
        -14    1    4    4    0    0  0.22874868269E+02  0.62632319630E+02  0.23071262391E+01  0.66718737189E+02  0.00000000000E+00 0.  1.
<mgrwt>
<rscale>  2 0.17339217E+03</rscale>
<asrwt>0</asrwt>
<pdfrwt beam="1">  1       21 0.31676458E-01 0.17340304E+03</pdfrwt>
<pdfrwt beam="2">  1       21 0.23715385E-01 0.17340304E+03</pdfrwt>
<totfact> 0.16143740E+05</totfact>
</mgrwt>
</event>
<event>
12    1  0.1071811E-001  0.2172399E+03  0.7546771E-02  0.1137096E+00
         21   -1    0    0  501  502  0.00000000000E+00  0.00000000000E+00  0.16074393344E+03  0.16074393344E+03  0.00000000000E+00 0. -1.
         21   -1    0    0  502  503 -0.00000000000E+00 -0.00000000000E+00 -0.35752421722E+03  0.35752421722E+03  0.00000000000E+00 0. -1.
         -6    2    1    2    0  503 -0.38427464301E+02 -0.11489918545E+03 -0.21348396266E+03  0.30038706011E+03  0.17314297773E+03 0.  0.
        -24    2    3    3    0    0 -0.67015910256E+02 -0.10115885639E+03 -0.84013060006E+02  0.16700452557E+03  0.78154148052E+02 0.  0.
          6    2    1    2  501    0  0.38427464301E+02  0.11489918545E+03  0.16703678877E+02  0.21788109055E+03  0.18031822953E+03 0.  0.
         24    2    5    5    0    0  0.44612652780E+01 -0.17960222573E+02  0.48804180501E+01  0.80159616288E+02  0.77841332982E+02 0.  0.
          5    1    5    5  501    0  0.33966199023E+02  0.13285940803E+03  0.11823260827E+02  0.13772147427E+03  0.47000000000E+01 0. -1.
        -13    1    6    6    0    0 -0.34037218956E+02 -0.78415880276E+01  0.16587975699E+02  0.38667605497E+02  0.00000000000E+00 0.  1.
         14    1    6    6    0    0  0.38498484234E+02 -0.10118634546E+02 -0.11707557649E+02  0.41492010791E+02  0.00000000000E+00 0. -1.
         -5    1    3    3    0  503  0.28588445955E+02 -0.13740329068E+02 -0.12947090265E+03  0.13338253454E+03  0.47000000000E+01 0.  1.
         11    1    4    4    0    0 -0.19708926951E+02 -0.80981988982E+02 -0.21538186552E+02  0.86083783729E+02  0.00000000000E+00 0. -1.
        -12    1    4    4    0    0 -0.47306983304E+02 -0.20176867403E+02 -0.62474873454E+02  0.80920741844E+02  0.00000000000E+00 0.  1.
<mgrwt>
<rscale>  2 0.21574503E+03</rscale>
<asrwt>0</asrwt>
<pdfrwt beam="1">  1       21 0.24729836E-01 0.21723986E+03</pdfrwt>
<pdfrwt beam="2">  1       21 0.55003725E-01 0.21723986E+03</pdfrwt>
<totfact> 0.47657886E+04</totfact>
</mgrwt>
</event>
<event>
12    1  0.1071811E-001  0.1862909E+03  0.7546771E-02  0.1161900E+00
         21   -1    0    0  501  502  0.00000000000E+00  0.00000000000E+00  0.31795080385E+03  0.31795080385E+03  0.00000000000E+00 0.  1.
         21   -1    0    0  502  503 -0.00000000000E+00 -0.00000000000E+00 -0.13345655321E+03  0.13345655321E+03  0.00000000000E+00 0.  1.
         -6    2    1    2    0  503  0.68114785321E+02 -0.10212130700E+02 -0.43689180838E+01  0.18612710556E+03  0.17285919236E+03 0.  0.
        -24    2    3    3    0    0  0.16907558618E+02  0.50403249693E+02  0.27121802756E+02  0.10062763242E+03  0.81018362762E+02 0.  0.
          6    2    1    2  501    0 -0.68114785321E+02  0.10212130700E+02  0.18886316873E+03  0.26528025151E+03  0.17309073848E+03 0.  0.
         24    2    5    5    0    0 -0.31127335511E+02  0.52463976559E+02  0.48204013778E+02  0.11375342948E+03  0.83035148719E+02 0.  0.
          5    1    5    5  501    0 -0.36987449810E+02 -0.42251845859E+02  0.14065915495E+03  0.15152682202E+03  0.47000000000E+01 0. -1.
        -11    1    6    6    0    0  0.59951286086E+01  0.59303651159E+02  0.47135654044E+02  0.75991015851E+02  0.00000000000E+00 0.  1.
         12    1    6    6    0    0 -0.37122464119E+02 -0.68396746005E+01  0.10683597340E+01  0.37762413634E+02  0.00000000000E+00 0. -1.
         -5    1    3    3    0  503  0.51207226703E+02 -0.60615380393E+02 -0.31490720840E+02  0.85499473132E+02  0.47000000000E+01 0.  1.
         13    1    4    4    0    0  0.48147160562E+01 -0.22107290213E+02  0.11222420633E+01  0.22653326433E+02  0.00000000000E+00 0. -1.
        -14    1    4    4    0    0  0.12092842562E+02  0.72510539905E+02  0.25999560693E+02  0.77974305991E+02  0.00000000000E+00 0.  1.
<mgrwt>
<rscale>  2 0.18623714E+03</rscale>
<asrwt>0</asrwt>
<pdfrwt beam="1">  1       21 0.48915508E-01 0.18629094E+03</pdfrwt>
<pdfrwt beam="2">  1       21 0.20531778E-01 0.18629094E+03</pdfrwt>
<totfact> 0.87875424E+04</totfact>
</mgrwt>
</event>
<event>
12    1  0.1071811E-001  0.2347158E+03  0.7546771E-02  0.1123380E+00
         21   -1    0    0  501  502  0.00000000000E+00  0.00000000000E+00  0.37494591895E+03  0.37494591895E+03  0.00000000000E+00 0.  1.
         21   -1    0    0  502  503 -0.00000000000E+00 -0.00000000000E+00 -0.35736675005E+03  0.35736675005E+03  0.00000000000E+00 0.  1.
         -6    2    1    2    0  503 -0.13269854633E+03  0.87215439530E+02 -0.27222402096E+03  0.35944043054E+03  0.17284695089E+03 0.  0.
        -24    2    3    3    0    0 -0.15463988604E+03  0.10193947062E+03 -0.26166473908E+03  0.33059935023E+03  0.80761034342E+02 0.  0.
          6    2    1    2  501    0  0.13269854633E+03 -0.87215439530E+02  0.28980318985E+03  0.37287223845E+03  0.17272052648E+03 0.  0.
         24    2    5    5    0    0  0.10583464757E+03 -0.52351020851E+02  0.29666551304E+03  0.32807962493E+03  0.75393710985E+02 0.  0.
          5    1    5    5  501    0  0.26863898763E+02 -0.34864418679E+02 -0.68623231894E+01  0.44792613522E+02  0.47000000000E+01 0. -1.
        -11    1    6    6    0    0  0.25420913531E+02 -0.10568667308E+02  0.13296560840E+02  0.30573159856E+02  0.00000000000E+00 0.  1.
         12    1    6    6    0    0  0.80413734039E+02 -0.41782353544E+02  0.28336895220E+03  0.29750646507E+03  0.00000000000E+00 0. -1.
         -5    1    3    3    0  503  0.21941339712E+02 -0.14724031090E+02 -0.10559281873E+02  0.28841080313E+02  0.47000000000E+01 0.  1.
         13    1    4    4    0    0 -0.94301209423E+02  0.61022134415E+02 -0.89449336871E+02  0.14358831030E+03  0.00000000000E+00 0. -1.
        -14    1    4    4    0    0 -0.60338676622E+02  0.40917336205E+02 -0.17221540221E+03  0.18701103993E+03  0.00000000000E+00 0.  1.
<mgrwt>
<rscale>  2 0.23469252E+03</rscale>
<asrwt>0</asrwt>
<pdfrwt beam="1">  1       21 0.57683988E-01 0.23471580E+03</pdfrwt>
<pdfrwt beam="2">  1       21 0.54979500E-01 0.23471580E+03</pdfrwt>
<totfact> 0.85575802E+03</totfact>
</mgrwt>
</event>
<event>
12    1  0.1071811E-001  0.1742048E+03  0.7546771E-02  0.1174036E+00
         21   -1    0    0  503  502  0.00000000000E+00  0.00000000000E+00  0.66810880769E+03  0.66810880769E+03  0.00000000000E+00 0.  1.
         21   -1    0    0  501  503 -0.00000000000E+00 -0.00000000000E+00 -0.46595364967E+02  0.46595364967E+02  0.00000000000E+00 0.  1.
          6    2    1    2  501    0  0.17246681652E+01 -0.48326211874E+01  0.38047589600E+03  0.41846054574E+03  0.17412923991E+03 0.  0.
         24    2    3    3    0    0  0.10232340828E+02 -0.21148128800E+02  0.38866580086E+03  0.39777864968E+03  0.81331452894E+02 0.  0.
         -6    2    1    2    0  502 -0.17246681652E+01  0.48326211874E+01  0.24103754673E+03  0.29624362692E+03  0.17214778202E+03 0.  0.
        -24    2    5    5    0    0 -0.21944071530E+02 -0.33908398051E+02  0.52010461412E+02  0.10217400069E+03  0.78122446118E+02 0.  0.
          5    1    3    3  501    0 -0.85076726623E+01  0.16315507613E+02 -0.81899048628E+01  0.20681896056E+02  0.47000000000E+01 0. -1.
        -13    1    4    4    0    0  0.10554005671E+02 -0.24789468650E+02  0.35364497075E+02  0.44458435026E+02  0.00000000000E+00 0.  1.
         14    1    4    4    0    0 -0.32166484343E+00  0.36413398493E+01  0.35330130379E+03  0.35332021465E+03  0.00000000000E+00 0. -1.
         -5    1    5    5    0  502  0.20219403365E+02  0.38741019238E+02  0.18902708531E+03  0.19406962623E+03  0.47000000000E+01 0.  1.
         11    1    6    6    0    0  0.27320436631E+02 -0.16887373203E+02  0.60515243185E+01  0.32683490909E+02  0.00000000000E+00 0. -1.
        -12    1    6    6    0    0 -0.49264508161E+02 -0.17021024848E+02  0.45958937094E+02  0.69490509783E+02  0.00000000000E+00 0.  1.
<mgrwt>
<rscale>  2 0.17370755E+03</rscale>
<asrwt>0</asrwt>
<pdfrwt beam="1">  1       21 0.10278596E+00 0.17420482E+03</pdfrwt>
<pdfrwt beam="2">  1       21 0.71685182E-02 0.17420482E+03</pdfrwt>
<totfact> 0.11245699E+05</totfact>
</mgrwt>
</event>
<event>
12    1  0.1071811E-001  0.1820710E+03  0.7546771E-02  0.1166505E+00
         21   -1    0    0  501  502  0.00000000000E+00  0.00000000000E+00  0.26891335195E+03  0.26891335195E+03  0.00000000000E+00 0.  1.
         21   -1    0    0  502  503 -0.00000000000E+00 -0.00000000000E+00 -0.14513830304E+03  0.14513830304E+03  0.00000000000E+00 0. -1.
         -6    2    1    2    0  503  0.48672537485E+02 -0.21717742307E+02 -0.22362380515E+02  0.18058644343E+03  0.17108685295E+03 0.  0.
        -24    2    3    3    0    0  0.92139635394E+02 -0.27358163439E+02 -0.43162394818E+02  0.13184289466E+03  0.79255126201E+02 0.  0.
          6    2    1    2  501    0 -0.48672537485E+02  0.21717742307E+02  0.14613742942E+03  0.23346521156E+03  0.17409532014E+03 0.  0.
         24    2    5    5    0    0 -0.60589983856E+02 -0.48010021641E+02  0.87210550335E+02  0.14127815351E+03  0.79860680230E+02 0.  0.
          5    1    5    5  501    0  0.11917446371E+02  0.69727763949E+02  0.58926879088E+02  0.92187058052E+02  0.47000000000E+01 0. -1.
        -13    1    6    6    0    0 -0.39054410351E+02  0.58351115427E+01  0.70702367132E+02  0.80982221583E+02  0.00000000000E+00 0.  1.
         14    1    6    6    0    0 -0.21535573505E+02 -0.53845133184E+02  0.16508183203E+02  0.60295931923E+02  0.00000000000E+00 0. -1.
         -5    1    3    3    0  503 -0.43467097909E+02  0.56404211315E+01  0.20800014302E+02  0.48743548764E+02  0.47000000000E+01 0.  1.
         11    1    4    4    0    0  0.14146355853E+02  0.74153154333E+01 -0.43615088463E+02  0.46447628879E+02  0.00000000000E+00 0. -1.
        -12    1    4    4    0    0  0.77993279541E+02 -0.34773478872E+02  0.45269364545E+00  0.85395265782E+02  0.00000000000E+00 0.  1.
<mgrwt>
<rscale>  2 0.18134810E+03</rscale>
<asrwt>0</asrwt>
<pdfrwt beam="1">  1       21 0.41371285E-01 0.18207102E+03</pdfrwt>
<pdfrwt beam="2">  1       21 0.22328970E-01 0.18207102E+03</pdfrwt>
<totfact> 0.10601345E+05</totfact>
</mgrwt>
</event>
<event>
12    1  0.1071811E-001  0.1729153E+03  0.7546771E-02  0.1175128E+00
         21   -1    0    0  501  502  0.00000000000E+00  0.00000000000E+00  0.26917590354E+03  0.26917590354E+03  0.00000000000E+00 0.  1.
         21   -1    0    0  502  503 -0.00000000000E+00 -0.00000000000E+00 -0.38172123509E+03  0.38172123509E+03  0.00000000000E+00 0.  1.
         -6    2    1    2    0  503  0.40189029222E+01 -0.96454737313E+01 -0.33061912844E+03  0.37258819301E+03  0.17147526568E+03 0.  0.
        -24    2    3    3    0    0  0.39722498542E+02  0.39310520505E+02 -0.26772180820E+03  0.28512620696E+03  0.80615094089E+02 0.  0.
          6    2    1    2  501    0 -0.40189029222E+01  0.96454737313E+01  0.21807379688E+03  0.27830894561E+03  0.17259925138E+03 0.  0.
         24    2    5    5    0    0 -0.40241826194E+02  0.54713407787E+02  0.18079679481E+03  0.20935328063E+03  0.80798227262E+02 0.  0.
          5    1    5    5  501    0  0.36222923272E+02 -0.45067934056E+02  0.37277002073E+02  0.68955664988E+02  0.47000000000E+01 0. -1.
        -11    1    6    6    0    0 -0.69988082106E+01  0.64435165739E+02  0.14836321276E+03  0.16190280047E+03  0.00000000000E+00 0.  1.
         12    1    6    6    0    0 -0.33243017984E+02 -0.97217579521E+01  0.32433582048E+02  0.47450480153E+02  0.00000000000E+00 0. -1.
         -5    1    3    3    0  503 -0.35703595620E+02 -0.48955994236E+02 -0.62897320240E+02  0.87461986058E+02  0.47000000000E+01 0.  1.
         13    1    4    4    0    0  0.13882387121E+02  0.51470424917E+02 -0.86062156925E+02  0.10123546892E+03  0.00000000000E+00 0. -1.
        -14    1    4    4    0    0  0.25840111422E+02 -0.12159904412E+02 -0.18165965127E+03  0.18389073803E+03  0.00000000000E+00 0.  1.
<mgrwt>
<rscale>  2 0.17263410E+03</rscale>
<asrwt>0</asrwt>
<pdfrwt beam="1">  1       21 0.41411678E-01 0.17291526E+03</pdfrwt>
<pdfrwt beam="2">  1       21 0.58726344E-01 0.17291526E+03</pdfrwt>
<totfact> 0.15428875E+04</totfact>
</mgrwt>
</event>
<event>
12    1  0.1071811E-001  0.2020384E+03  0.7546771E-02  0.1148079E+00
         21   -1    0    0  503  502  0.00000000000E+00  0.00000000000E+00  0.19622735471E+03  0.19622735471E+03  0.00000000000E+00 0. -1.
         21   -1    0    0  501  503 -0.00000000000E+00 -0.00000000000E+00 -0.28877380577E+03  0.28877380577E+03  0.00000000000E+00 0.  1.
          6    2    1    2  501    0  0.61826961730E+02 -0.84267131899E+02 -0.17467881489E+03  0.26690663097E+03  0.17263527614E+03 0.  0.
         24    2    3    3    0    0  0.98799419780E+02 -0.30222285070E+02 -0.14302333987E+03  0.19402338720E+03  0.80713612060E+02 0.  0.
         -6    2    1    2    0  502 -0.61826961730E+02  0.84267131899E+02  0.82132363834E+02  0.21809452950E+03  0.17290452827E+03 0.  0.
        -24    2    5    5    0    0 -0.79404533088E+01 -0.17343115303E+02  0.12066109195E+02  0.83336345464E+02  0.80221699290E+02 0.  0.
          5    1    3    3  501    0 -0.36972458050E+02 -0.54044846829E+02 -0.31655475024E+02  0.72883243767E+02  0.47000000000E+01 0. -1.
        -13    1    4    4    0    0  0.33009084322E+02  0.22512285808E+02 -0.19482580611E+02  0.44451924676E+02  0.00000000000E+00 0.  1.
         14    1    4    4    0    0  0.65790335458E+02 -0.52734570878E+02 -0.12354075926E+03  0.14957146253E+03  0.00000000000E+00 0. -1.
         -5    1    5    5    0  502 -0.53886508421E+02  0.10161024720E+03  0.70066254639E+02  0.13475818404E+03  0.47000000000E+01 0.  1.
         11    1    6    6    0    0  0.27010748010E+02  0.17792851077E+02  0.94995687900E+01  0.33710649129E+02  0.00000000000E+00 0. -1.
        -12    1    6    6    0    0 -0.34951201318E+02 -0.35135966380E+02  0.25665404049E+01  0.49625696335E+02  0.00000000000E+00 0.  1.
<mgrwt>
<rscale>  2 0.20198074E+03</rscale>
<asrwt>0</asrwt>
<pdfrwt beam="1">  1       21 0.30188824E-01 0.20203836E+03</pdfrwt>
<pdfrwt beam="2">  1       21 0.44426739E-01 0.20203836E+03</pdfrwt>
<totfact> 0.50978663E+04</totfact>
</mgrwt>
</event>
<event>
12    1  0.1071811E-001  0.2709571E+03  0.7546771E-02  0.1100839E+00
         21   -1    0    0  503  502  0.00000000000E+00  0.00000000000E+00  0.28391927172E+03  0.28391927172E+03  0.00000000000E+00 0. -1.
         21   -1    0    0  501  503 -0.00000000000E+00 -0.00000000000E+00 -0.37951205956E+03  0.37951205956E+03  0.00000000000E+00 0.  1.
          6    2    1    2  501    0  0.41755665919E+02  0.20381610662E+03 -0.23554389682E+03  0.35846563827E+03  0.17243011782E+03 0.  0.
         24    2    3    3    0    0  0.74383461116E+02  0.19714253594E+03 -0.16322963202E+03  0.27871256648E+03  0.81478237468E+02 0.  0.
         -6    2    1    2    0  502 -0.41755665919E+02 -0.20381610662E+03  0.13995110898E+03  0.30496569302E+03  0.17358922795E+03 0.  0.
        -24    2    5    5    0    0  0.87418301542E+01 -0.17688987240E+03  0.15129659343E+03  0.24643510942E+03  0.80455934661E+02 0.  0.
          5    1    3    3  501    0 -0.32627795196E+02  0.66735706784E+01 -0.72314264800E+02  0.79753071781E+02  0.47000000000E+01 0. -1.
        -13    1    4    4    0    0  0.39384866093E+02  0.90193609758E+02 -0.12663423787E+03  0.16038168574E+03  0.00000000000E+00 0.  1.
         14    1    4    4    0    0  0.34998595022E+02  0.10694892618E+03 -0.36595394151E+02  0.11833088075E+03  0.00000000000E+00 0. -1.
         -5    1    5    5    0  502 -0.50497496073E+02 -0.26926234220E+02 -0.11345484442E+02  0.58530583597E+02  0.47000000000E+01 0.  1.
         11    1    6    6    0    0  0.89022541849E+01 -0.31518717917E+02  0.75921533073E+02  0.82684695638E+02  0.00000000000E+00 0. -1.
        -12    1    6    6    0    0 -0.16042403071E+00 -0.14537115448E+03  0.75375060353E+02  0.16375041378E+03  0.00000000000E+00 0.  1.
<mgrwt>
<rscale>  2 0.27077165E+03</rscale>
<asrwt>0</asrwt>
<pdfrwt beam="1">  1       21 0.43679888E-01 0.27095712E+03</pdfrwt>
<pdfrwt beam="2">  1       21 0.58386470E-01 0.27095712E+03</pdfrwt>
<totfact> 0.13236618E+04</totfact>
</mgrwt>
</event>
<event>
12    1  0.1071811E-001  0.2232752E+03  0.7546771E-02  0.1131869E+00
         21   -1    0    0  501  502  0.00000000000E+00  0.00000000000E+00  0.32959976715E+03  0.32959976715E+03  0.00000000000E+00 0. -1.
         21   -1    0    0  502  503 -0.00000000000E+00 -0.00000000000E+00 -0.22338959483E+03  0.22338959483E+03  0.00000000000E+00 0. -1.
         -6    2    1    2    0  503  0.32286544794E+02  0.13773573282E+03 -0.10580432932E+03  0.24509007801E+03  0.16988536478E+03 0.  0.
        -24    2    3    3    0    0 -0.31936137844E+02  0.12638880356E+03 -0.88974536003E+02  0.17757239357E+03  0.81372233199E+02 0.  0.
          6    2    1    2  501    0 -0.32286544794E+02 -0.13773573282E+03  0.21201450164E+03  0.30789928397E+03  0.17273756712E+03 0.  0.
         24    2    5    5    0    0 -0.81307134847E+01 -0.15789701601E+03  0.21210540606E+03  0.27608608247E+03  0.78976233710E+02 0.  0.
          5    1    5    5  501    0 -0.24155831309E+02  0.20161283185E+02 -0.90904420303E-01  0.31813201497E+02  0.47000000000E+01 0. -1.
        -11    1    6    6    0    0  0.18042304146E+02 -0.20478576955E+02  0.76320278101E+01  0.28339807718E+02  0.00000000000E+00 0.  1.
         12    1    6    6    0    0 -0.26173017631E+02 -0.13741843905E+03  0.20447337825E+03  0.24774627475E+03  0.00000000000E+00 0. -1.
         -5    1    3    3    0  503  0.64222682638E+02  0.11346929260E+02 -0.16829793316E+02  0.67517684439E+02  0.47000000000E+01 0.  1.
         13    1    4    4    0    0  0.23133067402E+02  0.60728892091E+02 -0.21334293970E+02  0.68398020740E+02  0.00000000000E+00 0. -1.
        -14    1    4    4    0    0 -0.55069205247E+02  0.65659911471E+02 -0.67640242034E+02  0.10917437283E+03  0.00000000000E+00 0.  1.
<mgrwt>
<rscale>  2 0.22272336E+03</rscale>
<asrwt>0</asrwt>
<pdfrwt beam="1">  1       21 0.50707657E-01 0.22327521E+03</pdfrwt>
<pdfrwt beam="2">  1       21 0.34367630E-01 0.22327521E+03</pdfrwt>
<totfact> 0.29702994E+04</totfact>
</mgrwt>
</event>
<event>
12    1  0.1071811E-001  0.1743814E+03  0.7546771E-02  0.1173697E+00
         21   -1    0    0  503  502  0.00000000000E+00  0.00000000000E+00  0.15117593439E+04  0.15117593439E+04  0.00000000000E+00 0.  1.
         21   -1    0    0  501  503 -0.00000000000E+00 -0.00000000000E+00 -0.59552657562E+02  0.59552657562E+02  0.00000000000E+00 0.  1.
          6    2    1    2  501    0 -0.12917665985E+02  0.60389955322E+01  0.84545074776E+02  0.19257811126E+03  0.17243875349E+03 0.  0.
         24    2    3    3    0    0  0.21008354512E+02 -0.34097777828E+02  0.10256755884E+03  0.13682118008E+03  0.81215280469E+02 0.  0.
         -6    2    1    2    0  502  0.12917665985E+02 -0.60389955322E+01  0.13676616115E+04  0.13787338902E+04  0.17379735525E+03 0.  0.
        -24    2    5    5    0    0  0.47087549651E+02  0.28056547738E+02  0.63679950575E+03  0.64626437225E+03  0.95601365632E+02 0.  0.
          5    1    3    3  501    0 -0.33926020497E+02  0.40136773360E+02 -0.18022484059E+02  0.55756931176E+02  0.47000000000E+01 0. -1.
        -13    1    4    4    0    0 -0.20811660225E+02 -0.42618981486E+02  0.60726603862E+02  0.77053378906E+02  0.00000000000E+00 0.  1.
         14    1    4    4    0    0  0.41820014737E+02  0.85212036582E+01  0.41840954974E+02  0.59767801177E+02  0.00000000000E+00 0. -1.
         -5    1    5    5    0  502 -0.34169883667E+02 -0.34095543270E+02  0.73086210578E+03  0.73246951792E+03  0.47000000000E+01 0.  1.
         13    1    6    6    0    0  0.10115648304E+02  0.59107728163E+02  0.41176484647E+03  0.41610856595E+03  0.00000000000E+00 0. -1.
        -14    1    6    6    0    0  0.36971901348E+02 -0.31051180425E+02  0.22503465928E+03  0.23015580630E+03  0.00000000000E+00 0.  1.
<mgrwt>
<rscale>  2 0.17404186E+03</rscale>
<asrwt>0</asrwt>
<pdfrwt beam="1">  1       21 0.23257833E+00 0.17438135E+03</pdfrwt>
<pdfrwt beam="2">  1       21 0.91619485E-02 0.17438135E+03</pdfrwt>
<totfact> 0.81320857E+03</totfact>
</mgrwt>
</event>
<event>
12    1  0.1071811E-001  0.1903566E+03  0.7546771E-02  0.1158276E+00
         21   -1    0    0  501  502  0.00000000000E+00  0.00000000000E+00  0.59425276152E+02  0.59425276152E+02  0.00000000000E+00 0.  1.
         21   -1    0    0  502  503 -0.00000000000E+00 -0.00000000000E+00 -0.61129233494E+03  0.61129233494E+03  0.00000000000E+00 0. -1.
         -6    2    1    2    0  503  0.72599421014E+02 -0.32548328107E+02 -0.25118017447E+03  0.31516207540E+03  0.17293231084E+03 0.  0.
        -24    2    3    3    0    0  0.21870950818E+02 -0.69902562332E+02 -0.21783754013E+03  0.24373002540E+03  0.81156790729E+02 0.  0.
          6    2    1    2  501    0 -0.72599421014E+02  0.32548328107E+02 -0.30068688432E+03  0.35555553569E+03  0.17227033106E+03 0.  0.
         24    2    5    5    0    0 -0.75675862639E+02  0.51818388534E+02 -0.11315665780E+03  0.16695416883E+03  0.81592179218E+02 0.  0.
          5    1    5    5  501    0  0.30764416247E+01 -0.19270060427E+02 -0.18753022652E+03  0.18860136686E+03  0.47000000000E+01 0. -1.
        -11    1    6    6    0    0 -0.11765570427E+02  0.51783910970E+02 -0.26694538721E+02  0.59435683561E+02  0.00000000000E+00 0.  1.
         12    1    6    6    0    0 -0.63910292211E+02  0.34477563443E-01 -0.86462119078E+02  0.10751848527E+03  0.00000000000E+00 0. -1.
         -5    1    3    3    0  503  0.50728470196E+02  0.37354234225E+02 -0.33342634338E+02  0.71432050003E+02  0.47000000000E+01 0.  1.
         11    1    4    4    0    0  0.10799739744E+02  0.16083203162E+02 -0.20591770706E+02  0.28272333177E+02  0.00000000000E+00 0. -1.
        -12    1    4    4    0    0  0.11071211073E+02 -0.85985765494E+02 -0.19724576942E+03  0.21545769222E+03  0.00000000000E+00 0.  1.
<mgrwt>
<rscale>  2 0.19020617E+03</rscale>
<asrwt>0</asrwt>
<pdfrwt beam="1">  1       21 0.91423499E-02 0.19035665E+03</pdfrwt>
<pdfrwt beam="2">  1       21 0.94044977E-01 0.19035665E+03</pdfrwt>
<totfact> 0.90222798E+04</totfact>
</mgrwt>
</event>
<event>
12    1  0.1071811E-001  0.2028394E+03  0.7546771E-02  0.1147566E+00
         21   -1    0    0  503  502  0.00000000000E+00  0.00000000000E+00  0.17593887832E+03  0.17593887832E+03  0.00000000000E+00 0. -1.
         21   -1    0    0  501  503 -0.00000000000E+00 -0.00000000000E+00 -0.61592966355E+03  0.61592966355E+03  0.00000000000E+00 0. -1.
          6    2    1    2  501    0  0.97916783449E+02  0.34927228208E+02 -0.53248724894E+03  0.56981269892E+03  0.17417299965E+03 0.  0.
         24    2    3    3    0    0  0.12757358832E+03  0.42593140211E+02 -0.33284635612E+03  0.36778084903E+03  0.79917833432E+02 0.  0.
         -6    2    1    2    0  502 -0.97916783449E+02 -0.34927228208E+02  0.92496463716E+02  0.22205584295E+03  0.17304795242E+03 0.  0.
        -24    2    5    5    0    0 -0.76889342015E+02  0.28264426816E+02  0.16778103563E+02  0.12110685276E+03  0.87604316596E+02 0.  0.
          5    1    3    3  501    0 -0.29656804867E+02 -0.76659120031E+01 -0.19964089282E+03  0.20203184989E+03  0.47000000000E+01 0. -1.
        -11    1    4    4    0    0  0.12087271625E+03  0.98754849004E+01 -0.28170242713E+03  0.30669854285E+03  0.00000000000E+00 0.  1.
         12    1    4    4    0    0  0.67008720680E+01  0.32717655310E+02 -0.51143928987E+02  0.61082306176E+02  0.00000000000E+00 0. -1.
         -5    1    5    5    0  502 -0.21027441434E+02 -0.63191655023E+02  0.75718360153E+02  0.10094899020E+03  0.47000000000E+01 0.  1.
         11    1    6    6    0    0 -0.36984059455E+02 -0.28860155918E+02  0.20782768518E+02  0.51309382384E+02  0.00000000000E+00 0. -1.
        -12    1    6    6    0    0 -0.39905282561E+02  0.57124582734E+02 -0.40046649552E+01  0.69797470371E+02  0.00000000000E+00 0.  1.
<mgrwt>
<rscale>  2 0.20259771E+03</rscale>
<asrwt>0</asrwt>
<pdfrwt beam="1">  1       21 0.27067520E-01 0.20283945E+03</pdfrwt>
<pdfrwt beam="2">  1       21 0.94758410E-01 0.20283945E+03</pdfrwt>
<totfact> 0.12037070E+04</totfact>
</mgrwt>
</event>
<event>
12    1  0.1071811E-001  0.1996048E+03  0.7546771E-02  0.1150123E+00
         21   -1    0    0  501  502  0.00000000000E+00  0.00000000000E+00  0.24813811386E+03  0.24813811386E+03  0.00000000000E+00 0.  1.
         21   -1    0    0  502  503 -0.00000000000E+00 -0.00000000000E+00 -0.32298596213E+03  0.32298596213E+03  0.00000000000E+00 0. -1.
         -6    2    1    2    0  503 -0.73144857416E+02  0.66897896890E+02 -0.24005692421E+03  0.31220090018E+03  0.17325292619E+03 0.  0.
        -24    2    3    3    0    0 -0.42743594510E+01  0.40280275387E+02 -0.21508684117E+03  0.23411608532E+03  0.83109695150E+02 0.  0.
          6    2    1    2  501    0  0.73144857416E+02 -0.66897896890E+02  0.16520907593E+03  0.25892317581E+03  0.17297882363E+03 0.  0.
         24    2    5    5    0    0  0.89052979327E+02 -0.53645643998E+02  0.46319591955E+02  0.13815277401E+03  0.78309617043E+02 0.  0.
          5    1    5    5  501    0 -0.15908121911E+02 -0.13252252892E+02  0.11888948398E+03  0.12077040180E+03  0.47000000000E+01 0. -1.
        -13    1    6    6    0    0  0.37993867571E+01  0.17469514580E+02  0.13438520012E+02  0.22365444317E+02  0.00000000000E+00 0.  1.
         14    1    6    6    0    0  0.85253592570E+02 -0.71115158578E+02  0.32881071943E+02  0.11578732969E+03  0.00000000000E+00 0. -1.
         -5    1    3    3    0  503 -0.68870497965E+02  0.26617621503E+02 -0.24970083046E+02  0.78084814860E+02  0.47000000000E+01 0.  1.
         13    1    4    4    0    0 -0.33779689979E+02  0.17161448899E+02 -0.40136723104E+02  0.55195464713E+02  0.00000000000E+00 0. -1.
        -14    1    4    4    0    0  0.29505330528E+02  0.23118826488E+02 -0.17495011806E+03  0.17892062060E+03  0.00000000000E+00 0.  1.
<mgrwt>
<rscale>  2 0.19954530E+03</rscale>
<asrwt>0</asrwt>
<pdfrwt beam="1">  1       21 0.38175094E-01 0.19960480E+03</pdfrwt>
<pdfrwt beam="2">  1       21 0.49690148E-01 0.19960480E+03</pdfrwt>
<totfact> 0.25442101E+04</totfact>
</mgrwt>
</event>
<event>
12    1  0.1071811E-001  0.2308916E+03  0.7546771E-02  0.1126234E+00
         21   -1    0    0  501  502  0.00000000000E+00  0.00000000000E+00  0.13631081106E+03  0.13631081106E+03  0.00000000000E+00 0. -1.
         21   -1    0    0  502  503 -0.00000000000E+00 -0.00000000000E+00 -0.42873093122E+03  0.42873093122E+03  0.00000000000E+00 0. -1.
         -6    2    1    2    0  503  0.11530851446E+03  0.96841069432E+02 -0.23259705950E+03  0.32773816821E+03  0.17503333562E+03 0.  0.
        -24    2    3    3    0    0  0.73285327244E+02  0.45218944770E+02 -0.41953739889E+02  0.12575362095E+03  0.81476160540E+02 0.  0.
          6    2    1    2  501    0 -0.11530851446E+03 -0.96841069432E+02 -0.59823060653E+02  0.23730357406E+03  0.17337803044E+03 0.  0.
         24    2    5    5    0    0 -0.37773426187E+02  0.17594123510E+02 -0.32447278928E+02  0.96311990190E+02  0.80540602410E+02 0.  0.
          5    1    5    5  501    0 -0.77535088276E+02 -0.11443519294E+03 -0.27375781726E+02  0.14099158387E+03  0.47000000000E+01 0. -1.
        -11    1    6    6    0    0 -0.48169171446E+02  0.38902262670E+02 -0.82985509928E+01  0.62470161415E+02  0.00000000000E+00 0.  1.
         12    1    6    6    0    0  0.10395745260E+02 -0.21308139160E+02 -0.24148727935E+02  0.33841828775E+02  0.00000000000E+00 0. -1.
         -5    1    3    3    0  503  0.42023187219E+02  0.51622124662E+02 -0.19064331961E+03  0.20198454726E+03  0.47000000000E+01 0.  1.
         13    1    4    4    0    0  0.31165058766E+02  0.49628760440E+02 -0.56076810798E+02  0.81110316607E+02  0.00000000000E+00 0. -1.
        -14    1    4    4    0    0  0.42120268478E+02 -0.44098156704E+01  0.14123070909E+02  0.44643304344E+02  0.00000000000E+00 0.  1.
<mgrwt>
<rscale>  2 0.23057785E+03</rscale>
<asrwt>0</asrwt>
<pdfrwt beam="1">  1       21 0.20970894E-01 0.23089157E+03</pdfrwt>
<pdfrwt beam="2">  1       21 0.65958603E-01 0.23089157E+03</pdfrwt>
<totfact> 0.43775201E+04</totfact>
</mgrwt>
</event>
<event>
12    1  0.1071811E-001  0.2241594E+03  0.7546771E-02  0.1131132E+00
         21   -1    0    0  501  502  0.00000000000E+00  0.00000000000E+00  0.12791441981E+04  0.12791441981E+04  0.00000000000E+00 0.  1.
         21   -1    0    0  502  503 -0.00000000000E+00 -0.00000000000E+00 -0.39051700119E+02  0.39051700119E+02  0.00000000000E+00 0.  1.
         -6    2    1    2    0  503 -0.13620846109E+03  0.31290149896E+02  0.59009235186E+03  0.63062946138E+03  0.17306852830E+03 0.  0.
        -24    2    3    3    0    0 -0.27371309095E+02 -0.17351159976E+01  0.40097187393E+03  0.40989242550E+03  0.80505637091E+02 0.  0.
          6    2    1    2  501    0  0.13620846109E+03 -0.31290149896E+02  0.65000014610E+03  0.68756643681E+03  0.17525865671E+03 0.  0.
         24    2    5    5    0    0  0.50987770232E+02 -0.80744092129E+02  0.35228450453E+03  0.37393456377E+03  0.81260843745E+02 0.  0.
          5    1    5    5  501    0  0.85220690854E+02  0.49453942233E+02  0.29771564157E+03  0.31363187304E+03  0.47000000000E+01 0. -1.
        -11    1    6    6    0    0  0.60091102123E+02 -0.92567218879E+02  0.31510736081E+03  0.33387464624E+03  0.00000000000E+00 0.  1.
         12    1    6    6    0    0 -0.91033318905E+01  0.11823126750E+02  0.37177143716E+02  0.40059917531E+02  0.00000000000E+00 0. -1.
         -5    1    3    3    0  503 -0.10883715199E+03  0.33025265893E+02  0.18912047793E+03  0.22073703589E+03  0.47000000000E+01 0.  1.
         11    1    4    4    0    0 -0.24016195828E+02  0.19959540109E+02  0.37314222204E+03  0.37444663008E+03  0.00000000000E+00 0. -1.
        -12    1    4    4    0    0 -0.33551132669E+01 -0.21694656107E+02  0.27829651891E+02  0.35445795420E+02  0.00000000000E+00 0.  1.
<mgrwt>
<rscale>  2 0.22373109E+03</rscale>
<asrwt>0</asrwt>
<pdfrwt beam="1">  1       21 0.19679138E+00 0.22415935E+03</pdfrwt>
<pdfrwt beam="2">  1       21 0.60079548E-02 0.22415935E+03</pdfrwt>
<totfact> 0.27108843E+04</totfact>
</mgrwt>
</event>
<event>
12    1  0.1071811E-001  0.1798496E+03  0.7546771E-02  0.1168989E+00
         21   -1    0    0  501  502  0.00000000000E+00  0.00000000000E+00  0.32226181393E+03  0.32226181393E+03  0.00000000000E+00 0. -1.
         21   -1    0    0  502  503 -0.00000000000E+00 -0.00000000000E+00 -0.49263524437E+03  0.49263524437E+03  0.00000000000E+00 0. -1.
         -6    2    1    2    0  503 -0.49579275710E+02 -0.68013832779E+01 -0.44964700876E+03  0.48272301108E+03  0.16832917022E+03 0.  0.
        -24    2    3    3    0    0  0.24692820798E+01  0.34506030558E+02 -0.17008067875E+03  0.19532993935E+03  0.89607948431E+02 0.  0.
          6    2    1    2  501    0  0.49579275710E+02  0.68013832779E+01  0.27927357831E+03  0.33217404722E+03  0.17274693255E+03 0.  0.
         24    2    5    5    0    0 -0.78375610571E+00 -0.51532229244E+02  0.13376176517E+03  0.16744693018E+03  0.86545246432E+02 0.  0.
          5    1    5    5  501    0  0.50363031816E+02  0.58333612522E+02  0.14551181314E+03  0.16472711704E+03  0.47000000000E+01 0. -1.
        -13    1    6    6    0    0 -0.93912450761E+01  0.63408092532E+00  0.10839855986E+03  0.10880645809E+03  0.00000000000E+00 0.  1.
         14    1    6    6    0    0  0.86074889704E+01 -0.52166310170E+02  0.25363205314E+02  0.58640472090E+02  0.00000000000E+00 0. -1.
         -5    1    3    3    0  503 -0.52048557790E+02 -0.41307413836E+02 -0.27956633001E+03  0.28739307173E+03  0.47000000000E+01 0.  1.
         11    1    4    4    0    0  0.19718949913E+02  0.37317225024E+02 -0.17258783959E+03  0.17767378716E+03  0.00000000000E+00 0. -1.
        -12    1    4    4    0    0 -0.17249667833E+02 -0.28111944653E+01  0.25071608370E+01  0.17656152190E+02  0.00000000000E+00 0.  1.
<mgrwt>
<rscale>  2 0.17878032E+03</rscale>
<asrwt>0</asrwt>
<pdfrwt beam="1">  1       21 0.49578740E-01 0.17984957E+03</pdfrwt>
<pdfrwt beam="2">  1       21 0.75790038E-01 0.17984957E+03</pdfrwt>
<totfact> 0.60827472E+03</totfact>
</mgrwt>
</event>
<event>
12    1  0.1071811E-001  0.2344685E+03  0.7546771E-02  0.1123591E+00
         21   -1    0    0  501  502  0.00000000000E+00  0.00000000000E+00  0.41954324688E+03  0.41954324688E+03  0.00000000000E+00 0.  1.
         21   -1    0    0  502  503 -0.00000000000E+00 -0.00000000000E+00 -0.14260715918E+03  0.14260715918E+03  0.00000000000E+00 0.  1.
         -6    2    1    2    0  503 -0.12569281145E+03  0.97644789918E+02  0.57668033369E+02  0.24113020520E+03  0.17171192719E+03 0.  0.
        -24    2    3    3    0    0 -0.12288747526E+03  0.13280943089E+03  0.53705863365E+02  0.20532223573E+03  0.80828362707E+02 0.  0.
          6    2    1    2  501    0  0.12569281145E+03 -0.97644789918E+02  0.21926805433E+03  0.32102020087E+03  0.17216939876E+03 0.  0.
         24    2    5    5    0    0  0.11585020301E+03 -0.10564234035E+02  0.95468183146E+02  0.16926909458E+03  0.77491804791E+02 0.  0.
          5    1    5    5  501    0  0.98426084399E+01 -0.87080555883E+02  0.12379987118E+03  0.15175110629E+03  0.47000000000E+01 0. -1.
        -13    1    6    6    0    0  0.11459442709E+03 -0.31119538742E+02  0.76372372900E+02  0.14118444586E+03  0.00000000000E+00 0.  1.
         14    1    6    6    0    0  0.12557759199E+01  0.20555304707E+02  0.19095810246E+02  0.28084648719E+02  0.00000000000E+00 0. -1.
         -5    1    3    3    0  503 -0.28053361921E+01 -0.35164640975E+02  0.39621700039E+01  0.35807969465E+02  0.47000000000E+01 0.  1.
         13    1    4    4    0    0  0.88546388082E+01  0.28839272147E+02  0.11357432244E+02  0.32235066520E+02  0.00000000000E+00 0. -1.
        -14    1    4    4    0    0 -0.13174211407E+03  0.10397015875E+03  0.42348431121E+02  0.17308716921E+03  0.00000000000E+00 0.  1.
<mgrwt>
<rscale>  2 0.23438455E+03</rscale>
<asrwt>0</asrwt>
<pdfrwt beam="1">  1       21 0.64545114E-01 0.23446853E+03</pdfrwt>
<pdfrwt beam="2">  1       21 0.21939563E-01 0.23446853E+03</pdfrwt>
<totfact> 0.42081290E+04</totfact>
</mgrwt>
</event>
<event>
12    1  0.1071811E-001  0.1760853E+03  0.7546771E-02  0.1171769E+00
         21   -1    0    0  501  502  0.00000000000E+00  0.00000000000E+00  0.73764351000E+02  0.73764351000E+02  0.00000000000E+00 0.  1.
         21   -1    0    0  502  503 -0.00000000000E+00 -0.00000000000E+00 -0.45191666863E+03  0.45191666863E+03  0.00000000000E+00 0.  1.
         -6    2    1    2    0  503 -0.88357121857E+00 -0.34730729411E+02 -0.11807286405E+03  0.21159926161E+03  0.17212217181E+03 0.  0.
        -24    2    3    3    0    0 -0.36926094882E+02 -0.70429197850E+02 -0.11233279368E+03  0.16033053266E+03  0.82239982813E+02 0.  0.
          6    2    1    2  501    0  0.88357121857E+00  0.34730729411E+02 -0.26007945359E+03  0.31408175802E+03  0.17262393889E+03 0.  0.
         24    2    5    5    0    0  0.45200509698E+02  0.42336262529E+02 -0.25012988063E+03  0.26779008304E+03  0.72877473807E+02 0.  0.
          5    1    5    5  501    0 -0.44316938479E+02 -0.76055331184E+01 -0.99495729536E+01  0.46291674977E+02  0.47000000000E+01 0. -1.
        -13    1    6    6    0    0  0.22056863490E+01  0.26697463177E+02 -0.20730229142E+02  0.33872732288E+02  0.00000000000E+00 0.  1.
         14    1    6    6    0    0  0.42994823349E+02  0.15638799352E+02 -0.22939965149E+03  0.23391735075E+03  0.00000000000E+00 0. -1.
         -5    1    3    3    0  503  0.36042523664E+02  0.35698468439E+02 -0.57400703633E+01  0.51268728955E+02  0.47000000000E+01 0.  1.
         11    1    4    4    0    0  0.81318055312E+01  0.63426430182E+01  0.62460548900E+01  0.12056889455E+02  0.00000000000E+00 0. -1.
        -12    1    4    4    0    0 -0.45057900413E+02 -0.76771840868E+02 -0.11857884857E+03  0.14827364320E+03  0.00000000000E+00 0.  1.
<mgrwt>
<rscale>  2 0.17596219E+03</rscale>
<asrwt>0</asrwt>
<pdfrwt beam="1">  1       21 0.11348362E-01 0.17608529E+03</pdfrwt>
<pdfrwt beam="2">  1       21 0.69525639E-01 0.17608529E+03</pdfrwt>
<totfact> 0.12268155E+05</totfact>
</mgrwt>
</event>
<event>
12    1  0.1071811E-001  0.1911513E+03  0.7546771E-02  0.1158914E+00
         21   -1    0    0  503  502  0.00000000000E+00  0.00000000000E+00  0.21185209625E+03  0.21185209625E+03  0.00000000000E+00 0.  1.
         21   -1    0    0  501  503 -0.00000000000E+00 -0.00000000000E+00 -0.20586123573E+03  0.20586123573E+03  0.00000000000E+00 0.  1.
          6    2    1    2  501    0  0.33436063366E+02 -0.45862605780E+02 -0.88119031623E+02  0.21048467955E+03  0.18253078548E+03 0.  0.
         24    2    3    3    0    0  0.94457422999E+02 -0.79305772281E+01 -0.46298869313E+02  0.12721727238E+03  0.71102392902E+02 0.  0.
         -6    2    1    2    0  502 -0.33436063366E+02  0.45862605780E+02  0.94109892143E+02  0.20722865242E+03  0.17568635019E+03 0.  0.
        -24    2    5    5    0    0 -0.71003653357E+02  0.41496222763E+02  0.10533492372E+02  0.11537282127E+03  0.80227664383E+02 0.  0.
          5    1    3    3  501    0 -0.61021359633E+02 -0.37932028552E+02 -0.41820162311E+02  0.83267407173E+02  0.47000000000E+01 0. -1.
        -11    1    4    4    0    0  0.85179698923E+02 -0.32285478331E+02 -0.27742307193E+02  0.95223782891E+02  0.00000000000E+00 0.  1.
         12    1    4    4    0    0  0.92777240762E+01  0.24354901103E+02 -0.18556562120E+02  0.31993489486E+02  0.00000000000E+00 0. -1.
         -5    1    5    5    0  502  0.37567589991E+02  0.43663830177E+01  0.83576399770E+02  0.91855831154E+02  0.47000000000E+01 0.  1.
         11    1    6    6    0    0 -0.39513840181E+01  0.36326773149E+02 -0.19841083094E+02  0.41580241238E+02  0.00000000000E+00 0. -1.
        -12    1    6    6    0    0 -0.67052269339E+02  0.51694496138E+01  0.30374575467E+02  0.73792580031E+02  0.00000000000E+00 0.  1.
<mgrwt>
<rscale>  2 0.18949890E+03</rscale>
<asrwt>0</asrwt>
<pdfrwt beam="1">  1       21 0.32592630E-01 0.19115134E+03</pdfrwt>
<pdfrwt beam="2">  1       21 0.31670959E-01 0.19115134E+03</pdfrwt>
<totfact> 0.86887943E+04</totfact>
</mgrwt>
</event>
<event>
12    1  0.1071811E-001  0.1898065E+03  0.7546771E-02  0.1158778E+00
         21   -1    0    0  501  502  0.00000000000E+00  0.00000000000E+00  0.26333843883E+03  0.26333843883E+03  0.00000000000E+00 0. -1.
         21   -1    0    0  502  503 -0.00000000000E+00 -0.00000000000E+00 -0.14526102315E+03  0.14526102315E+03  0.00000000000E+00 0. -1.
         -6    2    1    2    0  503 -0.78208557392E+02  0.20049966352E+01  0.83586346520E+01  0.18936282968E+03  0.17224347892E+03 0.  0.
        -24    2    3    3    0    0 -0.40281740069E+02  0.51143583106E+01  0.72567182253E+02  0.11457687387E+03  0.78823149145E+02 0.  0.
          6    2    1    2  501    0  0.78208557392E+02 -0.20049966352E+01  0.10971878103E+03  0.21923663229E+03  0.17293319972E+03 0.  0.
         24    2    5    5    0    0  0.24894396897E+02 -0.66496446701E+02  0.51944441277E+02  0.11744512393E+03  0.77805036688E+02 0.  0.
          5    1    5    5  501    0  0.53314160495E+02  0.64491450066E+02  0.57774339753E+02  0.10179150836E+03  0.47000000000E+01 0. -1.
        -13    1    6    6    0    0  0.48564999195E+02 -0.63366671401E+02  0.48250262943E+02  0.93284414911E+02  0.00000000000E+00 0.  1.
         14    1    6    6    0    0 -0.23670602298E+02 -0.31297753003E+01  0.36941783344E+01  0.24160709016E+02  0.00000000000E+00 0. -1.
         -5    1    3    3    0  503 -0.37926817323E+02 -0.31093616754E+01 -0.64208547601E+02  0.74785955816E+02  0.47000000000E+01 0.  1.
         11    1    4    4    0    0 -0.36850266396E+02 -0.24333853065E+02  0.72546017915E+02  0.84929401586E+02  0.00000000000E+00 0. -1.
        -12    1    4    4    0    0 -0.34314736730E+01  0.29448211375E+02  0.21164338391E-01  0.29647472282E+02  0.00000000000E+00 0.  1.
<mgrwt>
<rscale>  2 0.18964921E+03</rscale>
<asrwt>0</asrwt>
<pdfrwt beam="1">  1       21 0.40513606E-01 0.18980645E+03</pdfrwt>
<pdfrwt beam="2">  1       21 0.22347850E-01 0.18980645E+03</pdfrwt>
<totfact> 0.11012349E+05</totfact>
</mgrwt>
</event>
<event>
12    1  0.1071811E-001  0.1754650E+03  0.7546771E-02  0.1172307E+00
         21   -1    0    0  501  502  0.00000000000E+00  0.00000000000E+00  0.34681594465E+03  0.34681594465E+03  0.00000000000E+00 0. -1.
         21   -1    0    0  502  503 -0.00000000000E+00 -0.00000000000E+00 -0.89029377115E+02  0.89029377115E+02  0.00000000000E+00 0. -1.
         -6    2    1    2    0  503 -0.48504238744E+01 -0.23328160414E+02  0.11535245398E+03  0.20984651798E+03  0.17367107644E+03 0.  0.
        -24    2    3    3    0    0 -0.14729721097E+02  0.38080946142E+02  0.12185736953E+03  0.14713222290E+03  0.71634833447E+02 0.  0.
          6    2    1    2  501    0  0.48504238744E+01  0.23328160414E+02  0.14243411356E+03  0.22599880378E+03  0.17383973345E+03 0.  0.
         24    2    5    5    0    0  0.37369656091E+02 -0.41193727725E+02  0.10784976561E+03  0.14575703389E+03  0.80747300785E+02 0.  0.
          5    1    5    5  501    0 -0.32519232216E+02  0.64521888139E+02  0.34584347945E+02  0.80241769894E+02  0.47000000000E+01 0. -1.
        -13    1    6    6    0    0 -0.10971270309E+02  0.18312214882E+02  0.25108566433E+02  0.32956730639E+02  0.00000000000E+00 0.  1.
         14    1    6    6    0    0  0.48340926400E+02 -0.59505942607E+02  0.82741199180E+02  0.11280030325E+03  0.00000000000E+00 0. -1.
         -5    1    3    3    0  503  0.98792972222E+01 -0.61409106556E+02 -0.65049155568E+01  0.62714295085E+02  0.47000000000E+01 0.  1.
         11    1    4    4    0    0  0.39396130742E+01 -0.10688547739E+01  0.97109352102E+02  0.97195109277E+02  0.00000000000E+00 0. -1.
        -12    1    4    4    0    0 -0.18669334171E+02  0.39149800916E+02  0.24748017432E+02  0.49937113623E+02  0.00000000000E+00 0.  1.
<mgrwt>
<rscale>  2 0.17542326E+03</rscale>
<asrwt>0</asrwt>
<pdfrwt beam="1">  1       21 0.53356298E-01 0.17546505E+03</pdfrwt>
<pdfrwt beam="2">  1       21 0.13696827E-01 0.17546505E+03</pdfrwt>
<totfact> 0.15470230E+05</totfact>
</mgrwt>
</event>
<event>
12    1  0.1071811E-001  0.1940760E+03  0.7546771E-02  0.1154915E+00
         21   -1    0    0  501  502  0.00000000000E+00  0.00000000000E+00  0.33257889163E+03  0.33257889163E+03  0.00000000000E+00 0. -1.
         21   -1    0    0  502  503 -0.00000000000E+00 -0.00000000000E+00 -0.11356888708E+03  0.11356888708E+03  0.00000000000E+00 0.  1.
         -6    2    1    2    0  503 -0.50070099829E+02 -0.69886216548E+02  0.94206672660E+02  0.21540688242E+03  0.17359184790E+03 0.  0.
        -24    2    3    3    0    0 -0.48992156572E+02 -0.42547849848E+01  0.11310126855E+03  0.14693979160E+03  0.79881604943E+02 0.  0.
          6    2    1    2  501    0  0.50070099829E+02  0.69886216548E+02  0.12480333189E+03  0.23074089629E+03  0.17399537756E+03 0.  0.
         24    2    5    5    0    0  0.90098523736E+02  0.14280771392E+02  0.57595006149E+02  0.13465089005E+03  0.80572905160E+02 0.  0.
          5    1    5    5  501    0 -0.40028423907E+02  0.55605445156E+02  0.67208325742E+02  0.96090006247E+02  0.47000000000E+01 0. -1.
        -11    1    6    6    0    0  0.45950260783E+01  0.21712510886E+01 -0.18724936070E+02  0.19402366525E+02  0.00000000000E+00 0.  1.
         12    1    6    6    0    0  0.85503497658E+02  0.12109520303E+02  0.76319942218E+02  0.11524852352E+03  0.00000000000E+00 0. -1.
         -5    1    3    3    0  503 -0.10779432571E+01 -0.65631431563E+02 -0.18894595889E+02  0.68467090814E+02  0.47000000000E+01 0.  1.
         11    1    4    4    0    0 -0.48254923764E+00 -0.31302275013E+02  0.16197956008E+02  0.35248248943E+02  0.00000000000E+00 0. -1.
        -12    1    4    4    0    0 -0.48509607334E+02  0.27047490028E+02  0.96903312541E+02  0.11169154266E+03  0.00000000000E+00 0.  1.
<mgrwt>
<rscale>  2 0.19398550E+03</rscale>
<asrwt>0</asrwt>
<pdfrwt beam="1">  1       21 0.51165983E-01 0.19407599E+03</pdfrwt>
<pdfrwt beam="2">  1       21 0.17472137E-01 0.19407599E+03</pdfrwt>
<totfact> 0.10765744E+05</totfact>
</mgrwt>
</event>
<event>
12    1  0.1071811E-001  0.1777224E+03  0.7546771E-02  0.1170314E+00
         21   -1    0    0  501  502  0.00000000000E+00  0.00000000000E+00  0.14032456200E+03  0.14032456200E+03  0.00000000000E+00 0. -1.
         21   -1    0    0  502  503 -0.00000000000E+00 -0.00000000000E+00 -0.24694094235E+03  0.24694094235E+03  0.00000000000E+00 0. -1.
         -6    2    1    2    0  503  0.19858492202E+02 -0.35165180545E+02 -0.11266654081E+03  0.20944012263E+03  0.17187340084E+03 0.  0.
        -24    2    3    3    0    0  0.17043816961E+02 -0.74525597200E+02 -0.12568389609E+03  0.16762258643E+03  0.80351312427E+02 0.  0.
          6    2    1    2  501    0 -0.19858492202E+02  0.35165180545E+02  0.60501604643E+01  0.17782538171E+03  0.17307314149E+03 0.  0.
         24    2    5    5    0    0  0.41747786009E+02 -0.65102795070E+01  0.34409429225E+02  0.98085080670E+02  0.81556194459E+02 0.  0.
          5    1    5    5  501    0 -0.61606278211E+02  0.41675460052E+02 -0.28359268761E+02  0.79740301041E+02  0.47000000000E+01 0. -1.
        -11    1    6    6    0    0 -0.24079105571E+02 -0.92914282670E+01  0.12283112135E+02  0.28583365933E+02  0.00000000000E+00 0.  1.
         12    1    6    6    0    0  0.65826891580E+02  0.27811487601E+01  0.22126317091E+02  0.69501714738E+02  0.00000000000E+00 0. -1.
         -5    1    3    3    0  503  0.28146752407E+01  0.39360416655E+02  0.13017355280E+02  0.41817536207E+02  0.47000000000E+01 0.  1.
         13    1    4    4    0    0 -0.29578505562E+02 -0.48846206315E+02 -0.56479776614E+02  0.80316903756E+02  0.00000000000E+00 0. -1.
        -14    1    4    4    0    0  0.46622322523E+02 -0.25679390885E+02 -0.69204119478E+02  0.87305682670E+02  0.00000000000E+00 0.  1.
<mgrwt>
<rscale>  2 0.17742967E+03</rscale>
<asrwt>0</asrwt>
<pdfrwt beam="1">  1       21 0.21588395E-01 0.17772243E+03</pdfrwt>
<pdfrwt beam="2">  1       21 0.37990914E-01 0.17772243E+03</pdfrwt>
<totfact> 0.13432520E+05</totfact>
</mgrwt>
</event>
<event>
12    1  0.1071811E-001  0.2053024E+03  0.7546771E-02  0.1145903E+00
         21   -1    0    0  501  502  0.00000000000E+00  0.00000000000E+00  0.12700303072E+04  0.12700303072E+04  0.00000000000E+00 0. -1.
         21   -1    0    0  502  503 -0.00000000000E+00 -0.00000000000E+00 -0.41462517430E+02  0.41462517430E+02  0.00000000000E+00 0. -1.
         -6    2    1    2    0  503  0.10928338367E+03 -0.20184425926E+02  0.31689355269E+03  0.37758521370E+03  0.17262329180E+03 0.  0.
        -24    2    3    3    0    0  0.94743522880E+02 -0.69028163113E+02  0.28192312377E+03  0.31560022267E+03  0.79885107507E+02 0.  0.
          6    2    1    2  501    0 -0.10928338367E+03  0.20184425926E+02  0.91167423705E+03  0.93390761090E+03  0.16936127718E+03 0.  0.
         24    2    5    5    0    0 -0.32053119202E+01  0.43488911486E+02  0.48971310687E+03  0.49816807662E+03  0.80317781841E+02 0.  0.
          5    1    5    5  501    0 -0.10607807175E+03 -0.23304485560E+02  0.42196113018E+03  0.43573953428E+03  0.47000000000E+01 0. -1.
        -11    1    6    6    0    0  0.35405804685E+01  0.20784214066E+02  0.24377829272E+02  0.32230386663E+02  0.00000000000E+00 0.  1.
         12    1    6    6    0    0 -0.67458923887E+01  0.22704697420E+02  0.46533527760E+03  0.46593768996E+03  0.00000000000E+00 0. -1.
         -5    1    3    3    0  503  0.14539860786E+02  0.48843737186E+02  0.34970428921E+02  0.61984991030E+02  0.47000000000E+01 0.  1.
         11    1    4    4    0    0  0.89100203905E+02 -0.18945510463E+02  0.19210632408E+03  0.21260907425E+03  0.00000000000E+00 0. -1.
        -12    1    4    4    0    0  0.56433189747E+01 -0.50082652650E+02  0.89816799690E+02  0.10299114842E+03  0.00000000000E+00 0.  1.
<mgrwt>
<rscale>  2 0.20461517E+03</rscale>
<asrwt>0</asrwt>
<pdfrwt beam="1">  1       21 0.19538925E+00 0.20530239E+03</pdfrwt>
<pdfrwt beam="2">  1       21 0.63788498E-02 0.20530239E+03</pdfrwt>
<totfact> 0.25297213E+04</totfact>
</mgrwt>
</event>
<event>
12    1  0.1071811E-001  0.1734215E+03  0.7546771E-02  0.1176616E+00
         21   -1    0    0  503  502  0.00000000000E+00  0.00000000000E+00  0.41741095450E+03  0.41741095450E+03  0.00000000000E+00 0. -1.
         21   -1    0    0  501  503 -0.00000000000E+00 -0.00000000000E+00 -0.21202417584E+03  0.21202417584E+03  0.00000000000E+00 0. -1.
          6    2    1    2  501    0  0.12046448029E+02 -0.95183374073E+01 -0.15539462107E+03  0.23285728752E+03  0.17274059291E+03 0.  0.
         24    2    3    3    0    0 -0.30645186560E+02 -0.54255622285E+02 -0.61147947604E+02  0.12003651913E+03  0.82382609931E+02 0.  0.
         -6    2    1    2    0  502 -0.12046448029E+02  0.95183374073E+01  0.36078139974E+03  0.39657784282E+03  0.16393611976E+03 0.  0.
        -24    2    5    5    0    0  0.90147825719E+01 -0.38143141429E+02  0.31343891515E+03  0.32601869851E+03  0.80672626728E+02 0.  0.
          5    1    3    3  501    0  0.42691634589E+02  0.44737284878E+02 -0.94246673466E+02  0.11282076840E+03  0.47000000000E+01 0. -1.
        -11    1    4    4    0    0  0.16947429434E+02 -0.38149436971E+02 -0.55542586476E+02  0.69480744225E+02  0.00000000000E+00 0.  1.
         12    1    4    4    0    0 -0.47592615994E+02 -0.16106185314E+02 -0.56053611283E+01  0.50555774902E+02  0.00000000000E+00 0. -1.
         -5    1    5    5    0  502 -0.21061230601E+02  0.47661478836E+02  0.47342484584E+02  0.70559144311E+02  0.47000000000E+01 0.  1.
         11    1    6    6    0    0  0.25389794690E+01 -0.27121438541E+02  0.31196347233E+03  0.31315048605E+03  0.00000000000E+00 0. -1.
        -12    1    6    6    0    0  0.64758031029E+01 -0.11021702889E+02  0.14754428228E+01  0.12868212460E+02  0.00000000000E+00 0.  1.
<mgrwt>
<rscale>  2 0.17118669E+03</rscale>
<asrwt>0</asrwt>
<pdfrwt beam="1">  1       21 0.64217070E-01 0.17342153E+03</pdfrwt>
<pdfrwt beam="2">  1       21 0.32619104E-01 0.17342153E+03</pdfrwt>
<totfact> 0.20476764E+04</totfact>
</mgrwt>
</event>
<event>
12    1  0.1071811E-001  0.1846344E+03  0.7546771E-02  0.1163429E+00
         21   -1    0    0  501  502  0.00000000000E+00  0.00000000000E+00  0.48612720549E+03  0.48612720549E+03  0.00000000000E+00 0. -1.
         21   -1    0    0  502  503 -0.00000000000E+00 -0.00000000000E+00 -0.11111073830E+03  0.11111073830E+03  0.00000000000E+00 0. -1.
         -6    2    1    2    0  503  0.46117090814E+02  0.45398771973E+02  0.36895676165E+03  0.41250414958E+03  0.17275053369E+03 0.  0.
        -24    2    3    3    0    0  0.22799296353E+02  0.93554035538E+02  0.23005052445E+03  0.26357570474E+03  0.85303826711E+02 0.  0.
          6    2    1    2  501    0 -0.46117090814E+02 -0.45398771973E+02  0.60597055341E+01  0.18473379421E+03  0.17292200592E+03 0.  0.
         24    2    5    5    0    0 -0.89847308399E+02 -0.15911336118E+02  0.32120628655E+02  0.12571597896E+03  0.80293605822E+02 0.  0.
          5    1    5    5  501    0  0.43730217585E+02 -0.29487435855E+02 -0.26060923121E+02  0.59017815254E+02  0.47000000000E+01 0. -1.
        -11    1    6    6    0    0 -0.25112726027E+02 -0.28193180100E+02  0.44831238055E+02  0.58611810398E+02  0.00000000000E+00 0.  1.
         12    1    6    6    0    0 -0.64734582373E+02  0.12281843981E+02 -0.12710609399E+02  0.67104168558E+02  0.00000000000E+00 0. -1.
         -5    1    3    3    0  503  0.23317794461E+02 -0.48155263565E+02  0.13890623720E+03  0.14892844484E+03  0.47000000000E+01 0.  1.
         11    1    4    4    0    0 -0.18041981041E+02  0.43428978403E+02  0.16612308571E+03  0.17265129264E+03  0.00000000000E+00 0. -1.
        -12    1    4    4    0    0  0.40841277394E+02  0.50125057135E+02  0.63927438733E+02  0.90924412095E+02  0.00000000000E+00 0.  1.
<mgrwt>
<rscale>  2 0.18459422E+03</rscale>
<asrwt>0</asrwt>
<pdfrwt beam="1">  1       21 0.74788800E-01 0.18463438E+03</pdfrwt>
<pdfrwt beam="2">  1       21 0.17093960E-01 0.18463438E+03</pdfrwt>
<totfact> 0.49600492E+04</totfact>
</mgrwt>
</event>
<event>
12    1  0.1071811E-001  0.1838489E+03  0.7546771E-02  0.1164226E+00
         21   -1    0    0  503  502  0.00000000000E+00  0.00000000000E+00  0.31647811769E+02  0.31647811769E+02  0.00000000000E+00 0.  1.
         21   -1    0    0  501  503 -0.00000000000E+00 -0.00000000000E+00 -0.10965741836E+04  0.10965741836E+04  0.00000000000E+00 0.  1.
          6    2    1    2  501    0  0.18490572342E+02 -0.56998383949E+02 -0.43710677182E+03  0.47403709996E+03  0.17337279234E+03 0.  0.
         24    2    3    3    0    0  0.50248844747E+02 -0.78796346689E+02 -0.40817374005E+03  0.42563307767E+03  0.76314507734E+02 0.  0.
         -6    2    1    2    0  502 -0.18490572342E+02  0.56998383949E+02 -0.62781960002E+03  0.65418489542E+03  0.17380940767E+03 0.  0.
        -24    2    5    5    0    0  0.45539579531E+02  0.70565172678E+02 -0.45941127053E+03  0.47344371709E+03  0.77697753254E+02 0.  0.
          5    1    3    3  501    0 -0.31758272406E+02  0.21797962740E+02 -0.28933031772E+02  0.48404022285E+02  0.47000000000E+01 0. -1.
        -13    1    4    4    0    0  0.62423030206E+02 -0.80509852426E+02 -0.30135027019E+03  0.31810447400E+03  0.00000000000E+00 0.  1.
         14    1    4    4    0    0 -0.12174185459E+02  0.17135057364E+01 -0.10682346986E+03  0.10752860367E+03  0.00000000000E+00 0. -1.
         -5    1    5    5    0  502 -0.64030151872E+02 -0.13566788729E+02 -0.16840832948E+03  0.18074117833E+03  0.47000000000E+01 0.  1.
         13    1    6    6    0    0  0.28629454598E+02  0.14515072113E+02 -0.32817203730E+03  0.32973810677E+03  0.00000000000E+00 0. -1.
        -14    1    6    6    0    0  0.16910124932E+02  0.56050100565E+02 -0.13123923323E+03  0.14370561032E+03  0.00000000000E+00 0.  1.
<mgrwt>
<rscale>  2 0.18374566E+03</rscale>
<asrwt>0</asrwt>
<pdfrwt beam="1">  1       21 0.48688948E-02 0.18384893E+03</pdfrwt>
<pdfrwt beam="2">  1       21 0.16870370E+00 0.18384893E+03</pdfrwt>
<totfact> 0.61622667E+04</totfact>
</mgrwt>
</event>
<event>
12    1  0.1071811E-001  0.1852373E+03  0.7546771E-02  0.1164025E+00
         21   -1    0    0  501  502  0.00000000000E+00  0.00000000000E+00  0.23058799946E+03  0.23058799946E+03  0.00000000000E+00 0. -1.
         21   -1    0    0  502  503 -0.00000000000E+00 -0.00000000000E+00 -0.63220639216E+03  0.63220639216E+03  0.00000000000E+00 0. -1.
         -6    2    1    2    0  503  0.34240354451E+02 -0.24161778813E+02 -0.57896115374E+03  0.60635079328E+03  0.17524004549E+03 0.  0.
        -24    2    3    3    0    0  0.30280290769E+02 -0.70711696930E+02 -0.24618577622E+03  0.27027919545E+03  0.80785933126E+02 0.  0.
          6    2    1    2  501    0 -0.34240354451E+02  0.24161778813E+02  0.17734276103E+03  0.25644359834E+03  0.18043467186E+03 0.  0.
         24    2    5    5    0    0 -0.33556796830E+02 -0.57599718352E+02  0.10730778971E+03  0.14868276650E+03  0.78408017154E+02 0.  0.
          5    1    5    5  501    0 -0.68355762134E+00  0.81761497165E+02  0.70034971320E+02  0.10776083183E+03  0.47000000000E+01 0. -1.
        -13    1    6    6    0    0 -0.21736270920E+02  0.15484788427E+01 -0.39309614495E+01  0.22143073819E+02  0.00000000000E+00 0.  1.
         14    1    6    6    0    0 -0.11820525910E+02 -0.59148197195E+02  0.11123875116E+03  0.12653969268E+03  0.00000000000E+00 0. -1.
         -5    1    3    3    0  503  0.39600636824E+01  0.46549918117E+02 -0.33277537752E+03  0.33607159783E+03  0.47000000000E+01 0.  1.
         13    1    4    4    0    0  0.35217026068E+02  0.39309458271E+01 -0.99469248468E+02  0.10559272063E+03  0.00000000000E+00 0. -1.
        -14    1    4    4    0    0 -0.49367352995E+01 -0.74642642758E+02 -0.14671652775E+03  0.16468647482E+03  0.00000000000E+00 0.  1.
<mgrwt>
<rscale>  2 0.18396014E+03</rscale>
<asrwt>0</asrwt>
<pdfrwt beam="1">  1       21 0.35475077E-01 0.18523732E+03</pdfrwt>
<pdfrwt beam="2">  1       21 0.97262520E-01 0.18523732E+03</pdfrwt>
<totfact> 0.67534648E+03</totfact>
</mgrwt>
</event>
<event>
12    1  0.1071811E-001  0.2087084E+03  0.7546771E-02  0.1143296E+00
         21   -1    0    0  501  502  0.00000000000E+00  0.00000000000E+00  0.12791335893E+03  0.12791335893E+03  0.00000000000E+00 0. -1.
         21   -1    0    0  502  503 -0.00000000000E+00 -0.00000000000E+00 -0.33684161390E+03  0.33684161390E+03  0.00000000000E+00 0. -1.
         -6    2    1    2    0  503 -0.89688520808E+02  0.65484375495E+02 -0.12139416254E+03  0.23843346383E+03  0.17257386759E+03 0.  0.
        -24    2    3    3    0    0 -0.80980370512E+02  0.86467114852E+02 -0.31161993825E+02  0.14526672350E+03  0.78083088686E+02 0.  0.
          6    2    1    2  501    0  0.89688520808E+02 -0.65484375495E+02 -0.87534092437E+02  0.22632150900E+03  0.17671155564E+03 0.  0.
         24    2    5    5    0    0  0.11444073853E+03 -0.50051093986E+02 -0.11385379484E+03  0.18675289523E+03  0.79449119769E+02 0.  0.
          5    1    5    5  501    0 -0.24752217727E+02 -0.15433281510E+02  0.26319702407E+02  0.39568613766E+02  0.47000000000E+01 0. -1.
        -13    1    6    6    0    0  0.75103591174E+01 -0.26310489380E+02 -0.57261846704E+02  0.63463110808E+02  0.00000000000E+00 0.  1.
         14    1    6    6    0    0  0.10693037942E+03 -0.23740604605E+02 -0.56591948140E+02  0.12328978443E+03  0.00000000000E+00 0. -1.
         -5    1    3    3    0  503 -0.87081502959E+01 -0.20982739357E+02 -0.90232168714E+02  0.93166740328E+02  0.47000000000E+01 0.  1.
         11    1    4    4    0    0 -0.70117512821E+02  0.97248805960E+02 -0.41417596496E+02  0.12684326220E+03  0.00000000000E+00 0. -1.
        -12    1    4    4    0    0 -0.10862857692E+02 -0.10781691108E+02  0.10255602671E+02  0.18423461307E+02  0.00000000000E+00 0.  1.
<mgrwt>
<rscale>  2 0.20783001E+03</rscale>
<asrwt>0</asrwt>
<pdfrwt beam="1">  1       21 0.19678979E-01 0.20870843E+03</pdfrwt>
<pdfrwt beam="2">  1       21 0.51821786E-01 0.20870843E+03</pdfrwt>
<totfact> 0.83546550E+04</totfact>
</mgrwt>
</event>
<event>
12    1  0.1071811E-001  0.1942010E+03  0.7546771E-02  0.1155156E+00
         21   -1    0    0  501  502  0.00000000000E+00  0.00000000000E+00  0.49373403162E+03  0.49373403162E+03  0.00000000000E+00 0.  1.
         21   -1    0    0  502  503 -0.00000000000E+00 -0.00000000000E+00 -0.82441316700E+02  0.82441316700E+02  0.00000000000E+00 0.  1.
         -6    2    1    2    0  503 -0.60973295218E+02 -0.57173527086E+02  0.12182267979E+03  0.22759691752E+03  0.17312722670E+03 0.  0.
        -24    2    3    3    0    0 -0.70646023231E+02 -0.25547509714E+02  0.98260737403E+01  0.11072478052E+03  0.80745832363E+02 0.  0.
          6    2    1    2  501    0  0.60973295218E+02  0.57173527086E+02  0.28947003514E+03  0.34857843080E+03  0.17529251624E+03 0.  0.
         24    2    5    5    0    0 -0.30158308754E+02  0.71908075823E+01  0.16624900775E+03  0.18730613597E+03  0.80520958095E+02 0.  0.
          5    1    5    5  501    0  0.91131603972E+02  0.49982719503E+02  0.12322102738E+03  0.16127229483E+03  0.47000000000E+01 0. -1.
        -11    1    6    6    0    0 -0.24497569263E+01  0.41749805921E+02  0.74932984228E+02  0.85813750231E+02  0.00000000000E+00 0.  1.
         12    1    6    6    0    0 -0.27708551827E+02 -0.34558998338E+02  0.91316023525E+02  0.10149238574E+03  0.00000000000E+00 0. -1.
         -5    1    3    3    0  503  0.96727280133E+01 -0.31626017372E+02  0.11199660605E+03  0.11687213701E+03  0.47000000000E+01 0.  1.
         11    1    4    4    0    0  0.14896706588E+01  0.18857239990E+02  0.17371036235E+02  0.25682046620E+02  0.00000000000E+00 0. -1.
        -12    1    4    4    0    0 -0.72135693890E+02 -0.44404749704E+02 -0.75449624947E+01  0.85042733895E+02  0.00000000000E+00 0.  1.
<mgrwt>
<rscale>  2 0.19371108E+03</rscale>
<asrwt>0</asrwt>
<pdfrwt beam="1">  1       21 0.75959080E-01 0.19420098E+03</pdfrwt>
<pdfrwt beam="2">  1       21 0.12683280E-01 0.19420098E+03</pdfrwt>
<totfact> 0.82065456E+04</totfact>
</mgrwt>
</event>
<event>
12    1  0.1071811E-001  0.1824071E+03  0.7546771E-02  0.1167890E+00
         21   -1    0    0  503  502  0.00000000000E+00  0.00000000000E+00  0.11324953347E+04  0.11324953347E+04  0.00000000000E+00 0. -1.
         21   -1    0    0  501  503 -0.00000000000E+00 -0.00000000000E+00 -0.27953012077E+02  0.27953012077E+02  0.00000000000E+00 0. -1.
          6    2    1    2  501    0  0.50542278874E+02  0.21539350401E+02  0.60670556424E+03  0.63353294612E+03  0.17393644406E+03 0.  0.
         24    2    3    3    0    0  0.95424918322E+02  0.22574857872E+02  0.33566400414E+03  0.35875823677E+03  0.80134945735E+02 0.  0.
         -6    2    1    2    0  502 -0.50542278874E+02 -0.21539350401E+02  0.49783675841E+03  0.52691540068E+03  0.16364576341E+03 0.  0.
        -24    2    5    5    0    0  0.51447646357E+01  0.36071069170E+02  0.20622719376E+03  0.22446170926E+03  0.80782503333E+02 0.  0.
          5    1    3    3  501    0 -0.44882639448E+02 -0.10355074712E+01  0.27104156010E+03  0.27477470935E+03  0.47000000000E+01 0. -1.
        -11    1    4    4    0    0  0.26538492702E+02 -0.29866192383E+02  0.99197888847E+02  0.10694158309E+03  0.00000000000E+00 0.  1.
         12    1    4    4    0    0  0.68886425619E+02  0.52441050255E+02  0.23646611530E+03  0.25181665368E+03  0.00000000000E+00 0. -1.
         -5    1    5    5    0  502 -0.55687043510E+02 -0.57610419571E+02  0.29160956465E+03  0.30245369142E+03  0.47000000000E+01 0.  1.
         13    1    6    6    0    0 -0.33105314514E+02  0.29117405264E+02  0.14816810424E+03  0.15458839624E+03  0.00000000000E+00 0. -1.
        -14    1    6    6    0    0  0.38250079150E+02  0.69536639058E+01  0.58059089518E+02  0.69873313020E+02  0.00000000000E+00 0.  1.
<mgrwt>
<rscale>  2 0.17991005E+03</rscale>
<asrwt>0</asrwt>
<pdfrwt beam="1">  1       21 0.17423002E+00 0.18240711E+03</pdfrwt>
<pdfrwt beam="2">  1       21 0.43004643E-02 0.18240711E+03</pdfrwt>
<totfact> 0.69572569E+04</totfact>
</mgrwt>
</event>
<event>
12    1  0.1071811E-001  0.1788401E+03  0.7546771E-02  0.1169095E+00
         21   -1    0    0  501  502  0.00000000000E+00  0.00000000000E+00  0.16258149214E+04  0.16258149214E+04  0.00000000000E+00 0.  1.
         21   -1    0    0  502  503 -0.00000000000E+00 -0.00000000000E+00 -0.20319313973E+02  0.20319313973E+02  0.00000000000E+00 0.  1.
         -6    2    1    2    0  503 -0.17389527915E+02 -0.47070523102E+02  0.64919393742E+03  0.67337697503E+03  0.17165591250E+03 0.  0.
        -24    2    3    3    0    0 -0.67997622645E+00 -0.77322124297E+02  0.61423045381E+03  0.62399171733E+03  0.78150109609E+02 0.  0.
          6    2    1    2  501    0  0.17389527915E+02  0.47070523102E+02  0.95630167005E+03  0.97275726038E+03  0.17095547274E+03 0.  0.
         24    2    5    5    0    0  0.68874556641E+01 -0.40352675237E+02  0.38647831875E+03  0.39615180532E+03  0.76778815722E+02 0.  0.
          5    1    5    5  501    0  0.10502072251E+02  0.87423198339E+02  0.56982335130E+03  0.57660545507E+03  0.47000000000E+01 0. -1.
        -13    1    6    6    0    0 -0.18904758980E+02 -0.37538141054E+02  0.99630025872E+02  0.10813252980E+03  0.00000000000E+00 0.  1.
         14    1    6    6    0    0  0.25792214644E+02 -0.28145341832E+01  0.28684829288E+03  0.28801927552E+03  0.00000000000E+00 0. -1.
         -5    1    3    3    0  503 -0.16709551688E+02  0.30251601195E+02  0.34963483605E+02  0.49385257702E+02  0.47000000000E+01 0.  1.
         13    1    4    4    0    0  0.14509382366E+02 -0.39960549830E+02  0.10664460488E+03  0.11480609509E+03  0.00000000000E+00 0. -1.
        -14    1    4    4    0    0 -0.15189358592E+02 -0.37361574468E+02  0.50758584893E+03  0.50918562224E+03  0.00000000000E+00 0.  1.
<mgrwt>
<rscale>  2 0.17867182E+03</rscale>
<asrwt>0</asrwt>
<pdfrwt beam="1">  1       21 0.25012527E+00 0.17884010E+03</pdfrwt>
<pdfrwt beam="2">  1       21 0.31260496E-02 0.17884010E+03</pdfrwt>
<totfact> 0.39677792E+04</totfact>
</mgrwt>
</event>
<event>
12    1  0.1071811E-001  0.2487928E+03  0.7546771E-02  0.1114102E+00
         21   -1    0    0  503  502  0.00000000000E+00  0.00000000000E+00  0.10437970103E+04  0.10437970103E+04  0.00000000000E+00 0.  1.
         21   -1    0    0  501  503 -0.00000000000E+00 -0.00000000000E+00 -0.61950767524E+02  0.61950767524E+02  0.00000000000E+00 0.  1.
          6    2    1    2  501    0 -0.12451556473E+03 -0.12862397492E+03  0.60609865838E+03  0.65509922801E+03  0.17248525172E+03 0.  0.
         24    2    3    3    0    0 -0.15773540078E+03 -0.10824663392E+03  0.47941462060E+03  0.52247295247E+03  0.80881501015E+02 0.  0.
         -6    2    1    2    0  502  0.12451556473E+03  0.12862397492E+03  0.37574758444E+03  0.45064854986E+03  0.17277041267E+03 0.  0.
        -24    2    5    5    0    0  0.10816048048E+03  0.21823298060E+02  0.17476869189E+03  0.22241954511E+03  0.82166979412E+02 0.  0.
          5    1    3    3  501    0  0.33219836055E+02 -0.20377340998E+02  0.12668403778E+03  0.13262627554E+03  0.47000000000E+01 0. -1.
        -13    1    4    4    0    0 -0.78482780142E+02 -0.10129295902E+03  0.29422682937E+03  0.32091936284E+03  0.00000000000E+00 0.  1.
         14    1    4    4    0    0 -0.79252620639E+02 -0.69536749030E+01  0.18518779123E+03  0.20155358963E+03  0.00000000000E+00 0. -1.
         -5    1    5    5    0  502  0.16355084242E+02  0.10680067686E+03  0.20097889255E+03  0.22822900475E+03  0.47000000000E+01 0.  1.
         13    1    6    6    0    0  0.11027646195E+03  0.87793029977E+00  0.16669560427E+03  0.19987269274E+03  0.00000000000E+00 0. -1.
        -14    1    6    6    0    0 -0.21159814617E+01  0.20945367761E+02  0.80730876265E+01  0.22546852375E+02  0.00000000000E+00 0.  1.
<mgrwt>
<rscale>  2 0.24874332E+03</rscale>
<asrwt>0</asrwt>
<pdfrwt beam="1">  1       21 0.16058414E+00 0.24879282E+03</pdfrwt>
<pdfrwt beam="2">  1       21 0.95308881E-02 0.24879282E+03</pdfrwt>
<totfact> 0.21258988E+04</totfact>
</mgrwt>
</event>
<event>
12    1  0.1071811E-001  0.2247512E+03  0.7546771E-02  0.1130835E+00
         21   -1    0    0  501  502  0.00000000000E+00  0.00000000000E+00  0.45814417518E+03  0.45814417518E+03  0.00000000000E+00 0.  1.
         21   -1    0    0  502  503 -0.00000000000E+00 -0.00000000000E+00 -0.18886132186E+03  0.18886132186E+03  0.00000000000E+00 0. -1.
         -6    2    1    2    0  503  0.13625669724E+03 -0.34342458540E+02  0.34449975442E+03  0.41000192284E+03  0.17226782617E+03 0.  0.
        -24    2    3    3    0    0  0.40887783638E+02 -0.75434973068E+01  0.27237446961E+03  0.28737419060E+03  0.81653894743E+02 0.  0.
          6    2    1    2  501    0 -0.13625669724E+03  0.34342458540E+02 -0.75216901105E+02  0.23700357420E+03  0.17540758243E+03 0.  0.
         24    2    5    5    0    0 -0.13373391286E+03  0.78934119488E+02 -0.39058925808E+02  0.17934709283E+03  0.80773915052E+02 0.  0.
          5    1    5    5  501    0 -0.25227843803E+01 -0.44591660948E+02 -0.36157975297E+02  0.57656481376E+02  0.47000000000E+01 0. -1.
        -11    1    6    6    0    0 -0.11524310555E+02 -0.80317422069E+01  0.14394735134E+02  0.20112856988E+02  0.00000000000E+00 0.  1.
         12    1    6    6    0    0 -0.12220960230E+03  0.86965861694E+02 -0.53453660941E+02  0.15923423584E+03  0.00000000000E+00 0. -1.
         -5    1    3    3    0  503  0.95368913602E+02 -0.26798961233E+02  0.72125284816E+02  0.12262773224E+03  0.47000000000E+01 0.  1.
         13    1    4    4    0    0  0.20939258623E+02  0.84143454195E+01  0.11641015187E+02  0.25392262504E+02  0.00000000000E+00 0. -1.
        -14    1    4    4    0    0  0.19948525016E+02 -0.15957842726E+02  0.26073345442E+03  0.26198192810E+03  0.00000000000E+00 0.  1.
<mgrwt>
<rscale>  2 0.22413828E+03</rscale>
<asrwt>0</asrwt>
<pdfrwt beam="1">  1       21 0.70483719E-01 0.22475122E+03</pdfrwt>
<pdfrwt beam="2">  1       21 0.29055588E-01 0.22475122E+03</pdfrwt>
<totfact> 0.20314748E+04</totfact>
</mgrwt>
</event>
<event>
12    1  0.1071811E-001  0.2475868E+03  0.7546771E-02  0.1114892E+00
         21   -1    0    0  503  502  0.00000000000E+00  0.00000000000E+00  0.28414485974E+03  0.28414485974E+03  0.00000000000E+00 0. -1.
         21   -1    0    0  501  503 -0.00000000000E+00 -0.00000000000E+00 -0.21550761923E+03  0.21550761923E+03  0.00000000000E+00 0. -1.
          6    2    1    2  501    0  0.16858276865E+03 -0.54751509364E+02  0.30148381095E+02  0.24909186008E+03  0.17239475691E+03 0.  0.
         24    2    3    3    0    0  0.16957853764E+02 -0.38035474340E+02  0.26100960017E+02  0.96422242079E+02  0.82956148303E+02 0.  0.
         -6    2    1    2    0  502 -0.16858276865E+03  0.54751509364E+02  0.38488859423E+02  0.25056061889E+03  0.17286223930E+03 0.  0.
        -24    2    5    5    0    0 -0.22718275440E+02 -0.15734921544E+01 -0.16622152226E+02  0.84704446919E+02  0.79874598382E+02 0.  0.
          5    1    3    3  501    0  0.15162491489E+03 -0.16716035024E+02  0.40474210779E+01  0.15266961800E+03  0.47000000000E+01 0. -1.
        -13    1    4    4    0    0 -0.25807632834E+02  0.94289847507E+01  0.15839317915E+02  0.31714723047E+02  0.00000000000E+00 0.  1.
         14    1    4    4    0    0  0.42765486598E+02 -0.47464459090E+02  0.10261642103E+02  0.64707519033E+02  0.00000000000E+00 0. -1.
         -5    1    5    5    0  502 -0.14586449321E+03  0.56325001518E+02  0.55111011649E+02  0.16585617197E+03  0.47000000000E+01 0.  1.
         13    1    6    6    0    0 -0.51345467861E+02  0.97506730498E+01 -0.98648164043E+01  0.53185968991E+02  0.00000000000E+00 0. -1.
        -14    1    6    6    0    0  0.28627192421E+02 -0.11324165204E+02 -0.67573358214E+01  0.31518477928E+02  0.00000000000E+00 0.  1.
<mgrwt>
<rscale>  2 0.24750523E+03</rscale>
<asrwt>0</asrwt>
<pdfrwt beam="1">  1       21 0.43714594E-01 0.24758682E+03</pdfrwt>
<pdfrwt beam="2">  1       21 0.33155018E-01 0.24758682E+03</pdfrwt>
<totfact> 0.42941224E+04</totfact>
</mgrwt>
</event>
<event>
12    1  0.1071811E-001  0.2370751E+03  0.7546771E-02  0.1122028E+00
         21   -1    0    0  503  502  0.00000000000E+00  0.00000000000E+00  0.66562899316E+02  0.66562899316E+02  0.00000000000E+00 0.  1.
         21   -1    0    0  501  503 -0.00000000000E+00 -0.00000000000E+00 -0.84331243825E+03  0.84331243825E+03  0.00000000000E+00 0.  1.
          6    2    1    2  501    0  0.12334661106E+03 -0.10129785810E+03 -0.42067594567E+03  0.48209850061E+03  0.17313310056E+03 0.  0.
         24    2    3    3    0    0  0.12408388763E+03 -0.72773573870E+02 -0.19832963669E+03  0.25787952398E+03  0.80463655603E+02 0.  0.
         -6    2    1    2    0  502 -0.12334661106E+03  0.10129785810E+03 -0.35607359326E+03  0.42777683695E+03  0.17529682226E+03 0.  0.
        -24    2    5    5    0    0 -0.89873162495E+02  0.40321833589E+02 -0.33017785039E+03  0.35340461886E+03  0.78577198602E+02 0.  0.
          5    1    3    3  501    0 -0.73727656237E+00 -0.28524284235E+02 -0.22234630898E+03  0.22421897664E+03  0.47000000000E+01 0. -1.
        -13    1    4    4    0    0  0.45802534144E+02 -0.64268742711E+02 -0.13686518275E+03  0.15798867577E+03  0.00000000000E+00 0.  1.
         14    1    4    4    0    0  0.78281353483E+02 -0.85048311590E+01 -0.61464453946E+02  0.99890848205E+02  0.00000000000E+00 0. -1.
         -5    1    5    5    0  502 -0.33473448570E+02  0.60976024516E+02 -0.25895742866E+02  0.74372218089E+02  0.47000000000E+01 0.  1.
         13    1    6    6    0    0 -0.79502445819E+02 -0.47800054679E+01 -0.20267705090E+03  0.21776472236E+03  0.00000000000E+00 0. -1.
        -14    1    6    6    0    0 -0.10370716676E+02  0.45101839057E+02 -0.12750079949E+03  0.13563989650E+03  0.00000000000E+00 0.  1.
<mgrwt>
<rscale>  2 0.23667528E+03</rscale>
<asrwt>0</asrwt>
<pdfrwt beam="1">  1       21 0.10240446E-01 0.23707513E+03</pdfrwt>
<pdfrwt beam="2">  1       21 0.12974038E+00 0.23707513E+03</pdfrwt>
<totfact> 0.32982639E+04</totfact>
</mgrwt>
</event>
<event>
12    1  0.1071811E-001  0.1837435E+03  0.7546771E-02  0.1164310E+00
         21   -1    0    0  501  502  0.00000000000E+00  0.00000000000E+00  0.14052985077E+03  0.14052985077E+03  0.00000000000E+00 0. -1.
         21   -1    0    0  502  503 -0.00000000000E+00 -0.00000000000E+00 -0.24978841766E+03  0.24978841766E+03  0.00000000000E+00 0.  1.
         -6    2    1    2    0  503 -0.42399958210E+02 -0.46128006291E+02 -0.93718905136E+02  0.20626416210E+03  0.17273135780E+03 0.  0.
        -24    2    3    3    0    0  0.38546374517E+02 -0.33706252620E+02 -0.24076606802E+02  0.98659568968E+02  0.80821365368E+02 0.  0.
          6    2    1    2  501    0  0.42399958210E+02  0.46128006291E+02 -0.15539661751E+02  0.18405410633E+03  0.17236265126E+03 0.  0.
         24    2    5    5    0    0 -0.31761542310E+02  0.47392747523E+02 -0.39623743170E+02  0.10592817781E+03  0.79974181726E+02 0.  0.
          5    1    5    5  501    0  0.74161500520E+02 -0.12647412320E+01  0.24084081419E+02  0.78125928523E+02  0.47000000000E+01 0. -1.
        -13    1    6    6    0    0 -0.14928204738E+02  0.40094781858E+02 -0.63035680063E+02  0.76183592656E+02  0.00000000000E+00 0.  1.
         14    1    6    6    0    0 -0.16833337571E+02  0.72979656653E+01  0.23411936893E+02  0.29744585150E+02  0.00000000000E+00 0. -1.
         -5    1    3    3    0  503 -0.80946332727E+02 -0.12421753672E+02 -0.69642298333E+02  0.10760459313E+03  0.47000000000E+01 0.  1.
         13    1    4    4    0    0  0.62191860587E+01 -0.49732622091E+02  0.75420359885E+01  0.50684260695E+02  0.00000000000E+00 0. -1.
        -14    1    4    4    0    0  0.32327188458E+02  0.16026369472E+02 -0.31618642791E+02  0.47975308274E+02  0.00000000000E+00 0.  1.
<mgrwt>
<rscale>  2 0.18365679E+03</rscale>
<asrwt>0</asrwt>
<pdfrwt beam="1">  1       21 0.21619977E-01 0.18374349E+03</pdfrwt>
<pdfrwt beam="2">  1       21 0.38428987E-01 0.18374349E+03</pdfrwt>
<totfact> 0.13064456E+05</totfact>
</mgrwt>
</event>
<event>
12    1  0.1071811E-001  0.2187796E+03  0.7546771E-02  0.1135766E+00
         21   -1    0    0  501  502  0.00000000000E+00  0.00000000000E+00  0.59281682971E+03  0.59281682971E+03  0.00000000000E+00 0. -1.
         21   -1    0    0  502  503 -0.00000000000E+00 -0.00000000000E+00 -0.12051645024E+03  0.12051645024E+03  0.00000000000E+00 0. -1.
         -6    2    1    2    0  503  0.10067434785E+03  0.84578822550E+02  0.24667955723E+02  0.21509707737E+03  0.16843201333E+03 0.  0.
        -24    2    3    3    0    0 -0.11338234637E+02  0.38019488103E+02  0.24271925997E+02  0.93701702256E+02  0.81343995315E+02 0.  0.
          6    2    1    2  501    0 -0.10067434785E+03 -0.84578822550E+02  0.44763242375E+03  0.49823620258E+03  0.17485887230E+03 0.  0.
         24    2    5    5    0    0 -0.12988309028E+03 -0.85880857394E+02  0.29894447092E+03  0.34662801267E+03  0.80858170067E+02 0.  0.
          5    1    5    5  501    0  0.29208742427E+02  0.13020348433E+01  0.14868795283E+03  0.15160818991E+03  0.47000000000E+01 0. -1.
        -13    1    6    6    0    0 -0.99548083480E+02 -0.83494062464E+02  0.16901716345E+03  0.21318508610E+03  0.00000000000E+00 0.  1.
         14    1    6    6    0    0 -0.30335006801E+02 -0.23867949296E+01  0.12992730747E+03  0.13344292658E+03  0.00000000000E+00 0. -1.
         -5    1    3    3    0  503  0.11201258249E+03  0.46559334447E+02  0.39602972575E+00  0.12139537512E+03  0.47000000000E+01 0.  1.
         11    1    4    4    0    0  0.11453525476E+02  0.47114697515E+01 -0.26257970441E+02  0.29032089225E+02  0.00000000000E+00 0. -1.
        -12    1    4    4    0    0 -0.22791760113E+02  0.33308018352E+02  0.50529896438E+02  0.64669613032E+02  0.00000000000E+00 0.  1.
<mgrwt>
<rscale>  2 0.21749289E+03</rscale>
<asrwt>0</asrwt>
<pdfrwt beam="1">  1       21 0.91202588E-01 0.21877963E+03</pdfrwt>
<pdfrwt beam="2">  1       21 0.18540993E-01 0.21877963E+03</pdfrwt>
<totfact> 0.26679851E+04</totfact>
</mgrwt>
</event>
<event>
12    1  0.1071811E-001  0.2182890E+03  0.7546771E-02  0.1138089E+00
         21   -1    0    0  501  502  0.00000000000E+00  0.00000000000E+00  0.88246532530E+03  0.88246532530E+03  0.00000000000E+00 0. -1.
         21   -1    0    0  502  503 -0.00000000000E+00 -0.00000000000E+00 -0.77450144883E+02  0.77450144883E+02  0.00000000000E+00 0. -1.
         -6    2    1    2    0  503  0.60507823727E+02 -0.87067169384E+02  0.10949213671E+03  0.23094195969E+03  0.17350438618E+03 0.  0.
        -24    2    3    3    0    0  0.19688908082E+02 -0.90359460842E+02  0.95424516230E+01  0.12282603761E+03  0.80266380669E+02 0.  0.
          6    2    1    2  501    0 -0.60507823727E+02  0.87067169384E+02  0.69552304370E+03  0.72897351050E+03  0.19080929214E+03 0.  0.
         24    2    5    5    0    0 -0.36981522507E+02  0.11694432916E+03  0.66158412426E+03  0.67778687378E+03  0.81595855729E+02 0.  0.
          5    1    5    5  501    0 -0.23526301220E+02 -0.29877159773E+02  0.33938919448E+02  0.51186636718E+02  0.47000000000E+01 0. -1.
        -13    1    6    6    0    0  0.67587288514E+01  0.31609074781E+02  0.35709791448E+03  0.35855785384E+03  0.00000000000E+00 0.  1.
         14    1    6    6    0    0 -0.43740251359E+02  0.85335254376E+02  0.30448620977E+03  0.31922901994E+03  0.00000000000E+00 0. -1.
         -5    1    3    3    0  503  0.40818915646E+02  0.32922914581E+01  0.99949685091E+02  0.10811592208E+03  0.47000000000E+01 0.  1.
         11    1    4    4    0    0  0.15712266567E+02 -0.80893712297E+02  0.39336321037E+02  0.91312727276E+02  0.00000000000E+00 0. -1.
        -12    1    4    4    0    0  0.39766415147E+01 -0.94657485451E+01 -0.29793869414E+02  0.31513310329E+02  0.00000000000E+00 0.  1.
<mgrwt>
<rscale>  2 0.21445076E+03</rscale>
<asrwt>0</asrwt>
<pdfrwt beam="1">  1       21 0.13576389E+00 0.21828897E+03</pdfrwt>
<pdfrwt beam="2">  1       21 0.11915408E-01 0.21828897E+03</pdfrwt>
<totfact> 0.22648185E+04</totfact>
</mgrwt>
</event>
<event>
12    1  0.1071811E-001  0.1762373E+03  0.7546771E-02  0.1171756E+00
         21   -1    0    0  501  502  0.00000000000E+00  0.00000000000E+00  0.15211801912E+03  0.15211801912E+03  0.00000000000E+00 0. -1.
         21   -1    0    0  502  503 -0.00000000000E+00 -0.00000000000E+00 -0.25756555187E+03  0.25756555187E+03  0.00000000000E+00 0. -1.
         -6    2    1    2    0  503  0.24576304356E+02 -0.12351278017E+02 -0.14690865336E+03  0.22863493447E+03  0.17301801068E+03 0.  0.
        -24    2    3    3    0    0 -0.34756447052E+02  0.28224783757E+02 -0.12777829786E+03  0.15410405040E+03  0.73594265499E+02 0.  0.
          6    2    1    2  501    0 -0.24576304356E+02  0.12351278017E+02  0.41461120617E+02  0.18104863652E+03  0.17407767077E+03 0.  0.
         24    2    5    5    0    0 -0.51039352180E+02  0.52373195933E+02 -0.11999704905E+02  0.10906116067E+03  0.80014853161E+02 0.  0.
          5    1    5    5  501    0  0.26463047825E+02 -0.40021917916E+02  0.53460825522E+02  0.71987475850E+02  0.47000000000E+01 0. -1.
        -13    1    6    6    0    0 -0.72551696716E+02  0.36626873074E+02 -0.46435106697E+01  0.81405397357E+02  0.00000000000E+00 0.  1.
         14    1    6    6    0    0  0.21512344535E+02  0.15746322859E+02 -0.73561942351E+01  0.27655763317E+02  0.00000000000E+00 0. -1.
         -5    1    3    3    0  503  0.59332751408E+02 -0.40576061774E+02 -0.19130355502E+02  0.74530884071E+02  0.47000000000E+01 0.  1.
         11    1    4    4    0    0 -0.20388082682E+02  0.15176259676E+02 -0.13184584009E+03  0.13427329713E+03  0.00000000000E+00 0. -1.
        -12    1    4    4    0    0 -0.14368364370E+02  0.13048524081E+02  0.40675422276E+01  0.19830753267E+02  0.00000000000E+00 0.  1.
<mgrwt>
<rscale>  2 0.17597506E+03</rscale>
<asrwt>0</asrwt>
<pdfrwt beam="1">  1       21 0.23402772E-01 0.17623730E+03</pdfrwt>
<pdfrwt beam="2">  1       21 0.39625469E-01 0.17623730E+03</pdfrwt>
<totfact> 0.10607673E+05</totfact>
</mgrwt>
</event>
<event>
12    1  0.1071811E-001  0.2146959E+03  0.7546771E-02  0.1138385E+00
         21   -1    0    0  503  502  0.00000000000E+00  0.00000000000E+00  0.16582662591E+04  0.16582662591E+04  0.00000000000E+00 0.  1.
         21   -1    0    0  501  503 -0.00000000000E+00 -0.00000000000E+00 -0.72453997066E+02  0.72453997066E+02  0.00000000000E+00 0.  1.
          6    2    1    2  501    0  0.12491674899E+03  0.16984348098E+02  0.11284179356E+03  0.24254400740E+03  0.17378625634E+03 0.  0.
         24    2    3    3    0    0  0.31411654658E+01 -0.13416582668E+02  0.16542964407E+02  0.84275046983E+02  0.81478477291E+02 0.  0.
         -6    2    1    2    0  502 -0.12491674899E+03 -0.16984348098E+02  0.14729704685E+04  0.14881762488E+04  0.17068650836E+03 0.  0.
        -24    2    5    5    0    0 -0.11913463412E+03  0.32801820950E+02  0.12885777367E+04  0.12970352929E+04  0.81233902931E+02 0.  0.
          5    1    3    3  501    0  0.12177558353E+03  0.30400930767E+02  0.96298829148E+02  0.15826896041E+03  0.47000000000E+01 0. -1.
        -13    1    4    4    0    0 -0.53689882761E+01  0.30663578060E+02 -0.92802583969E+01  0.32483907562E+02  0.00000000000E+00 0.  1.
         14    1    4    4    0    0  0.85101537419E+01 -0.44080160729E+02  0.25823222804E+02  0.51791139421E+02  0.00000000000E+00 0. -1.
         -5    1    5    5    0  502 -0.57821148697E+01 -0.49786169048E+02  0.18439273176E+03  0.19114095586E+03  0.47000000000E+01 0.  1.
         11    1    6    6    0    0 -0.27491147166E+02 -0.37587768213E+00  0.81164209950E+02  0.85694418916E+02  0.00000000000E+00 0. -1.
        -12    1    6    6    0    0 -0.91643486957E+02  0.33177698632E+02  0.12074135267E+04  0.12113408740E+04  0.00000000000E+00 0.  1.
<mgrwt>
<rscale>  2 0.21406782E+03</rscale>
<asrwt>0</asrwt>
<pdfrwt beam="1">  1       21 0.25511786E+00 0.21469589E+03</pdfrwt>
<pdfrwt beam="2">  1       21 0.11146770E-01 0.21469589E+03</pdfrwt>
<totfact> 0.40600543E+03</totfact>
</mgrwt>
</event>
<event>
12    1  0.1071811E-001  0.1974080E+03  0.7546771E-02  0.1152262E+00
         21   -1    0    0  501  502  0.00000000000E+00  0.00000000000E+00  0.28720192565E+03  0.28720192565E+03  0.00000000000E+00 0. -1.
         21   -1    0    0  502  503 -0.00000000000E+00 -0.00000000000E+00 -0.14872683978E+03  0.14872683978E+03  0.00000000000E+00 0. -1.
         -6    2    1    2    0  503 -0.75599227071E+02  0.51745470178E+02  0.20120600194E+01  0.19594529593E+03  0.17319836545E+03 0.  0.
        -24    2    3    3    0    0 -0.92405521876E+02  0.72230842923E+02  0.40686046309E+02  0.14882980743E+03  0.82090694190E+02 0.  0.
          6    2    1    2  501    0  0.75599227071E+02 -0.51745470178E+02  0.13646302585E+03  0.23998346950E+03  0.17486300750E+03 0.  0.
         24    2    5    5    0    0  0.91345218099E+02  0.12593223929E+02  0.50549789039E+02  0.13139904128E+03  0.78790156230E+02 0.  0.
          5    1    5    5  501    0 -0.15745991028E+02 -0.64338694107E+02  0.85913236812E+02  0.10858442822E+03  0.47000000000E+01 0. -1.
        -11    1    6    6    0    0  0.22212804441E+02  0.32021480483E+02 -0.67218811779E+01  0.39547029977E+02  0.00000000000E+00 0.  1.
         12    1    6    6    0    0  0.69132413657E+02 -0.19428256553E+02  0.57271670217E+02  0.91852011302E+02  0.00000000000E+00 0. -1.
         -5    1    3    3    0  503  0.16806294806E+02 -0.20485372745E+02 -0.38673986289E+02  0.47115488505E+02  0.47000000000E+01 0.  1.
         13    1    4    4    0    0 -0.11262164510E+02 -0.60405619811E+01 -0.17727823259E+02  0.21854071841E+02  0.00000000000E+00 0. -1.
        -14    1    4    4    0    0 -0.81143357366E+02  0.78271404904E+02  0.58413869568E+02  0.12697573559E+03  0.00000000000E+00 0.  1.
<mgrwt>
<rscale>  2 0.19703869E+03</rscale>
<asrwt>0</asrwt>
<pdfrwt beam="1">  1       21 0.44184912E-01 0.19740797E+03</pdfrwt>
<pdfrwt beam="2">  1       21 0.22881052E-01 0.19740797E+03</pdfrwt>
<totfact> 0.88003849E+04</totfact>
</mgrwt>
</event>
<event>
12    1  0.1071811E-001  0.1940656E+03  0.7546771E-02  0.1155114E+00
         21   -1    0    0  501  502  0.00000000000E+00  0.00000000000E+00  0.31360589150E+03  0.31360589150E+03  0.00000000000E+00 0.  1.
         21   -1    0    0  502  503 -0.00000000000E+00 -0.00000000000E+00 -0.42090439067E+03  0.42090439067E+03  0.00000000000E+00 0.  1.
         -6    2    1    2    0  503  0.59634596199E+02 -0.64156872294E+02 -0.36446354601E+03  0.41233747997E+03  0.17180259511E+03 0.  0.
        -24    2    3    3    0    0 -0.26572710123E+02 -0.66650131316E+02 -0.18686487413E+03  0.21485002654E+03  0.78062179038E+02 0.  0.
          6    2    1    2  501    0 -0.59634596199E+02  0.64156872294E+02  0.25716504685E+03  0.32217280220E+03  0.17317350788E+03 0.  0.
         24    2    5    5    0    0 -0.79241400931E+01 -0.20146290310E+01  0.21175704960E+03  0.22658715960E+03  0.80211234314E+02 0.  0.
          5    1    5    5  501    0 -0.51710456106E+02  0.66171501325E+02  0.45407997244E+02  0.95585642604E+02  0.47000000000E+01 0. -1.
        -13    1    6    6    0    0  0.37261010998E+01  0.37506355929E+02  0.12471097091E+03  0.13028214318E+03  0.00000000000E+00 0.  1.
         14    1    6    6    0    0 -0.11650241193E+02 -0.39520984960E+02  0.87046078689E+02  0.96305016417E+02  0.00000000000E+00 0. -1.
         -5    1    3    3    0  503  0.86207306322E+02  0.24932590222E+01 -0.17759867189E+03  0.19748745343E+03  0.47000000000E+01 0.  1.
         11    1    4    4    0    0  0.19981281110E+02 -0.15259148123E+02 -0.14414302016E+02  0.28980429583E+02  0.00000000000E+00 0. -1.
        -12    1    4    4    0    0 -0.46553991233E+02 -0.51390983193E+02 -0.17245057211E+03  0.18586959696E+03  0.00000000000E+00 0.  1.
<mgrwt>
<rscale>  2 0.19375928E+03</rscale>
<asrwt>0</asrwt>
<pdfrwt beam="1">  1       21 0.48247060E-01 0.19406559E+03</pdfrwt>
<pdfrwt beam="2">  1       21 0.64754521E-01 0.19406559E+03</pdfrwt>
<totfact> 0.90100655E+03</totfact>
</mgrwt>
</event>
<event>
12    1  0.1071811E-001  0.2064961E+03  0.7546771E-02  0.1144641E+00
         21   -1    0    0  501  502  0.00000000000E+00  0.00000000000E+00  0.74799226811E+02  0.74799226811E+02  0.00000000000E+00 0. -1.
         21   -1    0    0  502  503 -0.00000000000E+00 -0.00000000000E+00 -0.59845933828E+03  0.59845933828E+03  0.00000000000E+00 0. -1.
         -6    2    1    2    0  503  0.50590281077E+02 -0.98396709420E+02 -0.33893631028E+03  0.39619628057E+03  0.17277841692E+03 0.  0.
        -24    2    3    3    0    0  0.63557928801E+02 -0.10488426347E+03 -0.34855738062E+03  0.37817120805E+03  0.80504012190E+02 0.  0.
          6    2    1    2  501    0 -0.50590281077E+02  0.98396709420E+02 -0.18472380119E+03  0.27706228451E+03  0.17435405877E+03 0.  0.
         24    2    5    5    0    0 -0.33052092801E+02  0.42287532920E+02 -0.19329440908E+03  0.21746888677E+03  0.83960180165E+02 0.  0.
          5    1    5    5  501    0 -0.17538188276E+02  0.56109176500E+02  0.85706078831E+01  0.59593397747E+02  0.47000000000E+01 0. -1.
        -11    1    6    6    0    0 -0.21162314531E+02 -0.17585228272E+02 -0.11469983015E+03  0.11795395223E+03  0.00000000000E+00 0.  1.
         12    1    6    6    0    0 -0.11889778270E+02  0.59872761191E+02 -0.78594578921E+02  0.99514934537E+02  0.00000000000E+00 0. -1.
         -5    1    3    3    0  503 -0.12967647723E+02  0.64875540509E+01  0.96210703401E+01  0.18025072525E+02  0.47000000000E+01 0.  1.
         13    1    4    4    0    0  0.71637104871E+02 -0.41579136230E+02 -0.19180701969E+03  0.20892733705E+03  0.00000000000E+00 0. -1.
        -14    1    4    4    0    0 -0.80791760705E+01 -0.63305127241E+02 -0.15675036093E+03  0.16924387100E+03  0.00000000000E+00 0.  1.
<mgrwt>
<rscale>  2 0.20616310E+03</rscale>
<asrwt>0</asrwt>
<pdfrwt beam="1">  1       21 0.11507574E-01 0.20649607E+03</pdfrwt>
<pdfrwt beam="2">  1       21 0.92070666E-01 0.20649607E+03</pdfrwt>
<totfact> 0.62609932E+04</totfact>
</mgrwt>
</event>
<event>
12    1  0.1071811E-001  0.2030397E+03  0.7546771E-02  0.1147335E+00
         21   -1    0    0  503  502  0.00000000000E+00  0.00000000000E+00  0.71404625200E+02  0.71404625200E+02  0.00000000000E+00 0.  1.
         21   -1    0    0  501  503 -0.00000000000E+00 -0.00000000000E+00 -0.57554566479E+03  0.57554566479E+03  0.00000000000E+00 0. -1.
          6    2    1    2  501    0 -0.10556816828E+03  0.11713990899E+02 -0.24841533096E+03  0.32042196338E+03  0.17227362603E+03 0.  0.
         24    2    3    3    0    0 -0.72821994414E+02  0.29537802459E+02 -0.56322203848E+02  0.12468780784E+03  0.78735850368E+02 0.  0.
         -6    2    1    2    0  502  0.10556816828E+03 -0.11713990899E+02 -0.25572570863E+03  0.32652832661E+03  0.17304119246E+03 0.  0.
        -24    2    5    5    0    0  0.99933535429E+02 -0.51504224787E+02 -0.11387414140E+03  0.17901911020E+03  0.80256620058E+02 0.  0.
          5    1    3    3  501    0 -0.32746173861E+02 -0.17823811561E+02 -0.19209312711E+03  0.19573415554E+03  0.47000000000E+01 0. -1.
        -11    1    4    4    0    0  0.25534957733E+01  0.26109583756E+02  0.58982405414E+01  0.26889030218E+02  0.00000000000E+00 0.  1.
         12    1    4    4    0    0 -0.75375490187E+02  0.34282187035E+01 -0.62220444390E+02  0.97798777623E+02  0.00000000000E+00 0. -1.
         -5    1    5    5    0  502  0.56346328462E+01  0.39790233889E+02 -0.14185156723E+03  0.14750921641E+03  0.47000000000E+01 0.  1.
         11    1    6    6    0    0  0.31394512677E+02 -0.15107749413E+02 -0.92023475217E+02  0.98398066595E+02  0.00000000000E+00 0. -1.
        -12    1    6    6    0    0  0.68539022752E+02 -0.36396475375E+02 -0.21850666183E+02  0.80621043606E+02  0.00000000000E+00 0.  1.
<mgrwt>
<rscale>  2 0.20287604E+03</rscale>
<asrwt>0</asrwt>
<pdfrwt beam="1">  1       21 0.10985327E-01 0.20303968E+03</pdfrwt>
<pdfrwt beam="2">  1       21 0.88545485E-01 0.20303968E+03</pdfrwt>
<totfact> 0.74583980E+04</totfact>
</mgrwt>
</event>
<event>
12    1  0.1071811E-001  0.1868385E+03  0.7546771E-02  0.1162279E+00
         21   -1    0    0  503  502  0.00000000000E+00  0.00000000000E+00  0.29800634676E+03  0.29800634676E+03  0.00000000000E+00 0.  1.
         21   -1    0    0  501  503 -0.00000000000E+00 -0.00000000000E+00 -0.11987666671E+03  0.11987666671E+03  0.00000000000E+00 0.  1.
          6    2    1    2  501    0  0.53392780906E+02  0.39611113105E+02  0.44471864808E+02  0.18815919791E+03  0.17031238259E+03 0.  0.
         24    2    3    3    0    0  0.52049907966E+02  0.80974235937E+02  0.65698435187E+02  0.14141127252E+03  0.80092720043E+02 0.  0.
         -6    2    1    2    0  502 -0.53392780906E+02 -0.39611113105E+02  0.13365781524E+03  0.22972381557E+03  0.17461039640E+03 0.  0.
        -24    2    5    5    0    0 -0.84300384994E+01 -0.52772706718E+02  0.88139133981E+01  0.96296061413E+02  0.79619232921E+02 0.  0.
          5    1    3    3  501    0  0.13428729394E+01 -0.41363122832E+02 -0.21226570380E+02  0.46747925389E+02  0.47000000000E+01 0. -1.
        -13    1    4    4    0    0  0.51768823397E+02  0.59207145309E+02  0.71800332079E+01  0.78974996097E+02  0.00000000000E+00 0.  1.
         14    1    4    4    0    0  0.28108456900E+00  0.21767090627E+02  0.58518401980E+02  0.62436276420E+02  0.00000000000E+00 0. -1.
         -5    1    5    5    0  502 -0.44962742406E+02  0.13161593613E+02  0.12484390185E+03  0.13342775416E+03  0.47000000000E+01 0.  1.
         11    1    6    6    0    0  0.23277877975E+02 -0.36803960104E+01  0.26280708149E+02  0.35299865986E+02  0.00000000000E+00 0. -1.
        -12    1    6    6    0    0 -0.31707916474E+02 -0.49092310708E+02 -0.17466794751E+02  0.60996195427E+02  0.00000000000E+00 0.  1.
<mgrwt>
<rscale>  2 0.18582773E+03</rscale>
<asrwt>0</asrwt>
<pdfrwt beam="1">  1       21 0.45847130E-01 0.18683849E+03</pdfrwt>
<pdfrwt beam="2">  1       21 0.18442564E-01 0.18683849E+03</pdfrwt>
<totfact> 0.12265616E+05</totfact>
</mgrwt>
</event>
<event>
12    1  0.1071811E-001  0.3149335E+03  0.7546771E-02  0.1078080E+00
         21   -1    0    0  503  502  0.00000000000E+00  0.00000000000E+00  0.13442680648E+04  0.13442680648E+04  0.00000000000E+00 0.  1.
         21   -1    0    0  501  503 -0.00000000000E+00 -0.00000000000E+00 -0.73641179967E+02  0.73641179967E+02  0.00000000000E+00 0.  1.
          6    2    1    2  501    0 -0.21976452814E+03  0.14527086664E+03  0.62709978576E+03  0.70145252392E+03  0.17141012071E+03 0.  0.
         24    2    3    3    0    0 -0.17743344478E+03  0.72697693237E+02  0.30916705376E+03  0.37257245733E+03  0.80364089654E+02 0.  0.
         -6    2    1    2    0  502  0.21976452814E+03 -0.14527086664E+03  0.64352709904E+03  0.71645672082E+03  0.17257761467E+03 0.  0.
        -24    2    5    5    0    0  0.26428663100E+02 -0.51862496077E+02  0.22303149163E+03  0.24428882033E+03  0.80906048889E+02 0.  0.
          5    1    3    3  501    0 -0.42331083362E+02  0.72573173404E+02  0.31793273201E+03  0.32888006659E+03  0.47000000000E+01 0. -1.
        -13    1    4    4    0    0 -0.65047201653E+02  0.69822379184E+02  0.14635760501E+03  0.17471935103E+03  0.00000000000E+00 0.  1.
         14    1    4    4    0    0 -0.11238624312E+03  0.28753140524E+01  0.16280944874E+03  0.19785310630E+03  0.00000000000E+00 0. -1.
         -5    1    5    5    0  502  0.19333586504E+03 -0.93408370564E+02  0.42049560740E+03  0.47216790048E+03  0.47000000000E+01 0.  1.
         13    1    6    6    0    0 -0.21939939501E+02  0.41034440667E+01  0.28718646161E+02  0.36372514841E+02  0.00000000000E+00 0. -1.
        -14    1    6    6    0    0  0.48368602602E+02 -0.55965940143E+02  0.19431284547E+03  0.20791630549E+03  0.00000000000E+00 0.  1.
<mgrwt>
<rscale>  2 0.31477381E+03</rscale>
<asrwt>0</asrwt>
<pdfrwt beam="1">  1       21 0.20681045E+00 0.31493349E+03</pdfrwt>
<pdfrwt beam="2">  1       21 0.11329413E-01 0.31493349E+03</pdfrwt>
<totfact> 0.72514448E+03</totfact>
</mgrwt>
</event>
<event>
12    1  0.1071811E-001  0.1777271E+03  0.7546771E-02  0.1171060E+00
         21   -1    0    0  503  502  0.00000000000E+00  0.00000000000E+00  0.23440455585E+03  0.23440455585E+03  0.00000000000E+00 0. -1.
         21   -1    0    0  501  503 -0.00000000000E+00 -0.00000000000E+00 -0.16332979508E+03  0.16332979508E+03  0.00000000000E+00 0. -1.
          6    2    1    2  501    0 -0.34427616224E+02  0.15427706635E+02 -0.52436350145E+02  0.18130440341E+03  0.16940614213E+03 0.  0.
         24    2    3    3    0    0  0.29844969988E+02 -0.11728376418E+02 -0.68176121002E+02  0.10962282578E+03  0.79629789718E+02 0.  0.
         -6    2    1    2    0  502  0.34427616224E+02 -0.15427706635E+02  0.12351111091E+03  0.21642994752E+03  0.17367686309E+03 0.  0.
        -24    2    5    5    0    0  0.76046662992E+02 -0.31762228833E+02  0.12654439982E+03  0.17137162408E+03  0.81011198503E+02 0.  0.
          5    1    3    3  501    0 -0.64272586212E+02  0.27156083053E+02  0.15739770857E+02  0.71681577632E+02  0.47000000000E+01 0. -1.
        -11    1    4    4    0    0 -0.14314814108E+02 -0.18103827991E+02 -0.59968729419E+02  0.64256602766E+02  0.00000000000E+00 0.  1.
         12    1    4    4    0    0  0.44159784096E+02  0.63754515732E+01 -0.82073915834E+01  0.45366223017E+02  0.00000000000E+00 0. -1.
         -5    1    5    5    0  502 -0.41619046768E+02  0.16334522199E+02 -0.30332889074E+01  0.45058323437E+02  0.47000000000E+01 0.  1.
         11    1    6    6    0    0  0.69590389362E+02 -0.43303564246E+02  0.55215057983E+02  0.98826735229E+02  0.00000000000E+00 0. -1.
        -12    1    6    6    0    0  0.64562736300E+01  0.11541335413E+02  0.71329341833E+02  0.72544888852E+02  0.00000000000E+00 0.  1.
<mgrwt>
<rscale>  2 0.17667505E+03</rscale>
<asrwt>0</asrwt>
<pdfrwt beam="1">  1       21 0.36062239E-01 0.17772712E+03</pdfrwt>
<pdfrwt beam="2">  1       21 0.25127661E-01 0.17772712E+03</pdfrwt>
<totfact> 0.11183112E+05</totfact>
</mgrwt>
</event>
<event>
12    1  0.1071811E-001  0.1892303E+03  0.7546771E-02  0.1159296E+00
         21   -1    0    0  501  502  0.00000000000E+00  0.00000000000E+00  0.50898421683E+03  0.50898421683E+03  0.00000000000E+00 0.  1.
         21   -1    0    0  502  503 -0.00000000000E+00 -0.00000000000E+00 -0.17384596566E+03  0.17384596566E+03  0.00000000000E+00 0.  1.
         -6    2    1    2    0  503  0.56417834057E+02 -0.51665033366E+02 -0.96252739834E+02  0.21176085712E+03  0.17241178327E+03 0.  0.
        -24    2    3    3    0    0 -0.14378291080E+02  0.22861170451E+02 -0.66080791097E+02  0.10452894545E+03  0.76356146555E+02 0.  0.
          6    2    1    2  501    0 -0.56417834057E+02  0.51665033366E+02  0.43139099101E+03  0.47106932537E+03  0.17307765457E+03 0.  0.
         24    2    5    5    0    0  0.12170339771E+02 -0.48184678113E+01  0.10336241301E+03  0.13118763790E+03  0.79718712440E+02 0.  0.
          5    1    5    5  501    0 -0.68588173828E+02  0.56483501177E+02  0.32802857800E+03  0.33988168747E+03  0.47000000000E+01 0. -1.
        -13    1    6    6    0    0  0.28273503301E+02 -0.68973613016E+01  0.10989704893E+03  0.11368520549E+03  0.00000000000E+00 0.  1.
         14    1    6    6    0    0 -0.16103163529E+02  0.20788934903E+01 -0.65346359259E+01  0.17502432416E+02  0.00000000000E+00 0. -1.
         -5    1    3    3    0  503  0.70796125136E+02 -0.74526203817E+02 -0.30171948736E+02  0.10723191167E+03  0.47000000000E+01 0.  1.
         13    1    4    4    0    0 -0.33046972606E+02 -0.16756573035E+02 -0.27199292004E+02  0.45963970932E+02  0.00000000000E+00 0. -1.
        -14    1    4    4    0    0  0.18668681527E+02  0.39617743486E+02 -0.38881499093E+02  0.58564974521E+02  0.00000000000E+00 0.  1.
<mgrwt>
<rscale>  2 0.18907795E+03</rscale>
<asrwt>0</asrwt>
<pdfrwt beam="1">  1       21 0.78305263E-01 0.18923034E+03</pdfrwt>
<pdfrwt beam="2">  1       21 0.26745533E-01 0.18923034E+03</pdfrwt>
<totfact> 0.19251132E+04</totfact>
</mgrwt>
</event>
<event>
12    1  0.1071811E-001  0.3508231E+03  0.7546771E-02  0.1062323E+00
         21   -1    0    0  503  502  0.00000000000E+00  0.00000000000E+00  0.11311024163E+03  0.11311024163E+03  0.00000000000E+00 0.  1.
         21   -1    0    0  501  503 -0.00000000000E+00 -0.00000000000E+00 -0.12893211773E+04  0.12893211773E+04  0.00000000000E+00 0. -1.
          6    2    1    2  501    0 -0.23112793174E+03  0.19902599715E+03 -0.86636171718E+03  0.93469752285E+03  0.17333599122E+03 0.  0.
         24    2    3    3    0    0 -0.24133137570E+03  0.21444811004E+03 -0.81375095243E+03  0.87873383460E+03  0.75853244434E+02 0.  0.
         -6    2    1    2    0  502  0.23112793174E+03 -0.19902599715E+03 -0.30984921848E+03  0.46773389607E+03  0.17244416769E+03 0.  0.
        -24    2    5    5    0    0  0.59701558057E+02 -0.12419280475E+03 -0.11408059576E+03  0.19693055060E+03  0.82335476218E+02 0.  0.
          5    1    3    3  501    0  0.10203443967E+02 -0.15422112890E+02 -0.52610764752E+02  0.55963688250E+02  0.47000000000E+01 0. -1.
        -11    1    4    4    0    0 -0.44253289567E+02  0.58076944515E+01 -0.11009864706E+03  0.11880149425E+03  0.00000000000E+00 0.  1.
         12    1    4    4    0    0 -0.19707808614E+03  0.20864041559E+03 -0.70365230537E+03  0.75993234034E+03  0.00000000000E+00 0. -1.
         -5    1    5    5    0  502  0.17142637368E+03 -0.74833192402E+02 -0.19576862271E+03  0.27080334547E+03  0.47000000000E+01 0.  1.
         11    1    6    6    0    0  0.70581285321E+02 -0.98396506840E+02 -0.11749472333E+03  0.16872640696E+03  0.00000000000E+00 0. -1.
        -12    1    6    6    0    0 -0.10879727264E+02 -0.25796297911E+02  0.34141275703E+01  0.28204143637E+02  0.00000000000E+00 0.  1.
<mgrwt>
<rscale>  2 0.35071308E+03</rscale>
<asrwt>0</asrwt>
<pdfrwt beam="1">  1       21 0.17401577E-01 0.35082308E+03</pdfrwt>
<pdfrwt beam="2">  1       21 0.19835709E+00 0.35082308E+03</pdfrwt>
<totfact> 0.36772887E+03</totfact>
</mgrwt>
</event>
<event>
12    1  0.1071811E-001  0.2254688E+03  0.7546771E-02  0.1130020E+00
         21   -1    0    0  501  502  0.00000000000E+00  0.00000000000E+00  0.49124746045E+03  0.49124746045E+03  0.00000000000E+00 0. -1.
         21   -1    0    0  502  503 -0.00000000000E+00 -0.00000000000E+00 -0.16164586748E+04  0.16164586748E+04  0.00000000000E+00 0. -1.
         -6    2    1    2    0  503  0.89708029820E+02  0.11151466810E+03 -0.15822292457E+04  0.15980968353E+04  0.17315038922E+03 0.  0.
        -24    2    3    3    0    0  0.31797522529E+02  0.13295067213E+03 -0.99795671974E+03  0.10105514297E+04  0.81299531630E+02 0.  0.
          6    2    1    2  501    0 -0.89708029820E+02 -0.11151466810E+03  0.45701803130E+03  0.50960929997E+03  0.17422142768E+03 0.  0.
         24    2    5    5    0    0 -0.73645389044E+02 -0.11970593447E+02  0.13781227207E+03  0.17482364025E+03  0.77486414436E+02 0.  0.
          5    1    5    5  501    0 -0.16062640776E+02 -0.99544074654E+02  0.31920575923E+03  0.33478565972E+03  0.47000000000E+01 0. -1.
        -13    1    6    6    0    0 -0.62065922790E+02 -0.23947763298E+02  0.14271421092E+03  0.15745799483E+03  0.00000000000E+00 0.  1.
         14    1    6    6    0    0 -0.11579466254E+02  0.11977169851E+02 -0.49019388455E+01  0.17365645419E+02  0.00000000000E+00 0. -1.
         -5    1    3    3    0  503  0.57910507291E+02 -0.21436004031E+02 -0.58427252595E+03  0.58754540565E+03  0.47000000000E+01 0.  1.
         11    1    4    4    0    0  0.18950262006E+02  0.13352282309E+02 -0.39691660282E+03  0.39759298971E+03  0.00000000000E+00 0. -1.
        -12    1    4    4    0    0  0.12847260523E+02  0.11959838982E+03 -0.60104011692E+03  0.61295843994E+03  0.00000000000E+00 0.  1.
<mgrwt>
<rscale>  2 0.22526182E+03</rscale>
<asrwt>0</asrwt>
<pdfrwt beam="1">  1       21 0.75576533E-01 0.22546875E+03</pdfrwt>
<pdfrwt beam="2">  1       21 0.24868595E+00 0.22546875E+03</pdfrwt>
<totfact> 0.10094924E+02</totfact>
</mgrwt>
</event>
<event>
12    1  0.1071811E-001  0.2373522E+03  0.7546771E-02  0.1121775E+00
         21   -1    0    0  501  502  0.00000000000E+00  0.00000000000E+00  0.13868833614E+03  0.13868833614E+03  0.00000000000E+00 0. -1.
         21   -1    0    0  502  503 -0.00000000000E+00 -0.00000000000E+00 -0.72093716023E+03  0.72093716023E+03  0.00000000000E+00 0. -1.
         -6    2    1    2    0  503  0.74579492787E+02  0.14456472096E+03 -0.57646219152E+03  0.62341375316E+03  0.17284383149E+03 0.  0.
        -24    2    3    3    0    0  0.10854047533E+02  0.13012960361E+03 -0.49864543303E+03  0.52169432096E+03  0.80412514900E+02 0.  0.
          6    2    1    2  501    0 -0.74579492787E+02 -0.14456472096E+03 -0.57866325692E+01  0.23621174321E+03  0.17117664334E+03 0.  0.
         24    2    5    5    0    0 -0.32709908944E+02 -0.22991452690E+02  0.28996291575E+02  0.10292609724E+03  0.90302001798E+02 0.  0.
          5    1    5    5  501    0 -0.41869583842E+02 -0.12157326827E+03 -0.34782924144E+02  0.13328564597E+03  0.47000000000E+01 0. -1.
        -13    1    6    6    0    0 -0.11556180020E+02 -0.21763229730E+01 -0.32544146707E+02  0.34603513741E+02  0.00000000000E+00 0.  1.
         14    1    6    6    0    0 -0.21153728924E+02 -0.20815129717E+02  0.61540438282E+02  0.68322583502E+02  0.00000000000E+00 0. -1.
         -5    1    3    3    0  503  0.63725445254E+02  0.14435117346E+02 -0.77816758491E+02  0.10171943220E+03  0.47000000000E+01 0.  1.
         11    1    4    4    0    0  0.13261928848E+02  0.70934165781E+02 -0.40131032932E+03  0.40774687620E+03  0.00000000000E+00 0. -1.
        -12    1    4    4    0    0 -0.24078813156E+01  0.59195437833E+02 -0.97335103717E+02  0.11394744476E+03  0.00000000000E+00 0.  1.
<mgrwt>
<rscale>  2 0.23704875E+03</rscale>
<asrwt>0</asrwt>
<pdfrwt beam="1">  1       21 0.21336667E-01 0.23735216E+03</pdfrwt>
<pdfrwt beam="2">  1       21 0.11091341E+00 0.23735216E+03</pdfrwt>
<totfact> 0.12721781E+04</totfact>
</mgrwt>
</event>
<event>
11    1  0.1071811E-001  0.1993707E+03  0.7546771E-02  0.1150495E+00
         21   -1    0    0  503  502  0.00000000000E+00  0.00000000000E+00  0.45083763063E+03  0.45083763063E+03  0.00000000000E+00 0. -1.
         21   -1    0    0  501  503 -0.00000000000E+00 -0.00000000000E+00 -0.96166717921E+02  0.96166717921E+02  0.00000000000E+00 0. -1.
          6    2    1    2  501    0 -0.94353791914E+02 -0.31933364429E+02  0.95755462836E+02  0.22022323510E+03  0.17148407157E+03 0.  0.
         -6    2    1    2    0  502  0.94353791914E+02  0.31933364429E+02  0.25891544987E+03  0.32678111345E+03  0.17270294761E+03 0.  0.
        -24    2    4    4    0    0 -0.33583068016E+01  0.22414784685E+02  0.18450818330E+03  0.20350585675E+03  0.82811009114E+02 0.  0.
          5    1    3    3  501    0 -0.61988034878E+02 -0.41446427974E+02 -0.32221994229E+02  0.81367498253E+02  0.47000000000E+01 0. -1.
        -11    1    3    3    0    0  0.28160749509E+01  0.10490985940E+02  0.71444316390E+01  0.13001306379E+02  0.00000000000E+00 0.  1.
         12    1    3    3    0    0 -0.35181831987E+02 -0.97792239505E+00  0.12083302543E+03  0.12585443047E+03  0.00000000000E+00 0. -1.
         -5    1    4    4    0  502  0.97712098716E+02  0.95185797435E+01  0.74407266570E+02  0.12327525670E+03  0.47000000000E+01 0.  1.
         13    1    5    5    0    0  0.33863942394E+02 -0.75815495638E+01  0.10654059735E+03  0.11204974508E+03  0.00000000000E+00 0. -1.
        -14    1    5    5    0    0 -0.37222249196E+02  0.29996334249E+02  0.77967585946E+02  0.91456111670E+02  0.00000000000E+00 0.  1.
<mgrwt>
<rscale>  2 0.19910647E+03</rscale>
<asrwt>0</asrwt>
<pdfrwt beam="1">  1       21 0.69359634E-01 0.19937072E+03</pdfrwt>
<pdfrwt beam="2">  1       21 0.14794880E-01 0.19937072E+03</pdfrwt>
<totfact> 0.75828257E+04</totfact>
</mgrwt>
</event>
<event>
12    1  0.1071811E-001  0.3305517E+03  0.7546771E-02  0.1070957E+00
         21   -1    0    0  503  502  0.00000000000E+00  0.00000000000E+00  0.91483838737E+02  0.91483838737E+02  0.00000000000E+00 0.  1.
         21   -1    0    0  501  503 -0.00000000000E+00 -0.00000000000E+00 -0.18612259485E+04  0.18612259485E+04  0.00000000000E+00 0.  1.
          6    2    1    2  501    0  0.16223708025E+03 -0.22979655682E+03 -0.14697119970E+04  0.15062991073E+04  0.17250019963E+03 0.  0.
         24    2    3    3    0    0  0.12352922032E+03 -0.21319219376E+03 -0.14062413318E+04  0.14299799181E+04  0.81348038468E+02 0.  0.
         -6    2    1    2    0  502 -0.16223708025E+03  0.22979655682E+03 -0.30003011271E+03  0.44641067986E+03  0.17360039984E+03 0.  0.
        -24    2    5    5    0    0 -0.15034381576E+03  0.23648984997E+03 -0.31222156602E+03  0.42751699183E+03  0.82205595549E+02 0.  0.
          5    1    3    3  501    0  0.38707859932E+02 -0.16604363060E+02 -0.63470665241E+02  0.76319189195E+02  0.47000000000E+01 0. -1.
        -11    1    4    4    0    0  0.36790621172E+02 -0.62991582434E+02 -0.65117718507E+03  0.65525049837E+03  0.00000000000E+00 0.  1.
         12    1    4    4    0    0  0.86738599148E+02 -0.15020061132E+03 -0.75506414669E+03  0.77472941976E+03  0.00000000000E+00 0. -1.
         -5    1    5    5    0  502 -0.11893264497E+02 -0.66932931568E+01  0.12191453307E+02  0.18893688031E+02  0.47000000000E+01 0.  1.
         13    1    6    6    0    0 -0.34050821028E+01  0.52854246648E+02 -0.87177496419E+02  0.10200530307E+03  0.00000000000E+00 0. -1.
        -14    1    6    6    0    0 -0.14693873365E+03  0.18363560332E+03 -0.22504406960E+03  0.32551168876E+03  0.00000000000E+00 0.  1.
<mgrwt>
<rscale>  2 0.33040749E+03</rscale>
<asrwt>0</asrwt>
<pdfrwt beam="1">  1       21 0.14074438E-01 0.33055170E+03</pdfrwt>
<pdfrwt beam="2">  1       21 0.28634242E+00 0.33055170E+03</pdfrwt>
<totfact> 0.15814767E+03</totfact>
</mgrwt>
</event>
<event>
12    1  0.1071811E-001  0.1765102E+03  0.7546771E-02  0.1171828E+00
         21   -1    0    0  503  502  0.00000000000E+00  0.00000000000E+00  0.38550515627E+03  0.38550515627E+03  0.00000000000E+00 0.  1.
         21   -1    0    0  501  503 -0.00000000000E+00 -0.00000000000E+00 -0.23756424267E+03  0.23756424267E+03  0.00000000000E+00 0.  1.
          6    2    1    2  501    0 -0.12762253285E+01 -0.21175635194E+02 -0.18014216987E+03  0.25051825101E+03  0.17279512854E+03 0.  0.
         24    2    3    3    0    0 -0.16293254325E+01 -0.64826838622E+02 -0.17903574204E+03  0.20659938920E+03  0.80151961812E+02 0.  0.
         -6    2    1    2    0  502  0.12762253285E+01  0.21175635194E+02  0.32808308347E+03  0.37255114793E+03  0.17523073900E+03 0.  0.
        -24    2    5    5    0    0  0.31427760864E+02  0.23071495100E+01  0.32538859630E+03  0.33657219425E+03  0.80062951760E+02 0.  0.
          5    1    3    3  501    0  0.35310010401E+00  0.43651203428E+02 -0.11064278270E+01  0.43918861813E+02  0.47000000000E+01 0. -1.
        -11    1    4    4    0    0  0.20800761396E+02  0.10993838408E+02 -0.50117359778E+02  0.55365024237E+02  0.00000000000E+00 0.  1.
         12    1    4    4    0    0 -0.22430086829E+02 -0.75820677030E+02 -0.12891838227E+03  0.15123436496E+03  0.00000000000E+00 0. -1.
         -5    1    5    5    0  502 -0.30151535535E+02  0.18868485684E+02  0.26944871660E+01  0.35978953685E+02  0.47000000000E+01 0.  1.
         13    1    6    6    0    0  0.41871805608E+02 -0.12512360911E+02  0.85703342195E+02  0.96202235649E+02  0.00000000000E+00 0. -1.
        -14    1    6    6    0    0 -0.10444044744E+02  0.14819510421E+02  0.23968525411E+03  0.24036995860E+03  0.00000000000E+00 0.  1.
<mgrwt>
<rscale>  2 0.17590264E+03</rscale>
<asrwt>0</asrwt>
<pdfrwt beam="1">  1       21 0.59308485E-01 0.17651019E+03</pdfrwt>
<pdfrwt beam="2">  1       21 0.36548345E-01 0.17651019E+03</pdfrwt>
<totfact> 0.19367777E+04</totfact>
</mgrwt>
</event>
<event>
12    1  0.1071811E-001  0.1930799E+03  0.7546771E-02  0.1156337E+00
         21   -1    0    0  501  502  0.00000000000E+00  0.00000000000E+00  0.11974428324E+03  0.11974428324E+03  0.00000000000E+00 0. -1.
         21   -1    0    0  502  503 -0.00000000000E+00 -0.00000000000E+00 -0.44582735826E+03  0.44582735826E+03  0.00000000000E+00 0.  1.
         -6    2    1    2    0  503  0.67047651834E+02  0.53713905097E+02 -0.32176203969E+03  0.37524744833E+03  0.17291404244E+03 0.  0.
        -24    2    3    3    0    0 -0.55570002898E+01  0.42854174756E+02 -0.10289985271E+03  0.14435328179E+03  0.91553971668E+02 0.  0.
          6    2    1    2  501    0 -0.67047651834E+02 -0.53713905097E+02 -0.43210353285E+01  0.19032419317E+03  0.16977648819E+03 0.  0.
         24    2    5    5    0    0 -0.72142873286E+02  0.17946895145E+02  0.26119059381E+02  0.11215820991E+03  0.79815872961E+02 0.  0.
          5    1    5    5  501    0  0.50952214519E+01 -0.71660800242E+02 -0.30440094709E+02  0.78165983259E+02  0.47000000000E+01 0. -1.
        -11    1    6    6    0    0 -0.11894381567E+02  0.25062077536E+02 -0.21448681049E+02  0.35066079935E+02  0.00000000000E+00 0.  1.
         12    1    6    6    0    0 -0.60248491719E+02 -0.71151823909E+01  0.47567740430E+02  0.77092129977E+02  0.00000000000E+00 0. -1.
         -5    1    3    3    0  503  0.72604652124E+02  0.10859730341E+02 -0.21886218698E+03  0.23089416654E+03  0.47000000000E+01 0.  1.
         11    1    4    4    0    0  0.20102805327E+02  0.64279432633E+02 -0.75096741625E+02  0.10087362809E+03  0.00000000000E+00 0. -1.
        -12    1    4    4    0    0 -0.25659805617E+02 -0.21425257876E+02 -0.27803111088E+02  0.43479653696E+02  0.00000000000E+00 0.  1.
<mgrwt>
<rscale>  2 0.19237484E+03</rscale>
<asrwt>0</asrwt>
<pdfrwt beam="1">  1       21 0.18422197E-01 0.19307987E+03</pdfrwt>
<pdfrwt beam="2">  1       21 0.68588824E-01 0.19307987E+03</pdfrwt>
<totfact> 0.52114511E+04</totfact>
</mgrwt>
</event>
<event>
12    1  0.1071811E-001  0.1860904E+03  0.7546771E-02  0.1162365E+00
         21   -1    0    0  501  502  0.00000000000E+00  0.00000000000E+00  0.27062238641E+03  0.27062238641E+03  0.00000000000E+00 0. -1.
         21   -1    0    0  502  503 -0.00000000000E+00 -0.00000000000E+00 -0.13477606807E+03  0.13477606807E+03  0.00000000000E+00 0. -1.
         -6    2    1    2    0  503  0.15119091366E+02  0.67426112916E+02  0.19452865456E+02  0.18710436722E+03  0.17278530791E+03 0.  0.
        -24    2    3    3    0    0  0.32658112444E+02  0.11168478501E+03  0.20207388003E+02  0.13925975811E+03  0.73789553378E+02 0.  0.
          6    2    1    2  501    0 -0.15119091366E+02 -0.67426112916E+02  0.11639345288E+03  0.21829408726E+03  0.17126005089E+03 0.  0.
         24    2    5    5    0    0 -0.13802473235E+02  0.11421375416E+02  0.11281448970E+03  0.13921464064E+03  0.79577955483E+02 0.  0.
          5    1    5    5  501    0 -0.13166181312E+01 -0.78847488332E+02  0.35789631787E+01  0.79079446616E+02  0.47000000000E+01 0. -1.
        -11    1    6    6    0    0 -0.34194755635E+02  0.25233265619E+02  0.27989347598E+02  0.50886172834E+02  0.00000000000E+00 0.  1.
         12    1    6    6    0    0  0.20392282400E+02 -0.13811890203E+02  0.84825142104E+02  0.88328467809E+02  0.00000000000E+00 0. -1.
         -5    1    3    3    0  503 -0.17539021079E+02 -0.44258672096E+02 -0.75452254668E+00  0.47844609105E+02  0.47000000000E+01 0.  1.
         11    1    4    4    0    0 -0.90797961544E+00  0.99501189104E+02  0.28262834101E+01  0.99545461664E+02  0.00000000000E+00 0. -1.
        -12    1    4    4    0    0  0.33566092060E+02  0.12183595908E+02  0.17381104593E+02  0.39714296447E+02  0.00000000000E+00 0.  1.
<mgrwt>
<rscale>  2 0.18573553E+03</rscale>
<asrwt>0</asrwt>
<pdfrwt beam="1">  1       21 0.41634213E-01 0.18609038E+03</pdfrwt>
<pdfrwt beam="2">  1       21 0.20734780E-01 0.18609038E+03</pdfrwt>
<totfact> 0.12011337E+05</totfact>
</mgrwt>
</event>
<event>
12    1  0.1071811E-001  0.1957926E+03  0.7546771E-02  0.1153398E+00
         21   -1    0    0  503  502  0.00000000000E+00  0.00000000000E+00  0.35168058363E+03  0.35168058363E+03  0.00000000000E+00 0. -1.
         21   -1    0    0  501  503 -0.00000000000E+00 -0.00000000000E+00 -0.11787278646E+03  0.11787278646E+03  0.00000000000E+00 0.  1.
          6    2    1    2  501    0 -0.17431870465E+02 -0.90280054554E+02  0.52027841214E+02  0.20258735099E+03  0.17285942312E+03 0.  0.
         24    2    3    3    0    0 -0.67640084103E+02 -0.34905830020E+02 -0.30742522359E+01  0.10960616923E+03  0.78806493125E+02 0.  0.
         -6    2    1    2    0  502  0.17431870465E+02  0.90280054554E+02  0.18177995596E+03  0.26696601909E+03  0.17254722427E+03 0.  0.
        -24    2    5    5    0    0  0.31539682424E+01  0.11407348094E+03  0.78518930528E+02  0.15993838246E+03  0.79952217994E+02 0.  0.
          5    1    3    3  501    0  0.50208213638E+02 -0.55374224535E+02  0.55102093450E+02  0.92981181763E+02  0.47000000000E+01 0. -1.
        -13    1    4    4    0    0 -0.73886538662E+02 -0.13952252965E+02  0.20011408377E+02  0.77809655079E+02  0.00000000000E+00 0.  1.
         14    1    4    4    0    0  0.62464545584E+01 -0.20953577055E+02 -0.23085660613E+02  0.31796514147E+02  0.00000000000E+00 0. -1.
         -5    1    5    5    0  502  0.14277902223E+02 -0.23793426388E+02  0.10326102543E+03  0.10702763664E+03  0.47000000000E+01 0.  1.
         11    1    6    6    0    0  0.10671014109E+02  0.60207725541E+02  0.85489142759E+02  0.10510582423E+03  0.00000000000E+00 0. -1.
        -12    1    6    6    0    0 -0.75170458664E+01  0.53865755401E+02 -0.69702122317E+01  0.54832558230E+02  0.00000000000E+00 0.  1.
<mgrwt>
<rscale>  2 0.19572366E+03</rscale>
<asrwt>0</asrwt>
<pdfrwt beam="1">  1       21 0.54104705E-01 0.19579259E+03</pdfrwt>
<pdfrwt beam="2">  1       21 0.18134275E-01 0.19579259E+03</pdfrwt>
<totfact> 0.89310995E+04</totfact>
</mgrwt>
</event>
<event>
12    1  0.1071811E-001  0.2070459E+03  0.7546771E-02  0.1144175E+00
         21   -1    0    0  501  502  0.00000000000E+00  0.00000000000E+00  0.85165519922E+03  0.85165519922E+03  0.00000000000E+00 0.  1.
         21   -1    0    0  502  503 -0.00000000000E+00 -0.00000000000E+00 -0.98795982142E+02  0.98795982142E+02  0.00000000000E+00 0.  1.
         -6    2    1    2    0  503 -0.90878461903E+01 -0.11040014323E+03  0.43142109499E+02  0.21149288042E+03  0.17492059994E+03 0.  0.
        -24    2    3    3    0    0 -0.20139185758E+02 -0.11325325688E+03  0.88248426732E+02  0.16472812641E+03  0.78202837614E+02 0.  0.
          6    2    1    2  501    0  0.90878461903E+01  0.11040014323E+03  0.70971710758E+03  0.73895830094E+03  0.17346531977E+03 0.  0.
         24    2    5    5    0    0  0.39691245008E+02  0.12111852668E+03  0.40009563326E+03  0.42760801730E+03  0.80789902028E+02 0.  0.
          5    1    5    5  501    0 -0.30603398818E+02 -0.10718383452E+02  0.30962147432E+03  0.31135028364E+03  0.47000000000E+01 0. -1.
        -11    1    6    6    0    0 -0.20098325463E+01  0.61896908763E+02  0.28475057612E+03  0.29140720194E+03  0.00000000000E+00 0.  1.
         12    1    6    6    0    0  0.41701077554E+02  0.59221617922E+02  0.11534505714E+03  0.13620081536E+03  0.00000000000E+00 0. -1.
         -5    1    3    3    0  503  0.11051339568E+02  0.28531136509E+01 -0.45106317233E+02  0.46764754015E+02  0.47000000000E+01 0.  1.
         13    1    4    4    0    0 -0.82578088207E+01 -0.14910089016E+02  0.59043496424E+02  0.61454345908E+02  0.00000000000E+00 0. -1.
        -14    1    4    4    0    0 -0.11881376937E+02 -0.98343167867E+02  0.29204930308E+02  0.10327378050E+03  0.00000000000E+00 0.  1.
<mgrwt>
<rscale>  2 0.20673819E+03</rscale>
<asrwt>0</asrwt>
<pdfrwt beam="1">  1       21 0.13102387E+00 0.20704588E+03</pdfrwt>
<pdfrwt beam="2">  1       21 0.15199382E-01 0.20704588E+03</pdfrwt>
<totfact> 0.16072690E+04</totfact>
</mgrwt>
</event>
<event>
12    1  0.1071811E-001  0.2295283E+03  0.7546771E-02  0.1127062E+00
         21   -1    0    0  503  502  0.00000000000E+00  0.00000000000E+00  0.65421554705E+03  0.65421554705E+03  0.00000000000E+00 0.  1.
         21   -1    0    0  501  503 -0.00000000000E+00 -0.00000000000E+00 -0.10049940633E+03  0.10049940633E+03  0.00000000000E+00 0.  1.
          6    2    1    2  501    0  0.95984891825E+02 -0.11560221217E+03  0.10814176412E+03  0.25372796255E+03  0.17351157574E+03 0.  0.
         24    2    3    3    0    0  0.52714761855E+02 -0.47461822622E+02 -0.13247608215E+02  0.10787568608E+03  0.80188489198E+02 0.  0.
         -6    2    1    2    0  502 -0.95984891825E+02  0.11560221217E+03  0.44557437659E+03  0.50098699083E+03  0.17284232407E+03 0.  0.
        -24    2    5    5    0    0 -0.79506024597E+02  0.11776257760E+03  0.21723352811E+03  0.27199386140E+03  0.81246675442E+02 0.  0.
          5    1    3    3  501    0  0.43270129970E+02 -0.68140389545E+02  0.12138937233E+03  0.14585227647E+03  0.47000000000E+01 0. -1.
        -11    1    4    4    0    0  0.20706611139E+02 -0.60859034746E+02 -0.28066529131E+02  0.70144963558E+02  0.00000000000E+00 0.  1.
         12    1    4    4    0    0  0.32008150716E+02  0.13397212124E+02  0.14818920916E+02  0.37730722522E+02  0.00000000000E+00 0. -1.
         -5    1    5    5    0  502 -0.16478867228E+02 -0.21603654370E+01  0.22834084848E+03  0.22899312944E+03  0.47000000000E+01 0.  1.
         11    1    6    6    0    0  0.35211218791E+01  0.30000494880E+02  0.94668206316E+01  0.31655152585E+02  0.00000000000E+00 0. -1.
        -12    1    6    6    0    0 -0.83027146476E+02  0.87762082725E+02  0.20776670748E+03  0.24033870881E+03  0.00000000000E+00 0.  1.
<mgrwt>
<rscale>  2 0.22940181E+03</rscale>
<asrwt>0</asrwt>
<pdfrwt beam="1">  1       21 0.10064854E+00 0.22952829E+03</pdfrwt>
<pdfrwt beam="2">  1       21 0.15461448E-01 0.22952829E+03</pdfrwt>
<totfact> 0.29408839E+04</totfact>
</mgrwt>
</event>
<event>
12    1  0.1071811E-001  0.1793479E+03  0.7546771E-02  0.1168465E+00
         21   -1    0    0  503  502  0.00000000000E+00  0.00000000000E+00  0.76304409062E+02  0.76304409062E+02  0.00000000000E+00 0.  1.
         21   -1    0    0  501  503 -0.00000000000E+00 -0.00000000000E+00 -0.46867114039E+03  0.46867114039E+03  0.00000000000E+00 0. -1.
          6    2    1    2  501    0 -0.15637742048E+02 -0.43618158258E+02 -0.28291156848E+03  0.33496958054E+03  0.17325871293E+03 0.  0.
         24    2    3    3    0    0  0.24094383800E+02 -0.37781313943E+01 -0.57096101185E+02  0.10220234738E+03  0.81182149717E+02 0.  0.
         -6    2    1    2    0  502  0.15637742048E+02  0.43618158258E+02 -0.10945516285E+03  0.21000596891E+03  0.17313287266E+03 0.  0.
        -24    2    5    5    0    0  0.10353590751E+02  0.27939208582E+02 -0.14677627456E+03  0.16891208740E+03  0.78103919739E+02 0.  0.
          5    1    3    3  501    0 -0.39732125848E+02 -0.39840026864E+02 -0.22581546729E+03  0.23276723316E+03  0.47000000000E+01 0. -1.
        -13    1    4    4    0    0  0.53278528192E+02  0.60888074140E+01 -0.40568259211E+02  0.67241793532E+02  0.00000000000E+00 0.  1.
         14    1    4    4    0    0 -0.29184144392E+02 -0.98669388084E+01 -0.16527841974E+02  0.34960553852E+02  0.00000000000E+00 0. -1.
         -5    1    5    5    0  502  0.52841512977E+01  0.15678949677E+02  0.37321111711E+02  0.41093881506E+02  0.47000000000E+01 0.  1.
         13    1    6    6    0    0  0.11277222509E+02 -0.25256571571E+02 -0.31309573212E+02  0.41777500281E+02  0.00000000000E+00 0. -1.
        -14    1    6    6    0    0 -0.92363175880E+00  0.53195780153E+02 -0.11546670135E+03  0.12713458712E+03  0.00000000000E+00 0.  1.
<mgrwt>
<rscale>  2 0.17931749E+03</rscale>
<asrwt>0</asrwt>
<pdfrwt beam="1">  1       21 0.11739140E-01 0.17934789E+03</pdfrwt>
<pdfrwt beam="2">  1       21 0.72103252E-01 0.17934789E+03</pdfrwt>
<totfact> 0.10646424E+05</totfact>
</mgrwt>
</event>
<event>
12    1  0.1071811E-001  0.1928697E+03  0.7546771E-02  0.1157002E+00
         21   -1    0    0  503  502  0.00000000000E+00  0.00000000000E+00  0.60301143888E+03  0.60301143888E+03  0.00000000000E+00 0. -1.
         21   -1    0    0  501  503 -0.00000000000E+00 -0.00000000000E+00 -0.12946193804E+03  0.12946193804E+03  0.00000000000E+00 0.  1.
          6    2    1    2  501    0  0.42932209479E+02 -0.86910782013E+02 -0.29820048191E+02  0.19516132625E+03  0.16673946547E+03 0.  0.
         24    2    3    3    0    0  0.68480313586E+02 -0.33140153744E+02 -0.62625426559E+02  0.12702712824E+03  0.80163109459E+02 0.  0.
         -6    2    1    2    0  502 -0.42932209479E+02  0.86910782013E+02  0.50336954903E+03  0.53731205067E+03  0.16101763337E+03 0.  0.
        -24    2    5    5    0    0 -0.76543027401E+02  0.10074843219E+03  0.37629024066E+03  0.40505318231E+03  0.80403069893E+02 0.  0.
          5    1    3    3  501    0 -0.25548104107E+02 -0.53770628269E+02  0.32805378368E+02  0.68134198005E+02  0.47000000000E+01 0. -1.
        -11    1    4    4    0    0  0.85680810437E+01 -0.47883849169E+02 -0.31143598264E+02  0.57759836711E+02  0.00000000000E+00 0.  1.
         12    1    4    4    0    0  0.59912232543E+02  0.14743695425E+02 -0.31481828295E+02  0.69267291529E+02  0.00000000000E+00 0. -1.
         -5    1    5    5    0  502  0.33610817921E+02 -0.13837650174E+02  0.12707930837E+03  0.13225886836E+03  0.47000000000E+01 0.  1.
         11    1    6    6    0    0 -0.64540979177E+02  0.30901704971E+02  0.25215744522E+03  0.26211415555E+03  0.00000000000E+00 0. -1.
        -12    1    6    6    0    0 -0.12002048224E+02  0.69846727216E+02  0.12413279544E+03  0.14293902675E+03  0.00000000000E+00 0.  1.
<mgrwt>
<rscale>  2 0.19162654E+03</rscale>
<asrwt>0</asrwt>
<pdfrwt beam="1">  1       21 0.92770989E-01 0.19286967E+03</pdfrwt>
<pdfrwt beam="2">  1       21 0.19917222E-01 0.19286967E+03</pdfrwt>
<totfact> 0.22776280E+04</totfact>
</mgrwt>
</event>
<event>
12    1  0.1071811E-001  0.1852928E+03  0.7546771E-02  0.1163911E+00
         21   -1    0    0  503  502  0.00000000000E+00  0.00000000000E+00  0.61401990698E+03  0.61401990698E+03  0.00000000000E+00 0. -1.
         21   -1    0    0  501  503 -0.00000000000E+00 -0.00000000000E+00 -0.59996997167E+02  0.59996997167E+02  0.00000000000E+00 0. -1.
          6    2    1    2  501    0 -0.64677544883E+02  0.13676190853E+02  0.17148529862E+03  0.24896577787E+03  0.16794799165E+03 0.  0.
         24    2    3    3    0    0 -0.96568052717E+02 -0.20067422933E+02  0.15523690613E+03  0.19955185049E+03  0.77423211883E+02 0.  0.
         -6    2    1    2    0  502  0.64677544883E+02 -0.13676190853E+02  0.38253761119E+03  0.42505112628E+03  0.17309885316E+03 0.  0.
        -24    2    5    5    0    0  0.10294588223E+03 -0.18467903102E+02  0.35280984585E+03  0.37613020865E+03  0.77847468923E+02 0.  0.
          5    1    3    3  501    0  0.31890507834E+02  0.33743613786E+02  0.16248392492E+02  0.49413927387E+02  0.47000000000E+01 0. -1.
        -13    1    4    4    0    0 -0.25664294340E+02  0.12979523721E+02  0.99306412328E+02  0.10338707641E+03  0.00000000000E+00 0.  1.
         14    1    4    4    0    0 -0.70903758377E+02 -0.33046946655E+02  0.55930493804E+02  0.96164774072E+02  0.00000000000E+00 0. -1.
         -5    1    5    5    0  502 -0.38268337343E+02  0.47917122495E+01  0.29727765341E+02  0.48920917627E+02  0.47000000000E+01 0.  1.
         13    1    6    6    0    0  0.24070840806E+02 -0.39246292184E+02  0.16649410167E+03  0.17274247514E+03  0.00000000000E+00 0. -1.
        -14    1    6    6    0    0  0.78875041420E+02  0.20778389082E+02  0.18631574418E+03  0.20338773351E+03  0.00000000000E+00 0.  1.
<mgrwt>
<rscale>  2 0.18408036E+03</rscale>
<asrwt>0</asrwt>
<pdfrwt beam="1">  1       21 0.94464596E-01 0.18529284E+03</pdfrwt>
<pdfrwt beam="2">  1       21 0.92303077E-02 0.18529284E+03</pdfrwt>
<totfact> 0.87984781E+04</totfact>
</mgrwt>
</event>
<event>
12    1  0.1071811E-001  0.2202166E+03  0.7546771E-02  0.1134587E+00
         21   -1    0    0  501  502  0.00000000000E+00  0.00000000000E+00  0.25085537790E+03  0.25085537790E+03  0.00000000000E+00 0. -1.
         21   -1    0    0  502  503 -0.00000000000E+00 -0.00000000000E+00 -0.19407493904E+03  0.19407493904E+03  0.00000000000E+00 0. -1.
         -6    2    1    2    0  503 -0.10178576949E+03 -0.77792172762E+02  0.62965358585E+02  0.22462686199E+03  0.17343767103E+03 0.  0.
        -24    2    3    3    0    0 -0.48229678139E+01  0.11045550538E+00  0.29877388997E+02  0.95834361695E+02  0.90930156105E+02 0.  0.
          6    2    1    2  501    0  0.10178576949E+03  0.77792172762E+02 -0.61849197310E+01  0.22030345495E+03  0.17911837990E+03 0.  0.
         24    2    5    5    0    0  0.41639401179E+01 -0.18395857144E+02  0.89576023580E+01  0.82341341882E+02  0.79649933996E+02 0.  0.
          5    1    5    5  501    0  0.97621829374E+02  0.96188029906E+02 -0.15142522089E+02  0.13796211307E+03  0.47000000000E+01 0. -1.
        -13    1    6    6    0    0 -0.10670582525E+01  0.18426048853E+02 -0.25608751914E+02  0.31566850718E+02  0.00000000000E+00 0.  1.
         14    1    6    6    0    0  0.52309983704E+01 -0.36821905998E+02  0.34566354272E+02  0.50774491164E+02  0.00000000000E+00 0. -1.
         -5    1    3    3    0  503 -0.96962801678E+02 -0.77902628267E+02  0.33087969588E+02  0.12879250029E+03  0.47000000000E+01 0.  1.
         11    1    4    4    0    0  0.15224493040E+02  0.14032092930E+02 -0.26951255329E+02  0.33986099867E+02  0.00000000000E+00 0. -1.
        -12    1    4    4    0    0 -0.20047460854E+02 -0.13921637425E+02  0.56828644326E+02  0.61848261828E+02  0.00000000000E+00 0.  1.
<mgrwt>
<rscale>  2 0.21905871E+03</rscale>
<asrwt>0</asrwt>
<pdfrwt beam="1">  1       21 0.38593135E-01 0.22021662E+03</pdfrwt>
<pdfrwt beam="2">  1       21 0.29857683E-01 0.22021662E+03</pdfrwt>
<totfact> 0.68801420E+04</totfact>
</mgrwt>
</event>
<event>
12    1  0.1071811E-001  0.2549636E+03  0.7546771E-02  0.1110377E+00
         21   -1    0    0  503  502  0.00000000000E+00  0.00000000000E+00  0.13471585156E+04  0.13471585156E+04  0.00000000000E+00 0. -1.
         21   -1    0    0  501  503 -0.00000000000E+00 -0.00000000000E+00 -0.54784020559E+02  0.54784020559E+02  0.00000000000E+00 0. -1.
          6    2    1    2  501    0  0.10127423811E+03 -0.15642788625E+03  0.39915397792E+03  0.47304569094E+03  0.17240119700E+03 0.  0.
         24    2    3    3    0    0  0.11477539266E+03 -0.57636149985E+02  0.22561272018E+03  0.27284392655E+03  0.83948747470E+02 0.  0.
         -6    2    1    2    0  502 -0.10127423811E+03  0.15642788625E+03  0.89322051714E+03  0.92889684524E+03  0.17401236150E+03 0.  0.
        -24    2    5    5    0    0 -0.11127824911E+03  0.18040240184E+03  0.75658514612E+03  0.78973445000E+03  0.79570992709E+02 0.  0.
          5    1    3    3  501    0 -0.13501154545E+02 -0.98791736264E+02  0.17354125774E+03  0.20020176439E+03  0.47000000000E+01 0. -1.
        -11    1    4    4    0    0  0.14496584852E+02  0.19721536388E+02  0.56416639990E+02  0.61497375860E+02  0.00000000000E+00 0.  1.
         12    1    4    4    0    0  0.10027880780E+03 -0.77357686373E+02  0.16919608019E+03  0.21134655069E+03  0.00000000000E+00 0. -1.
         -5    1    5    5    0  502  0.10004011000E+02 -0.23974515587E+02  0.13663537102E+03  0.13916239524E+03  0.47000000000E+01 0.  1.
         11    1    6    6    0    0 -0.53469275132E+02  0.30717190630E+02  0.28509977535E+03  0.29169228836E+03  0.00000000000E+00 0. -1.
        -12    1    6    6    0    0 -0.57808973978E+02  0.14968521121E+03  0.47148537077E+03  0.49804216165E+03  0.00000000000E+00 0.  1.
<mgrwt>
<rscale>  2 0.25468897E+03</rscale>
<asrwt>0</asrwt>
<pdfrwt beam="1">  1       21 0.20725513E+00 0.25496364E+03</pdfrwt>
<pdfrwt beam="2">  1       21 0.84283119E-02 0.25496364E+03</pdfrwt>
<totfact> 0.12635679E+04</totfact>
</mgrwt>
</event>
<event>
12    1  0.1071811E-001  0.1992502E+03  0.7546771E-02  0.1150590E+00
         21   -1    0    0  501  502  0.00000000000E+00  0.00000000000E+00  0.12017133355E+04  0.12017133355E+04  0.00000000000E+00 0.  1.
         21   -1    0    0  502  503 -0.00000000000E+00 -0.00000000000E+00 -0.53271287525E+02  0.53271287525E+02  0.00000000000E+00 0.  1.
         -6    2    1    2    0  503 -0.17813551274E+02 -0.94688600960E+02  0.18496848134E+03  0.27112388443E+03  0.17323847106E+03 0.  0.
        -24    2    3    3    0    0 -0.21047465681E+02  0.72092856382E-01  0.26320712017E+02  0.86242160055E+02  0.79384691729E+02 0.  0.
          6    2    1    2  501    0  0.17813551274E+02  0.94688600960E+02  0.96347356667E+03  0.98386073863E+03  0.17440580723E+03 0.  0.
         24    2    5    5    0    0  0.65787603722E+02  0.37871386281E+02  0.73986624805E+03  0.74816596030E+03  0.81166424419E+02 0.  0.
          5    1    5    5  501    0 -0.47974052447E+02  0.56817214679E+02  0.22360731862E+03  0.23569477833E+03  0.47000000000E+01 0. -1.
        -13    1    6    6    0    0  0.47327021801E+02  0.59385542979E+02  0.63539888555E+03  0.63992048996E+03  0.00000000000E+00 0.  1.
         14    1    6    6    0    0  0.18460581921E+02 -0.21514156698E+02  0.10446736249E+03  0.10824547034E+03  0.00000000000E+00 0. -1.
         -5    1    3    3    0  503  0.32339144064E+01 -0.94760693816E+02  0.15864776932E+03  0.18488172437E+03  0.47000000000E+01 0.  1.
         13    1    4    4    0    0  0.11866658711E+02  0.31385710829E+02  0.23021840227E+02  0.40692573777E+02  0.00000000000E+00 0. -1.
        -14    1    4    4    0    0 -0.32914124391E+02 -0.31313617972E+02  0.32988717904E+01  0.45549586278E+02  0.00000000000E+00 0.  1.
<mgrwt>
<rscale>  2 0.19899446E+03</rscale>
<asrwt>0</asrwt>
<pdfrwt beam="1">  1       21 0.18487895E+00 0.19925019E+03</pdfrwt>
<pdfrwt beam="2">  1       21 0.81955836E-02 0.19925019E+03</pdfrwt>
<totfact> 0.19313099E+04</totfact>
</mgrwt>
</event>
<event>
12    1  0.1071811E-001  0.2059683E+03  0.7546771E-02  0.1144867E+00
         21   -1    0    0  503  502  0.00000000000E+00  0.00000000000E+00  0.32114841755E+03  0.32114841755E+03  0.00000000000E+00 0. -1.
         21   -1    0    0  501  503 -0.00000000000E+00 -0.00000000000E+00 -0.24591834229E+03  0.24591834229E+03  0.00000000000E+00 0.  1.
          6    2    1    2  501    0 -0.11018583672E+03  0.17116189641E+02 -0.15547761102E+03  0.25779506637E+03  0.17277478448E+03 0.  0.
         24    2    3    3    0    0 -0.36370330526E+02  0.48514691611E+02 -0.24025002574E+02  0.10372860945E+03  0.80659453410E+02 0.  0.
         -6    2    1    2    0  502  0.11018583672E+03 -0.17116189641E+02  0.23070768628E+03  0.30927169347E+03  0.17317350060E+03 0.  0.
        -24    2    5    5    0    0 -0.33133700916E+01 -0.32159832142E+02  0.13427542729E+03  0.15950637138E+03  0.79794479210E+02 0.  0.
          5    1    3    3  501    0 -0.73815506194E+02 -0.31398501970E+02 -0.13145260845E+03  0.15406645692E+03  0.47000000000E+01 0. -1.
        -11    1    4    4    0    0 -0.49570250315E+01 -0.19365925299E+02 -0.20819857599E+02  0.28863084213E+02  0.00000000000E+00 0.  1.
         12    1    4    4    0    0 -0.31413305494E+02  0.67880616911E+02 -0.32051449752E+01  0.74865525234E+02  0.00000000000E+00 0. -1.
         -5    1    5    5    0  502  0.11349920681E+03  0.15043642501E+02  0.96432258986E+02  0.14976532209E+03  0.47000000000E+01 0.  1.
         13    1    6    6    0    0  0.18120918450E+02 -0.30857368420E+02  0.13328990890E+03  0.13800994415E+03  0.00000000000E+00 0. -1.
        -14    1    6    6    0    0 -0.21434288541E+02 -0.13024637223E+01  0.98551839218E+00  0.21496427227E+02  0.00000000000E+00 0.  1.
<mgrwt>
<rscale>  2 0.20588448E+03</rscale>
<asrwt>0</asrwt>
<pdfrwt beam="1">  1       21 0.49407449E-01 0.20596831E+03</pdfrwt>
<pdfrwt beam="2">  1       21 0.37833591E-01 0.20596831E+03</pdfrwt>
<totfact> 0.26121288E+04</totfact>
</mgrwt>
</event>
<event>
12    1  0.1071811E-001  0.2045581E+03  0.7546771E-02  0.1146279E+00
         21   -1    0    0  503  502  0.00000000000E+00  0.00000000000E+00  0.23467930395E+03  0.23467930395E+03  0.00000000000E+00 0. -1.
         21   -1    0    0  501  503 -0.00000000000E+00 -0.00000000000E+00 -0.30111263419E+03  0.30111263419E+03  0.00000000000E+00 0. -1.
          6    2    1    2  501    0  0.85532254059E+02  0.70520378317E+02  0.13876219206E+03  0.24718201516E+03  0.17191600400E+03 0.  0.
         24    2    3    3    0    0  0.12604000592E+03  0.60512232625E+02  0.11860138295E+03  0.20060316626E+03  0.81409636338E+02 0.  0.
         -6    2    1    2    0  502 -0.85532254059E+02 -0.70520378317E+02 -0.20519552229E+03  0.28860992298E+03  0.17000469119E+03 0.  0.
        -24    2    5    5    0    0 -0.70492571310E+02 -0.10734745528E+03 -0.11548818235E+03  0.19036572471E+03  0.80055668851E+02 0.  0.
          5    1    3    3  501    0 -0.40507751857E+02  0.10008145692E+02  0.20160809110E+02  0.46578848898E+02  0.47000000000E+01 0. -1.
        -13    1    4    4    0    0  0.55022411643E+00  0.22734576922E+02 -0.15685520344E+01  0.22795264637E+02  0.00000000000E+00 0.  1.
         14    1    4    4    0    0  0.12548978180E+03  0.37777655703E+02  0.12016993499E+03  0.17780790163E+03  0.00000000000E+00 0. -1.
         -5    1    5    5    0  502 -0.15039682748E+02  0.36827076959E+02 -0.89707339940E+02  0.98244198270E+02  0.47000000000E+01 0.  1.
         13    1    6    6    0    0 -0.98245721995E+01 -0.37650811299E+02 -0.84290747594E+02  0.92838763135E+02  0.00000000000E+00 0. -1.
        -14    1    6    6    0    0 -0.60667999111E+02 -0.69696643977E+02 -0.31197434760E+02  0.97526961571E+02  0.00000000000E+00 0.  1.
<mgrwt>
<rscale>  2 0.20415596E+03</rscale>
<asrwt>0</asrwt>
<pdfrwt beam="1">  1       21 0.36104508E-01 0.20455807E+03</pdfrwt>
<pdfrwt beam="2">  1       21 0.46325021E-01 0.20455807E+03</pdfrwt>
<totfact> 0.32812623E+04</totfact>
</mgrwt>
</event>
<event>
12    1  0.1071811E-001  0.2237090E+03  0.7546771E-02  0.1131339E+00
         21   -1    0    0  501  502  0.00000000000E+00  0.00000000000E+00  0.19971941492E+03  0.19971941492E+03  0.00000000000E+00 0.  1.
         21   -1    0    0  502  503 -0.00000000000E+00 -0.00000000000E+00 -0.28675818011E+03  0.28675818011E+03  0.00000000000E+00 0. -1.
         -6    2    1    2    0  503  0.13445744187E+03  0.45956905542E+02 -0.13121486386E+03  0.25844854138E+03  0.17142773172E+03 0.  0.
        -24    2    3    3    0    0  0.12759715949E+03  0.91218062918E+02 -0.84968238226E+02  0.19320686587E+03  0.74212676797E+02 0.  0.
          6    2    1    2  501    0 -0.13445744187E+03 -0.45956905542E+02  0.44176098676E+02  0.22802905365E+03  0.17278564980E+03 0.  0.
         24    2    5    5    0    0 -0.36742028656E+02 -0.80433139434E+02  0.17076246552E+02  0.12082175601E+03  0.80540871242E+02 0.  0.
          5    1    5    5  501    0 -0.97715413211E+02  0.34476233893E+02  0.27099852124E+02  0.10720729764E+03  0.47000000000E+01 0. -1.
        -13    1    6    6    0    0 -0.42643047361E+01 -0.34075635672E+02  0.45882564894E+02  0.57310932662E+02  0.00000000000E+00 0.  1.
         14    1    6    6    0    0 -0.32477723920E+02 -0.46357503762E+02 -0.28806318343E+02  0.63510823349E+02  0.00000000000E+00 0. -1.
         -5    1    3    3    0  503  0.68602823751E+01 -0.45261157377E+02 -0.46246625636E+02  0.65241675516E+02  0.47000000000E+01 0.  1.
         11    1    4    4    0    0  0.13708073749E+02 -0.21956908790E+01 -0.35017929700E+02  0.37669453736E+02  0.00000000000E+00 0. -1.
        -12    1    4    4    0    0  0.11388908574E+03  0.93413753797E+02 -0.49950308526E+02  0.15553741213E+03  0.00000000000E+00 0.  1.
<mgrwt>
<rscale>  2 0.22344676E+03</rscale>
<asrwt>0</asrwt>
<pdfrwt beam="1">  1       21 0.30726064E-01 0.22370901E+03</pdfrwt>
<pdfrwt beam="2">  1       21 0.44116643E-01 0.22370901E+03</pdfrwt>
<totfact> 0.49464223E+04</totfact>
</mgrwt>
</event>
<event>
12    1  0.1071811E-001  0.2066517E+03  0.7546771E-02  0.1144575E+00
         21   -1    0    0  501  502  0.00000000000E+00  0.00000000000E+00  0.10328666596E+03  0.10328666596E+03  0.00000000000E+00 0.  1.
         21   -1    0    0  502  503 -0.00000000000E+00 -0.00000000000E+00 -0.49453769744E+03  0.49453769744E+03  0.00000000000E+00 0.  1.
         -6    2    1    2    0  503  0.10519480078E+03 -0.26763415557E+02 -0.31841334856E+03  0.37871197012E+03  0.17393524441E+03 0.  0.
        -24    2    3    3    0    0 -0.45507349271E+01 -0.23303524081E+02 -0.20031319949E+03  0.21738686771E+03  0.81042636556E+02 0.  0.
          6    2    1    2  501    0 -0.10519480078E+03  0.26763415557E+02 -0.72837682924E+02  0.21911239328E+03  0.17584847543E+03 0.  0.
         24    2    5    5    0    0 -0.13094924357E+03 -0.75609688621E+01 -0.82868849999E+02  0.17479344697E+03  0.80502361223E+02 0.  0.
          5    1    5    5  501    0  0.25754442787E+02  0.34324384419E+02  0.10031167075E+02  0.44318946308E+02  0.47000000000E+01 0. -1.
        -11    1    6    6    0    0 -0.54550552497E+02 -0.40682301613E+02 -0.53268001386E+02  0.86419282651E+02  0.00000000000E+00 0.  1.
         12    1    6    6    0    0 -0.76398691070E+02  0.33121332751E+02 -0.29600848613E+02  0.88374164319E+02  0.00000000000E+00 0. -1.
         -5    1    3    3    0  503  0.10974553571E+03 -0.34598914760E+01 -0.11810014907E+03  0.16132510241E+03  0.47000000000E+01 0.  1.
         11    1    4    4    0    0 -0.26542819292E+02 -0.17403593368E+02 -0.24474415525E+02  0.40079961744E+02  0.00000000000E+00 0. -1.
        -12    1    4    4    0    0  0.21992084365E+02 -0.58999307126E+01 -0.17583878396E+03  0.17730690597E+03  0.00000000000E+00 0.  1.
<mgrwt>
<rscale>  2 0.20624407E+03</rscale>
<asrwt>0</asrwt>
<pdfrwt beam="1">  1       21 0.15890256E-01 0.20665167E+03</pdfrwt>
<pdfrwt beam="2">  1       21 0.76082724E-01 0.20665167E+03</pdfrwt>
<totfact> 0.54000761E+04</totfact>
</mgrwt>
</event>
<event>
12    1  0.1071811E-001  0.1853698E+03  0.7546771E-02  0.1163009E+00
         21   -1    0    0  503  502  0.00000000000E+00  0.00000000000E+00  0.20445843078E+03  0.20445843078E+03  0.00000000000E+00 0.  1.
         21   -1    0    0  501  503 -0.00000000000E+00 -0.00000000000E+00 -0.16758847643E+03  0.16758847643E+03  0.00000000000E+00 0.  1.
          6    2    1    2  501    0 -0.53581463479E+02 -0.35698307739E+02  0.64741969971E+01  0.18548283125E+03  0.17382929286E+03 0.  0.
         24    2    3    3    0    0 -0.54586876312E+02 -0.88502530307E+02 -0.54160316153E+01  0.13114348719E+03  0.79729893381E+02 0.  0.
         -6    2    1    2    0  502  0.53581463479E+02  0.35698307739E+02  0.30395757351E+02  0.18656407597E+03  0.17244393284E+03 0.  0.
        -24    2    5    5    0    0  0.95617973823E+02  0.53291741035E+02  0.93710458261E+01  0.13615846525E+03  0.80427013989E+02 0.  0.
          5    1    3    3  501    0  0.10054128325E+01  0.52804222568E+02  0.11890228612E+02  0.54339344056E+02  0.47000000000E+01 0. -1.
        -13    1    4    4    0    0 -0.23835438194E+02 -0.57919581058E+02  0.35096284828E+02  0.71795230988E+02  0.00000000000E+00 0.  1.
         14    1    4    4    0    0 -0.30751438118E+02 -0.30582949249E+02 -0.40512316443E+02  0.59348256206E+02  0.00000000000E+00 0. -1.
         -5    1    5    5    0  502 -0.42036510344E+02 -0.17593433295E+02  0.21024711524E+02  0.50405610717E+02  0.47000000000E+01 0.  1.
         11    1    6    6    0    0  0.86003624838E+02  0.53430319319E+01 -0.96567642691E+00  0.86174845555E+02  0.00000000000E+00 0. -1.
        -12    1    6    6    0    0  0.96143489859E+01  0.47948709103E+02  0.10336722253E+02  0.49983619697E+02  0.00000000000E+00 0.  1.
<mgrwt>
<rscale>  2 0.18504433E+03</rscale>
<asrwt>0</asrwt>
<pdfrwt beam="1">  1       21 0.31455143E-01 0.18536981E+03</pdfrwt>
<pdfrwt beam="2">  1       21 0.25782843E-01 0.18536981E+03</pdfrwt>
<totfact> 0.13904601E+05</totfact>
</mgrwt>
</event>
<event>
12    1  0.1071811E-001  0.2653098E+03  0.7546771E-02  0.1104220E+00
         21   -1    0    0  501  502  0.00000000000E+00  0.00000000000E+00  0.21169753567E+04  0.21169753567E+04  0.00000000000E+00 0. -1.
         21   -1    0    0  502  503 -0.00000000000E+00 -0.00000000000E+00 -0.84065101633E+02  0.84065101633E+02  0.00000000000E+00 0.  1.
         -6    2    1    2    0  503 -0.11735662769E+03 -0.16086433948E+03  0.15804935418E+03  0.30750072817E+03  0.17299475626E+03 0.  0.
        -24    2    3    3    0    0 -0.10937836476E+02 -0.76134714628E+02  0.12304687698E+03  0.16696129648E+03  0.82579716323E+02 0.  0.
          6    2    1    2  501    0  0.11735662769E+03  0.16086433948E+03  0.18748609009E+04  0.18935397302E+04  0.17532654741E+03 0.  0.
         24    2    5    5    0    0  0.55607525007E+01  0.89275288643E+02  0.72256562412E+03  0.73361309249E+03  0.89922684466E+02 0.  0.
          5    1    5    5  501    0  0.11179587519E+03  0.71589050839E+02  0.11522952768E+04  0.11599266377E+04  0.47000000000E+01 0. -1.
        -11    1    6    6    0    0 -0.20089987897E+02 -0.77087347863E+01  0.22555784690E+03  0.22658193772E+03  0.00000000000E+00 0.  1.
         12    1    6    6    0    0  0.25650740397E+02  0.96984023429E+02  0.49700777722E+03  0.50703115476E+03  0.00000000000E+00 0. -1.
         -5    1    3    3    0  503 -0.10641879121E+03 -0.84729624853E+02  0.35002477192E+02  0.14053943169E+03  0.47000000000E+01 0.  1.
         13    1    4    4    0    0 -0.35491160683E+02 -0.31206266345E+01  0.34463845672E+02  0.49569319702E+02  0.00000000000E+00 0. -1.
        -14    1    4    4    0    0  0.24553324207E+02 -0.73014087994E+02  0.88583031312E+02  0.11739197678E+03  0.00000000000E+00 0.  1.
<mgrwt>
<rscale>  2 0.26492522E+03</rscale>
<asrwt>0</asrwt>
<pdfrwt beam="1">  1       21 0.32568848E+00 0.26530984E+03</pdfrwt>
<pdfrwt beam="2">  1       21 0.12933094E-01 0.26530984E+03</pdfrwt>
<totfact> 0.11422600E+03</totfact>
</mgrwt>
</event>
<event>
12    1  0.1071811E-001  0.1832188E+03  0.7546771E-02  0.1165297E+00
         21   -1    0    0  503  502  0.00000000000E+00  0.00000000000E+00  0.73986697971E+03  0.73986697971E+03  0.00000000000E+00 0. -1.
         21   -1    0    0  501  503 -0.00000000000E+00 -0.00000000000E+00 -0.55183862865E+02  0.55183862865E+02  0.00000000000E+00 0. -1.
          6    2    1    2  501    0  0.29444034228E+02  0.46454739295E+02  0.17155362045E+03  0.25099756449E+03  0.17476881511E+03 0.  0.
         24    2    3    3    0    0 -0.55993959721E+01  0.46632909689E+02  0.19005226321E+03  0.21109313454E+03  0.78958642321E+02 0.  0.
         -6    2    1    2    0  502 -0.29444034228E+02 -0.46454739295E+02  0.51312949640E+03  0.54405327809E+03  0.17224138693E+03 0.  0.
        -24    2    5    5    0    0  0.51075652100E+01 -0.75148995188E+02  0.46529849137E+03  0.47827282213E+03  0.81047810646E+02 0.  0.
          5    1    3    3  501    0  0.35043430200E+02 -0.17817039427E+00 -0.18498642767E+02  0.39904429943E+02  0.47000000000E+01 0. -1.
        -11    1    4    4    0    0  0.31748470864E+02  0.44214839272E+02  0.11436993334E+03  0.12666254011E+03  0.00000000000E+00 0.  1.
         12    1    4    4    0    0 -0.37347866836E+02  0.24180704170E+01  0.75682329875E+02  0.84430594438E+02  0.00000000000E+00 0. -1.
         -5    1    5    5    0  502 -0.34551599438E+02  0.28694255893E+02  0.47831005023E+02  0.65780455961E+02  0.47000000000E+01 0.  1.
         13    1    6    6    0    0  0.38992209567E+02 -0.37689104795E+02  0.31707425867E+03  0.32167832774E+03  0.00000000000E+00 0. -1.
        -14    1    6    6    0    0 -0.33884644357E+02 -0.37459890393E+02  0.14822423271E+03  0.15659449439E+03  0.00000000000E+00 0.  1.
<mgrwt>
<rscale>  2 0.18261350E+03</rscale>
<asrwt>0</asrwt>
<pdfrwt beam="1">  1       21 0.11382568E+00 0.18321881E+03</pdfrwt>
<pdfrwt beam="2">  1       21 0.84898256E-02 0.18321881E+03</pdfrwt>
<totfact> 0.65325657E+04</totfact>
</mgrwt>
</event>
<event>
12    1  0.1071811E-001  0.1838176E+03  0.7546771E-02  0.1166321E+00
         21   -1    0    0  501  502  0.00000000000E+00  0.00000000000E+00  0.94534969307E+02  0.94534969307E+02  0.00000000000E+00 0. -1.
         21   -1    0    0  502  503 -0.00000000000E+00 -0.00000000000E+00 -0.39798953519E+03  0.39798953519E+03  0.00000000000E+00 0. -1.
         -6    2    1    2    0  503  0.16186354201E+02  0.59763643620E+02 -0.24226917048E+03  0.29879129787E+03  0.16354876200E+03 0.  0.
        -24    2    3    3    0    0 -0.41065031887E+02  0.32855706285E+02 -0.80326687206E+02  0.12486827986E+03  0.79836560294E+02 0.  0.
          6    2    1    2  501    0 -0.16186354201E+02 -0.59763643620E+02 -0.61185395403E+02  0.19373320663E+03  0.17307573944E+03 0.  0.
         24    2    5    5    0    0  0.42563455377E+02 -0.76847415938E-01 -0.62081714031E+02  0.10984669310E+03  0.80003144488E+02 0.  0.
          5    1    5    5  501    0 -0.58749809578E+02 -0.59686796204E+02  0.89631862768E+00  0.83886513538E+02  0.47000000000E+01 0. -1.
        -11    1    6    6    0    0 -0.18989770199E+02  0.15505487361E+02 -0.29888029784E+02  0.38656510899E+02  0.00000000000E+00 0.  1.
         12    1    6    6    0    0  0.61553225575E+02 -0.15582334777E+02 -0.32193684247E+02  0.71190182197E+02  0.00000000000E+00 0. -1.
         -5    1    3    3    0  503  0.57251386088E+02  0.26907937335E+02 -0.16194248328E+03  0.17392301800E+03  0.47000000000E+01 0.  1.
         11    1    4    4    0    0 -0.28024287037E+02  0.53595649179E+02 -0.27100266476E+02  0.66274268898E+02  0.00000000000E+00 0. -1.
        -12    1    4    4    0    0 -0.13040744850E+02 -0.20739942894E+02 -0.53226420730E+02  0.58594010967E+02  0.00000000000E+00 0.  1.
<mgrwt>
<rscale>  2 0.18154041E+03</rscale>
<asrwt>0</asrwt>
<pdfrwt beam="1">  1       21 0.14543841E-01 0.18381758E+03</pdfrwt>
<pdfrwt beam="2">  1       21 0.61229159E-01 0.18381758E+03</pdfrwt>
<totfact> 0.10327570E+05</totfact>
</mgrwt>
</event>
<event>
12    1  0.1071811E-001  0.1981771E+03  0.7546771E-02  0.1151510E+00
         21   -1    0    0  503  502  0.00000000000E+00  0.00000000000E+00  0.10271373719E+03  0.10271373719E+03  0.00000000000E+00 0.  1.
         21   -1    0    0  501  503 -0.00000000000E+00 -0.00000000000E+00 -0.38196454658E+03  0.38196454658E+03  0.00000000000E+00 0. -1.
          6    2    1    2  501    0 -0.93659217477E+02 -0.23758957887E+02 -0.15499434800E+03  0.25076841956E+03  0.17182844711E+03 0.  0.
         24    2    3    3    0    0 -0.92483818098E+02 -0.33170589240E+02 -0.35864728747E+02  0.13116943732E+03  0.79155529931E+02 0.  0.
         -6    2    1    2    0  502  0.93659217477E+02  0.23758957887E+02 -0.12425646139E+03  0.23390986422E+03  0.17302490944E+03 0.  0.
        -24    2    5    5    0    0  0.11069599001E+03 -0.30838223710E+02 -0.96012111753E+02  0.16994943002E+03  0.80373409259E+02 0.  0.
          5    1    3    3  501    0 -0.11753993784E+01  0.94116313536E+01 -0.11912961925E+03  0.11959898223E+03  0.47000000000E+01 0. -1.
        -11    1    4    4    0    0 -0.18147801524E+02 -0.38840714437E+02 -0.36968508469E+02  0.56609313867E+02  0.00000000000E+00 0.  1.
         12    1    4    4    0    0 -0.74336016574E+02  0.56701251967E+01  0.11037797212E+01  0.74560123455E+02  0.00000000000E+00 0. -1.
         -5    1    5    5    0  502 -0.17036772533E+02  0.54597181597E+02 -0.28244349637E+02  0.63960434200E+02  0.47000000000E+01 0.  1.
         11    1    6    6    0    0  0.19672941951E+02 -0.33431081017E+02 -0.61209027609E+02  0.72465211542E+02  0.00000000000E+00 0. -1.
        -12    1    6    6    0    0  0.91023048058E+02  0.25928573068E+01 -0.34803084144E+02  0.97484218480E+02  0.00000000000E+00 0.  1.
<mgrwt>
<rscale>  2 0.19791563E+03</rscale>
<asrwt>0</asrwt>
<pdfrwt beam="1">  1       21 0.15802114E-01 0.19817708E+03</pdfrwt>
<pdfrwt beam="2">  1       21 0.58763775E-01 0.19817708E+03</pdfrwt>
<totfact> 0.96430662E+04</totfact>
</mgrwt>
</event>
<event>
12    1  0.1071811E-001  0.2793831E+03  0.7546771E-02  0.1096059E+00
         21   -1    0    0  503  502  0.00000000000E+00  0.00000000000E+00  0.73112373360E+02  0.73112373360E+02  0.00000000000E+00 0.  1.
         21   -1    0    0  501  503 -0.00000000000E+00 -0.00000000000E+00 -0.11072651795E+04  0.11072651795E+04  0.00000000000E+00 0.  1.
          6    2    1    2  501    0  0.28455119400E+01  0.21931479449E+03 -0.40432144329E+03  0.49145778922E+03  0.17305448004E+03 0.  0.
         24    2    3    3    0    0  0.17572171360E+02  0.24029438141E+03 -0.36172703882E+03  0.44152392439E+03  0.77760878650E+02 0.  0.
         -6    2    1    2    0  502 -0.28455119400E+01 -0.21931479449E+03 -0.62983136284E+03  0.68891976363E+03  0.17267257769E+03 0.  0.
        -24    2    5    5    0    0 -0.16160801506E+02 -0.25940294965E+02 -0.19891111335E+03  0.21638897583E+03  0.79526646084E+02 0.  0.
          5    1    3    3  501    0 -0.14726659420E+02 -0.20979586921E+02 -0.42594404474E+02  0.49933864836E+02  0.47000000000E+01 0. -1.
        -13    1    4    4    0    0  0.17418244859E+02  0.19848374176E+03 -0.34079430339E+03  0.39476568774E+03  0.00000000000E+00 0.  1.
         14    1    4    4    0    0  0.15392650146E+00  0.41810639653E+02 -0.20932735433E+02  0.46758236646E+02  0.00000000000E+00 0. -1.
         -5    1    5    5    0  502  0.13315289566E+02 -0.19337449952E+03 -0.43092024949E+03  0.47253078781E+03  0.47000000000E+01 0.  1.
         13    1    6    6    0    0 -0.49460806771E+01 -0.39072990440E+02 -0.19465940016E+03  0.19860373704E+03  0.00000000000E+00 0. -1.
        -14    1    6    6    0    0 -0.11214720829E+02  0.13132695475E+02 -0.42517131921E+01  0.17785238789E+02  0.00000000000E+00 0.  1.
<mgrwt>
<rscale>  2 0.27932400E+03</rscale>
<asrwt>0</asrwt>
<pdfrwt beam="1">  1       21 0.11248059E-01 0.27938312E+03</pdfrwt>
<pdfrwt beam="2">  1       21 0.17034847E+00 0.27938312E+03</pdfrwt>
<totfact> 0.13218926E+04</totfact>
</mgrwt>
</event>
<event>
12    1  0.1071811E-001  0.4599575E+03  0.7546771E-02  0.1024810E+00
         21   -1    0    0  501  502  0.00000000000E+00  0.00000000000E+00  0.11008612337E+04  0.11008612337E+04  0.00000000000E+00 0.  1.
         21   -1    0    0  502  503 -0.00000000000E+00 -0.00000000000E+00 -0.19553372242E+03  0.19553372242E+03  0.00000000000E+00 0.  1.
         -6    2    1    2    0  503  0.24127926595E+03  0.35138223369E+03  0.36664308335E+03  0.58820747447E+03  0.17284595488E+03 0.  0.
        -24    2    3    3    0    0  0.59316476909E+02  0.16735640171E+03  0.20435550665E+03  0.28269919146E+03  0.81431260153E+02 0.  0.
          6    2    1    2  501    0 -0.24127926595E+03 -0.35138223369E+03  0.53868442792E+03  0.70818748164E+03  0.17223076944E+03 0.  0.
         24    2    5    5    0    0 -0.94672332924E+02 -0.18967413437E+03  0.36355727843E+03  0.42830409399E+03  0.79569933753E+02 0.  0.
          5    1    5    5  501    0 -0.14660693303E+03 -0.16170809931E+03  0.17512714949E+03  0.27988338765E+03  0.47000000000E+01 0. -1.
        -13    1    6    6    0    0 -0.96354908340E+02 -0.13056204176E+03  0.22278731072E+03  0.27561730883E+03  0.00000000000E+00 0.  1.
         14    1    6    6    0    0  0.16825754159E+01 -0.59112092617E+02  0.14076996771E+03  0.15268678516E+03  0.00000000000E+00 0. -1.
         -5    1    3    3    0  503  0.18196278904E+03  0.18402583198E+03  0.16228757671E+03  0.30550828300E+03  0.47000000000E+01 0.  1.
         13    1    4    4    0    0  0.61019939637E+02  0.52587731484E+02  0.83296819491E+02  0.11587606601E+03  0.00000000000E+00 0. -1.
        -14    1    4    4    0    0 -0.17034627277E+01  0.11476867023E+03  0.12105868716E+03  0.16682312545E+03  0.00000000000E+00 0.  1.
<mgrwt>
<rscale>  2 0.45989976E+03</rscale>
<asrwt>0</asrwt>
<pdfrwt beam="1">  1       21 0.16936326E+00 0.45995748E+03</pdfrwt>
<pdfrwt beam="2">  1       21 0.30082112E-01 0.45995748E+03</pdfrwt>
<totfact> 0.19392090E+03</totfact>
</mgrwt>
</event>
<event>
12    1  0.1071811E-001  0.2144407E+03  0.7546771E-02  0.1138360E+00
         21   -1    0    0  503  502  0.00000000000E+00  0.00000000000E+00  0.24491264341E+03  0.24491264341E+03  0.00000000000E+00 0.  1.
         21   -1    0    0  501  503 -0.00000000000E+00 -0.00000000000E+00 -0.20358680882E+03  0.20358680882E+03  0.00000000000E+00 0. -1.
          6    2    1    2  501    0  0.10301177248E+03  0.71833296065E+02  0.85431422309E+02  0.22956999750E+03  0.17214066382E+03 0.  0.
         24    2    3    3    0    0  0.16429762261E+02 -0.19942959296E+02  0.59046504884E+02  0.10058325628E+03  0.77219446983E+02 0.  0.
         -6    2    1    2    0  502 -0.10301177248E+03 -0.71833296065E+02 -0.44105587724E+02  0.21892945473E+03  0.17381989411E+03 0.  0.
        -24    2    5    5    0    0 -0.35521498912E+02  0.12537695720E+02 -0.63608198967E+02  0.10903931357E+03  0.80153591489E+02 0.  0.
          5    1    3    3  501    0  0.86582010215E+02  0.91776255362E+02  0.26384917425E+02  0.12898674121E+03  0.47000000000E+01 0. -1.
        -11    1    4    4    0    0  0.37226739689E+02 -0.37806239007E+02  0.31424432871E+02  0.61665523893E+02  0.00000000000E+00 0.  1.
         12    1    4    4    0    0 -0.20796977428E+02  0.17863279711E+02  0.27622072014E+02  0.38917732392E+02  0.00000000000E+00 0. -1.
         -5    1    5    5    0  502 -0.67490273564E+02 -0.84370991785E+02  0.19502611243E+02  0.10989014117E+03  0.47000000000E+01 0.  1.
         13    1    6    6    0    0 -0.61108779675E+02  0.13998164811E+02 -0.41408192209E+02  0.75132349580E+02  0.00000000000E+00 0. -1.
        -14    1    6    6    0    0  0.25587280763E+02 -0.14604690913E+01 -0.22200006759E+02  0.33906963988E+02  0.00000000000E+00 0.  1.
<mgrwt>
<rscale>  2 0.21410015E+03</rscale>
<asrwt>0</asrwt>
<pdfrwt beam="1">  1       21 0.37678868E-01 0.21444068E+03</pdfrwt>
<pdfrwt beam="2">  1       21 0.31321047E-01 0.21444068E+03</pdfrwt>
<totfact> 0.65901344E+04</totfact>
</mgrwt>
</event>
<event>
12    1  0.1071811E-001  0.1893381E+03  0.7546771E-02  0.1159219E+00
         21   -1    0    0  501  502  0.00000000000E+00  0.00000000000E+00  0.26184757188E+04  0.26184757188E+04  0.00000000000E+00 0. -1.
         21   -1    0    0  502  503 -0.00000000000E+00 -0.00000000000E+00 -0.14873673156E+02  0.14873673156E+02  0.00000000000E+00 0. -1.
         -6    2    1    2    0  503  0.47672061045E+02  0.60115198263E+02  0.92041485586E+03  0.93954655945E+03  0.17233040360E+03 0.  0.
        -24    2    3    3    0    0  0.48331523194E+02  0.10109766309E+03  0.55430399621E+03  0.57111848116E+03  0.79791764545E+02 0.  0.
          6    2    1    2  501    0 -0.47672061045E+02 -0.60115198263E+02  0.16831871898E+04  0.16938028325E+04  0.17309666985E+03 0.  0.
         24    2    5    5    0    0 -0.36969668106E+02  0.15452761942E+02  0.48591329840E+03  0.49408956726E+03  0.80045129190E+02 0.  0.
          5    1    5    5  501    0 -0.10702392939E+02 -0.75567960206E+02  0.11972738914E+04  0.11997132653E+04  0.47000000000E+01 0. -1.
        -13    1    6    6    0    0  0.46810215889E+01  0.22233307406E+02  0.37062688517E+03  0.37132266283E+03  0.00000000000E+00 0.  1.
         14    1    6    6    0    0 -0.41650689695E+02 -0.67805454644E+01  0.11528641323E+03  0.12276690443E+03  0.00000000000E+00 0. -1.
         -5    1    3    3    0  503 -0.65946214914E+00 -0.40982464828E+02  0.36611085965E+03  0.36842807829E+03  0.47000000000E+01 0.  1.
         13    1    4    4    0    0  0.44417181411E+02  0.10864160106E+03  0.40743363642E+03  0.42400241930E+03  0.00000000000E+00 0. -1.
        -14    1    4    4    0    0  0.39143417833E+01 -0.75439379723E+01  0.14687035979E+03  0.14711606186E+03  0.00000000000E+00 0.  1.
<mgrwt>
<rscale>  2 0.18916280E+03</rscale>
<asrwt>0</asrwt>
<pdfrwt beam="1">  1       21 0.40284205E+00 0.18933811E+03</pdfrwt>
<pdfrwt beam="2">  1       21 0.22882595E-02 0.18933811E+03</pdfrwt>
<totfact> 0.83002426E+03</totfact>
</mgrwt>
</event>
<event>
12    1  0.1071811E-001  0.2065226E+03  0.7546771E-02  0.1145558E+00
         21   -1    0    0  501  502  0.00000000000E+00  0.00000000000E+00  0.27336806999E+03  0.27336806999E+03  0.00000000000E+00 0. -1.
         21   -1    0    0  502  503 -0.00000000000E+00 -0.00000000000E+00 -0.16922117512E+03  0.16922117512E+03  0.00000000000E+00 0. -1.
         -6    2    1    2    0  503 -0.83425127107E+02  0.72527156346E+02 -0.18633994231E+02  0.20736153100E+03  0.17444666393E+03 0.  0.
        -24    2    3    3    0    0 -0.25113414074E+01  0.91178800863E+02 -0.27589888160E+02  0.12371212816E+03  0.78889848279E+02 0.  0.
          6    2    1    2  501    0  0.83425127107E+02 -0.72527156346E+02  0.12278088910E+03  0.23522771412E+03  0.16744249915E+03 0.  0.
         24    2    5    5    0    0 -0.20720531125E+02 -0.28269603766E+02  0.34715664599E+02  0.91761262100E+02  0.77372094107E+02 0.  0.
          5    1    5    5  501    0  0.10414565823E+03 -0.44257552581E+02  0.88065224504E+02  0.14346645202E+03  0.47000000000E+01 0. -1.
        -11    1    6    6    0    0  0.12918815329E+02 -0.41036088322E+02  0.18997723928E+01  0.43063505076E+02  0.00000000000E+00 0.  1.
         12    1    6    6    0    0 -0.33639346454E+02  0.12766484557E+02  0.32815892206E+02  0.48697757023E+02  0.00000000000E+00 0. -1.
         -5    1    3    3    0  503 -0.80913785700E+02 -0.18651644516E+02  0.89558939290E+01  0.83649402840E+02  0.47000000000E+01 0.  1.
         13    1    4    4    0    0 -0.31847192993E+02  0.80891788458E+02 -0.87805176913E+01  0.87377472110E+02  0.00000000000E+00 0. -1.
        -14    1    4    4    0    0  0.29335851585E+02  0.10287012405E+02 -0.18809370469E+02  0.36334656045E+02  0.00000000000E+00 0.  1.
<mgrwt>
<rscale>  2 0.20503630E+03</rscale>
<asrwt>0</asrwt>
<pdfrwt beam="1">  1       21 0.42056626E-01 0.20652259E+03</pdfrwt>
<pdfrwt beam="2">  1       21 0.26034027E-01 0.20652259E+03</pdfrwt>
<totfact> 0.75809847E+04</totfact>
</mgrwt>
</event>
<event>
12    1  0.1071811E-001  0.1848308E+03  0.7546771E-02  0.1163230E+00
         21   -1    0    0  501  502  0.00000000000E+00  0.00000000000E+00  0.14268067164E+03  0.14268067164E+03  0.00000000000E+00 0. -1.
         21   -1    0    0  502  503 -0.00000000000E+00 -0.00000000000E+00 -0.26229088326E+03  0.26229088326E+03  0.00000000000E+00 0. -1.
         -6    2    1    2    0  503  0.56694049550E+02  0.30490234512E+02  0.14075797985E+00  0.18473825074E+03  0.17315984471E+03 0.  0.
        -24    2    3    3    0    0 -0.36229016242E+02  0.71247759534E+01  0.87051297864E+01  0.88425846170E+02  0.79875196000E+02 0.  0.
          6    2    1    2  501    0 -0.56694049550E+02 -0.30490234512E+02 -0.11975096960E+03  0.22023330415E+03  0.17325860406E+03 0.  0.
         24    2    5    5    0    0 -0.87945022641E+02  0.92461371868E+01 -0.37673521276E+02  0.12372216449E+03  0.77897764542E+02 0.  0.
          5    1    5    5  501    0  0.31250973091E+02 -0.39736371699E+02 -0.82077448324E+02  0.96511139659E+02  0.47000000000E+01 0. -1.
        -11    1    6    6    0    0 -0.28842262076E+02 -0.28960851631E+02 -0.34141884461E+02  0.53256692381E+02  0.00000000000E+00 0.  1.
         12    1    6    6    0    0 -0.59102760565E+02  0.38206988818E+02 -0.35316368147E+01  0.70465472109E+02  0.00000000000E+00 0. -1.
         -5    1    3    3    0  503  0.92923065793E+02  0.23365458558E+02 -0.85643718066E+01  0.96312404572E+02  0.47000000000E+01 0.  1.
         13    1    4    4    0    0 -0.20056509505E+01 -0.14361512205E+02 -0.29464627737E+02  0.32839609563E+02  0.00000000000E+00 0. -1.
        -14    1    4    4    0    0 -0.34223365292E+02  0.21486288158E+02  0.38169757524E+02  0.55586236607E+02  0.00000000000E+00 0.  1.
<mgrwt>
<rscale>  2 0.18480762E+03</rscale>
<asrwt>0</asrwt>
<pdfrwt beam="1">  1       21 0.21950873E-01 0.18483077E+03</pdfrwt>
<pdfrwt beam="2">  1       21 0.40352443E-01 0.18483077E+03</pdfrwt>
<totfact> 0.11503091E+05</totfact>
</mgrwt>
</event>
<event>
12    1  0.1071811E-001  0.1775217E+03  0.7546771E-02  0.1170495E+00
         21   -1    0    0  503  502  0.00000000000E+00  0.00000000000E+00  0.20098046167E+03  0.20098046167E+03  0.00000000000E+00 0.  1.
         21   -1    0    0  501  503 -0.00000000000E+00 -0.00000000000E+00 -0.21599794544E+03  0.21599794544E+03  0.00000000000E+00 0.  1.
          6    2    1    2  501    0 -0.39558016302E+02  0.13824914708E+02 -0.11756177164E+03  0.21291954384E+03  0.17250506393E+03 0.  0.
         24    2    3    3    0    0 -0.81073037576E+02  0.29942039660E+02 -0.11967826081E+03  0.16808843595E+03  0.80383288246E+02 0.  0.
         -6    2    1    2    0  502  0.39558016302E+02 -0.13824914708E+02  0.10254428786E+03  0.20405886327E+03  0.17137305443E+03 0.  0.
        -24    2    5    5    0    0 -0.33742483759E+02 -0.17570230686E+02  0.14971838878E+02  0.89699716187E+02  0.79841185538E+02 0.  0.
          5    1    3    3  501    0  0.41515021274E+02 -0.16117124952E+02  0.21164891789E+01  0.44831107889E+02  0.47000000000E+01 0. -1.
        -13    1    4    4    0    0 -0.64825268288E+02  0.57090274448E+02 -0.88533795864E+02  0.12369255376E+03  0.00000000000E+00 0.  1.
         14    1    4    4    0    0 -0.16247769288E+02 -0.27148234788E+02 -0.31144464950E+02  0.44395882196E+02  0.00000000000E+00 0. -1.
         -5    1    5    5    0  502  0.73300500061E+02  0.37453159782E+01  0.87572448981E+02  0.11435914708E+03  0.47000000000E+01 0.  1.
         11    1    6    6    0    0  0.21722665504E+02  0.92392573337E+01 -0.64594510464E+01  0.24473712029E+02  0.00000000000E+00 0. -1.
        -12    1    6    6    0    0 -0.55465149262E+02 -0.26809488020E+02  0.21431289925E+02  0.65226004158E+02  0.00000000000E+00 0.  1.
<mgrwt>
<rscale>  2 0.17724613E+03</rscale>
<asrwt>0</asrwt>
<pdfrwt beam="1">  1       21 0.30920071E-01 0.17752172E+03</pdfrwt>
<pdfrwt beam="2">  1       21 0.33230453E-01 0.17752172E+03</pdfrwt>
<totfact> 0.88125695E+04</totfact>
</mgrwt>
</event>
<event>
12    1  0.1071811E-001  0.2054620E+03  0.7546771E-02  0.1145416E+00
         21   -1    0    0  503  502  0.00000000000E+00  0.00000000000E+00  0.40504265809E+02  0.40504265809E+02  0.00000000000E+00 0. -1.
         21   -1    0    0  501  503 -0.00000000000E+00 -0.00000000000E+00 -0.10416467793E+04  0.10416467793E+04  0.00000000000E+00 0. -1.
          6    2    1    2  501    0 -0.10410144232E+03  0.40249312018E+02 -0.53744272481E+03  0.57537754712E+03  0.17250368655E+03 0.  0.
         24    2    3    3    0    0 -0.18237886070E+02  0.55504547878E+02 -0.15380420928E+03  0.18192377206E+03  0.77634713407E+02 0.  0.
         -6    2    1    2    0  502  0.10410144232E+03 -0.40249312018E+02 -0.46369978865E+03  0.50677349795E+03  0.17130314305E+03 0.  0.
        -24    2    5    5    0    0  0.12122676232E+03 -0.60632744845E+02 -0.44860485139E+03  0.47581048696E+03  0.82322834970E+02 0.  0.
          5    1    3    3  501    0 -0.85863556250E+02 -0.15255235860E+02 -0.38363851553E+03  0.39345377506E+03  0.47000000000E+01 0. -1.
        -13    1    4    4    0    0 -0.10861674650E+02 -0.19198311669E+02 -0.37104253083E+02  0.43165689431E+02  0.00000000000E+00 0.  1.
         14    1    4    4    0    0 -0.73762114204E+01  0.74702859547E+02 -0.11669995620E+03  0.13875808263E+03  0.00000000000E+00 0. -1.
         -5    1    5    5    0  502 -0.17125319998E+02  0.20383432827E+02 -0.15094937254E+02  0.30963010989E+02  0.47000000000E+01 0.  1.
         13    1    6    6    0    0  0.67934637134E+02 -0.36078517426E+02 -0.12381767334E+03  0.14576553287E+03  0.00000000000E+00 0. -1.
        -14    1    6    6    0    0  0.53292125184E+02 -0.24554227419E+02 -0.32478717805E+03  0.33004495409E+03  0.00000000000E+00 0.  1.
<mgrwt>
<rscale>  2 0.20520982E+03</rscale>
<asrwt>0</asrwt>
<pdfrwt beam="1">  1       21 0.62314266E-02 0.20546201E+03</pdfrwt>
<pdfrwt beam="2">  1       21 0.16025332E+00 0.20546201E+03</pdfrwt>
<totfact> 0.45964859E+04</totfact>
</mgrwt>
</event>
<event>
12    1  0.1071811E-001  0.9333691E+03  0.7546771E-02  0.9384807E-01
         21   -1    0    0  501  502  0.00000000000E+00  0.00000000000E+00  0.14295867295E+04  0.14295867295E+04  0.00000000000E+00 0.  1.
         21   -1    0    0  502  503 -0.00000000000E+00 -0.00000000000E+00 -0.13614544218E+04  0.13614544218E+04  0.00000000000E+00 0. -1.
         -6    2    1    2    0  503 -0.15837409592E+03  0.90340925487E+03 -0.10031376400E+04  0.13701973159E+04  0.17298821805E+03 0.  0.
        -24    2    3    3    0    0 -0.16678905891E+03  0.69774639127E+03 -0.83947803030E+03  0.11071867022E+04  0.80438880089E+02 0.  0.
          6    2    1    2  501    0  0.15837409592E+03 -0.90340925487E+03  0.10712699478E+04  0.14208438354E+04  0.17305278813E+03 0.  0.
         24    2    5    5    0    0  0.75165403255E+01 -0.37400090350E+03  0.42882033512E+03  0.57479726492E+03  0.81066896757E+02 0.  0.
          5    1    5    5  501    0  0.15085755560E+03 -0.52940835136E+03  0.64244961267E+03  0.84604657046E+03  0.47000000000E+01 0. -1.
        -13    1    6    6    0    0  0.34141752074E+02 -0.26882984074E+03  0.33865809122E+03  0.43373314982E+03  0.00000000000E+00 0.  1.
         14    1    6    6    0    0 -0.26625211749E+02 -0.10517106276E+03  0.90162243897E+02  0.14106411510E+03  0.00000000000E+00 0. -1.
         -5    1    3    3    0  503  0.84149629872E+01  0.20566286360E+03 -0.16365960972E+03  0.26301061370E+03  0.47000000000E+01 0.  1.
         13    1    4    4    0    0 -0.70706163228E+02  0.44208910420E+03 -0.55041264676E+03  0.70950420667E+03  0.00000000000E+00 0. -1.
        -14    1    4    4    0    0 -0.96082895680E+02  0.25565728707E+03 -0.28906538354E+03  0.39768249551E+03  0.00000000000E+00 0.  1.
<mgrwt>
<rscale>  2 0.93336612E+03</rscale>
<asrwt>0</asrwt>
<pdfrwt beam="1">  1       21 0.21993642E+00 0.93336911E+03</pdfrwt>
<pdfrwt beam="2">  1       21 0.20945453E+00 0.93336911E+03</pdfrwt>
<totfact> 0.68195820E+00</totfact>
</mgrwt>
</event>
<event>
12    1  0.1071811E-001  0.1782514E+03  0.7546771E-02  0.1170228E+00
         21   -1    0    0  503  502  0.00000000000E+00  0.00000000000E+00  0.14928068213E+03  0.14928068213E+03  0.00000000000E+00 0. -1.
         21   -1    0    0  501  503 -0.00000000000E+00 -0.00000000000E+00 -0.21128485400E+03  0.21128485400E+03  0.00000000000E+00 0. -1.
          6    2    1    2  501    0 -0.18244525499E+02 -0.22576408891E+02 -0.48404358895E+02  0.18470667641E+03  0.17587216210E+03 0.  0.
         24    2    3    3    0    0 -0.27734481619E+02 -0.63156373861E+02  0.17527597294E+02  0.10656638161E+03  0.79317387711E+02 0.  0.
         -6    2    1    2    0  502  0.18244525499E+02  0.22576408891E+02 -0.13599812971E+02  0.17585885972E+03  0.17291277188E+03 0.  0.
        -24    2    5    5    0    0 -0.28059802699E+02 -0.16037701039E+02  0.41391428536E+02  0.94119842490E+02  0.78107195647E+02 0.  0.
          5    1    3    3  501    0  0.94899561199E+01  0.40579964970E+02 -0.65931956188E+02  0.78140294797E+02  0.47000000000E+01 0. -1.
        -11    1    4    4    0    0  0.55378054036E+01  0.63880665617E+01  0.27555262854E+02  0.28823032354E+02  0.00000000000E+00 0.  1.
         12    1    4    4    0    0 -0.33272287022E+02 -0.69544440423E+02 -0.10027665561E+02  0.77743349259E+02  0.00000000000E+00 0. -1.
         -5    1    5    5    0  502  0.46304328198E+02  0.38614109930E+02 -0.54991241507E+02  0.81739017232E+02  0.47000000000E+01 0.  1.
         13    1    6    6    0    0 -0.60558968394E+00  0.95596427354E+01  0.53753655666E+02  0.54600448767E+02  0.00000000000E+00 0. -1.
        -14    1    6    6    0    0 -0.27454213015E+02 -0.25597343775E+02 -0.12362227130E+02  0.39519393723E+02  0.00000000000E+00 0.  1.
<mgrwt>
<rscale>  2 0.17751710E+03</rscale>
<asrwt>0</asrwt>
<pdfrwt beam="1">  1       21 0.22966259E-01 0.17825144E+03</pdfrwt>
<pdfrwt beam="2">  1       21 0.32505362E-01 0.17825144E+03</pdfrwt>
<totfact> 0.16281977E+05</totfact>
</mgrwt>
</event>
<event>
12    1  0.1071811E-001  0.2923264E+03  0.7546771E-02  0.1089167E+00
         21   -1    0    0  501  502  0.00000000000E+00  0.00000000000E+00  0.17266260602E+03  0.17266260602E+03  0.00000000000E+00 0. -1.
         21   -1    0    0  502  503 -0.00000000000E+00 -0.00000000000E+00 -0.55495843699E+03  0.55495843699E+03  0.00000000000E+00 0. -1.
         -6    2    1    2    0  503  0.11660715554E+03  0.20554300082E+03 -0.31109220131E+03  0.42674786350E+03  0.17172718880E+03 0.  0.
        -24    2    3    3    0    0  0.11775166366E+03  0.80159838185E+02 -0.20757301526E+03  0.26408084394E+03  0.79756388578E+02 0.  0.
          6    2    1    2  501    0 -0.11660715554E+03 -0.20554300082E+03 -0.71203629654E+02  0.30087317951E+03  0.17207428444E+03 0.  0.
         24    2    5    5    0    0 -0.84250680732E+02 -0.16090365811E+03 -0.11491752300E+03  0.23035646624E+03  0.82884860197E+02 0.  0.
          5    1    5    5  501    0 -0.32356474808E+02 -0.44639342709E+02  0.43713893342E+02  0.70516713272E+02  0.47000000000E+01 0. -1.
        -13    1    6    6    0    0  0.31328634682E+01  0.71560643626E+01  0.15928289006E+01  0.79725274900E+01  0.00000000000E+00 0.  1.
         14    1    6    6    0    0 -0.87383544200E+02 -0.16805972248E+03 -0.11651035190E+03  0.22238393875E+03  0.00000000000E+00 0. -1.
         -5    1    3    3    0  503 -0.11445081163E+01  0.12538316264E+03 -0.10351918605E+03  0.16266701956E+03  0.47000000000E+01 0.  1.
         13    1    4    4    0    0  0.98394482318E+02  0.96091857986E+02 -0.18354276765E+03  0.22935358484E+03  0.00000000000E+00 0. -1.
        -14    1    4    4    0    0  0.19357181338E+02 -0.15932019801E+02 -0.24030247611E+02  0.34727259100E+02  0.00000000000E+00 0.  1.
<mgrwt>
<rscale>  2 0.29227532E+03</rscale>
<asrwt>0</asrwt>
<pdfrwt beam="1">  1       21 0.26563478E-01 0.29232638E+03</pdfrwt>
<pdfrwt beam="2">  1       21 0.85378222E-01 0.29232638E+03</pdfrwt>
<totfact> 0.15162795E+04</totfact>
</mgrwt>
</event>
<event>
12    1  0.1071811E-001  0.1828170E+03  0.7546771E-02  0.1165525E+00
         21   -1    0    0  503  502  0.00000000000E+00  0.00000000000E+00  0.19222381762E+03  0.19222381762E+03  0.00000000000E+00 0. -1.
         21   -1    0    0  501  503 -0.00000000000E+00 -0.00000000000E+00 -0.17443310511E+03  0.17443310511E+03  0.00000000000E+00 0. -1.
          6    2    1    2  501    0 -0.30551624707E+02  0.47506718538E+02 -0.11906324719E+02  0.18144358152E+03  0.17201663474E+03 0.  0.
         24    2    3    3    0    0 -0.85726771236E+02  0.35277067113E+02 -0.17961259174E+02  0.12441189384E+03  0.81007170831E+02 0.  0.
         -6    2    1    2    0  502  0.30551624707E+02 -0.47506718538E+02  0.29697037237E+02  0.18521334121E+03  0.17387287788E+03 0.  0.
        -24    2    5    5    0    0  0.25147805835E+02 -0.64796412174E+01 -0.48345920304E+02  0.96753092774E+02  0.79683342441E+02 0.  0.
          5    1    3    3  501    0  0.55175146529E+02  0.12229651425E+02  0.60549344548E+01  0.57031687680E+02  0.47000000000E+01 0. -1.
        -11    1    4    4    0    0 -0.22175663769E+02 -0.94813673275E+01  0.25711636933E+02  0.35252583788E+02  0.00000000000E+00 0.  1.
         12    1    4    4    0    0 -0.63551107467E+02  0.44758434441E+02 -0.43672896107E+02  0.89159310048E+02  0.00000000000E+00 0. -1.
         -5    1    5    5    0  502  0.54038188722E+01 -0.41027077321E+02  0.78042957541E+02  0.88460248438E+02  0.47000000000E+01 0.  1.
         13    1    6    6    0    0 -0.90844564620E+01 -0.27379365168E+02  0.57459552441E+01  0.29413823075E+02  0.00000000000E+00 0. -1.
        -14    1    6    6    0    0  0.34232262297E+02  0.20899723951E+02 -0.54091875549E+02  0.67339269699E+02  0.00000000000E+00 0.  1.
<mgrwt>
<rscale>  2 0.18237430E+03</rscale>
<asrwt>0</asrwt>
<pdfrwt beam="1">  1       21 0.29572895E-01 0.18281703E+03</pdfrwt>
<pdfrwt beam="2">  1       21 0.26835862E-01 0.18281703E+03</pdfrwt>
<totfact> 0.14536462E+05</totfact>
</mgrwt>
</event>
<event>
12    1  0.1071811E-001  0.2426310E+03  0.7546771E-02  0.1118059E+00
         21   -1    0    0  503  502  0.00000000000E+00  0.00000000000E+00  0.24503644861E+03  0.24503644861E+03  0.00000000000E+00 0. -1.
         21   -1    0    0  501  503 -0.00000000000E+00 -0.00000000000E+00 -0.26930628231E+03  0.26930628231E+03  0.00000000000E+00 0. -1.
          6    2    1    2  501    0 -0.17026022256E+03  0.40302707379E+01 -0.96667823130E+02  0.26117900661E+03  0.17281498487E+03 0.  0.
         24    2    3    3    0    0 -0.96079396764E+02  0.64245086871E+02 -0.29822232650E+02  0.14447835552E+03  0.81399926193E+02 0.  0.
         -6    2    1    2    0  502  0.17026022256E+03 -0.40302707379E+01  0.72397989425E+02  0.25316372432E+03  0.17275883761E+03 0.  0.
        -24    2    5    5    0    0  0.83761912319E+02 -0.44247834764E+02 -0.93244415531E+01  0.12746545124E+03  0.84773623331E+02 0.  0.
          5    1    3    3  501    0 -0.74180825793E+02 -0.60214816133E+02 -0.66845590480E+02  0.11670065109E+03  0.47000000000E+01 0. -1.
        -13    1    4    4    0    0 -0.42290457383E+02  0.43771109698E+02 -0.54649225178E+02  0.81798109039E+02  0.00000000000E+00 0.  1.
         14    1    4    4    0    0 -0.53788939380E+02  0.20473977173E+02  0.24826992528E+02  0.62680246481E+02  0.00000000000E+00 0. -1.
         -5    1    5    5    0  502  0.86498310238E+02  0.40217564026E+02  0.81722430978E+02  0.12569827308E+03  0.47000000000E+01 0.  1.
         11    1    6    6    0    0  0.67237817974E+02  0.78114143132E+01  0.12159076425E+02  0.68773435998E+02  0.00000000000E+00 0. -1.
        -12    1    6    6    0    0  0.16524094345E+02 -0.52059249077E+02 -0.21483517978E+02  0.58692015241E+02  0.00000000000E+00 0.  1.
<mgrwt>
<rscale>  2 0.24262101E+03</rscale>
<asrwt>0</asrwt>
<pdfrwt beam="1">  1       21 0.37697915E-01 0.24263101E+03</pdfrwt>
<pdfrwt beam="2">  1       21 0.41431736E-01 0.24263101E+03</pdfrwt>
<totfact> 0.37157684E+04</totfact>
</mgrwt>
</event>
<event>
12    1  0.1071811E-001  0.2282948E+03  0.7546771E-02  0.1128255E+00
         21   -1    0    0  501  502  0.00000000000E+00  0.00000000000E+00  0.42154127342E+03  0.42154127342E+03  0.00000000000E+00 0. -1.
         21   -1    0    0  502  503 -0.00000000000E+00 -0.00000000000E+00 -0.64337587728E+03  0.64337587728E+03  0.00000000000E+00 0.  1.
         -6    2    1    2    0  503  0.85584005798E+02 -0.11861145809E+03 -0.59016186197E+03  0.63277921874E+03  0.17528609847E+03 0.  0.
        -24    2    3    3    0    0  0.90540464574E+02 -0.47892236570E+02 -0.21863773422E+03  0.25452263615E+03  0.80548565722E+02 0.  0.
          6    2    1    2  501    0 -0.85584005798E+02  0.11861145809E+03  0.36832725811E+03  0.43213793195E+03  0.17229313140E+03 0.  0.
         24    2    5    5    0    0  0.19778366033E+02  0.40701076041E+02  0.18626370314E+03  0.20777107817E+03  0.80167901693E+02 0.  0.
          5    1    5    5  501    0 -0.10536237183E+03  0.77910382046E+02  0.18206355497E+03  0.22436685378E+03  0.47000000000E+01 0. -1.
        -11    1    6    6    0    0 -0.49401698942E+01 -0.19458219290E+02  0.85610122839E+02  0.87932478124E+02  0.00000000000E+00 0.  1.
         12    1    6    6    0    0  0.24718535928E+02  0.60159295331E+02  0.10065358030E+03  0.11983860005E+03  0.00000000000E+00 0. -1.
         -5    1    3    3    0  503 -0.49564587758E+01 -0.70719221517E+02 -0.37152412775E+03  0.37825658259E+03  0.47000000000E+01 0.  1.
         13    1    4    4    0    0  0.34906498792E+02  0.74520740310E+00 -0.15200342957E+02  0.38079777021E+02  0.00000000000E+00 0. -1.
        -14    1    4    4    0    0  0.55633965782E+02 -0.48637443973E+02 -0.20343739126E+03  0.21644285913E+03  0.00000000000E+00 0.  1.
<mgrwt>
<rscale>  2 0.22772016E+03</rscale>
<asrwt>0</asrwt>
<pdfrwt beam="1">  1       21 0.64852504E-01 0.22829480E+03</pdfrwt>
<pdfrwt beam="2">  1       21 0.98980904E-01 0.22829480E+03</pdfrwt>
<totfact> 0.17858155E+03</totfact>
</mgrwt>
</event>
<event>
12    1  0.1071811E-001  0.2556858E+03  0.7546771E-02  0.1109771E+00
         21   -1    0    0  501  502  0.00000000000E+00  0.00000000000E+00  0.86491815492E+02  0.86491815492E+02  0.00000000000E+00 0. -1.
         21   -1    0    0  502  503 -0.00000000000E+00 -0.00000000000E+00 -0.87508736150E+03  0.87508736150E+03  0.00000000000E+00 0.  1.
         -6    2    1    2    0  503  0.14714552935E+03  0.11708844905E+03 -0.57190851087E+03  0.62646195090E+03  0.17324468073E+03 0.  0.
        -24    2    3    3    0    0  0.16230833631E+03  0.13792658739E+03 -0.48609343585E+03  0.53673761849E+03  0.80204134467E+02 0.  0.
          6    2    1    2  501    0 -0.14714552935E+03 -0.11708844905E+03 -0.21668703513E+03  0.33511722610E+03  0.17317266621E+03 0.  0.
         24    2    5    5    0    0 -0.11183889310E+03 -0.15014732625E+03 -0.20064045815E+03  0.28394076121E+03  0.72894477445E+02 0.  0.
          5    1    5    5  501    0 -0.35306636253E+02  0.33058877198E+02 -0.16046576988E+02  0.51176464885E+02  0.47000000000E+01 0. -1.
        -13    1    6    6    0    0 -0.62660462940E+02 -0.10336317504E+03 -0.78257545919E+02  0.14399487166E+03  0.00000000000E+00 0.  1.
         14    1    6    6    0    0 -0.49178430158E+02 -0.46784151207E+02 -0.12238291223E+03  0.13994588955E+03  0.00000000000E+00 0. -1.
         -5    1    3    3    0  503 -0.15162806956E+02 -0.20838138334E+02 -0.85815075028E+02  0.89724332408E+02  0.47000000000E+01 0.  1.
         11    1    4    4    0    0  0.14789102610E+03  0.14196285640E+03 -0.40126671828E+03  0.45059980848E+03  0.00000000000E+00 0. -1.
        -12    1    4    4    0    0  0.14417310207E+02 -0.40362690125E+01 -0.84826717562E+02  0.86137810011E+02  0.00000000000E+00 0.  1.
<mgrwt>
<rscale>  2 0.25567361E+03</rscale>
<asrwt>0</asrwt>
<pdfrwt beam="1">  1       21 0.13306433E-01 0.25568581E+03</pdfrwt>
<pdfrwt beam="2">  1       21 0.13462882E+00 0.25568581E+03</pdfrwt>
<totfact> 0.18573480E+04</totfact>
</mgrwt>
</event>
<event>
12    1  0.1071811E-001  0.2123799E+03  0.7546771E-02  0.1139826E+00
         21   -1    0    0  503  502  0.00000000000E+00  0.00000000000E+00  0.19442438617E+03  0.19442438617E+03  0.00000000000E+00 0.  1.
         21   -1    0    0  501  503 -0.00000000000E+00 -0.00000000000E+00 -0.45598313788E+03  0.45598313788E+03  0.00000000000E+00 0. -1.
          6    2    1    2  501    0  0.12218934056E+03  0.11710947917E+02 -0.35918301846E+03  0.41727410553E+03  0.17331433048E+03 0.  0.
         24    2    3    3    0    0  0.14806054239E+03  0.19409093286E+02 -0.23342708547E+03  0.28856814137E+03  0.80527826678E+02 0.  0.
         -6    2    1    2    0  502 -0.12218934056E+03 -0.11710947917E+02  0.97624266750E+02  0.23313341852E+03  0.17249148421E+03 0.  0.
        -24    2    5    5    0    0 -0.19313702504E+01  0.22561472319E+02  0.18268211976E+02  0.84957672728E+02  0.79820601115E+02 0.  0.
          5    1    3    3  501    0 -0.25871201836E+02 -0.76981453693E+01 -0.12575593300E+03  0.12870596416E+03  0.47000000000E+01 0. -1.
        -11    1    4    4    0    0  0.46676588784E+02 -0.16229538122E+02 -0.28176534917E+02  0.56886017334E+02  0.00000000000E+00 0.  1.
         12    1    4    4    0    0  0.10138395361E+03  0.35638631408E+02 -0.20525055055E+03  0.23168212404E+03  0.00000000000E+00 0. -1.
         -5    1    5    5    0  502 -0.12025797031E+03 -0.34272420235E+02  0.79356054774E+02  0.14817574579E+03  0.47000000000E+01 0.  1.
         13    1    6    6    0    0 -0.16665859172E+02  0.49519167546E+02  0.11598379598E+02  0.53520287982E+02  0.00000000000E+00 0. -1.
        -14    1    6    6    0    0  0.14734488921E+02 -0.26957695227E+02  0.66698323777E+01  0.31437384746E+02  0.00000000000E+00 0.  1.
<mgrwt>
<rscale>  2 0.21221200E+03</rscale>
<asrwt>0</asrwt>
<pdfrwt beam="1">  1       21 0.29911444E-01 0.21237994E+03</pdfrwt>
<pdfrwt beam="2">  1       21 0.70151252E-01 0.21237994E+03</pdfrwt>
<totfact> 0.19532708E+04</totfact>
</mgrwt>
</event>
<event>
12    1  0.1071811E-001  0.1880927E+03  0.7546771E-02  0.1160940E+00
         21   -1    0    0  501  502  0.00000000000E+00  0.00000000000E+00  0.93865332057E+03  0.93865332057E+03  0.00000000000E+00 0.  1.
         21   -1    0    0  502  503 -0.00000000000E+00 -0.00000000000E+00 -0.43577760791E+02  0.43577760791E+02  0.00000000000E+00 0.  1.
         -6    2    1    2    0  503  0.13837768300E+02  0.72077542987E+02  0.25408373778E+03  0.31421208375E+03  0.16965857400E+03 0.  0.
        -24    2    3    3    0    0  0.70058925357E+02  0.32305631094E+02  0.12982330324E+03  0.17206649264E+03  0.82467454216E+02 0.  0.
          6    2    1    2  501    0 -0.13837768300E+02 -0.72077542987E+02  0.64099182200E+03  0.66801899762E+03  0.17318258941E+03 0.  0.
         24    2    5    5    0    0  0.16930278890E+01 -0.79650661060E+02  0.64025651629E+03  0.65009726717E+03  0.79692885362E+02 0.  0.
          5    1    5    5  501    0 -0.15530796189E+02  0.75731180726E+01  0.73530570327E+00  0.17921730443E+02  0.47000000000E+01 0. -1.
        -11    1    6    6    0    0 -0.31263124985E+02 -0.25558933407E+02  0.38447357616E+03  0.38658837647E+03  0.00000000000E+00 0.  1.
         12    1    6    6    0    0  0.32956152874E+02 -0.54091727653E+02  0.25578294014E+03  0.26350889070E+03  0.00000000000E+00 0. -1.
         -5    1    3    3    0  503 -0.56221157057E+02  0.39771911893E+02  0.12426043455E+03  0.14214559110E+03  0.47000000000E+01 0.  1.
         13    1    4    4    0    0 -0.12279961384E+02  0.17347566568E+02  0.58046175306E+02  0.61814998059E+02  0.00000000000E+00 0. -1.
        -14    1    4    4    0    0  0.82338886740E+02  0.14958064526E+02  0.71777127929E+02  0.11025149458E+03  0.00000000000E+00 0.  1.
<mgrwt>
<rscale>  2 0.18727753E+03</rscale>
<asrwt>0</asrwt>
<pdfrwt beam="1">  1       21 0.14440819E+00 0.18809270E+03</pdfrwt>
<pdfrwt beam="2">  1       21 0.67042716E-02 0.18809270E+03</pdfrwt>
<totfact> 0.53936836E+04</totfact>
</mgrwt>
</event>
<event>
12    1  0.1071811E-001  0.3477671E+03  0.7546771E-02  0.1063583E+00
         21   -1    0    0  501  502  0.00000000000E+00  0.00000000000E+00  0.87923143495E+03  0.87923143495E+03  0.00000000000E+00 0.  1.
         21   -1    0    0  502  503 -0.00000000000E+00 -0.00000000000E+00 -0.13941602104E+03  0.13941602104E+03  0.00000000000E+00 0. -1.
         -6    2    1    2    0  503 -0.65444914250E+02  0.29400651909E+03  0.30800994070E+03  0.46421265980E+03  0.17291732094E+03 0.  0.
        -24    2    3    3    0    0  0.20576129344E+02  0.20808868730E+03  0.22024997294E+03  0.31419467521E+03  0.80523067926E+02 0.  0.
          6    2    1    2  501    0  0.65444914250E+02 -0.29400651909E+03  0.43180547322E+03  0.55443479619E+03  0.17383643590E+03 0.  0.
         24    2    5    5    0    0  0.88496133571E+02 -0.14571304831E+03  0.18459977424E+03  0.26520295181E+03  0.84803719829E+02 0.  0.
          5    1    5    5  501    0 -0.23051219320E+02 -0.14829347079E+03  0.24720569898E+03  0.28923184437E+03  0.47000000000E+01 0. -1.
        -11    1    6    6    0    0  0.25788636203E+02 -0.97713483352E+02  0.59532132270E+02  0.11729046576E+03  0.00000000000E+00 0.  1.
         12    1    6    6    0    0  0.62707497368E+02 -0.47999564957E+02  0.12506764197E+03  0.14791248605E+03  0.00000000000E+00 0. -1.
         -5    1    3    3    0  503 -0.86021043594E+02  0.85917831792E+02  0.87759967762E+02  0.15001798460E+03  0.47000000000E+01 0.  1.
         13    1    4    4    0    0  0.35288496153E+02  0.12459237723E+03  0.86119795667E+02  0.15551577936E+03  0.00000000000E+00 0. -1.
        -14    1    4    4    0    0 -0.14712366810E+02  0.83496310073E+02  0.13413017727E+03  0.15867889585E+03  0.00000000000E+00 0.  1.
<mgrwt>
<rscale>  2 0.34765244E+03</rscale>
<asrwt>0</asrwt>
<pdfrwt beam="1">  1       21 0.13526637E+00 0.34776713E+03</pdfrwt>
<pdfrwt beam="2">  1       21 0.21448619E-01 0.34776713E+03</pdfrwt>
<totfact> 0.72322475E+03</totfact>
</mgrwt>
</event>
<event>
12    1  0.1071811E-001  0.2352506E+03  0.7546771E-02  0.1123027E+00
         21   -1    0    0  501  502  0.00000000000E+00  0.00000000000E+00  0.92392715713E+02  0.92392715713E+02  0.00000000000E+00 0. -1.
         21   -1    0    0  502  503 -0.00000000000E+00 -0.00000000000E+00 -0.12215603645E+04  0.12215603645E+04  0.00000000000E+00 0. -1.
         -6    2    1    2    0  503  0.90193367117E+02 -0.13126176276E+03 -0.10336603216E+04  0.10600544662E+04  0.17290840630E+03 0.  0.
        -24    2    3    3    0    0  0.12202091291E+03 -0.72084449082E+02 -0.82457112766E+03  0.84038351190E+03  0.79003996922E+02 0.  0.
          6    2    1    2  501    0 -0.90193367117E+02  0.13126176276E+03 -0.95507327169E+02  0.25389861402E+03  0.17314260834E+03 0.  0.
         24    2    5    5    0    0 -0.56232233626E+01  0.11661364180E+03 -0.27666720146E+02  0.14439466604E+03  0.80336853820E+02 0.  0.
          5    1    5    5  501    0 -0.84570143755E+02  0.14648120964E+02 -0.67840607022E+02  0.10950394798E+03  0.47000000000E+01 0. -1.
        -11    1    6    6    0    0  0.90313022480E+01 -0.55322827791E+01  0.11165464677E+02  0.15389547573E+02  0.00000000000E+00 0.  1.
         12    1    6    6    0    0 -0.14654525611E+02  0.12214592458E+03 -0.38832184823E+02  0.12900511847E+03  0.00000000000E+00 0. -1.
         -5    1    3    3    0  503 -0.31827545791E+02 -0.59177313682E+02 -0.20908919392E+03  0.21967095425E+03  0.47000000000E+01 0.  1.
         11    1    4    4    0    0  0.10380178323E+01 -0.31110431837E+02 -0.24064895761E+03  0.24265378062E+03  0.00000000000E+00 0. -1.
        -12    1    4    4    0    0  0.12098289508E+03 -0.40974017245E+02 -0.58392217004E+03  0.59772973128E+03  0.00000000000E+00 0.  1.
<mgrwt>
<rscale>  2 0.23520753E+03</rscale>
<asrwt>0</asrwt>
<pdfrwt beam="1">  1       21 0.14214264E-01 0.23525063E+03</pdfrwt>
<pdfrwt beam="2">  1       21 0.18793237E+00 0.23525063E+03</pdfrwt>
<totfact> 0.67272384E+03</totfact>
</mgrwt>
</event>
<event>
12    1  0.1071811E-001  0.1995481E+03  0.7546771E-02  0.1150655E+00
         21   -1    0    0  501  502  0.00000000000E+00  0.00000000000E+00  0.13451972921E+03  0.13451972921E+03  0.00000000000E+00 0.  1.
         21   -1    0    0  502  503 -0.00000000000E+00 -0.00000000000E+00 -0.29265410513E+03  0.29265410513E+03  0.00000000000E+00 0.  1.
         -6    2    1    2    0  503 -0.71116260929E+02 -0.74080175391E+02 -0.72158944606E+02  0.21219410679E+03  0.17109655378E+03 0.  0.
        -24    2    3    3    0    0 -0.74622441117E+02 -0.16055003162E+02  0.95556812216E+01  0.11180195578E+03  0.81130108017E+02 0.  0.
          6    2    1    2  501    0  0.71116260929E+02  0.74080175391E+02 -0.85975431321E+02  0.21497972754E+03  0.16816394831E+03 0.  0.
         24    2    5    5    0    0  0.17887889961E+02 -0.19418598923E+02 -0.12099556127E+02  0.84384876154E+02  0.79229725947E+02 0.  0.
          5    1    5    5  501    0  0.53228370968E+02  0.93498774314E+02 -0.73875875194E+02  0.13059485139E+03  0.47000000000E+01 0. -1.
        -13    1    6    6    0    0  0.40582446068E+02  0.88989964005E+01  0.88551395043E+01  0.42479884198E+02  0.00000000000E+00 0.  1.
         14    1    6    6    0    0 -0.22694556108E+02 -0.28317595324E+02 -0.20954695631E+02  0.41904991956E+02  0.00000000000E+00 0. -1.
         -5    1    3    3    0  503  0.35061801885E+01 -0.58025172228E+02 -0.81714625827E+02  0.10039215102E+03  0.47000000000E+01 0.  1.
         13    1    4    4    0    0 -0.26302358815E+02  0.27426473246E+02 -0.16940910059E+02  0.41605527849E+02  0.00000000000E+00 0. -1.
        -14    1    4    4    0    0 -0.48320082302E+02 -0.43481476408E+02  0.26496591280E+02  0.70196427927E+02  0.00000000000E+00 0.  1.
<mgrwt>
<rscale>  2 0.19891790E+03</rscale>
<asrwt>0</asrwt>
<pdfrwt beam="1">  1       21 0.20695343E-01 0.19954805E+03</pdfrwt>
<pdfrwt beam="2">  1       21 0.45023708E-01 0.19954805E+03</pdfrwt>
<totfact> 0.10221378E+05</totfact>
</mgrwt>
</event>
<event>
12    1  0.1071811E-001  0.1955153E+03  0.7546771E-02  0.1153772E+00
         21   -1    0    0  501  502  0.00000000000E+00  0.00000000000E+00  0.55000649346E+03  0.55000649346E+03  0.00000000000E+00 0. -1.
         21   -1    0    0  502  503 -0.00000000000E+00 -0.00000000000E+00 -0.23937005686E+03  0.23937005686E+03  0.00000000000E+00 0. -1.
         -6    2    1    2    0  503 -0.48179023217E+02 -0.75295625794E+02 -0.17737537653E+03  0.26398536932E+03  0.17388387352E+03 0.  0.
        -24    2    3    3    0    0  0.29487037901E+02 -0.49475196925E+02 -0.14575069153E+03  0.17611659046E+03  0.80352404057E+02 0.  0.
          6    2    1    2  501    0  0.48179023217E+02  0.75295625794E+02  0.48801181314E+03  0.52539118099E+03  0.17288641868E+03 0.  0.
         24    2    5    5    0    0  0.20103007294E+02 -0.79231488248E+01  0.11739491275E+03  0.14448095014E+03  0.81401917815E+02 0.  0.
          5    1    5    5  501    0  0.28076015923E+02  0.83218774619E+02  0.37061690038E+03  0.38091023085E+03  0.47000000000E+01 0. -1.
        -11    1    6    6    0    0  0.16784617044E+02  0.35792181125E+02  0.45514867438E+02  0.60286041145E+02  0.00000000000E+00 0.  1.
         12    1    6    6    0    0  0.33183902496E+01 -0.43715329950E+02  0.71880045316E+02  0.84194908998E+02  0.00000000000E+00 0. -1.
         -5    1    3    3    0  503 -0.77666061118E+02 -0.25820428869E+02 -0.31624685000E+02  0.87868778857E+02  0.47000000000E+01 0.  1.
         11    1    4    4    0    0  0.26591506248E+02  0.13244463769E+02 -0.79364626603E+02  0.84742362375E+02  0.00000000000E+00 0. -1.
        -12    1    4    4    0    0  0.28955316533E+01 -0.62719660694E+02 -0.66386064931E+02  0.91374228085E+02  0.00000000000E+00 0.  1.
<mgrwt>
<rscale>  2 0.19529333E+03</rscale>
<asrwt>0</asrwt>
<pdfrwt beam="1">  1       21 0.84616383E-01 0.19551535E+03</pdfrwt>
<pdfrwt beam="2">  1       21 0.36826163E-01 0.19551535E+03</pdfrwt>
<totfact> 0.85925483E+03</totfact>
</mgrwt>
</event>
<event>
12    1  0.1071811E-001  0.1875999E+03  0.7546771E-02  0.1160873E+00
         21   -1    0    0  503  502  0.00000000000E+00  0.00000000000E+00  0.32500735604E+02  0.32500735604E+02  0.00000000000E+00 0.  1.
         21   -1    0    0  501  503 -0.00000000000E+00 -0.00000000000E+00 -0.12920181291E+04  0.12920181291E+04  0.00000000000E+00 0.  1.
          6    2    1    2  501    0 -0.30699830678E+01  0.71064694850E+02 -0.90124618058E+03  0.92056416823E+03  0.17359174568E+03 0.  0.
         24    2    3    3    0    0 -0.55171655863E+02  0.23961395458E+02 -0.33280958280E+03  0.34778536204E+03  0.81082547842E+02 0.  0.
         -6    2    1    2    0  502  0.30699830678E+01 -0.71064694850E+02 -0.35827121288E+03  0.40395469644E+03  0.17251527221E+03 0.  0.
        -24    2    5    5    0    0 -0.25319963494E+02 -0.44029985460E+01 -0.29705732276E+03  0.30898627451E+03  0.81049231230E+02 0.  0.
          5    1    3    3  501    0  0.52101672795E+02  0.47103299392E+02 -0.56843659779E+03  0.57277880619E+03  0.47000000000E+01 0. -1.
        -11    1    4    4    0    0  0.18926094561E+02  0.18217820542E+02 -0.74445750578E+02  0.78944637688E+02  0.00000000000E+00 0.  1.
         12    1    4    4    0    0 -0.74097750425E+02  0.57435749166E+01 -0.25836383222E+03  0.26884072435E+03  0.00000000000E+00 0. -1.
         -5    1    5    5    0  502  0.28389946562E+02 -0.66661696304E+02 -0.61213890124E+02  0.94968421931E+02  0.47000000000E+01 0.  1.
         11    1    6    6    0    0 -0.34249220914E+02  0.18583166349E+02 -0.66206832289E+02  0.76822443638E+02  0.00000000000E+00 0. -1.
        -12    1    6    6    0    0  0.89292574202E+01 -0.22986164895E+02 -0.23085049047E+03  0.23216383087E+03  0.00000000000E+00 0.  1.
<mgrwt>
<rscale>  2 0.18735046E+03</rscale>
<asrwt>0</asrwt>
<pdfrwt beam="1">  1       21 0.50001143E-02 0.18759987E+03</pdfrwt>
<pdfrwt beam="2">  1       21 0.19877198E+00 0.18759987E+03</pdfrwt>
<totfact> 0.36905875E+04</totfact>
</mgrwt>
</event>
<event>
12    1  0.1071811E-001  0.2129451E+03  0.7546771E-02  0.1139752E+00
         21   -1    0    0  503  502  0.00000000000E+00  0.00000000000E+00  0.20813345919E+04  0.20813345919E+04  0.00000000000E+00 0.  1.
         21   -1    0    0  501  503 -0.00000000000E+00 -0.00000000000E+00 -0.30182654645E+02  0.30182654645E+02  0.00000000000E+00 0.  1.
          6    2    1    2  501    0  0.32061911463E+02  0.11575862797E+03  0.46462232275E+03  0.51109638371E+03  0.17583396862E+03 0.  0.
         24    2    3    3    0    0  0.59422608632E+02  0.32011333678E+02  0.15129806137E+03  0.18558693711E+03  0.83639918413E+02 0.  0.
         -6    2    1    2    0  502 -0.32061911463E+02 -0.11575862797E+03  0.15865296145E+04  0.16004208629E+04  0.17275038176E+03 0.  0.
        -24    2    5    5    0    0 -0.73438139525E+02 -0.27484325735E+02  0.79818839609E+03  0.80606054703E+03  0.80500567249E+02 0.  0.
          5    1    3    3  501    0 -0.27360697169E+02  0.83747294291E+02  0.31332426139E+03  0.32550944660E+03  0.47000000000E+01 0. -1.
        -11    1    4    4    0    0  0.28394792829E+01  0.23308201136E+02 -0.36010616560E+00  0.23483282548E+02  0.00000000000E+00 0.  1.
         12    1    4    4    0    0  0.56583129349E+02  0.87031325415E+01  0.15165816753E+03  0.16210365456E+03  0.00000000000E+00 0. -1.
         -5    1    5    5    0  502  0.41376228062E+02 -0.88274302233E+02  0.78834121845E+03  0.79436031585E+03  0.47000000000E+01 0.  1.
         13    1    6    6    0    0  0.61611965719E+01 -0.30799640924E+02  0.17448877248E+03  0.17729328793E+03  0.00000000000E+00 0. -1.
        -14    1    6    6    0    0 -0.79599336097E+02  0.33153151893E+01  0.62369962360E+03  0.62876725909E+03  0.00000000000E+00 0.  1.
<mgrwt>
<rscale>  2 0.21230748E+03</rscale>
<asrwt>0</asrwt>
<pdfrwt beam="1">  1       21 0.32020521E+00 0.21294509E+03</pdfrwt>
<pdfrwt beam="2">  1       21 0.46434870E-02 0.21294509E+03</pdfrwt>
<totfact> 0.77808279E+03</totfact>
</mgrwt>
</event>
<event>
12    1  0.1071811E-001  0.2028441E+03  0.7546771E-02  0.1148652E+00
         21   -1    0    0  501  502  0.00000000000E+00  0.00000000000E+00  0.90147945783E+02  0.90147945783E+02  0.00000000000E+00 0.  1.
         21   -1    0    0  502  503 -0.00000000000E+00 -0.00000000000E+00 -0.10654932426E+04  0.10654932426E+04  0.00000000000E+00 0.  1.
         -6    2    1    2    0  503  0.46451331824E+02 -0.81044104920E+02 -0.93251224539E+03  0.95431902464E+03  0.18005510215E+03 0.  0.
        -24    2    3    3    0    0  0.24623809795E+02 -0.12232693582E+03 -0.79354719542E+03  0.80764220997E+03  0.83657496644E+02 0.  0.
          6    2    1    2  501    0 -0.46451331824E+02  0.81044104920E+02 -0.42833051383E+02  0.20132216370E+03  0.17311865912E+03 0.  0.
         24    2    5    5    0    0 -0.62974325956E+01  0.93553134444E+02  0.20636087540E+02  0.12503826607E+03  0.80105388399E+02 0.  0.
          5    1    5    5  501    0 -0.40153899228E+02 -0.12509029524E+02 -0.63469138923E+02  0.76283897635E+02  0.47000000000E+01 0. -1.
        -11    1    6    6    0    0  0.36668260437E+02  0.38968118327E+02  0.43222375406E+01  0.53682001702E+02  0.00000000000E+00 0.  1.
         12    1    6    6    0    0 -0.42965693033E+02  0.54585016117E+02  0.16313849999E+02  0.71356264365E+02  0.00000000000E+00 0. -1.
         -5    1    3    3    0  503  0.21827522029E+02  0.41282830900E+02 -0.13896504998E+03  0.14667681467E+03  0.47000000000E+01 0.  1.
         13    1    4    4    0    0  0.44741833674E+02 -0.52424798414E+02 -0.25288269181E+03  0.26210655655E+03  0.00000000000E+00 0. -1.
        -14    1    4    4    0    0 -0.20118023879E+02 -0.69902137405E+02 -0.54066450361E+03  0.54553565342E+03  0.00000000000E+00 0.  1.
<mgrwt>
<rscale>  2 0.20129357E+03</rscale>
<asrwt>0</asrwt>
<pdfrwt beam="1">  1       21 0.13868914E-01 0.20284406E+03</pdfrwt>
<pdfrwt beam="2">  1       21 0.16392204E+00 0.20284406E+03</pdfrwt>
<totfact> 0.10577899E+04</totfact>
</mgrwt>
</event>
<event>
12    1  0.1071811E-001  0.1919624E+03  0.7546771E-02  0.1157187E+00
         21   -1    0    0  503  502  0.00000000000E+00  0.00000000000E+00  0.36054176828E+03  0.36054176828E+03  0.00000000000E+00 0. -1.
         21   -1    0    0  501  503 -0.00000000000E+00 -0.00000000000E+00 -0.16707410174E+03  0.16707410174E+03  0.00000000000E+00 0. -1.
          6    2    1    2  501    0 -0.32789166047E+02  0.69373927408E+02 -0.69424101180E+02  0.20209834204E+03  0.17359770394E+03 0.  0.
         24    2    3    3    0    0  0.35979067165E+02  0.32244936716E+01 -0.23411886401E+02  0.96060464881E+02  0.85875525353E+02 0.  0.
         -6    2    1    2    0  502  0.32789166047E+02 -0.69373927408E+02  0.26289176772E+03  0.32551752799E+03  0.17595939383E+03 0.  0.
        -24    2    5    5    0    0  0.62073019999E+02 -0.88695751355E+00  0.21326574801E+03  0.23589141025E+03  0.79426895021E+02 0.  0.
          5    1    3    3  501    0 -0.68768233212E+02  0.66149433736E+02 -0.46012214778E+02  0.10603787715E+03  0.47000000000E+01 0. -1.
        -11    1    4    4    0    0  0.30091856598E+02 -0.34426269528E+02 -0.33448887527E+02  0.56652589914E+02  0.00000000000E+00 0.  1.
         12    1    4    4    0    0  0.58872105669E+01  0.37650763200E+02  0.10037001126E+02  0.39407874967E+02  0.00000000000E+00 0. -1.
         -5    1    5    5    0  502 -0.29283853952E+02 -0.68486969894E+02  0.49626019716E+02  0.89626117736E+02  0.47000000000E+01 0.  1.
         13    1    6    6    0    0  0.22112628890E+01  0.29751804743E+02  0.98031622921E+02  0.10247076979E+03  0.00000000000E+00 0. -1.
        -14    1    6    6    0    0  0.59861757110E+02 -0.30638762257E+02  0.11523412509E+03  0.13342064046E+03  0.00000000000E+00 0.  1.
<mgrwt>
<rscale>  2 0.19141953E+03</rscale>
<asrwt>0</asrwt>
<pdfrwt beam="1">  1       21 0.55467964E-01 0.19196244E+03</pdfrwt>
<pdfrwt beam="2">  1       21 0.25703708E-01 0.19196244E+03</pdfrwt>
<totfact> 0.44024059E+04</totfact>
</mgrwt>
</event>
<event>
12    1  0.1071811E-001  0.1745841E+03  0.7546771E-02  0.1173437E+00
         21   -1    0    0  501  502  0.00000000000E+00  0.00000000000E+00  0.30717128542E+03  0.30717128542E+03  0.00000000000E+00 0.  1.
         21   -1    0    0  502  503 -0.00000000000E+00 -0.00000000000E+00 -0.10495832915E+03  0.10495832915E+03  0.00000000000E+00 0.  1.
         -6    2    1    2    0  503  0.74847639618E+01 -0.23580062843E+02  0.50010468298E+02  0.18051525601E+03  0.17167606024E+03 0.  0.
        -24    2    3    3    0    0 -0.57596129157E+02 -0.29012769062E+02  0.48463851613E+02  0.11502083664E+03  0.81987761802E+02 0.  0.
          6    2    1    2  501    0 -0.74847639618E+01  0.23580062843E+02  0.15220248797E+03  0.23161435855E+03  0.17282237322E+03 0.  0.
         24    2    5    5    0    0 -0.23362697789E+02  0.57663879983E+02  0.16328931768E+03  0.19213242387E+03  0.79878209363E+02 0.  0.
          5    1    5    5  501    0  0.15877933827E+02 -0.34083817140E+02 -0.11086829705E+02  0.39481934683E+02  0.47000000000E+01 0. -1.
        -11    1    6    6    0    0 -0.19741712486E+02  0.13167678910E+02  0.13958202236E+03  0.14158482951E+03  0.00000000000E+00 0.  1.
         12    1    6    6    0    0 -0.36209853033E+01  0.44496201073E+02  0.23707295315E+02  0.50547594360E+02  0.00000000000E+00 0. -1.
         -5    1    3    3    0  503  0.65080893118E+02  0.54327062187E+01  0.15466166849E+01  0.65494419374E+02  0.47000000000E+01 0.  1.
         11    1    4    4    0    0 -0.45960551715E+02  0.22593934307E+02  0.27366142035E+02  0.58066891696E+02  0.00000000000E+00 0. -1.
        -12    1    4    4    0    0 -0.11635577442E+02 -0.51606703369E+02  0.21097709577E+02  0.56953944942E+02  0.00000000000E+00 0.  1.
<mgrwt>
<rscale>  2 0.17429976E+03</rscale>
<asrwt>0</asrwt>
<pdfrwt beam="1">  1       21 0.47257120E-01 0.17458412E+03</pdfrwt>
<pdfrwt beam="2">  1       21 0.16147435E-01 0.17458412E+03</pdfrwt>
<totfact> 0.14776684E+05</totfact>
</mgrwt>
</event>
<event>
12    1  0.1071811E-001  0.2460401E+03  0.7546771E-02  0.1117055E+00
         21   -1    0    0  503  502  0.00000000000E+00  0.00000000000E+00  0.14041999328E+03  0.14041999328E+03  0.00000000000E+00 0. -1.
         21   -1    0    0  501  503 -0.00000000000E+00 -0.00000000000E+00 -0.57738229845E+03  0.57738229845E+03  0.00000000000E+00 0.  1.
          6    2    1    2  501    0 -0.16214558611E+03 -0.23003934111E+02 -0.40451052570E+03  0.46963126620E+03  0.17350616331E+03 0.  0.
         24    2    3    3    0    0 -0.19315972862E+03 -0.13074838077E+02 -0.35114581713E+03  0.40693879372E+03  0.69384182626E+02 0.  0.
         -6    2    1    2    0  502  0.16214558611E+03  0.23003934111E+02 -0.32451779467E+02  0.24817102553E+03  0.18361744973E+03 0.  0.
        -24    2    5    5    0    0  0.16669121890E+03 -0.32663162371E+02 -0.75934330989E+01  0.18685613507E+03  0.77490066159E+02 0.  0.
          5    1    3    3  501    0  0.31014142513E+02 -0.99290960333E+01 -0.53364708578E+02  0.62692472478E+02  0.47000000000E+01 0. -1.
        -11    1    4    4    0    0 -0.11621750409E+03 -0.15391341783E+02 -0.27367502895E+03  0.29772709505E+03  0.00000000000E+00 0.  1.
         12    1    4    4    0    0 -0.76942224531E+02  0.23165037060E+01 -0.77470788178E+02  0.10921169867E+03  0.00000000000E+00 0. -1.
         -5    1    5    5    0  502 -0.45456327915E+01  0.55667096482E+02 -0.24858346369E+02  0.61314890462E+02  0.47000000000E+01 0.  1.
         11    1    6    6    0    0  0.96243284677E+02 -0.45238211341E+02  0.23370978078E+02  0.10888281879E+03  0.00000000000E+00 0. -1.
        -12    1    6    6    0    0  0.70447934223E+02  0.12575048970E+02 -0.30964411177E+02  0.77973316284E+02  0.00000000000E+00 0.  1.
<mgrwt>
<rscale>  2 0.24415583E+03</rscale>
<asrwt>0</asrwt>
<pdfrwt beam="1">  1       21 0.21603076E-01 0.24604012E+03</pdfrwt>
<pdfrwt beam="2">  1       21 0.88828046E-01 0.24604012E+03</pdfrwt>
<totfact> 0.20999116E+04</totfact>
</mgrwt>
</event>
<event>
12    1  0.1071811E-001  0.2668329E+03  0.7546771E-02  0.1103213E+00
         21   -1    0    0  501  502  0.00000000000E+00  0.00000000000E+00  0.35476680523E+03  0.35476680523E+03  0.00000000000E+00 0.  1.
         21   -1    0    0  502  503 -0.00000000000E+00 -0.00000000000E+00 -0.80863107228E+03  0.80863107228E+03  0.00000000000E+00 0.  1.
         -6    2    1    2    0  503 -0.55703775413E+02 -0.19481163587E+03 -0.73161129362E+03  0.77875211556E+03  0.17362398589E+03 0.  0.
        -24    2    3    3    0    0  0.33228508403E+02 -0.63639624407E+02 -0.26752183164E+03  0.28832763981E+03  0.80067233682E+02 0.  0.
          6    2    1    2  501    0  0.55703775413E+02  0.19481163587E+03  0.27774702657E+03  0.38464576195E+03  0.17249483283E+03 0.  0.
         24    2    5    5    0    0 -0.83821798702E+00  0.19318928512E+03  0.22298206214E+03  0.30577295061E+03  0.80332401896E+02 0.  0.
          5    1    5    5  501    0  0.56541993400E+02  0.16223507496E+01  0.54764964434E+02  0.78872811343E+02  0.47000000000E+01 0. -1.
        -13    1    6    6    0    0  0.21734180498E+02  0.11116473957E+03  0.17395886202E+03  0.20758530680E+03  0.00000000000E+00 0.  1.
         14    1    6    6    0    0 -0.22572398485E+02  0.82024545554E+02  0.49023200119E+02  0.98187643808E+02  0.00000000000E+00 0. -1.
         -5    1    3    3    0  503 -0.88932283817E+02 -0.13117201146E+03 -0.46408946197E+03  0.49042447574E+03  0.47000000000E+01 0.  1.
         13    1    4    4    0    0  0.19471363897E+02 -0.58184846467E+02 -0.83015735391E+02  0.10322898185E+03  0.00000000000E+00 0. -1.
        -14    1    4    4    0    0  0.13757144506E+02 -0.54547779399E+01 -0.18450609625E+03  0.18509865797E+03  0.00000000000E+00 0.  1.
<mgrwt>
<rscale>  2 0.26664933E+03</rscale>
<asrwt>0</asrwt>
<pdfrwt beam="1">  1       21 0.54579509E-01 0.26683286E+03</pdfrwt>
<pdfrwt beam="2">  1       21 0.12440478E+00 0.26683286E+03</pdfrwt>
<totfact> 0.14382991E+03</totfact>
</mgrwt>
</event>
<event>
12    1  0.1071811E-001  0.1995786E+03  0.7546771E-02  0.1150127E+00
         21   -1    0    0  501  502  0.00000000000E+00  0.00000000000E+00  0.59014654660E+02  0.59014654660E+02  0.00000000000E+00 0. -1.
         21   -1    0    0  502  503 -0.00000000000E+00 -0.00000000000E+00 -0.68892617008E+03  0.68892617008E+03  0.00000000000E+00 0. -1.
         -6    2    1    2    0  503 -0.61366725923E+01 -0.97989481699E+02 -0.36906799498E+03  0.41950367168E+03  0.17358729320E+03 0.  0.
        -24    2    3    3    0    0 -0.48931162524E+02 -0.10101437798E+03 -0.34572694330E+03  0.37043827594E+03  0.71408919123E+02 0.  0.
          6    2    1    2  501    0  0.61366725923E+01  0.97989481699E+02 -0.26084352044E+03  0.32843715306E+03  0.17375852233E+03 0.  0.
         24    2    5    5    0    0  0.62172955870E+02  0.50668264569E+02 -0.21158438350E+03  0.23996164681E+03  0.79880480240E+02 0.  0.
          5    1    5    5  501    0 -0.56036283277E+02  0.47321217130E+02 -0.49259136943E+02  0.88475506252E+02  0.47000000000E+01 0. -1.
        -11    1    6    6    0    0  0.17392019067E+02  0.35293405633E+02 -0.17702187532E+03  0.18134180751E+03  0.00000000000E+00 0.  1.
         12    1    6    6    0    0  0.44780936802E+02  0.15374858936E+02 -0.34562508178E+02  0.58619839302E+02  0.00000000000E+00 0. -1.
         -5    1    3    3    0  503  0.42794489932E+02  0.30248962825E+01 -0.23341051682E+02  0.49065395745E+02  0.47000000000E+01 0.  1.
         13    1    4    4    0    0 -0.29715698493E+02 -0.26706138501E+01 -0.50330029327E+02  0.58508689673E+02  0.00000000000E+00 0. -1.
        -14    1    4    4    0    0 -0.19215464031E+02 -0.98343764131E+02 -0.29539691397E+03  0.31192958626E+03  0.00000000000E+00 0.  1.
<mgrwt>
<rscale>  2 0.19954133E+03</rscale>
<asrwt>0</asrwt>
<pdfrwt beam="1">  1       21 0.90791774E-02 0.19957861E+03</pdfrwt>
<pdfrwt beam="2">  1       21 0.10598864E+00 0.19957861E+03</pdfrwt>
<totfact> 0.68485245E+04</totfact>
</mgrwt>
</event>
<event>
12    1  0.1071811E-001  0.1759543E+03  0.7546771E-02  0.1172048E+00
         21   -1    0    0  501  502  0.00000000000E+00  0.00000000000E+00  0.18152760095E+02  0.18152760095E+02  0.00000000000E+00 0.  1.
         21   -1    0    0  502  503 -0.00000000000E+00 -0.00000000000E+00 -0.22010698407E+04  0.22010698407E+04  0.00000000000E+00 0.  1.
         -6    2    1    2    0  503  0.27410111845E+02 -0.16622915135E+02 -0.16260922445E+04  0.16355842724E+04  0.17300950542E+03 0.  0.
        -24    2    3    3    0    0 -0.19643779538E+02 -0.62033774924E+02 -0.11851485392E+04  0.11897932271E+04  0.82442682125E+02 0.  0.
          6    2    1    2  501    0 -0.27410111845E+02  0.16622915135E+02 -0.55682483604E+03  0.58363832833E+03  0.17190743068E+03 0.  0.
         24    2    5    5    0    0 -0.68743088523E+02  0.18004486039E+02 -0.22278912280E+03  0.24701944677E+03  0.79585426485E+02 0.  0.
          5    1    5    5  501    0  0.41332976678E+02 -0.13815709032E+01 -0.33403571324E+03  0.33661888156E+03  0.47000000000E+01 0. -1.
        -11    1    6    6    0    0 -0.98945478928E+01 -0.99915062154E+01  0.84149041038E+00  0.14086886830E+02  0.00000000000E+00 0.  1.
         12    1    6    6    0    0 -0.58848540630E+02  0.27995992254E+02 -0.22363061321E+03  0.23293255994E+03  0.00000000000E+00 0. -1.
         -5    1    3    3    0  503  0.47053891383E+02  0.45410859788E+02 -0.44094370527E+03  0.44579104533E+03  0.47000000000E+01 0.  1.
         11    1    4    4    0    0  0.11220641880E+02 -0.64873730518E+02 -0.55647037710E+03  0.56035148283E+03  0.00000000000E+00 0. -1.
        -12    1    4    4    0    0 -0.30864421418E+02  0.28399555945E+01 -0.62867816215E+03  0.62944174426E+03  0.00000000000E+00 0.  1.
<mgrwt>
<rscale>  2 0.17568282E+03</rscale>
<asrwt>0</asrwt>
<pdfrwt beam="1">  1       21 0.27927337E-02 0.17595433E+03</pdfrwt>
<pdfrwt beam="2">  1       21 0.33862596E+00 0.17595433E+03</pdfrwt>
<totfact> 0.14813799E+04</totfact>
</mgrwt>
</event>
<event>
12    1  0.1071811E-001  0.1901862E+03  0.7546771E-02  0.1158502E+00
         21   -1    0    0  501  502  0.00000000000E+00  0.00000000000E+00  0.17063304695E+03  0.17063304695E+03  0.00000000000E+00 0.  1.
         21   -1    0    0  502  503 -0.00000000000E+00 -0.00000000000E+00 -0.21209325320E+03  0.21209325320E+03  0.00000000000E+00 0.  1.
         -6    2    1    2    0  503  0.19925966223E+02 -0.73757392750E+02 -0.66402716641E+01  0.18937893239E+03  0.17315625808E+03 0.  0.
        -24    2    3    3    0    0 -0.50177626550E+02 -0.34482131894E+02 -0.31093544035E+02  0.10525335742E+03  0.80029051857E+02 0.  0.
          6    2    1    2  501    0 -0.19925966223E+02  0.73757392750E+02 -0.34819934589E+02  0.19334736776E+03  0.17416538019E+03 0.  0.
         24    2    5    5    0    0 -0.30085896719E+02  0.66331576853E+02  0.43015523335E+02  0.11436119530E+03  0.76961733821E+02 0.  0.
          5    1    5    5  501    0  0.10159930496E+02  0.74258158972E+01 -0.77835457924E+02  0.78986172459E+02  0.47000000000E+01 0. -1.
        -13    1    6    6    0    0 -0.27723662239E+02 -0.88581689928E+01  0.21289612628E+02  0.36059897555E+02  0.00000000000E+00 0.  1.
         14    1    6    6    0    0 -0.23622344806E+01  0.75189745845E+02  0.21725910707E+02  0.78301297742E+02  0.00000000000E+00 0. -1.
         -5    1    3    3    0  503  0.70103592774E+02 -0.39275260855E+02  0.24453272371E+02  0.84125574974E+02  0.47000000000E+01 0.  1.
         11    1    4    4    0    0 -0.16159950708E+02 -0.56430101638E+02 -0.26850643184E+02  0.64548101577E+02  0.00000000000E+00 0. -1.
        -12    1    4    4    0    0 -0.34017675842E+02  0.21947969743E+02 -0.42429008513E+01  0.40705255842E+02  0.00000000000E+00 0.  1.
<mgrwt>
<rscale>  2 0.18995482E+03</rscale>
<asrwt>0</asrwt>
<pdfrwt beam="1">  1       21 0.26251238E-01 0.19018616E+03</pdfrwt>
<pdfrwt beam="2">  1       21 0.32629731E-01 0.19018616E+03</pdfrwt>
<totfact> 0.12480721E+05</totfact>
</mgrwt>
</event>
<event>
12    1  0.1071811E-001  0.2145167E+03  0.7546771E-02  0.1138085E+00
         21   -1    0    0  501  502  0.00000000000E+00  0.00000000000E+00  0.20251449680E+04  0.20251449680E+04  0.00000000000E+00 0.  1.
         21   -1    0    0  502  503 -0.00000000000E+00 -0.00000000000E+00 -0.82509633378E+02  0.82509633378E+02  0.00000000000E+00 0.  1.
         -6    2    1    2    0  503  0.98586973499E+02 -0.80982894439E+02  0.73921944198E+02  0.22666891617E+03  0.17215319686E+03 0.  0.
        -24    2    3    3    0    0  0.16978366278E+02 -0.97034962720E+02  0.22961539913E+02  0.12901295642E+03  0.80081594007E+02 0.  0.
          6    2    1    2  501    0 -0.98586973499E+02  0.80982894439E+02  0.18687133904E+04  0.18809856852E+04  0.17245228870E+03 0.  0.
         24    2    5    5    0    0 -0.87847548601E+02 -0.11852245265E+02  0.74441732204E+03  0.75280243866E+03  0.68532436019E+02 0.  0.
          5    1    5    5  501    0 -0.10739424898E+02  0.92835139704E+02  0.11242960684E+04  0.11281832466E+04  0.47000000000E+01 0. -1.
        -11    1    6    6    0    0 -0.92523708114E+02  0.20273565484E+01  0.69854440746E+03  0.70464816464E+03  0.00000000000E+00 0.  1.
         12    1    6    6    0    0  0.46761595129E+01 -0.13879601813E+02  0.45872914576E+02  0.48154274016E+02  0.00000000000E+00 0. -1.
         -5    1    3    3    0  503  0.81608607221E+02  0.16052068281E+02  0.50960404284E+02  0.97655959744E+02  0.47000000000E+01 0.  1.
         11    1    4    4    0    0 -0.19974878749E+02 -0.15087238741E+02  0.29729062972E+02  0.38864350491E+02  0.00000000000E+00 0. -1.
        -12    1    4    4    0    0  0.36953245027E+02 -0.81947723979E+02 -0.67675230592E+01  0.90148605934E+02  0.00000000000E+00 0.  1.
<mgrwt>
<rscale>  2 0.21445658E+03</rscale>
<asrwt>0</asrwt>
<pdfrwt beam="1">  1       21 0.31156073E+00 0.21451669E+03</pdfrwt>
<pdfrwt beam="2">  1       21 0.12693791E-01 0.21451669E+03</pdfrwt>
<totfact> 0.15112047E+03</totfact>
</mgrwt>
</event>
<event>
12    1  0.1071811E-001  0.2128706E+03  0.7546771E-02  0.1139611E+00
         21   -1    0    0  501  502  0.00000000000E+00  0.00000000000E+00  0.21884540618E+03  0.21884540618E+03  0.00000000000E+00 0.  1.
         21   -1    0    0  502  503 -0.00000000000E+00 -0.00000000000E+00 -0.20975587745E+03  0.20975587745E+03  0.00000000000E+00 0.  1.
         -6    2    1    2    0  503  0.30808192713E+02  0.12072465644E+03  0.34807789728E+02  0.21569762573E+03  0.17259865616E+03 0.  0.
        -24    2    3    3    0    0  0.69036035600E+02  0.83573564015E+02  0.69054381629E+02  0.15216424319E+03  0.81455107081E+02 0.  0.
          6    2    1    2  501    0 -0.30808192713E+02 -0.12072465644E+03 -0.25718260995E+02  0.21290365791E+03  0.17071306684E+03 0.  0.
         24    2    5    5    0    0  0.28744901805E+01 -0.59808098948E+02  0.45810212020E+02  0.11298487811E+03  0.84153049638E+02 0.  0.
          5    1    5    5  501    0 -0.33682682894E+02 -0.60916557491E+02 -0.71528473015E+02  0.99918779793E+02  0.47000000000E+01 0. -1.
        -13    1    6    6    0    0  0.26191220852E+02  0.11064220403E+02  0.92485008948E+01  0.29898692139E+02  0.00000000000E+00 0.  1.
         14    1    6    6    0    0 -0.23316730671E+02 -0.70872319350E+02  0.36561711125E+02  0.83086185974E+02  0.00000000000E+00 0. -1.
         -5    1    3    3    0  503 -0.38227842887E+02  0.37151092423E+02 -0.34246591900E+02  0.63533382539E+02  0.47000000000E+01 0.  1.
         11    1    4    4    0    0  0.25436469307E+02  0.13236907103E+01 -0.12526584289E+02  0.28384528213E+02  0.00000000000E+00 0. -1.
        -12    1    4    4    0    0  0.43599566293E+02  0.82249873305E+02  0.81580965917E+02  0.12377971498E+03  0.00000000000E+00 0.  1.
<mgrwt>
<rscale>  2 0.21248805E+03</rscale>
<asrwt>0</asrwt>
<pdfrwt beam="1">  1       21 0.33668524E-01 0.21287058E+03</pdfrwt>
<pdfrwt beam="2">  1       21 0.32270135E-01 0.21287058E+03</pdfrwt>
<totfact> 0.77829670E+04</totfact>
</mgrwt>
</event>
<event>
12    1  0.1071811E-001  0.1981456E+03  0.7546771E-02  0.1151481E+00
         21   -1    0    0  503  502  0.00000000000E+00  0.00000000000E+00  0.94814459672E+03  0.94814459672E+03  0.00000000000E+00 0. -1.
         21   -1    0    0  501  503 -0.00000000000E+00 -0.00000000000E+00 -0.97376651414E+02  0.97376651414E+02  0.00000000000E+00 0. -1.
          6    2    1    2  501    0  0.43067244167E+02 -0.86409228846E+02  0.28844038277E+02  0.20023400447E+03  0.17303275889E+03 0.  0.
         24    2    3    3    0    0 -0.22608546872E+02 -0.59886654012E+02 -0.30830536836E+02  0.10749835102E+03  0.80671034150E+02 0.  0.
         -6    2    1    2    0  502 -0.43067244167E+02  0.86409228846E+02  0.82192390703E+03  0.84528724367E+03  0.17213446201E+03 0.  0.
        -24    2    5    5    0    0 -0.18195659749E+02  0.73542978198E+02  0.80431584784E+03  0.81187661862E+03  0.80498503797E+02 0.  0.
          5    1    3    3  501    0  0.65675791039E+02 -0.26522574833E+02  0.59674575113E+02  0.92735653441E+02  0.47000000000E+01 0. -1.
        -13    1    4    4    0    0 -0.25816426902E+02  0.38698946121E+01  0.13875757564E+02  0.29563501658E+02  0.00000000000E+00 0.  1.
         14    1    4    4    0    0  0.32078800299E+01 -0.63756548624E+02 -0.44706294400E+02  0.77934849366E+02  0.00000000000E+00 0. -1.
         -5    1    5    5    0  502 -0.24871584418E+02  0.12866250647E+02  0.17608059191E+02  0.33410625041E+02  0.47000000000E+01 0.  1.
         11    1    6    6    0    0 -0.35150500796E+02  0.60864977857E+02  0.34571756145E+03  0.35278993116E+03  0.00000000000E+00 0. -1.
        -12    1    6    6    0    0  0.16954841047E+02  0.12678000341E+02  0.45859828639E+03  0.45908668746E+03  0.00000000000E+00 0.  1.
<mgrwt>
<rscale>  2 0.19794932E+03</rscale>
<asrwt>0</asrwt>
<pdfrwt beam="1">  1       21 0.14586839E+00 0.19814560E+03</pdfrwt>
<pdfrwt beam="2">  1       21 0.14981024E-01 0.19814560E+03</pdfrwt>
<totfact> 0.12595257E+04</totfact>
</mgrwt>
</event>
<event>
12    1  0.1071811E-001  0.1811851E+03  0.7546771E-02  0.1167618E+00
         21   -1    0    0  501  502  0.00000000000E+00  0.00000000000E+00  0.70015310882E+03  0.70015310882E+03  0.00000000000E+00 0. -1.
         21   -1    0    0  502  503 -0.00000000000E+00 -0.00000000000E+00 -0.54475309693E+02  0.54475309693E+02  0.00000000000E+00 0. -1.
         -6    2    1    2    0  503 -0.66518876901E+01 -0.49614181072E+02  0.17589422013E+03  0.25252093358E+03  0.17413279602E+03 0.  0.
        -24    2    3    3    0    0 -0.50821036656E+02 -0.67993109371E+01  0.16494140201E+03  0.18986248603E+03  0.78823150835E+02 0.  0.
          6    2    1    2  501    0  0.66518876901E+01  0.49614181072E+02  0.46978357899E+03  0.50210748493E+03  0.17002794111E+03 0.  0.
         24    2    5    5    0    0  0.40158985161E+02  0.48148850146E+02  0.45272956330E+03  0.46418912227E+03  0.81095177938E+02 0.  0.
          5    1    5    5  501    0 -0.33507097471E+02  0.14653309261E+01  0.17054015690E+02  0.37918362660E+02  0.47000000000E+01 0. -1.
        -11    1    6    6    0    0  0.34643290839E+02  0.61264915996E+02  0.43833379751E+03  0.44394826903E+03  0.00000000000E+00 0.  1.
         12    1    6    6    0    0  0.55156943221E+01 -0.13116065850E+02  0.14395765795E+02  0.20240853244E+02  0.00000000000E+00 0. -1.
         -5    1    3    3    0  503  0.44169148966E+02 -0.42814870135E+02  0.10952818121E+02  0.62658447554E+02  0.47000000000E+01 0.  1.
         11    1    4    4    0    0  0.76206741285E+01  0.23573213441E+02  0.24997564908E+02  0.35194450095E+02  0.00000000000E+00 0. -1.
        -12    1    4    4    0    0 -0.58441710785E+02 -0.30372524378E+02  0.13994383710E+03  0.15466803594E+03  0.00000000000E+00 0.  1.
<mgrwt>
<rscale>  2 0.18019161E+03</rscale>
<asrwt>0</asrwt>
<pdfrwt beam="1">  1       21 0.10771586E+00 0.18118511E+03</pdfrwt>
<pdfrwt beam="2">  1       21 0.83808174E-02 0.18118511E+03</pdfrwt>
<totfact> 0.76424613E+04</totfact>
</mgrwt>
</event>
<event>
12    1  0.1071811E-001  0.1973820E+03  0.7546771E-02  0.1152039E+00
         21   -1    0    0  501  502  0.00000000000E+00  0.00000000000E+00  0.34748117142E+02  0.34748117142E+02  0.00000000000E+00 0.  1.
         21   -1    0    0  502  503 -0.00000000000E+00 -0.00000000000E+00 -0.14960969008E+04  0.14960969008E+04  0.00000000000E+00 0. -1.
         -6    2    1    2    0  503  0.39206691342E+02 -0.85012750493E+02 -0.11152695584E+04  0.11326013559E+04  0.17376798098E+03 0.  0.
        -24    2    3    3    0    0 -0.16869827939E+02 -0.33438949431E+02 -0.89784546536E+03  0.90216750600E+03  0.79855962662E+02 0.  0.
          6    2    1    2  501    0 -0.39206691342E+02  0.85012750493E+02 -0.34607922528E+03  0.39824366202E+03  0.17338642326E+03 0.  0.
         24    2    5    5    0    0 -0.77284976860E+02  0.84647343465E+02 -0.18249957727E+03  0.23022437564E+03  0.80987820265E+02 0.  0.
          5    1    5    5  501    0  0.38078285519E+02  0.36540702816E+00 -0.16357964801E+03  0.16801928638E+03  0.47000000000E+01 0. -1.
        -11    1    6    6    0    0 -0.23525610033E+02  0.82125806871E+02 -0.97631859183E+02  0.12973080748E+03  0.00000000000E+00 0.  1.
         12    1    6    6    0    0 -0.53759366827E+02  0.25215365934E+01 -0.84867718088E+02  0.10049356816E+03  0.00000000000E+00 0. -1.
         -5    1    3    3    0  503  0.56076519280E+02 -0.51573801062E+02 -0.21742409303E+03  0.23043384995E+03  0.47000000000E+01 0.  1.
         13    1    4    4    0    0  0.20458123623E+02 -0.36206709516E+02 -0.66808579931E+03  0.66937888814E+03  0.00000000000E+00 0. -1.
        -14    1    4    4    0    0 -0.37327951561E+02  0.27677600856E+01 -0.22975966605E+03  0.23278861786E+03  0.00000000000E+00 0.  1.
<mgrwt>
<rscale>  2 0.19729796E+03</rscale>
<asrwt>0</asrwt>
<pdfrwt beam="1">  1       21 0.53458650E-02 0.19738197E+03</pdfrwt>
<pdfrwt beam="2">  1       21 0.23016872E+00 0.19738197E+03</pdfrwt>
<totfact> 0.20868024E+04</totfact>
</mgrwt>
</event>
<event>
12    1  0.1071811E-001  0.1853657E+03  0.7546771E-02  0.1162761E+00
         21   -1    0    0  501  502  0.00000000000E+00  0.00000000000E+00  0.37207719522E+03  0.37207719522E+03  0.00000000000E+00 0.  1.
         21   -1    0    0  502  503 -0.00000000000E+00 -0.00000000000E+00 -0.96651826780E+02  0.96651826780E+02  0.00000000000E+00 0. -1.
         -6    2    1    2    0  503 -0.32170008058E+01  0.67286610441E+02  0.87540956848E+02  0.20479533557E+03  0.17245252479E+03 0.  0.
        -24    2    3    3    0    0  0.24971405659E+02  0.38611937242E+02 -0.16205207587E+02  0.93430261257E+02  0.79700390008E+02 0.  0.
          6    2    1    2  501    0  0.32170008058E+01 -0.67286610441E+02  0.18788441159E+03  0.26393368643E+03  0.17269221660E+03 0.  0.
         24    2    5    5    0    0  0.62919137417E+02 -0.38958324594E+02  0.78947278389E+02  0.13643378100E+03  0.83095938069E+02 0.  0.
          5    1    5    5  501    0 -0.59702136611E+02 -0.28328285847E+02  0.10893713321E+03  0.12749990544E+03  0.47000000000E+01 0. -1.
        -13    1    6    6    0    0  0.43523810975E+02  0.50096873383E+01  0.76693589089E+02  0.88325113622E+02  0.00000000000E+00 0.  1.
         14    1    6    6    0    0  0.19395326442E+02 -0.43968011932E+02  0.22536892999E+01  0.48108667374E+02  0.00000000000E+00 0. -1.
         -5    1    3    3    0  503 -0.28188406465E+02  0.28674673199E+02  0.10374616443E+03  0.11136507431E+03  0.47000000000E+01 0.  1.
         13    1    4    4    0    0 -0.99590167318E+01 -0.20813704404E+02 -0.34951471946E+01  0.23336845528E+02  0.00000000000E+00 0. -1.
        -14    1    4    4    0    0  0.34930422391E+02  0.59425641646E+02 -0.12710060392E+02  0.70093415729E+02  0.00000000000E+00 0.  1.
<mgrwt>
<rscale>  2 0.18530984E+03</rscale>
<asrwt>0</asrwt>
<pdfrwt beam="1">  1       21 0.57242644E-01 0.18536569E+03</pdfrwt>
<pdfrwt beam="2">  1       21 0.14869512E-01 0.18536569E+03</pdfrwt>
<totfact> 0.11451352E+05</totfact>
</mgrwt>
</event>
<event>
12    1  0.1071811E-001  0.2141409E+03  0.7546771E-02  0.1138519E+00
         21   -1    0    0  503  502  0.00000000000E+00  0.00000000000E+00  0.34462323797E+03  0.34462323797E+03  0.00000000000E+00 0. -1.
         21   -1    0    0  501  503 -0.00000000000E+00 -0.00000000000E+00 -0.20400465228E+03  0.20400465228E+03  0.00000000000E+00 0.  1.
          6    2    1    2  501    0 -0.12440985321E+02  0.12611398970E+03 -0.92044420559E+02  0.23308471909E+03  0.17261748001E+03 0.  0.
         24    2    3    3    0    0 -0.13585475541E+02  0.15316550434E+03 -0.66306259598E+02  0.19543319546E+03  0.10076396657E+03 0.  0.
         -6    2    1    2    0  502  0.12440985321E+02 -0.12611398970E+03  0.23266300625E+03  0.31554317116E+03  0.17139399603E+03 0.  0.
        -24    2    5    5    0    0  0.74225054133E+02 -0.82394703555E+02  0.14927408125E+03  0.20282915272E+03  0.80985603823E+02 0.  0.
          5    1    3    3  501    0  0.11444902199E+01 -0.27051514644E+02 -0.25738160961E+02  0.37651523635E+02  0.47000000000E+01 0. -1.
        -13    1    4    4    0    0  0.28004539558E+02  0.32308693684E+01 -0.11906458860E+02  0.30601577006E+02  0.00000000000E+00 0.  1.
         14    1    4    4    0    0 -0.41590015099E+02  0.14993463497E+03 -0.54399800739E+02  0.16483161845E+03  0.00000000000E+00 0. -1.
         -5    1    5    5    0  502 -0.61784068812E+02 -0.43719286142E+02  0.83388925001E+02  0.11271401844E+03  0.47000000000E+01 0.  1.
         13    1    6    6    0    0  0.98586093875E+01  0.15107952094E+02  0.35139469906E+02  0.39499680262E+02  0.00000000000E+00 0. -1.
        -14    1    6    6    0    0  0.64366444746E+02 -0.97502655650E+02  0.11413461134E+03  0.16332947246E+03  0.00000000000E+00 0.  1.
<mgrwt>
<rscale>  2 0.21389419E+03</rscale>
<asrwt>0</asrwt>
<pdfrwt beam="1">  1       21 0.53018959E-01 0.21414087E+03</pdfrwt>
<pdfrwt beam="2">  1       21 0.31385331E-01 0.21414087E+03</pdfrwt>
<totfact> 0.32507219E+04</totfact>
</mgrwt>
</event>
<event>
12    1  0.1071811E-001  0.1933628E+03  0.7546771E-02  0.1155964E+00
         21   -1    0    0  501  502  0.00000000000E+00  0.00000000000E+00  0.20189677217E+03  0.20189677217E+03  0.00000000000E+00 0.  1.
         21   -1    0    0  502  503 -0.00000000000E+00 -0.00000000000E+00 -0.18723695674E+03  0.18723695674E+03  0.00000000000E+00 0. -1.
         -6    2    1    2    0  503 -0.77726141129E+02 -0.26864806349E+02 -0.21790629444E+02  0.19458679676E+03  0.17500319742E+03 0.  0.
        -24    2    3    3    0    0 -0.35922582234E+02  0.11340062673E+02 -0.75589800920E+02  0.11633342364E+03  0.80003865642E+02 0.  0.
          6    2    1    2  501    0  0.77726141129E+02  0.26864806349E+02  0.36450444869E+02  0.19454693214E+03  0.17250160301E+03 0.  0.
         24    2    5    5    0    0  0.79276159733E+02 -0.41493546693E+02  0.32042103256E+02  0.12586803827E+03  0.82520559603E+02 0.  0.
          5    1    5    5  501    0 -0.15500186037E+01  0.68358353042E+02  0.44083416135E+01  0.68678893876E+02  0.47000000000E+01 0. -1.
        -11    1    6    6    0    0  0.41068647873E+02  0.22584693986E+02  0.84701491650E+01  0.47628202438E+02  0.00000000000E+00 0.  1.
         12    1    6    6    0    0  0.38207511860E+02 -0.64078240679E+02  0.23571954091E+02  0.78239835830E+02  0.00000000000E+00 0. -1.
         -5    1    3    3    0  503 -0.41803558895E+02 -0.38204869022E+02  0.53799171476E+02  0.78253373121E+02  0.47000000000E+01 0.  1.
         13    1    4    4    0    0  0.23209445763E+02  0.16928735524E+01 -0.41021013403E+02  0.47162143018E+02  0.00000000000E+00 0. -1.
        -14    1    4    4    0    0 -0.59132027997E+02  0.96471891209E+01 -0.34568787517E+02  0.69171280625E+02  0.00000000000E+00 0.  1.
<mgrwt>
<rscale>  2 0.19279507E+03</rscale>
<asrwt>0</asrwt>
<pdfrwt beam="1">  1       21 0.31061042E-01 0.19336285E+03</pdfrwt>
<pdfrwt beam="2">  1       21 0.28805686E-01 0.19336285E+03</pdfrwt>
<totfact> 0.11480177E+05</totfact>
</mgrwt>
</event>
<event>
12    1  0.1071811E-001  0.2125652E+03  0.7546771E-02  0.1140022E+00
         21   -1    0    0  503  502  0.00000000000E+00  0.00000000000E+00  0.98331244070E+02  0.98331244070E+02  0.00000000000E+00 0.  1.
         21   -1    0    0  501  503 -0.00000000000E+00 -0.00000000000E+00 -0.46556865579E+03  0.46556865579E+03  0.00000000000E+00 0.  1.
          6    2    1    2  501    0  0.92342161293E+02 -0.70716520473E+02 -0.22844841682E+03  0.31204591786E+03  0.17792154081E+03 0.  0.
         24    2    3    3    0    0  0.62106872747E+02 -0.10081164864E+03 -0.22894433397E+03  0.26912476518E+03  0.77410458160E+02 0.  0.
         -6    2    1    2    0  502 -0.92342161293E+02  0.70716520473E+02 -0.13878899490E+03  0.25185398200E+03  0.17504325787E+03 0.  0.
        -24    2    5    5    0    0 -0.12643715463E+03  0.78515529365E+02 -0.13472744722E+03  0.21633104181E+03  0.80601440398E+02 0.  0.
          5    1    3    3  501    0  0.30235288546E+02  0.30095128170E+02  0.49591715120E+00  0.42921152674E+02  0.47000000000E+01 0. -1.
        -13    1    4    4    0    0 -0.11047445634E+02 -0.17380015523E+02 -0.84539750511E+02  0.87011955564E+02  0.00000000000E+00 0.  1.
         14    1    4    4    0    0  0.73154318381E+02 -0.83431633121E+02 -0.14440458346E+03  0.18211280962E+03  0.00000000000E+00 0. -1.
         -5    1    5    5    0  502  0.34094993339E+02 -0.77990088913E+01 -0.40615476841E+01  0.35522940194E+02  0.47000000000E+01 0.  1.
         11    1    6    6    0    0 -0.61309973379E+02  0.76385876599E+02 -0.10827626075E+03  0.14600501232E+03  0.00000000000E+00 0. -1.
        -12    1    6    6    0    0 -0.65127181252E+02  0.21296527661E+01 -0.26451186465E+02  0.70326029493E+02  0.00000000000E+00 0.  1.
<mgrwt>
<rscale>  2 0.21196184E+03</rscale>
<asrwt>0</asrwt>
<pdfrwt beam="1">  1       21 0.15127884E-01 0.21256523E+03</pdfrwt>
<pdfrwt beam="2">  1       21 0.71625947E-01 0.21256523E+03</pdfrwt>
<totfact> 0.67418652E+04</totfact>
</mgrwt>
</event>
<event>
12    1  0.1071811E-001  0.2543154E+03  0.7546771E-02  0.1110667E+00
         21   -1    0    0  501  502  0.00000000000E+00  0.00000000000E+00  0.12848223811E+03  0.12848223811E+03  0.00000000000E+00 0.  1.
         21   -1    0    0  502  503 -0.00000000000E+00 -0.00000000000E+00 -0.50397254382E+03  0.50397254382E+03  0.00000000000E+00 0.  1.
         -6    2    1    2    0  503 -0.12693574012E+03  0.13589435930E+03 -0.17155692832E+03  0.30677042020E+03  0.17348300216E+03 0.  0.
        -24    2    3    3    0    0 -0.14187267405E+03  0.11868932906E+03 -0.18994629355E+03  0.27711601387E+03  0.80614379846E+02 0.  0.
          6    2    1    2  501    0  0.12693574012E+03 -0.13589435930E+03 -0.20393337739E+03  0.32568436174E+03  0.17292056573E+03 0.  0.
         24    2    5    5    0    0  0.43191777109E+02 -0.14148988936E+03 -0.12161383499E+03  0.20802825965E+03  0.81246006362E+02 0.  0.
          5    1    5    5  501    0  0.83743963012E+02  0.55955300544E+01 -0.82319542404E+02  0.11765610209E+03  0.47000000000E+01 0. -1.
        -13    1    6    6    0    0  0.44647899528E+02 -0.10801720715E+03 -0.12862582423E+03  0.17379802827E+03  0.00000000000E+00 0.  1.
         14    1    6    6    0    0 -0.14561224186E+01 -0.33472682209E+02  0.70119892399E+01  0.34230231373E+02  0.00000000000E+00 0. -1.
         -5    1    3    3    0  503  0.14936933933E+02  0.17205030245E+02  0.18389365221E+02  0.29654406322E+02  0.47000000000E+01 0.  1.
         11    1    4    4    0    0 -0.28092514622E+02  0.55725641010E+02 -0.10384846067E+03  0.12115708493E+03  0.00000000000E+00 0. -1.
        -12    1    4    4    0    0 -0.11378015943E+03  0.62963688050E+02 -0.86097832873E+02  0.15595892895E+03  0.00000000000E+00 0.  1.
<mgrwt>
<rscale>  2 0.25421949E+03</rscale>
<asrwt>0</asrwt>
<pdfrwt beam="1">  1       21 0.19766498E-01 0.25431538E+03</pdfrwt>
<pdfrwt beam="2">  1       21 0.77534239E-01 0.25431538E+03</pdfrwt>
<totfact> 0.33784651E+04</totfact>
</mgrwt>
</event>
<event>
12    1  0.1071811E-001  0.2198718E+03  0.7546771E-02  0.1134337E+00
         21   -1    0    0  503  502  0.00000000000E+00  0.00000000000E+00  0.68829238948E+03  0.68829238948E+03  0.00000000000E+00 0. -1.
         21   -1    0    0  501  503 -0.00000000000E+00 -0.00000000000E+00 -0.71409076358E+02  0.71409076358E+02  0.00000000000E+00 0. -1.
          6    2    1    2  501    0 -0.73780313049E+02  0.10972019616E+03  0.36712355386E+03  0.42694996412E+03  0.17327582642E+03 0.  0.
         24    2    3    3    0    0 -0.85234923723E+02  0.55669144336E+02  0.34106337644E+03  0.36568050063E+03  0.83868682700E+02 0.  0.
         -6    2    1    2    0  502  0.73780313049E+02 -0.10972019616E+03  0.24975975927E+03  0.33275150172E+03  0.17567460975E+03 0.  0.
        -24    2    5    5    0    0 -0.88994976310E+01 -0.11357018895E+03  0.14068865932E+03  0.19575015727E+03  0.74481113931E+02 0.  0.
          5    1    3    3  501    0  0.11454610674E+02  0.54051051829E+02  0.26060177421E+02  0.61269463493E+02  0.47000000000E+01 0. -1.
        -11    1    4    4    0    0 -0.40008065266E+02  0.28615660400E+02  0.50950836671E+02  0.70820117650E+02  0.00000000000E+00 0.  1.
         12    1    4    4    0    0 -0.45226858456E+02  0.27053483936E+02  0.29011253977E+03  0.29486038298E+03  0.00000000000E+00 0. -1.
         -5    1    5    5    0  502  0.82679810680E+02  0.38499927896E+01  0.10907109995E+03  0.13700134446E+03  0.47000000000E+01 0.  1.
         13    1    6    6    0    0  0.23586324989E+02 -0.76323918053E+02  0.55531704978E+02  0.97290418085E+02  0.00000000000E+00 0. -1.
        -14    1    6    6    0    0 -0.32485822620E+02 -0.37246270901E+02  0.85156954339E+02  0.98459739181E+02  0.00000000000E+00 0.  1.
<mgrwt>
<rscale>  2 0.21939231E+03</rscale>
<asrwt>0</asrwt>
<pdfrwt beam="1">  1       21 0.10589113E+00 0.21987184E+03</pdfrwt>
<pdfrwt beam="2">  1       21 0.10986012E-01 0.21987184E+03</pdfrwt>
<totfact> 0.48501873E+04</totfact>
</mgrwt>
</event>
<event>
12    1  0.1071811E-001  0.2441512E+03  0.7546771E-02  0.1119211E+00
         21   -1    0    0  503  502  0.00000000000E+00  0.00000000000E+00  0.11690489364E+03  0.11690489364E+03  0.00000000000E+00 0.  1.
         21   -1    0    0  501  503 -0.00000000000E+00 -0.00000000000E+00 -0.48382357184E+03  0.48382357184E+03  0.00000000000E+00 0. -1.
          6    2    1    2  501    0 -0.13327780591E+02 -0.17142610749E+03 -0.17983203488E+03  0.30323157505E+03  0.17333576456E+03 0.  0.
         24    2    3    3    0    0 -0.25380261665E+02 -0.22161050985E+02 -0.34324606011E+02  0.94377986985E+02  0.81201945707E+02 0.  0.
         -6    2    1    2    0  502  0.13327780591E+02  0.17142610749E+03 -0.18708664333E+03  0.29749689043E+03  0.15472054692E+03 0.  0.
        -24    2    5    5    0    0  0.26599496932E+02  0.18232290966E+03 -0.13646295964E+03  0.24383381092E+03  0.82967532009E+02 0.  0.
          5    1    3    3  501    0  0.12052481074E+02 -0.14926505650E+03 -0.14550742887E+03  0.20885358807E+03  0.47000000000E+01 0. -1.
        -11    1    4    4    0    0  0.85455122297E+01 -0.41586454890E+02 -0.35388033632E+02  0.55269991261E+02  0.00000000000E+00 0.  1.
         12    1    4    4    0    0 -0.33925773895E+02  0.19425403906E+02  0.10634276208E+01  0.39107995724E+02  0.00000000000E+00 0. -1.
         -5    1    5    5    0  502 -0.13271716341E+02 -0.10896802179E+02 -0.50623683686E+02  0.53663079508E+02  0.47000000000E+01 0.  1.
         11    1    6    6    0    0 -0.23067468663E+02  0.44497170748E+02 -0.61280796667E+02  0.79167179785E+02  0.00000000000E+00 0. -1.
        -12    1    6    6    0    0  0.49666965595E+02  0.13782573892E+03 -0.75182162974E+02  0.16466663113E+03  0.00000000000E+00 0.  1.
<mgrwt>
<rscale>  2 0.24087485E+03</rscale>
<asrwt>0</asrwt>
<pdfrwt beam="1">  1       21 0.17985368E-01 0.24415124E+03</pdfrwt>
<pdfrwt beam="2">  1       21 0.74434396E-01 0.24415124E+03</pdfrwt>
<totfact> 0.44376972E+04</totfact>
</mgrwt>
</event>
<event>
12    1  0.1071811E-001  0.2844342E+03  0.7546771E-02  0.1093351E+00
         21   -1    0    0  501  502  0.00000000000E+00  0.00000000000E+00  0.10606380981E+03  0.10606380981E+03  0.00000000000E+00 0.  1.
         21   -1    0    0  502  503 -0.00000000000E+00 -0.00000000000E+00 -0.86881990402E+03  0.86881990402E+03  0.00000000000E+00 0. -1.
         -6    2    1    2    0  503  0.13104582788E+03 -0.18393146000E+03 -0.21039442115E+03  0.35379179384E+03  0.17291335968E+03 0.  0.
        -24    2    3    3    0    0  0.13060158494E+03 -0.19012501926E+03 -0.13466854295E+03  0.27766652762E+03  0.75886673153E+02 0.  0.
          6    2    1    2  501    0 -0.13104582788E+03  0.18393146000E+03 -0.55236167305E+03  0.62109191999E+03  0.17218584216E+03 0.  0.
         24    2    5    5    0    0 -0.15718969147E+03  0.12047721419E+03 -0.44852292065E+03  0.49653462629E+03  0.78424910025E+02 0.  0.
          5    1    5    5  501    0  0.26143863587E+02  0.63454245810E+02 -0.10383875240E+03  0.12455729371E+03  0.47000000000E+01 0. -1.
        -11    1    6    6    0    0 -0.85580256218E+02  0.36363432098E+02 -0.13339373642E+03  0.16260433071E+03  0.00000000000E+00 0.  1.
         12    1    6    6    0    0 -0.71609435249E+02  0.84113782089E+02 -0.31512918423E+03  0.33393029558E+03  0.00000000000E+00 0. -1.
         -5    1    3    3    0  503  0.44424293616E+00  0.61935592598E+01 -0.75725878197E+02  0.76125266219E+02  0.47000000000E+01 0.  1.
         11    1    4    4    0    0  0.79931644884E+02 -0.56430382649E+02 -0.72415479204E+02  0.12172697962E+03  0.00000000000E+00 0. -1.
        -12    1    4    4    0    0  0.50669940059E+02 -0.13369463661E+03 -0.62253063751E+02  0.15593954800E+03  0.00000000000E+00 0.  1.
<mgrwt>
<rscale>  2 0.28432373E+03</rscale>
<asrwt>0</asrwt>
<pdfrwt beam="1">  1       21 0.16317510E-01 0.28443421E+03</pdfrwt>
<pdfrwt beam="2">  1       21 0.13366460E+00 0.28443421E+03</pdfrwt>
<totfact> 0.12830401E+04</totfact>
</mgrwt>
</event>
<event>
12    1  0.1071811E-001  0.2347635E+03  0.7546771E-02  0.1123435E+00
         21   -1    0    0  501  502  0.00000000000E+00  0.00000000000E+00  0.14004646866E+03  0.14004646866E+03  0.00000000000E+00 0.  1.
         21   -1    0    0  502  503 -0.00000000000E+00 -0.00000000000E+00 -0.42060163071E+03  0.42060163071E+03  0.00000000000E+00 0. -1.
         -6    2    1    2    0  503  0.13887445417E+03 -0.76455864539E+02 -0.21286905763E+03  0.31690238836E+03  0.17315390496E+03 0.  0.
        -24    2    3    3    0    0  0.35890732942E+02 -0.81159189646E+02 -0.16264064981E+03  0.20212978248E+03  0.80805378671E+02 0.  0.
          6    2    1    2  501    0 -0.13887445417E+03  0.76455864539E+02 -0.67686104414E+02  0.24374571101E+03  0.17233383202E+03 0.  0.
         24    2    5    5    0    0 -0.10286097779E+02  0.32088830633E+02 -0.63557747648E+02  0.10757474337E+03  0.79982756056E+02 0.  0.
          5    1    5    5  501    0 -0.12858835640E+03  0.44367033907E+02 -0.41283567666E+01  0.13617096764E+03  0.47000000000E+01 0. -1.
        -11    1    6    6    0    0 -0.26587207547E+02  0.53186191645E+02 -0.37526312249E+02  0.70312692296E+02  0.00000000000E+00 0.  1.
         12    1    6    6    0    0  0.16301109768E+02 -0.21097361013E+02 -0.26031435399E+02  0.37262051075E+02  0.00000000000E+00 0. -1.
         -5    1    3    3    0  503  0.10298372123E+03  0.47033251065E+01 -0.50228407825E+02  0.11477260587E+03  0.47000000000E+01 0.  1.
         13    1    4    4    0    0  0.28467901538E+02 -0.49810538766E+02 -0.15980297245E+03  0.16978957916E+03  0.00000000000E+00 0. -1.
        -14    1    4    4    0    0  0.74228314043E+01 -0.31348650879E+02 -0.28376773625E+01  0.32340203321E+02  0.00000000000E+00 0.  1.
<mgrwt>
<rscale>  2 0.23461228E+03</rscale>
<asrwt>0</asrwt>
<pdfrwt beam="1">  1       21 0.21545611E-01 0.23476347E+03</pdfrwt>
<pdfrwt beam="2">  1       21 0.64707943E-01 0.23476347E+03</pdfrwt>
<totfact> 0.43303883E+04</totfact>
</mgrwt>
</event>
<event>
12    1  0.1071811E-001  0.2026249E+03  0.7546771E-02  0.1147561E+00
         21   -1    0    0  501  502  0.00000000000E+00  0.00000000000E+00  0.78466581886E+03  0.78466581886E+03  0.00000000000E+00 0. -1.
         21   -1    0    0  502  503 -0.00000000000E+00 -0.00000000000E+00 -0.61214779304E+02  0.61214779304E+02  0.00000000000E+00 0. -1.
         -6    2    1    2    0  503  0.10428121854E+03 -0.23345212000E+02  0.20027986084E+03  0.28484144152E+03  0.17205537680E+03 0.  0.
        -24    2    3    3    0    0  0.82115838562E+02  0.42332549684E+02  0.17064782478E+03  0.20930985865E+03  0.78453050430E+02 0.  0.
          6    2    1    2  501    0 -0.10428121854E+03  0.23345212000E+02  0.52317117871E+03  0.56103915664E+03  0.17215481866E+03 0.  0.
         24    2    5    5    0    0 -0.86186798657E+02  0.80453693988E+02  0.38274229362E+03  0.40829378515E+03  0.79443001719E+02 0.  0.
          5    1    5    5  501    0 -0.18094419879E+02 -0.57108481988E+02  0.14042888509E+03  0.15274537150E+03  0.47000000000E+01 0. -1.
        -13    1    6    6    0    0 -0.49384428487E+02  0.85533600544E+01  0.75572102627E+02  0.90681444853E+02  0.00000000000E+00 0.  1.
         14    1    6    6    0    0 -0.36802370170E+02  0.71900333934E+02  0.30717019100E+03  0.31761234029E+03  0.00000000000E+00 0. -1.
         -5    1    3    3    0  503  0.22165379974E+02 -0.65677761684E+02  0.29632036060E+02  0.75531582866E+02  0.47000000000E+01 0.  1.
         13    1    4    4    0    0  0.72894514962E+02  0.93781751894E+01  0.15528510019E+03  0.17179936793E+03  0.00000000000E+00 0. -1.
        -14    1    4    4    0    0  0.92213235997E+01  0.32954374495E+02  0.15362724593E+02  0.37510490722E+02  0.00000000000E+00 0.  1.
<mgrwt>
<rscale>  2 0.20260378E+03</rscale>
<asrwt>0</asrwt>
<pdfrwt beam="1">  1       21 0.12071781E+00 0.20262491E+03</pdfrwt>
<pdfrwt beam="2">  1       21 0.94176589E-02 0.20262491E+03</pdfrwt>
<totfact> 0.46682032E+04</totfact>
</mgrwt>
</event>
<event>
12    1  0.1071811E-001  0.1973264E+03  0.7546771E-02  0.1152260E+00
         21   -1    0    0  501  502  0.00000000000E+00  0.00000000000E+00  0.25309291140E+03  0.25309291140E+03  0.00000000000E+00 0. -1.
         21   -1    0    0  502  503 -0.00000000000E+00 -0.00000000000E+00 -0.20007272505E+03  0.20007272505E+03  0.00000000000E+00 0. -1.
         -6    2    1    2    0  503  0.78082963150E+02  0.52197671515E+02  0.13651914827E+03  0.23994828425E+03  0.17354006807E+03 0.  0.
        -24    2    3    3    0    0 -0.15191274297E+02 -0.73798000100E+01  0.17605449922E+02  0.77430235596E+02  0.73486415442E+02 0.  0.
          6    2    1    2  501    0 -0.78082963150E+02 -0.52197671515E+02 -0.83498961926E+02  0.21321735220E+03  0.17224406112E+03 0.  0.
         24    2    5    5    0    0  0.81260479861E+01 -0.34342454213E+01 -0.48825359871E+02  0.10817348515E+03  0.96123672552E+02 0.  0.
          5    1    5    5  501    0 -0.86209011136E+02 -0.48763426094E+02 -0.34673602055E+02  0.10504386705E+03  0.47000000000E+01 0. -1.
        -13    1    6    6    0    0 -0.33751186821E+02 -0.14270044036E+02  0.72485829620E+01  0.37353965299E+02  0.00000000000E+00 0.  1.
         14    1    6    6    0    0  0.41877234807E+02  0.10835798614E+02 -0.56073942833E+02  0.70819519848E+02  0.00000000000E+00 0. -1.
         -5    1    3    3    0  503  0.93274237447E+02  0.59577471525E+02  0.11891369835E+03  0.16251804866E+03  0.47000000000E+01 0.  1.
         13    1    4    4    0    0 -0.28241385149E+01 -0.31964542237E+01  0.45989895094E+02  0.46187265872E+02  0.00000000000E+00 0. -1.
        -14    1    4    4    0    0 -0.12367135782E+02 -0.41833457862E+01 -0.28384445172E+02  0.31242969724E+02  0.00000000000E+00 0.  1.
<mgrwt>
<rscale>  2 0.19704106E+03</rscale>
<asrwt>0</asrwt>
<pdfrwt beam="1">  1       21 0.38937371E-01 0.19732638E+03</pdfrwt>
<pdfrwt beam="2">  1       21 0.30780419E-01 0.19732638E+03</pdfrwt>
<totfact> 0.64319377E+04</totfact>
</mgrwt>
</event>
<event>
12    1  0.1071811E-001  0.1746654E+03  0.7546771E-02  0.1173411E+00
         21   -1    0    0  501  502  0.00000000000E+00  0.00000000000E+00  0.78650835478E+02  0.78650835478E+02  0.00000000000E+00 0. -1.
         21   -1    0    0  502  503 -0.00000000000E+00 -0.00000000000E+00 -0.38491399574E+03  0.38491399574E+03  0.00000000000E+00 0. -1.
         -6    2    1    2    0  503 -0.15702046240E+02 -0.75699139146E+01 -0.15036539441E+03  0.22944495620E+03  0.17242789287E+03 0.  0.
        -24    2    3    3    0    0  0.22905198205E+02 -0.46185792342E+02 -0.14589907020E+03  0.17445638064E+03  0.80564970940E+02 0.  0.
          6    2    1    2  501    0  0.15702046240E+02  0.75699139146E+01 -0.15589776585E+03  0.23411987501E+03  0.17379339638E+03 0.  0.
         24    2    5    5    0    0 -0.55182357052E+02  0.85020366482E+01 -0.11979320232E+03  0.15442610492E+03  0.79872607338E+02 0.  0.
          5    1    5    5  501    0  0.70884403291E+02 -0.93212273360E+00 -0.36104563537E+02  0.79693770089E+02  0.47000000000E+01 0. -1.
        -11    1    6    6    0    0 -0.66354679865E+01 -0.39687924643E+01 -0.10037614015E+03  0.10067348341E+03  0.00000000000E+00 0.  1.
         12    1    6    6    0    0 -0.48546889065E+02  0.12470829112E+02 -0.19417062161E+02  0.53752621514E+02  0.00000000000E+00 0. -1.
         -5    1    3    3    0  503 -0.38607244445E+02  0.38615878428E+02 -0.44663242057E+01  0.54988575562E+02  0.47000000000E+01 0.  1.
         13    1    4    4    0    0  0.84886051909E+01  0.17919408829E+02 -0.75912397317E+02  0.78459248640E+02  0.00000000000E+00 0. -1.
        -14    1    4    4    0    0  0.14416593014E+02 -0.64105201171E+02 -0.69986672884E+02  0.95997132003E+02  0.00000000000E+00 0.  1.
<mgrwt>
<rscale>  2 0.17432475E+03</rscale>
<asrwt>0</asrwt>
<pdfrwt beam="1">  1       21 0.12100128E-01 0.17466540E+03</pdfrwt>
<pdfrwt beam="2">  1       21 0.59217538E-01 0.17466540E+03</pdfrwt>
<totfact> 0.15500414E+05</totfact>
</mgrwt>
</event>
<event>
12    1  0.1071811E-001  0.2301398E+03  0.7546771E-02  0.1126968E+00
         21   -1    0    0  501  502  0.00000000000E+00  0.00000000000E+00  0.72751217236E+02  0.72751217236E+02  0.00000000000E+00 0. -1.
         21   -1    0    0  502  503 -0.00000000000E+00 -0.00000000000E+00 -0.10791331141E+04  0.10791331141E+04  0.00000000000E+00 0.  1.
         -6    2    1    2    0  503 -0.10884557486E+03  0.10466012825E+03 -0.83348411616E+03  0.86403371621E+03  0.17046228101E+03 0.  0.
        -24    2    3    3    0    0 -0.13068014246E+03  0.43272257529E+02 -0.54368151089E+03  0.56695988863E+03  0.83091167544E+02 0.  0.
          6    2    1    2  501    0  0.10884557486E+03 -0.10466012825E+03 -0.17289778067E+03  0.28785061509E+03  0.17367565297E+03 0.  0.
         24    2    5    5    0    0  0.13498074538E+03 -0.71346136152E+02 -0.17293936485E+03  0.24524825674E+03  0.83238276950E+02 0.  0.
          5    1    5    5  501    0 -0.26135170522E+02 -0.33313992095E+02  0.41584188715E-01  0.42602358347E+02  0.47000000000E+01 0. -1.
        -13    1    6    6    0    0  0.10988582071E+02 -0.40524897265E+02 -0.21697273458E+02  0.47262965521E+02  0.00000000000E+00 0.  1.
         14    1    6    6    0    0  0.12399216331E+03 -0.30821238887E+02 -0.15124209140E+03  0.19798529122E+03  0.00000000000E+00 0. -1.
         -5    1    3    3    0  503  0.21834567599E+02  0.61387870717E+02 -0.28980260527E+03  0.29707382759E+03  0.47000000000E+01 0.  1.
         13    1    4    4    0    0 -0.10018763506E+03  0.14674389611E+02 -0.24103546599E+03  0.26144023369E+03  0.00000000000E+00 0. -1.
        -14    1    4    4    0    0 -0.30492507404E+02  0.28597867918E+02 -0.30264604491E+03  0.30551965494E+03  0.00000000000E+00 0.  1.
<mgrwt>
<rscale>  2 0.22953362E+03</rscale>
<asrwt>0</asrwt>
<pdfrwt beam="1">  1       21 0.11192496E-01 0.23013981E+03</pdfrwt>
<pdfrwt beam="2">  1       21 0.16602047E+00 0.23013981E+03</pdfrwt>
<totfact> 0.14740612E+04</totfact>
</mgrwt>
</event>
<event>
12    1  0.1071811E-001  0.2695962E+03  0.7546771E-02  0.1101633E+00
         21   -1    0    0  501  502  0.00000000000E+00  0.00000000000E+00  0.15776819285E+03  0.15776819285E+03  0.00000000000E+00 0.  1.
         21   -1    0    0  502  503 -0.00000000000E+00 -0.00000000000E+00 -0.71427371857E+03  0.71427371857E+03  0.00000000000E+00 0. -1.
         -6    2    1    2    0  503 -0.14935437157E+03  0.14237639395E+03 -0.53907357945E+03  0.60272913369E+03  0.17350596152E+03 0.  0.
        -24    2    3    3    0    0 -0.87848356210E+02  0.94782871111E+02 -0.48388889497E+03  0.50725362509E+03  0.80353289610E+02 0.  0.
          6    2    1    2  501    0  0.14935437157E+03 -0.14237639395E+03 -0.17431946273E+02  0.26931277772E+03  0.17218517251E+03 0.  0.
         24    2    5    5    0    0  0.13421272654E+03 -0.84431802534E+02 -0.68785990836E+02  0.19028004411E+03  0.79581388572E+02 0.  0.
          5    1    5    5  501    0  0.15141645026E+02 -0.57944591411E+02  0.51354044563E+02  0.79032733604E+02  0.47000000000E+01 0. -1.
        -13    1    6    6    0    0  0.80118462645E+02 -0.59670656580E+02 -0.74810678945E+00  0.99900525409E+02  0.00000000000E+00 0.  1.
         14    1    6    6    0    0  0.54094263900E+02 -0.24761145954E+02 -0.68037884047E+02  0.90379518705E+02  0.00000000000E+00 0. -1.
         -5    1    3    3    0  503 -0.61506015360E+02  0.47593522834E+02 -0.55184684479E+02  0.95475508599E+02  0.47000000000E+01 0.  1.
         13    1    4    4    0    0  0.50479094480E+01 -0.43267542238E+01 -0.96682213420E+02  0.96910539075E+02  0.00000000000E+00 0. -1.
        -14    1    4    4    0    0 -0.92896265658E+02  0.99109625335E+02 -0.38720668155E+03  0.41034308602E+03  0.00000000000E+00 0.  1.
<mgrwt>
<rscale>  2 0.26938387E+03</rscale>
<asrwt>0</asrwt>
<pdfrwt beam="1">  1       21 0.24272030E-01 0.26959615E+03</pdfrwt>
<pdfrwt beam="2">  1       21 0.10988826E+00 0.26959615E+03</pdfrwt>
<totfact> 0.10003729E+04</totfact>
</mgrwt>
</event>
<event>
12    1  0.1071811E-001  0.2139470E+03  0.7546771E-02  0.1139484E+00
         21   -1    0    0  501  502  0.00000000000E+00  0.00000000000E+00  0.12104456441E+03  0.12104456441E+03  0.00000000000E+00 0.  1.
         21   -1    0    0  502  503 -0.00000000000E+00 -0.00000000000E+00 -0.60274274870E+03  0.60274274870E+03  0.00000000000E+00 0.  1.
         -6    2    1    2    0  503  0.44343933894E+02 -0.11715472483E+03 -0.46793530853E+03  0.51452579177E+03  0.17344083546E+03 0.  0.
        -24    2    3    3    0    0 -0.14484343918E+00 -0.53994068127E+02 -0.39959412235E+03  0.41127305528E+03  0.80960996868E+02 0.  0.
          6    2    1    2  501    0 -0.44343933894E+02  0.11715472483E+03 -0.13762875762E+02  0.20926152133E+03  0.16706092763E+03 0.  0.
         24    2    5    5    0    0 -0.46782510591E+02  0.16155192181E+02 -0.41565619848E+02  0.10437141298E+03  0.81951800243E+02 0.  0.
          5    1    5    5  501    0  0.24385766972E+01  0.10099953265E+03  0.27802744086E+02  0.10489010835E+03  0.47000000000E+01 0. -1.
        -11    1    6    6    0    0 -0.30607381179E+02 -0.77920893131E+01  0.19286051437E+02  0.37006488871E+02  0.00000000000E+00 0.  1.
         12    1    6    6    0    0 -0.16175129412E+02  0.23947281495E+02 -0.60851671285E+02  0.67364924112E+02  0.00000000000E+00 0. -1.
         -5    1    3    3    0  503  0.44488777333E+02 -0.63160656702E+02 -0.68341186180E+02  0.10325273649E+03  0.47000000000E+01 0.  1.
         13    1    4    4    0    0 -0.22771311083E+02 -0.50295357779E+02 -0.13738445370E+03  0.14806297222E+03  0.00000000000E+00 0. -1.
        -14    1    4    4    0    0  0.22626467644E+02 -0.36987103483E+01 -0.26220966864E+03  0.26321008306E+03  0.00000000000E+00 0.  1.
<mgrwt>
<rscale>  2 0.21265066E+03</rscale>
<asrwt>0</asrwt>
<pdfrwt beam="1">  1       21 0.18622241E-01 0.21394704E+03</pdfrwt>
<pdfrwt beam="2">  1       21 0.92729654E-01 0.21394704E+03</pdfrwt>
<totfact> 0.25525471E+04</totfact>
</mgrwt>
</event>
<event>
12    1  0.1071811E-001  0.1985318E+03  0.7546771E-02  0.1151133E+00
         21   -1    0    0  503  502  0.00000000000E+00  0.00000000000E+00  0.11542010822E+03  0.11542010822E+03  0.00000000000E+00 0. -1.
         21   -1    0    0  501  503 -0.00000000000E+00 -0.00000000000E+00 -0.69552924475E+03  0.69552924475E+03  0.00000000000E+00 0.  1.
          6    2    1    2  501    0 -0.50414245178E+02  0.83530136695E+02 -0.57958371112E+03  0.61241687962E+03  0.17209961183E+03 0.  0.
         24    2    3    3    0    0  0.18747455367E+02  0.34221514545E+02 -0.43298878411E+03  0.44292692810E+03  0.84749025543E+02 0.  0.
         -6    2    1    2    0  502  0.50414245178E+02 -0.83530136695E+02 -0.52542540992E+00  0.19853247335E+03  0.17290456052E+03 0.  0.
        -24    2    5    5    0    0  0.10637636266E+02 -0.12286200201E+02  0.55798645650E+02  0.99273377622E+02  0.80483567437E+02 0.  0.
          5    1    3    3  501    0 -0.69161700545E+02  0.49308622150E+02 -0.14659492701E+03  0.16948995152E+03  0.47000000000E+01 0. -1.
        -11    1    4    4    0    0 -0.17924956558E+01  0.25235697318E+02 -0.41012741966E+03  0.41090698925E+03  0.00000000000E+00 0.  1.
         12    1    4    4    0    0  0.20539951023E+02  0.89858172272E+01 -0.22861364451E+02  0.32019938848E+02  0.00000000000E+00 0. -1.
         -5    1    5    5    0  502  0.39776608912E+02 -0.71243936494E+02 -0.56324071059E+02  0.99259095726E+02  0.47000000000E+01 0.  1.
         13    1    6    6    0    0 -0.26216686734E+02  0.13299025959E+02  0.23497936393E+01  0.29490681323E+02  0.00000000000E+00 0. -1.
        -14    1    6    6    0    0  0.36854323000E+02 -0.25585226160E+02  0.53448852010E+02  0.69782696298E+02  0.00000000000E+00 0.  1.
<mgrwt>
<rscale>  2 0.19835638E+03</rscale>
<asrwt>0</asrwt>
<pdfrwt beam="1">  1       21 0.17756940E-01 0.19853178E+03</pdfrwt>
<pdfrwt beam="2">  1       21 0.10700450E+00 0.19853178E+03</pdfrwt>
<totfact> 0.20024988E+04</totfact>
</mgrwt>
</event>
<event>
12    1  0.1071811E-001  0.2049986E+03  0.7546771E-02  0.1146698E+00
         21   -1    0    0  501  502  0.00000000000E+00  0.00000000000E+00  0.50097023426E+02  0.50097023426E+02  0.00000000000E+00 0. -1.
         21   -1    0    0  502  503 -0.00000000000E+00 -0.00000000000E+00 -0.84202759507E+03  0.84202759507E+03  0.00000000000E+00 0. -1.
         -6    2    1    2    0  503 -0.93836570352E+02  0.49145661902E+02 -0.32429690504E+03  0.38365726529E+03  0.17551016087E+03 0.  0.
        -24    2    3    3    0    0 -0.11402972455E+03  0.31912228172E+02 -0.32664422071E+03  0.35659521427E+03  0.80265381844E+02 0.  0.
          6    2    1    2  501    0  0.93836570352E+02 -0.49145661902E+02 -0.46763366661E+03  0.50846735321E+03  0.16922530874E+03 0.  0.
         24    2    5    5    0    0 -0.96030833692E+00 -0.63822762834E+02 -0.20522618398E+03  0.22903642715E+03  0.79155739672E+02 0.  0.
          5    1    5    5  501    0  0.94796878689E+02  0.14677100932E+02 -0.26240748263E+03  0.27943092606E+03  0.47000000000E+01 0. -1.
        -13    1    6    6    0    0 -0.44722317645E+01  0.15987679953E+02 -0.70300080599E+02  0.72233704733E+02  0.00000000000E+00 0.  1.
         14    1    6    6    0    0  0.35119234276E+01 -0.79810442786E+02 -0.13492610338E+03  0.15680272242E+03  0.00000000000E+00 0. -1.
         -5    1    3    3    0  503  0.20193154202E+02  0.17233433730E+02  0.23473156718E+01  0.27062051023E+02  0.47000000000E+01 0.  1.
         11    1    4    4    0    0 -0.38147816210E+02 -0.26760451615E+02 -0.12166767704E+03  0.13028584454E+03  0.00000000000E+00 0. -1.
        -12    1    4    4    0    0 -0.75881908344E+02  0.58672679787E+02 -0.20497654368E+03  0.22630936972E+03  0.00000000000E+00 0.  1.
<mgrwt>
<rscale>  2 0.20364666E+03</rscale>
<asrwt>0</asrwt>
<pdfrwt beam="1">  1       21 0.77072346E-02 0.20499857E+03</pdfrwt>
<pdfrwt beam="2">  1       21 0.12954270E+00 0.20499857E+03</pdfrwt>
<totfact> 0.55476023E+04</totfact>
</mgrwt>
</event>
<event>
12    1  0.1071811E-001  0.1969830E+03  0.7546771E-02  0.1152716E+00
         21   -1    0    0  501  502  0.00000000000E+00  0.00000000000E+00  0.70742596541E+03  0.70742596541E+03  0.00000000000E+00 0. -1.
         21   -1    0    0  502  503 -0.00000000000E+00 -0.00000000000E+00 -0.69346395731E+02  0.69346395731E+02  0.00000000000E+00 0. -1.
         -6    2    1    2    0  503 -0.85425609340E+02  0.33920790840E+02  0.13709595542E+03  0.23845378129E+03  0.17209517727E+03 0.  0.
        -24    2    3    3    0    0 -0.46743952918E+02  0.75467023103E+01  0.16070696644E+03  0.18580938053E+03  0.80352019141E+02 0.  0.
          6    2    1    2  501    0  0.85425609340E+02 -0.33920790840E+02  0.50098361426E+03  0.53831857985E+03  0.17422444395E+03 0.  0.
         24    2    5    5    0    0 -0.20298955454E+02 -0.31020595510E+02  0.26888041612E+03  0.28321060404E+03  0.80853219660E+02 0.  0.
          5    1    5    5  501    0  0.10572456479E+03 -0.29001953293E+01  0.23210319814E+03  0.25510797581E+03  0.47000000000E+01 0. -1.
        -13    1    6    6    0    0 -0.33138882957E+02 -0.50581613266E+02  0.14440509541E+03  0.15655515560E+03  0.00000000000E+00 0.  1.
         14    1    6    6    0    0  0.12839927503E+02  0.19561017756E+02  0.12447532071E+03  0.12665544844E+03  0.00000000000E+00 0. -1.
         -5    1    3    3    0  503 -0.38681656422E+02  0.26374088529E+02 -0.23611011029E+02  0.52644400758E+02  0.47000000000E+01 0.  1.
         11    1    4    4    0    0 -0.29834490979E+02  0.31319225691E+02  0.31914708994E+02  0.53754436096E+02  0.00000000000E+00 0. -1.
        -12    1    4    4    0    0 -0.16909461939E+02 -0.23772523380E+02  0.12879225745E+03  0.13205494444E+03  0.00000000000E+00 0.  1.
<mgrwt>
<rscale>  2 0.19651115E+03</rscale>
<asrwt>0</asrwt>
<pdfrwt beam="1">  1       21 0.10883476E+00 0.19698302E+03</pdfrwt>
<pdfrwt beam="2">  1       21 0.10668677E-01 0.19698302E+03</pdfrwt>
<totfact> 0.48381284E+04</totfact>
</mgrwt>
</event>
<event>
12    1  0.1071811E-001  0.2187213E+03  0.7546771E-02  0.1134902E+00
         21   -1    0    0  503  502  0.00000000000E+00  0.00000000000E+00  0.80371587382E+03  0.80371587382E+03  0.00000000000E+00 0. -1.
         21   -1    0    0  501  503 -0.00000000000E+00 -0.00000000000E+00 -0.64017305911E+02  0.64017305911E+02  0.00000000000E+00 0. -1.
          6    2    1    2  501    0  0.13327883354E+03 -0.47040030282E+00  0.48570543440E+03  0.53254439777E+03  0.17300375095E+03 0.  0.
         24    2    3    3    0    0  0.26693966689E+02 -0.15903022908E+02  0.34262322365E+03  0.35339890183E+03  0.80837098134E+02 0.  0.
         -6    2    1    2    0  502 -0.13327883354E+03  0.47040030282E+00  0.25399313350E+03  0.33518878196E+03  0.17342300579E+03 0.  0.
        -24    2    5    5    0    0 -0.70132750696E+02 -0.45562017290E+02  0.22321211292E+03  0.25106998218E+03  0.78854222824E+02 0.  0.
          5    1    3    3  501    0  0.10658486685E+03  0.15432622605E+02  0.14308221075E+03  0.17914549594E+03  0.47000000000E+01 0. -1.
        -13    1    4    4    0    0  0.15642118734E+02 -0.48803786261E+02  0.18263498468E+03  0.18968928030E+03  0.00000000000E+00 0.  1.
         14    1    4    4    0    0  0.11051847955E+02  0.32900763353E+02  0.15998823897E+03  0.16370962153E+03  0.00000000000E+00 0. -1.
         -5    1    5    5    0  502 -0.63146082845E+02  0.46032417593E+02  0.30781020583E+02  0.84118799779E+02  0.47000000000E+01 0.  1.
         11    1    6    6    0    0 -0.42719926949E+02 -0.42886478769E+02  0.58880555867E+02  0.84446208198E+02  0.00000000000E+00 0. -1.
        -12    1    6    6    0    0 -0.27412823746E+02 -0.26755385212E+01  0.16433155705E+03  0.16662377398E+03  0.00000000000E+00 0.  1.
<mgrwt>
<rscale>  2 0.21863819E+03</rscale>
<asrwt>0</asrwt>
<pdfrwt beam="1">  1       21 0.12364859E+00 0.21872130E+03</pdfrwt>
<pdfrwt beam="2">  1       21 0.98488169E-02 0.21872130E+03</pdfrwt>
<totfact> 0.40282227E+04</totfact>
</mgrwt>
</event>
<event>
12    1  0.1071811E-001  0.2444125E+03  0.7546771E-02  0.1117379E+00
         21   -1    0    0  503  502  0.00000000000E+00  0.00000000000E+00  0.25450420349E+03  0.25450420349E+03  0.00000000000E+00 0.  1.
         21   -1    0    0  501  503 -0.00000000000E+00 -0.00000000000E+00 -0.37009317574E+03  0.37009317574E+03  0.00000000000E+00 0.  1.
          6    2    1    2  501    0  0.16838862924E+03  0.32245602702E+02 -0.24888558219E+03  0.34882876415E+03  0.17419231993E+03 0.  0.
         24    2    3    3    0    0  0.15766951846E+03  0.80303385966E+02 -0.19554437590E+03  0.27608383885E+03  0.81709070967E+02 0.  0.
         -6    2    1    2    0  502 -0.16838862924E+03 -0.32245602702E+02  0.13329660994E+03  0.27576861509E+03  0.16995832870E+03 0.  0.
        -24    2    5    5    0    0 -0.87554299968E+02  0.36718446805E+02  0.30867546416E+02  0.12810673115E+03  0.80277826117E+02 0.  0.
          5    1    3    3  501    0  0.10719110783E+02 -0.48057783264E+02 -0.53341206285E+02  0.72744925295E+02  0.47000000000E+01 0. -1.
        -13    1    4    4    0    0  0.10805827749E+03  0.73738488952E+02 -0.18218345559E+03  0.22428724346E+03  0.00000000000E+00 0.  1.
         14    1    4    4    0    0  0.49611240962E+02  0.65648970140E+01 -0.13360920318E+02  0.51796595394E+02  0.00000000000E+00 0. -1.
         -5    1    5    5    0  502 -0.80834329272E+02 -0.68964049507E+02  0.10242906353E+03  0.14766188394E+03  0.47000000000E+01 0.  1.
         13    1    6    6    0    0  0.72085293485E+01  0.20779680307E+02  0.22792379181E+02  0.31674130734E+02  0.00000000000E+00 0. -1.
        -14    1    6    6    0    0 -0.94762829317E+02  0.15938766499E+02  0.80751672344E+01  0.96432600418E+02  0.00000000000E+00 0.  1.
<mgrwt>
<rscale>  2 0.24365921E+03</rscale>
<asrwt>0</asrwt>
<pdfrwt beam="1">  1       21 0.39154493E-01 0.24441251E+03</pdfrwt>
<pdfrwt beam="2">  1       21 0.56937411E-01 0.24441251E+03</pdfrwt>
<totfact> 0.17700710E+04</totfact>
</mgrwt>
</event>
<event>
12    1  0.1071811E-001  0.1790009E+03  0.7546771E-02  0.1169315E+00
         21   -1    0    0  501  502  0.00000000000E+00  0.00000000000E+00  0.23134585806E+03  0.23134585806E+03  0.00000000000E+00 0.  1.
         21   -1    0    0  502  503 -0.00000000000E+00 -0.00000000000E+00 -0.28041051484E+03  0.28041051484E+03  0.00000000000E+00 0.  1.
         -6    2    1    2    0  503 -0.31656826834E+02 -0.12283584769E+02 -0.20772368870E+03  0.27420875665E+03  0.17575059101E+03 0.  0.
        -24    2    3    3    0    0 -0.25414929959E+01 -0.28381254406E+02 -0.26692223813E+02  0.90085648624E+02  0.81184940029E+02 0.  0.
          6    2    1    2  501    0  0.31656826834E+02  0.12283584769E+02  0.15865903192E+03  0.23754761625E+03  0.17350256608E+03 0.  0.
         24    2    5    5    0    0  0.18815769465E+02  0.71220440524E+02  0.70263509655E+02  0.13042943816E+03  0.81538292970E+02 0.  0.
          5    1    5    5  501    0  0.12841057369E+02 -0.58936855755E+02  0.88395522267E+02  0.10711817809E+03  0.47000000000E+01 0. -1.
        -13    1    6    6    0    0 -0.31409641464E+02  0.24235578473E+02  0.15812770131E+02  0.42707991524E+02  0.00000000000E+00 0.  1.
         14    1    6    6    0    0  0.50225410929E+02  0.46984862051E+02  0.54450739524E+02  0.87721446634E+02  0.00000000000E+00 0. -1.
         -5    1    3    3    0  503 -0.29115333838E+02  0.16097669637E+02 -0.18103146489E+03  0.18412310803E+03  0.47000000000E+01 0.  1.
         11    1    4    4    0    0  0.44391574738E+01  0.25736057277E+02  0.55593957541E+01  0.26701266718E+02  0.00000000000E+00 0. -1.
        -12    1    4    4    0    0 -0.69806504697E+01 -0.54117311683E+02 -0.32251619568E+02  0.63384381905E+02  0.00000000000E+00 0.  1.
<mgrwt>
<rscale>  2 0.17844663E+03</rscale>
<asrwt>0</asrwt>
<pdfrwt beam="1">  1       21 0.35591670E-01 0.17900087E+03</pdfrwt>
<pdfrwt beam="2">  1       21 0.43140079E-01 0.17900087E+03</pdfrwt>
<totfact> 0.39595549E+04</totfact>
</mgrwt>
</event>
<event>
12    1  0.1071811E-001  0.2066454E+03  0.7546771E-02  0.1144381E+00
         21   -1    0    0  503  502  0.00000000000E+00  0.00000000000E+00  0.50805791780E+03  0.50805791780E+03  0.00000000000E+00 0.  1.
         21   -1    0    0  501  503 -0.00000000000E+00 -0.00000000000E+00 -0.10586747700E+03  0.10586747700E+03  0.00000000000E+00 0. -1.
          6    2    1    2  501    0  0.43601746642E+02 -0.10386199040E+03  0.60662896076E+02  0.21474700361E+03  0.17247568884E+03 0.  0.
         24    2    3    3    0    0 -0.15024038422E+02 -0.11887404207E+03  0.30080266778E+02  0.14677839627E+03  0.79261059494E+02 0.  0.
         -6    2    1    2    0  502 -0.43601746642E+02  0.10386199040E+03  0.34152754473E+03  0.39917839118E+03  0.17324519855E+03 0.  0.
        -24    2    5    5    0    0 -0.54481441189E+02  0.80583711538E+02  0.11459895648E+03  0.17075133459E+03  0.81000836035E+02 0.  0.
          5    1    3    3  501    0  0.58625785064E+02  0.15012051672E+02  0.30582629298E+02  0.67968607346E+02  0.47000000000E+01 0. -1.
        -13    1    4    4    0    0  0.64467751590E+01 -0.26908364533E+02  0.43333567144E+02  0.51414190971E+02  0.00000000000E+00 0.  1.
         14    1    4    4    0    0 -0.21470813581E+02 -0.91965677540E+02 -0.13253300366E+02  0.95364205296E+02  0.00000000000E+00 0. -1.
         -5    1    5    5    0  502  0.10879694547E+02  0.23278278862E+02  0.22692858825E+03  0.22842705660E+03  0.47000000000E+01 0.  1.
         11    1    6    6    0    0  0.12125084084E+01  0.27328068727E+02 -0.56482301885E+01  0.27931989210E+02  0.00000000000E+00 0. -1.
        -12    1    6    6    0    0 -0.55693949598E+02  0.53255642811E+02  0.12024718666E+03  0.14281934538E+03  0.00000000000E+00 0.  1.
<mgrwt>
<rscale>  2 0.20648404E+03</rscale>
<asrwt>0</asrwt>
<pdfrwt beam="1">  1       21 0.78162755E-01 0.20664541E+03</pdfrwt>
<pdfrwt beam="2">  1       21 0.16287304E-01 0.20664541E+03</pdfrwt>
<totfact> 0.48573661E+04</totfact>
</mgrwt>
</event>
<event>
12    1  0.1071811E-001  0.2479956E+03  0.7546771E-02  0.1114584E+00
         21   -1    0    0  503  502  0.00000000000E+00  0.00000000000E+00  0.16732864477E+03  0.16732864477E+03  0.00000000000E+00 0.  1.
         21   -1    0    0  501  503 -0.00000000000E+00 -0.00000000000E+00 -0.42430135922E+03  0.42430135922E+03  0.00000000000E+00 0.  1.
          6    2    1    2  501    0  0.70667934530E+01 -0.17598655191E+03 -0.23671823594E+03  0.34280862450E+03  0.17453086770E+03 0.  0.
         24    2    3    3    0    0 -0.22353265781E+02 -0.84546208464E+02 -0.42298735630E+02  0.12590332628E+03  0.80092038778E+02 0.  0.
         -6    2    1    2    0  502 -0.70667934530E+01  0.17598655191E+03 -0.20254478505E+02  0.24882137948E+03  0.17458702404E+03 0.  0.
        -24    2    5    5    0    0 -0.58165934041E+02  0.13706631915E+03  0.23348143827E+02  0.17104487042E+03  0.80874966149E+02 0.  0.
          5    1    3    3  501    0  0.29420059234E+02 -0.91440343449E+02 -0.19441950031E+03  0.21690529822E+03  0.47000000000E+01 0. -1.
        -11    1    4    4    0    0  0.24002876826E+02 -0.63094426031E+02 -0.24221804150E+02  0.71719875128E+02  0.00000000000E+00 0.  1.
         12    1    4    4    0    0 -0.46356142607E+02 -0.21451782433E+02 -0.18076931480E+02  0.54183451152E+02  0.00000000000E+00 0. -1.
         -5    1    5    5    0  502  0.51099140588E+02  0.38920232764E+02 -0.43602622332E+02  0.77776509059E+02  0.47000000000E+01 0.  1.
         13    1    6    6    0    0 -0.44019467578E+02  0.33183371058E+02  0.35398900122E+02  0.65512836685E+02  0.00000000000E+00 0. -1.
        -14    1    6    6    0    0 -0.14146466462E+02  0.10388294809E+03 -0.12050756295E+02  0.10553203374E+03  0.00000000000E+00 0.  1.
<mgrwt>
<rscale>  2 0.24798575E+03</rscale>
<asrwt>0</asrwt>
<pdfrwt beam="1">  1       21 0.25742869E-01 0.24799564E+03</pdfrwt>
<pdfrwt beam="2">  1       21 0.65277131E-01 0.24799564E+03</pdfrwt>
<totfact> 0.30073581E+04</totfact>
</mgrwt>
</event>
<event>
12    1  0.1071811E-001  0.2795520E+03  0.7546771E-02  0.1095983E+00
         21   -1    0    0  503  502  0.00000000000E+00  0.00000000000E+00  0.58920733262E+02  0.58920733262E+02  0.00000000000E+00 0.  1.
         21   -1    0    0  501  503 -0.00000000000E+00 -0.00000000000E+00 -0.14654772166E+04  0.14654772166E+04  0.00000000000E+00 0.  1.
          6    2    1    2  501    0  0.12597390252E+03  0.17942465097E+03 -0.93915092097E+03  0.97977212834E+03  0.17287666591E+03 0.  0.
         24    2    3    3    0    0  0.97213738443E+02  0.15314304499E+03 -0.48493805702E+03  0.52386721980E+03  0.79803769733E+02 0.  0.
         -6    2    1    2    0  502 -0.12597390252E+03 -0.17942465097E+03 -0.46740556239E+03  0.54462582154E+03  0.17345517072E+03 0.  0.
        -24    2    5    5    0    0 -0.10894733250E+03 -0.20437582777E+03 -0.44023213544E+03  0.50372410468E+03  0.79338769361E+02 0.  0.
          5    1    3    3  501    0  0.28760164072E+02  0.26281605981E+02 -0.45421286395E+03  0.45590490854E+03  0.47000000000E+01 0. -1.
        -13    1    4    4    0    0  0.64719869497E+02  0.56919418258E+02 -0.30821659328E+03  0.32004054440E+03  0.00000000000E+00 0.  1.
         14    1    4    4    0    0  0.32493868946E+02  0.96223626735E+02 -0.17672146374E+03  0.20382667541E+03  0.00000000000E+00 0. -1.
         -5    1    5    5    0  502 -0.17026570018E+02  0.24951176800E+02 -0.27173426944E+02  0.40901716861E+02  0.47000000000E+01 0.  1.
         11    1    6    6    0    0 -0.77766452289E+02 -0.92588977381E+02 -0.28758135112E+03  0.31196694271E+03  0.00000000000E+00 0. -1.
        -12    1    6    6    0    0 -0.31180880209E+02 -0.11178685039E+03 -0.15265078432E+03  0.19175716197E+03  0.00000000000E+00 0.  1.
<mgrwt>
<rscale>  2 0.27946232E+03</rscale>
<asrwt>0</asrwt>
<pdfrwt beam="1">  1       21 0.90647291E-02 0.27955201E+03</pdfrwt>
<pdfrwt beam="2">  1       21 0.22545801E+00 0.27955201E+03</pdfrwt>
<totfact> 0.84039060E+03</totfact>
</mgrwt>
</event>
<event>
12    1  0.1071811E-001  0.1917997E+03  0.7546771E-02  0.1156878E+00
         21   -1    0    0  501  502  0.00000000000E+00  0.00000000000E+00  0.97974765194E+02  0.97974765194E+02  0.00000000000E+00 0. -1.
         21   -1    0    0  502  503 -0.00000000000E+00 -0.00000000000E+00 -0.66438658343E+03  0.66438658343E+03  0.00000000000E+00 0.  1.
         -6    2    1    2    0  503 -0.84597027352E+02  0.41928584737E+01 -0.53462814610E+03  0.56794604979E+03  0.17193377731E+03 0.  0.
        -24    2    3    3    0    0 -0.56522552996E+02  0.64373204355E+02 -0.26149453394E+03  0.28681634623E+03  0.80904367891E+02 0.  0.
          6    2    1    2  501    0  0.84597027352E+02 -0.41928584737E+01 -0.31783672138E+02  0.19441529883E+03  0.17208390251E+03 0.  0.
         24    2    5    5    0    0  0.20324556298E+02 -0.42170762475E+02 -0.63295843645E+02  0.11324647057E+03  0.81406010081E+02 0.  0.
          5    1    5    5  501    0  0.64272471054E+02  0.37977904001E+02  0.31512171507E+02  0.81168828258E+02  0.47000000000E+01 0. -1.
        -11    1    6    6    0    0 -0.24402985586E+02  0.83849970539E+01 -0.23418567629E+02  0.34845992465E+02  0.00000000000E+00 0.  1.
         12    1    6    6    0    0  0.44727541884E+02 -0.50555759529E+02 -0.39877276016E+02  0.78400478104E+02  0.00000000000E+00 0. -1.
         -5    1    3    3    0  503 -0.28074474356E+02 -0.60180345881E+02 -0.27313361215E+03  0.28112970357E+03  0.47000000000E+01 0.  1.
         13    1    4    4    0    0  0.13920509716E+02  0.35579358251E+02 -0.12292189119E+03  0.12872242485E+03  0.00000000000E+00 0. -1.
        -14    1    4    4    0    0 -0.70443062712E+02  0.28793846104E+02 -0.13857264275E+03  0.15809392138E+03  0.00000000000E+00 0.  1.
<mgrwt>
<rscale>  2 0.19176597E+03</rscale>
<asrwt>0</asrwt>
<pdfrwt beam="1">  1       21 0.15073040E-01 0.19179965E+03</pdfrwt>
<pdfrwt beam="2">  1       21 0.10221333E+00 0.19179965E+03</pdfrwt>
<totfact> 0.30314493E+04</totfact>
</mgrwt>
</event>
<event>
12    1  0.1071811E-001  0.2181631E+03  0.7546771E-02  0.1136242E+00
         21   -1    0    0  503  502  0.00000000000E+00  0.00000000000E+00  0.50190304514E+03  0.50190304514E+03  0.00000000000E+00 0.  1.
         21   -1    0    0  501  503 -0.00000000000E+00 -0.00000000000E+00 -0.92988190085E+02  0.92988190085E+02  0.00000000000E+00 0. -1.
          6    2    1    2  501    0 -0.35287483874E+02 -0.12012378969E+03  0.22593058754E+03  0.31406966249E+03  0.17866222640E+03 0.  0.
         24    2    3    3    0    0 -0.92180386015E+02 -0.84557379712E+02  0.14184950012E+03  0.20639658742E+03  0.82650448182E+02 0.  0.
         -6    2    1    2    0  502  0.35287483874E+02  0.12012378969E+03  0.18298426751E+03  0.28082157274E+03  0.17234437093E+03 0.  0.
        -24    2    5    5    0    0 -0.11964864152E+02  0.27851108475E+02  0.14868391560E+03  0.17152547842E+03  0.79970249279E+02 0.  0.
          5    1    3    3  501    0  0.56892902141E+02 -0.35566409976E+02  0.84081087423E+02  0.10767307507E+03  0.47000000000E+01 0. -1.
        -11    1    4    4    0    0  0.12363522500E+02 -0.26478822054E+02  0.38498254310E+02  0.48333221400E+02  0.00000000000E+00 0.  1.
         12    1    4    4    0    0 -0.10454390851E+03 -0.58078557658E+02  0.10335124581E+03  0.15806336602E+03  0.00000000000E+00 0. -1.
         -5    1    5    5    0  502  0.47252348026E+02  0.92272681213E+02  0.34300351909E+02  0.10929609432E+03  0.47000000000E+01 0.  1.
         13    1    6    6    0    0 -0.23194663346E+02  0.26965830023E+02  0.17110023944E+02  0.39470258625E+02  0.00000000000E+00 0. -1.
        -14    1    6    6    0    0  0.11229799194E+02  0.88527845122E+00  0.13157389166E+03  0.13205521979E+03  0.00000000000E+00 0.  1.
<mgrwt>
<rscale>  2 0.21686577E+03</rscale>
<asrwt>0</asrwt>
<pdfrwt beam="1">  1       21 0.77215852E-01 0.21816306E+03</pdfrwt>
<pdfrwt beam="2">  1       21 0.14305876E-01 0.21816306E+03</pdfrwt>
<totfact> 0.62946617E+04</totfact>
</mgrwt>
</event>
<event>
12    1  0.1071811E-001  0.1967479E+03  0.7546771E-02  0.1152797E+00
         21   -1    0    0  501  502  0.00000000000E+00  0.00000000000E+00  0.36809619916E+02  0.36809619916E+02  0.00000000000E+00 0.  1.
         21   -1    0    0  502  503 -0.00000000000E+00 -0.00000000000E+00 -0.10445893659E+04  0.10445893659E+04  0.00000000000E+00 0.  1.
         -6    2    1    2    0  503  0.24413897960E+02 -0.88607747233E+02 -0.50095839919E+03  0.53772846699E+03  0.17246801214E+03 0.  0.
        -24    2    3    3    0    0  0.71211660189E+02 -0.87787744462E+02 -0.43591879567E+03  0.45746052208E+03  0.80418556443E+02 0.  0.
          6    2    1    2  501    0 -0.24413897960E+02  0.88607747233E+02 -0.50682134682E+03  0.54367051885E+03  0.17396086971E+03 0.  0.
         24    2    5    5    0    0 -0.28401824934E+02  0.87292736468E+02 -0.18085225453E+03  0.21764050192E+03  0.78950393318E+02 0.  0.
          5    1    5    5  501    0  0.39879269740E+01  0.13150107647E+01 -0.32596909229E+03  0.32603001693E+03  0.47000000000E+01 0. -1.
        -13    1    6    6    0    0  0.18480561430E+02  0.44908912371E+02 -0.38786593652E+02  0.62150956616E+02  0.00000000000E+00 0.  1.
         14    1    6    6    0    0 -0.46882386364E+02  0.42383824097E+02 -0.14206566088E+03  0.15548954530E+03  0.00000000000E+00 0. -1.
         -5    1    3    3    0  503 -0.46797762229E+02 -0.82000277023E+00 -0.65039603515E+02  0.80267944907E+02  0.47000000000E+01 0.  1.
         13    1    4    4    0    0  0.17839805038E+02  0.12798728855E+02 -0.11142244792E+03  0.11356508269E+03  0.00000000000E+00 0. -1.
        -14    1    4    4    0    0  0.53371855151E+02 -0.10058647332E+03 -0.32449634775E+03  0.34389543940E+03  0.00000000000E+00 0.  1.
<mgrwt>
<rscale>  2 0.19641744E+03</rscale>
<asrwt>0</asrwt>
<pdfrwt beam="1">  1       21 0.56630191E-02 0.19674795E+03</pdfrwt>
<pdfrwt beam="2">  1       21 0.16070604E+00 0.19674795E+03</pdfrwt>
<totfact> 0.54006920E+04</totfact>
</mgrwt>
</event>
<event>
12    1  0.1071811E-001  0.3023653E+03  0.7546771E-02  0.1084139E+00
         21   -1    0    0  503  502  0.00000000000E+00  0.00000000000E+00  0.12701075354E+03  0.12701075354E+03  0.00000000000E+00 0.  1.
         21   -1    0    0  501  503 -0.00000000000E+00 -0.00000000000E+00 -0.74899273128E+03  0.74899273128E+03  0.00000000000E+00 0.  1.
          6    2    1    2  501    0  0.20938832741E+03  0.13291603903E+03 -0.39923938065E+03  0.50045184444E+03  0.17190061214E+03 0.  0.
         24    2    3    3    0    0  0.10798732845E+03  0.12096627176E+03 -0.33297671878E+03  0.37864137737E+03  0.78750843805E+02 0.  0.
         -6    2    1    2    0  502 -0.20938832741E+03 -0.13291603903E+03 -0.22274259709E+03  0.37555164039E+03  0.17295844861E+03 0.  0.
        -24    2    5    5    0    0 -0.88398575369E+02 -0.13291480517E+03 -0.10773161847E+03  0.20855422931E+03  0.80050680098E+02 0.  0.
          5    1    3    3  501    0  0.10140099897E+03  0.11949767278E+02 -0.66262661864E+02  0.12181046707E+03  0.47000000000E+01 0. -1.
        -11    1    4    4    0    0  0.80693816406E+02  0.53155983561E+02 -0.12370766007E+03  0.15697336001E+03  0.00000000000E+00 0.  1.
         12    1    4    4    0    0  0.27293512039E+02  0.67810288195E+02 -0.20926905871E+03  0.22166801736E+03  0.00000000000E+00 0. -1.
         -5    1    5    5    0  502 -0.12098975204E+03 -0.12338621264E-02 -0.11501097863E+03  0.16699741108E+03  0.47000000000E+01 0.  1.
         11    1    6    6    0    0 -0.28739480391E+02 -0.80238467179E+02 -0.95553284878E+02  0.12804139799E+03  0.00000000000E+00 0. -1.
        -12    1    6    6    0    0 -0.59659094977E+02 -0.52676337992E+02 -0.12178333587E+02  0.80512831318E+02  0.00000000000E+00 0.  1.
<mgrwt>
<rscale>  2 0.30221422E+03</rscale>
<asrwt>0</asrwt>
<pdfrwt beam="1">  1       21 0.19540115E-01 0.30236529E+03</pdfrwt>
<pdfrwt beam="2">  1       21 0.11522965E+00 0.30236529E+03</pdfrwt>
<totfact> 0.13231252E+04</totfact>
</mgrwt>
</event>
<event>
12    1  0.1071811E-001  0.2126668E+03  0.7546771E-02  0.1139549E+00
         21   -1    0    0  503  502  0.00000000000E+00  0.00000000000E+00  0.71469436937E+02  0.71469436937E+02  0.00000000000E+00 0.  1.
         21   -1    0    0  501  503 -0.00000000000E+00 -0.00000000000E+00 -0.64714338406E+03  0.64714338406E+03  0.00000000000E+00 0.  1.
          6    2    1    2  501    0  0.93546914608E+01 -0.12394238264E+03 -0.34320233663E+03  0.40354107406E+03  0.17207071255E+03 0.  0.
         24    2    3    3    0    0  0.41655462272E+02 -0.23923048942E+02 -0.81192752556E+02  0.12119674694E+03  0.76084811846E+02 0.  0.
         -6    2    1    2    0  502 -0.93546914608E+01  0.12394238264E+03 -0.23247161050E+03  0.31507174694E+03  0.17256283368E+03 0.  0.
        -24    2    5    5    0    0 -0.10817490357E+01  0.13251899897E+03 -0.10626870401E+03  0.18822040272E+03  0.81064340381E+02 0.  0.
          5    1    3    3  501    0 -0.32300770811E+02 -0.10001933370E+03 -0.26200958407E+03  0.28234432712E+03  0.47000000000E+01 0. -1.
        -11    1    4    4    0    0  0.55449185930E+02 -0.10601836869E+02 -0.84613931739E+02  0.10171788736E+03  0.00000000000E+00 0.  1.
         12    1    4    4    0    0 -0.13793723658E+02 -0.13321212073E+02  0.34211791835E+01  0.19478859578E+02  0.00000000000E+00 0. -1.
         -5    1    5    5    0  502 -0.82729424252E+01 -0.85766163214E+01 -0.12620290649E+03  0.12685134422E+03  0.47000000000E+01 0.  1.
         11    1    6    6    0    0 -0.14593112816E+02  0.61166479004E+02 -0.96165596828E+02  0.11490047480E+03  0.00000000000E+00 0. -1.
        -12    1    6    6    0    0  0.13511363780E+02  0.71352519961E+02 -0.10103107178E+02  0.73319927923E+02  0.00000000000E+00 0.  1.
<mgrwt>
<rscale>  2 0.21256692E+03</rscale>
<asrwt>0</asrwt>
<pdfrwt beam="1">  1       21 0.10995298E-01 0.21266677E+03</pdfrwt>
<pdfrwt beam="2">  1       21 0.99560519E-01 0.21266677E+03</pdfrwt>
<totfact> 0.56339402E+04</totfact>
</mgrwt>
</event>
<event>
12    1  0.1071811E-001  0.2093582E+03  0.7546771E-02  0.1142362E+00
         21   -1    0    0  501  502  0.00000000000E+00  0.00000000000E+00  0.17081223487E+04  0.17081223487E+04  0.00000000000E+00 0. -1.
         21   -1    0    0  502  503 -0.00000000000E+00 -0.00000000000E+00 -0.74764225136E+02  0.74764225136E+02  0.00000000000E+00 0.  1.
         -6    2    1    2    0  503 -0.92969347188E+02 -0.70096256481E+02  0.91986136970E+02  0.22736143327E+03  0.17226429478E+03 0.  0.
        -24    2    3    3    0    0 -0.95458203058E+01 -0.30469319353E+02  0.10532340035E+03  0.13392829366E+03  0.76316885895E+02 0.  0.
          6    2    1    2  501    0  0.92969347188E+02  0.70096256481E+02  0.15413719866E+04  0.15555251406E+04  0.17399447456E+03 0.  0.
         24    2    5    5    0    0  0.48933015384E+02  0.79936962308E+02  0.57603004873E+03  0.58911778079E+03  0.80403884693E+02 0.  0.
          5    1    5    5  501    0  0.44036331803E+02 -0.98407058264E+01  0.96534193786E+03  0.96640735977E+03  0.47000000000E+01 0. -1.
        -13    1    6    6    0    0  0.63422318559E+02  0.78787743811E+02  0.40375628656E+03  0.41623195217E+03  0.00000000000E+00 0.  1.
         14    1    6    6    0    0 -0.14489303174E+02  0.11492184965E+01  0.17227376217E+03  0.17288582863E+03  0.00000000000E+00 0. -1.
         -5    1    3    3    0  503 -0.83423526882E+02 -0.39626937128E+02 -0.13337263385E+02  0.93433139615E+02  0.47000000000E+01 0.  1.
         13    1    4    4    0    0  0.30841860727E+02 -0.12637997244E+02  0.69480325248E+02  0.77061371283E+02  0.00000000000E+00 0. -1.
        -14    1    4    4    0    0 -0.40387681033E+02 -0.17831322109E+02  0.35843075107E+02  0.56866922375E+02  0.00000000000E+00 0.  1.
<mgrwt>
<rscale>  2 0.20899836E+03</rscale>
<asrwt>0</asrwt>
<pdfrwt beam="1">  1       21 0.26278802E+00 0.20935821E+03</pdfrwt>
<pdfrwt beam="2">  1       21 0.11502190E-01 0.20935821E+03</pdfrwt>
<totfact> 0.34799430E+03</totfact>
</mgrwt>
</event>
<event>
12    1  0.1071811E-001  0.1893780E+03  0.7546771E-02  0.1159456E+00
         21   -1    0    0  501  502  0.00000000000E+00  0.00000000000E+00  0.14164992793E+03  0.14164992793E+03  0.00000000000E+00 0. -1.
         21   -1    0    0  502  503 -0.00000000000E+00 -0.00000000000E+00 -0.25512037330E+03  0.25512037330E+03  0.00000000000E+00 0. -1.
         -6    2    1    2    0  503 -0.67603872852E+02  0.34216509778E+02 -0.30766153595E+02  0.19186079855E+03  0.17355966307E+03 0.  0.
        -24    2    3    3    0    0 -0.92720857856E+02 -0.73236115847E+01  0.15435390339E+02  0.12468105993E+03  0.81586289674E+02 0.  0.
          6    2    1    2  501    0  0.67603872852E+02 -0.34216509778E+02 -0.82704291772E+02  0.20490950268E+03  0.17148425947E+03 0.  0.
         24    2    5    5    0    0  0.10274219745E+03 -0.40710020569E+02 -0.31397208082E+02  0.14220882984E+03  0.83811107253E+02 0.  0.
          5    1    5    5  501    0 -0.35138324594E+02  0.64935107911E+01 -0.51307083690E+02  0.62700672838E+02  0.47000000000E+01 0. -1.
        -11    1    6    6    0    0  0.46756877956E+02  0.14386438865E+02  0.14764628933E+02  0.51099603980E+02  0.00000000000E+00 0.  1.
         12    1    6    6    0    0  0.55985319490E+02 -0.55096459434E+02 -0.46161837015E+02  0.91109225862E+02  0.00000000000E+00 0. -1.
         -5    1    3    3    0  503  0.25116985004E+02  0.41540121363E+02 -0.46201543934E+02  0.67179738616E+02  0.47000000000E+01 0.  1.
         11    1    4    4    0    0 -0.95715938009E+02  0.79027285998E+01  0.32710764350E+02  0.10145929239E+03  0.00000000000E+00 0. -1.
        -12    1    4    4    0    0  0.29950801530E+01 -0.15226340184E+02 -0.17275374010E+02  0.23221767541E+02  0.00000000000E+00 0.  1.
<mgrwt>
<rscale>  2 0.18890110E+03</rscale>
<asrwt>0</asrwt>
<pdfrwt beam="1">  1       21 0.21792297E-01 0.18937795E+03</pdfrwt>
<pdfrwt beam="2">  1       21 0.39249288E-01 0.18937795E+03</pdfrwt>
<totfact> 0.12312478E+05</totfact>
</mgrwt>
</event>
<event>
12    1  0.1071811E-001  0.1921149E+03  0.7546771E-02  0.1156581E+00
         21   -1    0    0  501  502  0.00000000000E+00  0.00000000000E+00  0.23497938865E+03  0.23497938865E+03  0.00000000000E+00 0.  1.
         21   -1    0    0  502  503 -0.00000000000E+00 -0.00000000000E+00 -0.17683997115E+03  0.17683997115E+03  0.00000000000E+00 0.  1.
         -6    2    1    2    0  503 -0.59463357332E+02 -0.59657727685E+02 -0.39866271669E+02  0.19615008135E+03  0.17259953493E+03 0.  0.
        -24    2    3    3    0    0  0.26804838131E+01 -0.88103522938E+02 -0.45669123141E+02  0.12739847522E+03  0.79845393938E+02 0.  0.
          6    2    1    2  501    0  0.59463357332E+02  0.59657727685E+02  0.98005689168E+02  0.21566927844E+03  0.17266495654E+03 0.  0.
         24    2    5    5    0    0 -0.32118452247E+02  0.48216090687E+02  0.53271292661E+02  0.11299798190E+03  0.81082223181E+02 0.  0.
          5    1    5    5  501    0  0.91581809579E+02  0.11441636998E+02  0.44734396507E+02  0.10267129654E+03  0.47000000000E+01 0. -1.
        -13    1    6    6    0    0  0.39576617341E+00  0.26958930654E+01  0.56876860425E+02  0.56942090953E+02  0.00000000000E+00 0.  1.
         14    1    6    6    0    0 -0.32514218420E+02  0.45520197622E+02 -0.36055677641E+01  0.56055890948E+02  0.00000000000E+00 0. -1.
         -5    1    3    3    0  503 -0.62143841145E+02  0.28445795252E+02  0.58028514715E+01  0.68751606127E+02  0.47000000000E+01 0.  1.
         13    1    4    4    0    0  0.57031972194E+01 -0.47705686285E+02 -0.66346390696E+02  0.81915825826E+02  0.00000000000E+00 0. -1.
        -14    1    4    4    0    0 -0.30227134063E+01 -0.40397836653E+02  0.20677267555E+02  0.45482649396E+02  0.00000000000E+00 0.  1.
<mgrwt>
<rscale>  2 0.19210017E+03</rscale>
<asrwt>0</asrwt>
<pdfrwt beam="1">  1       21 0.36150675E-01 0.19211487E+03</pdfrwt>
<pdfrwt beam="2">  1       21 0.27206149E-01 0.19211487E+03</pdfrwt>
<totfact> 0.95061545E+04</totfact>
</mgrwt>
</event>
<event>
12    1  0.1071811E-001  0.2536153E+03  0.7546771E-02  0.1111101E+00
         21   -1    0    0  503  502  0.00000000000E+00  0.00000000000E+00  0.54682015717E+02  0.54682015717E+02  0.00000000000E+00 0.  1.
         21   -1    0    0  501  503 -0.00000000000E+00 -0.00000000000E+00 -0.12054719297E+04  0.12054719297E+04  0.00000000000E+00 0.  1.
          6    2    1    2  501    0  0.51178374631E+02 -0.17888141272E+03 -0.47478998487E+03  0.53828083693E+03  0.17234542008E+03 0.  0.
         24    2    3    3    0    0 -0.37894378431E+02 -0.92964652592E+02 -0.21175791994E+03  0.24755140569E+03  0.79761339323E+02 0.  0.
         -6    2    1    2    0  502 -0.51178374631E+02  0.17888141272E+03 -0.67599992910E+03  0.72187310847E+03  0.17177629276E+03 0.  0.
        -24    2    5    5    0    0  0.16580989071E+02  0.11975907312E+03 -0.53467490784E+03  0.55429735235E+03  0.82165278252E+02 0.  0.
          5    1    3    3  501    0  0.89072753062E+02 -0.85916760129E+02 -0.26303206493E+03  0.29072943124E+03  0.47000000000E+01 0. -1.
        -11    1    4    4    0    0 -0.43945952465E+01 -0.40249178813E+02 -0.18619139744E+02  0.44564349286E+02  0.00000000000E+00 0.  1.
         12    1    4    4    0    0 -0.33499783185E+02 -0.52715473778E+02 -0.19313878020E+03  0.20298705640E+03  0.00000000000E+00 0. -1.
         -5    1    5    5    0  502 -0.67759363702E+02  0.59122339596E+02 -0.14132502125E+03  0.16757575613E+03  0.47000000000E+01 0.  1.
         11    1    6    6    0    0 -0.13305959377E+02 -0.76011835217E+01 -0.52449020473E+02  0.54641799883E+02  0.00000000000E+00 0. -1.
        -12    1    6    6    0    0  0.29886948448E+02  0.12736025665E+03 -0.48222588737E+03  0.49965555247E+03  0.00000000000E+00 0.  1.
<mgrwt>
<rscale>  2 0.25351866E+03</rscale>
<asrwt>0</asrwt>
<pdfrwt beam="1">  1       21 0.84126180E-02 0.25361532E+03</pdfrwt>
<pdfrwt beam="2">  1       21 0.18545722E+00 0.25361532E+03</pdfrwt>
<totfact> 0.17642926E+04</totfact>
</mgrwt>
</event>
<event>
12    1  0.1071811E-001  0.4241936E+03  0.7546771E-02  0.1035754E+00
         21   -1    0    0  503  502  0.00000000000E+00  0.00000000000E+00  0.43015461480E+03  0.43015461480E+03  0.00000000000E+00 0. -1.
         21   -1    0    0  501  503 -0.00000000000E+00 -0.00000000000E+00 -0.62919325037E+03  0.62919325037E+03  0.00000000000E+00 0.  1.
          6    2    1    2  501    0 -0.37057242143E+03 -0.11345159821E+03 -0.40659448963E+03  0.58758765228E+03  0.17246734605E+03 0.  0.
         24    2    3    3    0    0 -0.36986135473E+03 -0.99636344077E+02 -0.41495041412E+03  0.57075677778E+03  0.82792695414E+02 0.  0.
         -6    2    1    2    0  502  0.37057242143E+03  0.11345159821E+03  0.20755585406E+03  0.47176021289E+03  0.17112300037E+03 0.  0.
        -24    2    5    5    0    0  0.22833140957E+03  0.96130040535E+02  0.20016461408E+03  0.32820094902E+03  0.79207151940E+02 0.  0.
          5    1    3    3  501    0 -0.71106669942E+00 -0.13815254132E+02  0.83559244891E+01  0.16830874506E+02  0.47000000000E+01 0. -1.
        -11    1    4    4    0    0 -0.29443428573E+03 -0.10456590015E+03 -0.36344563791E+03  0.47928937794E+03  0.00000000000E+00 0.  1.
         12    1    4    4    0    0 -0.75427068997E+02  0.49295560710E+01 -0.51504776214E+02  0.91467399840E+02  0.00000000000E+00 0. -1.
         -5    1    5    5    0  502  0.14224101186E+03  0.17321557674E+02  0.73912399761E+01  0.14355926387E+03  0.47000000000E+01 0.  1.
         13    1    6    6    0    0  0.63035863747E+02  0.64035003325E+02  0.88747829198E+02  0.12629401790E+03  0.00000000000E+00 0. -1.
        -14    1    6    6    0    0  0.16529554582E+03  0.32095037210E+02  0.11141678488E+03  0.20190693112E+03  0.00000000000E+00 0.  1.
<mgrwt>
<rscale>  2 0.42405729E+03</rscale>
<asrwt>0</asrwt>
<pdfrwt beam="1">  1       21 0.66177633E-01 0.42419355E+03</pdfrwt>
<pdfrwt beam="2">  1       21 0.96798962E-01 0.42419355E+03</pdfrwt>
<totfact> 0.16119420E+03</totfact>
</mgrwt>
</event>
<event>
12    1  0.1071811E-001  0.1856326E+03  0.7546771E-02  0.1162504E+00
         21   -1    0    0  503  502  0.00000000000E+00  0.00000000000E+00  0.14781473390E+03  0.14781473390E+03  0.00000000000E+00 0.  1.
         21   -1    0    0  501  503 -0.00000000000E+00 -0.00000000000E+00 -0.25271536233E+03  0.25271536233E+03  0.00000000000E+00 0.  1.
          6    2    1    2  501    0  0.34145951382E+01  0.65406221130E+02  0.36653690969E+01  0.18548120622E+03  0.17349412010E+03 0.  0.
         24    2    3    3    0    0  0.62382933754E+02  0.95318165977E+01  0.17489430764E+02  0.10294388907E+03  0.79429705762E+02 0.  0.
         -6    2    1    2    0  502 -0.34145951382E+01 -0.65406221130E+02 -0.10856599753E+03  0.21504889002E+03  0.17369460572E+03 0.  0.
        -24    2    5    5    0    0 -0.33938184203E+02 -0.57175670962E+02 -0.21926141719E+01  0.10397766002E+03  0.79910503254E+02 0.  0.
          5    1    3    3  501    0 -0.58968338616E+02  0.55874404532E+02 -0.13824061667E+02  0.82537317148E+02  0.47000000000E+01 0. -1.
        -11    1    4    4    0    0  0.53087423927E+02 -0.29867133459E+02  0.88557840696E+01  0.61552783461E+02  0.00000000000E+00 0.  1.
         12    1    4    4    0    0  0.92955098271E+01  0.39398950057E+02  0.86336466945E+01  0.41391105612E+02  0.00000000000E+00 0. -1.
         -5    1    5    5    0  502  0.30523589065E+02 -0.82305501684E+01 -0.10637338336E+03  0.11107122999E+03  0.47000000000E+01 0.  1.
         13    1    6    6    0    0 -0.32962778170E+02 -0.74434446832E+02  0.11115578647E+02  0.82161960228E+02  0.00000000000E+00 0. -1.
        -14    1    6    6    0    0 -0.97540603245E+00  0.17258775870E+02 -0.13308192819E+02  0.21815699796E+02  0.00000000000E+00 0.  1.
<mgrwt>
<rscale>  2 0.18558565E+03</rscale>
<asrwt>0</asrwt>
<pdfrwt beam="1">  1       21 0.22740729E-01 0.18563257E+03</pdfrwt>
<pdfrwt beam="2">  1       21 0.38879286E-01 0.18563257E+03</pdfrwt>
<totfact> 0.11595508E+05</totfact>
</mgrwt>
</event>
<event>
12    1  0.1071811E-001  0.2268962E+03  0.7546771E-02  0.1128868E+00
         21   -1    0    0  501  502  0.00000000000E+00  0.00000000000E+00  0.15544796106E+03  0.15544796106E+03  0.00000000000E+00 0. -1.
         21   -1    0    0  502  503 -0.00000000000E+00 -0.00000000000E+00 -0.37595150547E+03  0.37595150547E+03  0.00000000000E+00 0. -1.
         -6    2    1    2    0  503 -0.12204652326E+03 -0.80736296708E+02 -0.20217199335E+03  0.30390034968E+03  0.17340185753E+03 0.  0.
        -24    2    3    3    0    0 -0.11348964079E+03 -0.70244898210E+02 -0.22666314173E+03  0.27552437341E+03  0.81995464702E+02 0.  0.
          6    2    1    2  501    0  0.12204652326E+03  0.80736296708E+02 -0.18331551055E+02  0.22749911685E+03  0.17322268603E+03 0.  0.
         24    2    5    5    0    0  0.45057106544E+01  0.15446281745E+02 -0.40201145370E+02  0.91194319287E+02  0.80258225329E+02 0.  0.
          5    1    5    5  501    0  0.11754081261E+03  0.65290014963E+02  0.21869594314E+02  0.13630479756E+03  0.47000000000E+01 0. -1.
        -11    1    6    6    0    0 -0.15194213761E+02  0.41328319601E+02 -0.38717754272E+02  0.58634108066E+02  0.00000000000E+00 0.  1.
         12    1    6    6    0    0  0.19699924416E+02 -0.25882037856E+02 -0.14833910976E+01  0.32560211220E+02  0.00000000000E+00 0. -1.
         -5    1    3    3    0  503 -0.85568824784E+01 -0.10491398498E+02  0.24491148383E+02  0.28375976271E+02  0.47000000000E+01 0.  1.
         13    1    4    4    0    0 -0.98986282004E+02 -0.45947453352E+02 -0.10800928052E+03  0.15354301408E+03  0.00000000000E+00 0. -1.
        -14    1    4    4    0    0 -0.14503358781E+02 -0.24297444858E+02 -0.11865386122E+03  0.12198135933E+03  0.00000000000E+00 0.  1.
<mgrwt>
<rscale>  2 0.22686202E+03</rscale>
<asrwt>0</asrwt>
<pdfrwt beam="1">  1       21 0.23915071E-01 0.22689625E+03</pdfrwt>
<pdfrwt beam="2">  1       21 0.57838693E-01 0.22689625E+03</pdfrwt>
<totfact> 0.45445091E+04</totfact>
</mgrwt>
</event>
<event>
12    1  0.1071811E-001  0.2538718E+03  0.7546771E-02  0.1110903E+00
         21   -1    0    0  503  502  0.00000000000E+00  0.00000000000E+00  0.46595589087E+03  0.46595589087E+03  0.00000000000E+00 0. -1.
         21   -1    0    0  501  503 -0.00000000000E+00 -0.00000000000E+00 -0.30685926469E+03  0.30685926469E+03  0.00000000000E+00 0. -1.
          6    2    1    2  501    0  0.10299273854E+02 -0.18533039185E+03 -0.20689414735E+03  0.32739387033E+03  0.17299748245E+03 0.  0.
         24    2    3    3    0    0  0.56830103368E+02 -0.94337134908E+02 -0.17144201448E+03  0.21911721250E+03  0.80565704962E+02 0.  0.
         -6    2    1    2    0  502 -0.10299273854E+02  0.18533039185E+03  0.36599077352E+03  0.44542128523E+03  0.17319770741E+03 0.  0.
        -24    2    5    5    0    0  0.12858147868E+02  0.99222060370E+02  0.31921739114E+03  0.34462073846E+03  0.82785030870E+02 0.  0.
          5    1    3    3  501    0 -0.46530829514E+02 -0.90993256941E+02 -0.35452132872E+02  0.10827665782E+03  0.47000000000E+01 0. -1.
        -11    1    4    4    0    0  0.26047633430E+02 -0.86132918716E+01 -0.29640268849E+01  0.27594446172E+02  0.00000000000E+00 0.  1.
         12    1    4    4    0    0  0.30782469938E+02 -0.85723843036E+02 -0.16847798759E+03  0.19152276633E+03  0.00000000000E+00 0. -1.
         -5    1    5    5    0  502 -0.23157421722E+02  0.86108331479E+02  0.46773382378E+02  0.10080054677E+03  0.47000000000E+01 0.  1.
         11    1    6    6    0    0 -0.23110425511E+02  0.83360553421E+02  0.17605354942E+03  0.19615791061E+03  0.00000000000E+00 0. -1.
        -12    1    6    6    0    0  0.35968573379E+02  0.15861506948E+02  0.14316384173E+03  0.14846282785E+03  0.00000000000E+00 0.  1.
<mgrwt>
<rscale>  2 0.25383762E+03</rscale>
<asrwt>0</asrwt>
<pdfrwt beam="1">  1       21 0.71685521E-01 0.25387177E+03</pdfrwt>
<pdfrwt beam="2">  1       21 0.47209118E-01 0.25387177E+03</pdfrwt>
<totfact> 0.72505721E+03</totfact>
</mgrwt>
</event>
<event>
12    1  0.1071811E-001  0.2403035E+03  0.7546771E-02  0.1120074E+00
         21   -1    0    0  503  502  0.00000000000E+00  0.00000000000E+00  0.67744578805E+02  0.67744578805E+02  0.00000000000E+00 0.  1.
         21   -1    0    0  501  503 -0.00000000000E+00 -0.00000000000E+00 -0.13491844014E+04  0.13491844014E+04  0.00000000000E+00 0. -1.
          6    2    1    2  501    0 -0.52838057251E+02 -0.15349323290E+03 -0.10774246549E+04  0.11038974828E+04  0.17718276671E+03 0.  0.
         24    2    3    3    0    0 -0.10477620746E+02 -0.48434774282E+02 -0.78078542226E+03  0.78633078017E+03  0.78958928166E+02 0.  0.
         -6    2    1    2    0  502  0.52838057251E+02  0.15349323290E+03 -0.20401516769E+03  0.31303149735E+03  0.17324692449E+03 0.  0.
        -24    2    5    5    0    0  0.42793159880E+02  0.59171852675E+01 -0.61674637873E+02  0.10769639020E+03  0.76996648576E+02 0.  0.
          5    1    3    3  501    0 -0.42360436506E+02 -0.10505845862E+03 -0.29663923260E+03  0.31756670264E+03  0.47000000000E+01 0. -1.
        -13    1    4    4    0    0 -0.18683128454E+02 -0.61173411624E+02 -0.38670772905E+03  0.39196187734E+03  0.00000000000E+00 0.  1.
         14    1    4    4    0    0  0.82055077086E+01  0.12738637343E+02 -0.39407769321E+03  0.39436890283E+03  0.00000000000E+00 0. -1.
         -5    1    5    5    0  502  0.10044897372E+02  0.14757604763E+03 -0.14234052982E+03  0.20533510715E+03  0.47000000000E+01 0.  1.
         11    1    6    6    0    0  0.39496564181E+02  0.20885256294E+02 -0.55256899956E+00  0.44681963308E+02  0.00000000000E+00 0. -1.
        -12    1    6    6    0    0  0.32965956987E+01 -0.14968071027E+02 -0.61122068874E+02  0.63014426895E+02  0.00000000000E+00 0.  1.
<mgrwt>
<rscale>  2 0.23957843E+03</rscale>
<asrwt>0</asrwt>
<pdfrwt beam="1">  1       21 0.10422242E-01 0.24030349E+03</pdfrwt>
<pdfrwt beam="2">  1       21 0.20756685E+00 0.24030349E+03</pdfrwt>
<totfact> 0.87251158E+03</totfact>
</mgrwt>
</event>
<event>
12    1  0.1071811E-001  0.1943701E+03  0.7546771E-02  0.1154810E+00
         21   -1    0    0  501  502  0.00000000000E+00  0.00000000000E+00  0.96243229735E+03  0.96243229735E+03  0.00000000000E+00 0.  1.
         21   -1    0    0  502  503 -0.00000000000E+00 -0.00000000000E+00 -0.12155124993E+03  0.12155124993E+03  0.00000000000E+00 0.  1.
         -6    2    1    2    0  503 -0.65030555682E+01  0.87169357090E+02 -0.26473980926E+02  0.19511657942E+03  0.17242047834E+03 0.  0.
        -24    2    3    3    0    0 -0.46721822832E+02  0.12935481210E+01  0.85418169873E+01  0.93921718339E+02  0.81016816420E+02 0.  0.
          6    2    1    2  501    0  0.65030555682E+01 -0.87169357090E+02  0.86735502834E+03  0.88886696785E+03  0.17360574529E+03 0.  0.
         24    2    5    5    0    0 -0.14452622562E+02 -0.81483515152E+02  0.85628331572E+03  0.86404475875E+03  0.80646058789E+02 0.  0.
          5    1    5    5  501    0  0.20955678130E+02 -0.56858419379E+01  0.11071712626E+02  0.24822209106E+02  0.47000000000E+01 0. -1.
        -11    1    6    6    0    0 -0.45098507457E+02 -0.26095053652E+02  0.36505642927E+03  0.36875604910E+03  0.00000000000E+00 0.  1.
         12    1    6    6    0    0  0.30645884895E+02 -0.55388461499E+02  0.49122688645E+03  0.49528870964E+03  0.00000000000E+00 0. -1.
         -5    1    3    3    0  503  0.40218767264E+02  0.85875808969E+02 -0.35015797913E+02  0.10119486108E+03  0.47000000000E+01 0.  1.
         13    1    4    4    0    0 -0.47542051406E+02  0.34097182506E+02  0.15181354836E+02  0.60442849382E+02  0.00000000000E+00 0. -1.
        -14    1    4    4    0    0  0.82022857390E+00 -0.32803634385E+02 -0.66395378490E+01  0.33478868957E+02  0.00000000000E+00 0.  1.
<mgrwt>
<rscale>  2 0.19410510E+03</rscale>
<asrwt>0</asrwt>
<pdfrwt beam="1">  1       21 0.14806650E+00 0.19437011E+03</pdfrwt>
<pdfrwt beam="2">  1       21 0.18700193E-01 0.19437011E+03</pdfrwt>
<totfact> 0.80797952E+03</totfact>
</mgrwt>
</event>
<event>
12    1  0.1071811E-001  0.1748014E+03  0.7546771E-02  0.1173143E+00
         21   -1    0    0  501  502  0.00000000000E+00  0.00000000000E+00  0.49799506777E+03  0.49799506777E+03  0.00000000000E+00 0.  1.
         21   -1    0    0  502  503 -0.00000000000E+00 -0.00000000000E+00 -0.11001673069E+03  0.11001673069E+03  0.00000000000E+00 0.  1.
         -6    2    1    2    0  503 -0.19187225565E+02  0.13405756678E+02 -0.85421699577E+01  0.17501003446E+03  0.17322724831E+03 0.  0.
        -24    2    3    3    0    0 -0.15536508135E+02 -0.16905188417E+02 -0.68777103051E+02  0.10731647277E+03  0.79116161071E+02 0.  0.
          6    2    1    2  501    0  0.19187225565E+02 -0.13405756678E+02  0.39652050704E+03  0.43300176400E+03  0.17237793126E+03 0.  0.
         24    2    5    5    0    0  0.49264767307E+02 -0.57933633665E+02  0.32495717928E+03  0.34338708759E+03  0.80834400816E+02 0.  0.
          5    1    5    5  501    0 -0.30077541741E+02  0.44527876987E+02  0.71563327762E+02  0.89614676401E+02  0.47000000000E+01 0. -1.
        -11    1    6    6    0    0  0.61505577448E+02 -0.11543631869E+02  0.16885627480E+03  0.18007951864E+03  0.00000000000E+00 0.  1.
         12    1    6    6    0    0 -0.12240810141E+02 -0.46390001796E+02  0.15610090447E+03  0.16330756895E+03  0.00000000000E+00 0. -1.
         -5    1    3    3    0  503 -0.36507174309E+01  0.30310945096E+02  0.60234933094E+02  0.67693561697E+02  0.47000000000E+01 0.  1.
         11    1    4    4    0    0  0.31305861138E+02  0.18305050166E+01 -0.20340601045E+02  0.37378439522E+02  0.00000000000E+00 0. -1.
        -12    1    4    4    0    0 -0.46842369273E+02 -0.18735693434E+02 -0.48436502007E+02  0.69938033245E+02  0.00000000000E+00 0.  1.
<mgrwt>
<rscale>  2 0.17459065E+03</rscale>
<asrwt>0</asrwt>
<pdfrwt beam="1">  1       21 0.76614625E-01 0.17480144E+03</pdfrwt>
<pdfrwt beam="2">  1       21 0.16925651E-01 0.17480144E+03</pdfrwt>
<totfact> 0.48096604E+04</totfact>
</mgrwt>
</event>
<event>
12    1  0.1071811E-001  0.2376367E+03  0.7546771E-02  0.1121430E+00
         21   -1    0    0  503  502  0.00000000000E+00  0.00000000000E+00  0.24170125704E+03  0.24170125704E+03  0.00000000000E+00 0. -1.
         21   -1    0    0  501  503 -0.00000000000E+00 -0.00000000000E+00 -0.69923128564E+03  0.69923128564E+03  0.00000000000E+00 0.  1.
          6    2    1    2  501    0 -0.13505239383E+03 -0.89960712933E+02  0.15521315689E+03  0.28383501376E+03  0.17360619809E+03 0.  0.
         24    2    3    3    0    0 -0.10687579647E+03 -0.10214913445E+03  0.51594661041E+02  0.17566218474E+03  0.79613519951E+02 0.  0.
         -6    2    1    2    0  502  0.13505239383E+03  0.89960712933E+02 -0.61274318549E+03  0.65709752892E+03  0.17317872908E+03 0.  0.
        -24    2    5    5    0    0  0.44919900425E+02  0.83931582616E+02 -0.20580378623E+03  0.24022586828E+03  0.79315580748E+02 0.  0.
          5    1    3    3  501    0 -0.28176597367E+02  0.12188421519E+02  0.10361849585E+03  0.10817282903E+03  0.47000000000E+01 0. -1.
        -13    1    4    4    0    0 -0.32094876046E+02 -0.64192835282E+00 -0.12225867504E+02  0.34350618286E+02  0.00000000000E+00 0.  1.
         14    1    4    4    0    0 -0.74780920420E+02 -0.10150720610E+03  0.63820528545E+02  0.14131156645E+03  0.00000000000E+00 0. -1.
         -5    1    5    5    0  502  0.90132493408E+02  0.60291303173E+01 -0.40693939926E+03  0.41687166064E+03  0.47000000000E+01 0.  1.
         11    1    6    6    0    0  0.56353298872E+02  0.35014755934E+02 -0.15583708256E+03  0.16937214566E+03  0.00000000000E+00 0. -1.
        -12    1    6    6    0    0 -0.11433398447E+02  0.48916826681E+02 -0.49966703677E+02  0.70853722619E+02  0.00000000000E+00 0.  1.
<mgrwt>
<rscale>  2 0.23755861E+03</rscale>
<asrwt>0</asrwt>
<pdfrwt beam="1">  1       21 0.37184809E-01 0.23763668E+03</pdfrwt>
<pdfrwt beam="2">  1       21 0.10757404E+00 0.23763668E+03</pdfrwt>
<totfact> 0.46485347E+03</totfact>
</mgrwt>
</event>
<event>
12    1  0.1071811E-001  0.2121601E+03  0.7546771E-02  0.1140078E+00
         21   -1    0    0  501  502  0.00000000000E+00  0.00000000000E+00  0.56704804417E+03  0.56704804417E+03  0.00000000000E+00 0. -1.
         21   -1    0    0  502  503 -0.00000000000E+00 -0.00000000000E+00 -0.22067793510E+03  0.22067793510E+03  0.00000000000E+00 0. -1.
         -6    2    1    2    0  503 -0.57146255658E+02  0.10694002952E+03 -0.14226811049E+03  0.25544495214E+03  0.17409779970E+03 0.  0.
        -24    2    3    3    0    0 -0.10507715439E+03  0.91533396713E+02 -0.11889650238E+03  0.19973985853E+03  0.79624504519E+02 0.  0.
          6    2    1    2  501    0  0.57146255658E+02 -0.10694002952E+03  0.48863821956E+03  0.53228102713E+03  0.17278286310E+03 0.  0.
         24    2    5    5    0    0 -0.22069168832E+02 -0.23702856204E+02  0.13203865006E+03  0.15759602147E+03  0.79708388947E+02 0.  0.
          5    1    5    5  501    0  0.79215424489E+02 -0.83237173311E+02  0.35659956951E+03  0.37468500567E+03  0.47000000000E+01 0. -1.
        -11    1    6    6    0    0 -0.42966977315E+02 -0.40156158927E+02  0.81741148971E+02  0.10069902519E+03  0.00000000000E+00 0.  1.
         12    1    6    6    0    0  0.20897808483E+02  0.16453302723E+02  0.50297501084E+02  0.56896996276E+02  0.00000000000E+00 0. -1.
         -5    1    3    3    0  503  0.47930898735E+02  0.15406632803E+02 -0.23371608108E+02  0.55705093604E+02  0.47000000000E+01 0.  1.
         13    1    4    4    0    0 -0.89774450275E+02  0.68617657500E+02 -0.46341599621E+02  0.12212853351E+03  0.00000000000E+00 0. -1.
        -14    1    4    4    0    0 -0.15302704117E+02  0.22915739213E+02 -0.72554902756E+02  0.77611325017E+02  0.00000000000E+00 0.  1.
<mgrwt>
<rscale>  2 0.21189016E+03</rscale>
<asrwt>0</asrwt>
<pdfrwt beam="1">  1       21 0.87238160E-01 0.21216010E+03</pdfrwt>
<pdfrwt beam="2">  1       21 0.33950452E-01 0.21216010E+03</pdfrwt>
<totfact> 0.93092057E+03</totfact>
</mgrwt>
</event>
<event>
12    1  0.1071811E-001  0.2566690E+03  0.7546771E-02  0.1109548E+00
         21   -1    0    0  503  502  0.00000000000E+00  0.00000000000E+00  0.20537708753E+03  0.20537708753E+03  0.00000000000E+00 0.  1.
         21   -1    0    0  501  503 -0.00000000000E+00 -0.00000000000E+00 -0.32514955142E+03  0.32514955142E+03  0.00000000000E+00 0. -1.
          6    2    1    2  501    0  0.12811248975E+02 -0.18585178463E+03 -0.99928810042E+02  0.27309167372E+03  0.17288227564E+03 0.  0.
         24    2    3    3    0    0  0.61872069070E+02 -0.15782442739E+03 -0.10663530805E+03  0.21599908280E+03  0.80918551869E+02 0.  0.
         -6    2    1    2    0  502 -0.12811248975E+02  0.18585178463E+03 -0.19843653840E+02  0.25743496523E+03  0.17656153820E+03 0.  0.
        -24    2    5    5    0    0  0.81781012237E+01  0.13466421375E+02 -0.14220721797E+02  0.83621922990E+02  0.80883689529E+02 0.  0.
          5    1    3    3  501    0 -0.49060820095E+02 -0.28027357243E+02  0.67064980125E+01  0.57092590920E+02  0.47000000000E+01 0. -1.
        -13    1    4    4    0    0 -0.14250322942E+02 -0.37947046100E+01 -0.21317862782E+01  0.14900201333E+02  0.00000000000E+00 0.  1.
         14    1    4    4    0    0  0.76122392012E+02 -0.15402972278E+03 -0.10450352178E+03  0.20109888147E+03  0.00000000000E+00 0. -1.
         -5    1    5    5    0  502 -0.20989350199E+02  0.17238536326E+03 -0.56229320437E+01  0.17381304224E+03  0.47000000000E+01 0.  1.
         13    1    6    6    0    0 -0.36435021193E+02  0.76064131645E+01 -0.36383774510E+01  0.37397942203E+02  0.00000000000E+00 0. -1.
        -14    1    6    6    0    0  0.44613122416E+02  0.58600082102E+01 -0.10582344346E+02  0.46223980787E+02  0.00000000000E+00 0.  1.
<mgrwt>
<rscale>  2 0.25603747E+03</rscale>
<asrwt>0</asrwt>
<pdfrwt beam="1">  1       21 0.31596475E-01 0.25666903E+03</pdfrwt>
<pdfrwt beam="2">  1       21 0.50023007E-01 0.25666903E+03</pdfrwt>
<totfact> 0.35557502E+04</totfact>
</mgrwt>
</event>
<event>
12    1  0.1071811E-001  0.2246703E+03  0.7546771E-02  0.1130696E+00
         21   -1    0    0  501  502  0.00000000000E+00  0.00000000000E+00  0.75459671394E+02  0.75459671394E+02  0.00000000000E+00 0.  1.
         21   -1    0    0  502  503 -0.00000000000E+00 -0.00000000000E+00 -0.14120961234E+04  0.14120961234E+04  0.00000000000E+00 0.  1.
         -6    2    1    2    0  503 -0.71831784632E+02  0.12263153317E+03 -0.12084088115E+04  0.12288685572E+04  0.17224336559E+03 0.  0.
        -24    2    3    3    0    0  0.13432649077E+02  0.32445898361E+02 -0.31761234126E+03  0.32945546315E+03  0.80188094490E+02 0.  0.
          6    2    1    2  501    0  0.71831784632E+02 -0.12263153317E+03 -0.12822764050E+03  0.25868723758E+03  0.17400707136E+03 0.  0.
         24    2    5    5    0    0  0.28560845625E+02 -0.89374613251E+01 -0.77331621804E+02  0.12673569020E+03  0.95844432918E+02 0.  0.
          5    1    5    5  501    0  0.43270939007E+02 -0.11369407185E+03 -0.50896018701E+02  0.13195154738E+03  0.47000000000E+01 0. -1.
        -11    1    6    6    0    0 -0.13002869306E+02 -0.40589230235E+02 -0.14496623148E+02  0.45019021580E+02  0.00000000000E+00 0.  1.
         12    1    6    6    0    0  0.41563714931E+02  0.31651768910E+02 -0.62834998656E+02  0.81716668618E+02  0.00000000000E+00 0. -1.
         -5    1    3    3    0  503 -0.85264433709E+02  0.90185634813E+02 -0.89079647026E+03  0.89941309408E+03  0.47000000000E+01 0.  1.
         11    1    4    4    0    0  0.40989369321E+02  0.41337348746E+02 -0.22592496997E+03  0.23330451529E+03  0.00000000000E+00 0. -1.
        -12    1    4    4    0    0 -0.27556720244E+02 -0.88914503847E+01 -0.91687371287E+02  0.96150947859E+02  0.00000000000E+00 0.  1.
<mgrwt>
<rscale>  2 0.22432876E+03</rscale>
<asrwt>0</asrwt>
<pdfrwt beam="1">  1       21 0.11609180E-01 0.22467033E+03</pdfrwt>
<pdfrwt beam="2">  1       21 0.21724556E+00 0.22467033E+03</pdfrwt>
<totfact> 0.63304123E+03</totfact>
</mgrwt>
</event>
<event>
12    1  0.1071811E-001  0.4088849E+03  0.7546771E-02  0.1040805E+00
         21   -1    0    0  503  502  0.00000000000E+00  0.00000000000E+00  0.23200176232E+04  0.23200176232E+04  0.00000000000E+00 0.  1.
         21   -1    0    0  501  503 -0.00000000000E+00 -0.00000000000E+00 -0.78925450206E+02  0.78925450206E+02  0.00000000000E+00 0. -1.
          6    2    1    2  501    0 -0.38004718885E+01  0.37053385029E+03  0.76455968159E+03  0.86702848515E+03  0.17284996256E+03 0.  0.
         24    2    3    3    0    0  0.28561699493E+02  0.12789333696E+03  0.20528135571E+03  0.25650734330E+03  0.80517736245E+02 0.  0.
         -6    2    1    2    0  502  0.38004718885E+01 -0.37053385029E+03  0.14765324914E+04  0.15319145883E+04  0.17118507453E+03 0.  0.
        -24    2    5    5    0    0 -0.33429961605E+02 -0.12324597391E+03  0.48657927093E+03  0.51085295069E+03  0.88905668614E+02 0.  0.
          5    1    3    3  501    0 -0.32362171382E+02  0.24264051333E+03  0.55927832588E+03  0.61052114185E+03  0.47000000000E+01 0. -1.
        -11    1    4    4    0    0  0.71828114268E+01 -0.11066225796E+02  0.18672626975E+02  0.22863095405E+02  0.00000000000E+00 0.  1.
         12    1    4    4    0    0  0.21378888067E+02  0.13895956275E+03  0.18660872873E+03  0.23364424789E+03  0.00000000000E+00 0. -1.
         -5    1    5    5    0  502  0.37230433493E+02 -0.24728787638E+03  0.98995322051E+03  0.10210616376E+04  0.47000000000E+01 0.  1.
         13    1    6    6    0    0  0.24879639121E+02 -0.12146496015E+02  0.12785927786E+03  0.13082250855E+03  0.00000000000E+00 0. -1.
        -14    1    6    6    0    0 -0.58309600726E+02 -0.11109947790E+03  0.35871999307E+03  0.38003044214E+03  0.00000000000E+00 0.  1.
<mgrwt>
<rscale>  2 0.40870956E+03</rscale>
<asrwt>0</asrwt>
<pdfrwt beam="1">  1       21 0.35692574E+00 0.40888493E+03</pdfrwt>
<pdfrwt beam="2">  1       21 0.12142379E-01 0.40888493E+03</pdfrwt>
<totfact> 0.73960467E+02</totfact>
</mgrwt>
</event>
<event>
11    1  0.1071811E-001  0.2325312E+03  0.7546771E-02  0.1124921E+00
         21   -1    0    0  503  502  0.00000000000E+00  0.00000000000E+00  0.14284637545E+04  0.14284637545E+04  0.00000000000E+00 0. -1.
         21   -1    0    0  501  503 -0.00000000000E+00 -0.00000000000E+00 -0.38782312322E+02  0.38782312322E+02  0.00000000000E+00 0.  1.
          6    2    1    2  501    0 -0.11459515467E+03  0.10465521059E+03  0.57881159735E+03  0.62377369183E+03  0.17316463503E+03 0.  0.
         -6    2    1    2    0  502  0.11459515467E+03 -0.10465521059E+03  0.81086984484E+03  0.84347237500E+03  0.17277436017E+03 0.  0.
        -24    2    4    4    0    0  0.19829886701E+02 -0.10050289469E+03  0.56379213734E+03  0.57877031364E+03  0.81359975302E+02 0.  0.
          5    1    3    3  501    0 -0.85953066997E+02 -0.26483817506E+02  0.20272430018E+03  0.22183001194E+03  0.47000000000E+01 0. -1.
        -13    1    3    3    0    0 -0.11418238583E+02  0.10982180617E+03  0.25648104198E+03  0.27923776639E+03  0.00000000000E+00 0.  1.
         14    1    3    3    0    0 -0.17223849093E+02  0.21317221920E+02  0.11960625519E+03  0.12270591350E+03  0.00000000000E+00 0. -1.
         -5    1    4    4    0  502  0.94765267971E+02 -0.41523159020E+01  0.24707770750E+03  0.26470206135E+03  0.47000000000E+01 0.  1.
         11    1    5    5    0    0  0.45659691289E+02 -0.27883471998E+02  0.24848723709E+03  0.25418143602E+03  0.00000000000E+00 0. -1.
        -12    1    5    5    0    0 -0.25829804587E+02 -0.72619422688E+02  0.31530490025E+03  0.32458887762E+03  0.00000000000E+00 0.  1.
<mgrwt>
<rscale>  2 0.23245853E+03</rscale>
<asrwt>0</asrwt>
<pdfrwt beam="1">  1       21 0.21976361E+00 0.23253119E+03</pdfrwt>
<pdfrwt beam="2">  1       21 0.59665107E-02 0.23253119E+03</pdfrwt>
<totfact> 0.19496062E+04</totfact>
</mgrwt>
</event>
<event>
12    1  0.1071811E-001  0.1808782E+03  0.7546771E-02  0.1168566E+00
         21   -1    0    0  501  502  0.00000000000E+00  0.00000000000E+00  0.13353030716E+03  0.13353030716E+03  0.00000000000E+00 0. -1.
         21   -1    0    0  502  503 -0.00000000000E+00 -0.00000000000E+00 -0.24001134908E+03  0.24001134908E+03  0.00000000000E+00 0.  1.
         -6    2    1    2    0  503 -0.54012248373E+02  0.11177351725E+02 -0.30685828512E+02  0.18346264291E+03  0.17226335973E+03 0.  0.
        -24    2    3    3    0    0  0.29274894806E+02 -0.18938176014E+02 -0.35257827276E+02  0.94655625153E+02  0.80628152728E+02 0.  0.
          6    2    1    2  501    0  0.54012248373E+02 -0.11177351725E+02 -0.75795213409E+02  0.19007901333E+03  0.16535676813E+03 0.  0.
         24    2    5    5    0    0 -0.17319474733E+01  0.39232539394E+02 -0.17080003830E+02  0.94590069835E+02  0.84340755221E+02 0.  0.
          5    1    5    5  501    0  0.55744195846E+02 -0.50409891119E+02 -0.58715209579E+02  0.95488943492E+02  0.47000000000E+01 0. -1.
        -13    1    6    6    0    0 -0.92482616452E+01 -0.15221818505E+02 -0.32879637193E+02  0.37393911858E+02  0.00000000000E+00 0.  1.
         14    1    6    6    0    0  0.75163141719E+01  0.54454357899E+02  0.15799633363E+02  0.57196157977E+02  0.00000000000E+00 0. -1.
         -5    1    3    3    0  503 -0.83287143179E+02  0.30115527740E+02  0.45719987645E+01  0.88807017755E+02  0.47000000000E+01 0.  1.
         13    1    4    4    0    0 -0.44084668639E+01  0.24657643002E+02 -0.30340366815E+02  0.39344272734E+02  0.00000000000E+00 0. -1.
        -14    1    4    4    0    0  0.33683361670E+02 -0.43595819016E+02 -0.49174604609E+01  0.55311352419E+02  0.00000000000E+00 0.  1.
<mgrwt>
<rscale>  2 0.17921414E+03</rscale>
<asrwt>0</asrwt>
<pdfrwt beam="1">  1       21 0.20543124E-01 0.18087819E+03</pdfrwt>
<pdfrwt beam="2">  1       21 0.36924823E-01 0.18087819E+03</pdfrwt>
<totfact> 0.15587804E+05</totfact>
</mgrwt>
</event>
<event>
12    1  0.1071811E-001  0.1950112E+03  0.7546771E-02  0.1154095E+00
         21   -1    0    0  503  502  0.00000000000E+00  0.00000000000E+00  0.40535938780E+03  0.40535938780E+03  0.00000000000E+00 0. -1.
         21   -1    0    0  501  503 -0.00000000000E+00 -0.00000000000E+00 -0.95627539854E+02  0.95627539854E+02  0.00000000000E+00 0. -1.
          6    2    1    2  501    0 -0.80457000415E+02  0.36791836519E+02  0.11894688357E+03  0.22842442335E+03  0.17378834232E+03 0.  0.
         24    2    3    3    0    0  0.22139562053E+02  0.33683771859E+01  0.20393809815E+02  0.82212315068E+02  0.76429386346E+02 0.  0.
         -6    2    1    2    0  502  0.80457000415E+02 -0.36791836519E+02  0.19078496438E+03  0.27256250430E+03  0.17339102620E+03 0.  0.
        -24    2    5    5    0    0 -0.22732240080E+02 -0.36227526107E+02  0.70150353811E+02  0.11374456744E+03  0.78661083746E+02 0.  0.
          5    1    3    3  501    0 -0.10259656247E+03  0.33423459333E+02  0.98553073750E+02  0.14621210829E+03  0.47000000000E+01 0. -1.
        -13    1    4    4    0    0 -0.33561945884E+01  0.35928434742E+02  0.19122001593E+02  0.40838308120E+02  0.00000000000E+00 0.  1.
         14    1    4    4    0    0  0.25495756641E+02 -0.32560057557E+02  0.12718082219E+01  0.41374006948E+02  0.00000000000E+00 0. -1.
         -5    1    5    5    0  502  0.10318924050E+03 -0.56431041183E+00  0.12063461057E+03  0.15881793686E+03  0.47000000000E+01 0.  1.
         13    1    6    6    0    0 -0.19031383054E+02  0.86883593871E+01 -0.89113606672E+01  0.22739689504E+02  0.00000000000E+00 0. -1.
        -14    1    6    6    0    0 -0.37008570262E+01 -0.44915885494E+02  0.79061714478E+02  0.91004877939E+02  0.00000000000E+00 0.  1.
<mgrwt>
<rscale>  2 0.19492261E+03</rscale>
<asrwt>0</asrwt>
<pdfrwt beam="1">  1       21 0.62362982E-01 0.19501117E+03</pdfrwt>
<pdfrwt beam="2">  1       21 0.14711929E-01 0.19501117E+03</pdfrwt>
<totfact> 0.96801728E+04</totfact>
</mgrwt>
</event>
<event>
12    1  0.1071811E-001  0.2512759E+03  0.7546771E-02  0.1112547E+00
         21   -1    0    0  501  502  0.00000000000E+00  0.00000000000E+00  0.86735986906E+03  0.86735986906E+03  0.00000000000E+00 0.  1.
         21   -1    0    0  502  503 -0.00000000000E+00 -0.00000000000E+00 -0.10456850954E+03  0.10456850954E+03  0.00000000000E+00 0.  1.
         -6    2    1    2    0  503  0.14903937969E+03  0.10445460974E+03  0.11331733831E+03  0.27564544565E+03  0.17325152337E+03 0.  0.
        -24    2    3    3    0    0  0.89306100496E+02 -0.36733351182E+01  0.88701929171E+02  0.14959892459E+03  0.80763438659E+02 0.  0.
          6    2    1    2  501    0 -0.14903937969E+03 -0.10445460974E+03  0.64947402121E+03  0.69628293296E+03  0.17282915352E+03 0.  0.
         24    2    5    5    0    0 -0.10289123053E+03  0.44207245293E+01  0.37703676178E+03  0.39925155346E+03  0.81479660510E+02 0.  0.
          5    1    5    5  501    0 -0.46148149159E+02 -0.10887533427E+03  0.27243725943E+03  0.29703137950E+03  0.47000000000E+01 0. -1.
        -13    1    6    6    0    0 -0.10239009895E+03 -0.14503589791E+02  0.35704306923E+03  0.37171741924E+03  0.00000000000E+00 0.  1.
         14    1    6    6    0    0 -0.50113158413E+00  0.18924314320E+02  0.19993692553E+02  0.27534134221E+02  0.00000000000E+00 0. -1.
         -5    1    3    3    0  503  0.59733279197E+02  0.10812794485E+03  0.24615409140E+02  0.12604652105E+03  0.47000000000E+01 0.  1.
         11    1    4    4    0    0  0.66275187802E+02  0.54874739958E+01  0.10203296182E+02  0.67280161578E+02  0.00000000000E+00 0. -1.
        -12    1    4    4    0    0  0.23030912694E+02 -0.91608091140E+01  0.78498632989E+02  0.82318763015E+02  0.00000000000E+00 0.  1.
<mgrwt>
<rscale>  2 0.25120314E+03</rscale>
<asrwt>0</asrwt>
<pdfrwt beam="1">  1       21 0.13343997E+00 0.25127593E+03</pdfrwt>
<pdfrwt beam="2">  1       21 0.16087464E-01 0.25127593E+03</pdfrwt>
<totfact> 0.13460050E+04</totfact>
</mgrwt>
</event>
<event>
12    1  0.1071811E-001  0.2326984E+03  0.7546771E-02  0.1124768E+00
         21   -1    0    0  503  502  0.00000000000E+00  0.00000000000E+00  0.45822597434E+02  0.45822597434E+02  0.00000000000E+00 0. -1.
         21   -1    0    0  501  503 -0.00000000000E+00 -0.00000000000E+00 -0.11948770955E+04  0.11948770955E+04  0.00000000000E+00 0. -1.
          6    2    1    2  501    0 -0.15165309079E+03  0.37935597281E+02 -0.64050074310E+03  0.68143637018E+03  0.17226884574E+03 0.  0.
         24    2    3    3    0    0 -0.14564619319E+03 -0.21550656598E+02 -0.52660611013E+03  0.55271661786E+03  0.80649984758E+02 0.  0.
         -6    2    1    2    0  502  0.15165309079E+03 -0.37935597281E+02 -0.50855375496E+03  0.55926332274E+03  0.17236813218E+03 0.  0.
        -24    2    5    5    0    0  0.14326918430E+03 -0.19819593496E+02 -0.51246444617E+03  0.53838599085E+03  0.79503403083E+02 0.  0.
          5    1    3    3  501    0 -0.60068975952E+01  0.59486253879E+02 -0.11389463296E+03  0.12871975232E+03  0.47000000000E+01 0. -1.
        -13    1    4    4    0    0  0.43067533550E+01 -0.16813423535E+02 -0.42893386697E+02  0.46271826825E+02  0.00000000000E+00 0.  1.
         14    1    4    4    0    0 -0.14995294655E+03 -0.47372330633E+01 -0.48371272343E+03  0.50644479104E+03  0.00000000000E+00 0. -1.
         -5    1    5    5    0  502  0.83839064904E+01 -0.18116003785E+02  0.39106912066E+01  0.20877331891E+02  0.47000000000E+01 0.  1.
         11    1    6    6    0    0  0.64767331179E+02 -0.25390884089E+02 -0.12541889088E+03  0.14342036945E+03  0.00000000000E+00 0. -1.
        -12    1    6    6    0    0  0.78501853120E+02  0.55712905938E+01 -0.38704555528E+03  0.39496562140E+03  0.00000000000E+00 0.  1.
<mgrwt>
<rscale>  2 0.23268001E+03</rscale>
<asrwt>0</asrwt>
<pdfrwt beam="1">  1       21 0.70496309E-02 0.23269839E+03</pdfrwt>
<pdfrwt beam="2">  1       21 0.18382723E+00 0.23269839E+03</pdfrwt>
<totfact> 0.24945185E+04</totfact>
</mgrwt>
</event>
<event>
12    1  0.1071811E-001  0.1972478E+03  0.7546771E-02  0.1152109E+00
         21   -1    0    0  501  502  0.00000000000E+00  0.00000000000E+00  0.12708565753E+03  0.12708565753E+03  0.00000000000E+00 0.  1.
         21   -1    0    0  502  503 -0.00000000000E+00 -0.00000000000E+00 -0.44169975589E+03  0.44169975589E+03  0.00000000000E+00 0.  1.
         -6    2    1    2    0  503 -0.94757862437E+02  0.75872150758E+01 -0.31493256740E+03  0.37153740046E+03  0.17268728848E+03 0.  0.
        -24    2    3    3    0    0 -0.67537143655E+02  0.72080087661E+02 -0.18891593836E+03  0.22730640885E+03  0.78880713282E+02 0.  0.
          6    2    1    2  501    0  0.94757862437E+02 -0.75872150758E+01  0.31846904257E+00  0.19724801296E+03  0.17282956596E+03 0.  0.
         24    2    5    5    0    0  0.87565212948E+02 -0.12212080370E+02 -0.61801630677E+02  0.13436621612E+03  0.80112652267E+02 0.  0.
          5    1    5    5  501    0  0.71926494890E+01  0.46248652944E+01  0.62120099720E+02  0.62881796848E+02  0.47000000000E+01 0. -1.
        -11    1    6    6    0    0  0.55757347939E+02 -0.14231654103E+02  0.75532122844E+01  0.58038546187E+02  0.00000000000E+00 0.  1.
         12    1    6    6    0    0  0.31807865009E+02  0.20195737327E+01 -0.69354842962E+02  0.76327669929E+02  0.00000000000E+00 0. -1.
         -5    1    3    3    0  503 -0.27220718782E+02 -0.64492872585E+02 -0.12601662904E+03  0.14423099161E+03  0.47000000000E+01 0.  1.
         11    1    4    4    0    0 -0.25954228791E+02  0.10103982620E+02 -0.43082059947E+01  0.28182851095E+02  0.00000000000E+00 0. -1.
        -12    1    4    4    0    0 -0.41582914864E+02  0.61976105041E+02 -0.18460773236E+03  0.19912355775E+03  0.00000000000E+00 0.  1.
<mgrwt>
<rscale>  2 0.19721659E+03</rscale>
<asrwt>0</asrwt>
<pdfrwt beam="1">  1       21 0.19551640E-01 0.19724776E+03</pdfrwt>
<pdfrwt beam="2">  1       21 0.67953808E-01 0.19724776E+03</pdfrwt>
<totfact> 0.47518512E+04</totfact>
</mgrwt>
</event>
<event>
12    1  0.1071811E-001  0.2013174E+03  0.7546771E-02  0.1149161E+00
         21   -1    0    0  501  502  0.00000000000E+00  0.00000000000E+00  0.20147161217E+02  0.20147161217E+02  0.00000000000E+00 0. -1.
         21   -1    0    0  502  503 -0.00000000000E+00 -0.00000000000E+00 -0.20611769525E+04  0.20611769525E+04  0.00000000000E+00 0. -1.
         -6    2    1    2    0  503 -0.35907829624E+00 -0.98673378288E+02 -0.12246302660E+04  0.12410672699E+04  0.17547682376E+03 0.  0.
        -24    2    3    3    0    0 -0.44371673577E+02 -0.88931981495E+02 -0.11185755368E+04  0.11257342784E+04  0.78668235848E+02 0.  0.
          6    2    1    2  501    0  0.35907829624E+00  0.98673378288E+02 -0.81639952528E+03  0.84025684374E+03  0.17258856873E+03 0.  0.
         24    2    5    5    0    0  0.28883287499E+02  0.10439687660E+03 -0.78773586415E+03  0.79914620749E+03  0.79836815644E+02 0.  0.
          5    1    5    5  501    0 -0.28524209203E+02 -0.57234983152E+01 -0.28663661124E+02  0.41110636247E+02  0.47000000000E+01 0. -1.
        -11    1    6    6    0    0 -0.13918157683E+02 -0.65460182071E+01 -0.10753307311E+03  0.10862747019E+03  0.00000000000E+00 0.  1.
         12    1    6    6    0    0  0.42801445182E+02  0.11094289481E+03 -0.68020279105E+03  0.69051873730E+03  0.00000000000E+00 0. -1.
         -5    1    3    3    0  503  0.44012595281E+02 -0.97413967925E+01 -0.10605472917E+03  0.11533299153E+03  0.47000000000E+01 0.  1.
         13    1    4    4    0    0  0.21512614524E+02 -0.25350919170E+02 -0.39314666569E+03  0.39455007594E+03  0.00000000000E+00 0. -1.
        -14    1    4    4    0    0 -0.65884288102E+02 -0.63581062325E+02 -0.72542887111E+03  0.73118420247E+03  0.00000000000E+00 0.  1.
<mgrwt>
<rscale>  2 0.20068628E+03</rscale>
<asrwt>0</asrwt>
<pdfrwt beam="1">  1       21 0.30995628E-02 0.20131736E+03</pdfrwt>
<pdfrwt beam="2">  1       21 0.31710420E+00 0.20131736E+03</pdfrwt>
<totfact> 0.16158649E+04</totfact>
</mgrwt>
</event>
<event>
12    1  0.1071811E-001  0.2070468E+03  0.7546771E-02  0.1144004E+00
         21   -1    0    0  503  502  0.00000000000E+00  0.00000000000E+00  0.91200783731E+03  0.91200783731E+03  0.00000000000E+00 0. -1.
         21   -1    0    0  501  503 -0.00000000000E+00 -0.00000000000E+00 -0.85589049523E+02  0.85589049523E+02  0.00000000000E+00 0.  1.
          6    2    1    2  501    0  0.52642364760E+02  0.10046441814E+03  0.74870866506E+03  0.77680952590E+03  0.17321679050E+03 0.  0.
         24    2    3    3    0    0  0.65613245859E+02  0.40182929420E+02  0.24400304174E+03  0.26832947924E+03  0.80891651001E+02 0.  0.
         -6    2    1    2    0  502 -0.52642364760E+02 -0.10046441814E+03  0.77710122728E+02  0.22078736094E+03  0.17275380660E+03 0.  0.
        -24    2    5    5    0    0 -0.39190637636E+02  0.78727605836E+01  0.13125260053E+02  0.93857507306E+02  0.83899182289E+02 0.  0.
          5    1    3    3  501    0 -0.12970881099E+02  0.60281488717E+02  0.50470562332E+03  0.50848004666E+03  0.47000000000E+01 0. -1.
        -11    1    4    4    0    0  0.40362955155E+02 -0.18850066992E+02  0.13090150496E+03  0.13827399313E+03  0.00000000000E+00 0.  1.
         12    1    4    4    0    0  0.25250290704E+02  0.59032996412E+02  0.11310153678E+03  0.13005548611E+03  0.00000000000E+00 0. -1.
         -5    1    5    5    0  502 -0.13451727124E+02 -0.10833717872E+03  0.64584862675E+02  0.12692985363E+03  0.47000000000E+01 0.  1.
         13    1    6    6    0    0  0.17793018910E+02 -0.68817164923E+01 -0.18893467350E+02  0.26849816616E+02  0.00000000000E+00 0. -1.
        -14    1    6    6    0    0 -0.56983656546E+02  0.14754477076E+02  0.32018727403E+02  0.67007690690E+02  0.00000000000E+00 0.  1.
<mgrwt>
<rscale>  2 0.20694993E+03</rscale>
<asrwt>0</asrwt>
<pdfrwt beam="1">  1       21 0.14030889E+00 0.20704679E+03</pdfrwt>
<pdfrwt beam="2">  1       21 0.13167547E-01 0.20704679E+03</pdfrwt>
<totfact> 0.17502868E+04</totfact>
</mgrwt>
</event>
<event>
12    1  0.1071811E-001  0.1873317E+03  0.7546771E-02  0.1162684E+00
         21   -1    0    0  503  502  0.00000000000E+00  0.00000000000E+00  0.72694298904E+02  0.72694298904E+02  0.00000000000E+00 0.  1.
         21   -1    0    0  501  503 -0.00000000000E+00 -0.00000000000E+00 -0.49421496121E+03  0.49421496121E+03  0.00000000000E+00 0.  1.
          6    2    1    2  501    0  0.51464625001E+02  0.51731458160E+02 -0.14395805433E+03  0.23625640997E+03  0.17253526727E+03 0.  0.
         24    2    3    3    0    0 -0.31463929216E+02 -0.63582829133E+01 -0.71381937608E+02  0.11159307999E+03  0.79543873939E+02 0.  0.
         -6    2    1    2    0  502 -0.51464625001E+02 -0.51731458160E+02 -0.27756260797E+03  0.33065285015E+03  0.16421191972E+03 0.  0.
        -24    2    5    5    0    0 -0.54557759892E+02 -0.81059580064E+02 -0.13022456627E+03  0.18031890605E+03  0.77519452601E+02 0.  0.
          5    1    3    3  501    0  0.82928554217E+02  0.58089741073E+02 -0.72576116726E+02  0.12466332998E+03  0.47000000000E+01 0. -1.
        -13    1    4    4    0    0 -0.99710879846E+01 -0.25450178130E+02  0.69069292459E+01  0.28192903967E+02  0.00000000000E+00 0.  1.
         14    1    4    4    0    0 -0.21492841231E+02  0.19091895217E+02 -0.78288866853E+02  0.83400176021E+02  0.00000000000E+00 0. -1.
         -5    1    5    5    0  502  0.30931348907E+01  0.29328121905E+02 -0.14733804170E+03  0.15033394410E+03  0.47000000000E+01 0.  1.
         11    1    6    6    0    0 -0.46918915575E+02 -0.90190058069E+02 -0.13365829820E+03  0.16792906803E+03  0.00000000000E+00 0. -1.
        -12    1    6    6    0    0 -0.76388443172E+01  0.91304780049E+01  0.34337319221E+01  0.12389838014E+02  0.00000000000E+00 0.  1.
<mgrwt>
<rscale>  2 0.18539264E+03</rscale>
<asrwt>0</asrwt>
<pdfrwt beam="1">  1       21 0.11183738E-01 0.18733171E+03</pdfrwt>
<pdfrwt beam="2">  1       21 0.76033070E-01 0.18733171E+03</pdfrwt>
<totfact> 0.10282319E+05</totfact>
</mgrwt>
</event>
<event>
12    1  0.1071811E-001  0.1774925E+03  0.7546771E-02  0.1170344E+00
         21   -1    0    0  501  502  0.00000000000E+00  0.00000000000E+00  0.27743857720E+03  0.27743857720E+03  0.00000000000E+00 0.  1.
         21   -1    0    0  502  503 -0.00000000000E+00 -0.00000000000E+00 -0.16569020766E+03  0.16569020766E+03  0.00000000000E+00 0.  1.
         -6    2    1    2    0  503  0.31399492961E+02 -0.24391423622E+02 -0.68658118965E+02  0.19030897925E+03  0.17298179262E+03 0.  0.
        -24    2    3    3    0    0  0.72462600460E+02  0.15738098125E+02 -0.78226375624E+02  0.13191207138E+03  0.76045463600E+02 0.  0.
          6    2    1    2  501    0 -0.31399492961E+02  0.24391423622E+02  0.18040648851E+03  0.25281980561E+03  0.17259919845E+03 0.  0.
         24    2    5    5    0    0 -0.34238909323E+02 -0.44061416535E+02  0.14761086478E+03  0.17671792293E+03  0.79539584776E+02 0.  0.
          5    1    5    5  501    0  0.28394163618E+01  0.68452840157E+02  0.32795623731E+02  0.76101882676E+02  0.47000000000E+01 0. -1.
        -11    1    6    6    0    0 -0.42328164082E+02 -0.10347764770E+01  0.31933565076E+02  0.53032978564E+02  0.00000000000E+00 0.  1.
         12    1    6    6    0    0  0.80892547590E+01 -0.43026640058E+02  0.11567729970E+03  0.12368494437E+03  0.00000000000E+00 0. -1.
         -5    1    3    3    0  503 -0.41063107499E+02 -0.40129521747E+02  0.95682566588E+01  0.58396907868E+02  0.47000000000E+01 0.  1.
         11    1    4    4    0    0 -0.76830042448E+01  0.33030361833E+01 -0.42452341714E+02  0.43268232218E+02  0.00000000000E+00 0. -1.
        -12    1    4    4    0    0  0.80145604705E+02  0.12435061942E+02 -0.35774033910E+02  0.88643839161E+02  0.00000000000E+00 0.  1.
<mgrwt>
<rscale>  2 0.17739917E+03</rscale>
<asrwt>0</asrwt>
<pdfrwt beam="1">  1       21 0.42682858E-01 0.17749245E+03</pdfrwt>
<pdfrwt beam="2">  1       21 0.25490801E-01 0.17749245E+03</pdfrwt>
<totfact> 0.77541009E+04</totfact>
</mgrwt>
</event>
<event>
12    1  0.1071811E-001  0.2014302E+03  0.7546771E-02  0.1148614E+00
         21   -1    0    0  503  502  0.00000000000E+00  0.00000000000E+00  0.36031322953E+03  0.36031322953E+03  0.00000000000E+00 0. -1.
         21   -1    0    0  501  503 -0.00000000000E+00 -0.00000000000E+00 -0.24288803898E+03  0.24288803898E+03  0.00000000000E+00 0.  1.
          6    2    1    2  501    0 -0.10266746151E+03 -0.16754204818E+02 -0.16232029628E+03  0.25869290783E+03  0.17249008942E+03 0.  0.
         24    2    3    3    0    0 -0.11375150525E+03  0.12825991357E+02 -0.16694573249E+03  0.22642328293E+03  0.10145301599E+03 0.  0.
         -6    2    1    2    0  502  0.10266746151E+03  0.16754204818E+02  0.27974548683E+03  0.34450836068E+03  0.17206731865E+03 0.  0.
        -24    2    5    5    0    0  0.76954937006E+02  0.76800871578E+02  0.18717308557E+03  0.23111314218E+03  0.80988173959E+02 0.  0.
          5    1    3    3  501    0  0.11084043743E+02 -0.29580196175E+02  0.46254362165E+01  0.32269624907E+02  0.47000000000E+01 0. -1.
        -11    1    4    4    0    0  0.61920649364E+01 -0.22905968188E+02 -0.10160285547E+02  0.25811943925E+02  0.00000000000E+00 0.  1.
         12    1    4    4    0    0 -0.11994357019E+03  0.35731959545E+02 -0.15678544695E+03  0.20061133900E+03  0.00000000000E+00 0. -1.
         -5    1    5    5    0  502  0.25712524501E+02 -0.60046666760E+02  0.92572401254E+02  0.11339521850E+03  0.47000000000E+01 0.  1.
         11    1    6    6    0    0  0.41557463990E+02 -0.69390178470E+01  0.81248249214E+02  0.91522952216E+02  0.00000000000E+00 0. -1.
        -12    1    6    6    0    0  0.35397473016E+02  0.83739889425E+02  0.10592483636E+03  0.13959018996E+03  0.00000000000E+00 0.  1.
<mgrwt>
<rscale>  2 0.20133970E+03</rscale>
<asrwt>0</asrwt>
<pdfrwt beam="1">  1       21 0.55432805E-01 0.20143024E+03</pdfrwt>
<pdfrwt beam="2">  1       21 0.37367391E-01 0.20143024E+03</pdfrwt>
<totfact> 0.21079165E+04</totfact>
</mgrwt>
</event>
<event>
12    1  0.1071811E-001  0.1835545E+03  0.7546771E-02  0.1164751E+00
         21   -1    0    0  501  502  0.00000000000E+00  0.00000000000E+00  0.56460201894E+03  0.56460201894E+03  0.00000000000E+00 0.  1.
         21   -1    0    0  502  503 -0.00000000000E+00 -0.00000000000E+00 -0.51194211564E+03  0.51194211564E+03  0.00000000000E+00 0.  1.
         -6    2    1    2    0  503  0.53331713583E+02 -0.39292249164E+02 -0.47984957610E+03  0.51375857517E+03  0.17118441914E+03 0.  0.
        -24    2    3    3    0    0  0.37743509652E+02 -0.90540212358E+02 -0.37557778841E+03  0.39643832312E+03  0.80514385753E+02 0.  0.
          6    2    1    2  501    0 -0.53331713583E+02  0.39292249164E+02  0.53250947940E+03  0.56278555941E+03  0.16962631786E+03 0.  0.
         24    2    5    5    0    0  0.35188473148E+02  0.59538874365E+01  0.26456927320E+03  0.27860020806E+03  0.79671187970E+02 0.  0.
          5    1    5    5  501    0 -0.88520186730E+02  0.33338361727E+02  0.26794020620E+03  0.28418535135E+03  0.47000000000E+01 0. -1.
        -13    1    6    6    0    0  0.47823832208E+01  0.21995635110E+02  0.22524691295E+03  0.22636883828E+03  0.00000000000E+00 0.  1.
         14    1    6    6    0    0  0.30406089927E+02 -0.16041747673E+02  0.39322360247E+02  0.52231369774E+02  0.00000000000E+00 0. -1.
         -5    1    3    3    0  503  0.15588203931E+02  0.51247963194E+02 -0.10427178769E+03  0.11732025205E+03  0.47000000000E+01 0.  1.
         11    1    4    4    0    0  0.42718479227E+01 -0.18472621322E+02 -0.83594909747E+01  0.20721185114E+02  0.00000000000E+00 0. -1.
        -12    1    4    4    0    0  0.33471661729E+02 -0.72067591036E+02 -0.36721829744E+03  0.37571713800E+03  0.00000000000E+00 0.  1.
<mgrwt>
<rscale>  2 0.18319037E+03</rscale>
<asrwt>0</asrwt>
<pdfrwt beam="1">  1       21 0.86861849E-01 0.18355451E+03</pdfrwt>
<pdfrwt beam="2">  1       21 0.78760325E-01 0.18355451E+03</pdfrwt>
<totfact> 0.16385497E+03</totfact>
</mgrwt>
</event>
<event>
12    1  0.1071811E-001  0.1924521E+03  0.7546771E-02  0.1156491E+00
         21   -1    0    0  503  502  0.00000000000E+00  0.00000000000E+00  0.20877524782E+03  0.20877524782E+03  0.00000000000E+00 0.  1.
         21   -1    0    0  501  503 -0.00000000000E+00 -0.00000000000E+00 -0.17883443818E+03  0.17883443818E+03  0.00000000000E+00 0.  1.
          6    2    1    2  501    0 -0.84125607742E+01 -0.81693328477E+02  0.37152650598E+02  0.19502248093E+03  0.17294183278E+03 0.  0.
         24    2    3    3    0    0 -0.53890342604E+01 -0.26508597920E-01 -0.34628395610E+02  0.86149987726E+02  0.78699759909E+02 0.  0.
         -6    2    1    2    0  502  0.84125607742E+01  0.81693328477E+02 -0.72118409610E+01  0.19258720508E+03  0.17404956137E+03 0.  0.
        -24    2    5    5    0    0 -0.12390059168E+02 -0.20824772218E+02 -0.23077256431E+02  0.86679172450E+02  0.79959580215E+02 0.  0.
          5    1    3    3  501    0 -0.30235265138E+01 -0.81666819879E+02  0.71781046209E+02  0.10887249320E+03  0.47000000000E+01 0. -1.
        -11    1    4    4    0    0 -0.16778937205E+02  0.17631947919E+02  0.17478765468E+02  0.29965406111E+02  0.00000000000E+00 0.  1.
         12    1    4    4    0    0  0.11389902944E+02 -0.17658456517E+02 -0.52107161078E+02  0.56184581615E+02  0.00000000000E+00 0. -1.
         -5    1    5    5    0  502  0.20802619942E+02  0.10251810069E+03  0.15865415470E+02  0.10590803263E+03  0.47000000000E+01 0.  1.
         11    1    6    6    0    0 -0.45562742902E+01 -0.97266649457E+01  0.30013757252E+02  0.31877786479E+02  0.00000000000E+00 0. -1.
        -12    1    6    6    0    0 -0.78337848774E+01 -0.11098107272E+02 -0.53091013683E+02  0.54801385972E+02  0.00000000000E+00 0.  1.
<mgrwt>
<rscale>  2 0.19220133E+03</rscale>
<asrwt>0</asrwt>
<pdfrwt beam="1">  1       21 0.32119269E-01 0.19245213E+03</pdfrwt>
<pdfrwt beam="2">  1       21 0.27512990E-01 0.19245213E+03</pdfrwt>
<totfact> 0.11753043E+05</totfact>
</mgrwt>
</event>
<event>
12    1  0.1071811E-001  0.2124572E+03  0.7546771E-02  0.1139739E+00
         21   -1    0    0  503  502  0.00000000000E+00  0.00000000000E+00  0.72074901447E+02  0.72074901447E+02  0.00000000000E+00 0. -1.
         21   -1    0    0  501  503 -0.00000000000E+00 -0.00000000000E+00 -0.85387307012E+03  0.85387307012E+03  0.00000000000E+00 0. -1.
          6    2    1    2  501    0 -0.48142910960E+02  0.11587119168E+03 -0.63039354734E+03  0.66506216499E+03  0.17078578933E+03 0.  0.
         24    2    3    3    0    0 -0.67364848287E+02  0.98850198054E+02 -0.29207008469E+03  0.32573333851E+03  0.80547433279E+02 0.  0.
         -6    2    1    2    0  502  0.48142910960E+02 -0.11587119168E+03 -0.15140462133E+03  0.26088580658E+03  0.17144728571E+03 0.  0.
        -24    2    5    5    0    0 -0.25810362080E+02 -0.99990325131E+02 -0.11744306520E+03  0.17783903776E+03  0.84673548872E+02 0.  0.
          5    1    3    3  501    0  0.19221937327E+02  0.17020993622E+02 -0.33832346265E+03  0.33932882648E+03  0.47000000000E+01 0. -1.
        -11    1    4    4    0    0 -0.26781725745E+02  0.81357317640E+02 -0.11595993825E+03  0.14416303703E+03  0.00000000000E+00 0.  1.
         12    1    4    4    0    0 -0.40583122542E+02  0.17492880414E+02 -0.17611014644E+03  0.18157030148E+03  0.00000000000E+00 0. -1.
         -5    1    5    5    0  502  0.73953273040E+02 -0.15880866545E+02 -0.33961556135E+02  0.83046768815E+02  0.47000000000E+01 0.  1.
         13    1    6    6    0    0 -0.31159424594E+02 -0.47716601677E+01 -0.77041356278E+01  0.32450457432E+02  0.00000000000E+00 0. -1.
        -14    1    6    6    0    0  0.53490625143E+01 -0.95218664964E+02 -0.10973892957E+03  0.14538858033E+03  0.00000000000E+00 0.  1.
<mgrwt>
<rscale>  2 0.21232367E+03</rscale>
<asrwt>0</asrwt>
<pdfrwt beam="1">  1       21 0.11088447E-01 0.21245716E+03</pdfrwt>
<pdfrwt beam="2">  1       21 0.13136508E+00 0.21245716E+03</pdfrwt>
<totfact> 0.28107676E+04</totfact>
</mgrwt>
</event>
<event>
12    1  0.1071811E-001  0.2068183E+03  0.7546771E-02  0.1144340E+00
         21   -1    0    0  503  502  0.00000000000E+00  0.00000000000E+00  0.10991574864E+03  0.10991574864E+03  0.00000000000E+00 0. -1.
         21   -1    0    0  501  503 -0.00000000000E+00 -0.00000000000E+00 -0.39195645237E+03  0.39195645237E+03  0.00000000000E+00 0. -1.
          6    2    1    2  501    0  0.92200117591E+02 -0.66977242187E+02 -0.16955212698E+03  0.26743549460E+03  0.17258912873E+03 0.  0.
         24    2    3    3    0    0  0.23829041455E+02  0.53760364440E-01 -0.13671009695E+02  0.84436117333E+02  0.79841939464E+02 0.  0.
         -6    2    1    2    0  502 -0.92200117591E+02  0.66977242187E+02 -0.11248857674E+03  0.23443670641E+03  0.17123106248E+03 0.  0.
        -24    2    5    5    0    0 -0.52505638664E+02  0.65817052554E+02 -0.14434897550E+03  0.18330772533E+03  0.75341681280E+02 0.  0.
          5    1    3    3  501    0  0.68371076137E+02 -0.67031002551E+02 -0.15588111728E+03  0.18299937727E+03  0.47000000000E+01 0. -1.
        -11    1    4    4    0    0  0.17419811931E+02  0.37010220829E+02  0.71675024093E+01  0.41528055388E+02  0.00000000000E+00 0.  1.
         12    1    4    4    0    0  0.64092295238E+01 -0.36956460465E+02 -0.20838512104E+02  0.42908061945E+02  0.00000000000E+00 0. -1.
         -5    1    5    5    0  502 -0.39694478928E+02  0.11601896329E+01  0.31860398759E+02  0.51128981081E+02  0.47000000000E+01 0.  1.
         11    1    6    6    0    0 -0.24901005178E+02 -0.11140411551E+02 -0.17555856855E+02  0.32440359713E+02  0.00000000000E+00 0. -1.
        -12    1    6    6    0    0 -0.27604633485E+02  0.76957464105E+02 -0.12679311865E+03  0.15086736562E+03  0.00000000000E+00 0.  1.
<mgrwt>
<rscale>  2 0.20653476E+03</rscale>
<asrwt>0</asrwt>
<pdfrwt beam="1">  1       21 0.16910115E-01 0.20681833E+03</pdfrwt>
<pdfrwt beam="2">  1       21 0.60300993E-01 0.20681833E+03</pdfrwt>
<totfact> 0.80263000E+04</totfact>
</mgrwt>
</event>
<event>
12    1  0.1071811E-001  0.2187055E+03  0.7546771E-02  0.1134950E+00
         21   -1    0    0  503  502  0.00000000000E+00  0.00000000000E+00  0.31389350170E+03  0.31389350170E+03  0.00000000000E+00 0.  1.
         21   -1    0    0  501  503 -0.00000000000E+00 -0.00000000000E+00 -0.39155258353E+03  0.39155258353E+03  0.00000000000E+00 0.  1.
          6    2    1    2  501    0  0.12574854073E+03 -0.26002798558E+02 -0.31472918882E+03  0.38325784118E+03  0.17704030474E+03 0.  0.
         24    2    3    3    0    0  0.13608321725E+03  0.23268896714E+02 -0.27918433784E+03  0.32145143435E+03  0.79542734308E+02 0.  0.
         -6    2    1    2    0  502 -0.12574854073E+03  0.26002798558E+02  0.23707010700E+03  0.32218824404E+03  0.17639214250E+03 0.  0.
        -24    2    5    5    0    0 -0.99404251781E+02 -0.50654190041E+02  0.12773328178E+03  0.18600106840E+03  0.76377705706E+02 0.  0.
          5    1    3    3  501    0 -0.10334676519E+02 -0.49271695273E+02 -0.35544850984E+02  0.61806406831E+02  0.47000000000E+01 0. -1.
        -11    1    4    4    0    0  0.11496737608E+03 -0.12854485060E+02 -0.22494175675E+03  0.25294570421E+03  0.00000000000E+00 0.  1.
         12    1    4    4    0    0  0.21115841177E+02  0.36123381775E+02 -0.54242581089E+02  0.68505730145E+02  0.00000000000E+00 0. -1.
         -5    1    5    5    0  502 -0.26344288952E+02  0.76656988599E+02  0.10933682521E+03  0.13618717564E+03  0.47000000000E+01 0.  1.
         11    1    6    6    0    0  0.17183670724E+01 -0.30527614638E+02  0.41742205394E+02  0.51742629929E+02  0.00000000000E+00 0. -1.
        -12    1    6    6    0    0 -0.10112261885E+03 -0.20126575403E+02  0.85991076387E+02  0.13425843847E+03  0.00000000000E+00 0.  1.
<mgrwt>
<rscale>  2 0.21857433E+03</rscale>
<asrwt>0</asrwt>
<pdfrwt beam="1">  1       21 0.48291308E-01 0.21870553E+03</pdfrwt>
<pdfrwt beam="2">  1       21 0.60238859E-01 0.21870553E+03</pdfrwt>
<totfact> 0.10343312E+04</totfact>
</mgrwt>
</event>
<event>
12    1  0.1071811E-001  0.2060809E+03  0.7546771E-02  0.1144730E+00
         21   -1    0    0  501  502  0.00000000000E+00  0.00000000000E+00  0.79325776236E+02  0.79325776236E+02  0.00000000000E+00 0. -1.
         21   -1    0    0  502  503 -0.00000000000E+00 -0.00000000000E+00 -0.53733150408E+03  0.53733150408E+03  0.00000000000E+00 0. -1.
         -6    2    1    2    0  503  0.79165015291E+02  0.79314220405E+02 -0.20905051483E+03  0.29347306087E+03  0.17281919599E+03 0.  0.
        -24    2    3    3    0    0  0.31749365456E+02  0.89962519819E+02 -0.58975611902E+02  0.13565608898E+03  0.76309727417E+02 0.  0.
          6    2    1    2  501    0 -0.79165015291E+02 -0.79314220405E+02 -0.24895521301E+03  0.32318421944E+03  0.17294940417E+03 0.  0.
         24    2    5    5    0    0 -0.11947326364E+03 -0.41379049660E+02 -0.19260574120E+03  0.24405656916E+03  0.80501869131E+02 0.  0.
          5    1    5    5  501    0  0.40308248350E+02 -0.37935170744E+02 -0.56349471817E+02  0.79127650277E+02  0.47000000000E+01 0. -1.
        -11    1    6    6    0    0  0.75174213496E+01 -0.17977873758E+02 -0.37280425675E+02  0.42065968515E+02  0.00000000000E+00 0.  1.
         12    1    6    6    0    0 -0.12699068499E+03 -0.23401175902E+02 -0.15532531552E+03  0.20199060065E+03  0.00000000000E+00 0. -1.
         -5    1    3    3    0  503  0.47415649835E+02 -0.10648299415E+02 -0.15007490293E+03  0.15781697189E+03  0.47000000000E+01 0.  1.
         13    1    4    4    0    0  0.16771309854E+02 -0.10911398488E+02 -0.12440273867E+02  0.23560472514E+02  0.00000000000E+00 0. -1.
        -14    1    4    4    0    0  0.14978055601E+02  0.10087391831E+03 -0.46535338035E+02  0.11209561646E+03  0.00000000000E+00 0.  1.
<mgrwt>
<rscale>  2 0.20605359E+03</rscale>
<asrwt>0</asrwt>
<pdfrwt beam="1">  1       21 0.12203966E-01 0.20608091E+03</pdfrwt>
<pdfrwt beam="2">  1       21 0.82666385E-01 0.20608091E+03</pdfrwt>
<totfact> 0.72255150E+04</totfact>
</mgrwt>
</event>
<event>
11    1  0.1071811E-001  0.2957434E+03  0.7546771E-02  0.1087401E+00
         21   -1    0    0  501  502  0.00000000000E+00  0.00000000000E+00  0.93015799502E+02  0.93015799502E+02  0.00000000000E+00 0.  1.
         21   -1    0    0  502  503 -0.00000000000E+00 -0.00000000000E+00 -0.94931141331E+03  0.94931141331E+03  0.00000000000E+00 0. -1.
         -6    2    1    2    0  503  0.21699518338E+03 -0.10161358190E+03 -0.37646220263E+03  0.47867460314E+03  0.17318590026E+03 0.  0.
        -24    2    3    3    0    0  0.64331805663E+02 -0.70241482369E+02 -0.94195191610E+02  0.15620433935E+03  0.80340615149E+02 0.  0.
          6    2    1    2  501    0 -0.21699518338E+03  0.10161358190E+03 -0.47983341118E+03  0.56365260967E+03  0.17335493146E+03 0.  0.
          5    1    5    5  501    0  0.17074562176E+02  0.33574082434E+02 -0.23400751775E+02  0.44591982109E+02  0.47000000000E+01 0. -1.
        -11    1    5    5    0    0 -0.19181616646E+03  0.48556628121E+02 -0.33572016433E+03  0.38969118105E+03  0.00000000000E+00 0.  1.
         12    1    5    5    0    0 -0.42253579095E+02  0.19482871343E+02 -0.12071249508E+03  0.12936944651E+03  0.00000000000E+00 0. -1.
         -5    1    3    3    0  503  0.15266337772E+03 -0.31372099529E+02 -0.28226701102E+03  0.32247026380E+03  0.47000000000E+01 0.  1.
         11    1    4    4    0    0  0.24953599154E+02 -0.35284911759E+02 -0.94099045478E+02  0.10354872026E+03  0.00000000000E+00 0. -1.
        -12    1    4    4    0    0  0.39378206509E+02 -0.34956570610E+02 -0.96146132313E-01  0.52655619081E+02  0.00000000000E+00 0.  1.
<mgrwt>
<rscale>  2 0.29571864E+03</rscale>
<asrwt>0</asrwt>
<pdfrwt beam="1">  1       21 0.14310123E-01 0.29574341E+03</pdfrwt>
<pdfrwt beam="2">  1       21 0.14604791E+00 0.29574341E+03</pdfrwt>
<totfact> 0.12885525E+04</totfact>
</mgrwt>
</event>
<event>
11    1  0.1071811E-001  0.2024898E+03  0.7546771E-02  0.1147784E+00
         21   -1    0    0  501  502  0.00000000000E+00  0.00000000000E+00  0.73604804719E+02  0.73604804719E+02  0.00000000000E+00 0. -1.
         21   -1    0    0  502  503 -0.00000000000E+00 -0.00000000000E+00 -0.79403266499E+03  0.79403266499E+03  0.00000000000E+00 0. -1.
         -6    2    1    2    0  503  0.98588109900E+02 -0.31363763220E+02 -0.59767194824E+03  0.63084399669E+03  0.17334673168E+03 0.  0.
          6    2    1    2  501    0 -0.98588109900E+02  0.31363763220E+02 -0.12275591203E+03  0.23679347302E+03  0.17406560220E+03 0.  0.
         24    2    4    4    0    0 -0.89605972737E+02 -0.38386960786E+02 -0.53793951429E+02  0.13818472951E+03  0.81844004977E+02 0.  0.
          5    1    4    4  501    0 -0.89821371633E+01  0.69750724006E+02 -0.68961960599E+02  0.98608743512E+02  0.47000000000E+01 0. -1.
        -11    1    5    5    0    0 -0.93463160599E+01 -0.27840055141E+02 -0.48958481094E+02  0.57090762521E+02  0.00000000000E+00 0.  1.
         12    1    5    5    0    0 -0.80259656677E+02 -0.10546905645E+02 -0.48354703351E+01  0.81093966989E+02  0.00000000000E+00 0. -1.
         -5    1    3    3    0  503 -0.33731530355E+02  0.29876875219E+02 -0.22198610133E+03  0.22656205109E+03  0.47000000000E+01 0.  1.
         13    1    3    3    0    0  0.31605390544E+02 -0.25501422396E+02 -0.76991081228E+02  0.87045102357E+02  0.00000000000E+00 0. -1.
        -14    1    3    3    0    0  0.10071424971E+03 -0.35739216043E+02 -0.29869476568E+03  0.31723684323E+03  0.00000000000E+00 0.  1.
<mgrwt>
<rscale>  2 0.20233526E+03</rscale>
<asrwt>0</asrwt>
<pdfrwt beam="1">  1       21 0.11323815E-01 0.20248984E+03</pdfrwt>
<pdfrwt beam="2">  1       21 0.12215888E+00 0.20248984E+03</pdfrwt>
<totfact> 0.32692786E+04</totfact>
</mgrwt>
</event>
<event>
12    1  0.1071811E-001  0.1932158E+03  0.7546771E-02  0.1156790E+00
         21   -1    0    0  501  502  0.00000000000E+00  0.00000000000E+00  0.18936085006E+03  0.18936085006E+03  0.00000000000E+00 0.  1.
         21   -1    0    0  502  503 -0.00000000000E+00 -0.00000000000E+00 -0.33969636018E+03  0.33969636018E+03  0.00000000000E+00 0.  1.
         -6    2    1    2    0  503  0.89017192920E+02  0.25514471142E+02 -0.24914803671E+03  0.31204049164E+03  0.16346092913E+03 0.  0.
        -24    2    3    3    0    0  0.63901688813E+02 -0.41506753181E+02 -0.12088083666E+03  0.16508064112E+03  0.82663202260E+02 0.  0.
          6    2    1    2  501    0 -0.89017192920E+02 -0.25514471142E+02  0.98812526582E+02  0.21701671860E+03  0.16957975077E+03 0.  0.
         24    2    5    5    0    0 -0.28731367540E+02 -0.67071919550E+02  0.94436602740E+02  0.14351405899E+03  0.79711224551E+02 0.  0.
          5    1    5    5  501    0 -0.60285825380E+02  0.41557448408E+02  0.43759238427E+01  0.73502659608E+02  0.47000000000E+01 0. -1.
        -11    1    6    6    0    0 -0.16890734052E+02 -0.81329250773E+02  0.54114840777E+02  0.99137076416E+02  0.00000000000E+00 0.  1.
         12    1    6    6    0    0 -0.11840633488E+02  0.14257331223E+02  0.40321761963E+02  0.44376982578E+02  0.00000000000E+00 0. -1.
         -5    1    3    3    0  503  0.25115504106E+02  0.67021224322E+02 -0.12826720005E+03  0.14695985052E+03  0.47000000000E+01 0.  1.
         13    1    4    4    0    0  0.69580334494E+02 -0.81935934449E+01 -0.48532336596E+02  0.85228783972E+02  0.00000000000E+00 0. -1.
        -14    1    4    4    0    0 -0.56786456809E+01 -0.33313159736E+02 -0.72348500063E+02  0.79851857147E+02  0.00000000000E+00 0.  1.
<mgrwt>
<rscale>  2 0.19186483E+03</rscale>
<asrwt>0</asrwt>
<pdfrwt beam="1">  1       21 0.29132439E-01 0.19321579E+03</pdfrwt>
<pdfrwt beam="2">  1       21 0.52260978E-01 0.19321579E+03</pdfrwt>
<totfact> 0.39182899E+04</totfact>
</mgrwt>
</event>
<event>
12    1  0.1071811E-001  0.1760924E+03  0.7546771E-02  0.1172081E+00
         21   -1    0    0  501  502  0.00000000000E+00  0.00000000000E+00  0.12097983070E+03  0.12097983070E+03  0.00000000000E+00 0.  1.
         21   -1    0    0  502  503 -0.00000000000E+00 -0.00000000000E+00 -0.27435461063E+03  0.27435461063E+03  0.00000000000E+00 0.  1.
         -6    2    1    2    0  503  0.32237321285E+01 -0.26049146964E+02 -0.13050232509E+03  0.21776278897E+03  0.17233927265E+03 0.  0.
        -24    2    3    3    0    0  0.67072367975E+02  0.34899460174E+01 -0.92192870916E+02  0.13751996628E+03  0.76820136738E+02 0.  0.
          6    2    1    2  501    0 -0.32237321285E+01  0.26049146964E+02 -0.22872454831E+02  0.17757165237E+03  0.17412521939E+03 0.  0.
         24    2    5    5    0    0  0.11690925781E+02 -0.40081436958E+02  0.20571516979E+02  0.96917019288E+02  0.85008952368E+02 0.  0.
          5    1    5    5  501    0 -0.14914657910E+02  0.66130583922E+02 -0.43443971810E+02  0.80654633078E+02  0.47000000000E+01 0. -1.
        -13    1    6    6    0    0 -0.26109384445E+02  0.98914877806E+01 -0.64888817095E+01  0.28664386832E+02  0.00000000000E+00 0.  1.
         14    1    6    6    0    0  0.37800310226E+02 -0.49972924738E+02  0.27060398689E+02  0.68252632456E+02  0.00000000000E+00 0. -1.
         -5    1    3    3    0  503 -0.63848635846E+02 -0.29539092982E+02 -0.38309454176E+02  0.80242822687E+02  0.47000000000E+01 0.  1.
         13    1    4    4    0    0  0.43959460760E+02  0.27653907454E+02 -0.16049048727E+02  0.54357563897E+02  0.00000000000E+00 0. -1.
        -14    1    4    4    0    0  0.23112907215E+02 -0.24163961437E+02 -0.76143822190E+02  0.83162402382E+02  0.00000000000E+00 0.  1.
<mgrwt>
<rscale>  2 0.17564931E+03</rscale>
<asrwt>0</asrwt>
<pdfrwt beam="1">  1       21 0.18612282E-01 0.17609243E+03</pdfrwt>
<pdfrwt beam="2">  1       21 0.42208402E-01 0.17609243E+03</pdfrwt>
<totfact> 0.14332850E+05</totfact>
</mgrwt>
</event>
<event>
12    1  0.1071811E-001  0.2304932E+03  0.7546771E-02  0.1126568E+00
         21   -1    0    0  503  502  0.00000000000E+00  0.00000000000E+00  0.19230010388E+03  0.19230010388E+03  0.00000000000E+00 0.  1.
         21   -1    0    0  501  503 -0.00000000000E+00 -0.00000000000E+00 -0.28374649544E+03  0.28374649544E+03  0.00000000000E+00 0.  1.
          6    2    1    2  501    0  0.11077699670E+03 -0.10303164337E+03 -0.89054825186E+02  0.24709888417E+03  0.17389661910E+03 0.  0.
         24    2    3    3    0    0  0.44676771233E+02 -0.12956859894E+03 -0.56872264326E+02  0.16879654039E+03  0.80459815298E+02 0.  0.
         -6    2    1    2    0  502 -0.11077699670E+03  0.10303164337E+03 -0.23915663702E+01  0.22894771515E+03  0.17182629062E+03 0.  0.
        -24    2    5    5    0    0 -0.15328900961E+02  0.95125283620E+02 -0.30373579684E+02  0.12905811322E+03  0.80309697144E+02 0.  0.
          5    1    3    3  501    0  0.66100225468E+02  0.26536955572E+02 -0.32182560859E+02  0.78302343780E+02  0.47000000000E+01 0. -1.
        -11    1    4    4    0    0 -0.20027264029E+02 -0.37562678634E+02 -0.32876243091E+02  0.53785625314E+02  0.00000000000E+00 0.  1.
         12    1    4    4    0    0  0.64704035263E+02 -0.92005920311E+02 -0.23996021235E+02  0.11501091508E+03  0.00000000000E+00 0. -1.
         -5    1    5    5    0  502 -0.95448095740E+02  0.79063597532E+01  0.27982013314E+02  0.99889601931E+02  0.47000000000E+01 0.  1.
         13    1    6    6    0    0 -0.78283406449E+01  0.14333026607E+02  0.25684373568E+02  0.30436912041E+02  0.00000000000E+00 0. -1.
        -14    1    6    6    0    0 -0.75005603165E+01  0.80792257013E+02 -0.56057953253E+02  0.98621201175E+02  0.00000000000E+00 0.  1.
<mgrwt>
<rscale>  2 0.23010268E+03</rscale>
<asrwt>0</asrwt>
<pdfrwt beam="1">  1       21 0.29584631E-01 0.23049316E+03</pdfrwt>
<pdfrwt beam="2">  1       21 0.43653307E-01 0.23049316E+03</pdfrwt>
<totfact> 0.54279197E+04</totfact>
</mgrwt>
</event>
<event>
12    1  0.1071811E-001  0.2894748E+03  0.7546771E-02  0.1090695E+00
         21   -1    0    0  501  502  0.00000000000E+00  0.00000000000E+00  0.83409073978E+03  0.83409073978E+03  0.00000000000E+00 0. -1.
         21   -1    0    0  502  503 -0.00000000000E+00 -0.00000000000E+00 -0.15704479125E+04  0.15704479125E+04  0.00000000000E+00 0. -1.
         -6    2    1    2    0  503 -0.12069723654E+03 -0.19825135260E+03 -0.15314538995E+04  0.15585720036E+04  0.17298619170E+03 0.  0.
        -24    2    3    3    0    0 -0.13893608956E+03 -0.19227176195E+03 -0.14937304776E+04  0.15159861160E+04  0.10349636156E+03 0.  0.
          6    2    1    2  501    0  0.12069723654E+03  0.19825135260E+03  0.79509672675E+03  0.84596664866E+03  0.17207365877E+03 0.  0.
         24    2    5    5    0    0 -0.48918419267E+01  0.98774577062E+02  0.37090958610E+03  0.39250764744E+03  0.81902289603E+02 0.  0.
          5    1    5    5  501    0  0.12558907846E+03  0.99476775534E+02  0.42418714065E+03  0.45345900123E+03  0.47000000000E+01 0. -1.
        -13    1    6    6    0    0  0.75629504753E+01 -0.30625333200E+01  0.52518276801E+00  0.81763773866E+01  0.00000000000E+00 0.  1.
         14    1    6    6    0    0 -0.12454792402E+02  0.10183711038E+03  0.37038440333E+03  0.38433127005E+03  0.00000000000E+00 0. -1.
         -5    1    3    3    0  503  0.18238853021E+02 -0.59795906456E+01 -0.37723421915E+02  0.42585887625E+02  0.47000000000E+01 0.  1.
         11    1    4    4    0    0 -0.75997880924E+02 -0.54605463037E+02 -0.35049279166E+03  0.36277076992E+03  0.00000000000E+00 0. -1.
        -12    1    4    4    0    0 -0.62938208632E+02 -0.13766629891E+03 -0.11432376859E+04  0.11532153461E+04  0.00000000000E+00 0.  1.
<mgrwt>
<rscale>  2 0.28933858E+03</rscale>
<asrwt>0</asrwt>
<pdfrwt beam="1">  1       21 0.12832165E+00 0.28947477E+03</pdfrwt>
<pdfrwt beam="2">  1       21 0.24160737E+00 0.28947477E+03</pdfrwt>
<totfact> 0.29135210E+01</totfact>
</mgrwt>
</event>
<event>
12    1  0.1071811E-001  0.1758748E+03  0.7546771E-02  0.1171948E+00
         21   -1    0    0  501  502  0.00000000000E+00  0.00000000000E+00  0.48348782479E+02  0.48348782479E+02  0.00000000000E+00 0.  1.
         21   -1    0    0  502  503 -0.00000000000E+00 -0.00000000000E+00 -0.65483531809E+03  0.65483531809E+03  0.00000000000E+00 0.  1.
         -6    2    1    2    0  503 -0.20413799063E+02 -0.16942697672E+02 -0.24790302752E+03  0.30395370259E+03  0.17386248608E+03 0.  0.
        -24    2    3    3    0    0  0.50505727647E+02  0.11755622913E+02 -0.10068384869E+03  0.13797554292E+03  0.78809833523E+02 0.  0.
          6    2    1    2  501    0  0.20413799063E+02  0.16942697672E+02 -0.35858350808E+03  0.39923039798E+03  0.17349063433E+03 0.  0.
         24    2    5    5    0    0  0.19586100250E+02 -0.54426852280E+02 -0.25576674133E+03  0.27397994779E+03  0.79388212280E+02 0.  0.
          5    1    5    5  501    0  0.82769881337E+00  0.71369549952E+02 -0.10281676676E+03  0.12525045019E+03  0.47000000000E+01 0. -1.
        -11    1    6    6    0    0  0.44865075585E+02 -0.16096782884E+02 -0.17167774289E+03  0.17817190808E+03  0.00000000000E+00 0.  1.
         12    1    6    6    0    0 -0.25278975335E+02 -0.38330069396E+02 -0.84088998436E+02  0.95808039703E+02  0.00000000000E+00 0. -1.
         -5    1    3    3    0  503 -0.70919526711E+02 -0.28698320585E+02 -0.14721917883E+03  0.16597815967E+03  0.47000000000E+01 0.  1.
         13    1    4    4    0    0  0.13075969548E+02 -0.26523465061E+02 -0.70649661104E+02  0.76588835953E+02  0.00000000000E+00 0. -1.
        -14    1    4    4    0    0  0.37429758100E+02  0.38279087975E+02 -0.30034187589E+02  0.61386706962E+02  0.00000000000E+00 0.  1.
<mgrwt>
<rscale>  2 0.17578282E+03</rscale>
<asrwt>0</asrwt>
<pdfrwt beam="1">  1       21 0.74382745E-02 0.17587479E+03</pdfrwt>
<pdfrwt beam="2">  1       21 0.10074389E+00 0.17587479E+03</pdfrwt>
<totfact> 0.11058811E+05</totfact>
</mgrwt>
</event>
<event>
12    1  0.1071811E-001  0.2304348E+03  0.7546771E-02  0.1126473E+00
         21   -1    0    0  503  502  0.00000000000E+00  0.00000000000E+00  0.40769123715E+03  0.40769123715E+03  0.00000000000E+00 0. -1.
         21   -1    0    0  501  503 -0.00000000000E+00 -0.00000000000E+00 -0.14846728694E+03  0.14846728694E+03  0.00000000000E+00 0.  1.
          6    2    1    2  501    0 -0.45111549039E+02  0.14431376670E+03  0.22840515069E+03  0.32445198458E+03  0.17389267473E+03 0.  0.
         24    2    3    3    0    0 -0.82651015000E+02  0.44973787071E+02  0.12890893904E+03  0.17885243380E+03  0.80726988723E+02 0.  0.
         -6    2    1    2    0  502  0.45111549039E+02 -0.14431376670E+03  0.30818799525E+02  0.23170653951E+03  0.17284850863E+03 0.  0.
        -24    2    5    5    0    0  0.85734012947E+02 -0.14727499700E+03  0.28861956747E+02  0.19065933872E+03  0.80484316351E+02 0.  0.
          5    1    3    3  501    0  0.37539465961E+02  0.99339979624E+02  0.99496211646E+02  0.14559955078E+03  0.47000000000E+01 0. -1.
        -13    1    4    4    0    0  0.13594554104E+02  0.15841247606E+02  0.37691138864E+02  0.43085716611E+02  0.00000000000E+00 0.  1.
         14    1    4    4    0    0 -0.96245569104E+02  0.29132539465E+02  0.91217800177E+02  0.13576671719E+03  0.00000000000E+00 0. -1.
         -5    1    5    5    0  502 -0.40622463908E+02  0.29612303042E+01  0.19568427788E+01  0.41047200788E+02  0.47000000000E+01 0.  1.
         11    1    6    6    0    0 -0.12101658518E+02 -0.82474711665E+01  0.13580506037E+02  0.19972507698E+02  0.00000000000E+00 0. -1.
        -12    1    6    6    0    0  0.97835671465E+02 -0.13902752583E+03  0.15281450710E+02  0.17068683103E+03  0.00000000000E+00 0.  1.
<mgrwt>
<rscale>  2 0.23023777E+03</rscale>
<asrwt>0</asrwt>
<pdfrwt beam="1">  1       21 0.62721728E-01 0.23043476E+03</pdfrwt>
<pdfrwt beam="2">  1       21 0.22841121E-01 0.23043476E+03</pdfrwt>
<totfact> 0.41573874E+04</totfact>
</mgrwt>
</event>
<event>
12    1  0.1071811E-001  0.2375659E+03  0.7546771E-02  0.1121713E+00
         21   -1    0    0  501  502  0.00000000000E+00  0.00000000000E+00  0.36675184301E+03  0.36675184301E+03  0.00000000000E+00 0. -1.
         21   -1    0    0  502  503 -0.00000000000E+00 -0.00000000000E+00 -0.15373591485E+03  0.15373591485E+03  0.00000000000E+00 0.  1.
         -6    2    1    2    0  503  0.45945633115E+02  0.15077073578E+03  0.12735022363E+03  0.26954706390E+03  0.17774904845E+03 0.  0.
        -24    2    3    3    0    0 -0.64276411124E+00  0.14089584478E+02  0.73238105702E+02  0.11526671134E+03  0.87884384730E+02 0.  0.
          6    2    1    2  501    0 -0.45945633115E+02 -0.15077073578E+03  0.85665704529E+02  0.25094069397E+03  0.17547023391E+03 0.  0.
         24    2    5    5    0    0 -0.49293290108E+02 -0.96305147768E+02 -0.15802069442E+02  0.13563455259E+03  0.80265288403E+02 0.  0.
          5    1    5    5  501    0  0.33476569931E+01 -0.54465588017E+02  0.10146777397E+03  0.11530614138E+03  0.47000000000E+01 0. -1.
        -11    1    6    6    0    0 -0.28721405617E+02 -0.10221862924E+03 -0.29528330672E+02  0.11020657701E+03  0.00000000000E+00 0.  1.
         12    1    6    6    0    0 -0.20571884491E+02  0.59134814756E+01  0.13726261231E+02  0.25427975579E+02  0.00000000000E+00 0. -1.
         -5    1    3    3    0  503  0.46588397226E+02  0.13668115131E+03  0.54112117928E+02  0.15428035256E+03  0.47000000000E+01 0.  1.
         13    1    4    4    0    0  0.19690998977E+02 -0.29080292326E+02  0.52667096992E+02  0.63302621969E+02  0.00000000000E+00 0. -1.
        -14    1    4    4    0    0 -0.20333763089E+02  0.43169876804E+02  0.20571008710E+02  0.51964089369E+02  0.00000000000E+00 0.  1.
<mgrwt>
<rscale>  2 0.23713967E+03</rscale>
<asrwt>0</asrwt>
<pdfrwt beam="1">  1       21 0.56423360E-01 0.23756586E+03</pdfrwt>
<pdfrwt beam="2">  1       21 0.23651679E-01 0.23756586E+03</pdfrwt>
<totfact> 0.48716472E+04</totfact>
</mgrwt>
</event>
<event>
12    1  0.1071811E-001  0.1850562E+03  0.7546771E-02  0.1163023E+00
         21   -1    0    0  501  502  0.00000000000E+00  0.00000000000E+00  0.12904234631E+03  0.12904234631E+03  0.00000000000E+00 0. -1.
         21   -1    0    0  502  503 -0.00000000000E+00 -0.00000000000E+00 -0.35861030343E+03  0.35861030343E+03  0.00000000000E+00 0. -1.
         -6    2    1    2    0  503  0.22022842686E+02  0.60683588023E+02 -0.23923264982E+03  0.30245339384E+03  0.17343094086E+03 0.  0.
        -24    2    3    3    0    0 -0.27620802660E+02  0.91568799675E+02 -0.13687922423E+03  0.18448432352E+03  0.78426971021E+02 0.  0.
          6    2    1    2  501    0 -0.22022842686E+02 -0.60683588023E+02  0.96646927019E+01  0.18519925590E+03  0.17331432326E+03 0.  0.
         24    2    5    5    0    0 -0.19826803458E+01 -0.52064805540E+01 -0.49036593195E+02  0.10184909978E+03  0.89093283655E+02 0.  0.
          5    1    5    5  501    0 -0.20040162341E+02 -0.55477107469E+02  0.58701285897E+02  0.83350156123E+02  0.47000000000E+01 0. -1.
        -13    1    6    6    0    0  0.71039330046E+01  0.17117995704E+02  0.20865593922E+02  0.27908146673E+02  0.00000000000E+00 0.  1.
         14    1    6    6    0    0 -0.90866133504E+01 -0.22324476258E+02 -0.69902187117E+02  0.73940953105E+02  0.00000000000E+00 0. -1.
         -5    1    3    3    0  503  0.49643645347E+02 -0.30885211652E+02 -0.10235342559E+03  0.11796907032E+03  0.47000000000E+01 0.  1.
         13    1    4    4    0    0 -0.28454709957E+02  0.97426946223E+02 -0.14339610419E+03  0.17568188030E+03  0.00000000000E+00 0. -1.
        -14    1    4    4    0    0  0.83390729662E+00 -0.58581465472E+01  0.65168799523E+01  0.88024432211E+01  0.00000000000E+00 0.  1.
<mgrwt>
<rscale>  2 0.18502887E+03</rscale>
<asrwt>0</asrwt>
<pdfrwt beam="1">  1       21 0.19852668E-01 0.18505619E+03</pdfrwt>
<pdfrwt beam="2">  1       21 0.55170817E-01 0.18505619E+03</pdfrwt>
<totfact> 0.72755716E+04</totfact>
</mgrwt>
</event>
<event>
12    1  0.1071811E-001  0.1838907E+03  0.7546771E-02  0.1164221E+00
         21   -1    0    0  501  502  0.00000000000E+00  0.00000000000E+00  0.24605138540E+03  0.24605138540E+03  0.00000000000E+00 0.  1.
         21   -1    0    0  502  503 -0.00000000000E+00 -0.00000000000E+00 -0.31695929138E+03  0.31695929138E+03  0.00000000000E+00 0.  1.
         -6    2    1    2    0  503 -0.11087558048E+02  0.60580530764E+02 -0.24758179130E+03  0.30840321733E+03  0.17327107786E+03 0.  0.
        -24    2    3    3    0    0 -0.75323933444E+02  0.38479710371E+02 -0.15309611292E+03  0.19193694923E+03  0.79037899947E+02 0.  0.
          6    2    1    2  501    0  0.11087558048E+02 -0.60580530764E+02  0.17667388532E+03  0.25460745945E+03  0.17267994094E+03 0.  0.
         24    2    5    5    0    0  0.61760466407E+02 -0.74527566063E+02  0.14833471364E+03  0.19471203319E+03  0.80875677951E+02 0.  0.
          5    1    5    5  501    0 -0.50672908360E+02  0.13947035299E+02  0.28339171682E+02  0.59895426260E+02  0.47000000000E+01 0. -1.
        -11    1    6    6    0    0 -0.15983247038E+01 -0.61369406103E+02  0.74418080299E+02  0.96471805843E+02  0.00000000000E+00 0.  1.
         12    1    6    6    0    0  0.63358791111E+02 -0.13158159960E+02  0.73916633342E+02  0.98240227347E+02  0.00000000000E+00 0. -1.
         -5    1    3    3    0  503  0.64236375396E+02  0.22100820394E+02 -0.94485678379E+02  0.11646626810E+03  0.47000000000E+01 0.  1.
         11    1    4    4    0    0 -0.49514051442E+02  0.55907983359E+01 -0.13924982153E+03  0.14789662306E+03  0.00000000000E+00 0. -1.
        -12    1    4    4    0    0 -0.25809882001E+02  0.32888912035E+02 -0.13846291390E+02  0.44040326168E+02  0.00000000000E+00 0.  1.
<mgrwt>
<rscale>  2 0.18375135E+03</rscale>
<asrwt>0</asrwt>
<pdfrwt beam="1">  1       21 0.37854060E-01 0.18389073E+03</pdfrwt>
<pdfrwt beam="2">  1       21 0.48762967E-01 0.18389073E+03</pdfrwt>
<totfact> 0.27148642E+04</totfact>
</mgrwt>
</event>
<event>
12    1  0.1071811E-001  0.1962260E+03  0.7546771E-02  0.1153497E+00
         21   -1    0    0  503  502  0.00000000000E+00  0.00000000000E+00  0.27313258549E+03  0.27313258549E+03  0.00000000000E+00 0. -1.
         21   -1    0    0  501  503 -0.00000000000E+00 -0.00000000000E+00 -0.16907261447E+03  0.16907261447E+03  0.00000000000E+00 0.  1.
          6    2    1    2  501    0 -0.69390563712E+02  0.49116721735E+02  0.14467265608E+03  0.24182052261E+03  0.17412491221E+03 0.  0.
         24    2    3    3    0    0  0.68629837273E+01  0.11728719325E+02  0.64702105565E+01  0.79541527762E+02  0.78104594048E+02 0.  0.
         -6    2    1    2    0  502  0.69390563712E+02 -0.49116721735E+02 -0.40612685048E+02  0.20038467735E+03  0.17685340269E+03 0.  0.
        -24    2    5    5    0    0  0.28200535494E+02 -0.75220985003E+01  0.45156100892E+02  0.96437066755E+02  0.80057368359E+02 0.  0.
          5    1    3    3  501    0 -0.76253547439E+02  0.37388002410E+02  0.13820244552E+03  0.16227899485E+03  0.47000000000E+01 0. -1.
        -13    1    4    4    0    0 -0.20675488440E+02  0.20122995162E+02 -0.24068005330E+02  0.37572325415E+02  0.00000000000E+00 0.  1.
         14    1    4    4    0    0  0.27538472167E+02 -0.83942758374E+01  0.30538215886E+02  0.41969202347E+02  0.00000000000E+00 0. -1.
         -5    1    5    5    0  502  0.41190028218E+02 -0.41594623235E+02 -0.85768785940E+02  0.10394761059E+03  0.47000000000E+01 0.  1.
         11    1    6    6    0    0 -0.23847220170E+02 -0.13764860506E+02  0.32336886997E+02  0.42471585269E+02  0.00000000000E+00 0. -1.
        -12    1    6    6    0    0  0.52047755664E+02  0.62427620058E+01  0.12819213895E+02  0.53965481486E+02  0.00000000000E+00 0.  1.
<mgrwt>
<rscale>  2 0.19560918E+03</rscale>
<asrwt>0</asrwt>
<pdfrwt beam="1">  1       21 0.42020398E-01 0.19622596E+03</pdfrwt>
<pdfrwt beam="2">  1       21 0.26011171E-01 0.19622596E+03</pdfrwt>
<totfact> 0.76414914E+04</totfact>
</mgrwt>
</event>
<event>
12    1  0.1071811E-001  0.1883906E+03  0.7546771E-02  0.1160396E+00
         21   -1    0    0  503  502  0.00000000000E+00  0.00000000000E+00  0.21288875757E+03  0.21288875757E+03  0.00000000000E+00 0. -1.
         21   -1    0    0  501  503 -0.00000000000E+00 -0.00000000000E+00 -0.21602083334E+03  0.21602083334E+03  0.00000000000E+00 0. -1.
          6    2    1    2  501    0 -0.43360961459E+01 -0.68814561398E+02 -0.10590087448E+03  0.21431125017E+03  0.17308977770E+03 0.  0.
         24    2    3    3    0    0 -0.32272650509E+01 -0.43516121958E+02  0.13101311012E+02  0.92553906674E+02  0.80563721242E+02 0.  0.
         -6    2    1    2    0  502  0.43360961459E+01  0.68814561398E+02  0.10276879871E+03  0.21459834073E+03  0.17531906988E+03 0.  0.
        -24    2    5    5    0    0  0.13486995511E+02  0.10729472762E+03  0.11092382059E+03  0.17394054279E+03  0.79102217598E+02 0.  0.
          5    1    3    3  501    0 -0.11088310950E+01 -0.25298439440E+02 -0.11900218549E+03  0.12175734350E+03  0.47000000000E+01 0. -1.
        -11    1    4    4    0    0  0.24892397416E+01  0.23799928253E+02  0.12370064100E+01  0.23961700361E+02  0.00000000000E+00 0.  1.
         12    1    4    4    0    0 -0.57165047924E+01 -0.67316050212E+02  0.11864304602E+02  0.68592206313E+02  0.00000000000E+00 0. -1.
         -5    1    5    5    0  502 -0.91508993647E+01 -0.38480166219E+02 -0.81550218767E+01  0.40657797939E+02  0.47000000000E+01 0.  1.
         13    1    6    6    0    0  0.28884682053E+02  0.31076953897E+02  0.52642312833E+01  0.42752942025E+02  0.00000000000E+00 0. -1.
        -14    1    6    6    0    0 -0.15397686542E+02  0.76217773721E+02  0.10565958930E+03  0.13118760076E+03  0.00000000000E+00 0.  1.
<mgrwt>
<rscale>  2 0.18787025E+03</rscale>
<asrwt>0</asrwt>
<pdfrwt beam="1">  1       21 0.32752117E-01 0.18839061E+03</pdfrwt>
<pdfrwt beam="2">  1       21 0.33233974E-01 0.18839061E+03</pdfrwt>
<totfact> 0.78364953E+04</totfact>
</mgrwt>
</event>
<event>
12    1  0.1071811E-001  0.1830282E+03  0.7546771E-02  0.1165195E+00
         21   -1    0    0  503  502  0.00000000000E+00  0.00000000000E+00  0.55701355369E+03  0.55701355369E+03  0.00000000000E+00 0. -1.
         21   -1    0    0  501  503 -0.00000000000E+00 -0.00000000000E+00 -0.62378221865E+02  0.62378221865E+02  0.00000000000E+00 0. -1.
          6    2    1    2  501    0 -0.11982819570E+02  0.56642595924E+02  0.31180195981E+03  0.36155193107E+03  0.17362996596E+03 0.  0.
         24    2    3    3    0    0  0.19535197219E+02  0.29245621808E+02  0.60876679614E+02  0.10713187326E+03  0.80835251109E+02 0.  0.
         -6    2    1    2    0  502  0.11982819570E+02 -0.56642595924E+02  0.18283337201E+03  0.25783984449E+03  0.17234085948E+03 0.  0.
        -24    2    5    5    0    0 -0.24010395175E+02 -0.52686292447E+01  0.27911601479E+02  0.90634458972E+02  0.82651619013E+02 0.  0.
          5    1    3    3  501    0 -0.31518016789E+02  0.27396974115E+02  0.25092528020E+03  0.25442005781E+03  0.47000000000E+01 0. -1.
        -11    1    4    4    0    0  0.22732354604E+02 -0.21897897325E+02  0.41964504905E+02  0.52509975481E+02  0.00000000000E+00 0.  1.
         12    1    4    4    0    0 -0.31971573845E+01  0.51143519133E+02  0.18912174708E+02  0.54621897778E+02  0.00000000000E+00 0. -1.
         -5    1    5    5    0  502  0.35993214745E+02 -0.51373966679E+02  0.15492177054E+03  0.16720538552E+03  0.47000000000E+01 0.  1.
         13    1    6    6    0    0  0.73237641961E+00 -0.32146131122E+02  0.40753298992E+02  0.51910899627E+02  0.00000000000E+00 0. -1.
        -14    1    6    6    0    0 -0.24742771595E+02  0.26877501877E+02 -0.12841697513E+02  0.38723559346E+02  0.00000000000E+00 0.  1.
<mgrwt>
<rscale>  2 0.18272186E+03</rscale>
<asrwt>0</asrwt>
<pdfrwt beam="1">  1       21 0.85694389E-01 0.18302824E+03</pdfrwt>
<pdfrwt beam="2">  1       21 0.95966499E-02 0.18302824E+03</pdfrwt>
<totfact> 0.10301692E+05</totfact>
</mgrwt>
</event>
<event>
12    1  0.1071811E-001  0.1752067E+03  0.7546771E-02  0.1172806E+00
         21   -1    0    0  503  502  0.00000000000E+00  0.00000000000E+00  0.25565201595E+02  0.25565201595E+02  0.00000000000E+00 0. -1.
         21   -1    0    0  501  503 -0.00000000000E+00 -0.00000000000E+00 -0.16221057849E+04  0.16221057849E+04  0.00000000000E+00 0. -1.
          6    2    1    2  501    0 -0.85760233933E+00  0.23471327264E+02 -0.12200704280E+04  0.12324274993E+04  0.17249363207E+03 0.  0.
         24    2    3    3    0    0  0.13234926444E+02 -0.64102805060E+01 -0.11672520309E+04  0.11699504402E+04  0.78041487484E+02 0.  0.
         -6    2    1    2    0  502  0.85760233933E+00 -0.23471327264E+02 -0.37647015535E+03  0.41524348722E+03  0.17362527790E+03 0.  0.
        -24    2    5    5    0    0  0.53967024807E+02 -0.41466888700E+02 -0.31141861532E+03  0.32923044259E+03  0.82335822930E+02 0.  0.
          5    1    3    3  501    0 -0.14092528783E+02  0.29881607770E+02 -0.52818397065E+02  0.62477059141E+02  0.47000000000E+01 0. -1.
        -13    1    4    4    0    0 -0.60155082673E+01  0.17506128325E+02 -0.74432129550E+02  0.76699366217E+02  0.00000000000E+00 0.  1.
         14    1    4    4    0    0  0.19250434711E+02 -0.23916408831E+02 -0.10928199014E+04  0.10932510739E+04  0.00000000000E+00 0. -1.
         -5    1    5    5    0  502 -0.53109422468E+02  0.17995561436E+02 -0.65051540030E+02  0.86013044630E+02  0.47000000000E+01 0.  1.
         13    1    6    6    0    0  0.12080923574E+02  0.85301460255E+01 -0.45006730198E+01  0.15458595126E+02  0.00000000000E+00 0. -1.
        -14    1    6    6    0    0  0.41886101233E+02 -0.49997034725E+02 -0.30691794230E+03  0.31377184747E+03  0.00000000000E+00 0.  1.
<mgrwt>
<rscale>  2 0.17492565E+03</rscale>
<asrwt>0</asrwt>
<pdfrwt beam="1">  1       21 0.39331082E-02 0.17520667E+03</pdfrwt>
<pdfrwt beam="2">  1       21 0.24955472E+00 0.17520667E+03</pdfrwt>
<totfact> 0.27374445E+04</totfact>
</mgrwt>
</event>
<event>
12    1  0.1071811E-001  0.2383433E+03  0.7546771E-02  0.1121157E+00
         21   -1    0    0  501  502  0.00000000000E+00  0.00000000000E+00  0.17807944720E+04  0.17807944720E+04  0.00000000000E+00 0. -1.
         21   -1    0    0  502  503 -0.00000000000E+00 -0.00000000000E+00 -0.38358810405E+02  0.38358810405E+02  0.00000000000E+00 0. -1.
         -6    2    1    2    0  503  0.10989867317E+03  0.12427368002E+03  0.48987830314E+03  0.54412093741E+03  0.16901235674E+03 0.  0.
        -24    2    3    3    0    0  0.13662091154E+03  0.10899305310E+03  0.46829138143E+03  0.50623082297E+03  0.80175240037E+02 0.  0.
          6    2    1    2  501    0 -0.10989867317E+03 -0.12427368002E+03  0.12525573585E+04  0.12750323450E+04  0.17113117383E+03 0.  0.
         24    2    5    5    0    0 -0.52422911920E+02 -0.77689306652E+02  0.39535578606E+03  0.41463116375E+03  0.82637850399E+02 0.  0.
          5    1    5    5  501    0 -0.57475761245E+02 -0.46584373373E+02  0.85720157244E+03  0.86040118130E+03  0.47000000000E+01 0. -1.
        -11    1    6    6    0    0 -0.12355346673E+02  0.17297654840E+02  0.53472561519E+02  0.57542838736E+02  0.00000000000E+00 0.  1.
         12    1    6    6    0    0 -0.40067565248E+02 -0.94986961492E+02  0.34188322454E+03  0.35708832501E+03  0.00000000000E+00 0. -1.
         -5    1    3    3    0  503 -0.26722238375E+02  0.15280626924E+02  0.21586921711E+02  0.37890114435E+02  0.47000000000E+01 0.  1.
         13    1    4    4    0    0  0.74278181504E+02  0.10382652370E+03  0.27775021410E+03  0.30568345835E+03  0.00000000000E+00 0. -1.
        -14    1    4    4    0    0  0.62342730036E+02  0.51665294018E+01  0.19054116732E+03  0.20054736463E+03  0.00000000000E+00 0.  1.
<mgrwt>
<rscale>  2 0.23796324E+03</rscale>
<asrwt>0</asrwt>
<pdfrwt beam="1">  1       21 0.27396832E+00 0.23834333E+03</pdfrwt>
<pdfrwt beam="2">  1       21 0.59013568E-02 0.23834333E+03</pdfrwt>
<totfact> 0.93721932E+03</totfact>
</mgrwt>
</event>
<event>
12    1  0.1071811E-001  0.2570664E+03  0.7546771E-02  0.1109357E+00
         21   -1    0    0  501  502  0.00000000000E+00  0.00000000000E+00  0.29442365043E+03  0.29442365043E+03  0.00000000000E+00 0.  1.
         21   -1    0    0  502  503 -0.00000000000E+00 -0.00000000000E+00 -0.23578381214E+03  0.23578381214E+03  0.00000000000E+00 0.  1.
         -6    2    1    2    0  503 -0.15106764598E+03  0.11432766577E+03 -0.35021852507E+02  0.25660982949E+03  0.16949874812E+03 0.  0.
        -24    2    3    3    0    0 -0.16596049787E+03  0.95019952714E+02 -0.65057238026E+02  0.21763805503E+03  0.81007410224E+02 0.  0.
          6    2    1    2  501    0  0.15106764598E+03 -0.11432766577E+03  0.93661690789E+02  0.27359763308E+03  0.17375529829E+03 0.  0.
         24    2    5    5    0    0  0.13118245239E+03 -0.14866763180E+03  0.63725882009E+02  0.22366871522E+03  0.81583120634E+02 0.  0.
          5    1    5    5  501    0  0.19885193596E+02  0.34339966032E+02  0.29935808780E+02  0.49928917861E+02  0.47000000000E+01 0. -1.
        -11    1    6    6    0    0  0.11196948610E+03 -0.15381608768E+03  0.70137032770E+02  0.20277020987E+03  0.00000000000E+00 0.  1.
         12    1    6    6    0    0  0.19212966291E+02  0.51484558846E+01 -0.64111507610E+01  0.20898505348E+02  0.00000000000E+00 0. -1.
         -5    1    3    3    0  503  0.14892851890E+02  0.19307713051E+02  0.30035385519E+02  0.38971774452E+02  0.47000000000E+01 0.  1.
         13    1    4    4    0    0 -0.36657027423E+02 -0.11636890592E+02 -0.18619583658E+01  0.38504827893E+02  0.00000000000E+00 0. -1.
        -14    1    4    4    0    0 -0.12930347045E+03  0.10665684331E+03 -0.63195279660E+02  0.17913322714E+03  0.00000000000E+00 0.  1.
<mgrwt>
<rscale>  2 0.25634901E+03</rscale>
<asrwt>0</asrwt>
<pdfrwt beam="1">  1       21 0.45295946E-01 0.25706644E+03</pdfrwt>
<pdfrwt beam="2">  1       21 0.36274433E-01 0.25706644E+03</pdfrwt>
<totfact> 0.33218454E+04</totfact>
</mgrwt>
</event>
<event>
12    1  0.1071811E-001  0.1772380E+03  0.7546771E-02  0.1171170E+00
         21   -1    0    0  501  502  0.00000000000E+00  0.00000000000E+00  0.60901032010E+03  0.60901032010E+03  0.00000000000E+00 0. -1.
         21   -1    0    0  502  503 -0.00000000000E+00 -0.00000000000E+00 -0.59030570139E+02  0.59030570139E+02  0.00000000000E+00 0. -1.
         -6    2    1    2    0  503 -0.42582021942E+02 -0.25114040020E+01  0.15210121286E+03  0.23355532587E+03  0.17202841493E+03 0.  0.
        -24    2    3    3    0    0 -0.79221338146E+02  0.37686944428E+02  0.78680008869E+02  0.14206155611E+03  0.79338614377E+02 0.  0.
          6    2    1    2  501    0  0.42582021942E+02  0.25114040020E+01  0.39787853710E+03  0.43448556437E+03  0.16926558901E+03 0.  0.
         24    2    5    5    0    0  0.33106407259E+02  0.65681878129E+02  0.27253477422E+03  0.29372532508E+03  0.81174011320E+02 0.  0.
          5    1    5    5  501    0  0.94756146824E+01 -0.63170474127E+02  0.12534376288E+03  0.14076023930E+03  0.47000000000E+01 0. -1.
        -13    1    6    6    0    0  0.24935109896E+02  0.33927851555E+02  0.37405150286E+02  0.56320547624E+02  0.00000000000E+00 0.  1.
         14    1    6    6    0    0  0.81712973630E+01  0.31754026574E+02  0.23512962394E+03  0.23740477745E+03  0.00000000000E+00 0. -1.
         -5    1    3    3    0  503  0.36639316204E+02 -0.40198348429E+02  0.73421203992E+02  0.91493769755E+02  0.47000000000E+01 0.  1.
         11    1    4    4    0    0  0.26766004225E+01  0.28177023768E+02  0.44652834361E+02  0.52867612720E+02  0.00000000000E+00 0. -1.
        -12    1    4    4    0    0 -0.81897938568E+02  0.95099206591E+01  0.34027174508E+02  0.89193943391E+02  0.00000000000E+00 0.  1.
<mgrwt>
<rscale>  2 0.17656409E+03</rscale>
<asrwt>0</asrwt>
<pdfrwt beam="1">  1       21 0.93693891E-01 0.17723801E+03</pdfrwt>
<pdfrwt beam="2">  1       21 0.90816266E-02 0.17723801E+03</pdfrwt>
<totfact> 0.92588426E+04</totfact>
</mgrwt>
</event>
<event>
12    1  0.1071811E-001  0.1918025E+03  0.7546771E-02  0.1157582E+00
         21   -1    0    0  503  502  0.00000000000E+00  0.00000000000E+00  0.24237340038E+03  0.24237340038E+03  0.00000000000E+00 0.  1.
         21   -1    0    0  501  503 -0.00000000000E+00 -0.00000000000E+00 -0.15391318789E+03  0.15391318789E+03  0.00000000000E+00 0.  1.
          6    2    1    2  501    0  0.86879880637E+02 -0.20137247161E+02  0.79271067664E+02  0.20753815199E+03  0.16980742027E+03 0.  0.
         24    2    3    3    0    0  0.66632016547E+02 -0.74756377364E+02  0.32124550169E+02  0.13245080621E+03  0.80516381914E+02 0.  0.
         -6    2    1    2    0  502 -0.86879880637E+02  0.20137247161E+02  0.91891448226E+01  0.18874843627E+03  0.16609608493E+03 0.  0.
        -24    2    5    5    0    0 -0.52803742844E+02 -0.45304441727E+02  0.26200622043E+02  0.11288488660E+03  0.84945849394E+02 0.  0.
          5    1    3    3  501    0  0.20247864090E+02  0.54619130203E+02  0.47146517495E+02  0.75087345780E+02  0.47000000000E+01 0. -1.
        -13    1    4    4    0    0  0.18147977701E+02  0.15222785205E+02  0.16934206489E+02  0.29117857638E+02  0.00000000000E+00 0.  1.
         14    1    4    4    0    0  0.48484038846E+02 -0.89979162569E+02  0.15190343680E+02  0.10333294857E+03  0.00000000000E+00 0. -1.
         -5    1    5    5    0  502 -0.34076137793E+02  0.65441688888E+02 -0.17011477220E+02  0.75863549671E+02  0.47000000000E+01 0.  1.
         13    1    6    6    0    0 -0.76355805775E+02 -0.36298923505E+02  0.21495318191E+02  0.87234566700E+02  0.00000000000E+00 0. -1.
        -14    1    6    6    0    0  0.23552062931E+02 -0.90055182219E+01  0.47053038523E+01  0.25650319903E+02  0.00000000000E+00 0.  1.
<mgrwt>
<rscale>  2 0.19097769E+03</rscale>
<asrwt>0</asrwt>
<pdfrwt beam="1">  1       21 0.37288215E-01 0.19180246E+03</pdfrwt>
<pdfrwt beam="2">  1       21 0.23678952E-01 0.19180246E+03</pdfrwt>
<totfact> 0.11654540E+05</totfact>
</mgrwt>
</event>
<event>
12    1  0.1071811E-001  0.1828181E+03  0.7546771E-02  0.1165527E+00
         21   -1    0    0  501  502  0.00000000000E+00  0.00000000000E+00  0.23729597441E+03  0.23729597441E+03  0.00000000000E+00 0. -1.
         21   -1    0    0  502  503 -0.00000000000E+00 -0.00000000000E+00 -0.14505045653E+03  0.14505045653E+03  0.00000000000E+00 0. -1.
         -6    2    1    2    0  503  0.54184735963E+02  0.18826930790E+02  0.83367728781E+02  0.19931288517E+03  0.17171199451E+03 0.  0.
        -24    2    3    3    0    0  0.30772416339E+02 -0.52340800208E+02  0.70395695047E+02  0.12313318771E+03  0.80744826835E+02 0.  0.
          6    2    1    2  501    0 -0.54184735963E+02 -0.18826930790E+02  0.88777891004E+01  0.18303354577E+03  0.17358578515E+03 0.  0.
         24    2    5    5    0    0 -0.52733271389E+02  0.29686428005E+02  0.56782628674E+02  0.11467700706E+03  0.79148386648E+02 0.  0.
          5    1    5    5  501    0 -0.14514645740E+01 -0.48513358795E+02 -0.47904839574E+02  0.68356538718E+02  0.47000000000E+01 0. -1.
        -11    1    6    6    0    0  0.17705347506E+02  0.20708315404E+02  0.24631017008E+02  0.36728744276E+02  0.00000000000E+00 0.  1.
         12    1    6    6    0    0 -0.70438618895E+02  0.89781126003E+01  0.32151611666E+02  0.77948262780E+02  0.00000000000E+00 0. -1.
         -5    1    3    3    0  503  0.23412319624E+02  0.71167730998E+02  0.12972033734E+02  0.76179697458E+02  0.47000000000E+01 0.  1.
         13    1    4    4    0    0  0.17096056474E+02  0.13481966893E+02  0.47261716820E+02  0.52035646004E+02  0.00000000000E+00 0. -1.
        -14    1    4    4    0    0  0.13676359865E+02 -0.65822767101E+02  0.23133978227E+02  0.71097541705E+02  0.00000000000E+00 0.  1.
<mgrwt>
<rscale>  2 0.18237193E+03</rscale>
<asrwt>0</asrwt>
<pdfrwt beam="1">  1       21 0.36507073E-01 0.18281812E+03</pdfrwt>
<pdfrwt beam="2">  1       21 0.22315455E-01 0.18281812E+03</pdfrwt>
<totfact> 0.13642451E+05</totfact>
</mgrwt>
</event>
<event>
12    1  0.1071811E-001  0.2299978E+03  0.7546771E-02  0.1126699E+00
         21   -1    0    0  503  502  0.00000000000E+00  0.00000000000E+00  0.12614225216E+03  0.12614225216E+03  0.00000000000E+00 0.  1.
         21   -1    0    0  501  503 -0.00000000000E+00 -0.00000000000E+00 -0.42377073990E+03  0.42377073990E+03  0.00000000000E+00 0.  1.
          6    2    1    2  501    0  0.85193147631E+02 -0.12632046475E+03 -0.11880381332E+03  0.25857601792E+03  0.17185016371E+03 0.  0.
         24    2    3    3    0    0  0.65307809322E+02 -0.78709421529E+02 -0.32103360741E+01  0.13190250018E+03  0.83232687689E+02 0.  0.
         -6    2    1    2    0  502 -0.85193147631E+02  0.12632046475E+03 -0.17882467442E+03  0.29133697415E+03  0.17229113763E+03 0.  0.
        -24    2    5    5    0    0 -0.94144605842E+02  0.71558341604E+02 -0.18756227541E+03  0.23496806067E+03  0.77759753826E+02 0.  0.
          5    1    3    3  501    0  0.19885338309E+02 -0.47611043223E+02 -0.11559347724E+03  0.12667351774E+03  0.47000000000E+01 0. -1.
        -13    1    4    4    0    0  0.60598788531E+02 -0.96193124123E+02 -0.42167242640E+01  0.11376779449E+03  0.00000000000E+00 0.  1.
         14    1    4    4    0    0  0.47090207910E+01  0.17483702594E+02  0.10063881900E+01  0.18134705688E+02  0.00000000000E+00 0. -1.
         -5    1    5    5    0  502  0.89514582117E+01  0.54762123147E+02  0.87376009866E+01  0.56368913478E+02  0.47000000000E+01 0.  1.
         13    1    6    6    0    0 -0.34800329389E+02  0.20612700593E+01 -0.10904978595E+03  0.11448653884E+03  0.00000000000E+00 0. -1.
        -14    1    6    6    0    0 -0.59344276454E+02  0.69497071545E+02 -0.78512489463E+02  0.12048152183E+03  0.00000000000E+00 0.  1.
<mgrwt>
<rscale>  2 0.22991518E+03</rscale>
<asrwt>0</asrwt>
<pdfrwt beam="1">  1       21 0.19406500E-01 0.22999776E+03</pdfrwt>
<pdfrwt beam="2">  1       21 0.65195498E-01 0.22999776E+03</pdfrwt>
<totfact> 0.51960993E+04</totfact>
</mgrwt>
</event>
<event>
12    1  0.1071811E-001  0.1857178E+03  0.7546771E-02  0.1162487E+00
         21   -1    0    0  503  502  0.00000000000E+00  0.00000000000E+00  0.42314415136E+03  0.42314415136E+03  0.00000000000E+00 0.  1.
         21   -1    0    0  501  503 -0.00000000000E+00 -0.00000000000E+00 -0.10623372567E+03  0.10623372567E+03  0.00000000000E+00 0.  1.
          6    2    1    2  501    0  0.25204128497E+02  0.60211424538E+02  0.30108503144E+02  0.18769610379E+03  0.17338581740E+03 0.  0.
         24    2    3    3    0    0  0.55843670445E+02 -0.25111980594E+02  0.13389014031E+02  0.95389569291E+02  0.71908115917E+02 0.  0.
         -6    2    1    2    0  502 -0.25204128497E+02 -0.60211424538E+02  0.28680192255E+03  0.34168177324E+03  0.17386899565E+03 0.  0.
        -24    2    5    5    0    0  0.29456411217E+02 -0.50467563741E+02  0.84810535024E+02  0.13214579051E+03  0.82795096146E+02 0.  0.
          5    1    3    3  501    0 -0.30639541948E+02  0.85323405132E+02  0.16719489113E+02  0.92306534494E+02  0.47000000000E+01 0. -1.
        -13    1    4    4    0    0  0.58076308700E+02 -0.39088952052E+02 -0.72319306456E+01  0.70378296552E+02  0.00000000000E+00 0.  1.
         14    1    4    4    0    0 -0.22326382542E+01  0.13976971458E+02  0.20620944676E+02  0.25011272740E+02  0.00000000000E+00 0. -1.
         -5    1    5    5    0  502 -0.54660539714E+02 -0.97438607975E+01  0.20199138753E+03  0.20953598273E+03  0.47000000000E+01 0.  1.
         11    1    6    6    0    0  0.22306440697E+02 -0.73081012334E+02  0.72896928917E+02  0.10560480058E+03  0.00000000000E+00 0. -1.
        -12    1    6    6    0    0  0.71499705203E+01  0.22613448593E+02  0.11913606107E+02  0.26540989925E+02  0.00000000000E+00 0.  1.
<mgrwt>
<rscale>  2 0.18560460E+03</rscale>
<asrwt>0</asrwt>
<pdfrwt beam="1">  1       21 0.65099100E-01 0.18571777E+03</pdfrwt>
<pdfrwt beam="2">  1       21 0.16343650E-01 0.18571777E+03</pdfrwt>
<totfact> 0.73065600E+04</totfact>
</mgrwt>
</event>
<event>
12    1  0.1071811E-001  0.2855257E+03  0.7546771E-02  0.1092835E+00
         21   -1    0    0  501  502  0.00000000000E+00  0.00000000000E+00  0.17175261391E+03  0.17175261391E+03  0.00000000000E+00 0.  1.
         21   -1    0    0  502  503 -0.00000000000E+00 -0.00000000000E+00 -0.64897746194E+03  0.64897746194E+03  0.00000000000E+00 0. -1.
         -6    2    1    2    0  503 -0.10695453505E+03 -0.19885076263E+03 -0.45253744382E+03  0.53508418468E+03  0.17476855629E+03 0.  0.
        -24    2    3    3    0    0 -0.96653037415E+02 -0.12373942189E+03 -0.41437286124E+03  0.45007559849E+03  0.78803058662E+02 0.  0.
          6    2    1    2  501    0  0.10695453505E+03  0.19885076263E+03 -0.24687404205E+02  0.28564589117E+03  0.17321434366E+03 0.  0.
         24    2    5    5    0    0  0.11054417019E+03  0.20167816729E+03  0.69212089120E+01  0.25336471832E+03  0.10607393945E+03 0.  0.
          5    1    5    5  501    0 -0.35896351400E+01 -0.28274046594E+01 -0.31608613117E+02  0.32281172853E+02  0.47000000000E+01 0. -1.
        -11    1    6    6    0    0  0.66729753070E+02  0.38484790487E+02 -0.25829849971E+02  0.81247278066E+02  0.00000000000E+00 0.  1.
         12    1    6    6    0    0  0.43814417119E+02  0.16319337681E+03  0.32751058883E+02  0.17211744025E+03  0.00000000000E+00 0. -1.
         -5    1    3    3    0  503 -0.10301497634E+02 -0.75111340748E+02 -0.38164582583E+02  0.85008586191E+02  0.47000000000E+01 0.  1.
         11    1    4    4    0    0  0.36908903524E+01 -0.29325158673E+02 -0.13959997589E+03  0.14269457198E+03  0.00000000000E+00 0. -1.
        -12    1    4    4    0    0 -0.10034392777E+03 -0.94414263215E+02 -0.27477288535E+03  0.30738102651E+03  0.00000000000E+00 0.  1.
<mgrwt>
<rscale>  2 0.28528827E+03</rscale>
<asrwt>0</asrwt>
<pdfrwt beam="1">  1       21 0.26423479E-01 0.28552574E+03</pdfrwt>
<pdfrwt beam="2">  1       21 0.99842686E-01 0.28552574E+03</pdfrwt>
<totfact> 0.10630510E+04</totfact>
</mgrwt>
</event>
<event>
12    1  0.1071811E-001  0.2275064E+03  0.7546771E-02  0.1128822E+00
         21   -1    0    0  501  502  0.00000000000E+00  0.00000000000E+00  0.53430807137E+03  0.53430807137E+03  0.00000000000E+00 0. -1.
         21   -1    0    0  502  503 -0.00000000000E+00 -0.00000000000E+00 -0.19530466087E+03  0.19530466087E+03  0.00000000000E+00 0.  1.
         -6    2    1    2    0  503  0.37595369802E+02  0.14137716768E+03 -0.90347366051E+02  0.24478930185E+03  0.17423616266E+03 0.  0.
        -24    2    3    3    0    0  0.36505616854E+02  0.16916136258E+03 -0.55737455026E+02  0.20014532142E+03  0.83685477483E+02 0.  0.
          6    2    1    2  501    0 -0.37595369802E+02 -0.14137716768E+03  0.42935077656E+03  0.48482343039E+03  0.17120383743E+03 0.  0.
         24    2    5    5    0    0 -0.16902860888E+02 -0.41652580016E+01  0.11574375336E+03  0.14185587642E+03  0.80146223556E+02 0.  0.
          5    1    5    5  501    0 -0.20692508914E+02 -0.13721190967E+03  0.31360702319E+03  0.34296755397E+03  0.47000000000E+01 0. -1.
        -11    1    6    6    0    0  0.32120782280E+02  0.28287461294E+00  0.54737560076E+02  0.63466724789E+02  0.00000000000E+00 0.  1.
         12    1    6    6    0    0 -0.49023643168E+02 -0.44481326146E+01  0.61006193288E+02  0.78389151627E+02  0.00000000000E+00 0. -1.
         -5    1    3    3    0  503  0.10897529478E+01 -0.27784194903E+02 -0.34609911025E+02  0.44643980435E+02  0.47000000000E+01 0.  1.
         13    1    4    4    0    0 -0.21897128483E+02  0.32129008988E+02 -0.29702258624E+02  0.48928331483E+02  0.00000000000E+00 0. -1.
        -14    1    4    4    0    0  0.58402745337E+02  0.13703235359E+03 -0.26035196402E+02  0.15121698994E+03  0.00000000000E+00 0.  1.
<mgrwt>
<rscale>  2 0.22692570E+03</rscale>
<asrwt>0</asrwt>
<pdfrwt beam="1">  1       21 0.82201241E-01 0.22750639E+03</pdfrwt>
<pdfrwt beam="2">  1       21 0.30046871E-01 0.22750639E+03</pdfrwt>
<totfact> 0.13442490E+04</totfact>
</mgrwt>
</event>
<event>
12    1  0.1071811E-001  0.2017582E+03  0.7546771E-02  0.1150295E+00
         21   -1    0    0  503  502  0.00000000000E+00  0.00000000000E+00  0.25241663963E+03  0.25241663963E+03  0.00000000000E+00 0.  1.
         21   -1    0    0  501  503 -0.00000000000E+00 -0.00000000000E+00 -0.41006234588E+03  0.41006234588E+03  0.00000000000E+00 0. -1.
          6    2    1    2  501    0  0.72908386600E+02 -0.42763102163E+02 -0.34137615969E+03  0.39654012819E+03  0.18319954999E+03 0.  0.
         24    2    3    3    0    0 -0.88477787756E+01 -0.68358102500E+02 -0.12276789825E+03  0.16169797569E+03  0.79518332076E+02 0.  0.
         -6    2    1    2    0  502 -0.72908386600E+02  0.42763102163E+02  0.18373045344E+03  0.26593885732E+03  0.17269128690E+03 0.  0.
        -24    2    5    5    0    0  0.98456300344E+01 -0.21122574418E+02  0.11534541534E+03  0.14092601647E+03  0.77540168295E+02 0.  0.
          5    1    3    3  501    0  0.81756165376E+02  0.25595000337E+02 -0.21860826145E+03  0.23484215250E+03  0.47000000000E+01 0. -1.
        -11    1    4    4    0    0 -0.40910043106E+02 -0.26706693490E+02 -0.80861479532E+02  0.94474641975E+02  0.00000000000E+00 0.  1.
         12    1    4    4    0    0  0.32062264330E+02 -0.41651409010E+02 -0.41906418713E+02  0.67223333716E+02  0.00000000000E+00 0. -1.
         -5    1    5    5    0  502 -0.82754016635E+02  0.63885676581E+02  0.68385038100E+02  0.12501284085E+03  0.47000000000E+01 0.  1.
         11    1    6    6    0    0  0.88083783755E+01  0.26752130729E+02  0.21028429064E+02  0.35149094683E+02  0.00000000000E+00 0. -1.
        -12    1    6    6    0    0  0.10372516589E+01 -0.47874705147E+02  0.94316986274E+02  0.10577692179E+03  0.00000000000E+00 0.  1.
<mgrwt>
<rscale>  2 0.19934239E+03</rscale>
<asrwt>0</asrwt>
<pdfrwt beam="1">  1       21 0.38833330E-01 0.20175825E+03</pdfrwt>
<pdfrwt beam="2">  1       21 0.63086514E-01 0.20175825E+03</pdfrwt>
<totfact> 0.14782767E+04</totfact>
</mgrwt>
</event>
<event>
12    1  0.1071811E-001  0.1925246E+03  0.7546771E-02  0.1156211E+00
         21   -1    0    0  501  502  0.00000000000E+00  0.00000000000E+00  0.30453170280E+03  0.30453170280E+03  0.00000000000E+00 0. -1.
         21   -1    0    0  502  503 -0.00000000000E+00 -0.00000000000E+00 -0.15547928020E+03  0.15547928020E+03  0.00000000000E+00 0. -1.
         -6    2    1    2    0  503 -0.74419942149E+01 -0.83444635930E+02 -0.32685522480E+02  0.19527945686E+03  0.17334166363E+03 0.  0.
        -24    2    3    3    0    0 -0.61194283392E+02 -0.85693270045E+02 -0.51403617299E+02  0.13812333715E+03  0.73127611360E+02 0.  0.
          6    2    1    2  501    0  0.74419942149E+01  0.83444635930E+02  0.18173794508E+03  0.26473152614E+03  0.17330813514E+03 0.  0.
         24    2    5    5    0    0  0.59108080404E+02  0.56705095665E+02  0.66641453830E+02  0.13568238909E+03  0.85202079178E+02 0.  0.
          5    1    5    5  501    0 -0.51666086189E+02  0.26739540265E+02  0.11509649125E+03  0.12904913705E+03  0.47000000000E+01 0. -1.
        -13    1    6    6    0    0  0.40618022876E+02 -0.11642398486E+02  0.64344119306E+01  0.42740740304E+02  0.00000000000E+00 0.  1.
         14    1    6    6    0    0  0.18490057528E+02  0.68347494151E+02  0.60207041900E+02  0.92941648782E+02  0.00000000000E+00 0. -1.
         -5    1    3    3    0  503  0.53752289177E+02  0.22486341147E+01  0.18718094819E+02  0.57156119714E+02  0.47000000000E+01 0.  1.
         11    1    4    4    0    0 -0.43319176702E+00 -0.63341538443E+02 -0.22472006149E+02  0.67211079501E+02  0.00000000000E+00 0. -1.
        -12    1    4    4    0    0 -0.60761091625E+02 -0.22351731602E+02 -0.28931611149E+02  0.70912257648E+02  0.00000000000E+00 0.  1.
<mgrwt>
<rscale>  2 0.19251706E+03</rscale>
<asrwt>0</asrwt>
<pdfrwt beam="1">  1       21 0.46851031E-01 0.19252460E+03</pdfrwt>
<pdfrwt beam="2">  1       21 0.23919889E-01 0.19252460E+03</pdfrwt>
<totfact> 0.71863060E+04</totfact>
</mgrwt>
</event>
<event>
12    1  0.1071811E-001  0.2104909E+03  0.7546771E-02  0.1142216E+00
         21   -1    0    0  501  502  0.00000000000E+00  0.00000000000E+00  0.24184828025E+03  0.24184828025E+03  0.00000000000E+00 0.  1.
         21   -1    0    0  502  503 -0.00000000000E+00 -0.00000000000E+00 -0.31026319676E+03  0.31026319676E+03  0.00000000000E+00 0.  1.
         -6    2    1    2    0  503 -0.15542779196E+02  0.11956776310E+03 -0.21370891321E+03  0.29634447716E+03  0.16616414053E+03 0.  0.
        -24    2    3    3    0    0 -0.23047411374E+02  0.38117890935E+02 -0.34471781061E+02  0.99269768678E+02  0.81743663384E+02 0.  0.
          6    2    1    2  501    0  0.15542779196E+02 -0.11956776310E+03  0.14529399671E+03  0.25576699986E+03  0.17253516969E+03 0.  0.
         24    2    5    5    0    0  0.73696800394E+02 -0.93128317986E+02  0.11962142677E+03  0.18675899100E+03  0.80408537957E+02 0.  0.
          5    1    5    5  501    0 -0.58154021198E+02 -0.26439445112E+02  0.25672569934E+02  0.69008008857E+02  0.47000000000E+01 0. -1.
        -13    1    6    6    0    0  0.54368132852E+02 -0.59402655425E+02  0.12377642556E+03  0.14766574709E+03  0.00000000000E+00 0.  1.
         14    1    6    6    0    0  0.19328667543E+02 -0.33725662561E+02 -0.41549987826E+01  0.39093243905E+02  0.00000000000E+00 0. -1.
         -5    1    3    3    0  503  0.75046321784E+01  0.81449872163E+02 -0.17923713215E+03  0.19707470848E+03  0.47000000000E+01 0.  1.
         13    1    4    4    0    0  0.22810632682E+02 -0.10922322642E+02 -0.42696164850E+01  0.25648620239E+02  0.00000000000E+00 0. -1.
        -14    1    4    4    0    0 -0.45858044056E+02  0.49040213578E+02 -0.30202164576E+02  0.73621148439E+02  0.00000000000E+00 0.  1.
<mgrwt>
<rscale>  2 0.20918127E+03</rscale>
<asrwt>0</asrwt>
<pdfrwt beam="1">  1       21 0.37207428E-01 0.21049089E+03</pdfrwt>
<pdfrwt beam="2">  1       21 0.47732799E-01 0.21049089E+03</pdfrwt>
<totfact> 0.28948100E+04</totfact>
</mgrwt>
</event>
<event>
12    1  0.1071811E-001  0.1786449E+03  0.7546771E-02  0.1169245E+00
         21   -1    0    0  503  502  0.00000000000E+00  0.00000000000E+00  0.52162130121E+03  0.52162130121E+03  0.00000000000E+00 0.  1.
         21   -1    0    0  501  503 -0.00000000000E+00 -0.00000000000E+00 -0.63183860363E+02  0.63183860363E+02  0.00000000000E+00 0. -1.
          6    2    1    2  501    0 -0.13652494211E+02 -0.39763906728E+02  0.28377518788E+03  0.33532426171E+03  0.17362731454E+03 0.  0.
         24    2    3    3    0    0  0.59173317198E+02 -0.22547688412E+02  0.17770956978E+03  0.20543198971E+03  0.81312554285E+02 0.  0.
         -6    2    1    2    0  502  0.13652494211E+02  0.39763906728E+02  0.17466225296E+03  0.24948089986E+03  0.17310764833E+03 0.  0.
        -24    2    5    5    0    0 -0.31147928721E+02  0.50793640000E+02  0.17577776615E+03  0.20309052068E+03  0.82448463837E+02 0.  0.
          5    1    3    3  501    0 -0.72825811409E+02 -0.17216218315E+02  0.10606561811E+03  0.12989227200E+03  0.47000000000E+01 0. -1.
        -11    1    4    4    0    0  0.66199591342E+02 -0.27356270515E+01  0.17096632369E+03  0.18335581088E+03  0.00000000000E+00 0.  1.
         12    1    4    4    0    0 -0.70262741440E+01 -0.19812061361E+02  0.67432460889E+01  0.22076178825E+02  0.00000000000E+00 0. -1.
         -5    1    5    5    0  502  0.44800422932E+02 -0.11029733273E+02 -0.11155131922E+01  0.46390379182E+02  0.47000000000E+01 0.  1.
         11    1    6    6    0    0  0.20858003447E+02  0.21510642078E+00  0.12241813347E+02  0.24186040862E+02  0.00000000000E+00 0. -1.
        -12    1    6    6    0    0 -0.52005932168E+02  0.50578533579E+02  0.16353595280E+03  0.17890447982E+03  0.00000000000E+00 0.  1.
<mgrwt>
<rscale>  2 0.17851852E+03</rscale>
<asrwt>0</asrwt>
<pdfrwt beam="1">  1       21 0.80249428E-01 0.17864491E+03</pdfrwt>
<pdfrwt beam="2">  1       21 0.97205942E-02 0.17864491E+03</pdfrwt>
<totfact> 0.11711788E+05</totfact>
</mgrwt>
</event>
<event>
12    1  0.1071811E-001  0.2084295E+03  0.7546771E-02  0.1143001E+00
         21   -1    0    0  501  502  0.00000000000E+00  0.00000000000E+00  0.18157553879E+03  0.18157553879E+03  0.00000000000E+00 0. -1.
         21   -1    0    0  502  503 -0.00000000000E+00 -0.00000000000E+00 -0.30226301218E+03  0.30226301218E+03  0.00000000000E+00 0.  1.
         -6    2    1    2    0  503 -0.55766619985E+02 -0.10358287296E+03 -0.17182805204E+03  0.27012542288E+03  0.17205678465E+03 0.  0.
        -24    2    3    3    0    0 -0.56665453024E+02 -0.55448825831E+02 -0.25047262705E+02  0.11557968689E+03  0.80285445761E+02 0.  0.
          6    2    1    2  501    0  0.55766619985E+02  0.10358287296E+03  0.51140578643E+02  0.21371312809E+03  0.17093453384E+03 0.  0.
         24    2    5    5    0    0  0.54992718262E+02  0.12305671558E+03 -0.26725605205E+01  0.15628688481E+03  0.79065121721E+02 0.  0.
          5    1    5    5  501    0  0.77390172328E+00 -0.19473842623E+02  0.53813139164E+02  0.57426243278E+02  0.47000000000E+01 0. -1.
        -13    1    6    6    0    0 -0.19530183723E+02  0.35861029090E+02  0.59264103293E+01  0.41262135463E+02  0.00000000000E+00 0.  1.
         14    1    6    6    0    0  0.74522901984E+02  0.87195686495E+02 -0.85989708498E+01  0.11502474935E+03  0.00000000000E+00 0. -1.
         -5    1    3    3    0  503  0.89883303900E+00 -0.48134047130E+02 -0.14678078933E+03  0.15454573598E+03  0.47000000000E+01 0.  1.
         11    1    4    4    0    0 -0.76629078680E+01 -0.50965395637E+02 -0.38772465368E+02  0.64494153069E+02  0.00000000000E+00 0. -1.
        -12    1    4    4    0    0 -0.49002545156E+02 -0.44834301948E+01  0.13725202663E+02  0.51085533825E+02  0.00000000000E+00 0.  1.
<mgrwt>
<rscale>  2 0.20819777E+03</rscale>
<asrwt>0</asrwt>
<pdfrwt beam="1">  1       21 0.27934698E-01 0.20842952E+03</pdfrwt>
<pdfrwt beam="2">  1       21 0.46502002E-01 0.20842952E+03</pdfrwt>
<totfact> 0.53799308E+04</totfact>
</mgrwt>
</event>
<event>
12    1  0.1071811E-001  0.1916703E+03  0.7546771E-02  0.1160015E+00
         21   -1    0    0  503  502  0.00000000000E+00  0.00000000000E+00  0.60008496721E+03  0.60008496721E+03  0.00000000000E+00 0. -1.
         21   -1    0    0  501  503 -0.00000000000E+00 -0.00000000000E+00 -0.81714860193E+02  0.81714860193E+02  0.00000000000E+00 0. -1.
          6    2    1    2  501    0  0.26728905933E+01  0.51816169742E+02  0.43981818554E+03  0.47465756867E+03  0.17078557133E+03 0.  0.
         24    2    3    3    0    0 -0.76896495661E+01  0.34627267194E+02  0.96239845128E+02  0.13046139407E+03  0.80621890385E+02 0.  0.
         -6    2    1    2    0  502 -0.26728905933E+01 -0.51816169742E+02  0.78551921480E+02  0.20714225873E+03  0.18451409484E+03 0.  0.
        -24    2    5    5    0    0 -0.18651504681E+02 -0.68798856456E+02 -0.17446618585E+02  0.10824060328E+03  0.79564328831E+02 0.  0.
          5    1    3    3  501    0  0.10362540159E+02  0.17188902548E+02  0.34357834041E+03  0.34419617460E+03  0.47000000000E+01 0. -1.
        -13    1    4    4    0    0  0.24303791841E+02  0.37457757460E+02  0.22435285240E+02  0.49970990741E+02  0.00000000000E+00 0.  1.
         14    1    4    4    0    0 -0.31993441408E+02 -0.28304902659E+01  0.73804559888E+02  0.80490403332E+02  0.00000000000E+00 0. -1.
         -5    1    5    5    0  502  0.15978614088E+02  0.16982686714E+02  0.95998540065E+02  0.98901655450E+02  0.47000000000E+01 0.  1.
         13    1    6    6    0    0 -0.37580739909E+02 -0.12471460463E+02  0.12733005854E+02  0.41593013551E+02  0.00000000000E+00 0. -1.
        -14    1    6    6    0    0  0.18929235228E+02 -0.56327395993E+02 -0.30179624439E+02  0.66647589731E+02  0.00000000000E+00 0.  1.
<mgrwt>
<rscale>  2 0.18828750E+03</rscale>
<asrwt>0</asrwt>
<pdfrwt beam="1">  1       21 0.92320761E-01 0.19167032E+03</pdfrwt>
<pdfrwt beam="2">  1       21 0.12571517E-01 0.19167032E+03</pdfrwt>
<totfact> 0.53491984E+04</totfact>
</mgrwt>
</event>
<event>
12    1  0.1071811E-001  0.3759585E+03  0.7546771E-02  0.1052481E+00
         21   -1    0    0  503  502  0.00000000000E+00  0.00000000000E+00  0.17643342748E+04  0.17643342748E+04  0.00000000000E+00 0. -1.
         21   -1    0    0  501  503 -0.00000000000E+00 -0.00000000000E+00 -0.11146274731E+03  0.11146274731E+03  0.00000000000E+00 0.  1.
          6    2    1    2  501    0 -0.81647454019E+02 -0.32318641985E+03  0.32861215931E+03  0.49933028873E+03  0.17386493976E+03 0.  0.
         24    2    3    3    0    0 -0.12939681726E+02 -0.15296113355E+03  0.23937064490E+03  0.29516480692E+03  0.79116457616E+02 0.  0.
         -6    2    1    2    0  502  0.81647454019E+02  0.32318641985E+03  0.13242593682E+04  0.13764667334E+04  0.17286418124E+03 0.  0.
        -24    2    5    5    0    0  0.91716564184E+02  0.12704949156E+03  0.53974808466E+03  0.56773245960E+03  0.80241194737E+02 0.  0.
          5    1    3    3  501    0 -0.68707772293E+02 -0.17022528630E+03  0.89241514410E+02  0.20416548181E+03  0.47000000000E+01 0. -1.
        -11    1    4    4    0    0  0.97721034010E+01 -0.89857706383E+02  0.74354008523E+02  0.11704024942E+03  0.00000000000E+00 0.  1.
         12    1    4    4    0    0 -0.22711785127E+02 -0.63103427170E+02  0.16501663637E+03  0.17812455750E+03  0.00000000000E+00 0. -1.
         -5    1    5    5    0  502 -0.10069110165E+02  0.19613692828E+03  0.78451128353E+03  0.80873427379E+03  0.47000000000E+01 0.  1.
         11    1    6    6    0    0  0.70658595379E+02  0.72065624568E+02  0.44402786292E+03  0.45535352683E+03  0.00000000000E+00 0. -1.
        -12    1    6    6    0    0  0.21057968805E+02  0.54983866997E+02  0.95720221735E+02  0.11237893276E+03  0.00000000000E+00 0.  1.
<mgrwt>
<rscale>  2 0.37584300E+03</rscale>
<asrwt>0</asrwt>
<pdfrwt beam="1">  1       21 0.27143602E+00 0.37595849E+03</pdfrwt>
<pdfrwt beam="2">  1       21 0.17148116E-01 0.37595849E+03</pdfrwt>
<totfact> 0.13065401E+03</totfact>
</mgrwt>
</event>
<event>
12    1  0.1071811E-001  0.2520240E+03  0.7546771E-02  0.1112111E+00
         21   -1    0    0  501  502  0.00000000000E+00  0.00000000000E+00  0.47943907005E+03  0.47943907005E+03  0.00000000000E+00 0. -1.
         21   -1    0    0  502  503 -0.00000000000E+00 -0.00000000000E+00 -0.16747444530E+03  0.16747444530E+03  0.00000000000E+00 0.  1.
         -6    2    1    2    0  503 -0.11941999142E+03 -0.13911572652E+03  0.30451611426E+03  0.39527986781E+03  0.17292134147E+03 0.  0.
        -24    2    3    3    0    0 -0.11226894431E+03 -0.10145287137E+03  0.12468149412E+03  0.21134452935E+03  0.78892548083E+02 0.  0.
          6    2    1    2  501    0  0.11941999142E+03  0.13911572652E+03  0.74485104868E+01  0.25163364754E+03  0.17219086083E+03 0.  0.
         24    2    5    5    0    0  0.13907225409E+03  0.15020175119E+03  0.27305895623E+02  0.22121133475E+03  0.79291769860E+02 0.  0.
          5    1    5    5  501    0 -0.19652262676E+02 -0.11086024669E+02 -0.19857385136E+02  0.30422312793E+02  0.47000000000E+01 0. -1.
        -11    1    6    6    0    0  0.91887801958E+02  0.13523726424E+03  0.43395305947E+02  0.16916157474E+03  0.00000000000E+00 0.  1.
         12    1    6    6    0    0  0.47184452136E+02  0.14964486942E+02 -0.16089410325E+02  0.52049760013E+02  0.00000000000E+00 0. -1.
         -5    1    3    3    0  503 -0.71510471083E+01 -0.37662855144E+02  0.17983462015E+03  0.18393533846E+03  0.47000000000E+01 0.  1.
         11    1    4    4    0    0 -0.66028576080E+02 -0.10006101894E+02  0.62588154887E+02  0.91526892585E+02  0.00000000000E+00 0. -1.
        -12    1    4    4    0    0 -0.46240368229E+02 -0.91446769479E+02  0.62093339231E+02  0.11981763676E+03  0.00000000000E+00 0.  1.
<mgrwt>
<rscale>  2 0.25189877E+03</rscale>
<asrwt>0</asrwt>
<pdfrwt beam="1">  1       21 0.73759856E-01 0.25202403E+03</pdfrwt>
<pdfrwt beam="2">  1       21 0.25765299E-01 0.25202403E+03</pdfrwt>
<totfact> 0.22858365E+04</totfact>
</mgrwt>
</event>
<event>
12    1  0.1071811E-001  0.2087204E+03  0.7546771E-02  0.1142655E+00
         21   -1    0    0  501  502  0.00000000000E+00  0.00000000000E+00  0.35154845997E+03  0.35154845997E+03  0.00000000000E+00 0. -1.
         21   -1    0    0  502  503 -0.00000000000E+00 -0.00000000000E+00 -0.13872287205E+03  0.13872287205E+03  0.00000000000E+00 0.  1.
         -6    2    1    2    0  503  0.11380880522E+03 -0.10110152666E+02  0.25680233928E+02  0.20993656297E+03  0.17423899312E+03 0.  0.
        -24    2    3    3    0    0  0.70563702349E+02 -0.41278644513E+02  0.75840707082E+02  0.13658960070E+03  0.78878029813E+02 0.  0.
          6    2    1    2  501    0 -0.11380880522E+03  0.10110152666E+02  0.18714535399E+03  0.28033476905E+03  0.17466980245E+03 0.  0.
         24    2    5    5    0    0 -0.84667805966E+02  0.31659316165E+02  0.20220025477E+03  0.24080877352E+03  0.94514404774E+02 0.  0.
          5    1    5    5  501    0 -0.29140999253E+02 -0.21549163499E+02 -0.15054900780E+02  0.39525995528E+02  0.47000000000E+01 0. -1.
        -13    1    6    6    0    0 -0.90805194562E+02  0.43645511644E+02  0.11634878133E+03  0.15390761178E+03  0.00000000000E+00 0.  1.
         14    1    6    6    0    0  0.61373885964E+01 -0.11986195479E+02  0.85851473442E+02  0.86901161748E+02  0.00000000000E+00 0. -1.
         -5    1    3    3    0  503  0.43245102870E+02  0.31168491846E+02 -0.50160473154E+02  0.73346962264E+02  0.47000000000E+01 0.  1.
         11    1    4    4    0    0  0.54802537210E+02 -0.60002338755E+02  0.33941432736E+02  0.88065995690E+02  0.00000000000E+00 0. -1.
        -12    1    4    4    0    0  0.15761165139E+02  0.18723694242E+02  0.41899274346E+02  0.48523605012E+02  0.00000000000E+00 0.  1.
<mgrwt>
<rscale>  2 0.20863023E+03</rscale>
<asrwt>0</asrwt>
<pdfrwt beam="1">  1       21 0.54084378E-01 0.20872039E+03</pdfrwt>
<pdfrwt beam="2">  1       21 0.21341980E-01 0.20872039E+03</pdfrwt>
<totfact> 0.65573351E+04</totfact>
</mgrwt>
</event>
<event>
12    1  0.1071811E-001  0.2245818E+03  0.7546771E-02  0.1130773E+00
         21   -1    0    0  501  502  0.00000000000E+00  0.00000000000E+00  0.59519297703E+03  0.59519297703E+03  0.00000000000E+00 0.  1.
         21   -1    0    0  502  503 -0.00000000000E+00 -0.00000000000E+00 -0.92310954686E+02  0.92310954686E+02  0.00000000000E+00 0. -1.
         -6    2    1    2    0  503  0.13601185174E+03 -0.42409425695E+02  0.14882317384E+03  0.26822518529E+03  0.17175165137E+03 0.  0.
        -24    2    3    3    0    0  0.42933349513E+02  0.13256947848E+02  0.12708167242E+02  0.94122520916E+02  0.81722287426E+02 0.  0.
          6    2    1    2  501    0 -0.13601185174E+03  0.42409425695E+02  0.35405884850E+03  0.41927874643E+03  0.17360649701E+03 0.  0.
         24    2    5    5    0    0 -0.10473754698E+02  0.56012455871E+02  0.16774457165E+03  0.19415665511E+03  0.79444764820E+02 0.  0.
          5    1    5    5  501    0 -0.12553809704E+03 -0.13603030176E+02  0.18631427685E+03  0.22512209131E+03  0.47000000000E+01 0. -1.
        -11    1    6    6    0    0 -0.23677525870E+02  0.14549276964E+02  0.13958655156E+03  0.14232607656E+03  0.00000000000E+00 0.  1.
         12    1    6    6    0    0  0.13203771172E+02  0.41463178907E+02  0.28158020087E+02  0.51830578556E+02  0.00000000000E+00 0. -1.
         -5    1    3    3    0  503  0.93078502225E+02 -0.55666373543E+02  0.13611500660E+03  0.17410266437E+03  0.47000000000E+01 0.  1.
         11    1    4    4    0    0  0.37860701380E+02  0.36255160541E+02  0.33911567216E+02  0.62432874080E+02  0.00000000000E+00 0. -1.
        -12    1    4    4    0    0  0.50726481332E+01 -0.22998212692E+02 -0.21203399974E+02  0.31689646836E+02  0.00000000000E+00 0.  1.
<mgrwt>
<rscale>  2 0.22422329E+03</rscale>
<asrwt>0</asrwt>
<pdfrwt beam="1">  1       21 0.91568148E-01 0.22458183E+03</pdfrwt>
<pdfrwt beam="2">  1       21 0.14201686E-01 0.22458183E+03</pdfrwt>
<totfact> 0.43032123E+04</totfact>
</mgrwt>
</event>
<event>
12    1  0.1071811E-001  0.1926313E+03  0.7546771E-02  0.1156318E+00
         21   -1    0    0  503  502  0.00000000000E+00  0.00000000000E+00  0.37378320326E+03  0.37378320326E+03  0.00000000000E+00 0. -1.
         21   -1    0    0  501  503 -0.00000000000E+00 -0.00000000000E+00 -0.13712651596E+03  0.13712651596E+03  0.00000000000E+00 0. -1.
          6    2    1    2  501    0 -0.80569106056E+02 -0.55402553269E+01 -0.16532361817E+02  0.19333941394E+03  0.17488491849E+03 0.  0.
         24    2    3    3    0    0 -0.11542273444E+03 -0.20945055024E+02  0.15776477974E+02  0.14315939407E+03  0.80527087979E+02 0.  0.
         -6    2    1    2    0  502  0.80569106056E+02  0.55402553269E+01  0.25318904912E+03  0.31757030528E+03  0.17385088129E+03 0.  0.
        -24    2    5    5    0    0 -0.17816416864E+02  0.51498424826E+01  0.16861313088E+03  0.18774334549E+03  0.80456387466E+02 0.  0.
          5    1    3    3  501    0  0.34853628382E+02  0.15404799697E+02 -0.32308839790E+02  0.50180019865E+02  0.47000000000E+01 0. -1.
        -13    1    4    4    0    0 -0.35271050859E+02  0.24125294261E+02 -0.16350997447E+02  0.45754037739E+02  0.00000000000E+00 0.  1.
         14    1    4    4    0    0 -0.80151683579E+02 -0.45070349285E+02  0.32127475421E+02  0.97405356332E+02  0.00000000000E+00 0. -1.
         -5    1    5    5    0  502  0.98385522921E+02  0.39041284430E+00  0.84575918237E+02  0.12982695979E+03  0.47000000000E+01 0.  1.
         13    1    6    6    0    0 -0.45978355683E+02 -0.14507397555E+02  0.97061199065E+02  0.10837596661E+03  0.00000000000E+00 0. -1.
        -14    1    6    6    0    0  0.28161938818E+02  0.19657240038E+02  0.71551931814E+02  0.79367378880E+02  0.00000000000E+00 0.  1.
<mgrwt>
<rscale>  2 0.19239628E+03</rscale>
<asrwt>0</asrwt>
<pdfrwt beam="1">  1       21 0.57505108E-01 0.19263128E+03</pdfrwt>
<pdfrwt beam="2">  1       21 0.21096387E-01 0.19263128E+03</pdfrwt>
<totfact> 0.59277687E+04</totfact>
</mgrwt>
</event>
<event>
12    1  0.1071811E-001  0.1796430E+03  0.7546771E-02  0.1168682E+00
         21   -1    0    0  503  502  0.00000000000E+00  0.00000000000E+00  0.14532279916E+04  0.14532279916E+04  0.00000000000E+00 0.  1.
         21   -1    0    0  501  503 -0.00000000000E+00 -0.00000000000E+00 -0.31462505753E+02  0.31462505753E+02  0.00000000000E+00 0.  1.
          6    2    1    2  501    0  0.28211393442E+02  0.36077257775E+02  0.30547109690E+03  0.35437859928E+03  0.17370707913E+03 0.  0.
         24    2    3    3    0    0  0.69820727564E+02 -0.94242915736E+01  0.24693582664E+03  0.26923051919E+03  0.80895109343E+02 0.  0.
         -6    2    1    2    0  502 -0.28211393442E+02 -0.36077257775E+02  0.11162943889E+04  0.11303118980E+04  0.17144787217E+03 0.  0.
        -24    2    5    5    0    0 -0.16704808757E+02  0.29153091852E+02  0.34371616461E+03  0.35488517508E+03  0.81692914488E+02 0.  0.
          5    1    3    3  501    0 -0.41609334123E+02  0.45501549349E+02  0.58535270257E+02  0.85148080092E+02  0.47000000000E+01 0. -1.
        -13    1    4    4    0    0  0.36051569358E+02  0.26411387060E+02  0.53920921931E+02  0.70033869246E+02  0.00000000000E+00 0.  1.
         14    1    4    4    0    0  0.33769158206E+02 -0.35835678634E+02  0.19301490471E+03  0.19919664994E+03  0.00000000000E+00 0. -1.
         -5    1    5    5    0  502 -0.11506584684E+02 -0.65230349627E+02  0.77257822432E+03  0.77542672297E+03  0.47000000000E+01 0.  1.
         11    1    6    6    0    0  0.30384039647E+02  0.15426284861E+02  0.20360452682E+03  0.20643634242E+03  0.00000000000E+00 0. -1.
        -12    1    6    6    0    0 -0.47088848404E+02  0.13726806991E+02  0.14011163779E+03  0.14844883266E+03  0.00000000000E+00 0.  1.
<mgrwt>
<rscale>  2 0.17909457E+03</rscale>
<asrwt>0</asrwt>
<pdfrwt beam="1">  1       21 0.22357348E+00 0.17964298E+03</pdfrwt>
<pdfrwt beam="2">  1       21 0.48403866E-02 0.17964298E+03</pdfrwt>
<totfact> 0.27466074E+04</totfact>
</mgrwt>
</event>
<event>
12    1  0.1071811E-001  0.2112006E+03  0.7546771E-02  0.1140668E+00
         21   -1    0    0  501  502  0.00000000000E+00  0.00000000000E+00  0.29166570594E+03  0.29166570594E+03  0.00000000000E+00 0. -1.
         21   -1    0    0  502  503 -0.00000000000E+00 -0.00000000000E+00 -0.16690977442E+03  0.16690977442E+03  0.00000000000E+00 0. -1.
         -6    2    1    2    0  503 -0.66453062665E+02  0.10275466560E+03 -0.44345569820E+01  0.21099541652E+03  0.17182802349E+03 0.  0.
        -24    2    3    3    0    0 -0.32045591815E+02  0.12753696069E+03 -0.37672127542E+02  0.15691342047E+03  0.76876758730E+02 0.  0.
          6    2    1    2  501    0  0.66453062665E+02 -0.10275466560E+03  0.12919048850E+03  0.24758006384E+03  0.17213708158E+03 0.  0.
         24    2    5    5    0    0 -0.19747677087E+02 -0.94100599270E+02  0.73871178746E+02  0.14468314246E+03  0.78939008923E+02 0.  0.
          5    1    5    5  501    0  0.86200739752E+02 -0.86540663255E+01  0.55319309758E+02  0.10289692138E+03  0.47000000000E+01 0. -1.
        -13    1    6    6    0    0 -0.19100096820E+02 -0.13822621094E+02 -0.12565009249E+02  0.26716249922E+02  0.00000000000E+00 0.  1.
         14    1    6    6    0    0 -0.64758026760E+00 -0.80277978175E+02  0.86436187995E+02  0.11796689254E+03  0.00000000000E+00 0. -1.
         -5    1    3    3    0  503 -0.34407470850E+02 -0.24782295093E+02  0.33237570560E+02  0.54081996053E+02  0.47000000000E+01 0.  1.
         13    1    4    4    0    0 -0.42245801144E+02  0.28705724656E+02 -0.24632274544E+02  0.56705161066E+02  0.00000000000E+00 0. -1.
        -14    1    4    4    0    0  0.10200209329E+02  0.98831236032E+02 -0.13039852998E+02  0.10020825940E+03  0.00000000000E+00 0.  1.
<mgrwt>
<rscale>  2 0.21113765E+03</rscale>
<asrwt>0</asrwt>
<pdfrwt beam="1">  1       21 0.44871647E-01 0.21120063E+03</pdfrwt>
<pdfrwt beam="2">  1       21 0.25678427E-01 0.21120063E+03</pdfrwt>
<totfact> 0.68030366E+04</totfact>
</mgrwt>
</event>
<event>
12    1  0.1071811E-001  0.1788714E+03  0.7546771E-02  0.1169231E+00
         21   -1    0    0  501  502  0.00000000000E+00  0.00000000000E+00  0.98127133868E+03  0.98127133868E+03  0.00000000000E+00 0. -1.
         21   -1    0    0  502  503 -0.00000000000E+00 -0.00000000000E+00 -0.49376124110E+02  0.49376124110E+02  0.00000000000E+00 0. -1.
         -6    2    1    2    0  503 -0.44263273646E+02  0.17808186312E+02  0.16458608416E+03  0.24307112660E+03  0.17239090636E+03 0.  0.
        -24    2    3    3    0    0 -0.60395286007E+02 -0.39866535619E+02  0.14302531108E+03  0.17924658345E+03  0.80225724275E+02 0.  0.
          6    2    1    2  501    0  0.44263273646E+02 -0.17808186312E+02  0.76730913041E+03  0.78757633618E+03  0.17098776219E+03 0.  0.
         24    2    5    5    0    0  0.57182316185E+02  0.32251512140E+02  0.30299890044E+03  0.32037300281E+03  0.80749922223E+02 0.  0.
          5    1    5    5  501    0 -0.12919042538E+02 -0.50059698452E+02  0.46431022997E+03  0.46720333338E+03  0.47000000000E+01 0. -1.
        -11    1    6    6    0    0 -0.21023808865E+01 -0.18508760839E+02  0.22457564865E+02  0.29177670449E+02  0.00000000000E+00 0.  1.
         12    1    6    6    0    0  0.59284697071E+02  0.50760272979E+02  0.28054133558E+03  0.29119533236E+03  0.00000000000E+00 0. -1.
         -5    1    3    3    0  503  0.16132012360E+02  0.57674721931E+02  0.21560773080E+02  0.63824543151E+02  0.47000000000E+01 0.  1.
         13    1    4    4    0    0 -0.60540129339E+02 -0.26509506774E+02  0.44166157313E+02  0.79489060011E+02  0.00000000000E+00 0. -1.
        -14    1    4    4    0    0  0.14484333233E+00 -0.13357028845E+02  0.98859153770E+02  0.99757523442E+02  0.00000000000E+00 0.  1.
<mgrwt>
<rscale>  2 0.17853250E+03</rscale>
<asrwt>0</asrwt>
<pdfrwt beam="1">  1       21 0.15096481E+00 0.17887144E+03</pdfrwt>
<pdfrwt beam="2">  1       21 0.75963275E-02 0.17887144E+03</pdfrwt>
<totfact> 0.38907597E+04</totfact>
</mgrwt>
</event>
<event>
12    1  0.1071811E-001  0.2205068E+03  0.7546771E-02  0.1133622E+00
         21   -1    0    0  503  502  0.00000000000E+00  0.00000000000E+00  0.18631159596E+03  0.18631159596E+03  0.00000000000E+00 0.  1.
         21   -1    0    0  501  503 -0.00000000000E+00 -0.00000000000E+00 -0.60505255592E+03  0.60505255592E+03  0.00000000000E+00 0.  1.
          6    2    1    2  501    0  0.11852873875E+03  0.67232485543E+02 -0.50820242938E+03  0.55397921036E+03  0.17336085851E+03 0.  0.
         24    2    3    3    0    0  0.12529804813E+03  0.93741136868E+02 -0.49005071716E+03  0.52081135241E+03  0.81288116008E+02 0.  0.
         -6    2    1    2    0  502 -0.11852873875E+03 -0.67232485543E+02  0.89461469417E+02  0.23738494152E+03  0.17256589155E+03 0.  0.
        -24    2    5    5    0    0 -0.51171005525E+02 -0.39316569848E+02 -0.19819753486E+02  0.10592833935E+03  0.81631648143E+02 0.  0.
          5    1    3    3  501    0 -0.67693093780E+01 -0.26508651325E+02 -0.18151712221E+02  0.33167857952E+02  0.47000000000E+01 0. -1.
        -11    1    4    4    0    0  0.88649860780E+02  0.22538915801E+02 -0.20028680003E+03  0.22018538282E+03  0.00000000000E+00 0.  1.
         12    1    4    4    0    0  0.36648187348E+02  0.71202221068E+02 -0.28976391713E+03  0.30062596959E+03  0.00000000000E+00 0. -1.
         -5    1    5    5    0  502 -0.67357733224E+02 -0.27915915695E+02  0.10928122290E+03  0.13145660217E+03  0.47000000000E+01 0.  1.
         11    1    6    6    0    0  0.15735380175E+02 -0.33262814213E+02 -0.90164647457E+01  0.37885533323E+02  0.00000000000E+00 0. -1.
        -12    1    6    6    0    0 -0.66906385700E+02 -0.60537556351E+01 -0.10803288740E+02  0.68042806029E+02  0.00000000000E+00 0.  1.
<mgrwt>
<rscale>  2 0.22035054E+03</rscale>
<asrwt>0</asrwt>
<pdfrwt beam="1">  1       21 0.28663323E-01 0.22050682E+03</pdfrwt>
<pdfrwt beam="2">  1       21 0.93085008E-01 0.22050682E+03</pdfrwt>
<totfact> 0.11103743E+04</totfact>
</mgrwt>
</event>
<event>
12    1  0.1071811E-001  0.2033031E+03  0.7546771E-02  0.1147533E+00
         21   -1    0    0  503  502  0.00000000000E+00  0.00000000000E+00  0.58458426451E+03  0.58458426451E+03  0.00000000000E+00 0. -1.
         21   -1    0    0  501  503 -0.00000000000E+00 -0.00000000000E+00 -0.70343543817E+02  0.70343543817E+02  0.00000000000E+00 0. -1.
          6    2    1    2  501    0 -0.54698503465E+02 -0.88521689860E+02  0.22624905637E+03  0.30240637707E+03  0.17156038450E+03 0.  0.
         24    2    3    3    0    0 -0.54053033852E+02  0.13981423560E+02  0.11864626512E+03  0.15371960706E+03  0.80222008794E+02 0.  0.
         -6    2    1    2    0  502  0.54698503465E+02  0.88521689860E+02  0.28799166432E+03  0.35252143125E+03  0.17465435842E+03 0.  0.
        -24    2    5    5    0    0  0.60269437110E+02  0.12237205872E+03  0.18128462656E+03  0.24033691948E+03  0.79311999303E+02 0.  0.
          5    1    3    3  501    0 -0.64546961295E+00 -0.10250311342E+03  0.10760279125E+03  0.14868677001E+03  0.47000000000E+01 0. -1.
        -13    1    4    4    0    0 -0.61616316255E+01 -0.20319170954E+02  0.81170482615E+02  0.83901618938E+02  0.00000000000E+00 0.  1.
         14    1    4    4    0    0 -0.47891402227E+02  0.34300594514E+02  0.37475782505E+02  0.69817988124E+02  0.00000000000E+00 0. -1.
         -5    1    5    5    0  502 -0.55709336445E+01 -0.33850368859E+02  0.10670703776E+03  0.11218451177E+03  0.47000000000E+01 0.  1.
         11    1    6    6    0    0  0.15232993628E+02  0.63952444015E+02  0.30490940038E+02  0.72468314558E+02  0.00000000000E+00 0. -1.
        -12    1    6    6    0    0  0.45036443481E+02  0.58419614705E+02  0.15079368653E+03  0.16786860493E+03  0.00000000000E+00 0.  1.
<mgrwt>
<rscale>  2 0.20263692E+03</rscale>
<asrwt>0</asrwt>
<pdfrwt beam="1">  1       21 0.89936038E-01 0.20330313E+03</pdfrwt>
<pdfrwt beam="2">  1       21 0.10822084E-01 0.20330313E+03</pdfrwt>
<totfact> 0.73875889E+04</totfact>
</mgrwt>
</event>
<event>
12    1  0.1071811E-001  0.2059310E+03  0.7546771E-02  0.1146807E+00
         21   -1    0    0  503  502  0.00000000000E+00  0.00000000000E+00  0.16669662945E+03  0.16669662945E+03  0.00000000000E+00 0. -1.
         21   -1    0    0  501  503 -0.00000000000E+00 -0.00000000000E+00 -0.75692217186E+03  0.75692217186E+03  0.00000000000E+00 0. -1.
          6    2    1    2  501    0 -0.80689485060E+02  0.46284775183E+02 -0.67791237484E+03  0.70850037032E+03  0.18372401414E+03 0.  0.
         24    2    3    3    0    0  0.28919786045E+02  0.39294321956E+02 -0.38729885300E+03  0.39778930224E+03  0.76521432835E+02 0.  0.
         -6    2    1    2    0  502  0.80689485060E+02 -0.46284775183E+02  0.87686832430E+02  0.21511843099E+03  0.17301411895E+03 0.  0.
        -24    2    5    5    0    0  0.51301521665E+02 -0.97668427418E+02  0.70068033748E+02  0.15317939502E+03  0.79896369548E+02 0.  0.
          5    1    3    3  501    0 -0.10960927111E+03  0.69904532267E+01 -0.29061352184E+03  0.31071106808E+03  0.47000000000E+01 0. -1.
        -13    1    4    4    0    0  0.72744917777E+00  0.45928317934E+02 -0.33387402706E+03  0.33701899875E+03  0.00000000000E+00 0.  1.
         14    1    4    4    0    0  0.28192336868E+02 -0.66339959779E+01 -0.53424825938E+02  0.60770303497E+02  0.00000000000E+00 0. -1.
         -5    1    5    5    0  502  0.29387963395E+02  0.51383652235E+02  0.17618798683E+02  0.61939035967E+02  0.47000000000E+01 0.  1.
         11    1    6    6    0    0  0.52986393943E+02 -0.10860497789E+03  0.73688561877E+02  0.14153657943E+03  0.00000000000E+00 0. -1.
        -12    1    6    6    0    0 -0.16848722782E+01  0.10936550476E+02 -0.36205281296E+01  0.11642815589E+02  0.00000000000E+00 0.  1.
<mgrwt>
<rscale>  2 0.20351499E+03</rscale>
<asrwt>0</asrwt>
<pdfrwt beam="1">  1       21 0.25645635E-01 0.20593102E+03</pdfrwt>
<pdfrwt beam="2">  1       21 0.11644956E+00 0.20593102E+03</pdfrwt>
<totfact> 0.81226878E+03</totfact>
</mgrwt>
</event>
<event>
12    1  0.1071811E-001  0.2060217E+03  0.7546771E-02  0.1144826E+00
         21   -1    0    0  501  502  0.00000000000E+00  0.00000000000E+00  0.13188302574E+03  0.13188302574E+03  0.00000000000E+00 0.  1.
         21   -1    0    0  502  503 -0.00000000000E+00 -0.00000000000E+00 -0.33225648099E+03  0.33225648099E+03  0.00000000000E+00 0.  1.
         -6    2    1    2    0  503  0.28368721473E+02  0.10824762683E+03 -0.57955967829E+02  0.21368459370E+03  0.17256847425E+03 0.  0.
        -24    2    3    3    0    0 -0.61645355398E+01  0.53135278711E+02  0.33143145426E+02  0.10165310174E+03  0.79834363913E+02 0.  0.
          6    2    1    2  501    0 -0.28368721473E+02 -0.10824762683E+03 -0.14241748742E+03  0.25045491303E+03  0.17298147203E+03 0.  0.
         24    2    5    5    0    0 -0.11036367855E+02 -0.14366762671E+03 -0.12609291093E+03  0.20751811447E+03  0.80013481766E+02 0.  0.
          5    1    5    5  501    0 -0.17332353619E+02  0.35419999879E+02 -0.16324576486E+02  0.42936798563E+02  0.47000000000E+01 0. -1.
        -11    1    6    6    0    0 -0.44686234525E+02 -0.95398103501E+02 -0.72074489859E+02  0.12764164601E+03  0.00000000000E+00 0.  1.
         12    1    6    6    0    0  0.33649866671E+02 -0.48269523208E+02 -0.54018421073E+02  0.79876468455E+02  0.00000000000E+00 0. -1.
         -5    1    3    3    0  503  0.34533257013E+02  0.55112348119E+02 -0.91099113255E+02  0.11203149196E+03  0.47000000000E+01 0.  1.
         13    1    4    4    0    0 -0.27473314437E+02  0.53896990805E+02 -0.20214784136E+01  0.60528960003E+02  0.00000000000E+00 0. -1.
        -14    1    4    4    0    0  0.21308778898E+02 -0.76171209386E+00  0.35164623840E+02  0.41124141732E+02  0.00000000000E+00 0.  1.
<mgrwt>
<rscale>  2 0.20593494E+03</rscale>
<asrwt>0</asrwt>
<pdfrwt beam="1">  1       21 0.20289696E-01 0.20602166E+03</pdfrwt>
<pdfrwt beam="2">  1       21 0.51116381E-01 0.20602166E+03</pdfrwt>
<totfact> 0.81296313E+04</totfact>
</mgrwt>
</event>
