<event>
 4    1  0.3999109E+006  0.4834945E+01  0.7546771E-02  0.2597294E+00
         21   -1    0    0  501  502  0.00000000000E+00  0.00000000000E+00  0.73959397620E+01  0.73959397620E+01  0.00000000000E+00 0. -1.
         21   -1    0    0  502  503 -0.00000000000E+00 -0.00000000000E+00 -0.48618377729E+01  0.48618377729E+01  0.00000000000E+00 0. -1.
          5    1    1    2  501    0 -0.67621899281E+00 -0.91072665062E+00  0.48923617487E+01  0.68783645323E+01  0.47000000000E+01 0. -1.
         -5    1    1    2    0  503  0.67621899281E+00  0.91072665062E+00 -0.23582597596E+01  0.53794130026E+01  0.47000000000E+01 0. -1.
<mgrwt>
<rscale>  2 0.48349452E+01</rscale>
<asrwt>0</asrwt>
<pdfrwt beam="1">  1       21 0.11378369E-02 0.48349452E+01</pdfrwt>
<pdfrwt beam="2">  1       21 0.74797504E-03 0.48349452E+01</pdfrwt>
<totfact> 0.32015580E+09</totfact>
</mgrwt>
</event>
<event>
 4    1  0.3999109E+006  0.4809480E+01  0.7546771E-02  0.2602104E+00
         21   -1    0    0  501  502  0.00000000000E+00  0.00000000000E+00  0.74649660154E+02  0.74649660154E+02  0.00000000000E+00 0. -1.
         21   -1    0    0  502  503 -0.00000000000E+00 -0.00000000000E+00 -0.42419228566E+00  0.42419228566E+00  0.00000000000E+00 0. -1.
          5    1    1    2  501    0  0.35117039271E+00  0.95800658761E+00  0.56600311609E+02  0.56804281278E+02  0.47000000000E+01 0. -1.
         -5    1    1    2    0  503 -0.35117039271E+00 -0.95800658761E+00  0.17625156259E+02  0.18269571161E+02  0.47000000000E+01 0. -1.
<mgrwt>
<rscale>  2 0.48094799E+01</rscale>
<asrwt>0</asrwt>
<pdfrwt beam="1">  1       21 0.11484553E-01 0.48094799E+01</pdfrwt>
<pdfrwt beam="2">  1       21 0.65260411E-04 0.48094799E+01</pdfrwt>
<totfact> 0.30086680E+09</totfact>
</mgrwt>
</event>
<event>
 4    1  0.3999109E+006  0.7276845E+01  0.7546771E-02  0.2273957E+00
         21   -1    0    0  503  502  0.00000000000E+00  0.00000000000E+00  0.28630824757E+04  0.28630824757E+04  0.00000000000E+00 0. -1.
         21   -1    0    0  501  503 -0.00000000000E+00 -0.00000000000E+00 -0.75359607201E-01  0.75359607201E-01  0.00000000000E+00 0.  1.
          5    1    1    2  501    0  0.15840186816E+01  0.53247874392E+01  0.18794192420E+03  0.18808274601E+03  0.47000000000E+01 0.  1.
         -5    1    1    2    0  502 -0.15840186816E+01 -0.53247874392E+01  0.26750651919E+04  0.26750750893E+04  0.47000000000E+01 0. -1.
<mgrwt>
<rscale>  2 0.72768452E+01</rscale>
<asrwt>0</asrwt>
<pdfrwt beam="1">  1       21 0.44038712E+00 0.72768452E+01</pdfrwt>
<pdfrwt beam="2">  1       21 0.11596079E-04 0.72768452E+01</pdfrwt>
<totfact> 0.19306052E+07</totfact>
</mgrwt>
</event>
<event>
 4    1  0.3999109E+006  0.7301001E+01  0.7546771E-02  0.2271677E+00
         21   -1    0    0  501  502  0.00000000000E+00  0.00000000000E+00  0.51585104094E+02  0.51585104094E+02  0.00000000000E+00 0. -1.
         21   -1    0    0  502  503 -0.00000000000E+00 -0.00000000000E+00 -0.11508621386E+01  0.11508621386E+01  0.00000000000E+00 0. -1.
          5    1    1    2  501    0 -0.55784640077E+01  0.30879033464E+00  0.33643427566E+02  0.34426513482E+02  0.47000000000E+01 0. -1.
         -5    1    1    2    0  503  0.55784640077E+01 -0.30879033464E+00  0.16790814389E+02  0.18309452750E+02  0.47000000000E+01 0. -1.
<mgrwt>
<rscale>  2 0.73010008E+01</rscale>
<asrwt>0</asrwt>
<pdfrwt beam="1">  1       21 0.79361681E-02 0.73010008E+01</pdfrwt>
<pdfrwt beam="2">  1       21 0.17705575E-03 0.73010008E+01</pdfrwt>
<totfact> 0.19824507E+09</totfact>
</mgrwt>
</event>
<event>
 4    1  0.3999109E+006  0.8355915E+01  0.7546771E-02  0.2182728E+00
         21   -1    0    0  501  502  0.00000000000E+00  0.00000000000E+00  0.31841956079E+02  0.31841956079E+02  0.00000000000E+00 0. -1.
         21   -1    0    0  502  503 -0.00000000000E+00 -0.00000000000E+00 -0.51243038122E+01  0.51243038122E+01  0.00000000000E+00 0. -1.
          5    1    1    2  501    0 -0.16140348266E+01  0.67176040370E+01  0.27338831400E+02  0.28587287643E+02  0.47000000000E+01 0. -1.
         -5    1    1    2    0  503  0.16140348266E+01 -0.67176040370E+01 -0.62117913414E+00  0.83789722482E+01  0.47000000000E+01 0. -1.
<mgrwt>
<rscale>  2 0.83559148E+01</rscale>
<asrwt>0</asrwt>
<pdfrwt beam="1">  1       21 0.48987624E-02 0.83559148E+01</pdfrwt>
<pdfrwt beam="2">  1       21 0.78835445E-03 0.83559148E+01</pdfrwt>
<totfact> 0.55945596E+08</totfact>
</mgrwt>
</event>
<event>
 4    1  0.3999109E+006  0.4870039E+01  0.7546771E-02  0.2590738E+00
         21   -1    0    0  503  502  0.00000000000E+00  0.00000000000E+00  0.92675857018E+01  0.92675857018E+01  0.00000000000E+00 0.  1.
         21   -1    0    0  501  503 -0.00000000000E+00 -0.00000000000E+00 -0.71163568306E+01  0.71163568306E+01  0.00000000000E+00 0.  1.
          5    1    1    2  501    0 -0.40199374329E+00 -0.12106524995E+01 -0.54799219181E+01  0.73312224542E+01  0.47000000000E+01 0.  1.
         -5    1    1    2    0  502  0.40199374329E+00  0.12106524995E+01  0.76311507894E+01  0.90527200782E+01  0.47000000000E+01 0.  1.
<mgrwt>
<rscale>  2 0.48700389E+01</rscale>
<asrwt>0</asrwt>
<pdfrwt beam="1">  1       21 0.14257824E-02 0.48700389E+01</pdfrwt>
<pdfrwt beam="2">  1       21 0.10948241E-02 0.48700389E+01</pdfrwt>
<totfact> 0.13858879E+09</totfact>
</mgrwt>
</event>
<event>
 4    1  0.3999109E+006  0.5604626E+01  0.7546771E-02  0.2469910E+00
         21   -1    0    0  503  502  0.00000000000E+00  0.00000000000E+00  0.59735484843E+01  0.59735484843E+01  0.00000000000E+00 0.  1.
         21   -1    0    0  501  503 -0.00000000000E+00 -0.00000000000E+00 -0.56394459075E+01  0.56394459075E+01  0.00000000000E+00 0.  1.
          5    1    1    2  501    0 -0.10777171178E+01  0.28566336208E+01  0.16762096138E+01  0.58499152557E+01  0.47000000000E+01 0.  1.
         -5    1    1    2    0  502  0.10777171178E+01 -0.28566336208E+01 -0.13421070371E+01  0.57630791361E+01  0.47000000000E+01 0.  1.
<mgrwt>
<rscale>  2 0.56046258E+01</rscale>
<asrwt>0</asrwt>
<pdfrwt beam="1">  1       21 0.91900746E-03 0.56046258E+01</pdfrwt>
<pdfrwt beam="2">  1       21 0.86760706E-03 0.56046258E+01</pdfrwt>
<totfact> 0.40767693E+09</totfact>
</mgrwt>
</event>
<event>
 4    1  0.3999109E+006  0.5022576E+01  0.7546771E-02  0.2563164E+00
         21   -1    0    0  503  502  0.00000000000E+00  0.00000000000E+00  0.61371591950E+00  0.61371591950E+00  0.00000000000E+00 0. -1.
         21   -1    0    0  501  503 -0.00000000000E+00 -0.00000000000E+00 -0.11889081681E+03  0.11889081681E+03  0.00000000000E+00 0. -1.
          5    1    1    2  501    0  0.12156893839E+01 -0.12877762879E+01 -0.10747033387E+03  0.10758763372E+03  0.47000000000E+01 0. -1.
         -5    1    1    2    0  502 -0.12156893839E+01  0.12877762879E+01 -0.10806767021E+02  0.11916899005E+02  0.47000000000E+01 0. -1.
<mgrwt>
<rscale>  2 0.50225759E+01</rscale>
<asrwt>0</asrwt>
<pdfrwt beam="1">  1       21 0.94417805E-04 0.50225759E+01</pdfrwt>
<pdfrwt beam="2">  1       21 0.18290900E-01 0.50225759E+01</pdfrwt>
<totfact> 0.93508109E+08</totfact>
</mgrwt>
</event>
<event>
 4    1  0.3999109E+006  0.5287928E+01  0.7546771E-02  0.2518478E+00
         21   -1    0    0  503  502  0.00000000000E+00  0.00000000000E+00  0.25863588240E+01  0.25863588240E+01  0.00000000000E+00 0.  1.
         21   -1    0    0  501  503 -0.00000000000E+00 -0.00000000000E+00 -0.18060920235E+02  0.18060920235E+02  0.00000000000E+00 0.  1.
          5    1    1    2  501    0 -0.46764198671E+00  0.23777071097E+01 -0.14277876220E+02  0.15225633960E+02  0.47000000000E+01 0.  1.
         -5    1    1    2    0  502  0.46764198671E+00 -0.23777071097E+01 -0.11966851901E+01  0.54216450982E+01  0.47000000000E+01 0.  1.
<mgrwt>
<rscale>  2 0.52879278E+01</rscale>
<asrwt>0</asrwt>
<pdfrwt beam="1">  1       21 0.39790135E-03 0.52879278E+01</pdfrwt>
<pdfrwt beam="2">  1       21 0.27786032E-02 0.52879278E+01</pdfrwt>
<totfact> 0.23633561E+09</totfact>
</mgrwt>
</event>
<event>
 4    1  0.3999109E+006  0.6281600E+01  0.7546771E-02  0.2380153E+00
         21   -1    0    0  501  502  0.00000000000E+00  0.00000000000E+00  0.12921941725E+02  0.12921941725E+02  0.00000000000E+00 0. -1.
         21   -1    0    0  502  503 -0.00000000000E+00 -0.00000000000E+00 -0.10554714301E+02  0.10554714301E+02  0.00000000000E+00 0. -1.
          5    1    1    2  501    0  0.40697082148E+01  0.89776125341E+00  0.11079296370E+02  0.12736141813E+02  0.47000000000E+01 0. -1.
         -5    1    1    2    0  503 -0.40697082148E+01 -0.89776125341E+00 -0.87120689470E+01  0.10740514213E+02  0.47000000000E+01 0. -1.
<mgrwt>
<rscale>  2 0.62816001E+01</rscale>
<asrwt>0</asrwt>
<pdfrwt beam="1">  1       21 0.19879910E-02 0.62816001E+01</pdfrwt>
<pdfrwt beam="2">  1       21 0.16238022E-02 0.62816001E+01</pdfrwt>
<totfact> 0.61825893E+08</totfact>
</mgrwt>
</event>
<event>
 4    1  0.3999109E+006  0.5144513E+01  0.7546771E-02  0.2542139E+00
         21   -1    0    0  501  502  0.00000000000E+00  0.00000000000E+00  0.90022688453E+02  0.90022688453E+02  0.00000000000E+00 0.  1.
         21   -1    0    0  502  503 -0.00000000000E+00 -0.00000000000E+00 -0.86351786202E+00  0.86351786202E+00  0.00000000000E+00 0.  1.
          5    1    1    2  501    0  0.46709988393E+00  0.20390766741E+01  0.81484887334E+02  0.81647124137E+02  0.47000000000E+01 0.  1.
         -5    1    1    2    0  503 -0.46709988393E+00 -0.20390766741E+01  0.76742832563E+01  0.92390821774E+01  0.47000000000E+01 0.  1.
<mgrwt>
<rscale>  2 0.51445132E+01</rscale>
<asrwt>0</asrwt>
<pdfrwt beam="1">  1       21 0.13849637E-01 0.51445132E+01</pdfrwt>
<pdfrwt beam="2">  1       21 0.13284897E-03 0.51445132E+01</pdfrwt>
<totfact> 0.93630391E+08</totfact>
</mgrwt>
</event>
<event>
 4    1  0.3999109E+006  0.1049148E+02  0.7546771E-02  0.2048050E+00
         21   -1    0    0  501  502  0.00000000000E+00  0.00000000000E+00  0.12720672638E+01  0.12720672638E+01  0.00000000000E+00 0.  1.
         21   -1    0    0  502  503 -0.00000000000E+00 -0.00000000000E+00 -0.87655259447E+02  0.87655259447E+02  0.00000000000E+00 0.  1.
          5    1    1    2  501    0 -0.51091795668E+01 -0.78662265048E+01 -0.38152465847E+02  0.39568698304E+02  0.47000000000E+01 0.  1.
         -5    1    1    2    0  503  0.51091795668E+01  0.78662265048E+01 -0.48230726336E+02  0.49358628407E+02  0.47000000000E+01 0.  1.
<mgrwt>
<rscale>  2 0.10491484E+02</rscale>
<asrwt>0</asrwt>
<pdfrwt beam="1">  1       21 0.19570267E-03 0.10491484E+02</pdfrwt>
<pdfrwt beam="2">  1       21 0.13485424E-01 0.10491484E+02</pdfrwt>
<totfact> 0.93993774E+08</totfact>
</mgrwt>
</event>
<event>
 4    1  0.3999109E+006  0.5074551E+01  0.7546771E-02  0.2554096E+00
         21   -1    0    0  501  502  0.00000000000E+00  0.00000000000E+00  0.10996167677E+03  0.10996167677E+03  0.00000000000E+00 0. -1.
         21   -1    0    0  502  503 -0.00000000000E+00 -0.00000000000E+00 -0.18409341791E+01  0.18409341791E+01  0.00000000000E+00 0.  1.
          5    1    1    2  501    0 -0.19095411197E+01 -0.12132415540E+00  0.10628522621E+03  0.10640629858E+03  0.47000000000E+01 0. -1.
         -5    1    1    2    0  503  0.19095411197E+01  0.12132415540E+00  0.18355163852E+01  0.53963123741E+01  0.47000000000E+01 0.  1.
<mgrwt>
<rscale>  2 0.50745509E+01</rscale>
<asrwt>0</asrwt>
<pdfrwt beam="1">  1       21 0.16917176E-01 0.50745509E+01</pdfrwt>
<pdfrwt beam="2">  1       21 0.28322073E-03 0.50745509E+01</pdfrwt>
<totfact> 0.24440403E+08</totfact>
</mgrwt>
</event>
<event>
 4    1  0.3999109E+006  0.5501889E+01  0.7546771E-02  0.2485144E+00
         21   -1    0    0  501  502  0.00000000000E+00  0.00000000000E+00  0.22584142917E+02  0.22584142917E+02  0.00000000000E+00 0.  1.
         21   -1    0    0  502  503 -0.00000000000E+00 -0.00000000000E+00 -0.17297736664E+01  0.17297736664E+01  0.00000000000E+00 0.  1.
          5    1    1    2  501    0  0.95845597060E+00  0.26948367636E+01  0.46590110678E+01  0.72095192045E+01  0.47000000000E+01 0.  1.
         -5    1    1    2    0  503 -0.95845597060E+00 -0.26948367636E+01  0.16195358183E+02  0.17104397379E+02  0.47000000000E+01 0.  1.
<mgrwt>
<rscale>  2 0.55018890E+01</rscale>
<asrwt>0</asrwt>
<pdfrwt beam="1">  1       21 0.34744833E-02 0.55018890E+01</pdfrwt>
<pdfrwt beam="2">  1       21 0.26611904E-03 0.55018890E+01</pdfrwt>
<totfact> 0.30800257E+09</totfact>
</mgrwt>
</event>
<event>
 4    1  0.3999109E+006  0.5010198E+01  0.7546771E-02  0.2565348E+00
         21   -1    0    0  503  502  0.00000000000E+00  0.00000000000E+00  0.19189461588E+04  0.19189461588E+04  0.00000000000E+00 0.  1.
         21   -1    0    0  501  503 -0.00000000000E+00 -0.00000000000E+00 -0.26762331263E-01  0.26762331263E-01  0.00000000000E+00 0.  1.
          5    1    1    2  501    0  0.13306794592E+01  0.11141720203E+01  0.27343753900E+03  0.27348343610E+03  0.47000000000E+01 0.  1.
         -5    1    1    2    0  502 -0.13306794592E+01 -0.11141720203E+01  0.16454818575E+04  0.16454894850E+04  0.47000000000E+01 0.  1.
<mgrwt>
<rscale>  2 0.50101983E+01</rscale>
<asrwt>0</asrwt>
<pdfrwt beam="1">  1       21 0.29511232E+00 0.50101983E+01</pdfrwt>
<pdfrwt beam="2">  1       21 0.41188187E-05 0.50101983E+01</pdfrwt>
<totfact> 0.29346147E+08</totfact>
</mgrwt>
</event>
<event>
 4    1  0.3999109E+006  0.6191743E+01  0.7546771E-02  0.2391117E+00
         21   -1    0    0  503  502  0.00000000000E+00  0.00000000000E+00  0.16372650428E+00  0.16372650428E+00  0.00000000000E+00 0. -1.
         21   -1    0    0  501  503 -0.00000000000E+00 -0.00000000000E+00 -0.23653904160E+03  0.23653904160E+03  0.00000000000E+00 0. -1.
          5    1    1    2  501    0 -0.85547333023E-01  0.40299335055E+01 -0.13006475513E+03  0.13021205094E+03  0.47000000000E+01 0.  1.
         -5    1    1    2    0  502  0.85547333023E-01 -0.40299335055E+01 -0.10631055997E+03  0.10649071717E+03  0.47000000000E+01 0.  1.
<mgrwt>
<rscale>  2 0.61917431E+01</rscale>
<asrwt>0</asrwt>
<pdfrwt beam="1">  1       21 0.25188644E-04 0.61917431E+01</pdfrwt>
<pdfrwt beam="2">  1       21 0.36390692E-01 0.61917431E+01</pdfrwt>
<totfact> 0.20796088E+09</totfact>
</mgrwt>
</event>
<event>
 4    1  0.3999109E+006  0.5779901E+01  0.7546771E-02  0.2444981E+00
         21   -1    0    0  501  502  0.00000000000E+00  0.00000000000E+00  0.20962870590E+02  0.20962870590E+02  0.00000000000E+00 0.  1.
         21   -1    0    0  502  503 -0.00000000000E+00 -0.00000000000E+00 -0.17372356415E+01  0.17372356415E+01  0.00000000000E+00 0. -1.
          5    1    1    2  501    0 -0.29508908268E+01 -0.16153953563E+01  0.12875988962E+02  0.14113764578E+02  0.47000000000E+01 0.  1.
         -5    1    1    2    0  503  0.29508908268E+01  0.16153953563E+01  0.63496459871E+01  0.85863416535E+01  0.47000000000E+01 0. -1.
<mgrwt>
<rscale>  2 0.57799013E+01</rscale>
<asrwt>0</asrwt>
<pdfrwt beam="1">  1       21 0.32250568E-02 0.57799013E+01</pdfrwt>
<pdfrwt beam="2">  1       21 0.26726704E-03 0.57799013E+01</pdfrwt>
<totfact> 0.35697454E+09</totfact>
</mgrwt>
</event>
<event>
 4    1  0.3999109E+006  0.5695341E+01  0.7546771E-02  0.2456846E+00
         21   -1    0    0  503  502  0.00000000000E+00  0.00000000000E+00  0.89788502236E+00  0.89788502236E+00  0.00000000000E+00 0. -1.
         21   -1    0    0  501  503 -0.00000000000E+00 -0.00000000000E+00 -0.76497619427E+02  0.76497619427E+02  0.00000000000E+00 0. -1.
          5    1    1    2  501    0  0.47868472478E+00 -0.31808449307E+01 -0.65912424178E+02  0.66158027287E+02  0.47000000000E+01 0. -1.
         -5    1    1    2    0  502 -0.47868472478E+00  0.31808449307E+01 -0.96873102268E+01  0.11237477162E+02  0.47000000000E+01 0. -1.
<mgrwt>
<rscale>  2 0.56953414E+01</rscale>
<asrwt>0</asrwt>
<pdfrwt beam="1">  1       21 0.13813615E-03 0.56953414E+01</pdfrwt>
<pdfrwt beam="2">  1       21 0.11768865E-01 0.56953414E+01</pdfrwt>
<totfact> 0.12474602E+09</totfact>
</mgrwt>
</event>
<event>
 4    1  0.3999109E+006  0.5306481E+01  0.7546771E-02  0.2515497E+00
         21   -1    0    0  501  502  0.00000000000E+00  0.00000000000E+00  0.93856344652E-01  0.93856344652E-01  0.00000000000E+00 0. -1.
         21   -1    0    0  502  503 -0.00000000000E+00 -0.00000000000E+00 -0.41122857753E+03  0.41122857753E+03  0.00000000000E+00 0. -1.
          5    1    1    2  501    0 -0.11330015413E+01  0.21874754239E+01 -0.98617378055E+02  0.98760042506E+02  0.47000000000E+01 0. -1.
         -5    1    1    2    0  503  0.11330015413E+01 -0.21874754239E+01 -0.31251734313E+03  0.31256239137E+03  0.47000000000E+01 0. -1.
<mgrwt>
<rscale>  2 0.53064811E+01</rscale>
<asrwt>0</asrwt>
<pdfrwt beam="1">  1       21 0.14439282E-04 0.53064811E+01</pdfrwt>
<pdfrwt beam="2">  1       21 0.63266619E-01 0.53064811E+01</pdfrwt>
<totfact> 0.14394178E+09</totfact>
</mgrwt>
</event>
<event>
 4    1  0.3999109E+006  0.4815235E+01  0.7546771E-02  0.2601013E+00
         21   -1    0    0  501  502  0.00000000000E+00  0.00000000000E+00  0.34693502873E+02  0.34693502873E+02  0.00000000000E+00 0.  1.
         21   -1    0    0  502  503 -0.00000000000E+00 -0.00000000000E+00 -0.70920688829E+00  0.70920688829E+00  0.00000000000E+00 0.  1.
          5    1    1    2  501    0  0.45675309303E+00 -0.94226514675E+00  0.21242186907E+02  0.21781115481E+02  0.47000000000E+01 0.  1.
         -5    1    1    2    0  503 -0.45675309303E+00  0.94226514675E+00  0.12742109078E+02  0.13621594281E+02  0.47000000000E+01 0.  1.
<mgrwt>
<rscale>  2 0.48152349E+01</rscale>
<asrwt>0</asrwt>
<pdfrwt beam="1">  1       21 0.53374607E-02 0.48152349E+01</pdfrwt>
<pdfrwt beam="2">  1       21 0.10910878E-03 0.48152349E+01</pdfrwt>
<totfact> 0.47732252E+09</totfact>
</mgrwt>
</event>
<event>
 4    1  0.3999109E+006  0.6174915E+01  0.7546771E-02  0.2393199E+00
         21   -1    0    0  503  502  0.00000000000E+00  0.00000000000E+00  0.62385149361E+01  0.62385149361E+01  0.00000000000E+00 0. -1.
         21   -1    0    0  501  503 -0.00000000000E+00 -0.00000000000E+00 -0.67986101110E+01  0.67986101110E+01  0.00000000000E+00 0. -1.
          5    1    1    2  501    0  0.40041964989E+01 -0.77363630961E-01 -0.23516597451E+01  0.66075622048E+01  0.47000000000E+01 0. -1.
         -5    1    1    2    0  502 -0.40041964989E+01  0.77363630961E-01  0.17915645702E+01  0.64295628422E+01  0.47000000000E+01 0. -1.
<mgrwt>
<rscale>  2 0.61749150E+01</rscale>
<asrwt>0</asrwt>
<pdfrwt beam="1">  1       21 0.95977153E-03 0.61749150E+01</pdfrwt>
<pdfrwt beam="2">  1       21 0.10459400E-02 0.61749150E+01</pdfrwt>
<totfact> 0.32199423E+09</totfact>
</mgrwt>
</event>
<event>
 4    1  0.3999109E+006  0.4791457E+01  0.7546771E-02  0.2605534E+00
         21   -1    0    0  503  502  0.00000000000E+00  0.00000000000E+00  0.11679500609E+00  0.11679500609E+00  0.00000000000E+00 0. -1.
         21   -1    0    0  501  503 -0.00000000000E+00 -0.00000000000E+00 -0.83002382583E+03  0.83002382583E+03  0.00000000000E+00 0. -1.
          5    1    1    2  501    0  0.89657884614E+00 -0.25338070984E+00 -0.77755941590E+03  0.77757417865E+03  0.47000000000E+01 0. -1.
         -5    1    1    2    0  502 -0.89657884614E+00  0.25338070984E+00 -0.52347614924E+02  0.52566442181E+02  0.47000000000E+01 0. -1.
<mgrwt>
<rscale>  2 0.47914565E+01</rscale>
<asrwt>0</asrwt>
<pdfrwt beam="1">  1       21 0.17969133E-04 0.47914565E+01</pdfrwt>
<pdfrwt beam="2">  1       21 0.12769121E+00 0.47914565E+01</pdfrwt>
<totfact> 0.25130787E+08</totfact>
</mgrwt>
</event>
<event>
 4    1  0.3999109E+006  0.5335408E+01  0.7546771E-02  0.2510884E+00
         21   -1    0    0  503  502  0.00000000000E+00  0.00000000000E+00  0.45547917088E+01  0.45547917088E+01  0.00000000000E+00 0.  1.
         21   -1    0    0  501  503 -0.00000000000E+00 -0.00000000000E+00 -0.18487155053E+02  0.18487155053E+02  0.00000000000E+00 0.  1.
          5    1    1    2  501    0  0.19255821475E+01  0.16336204046E+01 -0.16339594318E+02  0.17188627773E+02  0.47000000000E+01 0.  1.
         -5    1    1    2    0  502 -0.19255821475E+01 -0.16336204046E+01  0.24072309734E+01  0.58533189895E+01  0.47000000000E+01 0.  1.
<mgrwt>
<rscale>  2 0.53354083E+01</rscale>
<asrwt>0</asrwt>
<pdfrwt beam="1">  1       21 0.70073718E-03 0.53354083E+01</pdfrwt>
<pdfrwt beam="2">  1       21 0.28441777E-02 0.53354083E+01</pdfrwt>
<totfact> 0.10553091E+09</totfact>
</mgrwt>
</event>
<event>
 4    1  0.3999109E+006  0.4958484E+01  0.7546771E-02  0.2574572E+00
         21   -1    0    0  501  502  0.00000000000E+00  0.00000000000E+00  0.86141525739E+02  0.86141525739E+02  0.00000000000E+00 0.  1.
         21   -1    0    0  502  503 -0.00000000000E+00 -0.00000000000E+00 -0.44389754085E+00  0.44389754085E+00  0.00000000000E+00 0. -1.
          5    1    1    2  501    0 -0.13369806845E+01 -0.84204598064E+00  0.68716440085E+02  0.68895106478E+02  0.47000000000E+01 0.  1.
         -5    1    1    2    0  503  0.13369806845E+01  0.84204598064E+00  0.16981188114E+02  0.17690316801E+02  0.47000000000E+01 0. -1.
<mgrwt>
<rscale>  2 0.49584835E+01</rscale>
<asrwt>0</asrwt>
<pdfrwt beam="1">  1       21 0.13252529E-01 0.49584835E+01</pdfrwt>
<pdfrwt beam="2">  1       21 0.68291998E-04 0.49584835E+01</pdfrwt>
<totfact> 0.23460518E+09</totfact>
</mgrwt>
</event>
<event>
 4    1  0.3999109E+006  0.1314089E+02  0.7546771E-02  0.1930741E+00
         21   -1    0    0  503  502  0.00000000000E+00  0.00000000000E+00  0.14735670712E+04  0.14735670712E+04  0.00000000000E+00 0. -1.
         21   -1    0    0  501  503 -0.00000000000E+00 -0.00000000000E+00 -0.11887829161E+00  0.11887829161E+00  0.00000000000E+00 0.  1.
          5    1    1    2  501    0  0.31029935872E+01 -0.11872840731E+02  0.64883563062E+03  0.64896868836E+03  0.47000000000E+01 0.  1.
         -5    1    1    2    0  502 -0.31029935872E+01  0.11872840731E+02  0.82461256229E+03  0.82471726113E+03  0.47000000000E+01 0. -1.
<mgrwt>
<rscale>  2 0.13140887E+02</rscale>
<asrwt>0</asrwt>
<pdfrwt beam="1">  1       21 0.22668800E+00 0.13140887E+02</pdfrwt>
<pdfrwt beam="2">  1       21 0.18290148E-04 0.13140887E+02</pdfrwt>
<totfact> 0.10805262E+08</totfact>
</mgrwt>
</event>
<event>
 4    1  0.3999109E+006  0.5755092E+01  0.7546771E-02  0.2448432E+00
         21   -1    0    0  503  502  0.00000000000E+00  0.00000000000E+00  0.87418296309E+01  0.87418296309E+01  0.00000000000E+00 0. -1.
         21   -1    0    0  501  503 -0.00000000000E+00 -0.00000000000E+00 -0.50958737462E+01  0.50958737462E+01  0.00000000000E+00 0. -1.
          5    1    1    2  501    0  0.32498643835E+01 -0.68517902198E+00 -0.16811010491E+01  0.59955975133E+01  0.47000000000E+01 0. -1.
         -5    1    1    2    0  502 -0.32498643835E+01  0.68517902198E+00  0.53270569339E+01  0.78421058639E+01  0.47000000000E+01 0. -1.
<mgrwt>
<rscale>  2 0.57550924E+01</rscale>
<asrwt>0</asrwt>
<pdfrwt beam="1">  1       21 0.13448969E-02 0.57550924E+01</pdfrwt>
<pdfrwt beam="2">  1       21 0.78398058E-03 0.57550924E+01</pdfrwt>
<totfact> 0.28146983E+09</totfact>
</mgrwt>
</event>
<event>
 4    1  0.3999109E+006  0.9614164E+01  0.7546771E-02  0.2097635E+00
         21   -1    0    0  501  502  0.00000000000E+00  0.00000000000E+00  0.20597302778E+01  0.20597302778E+01  0.00000000000E+00 0. -1.
         21   -1    0    0  502  503 -0.00000000000E+00 -0.00000000000E+00 -0.15235896561E+03  0.15235896561E+03  0.00000000000E+00 0.  1.
          5    1    1    2  501    0  0.41646655279E+01  0.72799530802E+01 -0.10300213265E+02  0.14089944965E+02  0.47000000000E+01 0. -1.
         -5    1    1    2    0  503 -0.41646655279E+01 -0.72799530802E+01 -0.13999902207E+03  0.14032875092E+03  0.47000000000E+01 0.  1.
<mgrwt>
<rscale>  2 0.96141643E+01</rscale>
<asrwt>0</asrwt>
<pdfrwt beam="1">  1       21 0.31688158E-03 0.96141643E+01</pdfrwt>
<pdfrwt beam="2">  1       21 0.23439841E-01 0.96141643E+01</pdfrwt>
<totfact> 0.18277557E+08</totfact>
</mgrwt>
</event>
<event>
 4    1  0.3999109E+006  0.6002943E+01  0.7546771E-02  0.2415041E+00
         21   -1    0    0  501  502  0.00000000000E+00  0.00000000000E+00  0.90793233625E+01  0.90793233625E+01  0.00000000000E+00 0. -1.
         21   -1    0    0  502  503 -0.00000000000E+00 -0.00000000000E+00 -0.75417190907E+01  0.75417190907E+01  0.00000000000E+00 0. -1.
          5    1    1    2  501    0  0.36725828251E+01 -0.67636123352E+00  0.64888005052E+01  0.88396753968E+01  0.47000000000E+01 0. -1.
         -5    1    1    2    0  503 -0.36725828251E+01  0.67636123352E+00 -0.49511962334E+01  0.77813670564E+01  0.47000000000E+01 0. -1.
<mgrwt>
<rscale>  2 0.60029434E+01</rscale>
<asrwt>0</asrwt>
<pdfrwt beam="1">  1       21 0.13968190E-02 0.60029434E+01</pdfrwt>
<pdfrwt beam="2">  1       21 0.11602645E-02 0.60029434E+01</pdfrwt>
<totfact> 0.15938515E+09</totfact>
</mgrwt>
</event>
<event>
 4    1  0.3999109E+006  0.7978818E+01  0.7546771E-02  0.2212337E+00
         21   -1    0    0  503  502  0.00000000000E+00  0.00000000000E+00  0.12355781374E+02  0.12355781374E+02  0.00000000000E+00 0. -1.
         21   -1    0    0  501  503 -0.00000000000E+00 -0.00000000000E+00 -0.55698579413E+01  0.55698579413E+01  0.00000000000E+00 0.  1.
          5    1    1    2  501    0 -0.36197686654E+01 -0.53356166597E+01  0.58467986629E+01  0.98917432707E+01  0.47000000000E+01 0. -1.
         -5    1    1    2    0  502  0.36197686654E+01  0.53356166597E+01  0.93912477028E+00  0.80338960451E+01  0.47000000000E+01 0.  1.
<mgrwt>
<rscale>  2 0.79788176E+01</rscale>
<asrwt>0</asrwt>
<pdfrwt beam="1">  1       21 0.19008894E-02 0.79788176E+01</pdfrwt>
<pdfrwt beam="2">  1       21 0.85690122E-03 0.79788176E+01</pdfrwt>
<totfact> 0.19645299E+09</totfact>
</mgrwt>
</event>
<event>
 4    1  0.3999109E+006  0.8257278E+01  0.7546771E-02  0.2190262E+00
         21   -1    0    0  501  502  0.00000000000E+00  0.00000000000E+00  0.10279320589E+03  0.10279320589E+03  0.00000000000E+00 0.  1.
         21   -1    0    0  502  503 -0.00000000000E+00 -0.00000000000E+00 -0.96350415734E+00  0.96350415734E+00  0.00000000000E+00 0. -1.
          5    1    1    2  501    0  0.61889101640E+01 -0.27910640622E+01  0.79872836984E+02  0.80298522624E+02  0.47000000000E+01 0.  1.
         -5    1    1    2    0  503 -0.61889101640E+01  0.27910640622E+01  0.21956864745E+02  0.23458187420E+02  0.47000000000E+01 0. -1.
<mgrwt>
<rscale>  2 0.82572785E+01</rscale>
<asrwt>0</asrwt>
<pdfrwt beam="1">  1       21 0.15814331E-01 0.82572785E+01</pdfrwt>
<pdfrwt beam="2">  1       21 0.14823149E-03 0.82572785E+01</pdfrwt>
<totfact> 0.92859374E+08</totfact>
</mgrwt>
</event>
<event>
 4    1  0.3999109E+006  0.6562449E+01  0.7546771E-02  0.2347504E+00
         21   -1    0    0  501  502  0.00000000000E+00  0.00000000000E+00  0.27518500667E+01  0.27518500667E+01  0.00000000000E+00 0. -1.
         21   -1    0    0  502  503 -0.00000000000E+00 -0.00000000000E+00 -0.48579945597E+02  0.48579945597E+02  0.00000000000E+00 0. -1.
          5    1    1    2  501    0  0.13097375667E+01 -0.43886585213E+01 -0.17827984100E+01  0.68003019257E+01  0.47000000000E+01 0. -1.
         -5    1    1    2    0  503 -0.13097375667E+01  0.43886585213E+01 -0.44045297120E+02  0.44531493737E+02  0.47000000000E+01 0. -1.
<mgrwt>
<rscale>  2 0.65624489E+01</rscale>
<asrwt>0</asrwt>
<pdfrwt beam="1">  1       21 0.42336151E-03 0.65624489E+01</pdfrwt>
<pdfrwt beam="2">  1       21 0.74738384E-02 0.65624489E+01</pdfrwt>
<totfact> 0.60315612E+08</totfact>
</mgrwt>
</event>
<event>
 4    1  0.3999109E+006  0.5064274E+01  0.7546771E-02  0.2555877E+00
         21   -1    0    0  501  502  0.00000000000E+00  0.00000000000E+00  0.84030480335E+00  0.84030480335E+00  0.00000000000E+00 0. -1.
         21   -1    0    0  502  503 -0.00000000000E+00 -0.00000000000E+00 -0.31687224061E+02  0.31687224061E+02  0.00000000000E+00 0. -1.
          5    1    1    2  501    0  0.16016587629E+00  0.18791522968E+01 -0.18543691825E+02  0.19222782654E+02  0.47000000000E+01 0. -1.
         -5    1    1    2    0  503 -0.16016587629E+00 -0.18791522968E+01 -0.12303227433E+02  0.13304746210E+02  0.47000000000E+01 0. -1.
<mgrwt>
<rscale>  2 0.50642735E+01</rscale>
<asrwt>0</asrwt>
<pdfrwt beam="1">  1       21 0.12927768E-03 0.50642735E+01</pdfrwt>
<pdfrwt beam="2">  1       21 0.48749570E-02 0.50642735E+01</pdfrwt>
<totfact> 0.45844076E+09</totfact>
</mgrwt>
</event>
<event>
 4    1  0.3999109E+006  0.6157494E+01  0.7546771E-02  0.2395366E+00
         21   -1    0    0  503  502  0.00000000000E+00  0.00000000000E+00  0.15487169440E+02  0.15487169440E+02  0.00000000000E+00 0.  1.
         21   -1    0    0  501  503 -0.00000000000E+00 -0.00000000000E+00 -0.78012628422E+01  0.78012628422E+01  0.00000000000E+00 0. -1.
          5    1    1    2  501    0 -0.37682218016E-02 -0.39780287109E+01 -0.58026965550E+01  0.84608518444E+01  0.47000000000E+01 0. -1.
         -5    1    1    2    0  502  0.37682218016E-02  0.39780287109E+01  0.13488603152E+02  0.14827580437E+02  0.47000000000E+01 0.  1.
<mgrwt>
<rscale>  2 0.61574935E+01</rscale>
<asrwt>0</asrwt>
<pdfrwt beam="1">  1       21 0.23826414E-02 0.61574935E+01</pdfrwt>
<pdfrwt beam="2">  1       21 0.12001943E-02 0.61574935E+01</pdfrwt>
<totfact> 0.72125971E+08</totfact>
</mgrwt>
</event>
<event>
 4    1  0.3999109E+006  0.5570647E+01  0.7546771E-02  0.2474896E+00
         21   -1    0    0  501  502  0.00000000000E+00  0.00000000000E+00  0.18582353520E+01  0.18582353520E+01  0.00000000000E+00 0. -1.
         21   -1    0    0  502  503 -0.00000000000E+00 -0.00000000000E+00 -0.28041414535E+02  0.28041414535E+02  0.00000000000E+00 0. -1.
          5    1    1    2  501    0  0.29837410402E+01  0.19848381803E+00 -0.35839189473E+01  0.66239400240E+01  0.47000000000E+01 0. -1.
         -5    1    1    2    0  503 -0.29837410402E+01 -0.19848381803E+00 -0.22599260235E+02  0.23275709863E+02  0.47000000000E+01 0. -1.
<mgrwt>
<rscale>  2 0.55706469E+01</rscale>
<asrwt>0</asrwt>
<pdfrwt beam="1">  1       21 0.28588239E-03 0.55706469E+01</pdfrwt>
<pdfrwt beam="2">  1       21 0.43140634E-02 0.55706469E+01</pdfrwt>
<totfact> 0.20600744E+09</totfact>
</mgrwt>
</event>
<event>
 4    1  0.3999109E+006  0.5108161E+01  0.7546771E-02  0.2548317E+00
         21   -1    0    0  501  502  0.00000000000E+00  0.00000000000E+00  0.28807651213E+01  0.28807651213E+01  0.00000000000E+00 0.  1.
         21   -1    0    0  502  503 -0.00000000000E+00 -0.00000000000E+00 -0.12728310214E+02  0.12728310214E+02  0.00000000000E+00 0.  1.
          5    1    1    2  501    0  0.36475343506E+00 -0.19672996328E+01 -0.73268535975E+00  0.51604399764E+01  0.47000000000E+01 0.  1.
         -5    1    1    2    0  503 -0.36475343506E+00  0.19672996328E+01 -0.91148597334E+01  0.10448635359E+02  0.47000000000E+01 0.  1.
<mgrwt>
<rscale>  2 0.51081614E+01</rscale>
<asrwt>0</asrwt>
<pdfrwt beam="1">  1       21 0.44319463E-03 0.51081614E+01</pdfrwt>
<pdfrwt beam="2">  1       21 0.19582016E-02 0.51081614E+01</pdfrwt>
<totfact> 0.32462810E+09</totfact>
</mgrwt>
</event>
<event>
 4    1  0.3999109E+006  0.5618463E+01  0.7546771E-02  0.2467894E+00
         21   -1    0    0  503  502  0.00000000000E+00  0.00000000000E+00  0.57362690200E+02  0.57362690200E+02  0.00000000000E+00 0.  1.
         21   -1    0    0  501  503 -0.00000000000E+00 -0.00000000000E+00 -0.12683414053E+01  0.12683414053E+01  0.00000000000E+00 0. -1.
          5    1    1    2  501    0  0.79070708002E+00 -0.29752149237E+01  0.59898964666E+01  0.82125502257E+01  0.47000000000E+01 0. -1.
         -5    1    1    2    0  502 -0.79070708002E+00  0.29752149237E+01  0.50104452328E+02  0.50418481380E+02  0.47000000000E+01 0.  1.
<mgrwt>
<rscale>  2 0.56184626E+01</rscale>
<asrwt>0</asrwt>
<pdfrwt beam="1">  1       21 0.88250273E-02 0.56184626E+01</pdfrwt>
<pdfrwt beam="2">  1       21 0.19512949E-03 0.56184626E+01</pdfrwt>
<totfact> 0.12017222E+09</totfact>
</mgrwt>
</event>
<event>
 4    1  0.3999109E+006  0.7993200E+01  0.7546771E-02  0.2211167E+00
         21   -1    0    0  503  502  0.00000000000E+00  0.00000000000E+00  0.11208253727E+01  0.11208253727E+01  0.00000000000E+00 0. -1.
         21   -1    0    0  501  503 -0.00000000000E+00 -0.00000000000E+00 -0.82100567074E+02  0.82100567074E+02  0.00000000000E+00 0.  1.
          5    1    1    2  501    0  0.25809880380E+01 -0.59278789015E+01 -0.63495877478E+02  0.63997013245E+02  0.47000000000E+01 0.  1.
         -5    1    1    2    0  502 -0.25809880380E+01  0.59278789015E+01 -0.17483864223E+02  0.19224379201E+02  0.47000000000E+01 0. -1.
<mgrwt>
<rscale>  2 0.79932001E+01</rscale>
<asrwt>0</asrwt>
<pdfrwt beam="1">  1       21 0.17243461E-03 0.79932001E+01</pdfrwt>
<pdfrwt beam="2">  1       21 0.12630861E-01 0.79932001E+01</pdfrwt>
<totfact> 0.10595343E+09</totfact>
</mgrwt>
</event>
<event>
 4    1  0.3999109E+006  0.5353442E+01  0.7546771E-02  0.2508030E+00
         21   -1    0    0  501  502  0.00000000000E+00  0.00000000000E+00  0.84709964005E+03  0.84709964005E+03  0.00000000000E+00 0. -1.
         21   -1    0    0  502  503 -0.00000000000E+00 -0.00000000000E+00 -0.51063436162E-01  0.51063436162E-01  0.00000000000E+00 0. -1.
          5    1    1    2  501    0  0.18022544192E+01  0.18224226525E+01  0.66957939268E+03  0.66960079334E+03  0.47000000000E+01 0. -1.
         -5    1    1    2    0  503 -0.18022544192E+01 -0.18224226525E+01  0.17746918394E+03  0.17754991014E+03  0.47000000000E+01 0. -1.
<mgrwt>
<rscale>  2 0.53534424E+01</rscale>
<asrwt>0</asrwt>
<pdfrwt beam="1">  1       21 0.13031177E+00 0.53534424E+01</pdfrwt>
<pdfrwt beam="2">  1       21 0.78565917E-05 0.53534424E+01</pdfrwt>
<totfact> 0.78174325E+08</totfact>
</mgrwt>
</event>
<event>
 4    1  0.3999109E+006  0.4915502E+01  0.7546771E-02  0.2582365E+00
         21   -1    0    0  501  502  0.00000000000E+00  0.00000000000E+00  0.52022831846E+00  0.52022831846E+00  0.00000000000E+00 0.  1.
         21   -1    0    0  502  503 -0.00000000000E+00 -0.00000000000E+00 -0.28275372713E+03  0.28275372713E+03  0.00000000000E+00 0.  1.
          5    1    1    2  501    0  0.12286414708E+01 -0.75006759125E+00 -0.11633948553E+02  0.12629763267E+02  0.47000000000E+01 0.  1.
         -5    1    1    2    0  503 -0.12286414708E+01  0.75006759125E+00 -0.27059955026E+03  0.27064419218E+03  0.47000000000E+01 0.  1.
<mgrwt>
<rscale>  2 0.49155021E+01</rscale>
<asrwt>0</asrwt>
<pdfrwt beam="1">  1       21 0.80035024E-04 0.49155021E+01</pdfrwt>
<pdfrwt beam="2">  1       21 0.43500629E-01 0.49155021E+01</pdfrwt>
<totfact> 0.27367441E+08</totfact>
</mgrwt>
</event>
<event>
 4    1  0.3999109E+006  0.5362430E+01  0.7546771E-02  0.2506614E+00
         21   -1    0    0  503  502  0.00000000000E+00  0.00000000000E+00  0.71280678694E+00  0.71280678694E+00  0.00000000000E+00 0. -1.
         21   -1    0    0  501  503 -0.00000000000E+00 -0.00000000000E+00 -0.80236091855E+03  0.80236091855E+03  0.00000000000E+00 0. -1.
          5    1    1    2  501    0 -0.46281914594E-01  0.25813775968E+01 -0.79213642360E+03  0.79215457409E+03  0.47000000000E+01 0. -1.
         -5    1    1    2    0  502  0.46281914594E-01 -0.25813775968E+01 -0.95116881607E+01  0.10919151248E+02  0.47000000000E+01 0. -1.
<mgrwt>
<rscale>  2 0.53624297E+01</rscale>
<asrwt>0</asrwt>
<pdfrwt beam="1">  1       21 0.10966298E-03 0.53624297E+01</pdfrwt>
<pdfrwt beam="2">  1       21 0.12343970E+00 0.53624297E+01</pdfrwt>
<totfact> 0.26374251E+07</totfact>
</mgrwt>
</event>
<event>
 4    1  0.3999109E+006  0.4700855E+01  0.7546771E-02  0.2623125E+00
         21   -1    0    0  501  502  0.00000000000E+00  0.00000000000E+00  0.96102158722E+00  0.96102158722E+00  0.00000000000E+00 0. -1.
         21   -1    0    0  502  503 -0.00000000000E+00 -0.00000000000E+00 -0.76122585422E+02  0.76122585422E+02  0.00000000000E+00 0. -1.
          5    1    1    2  501    0  0.19334134544E-01  0.87517879839E-01 -0.53820990710E+01  0.71459795409E+01  0.47000000000E+01 0. -1.
         -5    1    1    2    0  503 -0.19334134544E-01 -0.87517879839E-01 -0.69779464764E+02  0.69937627468E+02  0.47000000000E+01 0. -1.
<mgrwt>
<rscale>  2 0.47008545E+01</rscale>
<asrwt>0</asrwt>
<pdfrwt beam="1">  1       21 0.14784948E-03 0.47008545E+01</pdfrwt>
<pdfrwt beam="2">  1       21 0.11711167E-01 0.47008545E+01</pdfrwt>
<totfact> 0.96608362E+08</totfact>
</mgrwt>
</event>
<event>
 4    1  0.3999109E+006  0.8188427E+01  0.7546771E-02  0.2195608E+00
         21   -1    0    0  501  502  0.00000000000E+00  0.00000000000E+00  0.56931225204E+01  0.56931225204E+01  0.00000000000E+00 0.  1.
         21   -1    0    0  502  503 -0.00000000000E+00 -0.00000000000E+00 -0.11784649041E+02  0.11784649041E+02  0.00000000000E+00 0. -1.
          5    1    1    2  501    0 -0.66244445899E+01 -0.10378217024E+01 -0.32620852324E+01  0.88142804627E+01  0.47000000000E+01 0. -1.
         -5    1    1    2    0  503  0.66244445899E+01  0.10378217024E+01 -0.28294412877E+01  0.86634910983E+01  0.47000000000E+01 0.  1.
<mgrwt>
<rscale>  2 0.81884272E+01</rscale>
<asrwt>0</asrwt>
<pdfrwt beam="1">  1       21 0.87586500E-03 0.81884272E+01</pdfrwt>
<pdfrwt beam="2">  1       21 0.18130229E-02 0.81884272E+01</pdfrwt>
<totfact> 0.20772992E+09</totfact>
</mgrwt>
</event>
<event>
 4    1  0.3999109E+006  0.6722373E+01  0.7546771E-02  0.2329927E+00
         21   -1    0    0  503  502  0.00000000000E+00  0.00000000000E+00  0.10954255208E+02  0.10954255208E+02  0.00000000000E+00 0.  1.
         21   -1    0    0  501  503 -0.00000000000E+00 -0.00000000000E+00 -0.50296614616E+01  0.50296614616E+01  0.00000000000E+00 0. -1.
          5    1    1    2  501    0 -0.47834487383E+01  0.46788420650E+00 -0.42645154583E+00  0.67358858648E+01  0.47000000000E+01 0.  1.
         -5    1    1    2    0  502  0.47834487383E+01 -0.46788420650E+00  0.63510452923E+01  0.92480308049E+01  0.47000000000E+01 0.  1.
<mgrwt>
<rscale>  2 0.67223729E+01</rscale>
<asrwt>0</asrwt>
<pdfrwt beam="1">  1       21 0.16852700E-02 0.67223729E+01</pdfrwt>
<pdfrwt beam="2">  1       21 0.77379408E-03 0.67223729E+01</pdfrwt>
<totfact> 0.23738887E+09</totfact>
</mgrwt>
</event>
<event>
 4    1  0.3999109E+006  0.6503416E+01  0.7546771E-02  0.2354172E+00
         21   -1    0    0  501  502  0.00000000000E+00  0.00000000000E+00  0.11338366932E+02  0.11338366932E+02  0.00000000000E+00 0. -1.
         21   -1    0    0  502  503 -0.00000000000E+00 -0.00000000000E+00 -0.40830527597E+01  0.40830527597E+01  0.00000000000E+00 0.  1.
          5    1    1    2  501    0  0.25547721167E+01 -0.36983187373E+01  0.58943680359E+01  0.87771291772E+01  0.47000000000E+01 0. -1.
         -5    1    1    2    0  503 -0.25547721167E+01  0.36983187373E+01  0.13609461359E+01  0.66442905141E+01  0.47000000000E+01 0.  1.
<mgrwt>
<rscale>  2 0.65034162E+01</rscale>
<asrwt>0</asrwt>
<pdfrwt beam="1">  1       21 0.17443641E-02 0.65034162E+01</pdfrwt>
<pdfrwt beam="2">  1       21 0.62816197E-03 0.65034162E+01</pdfrwt>
<totfact> 0.29487653E+09</totfact>
</mgrwt>
</event>
<event>
 4    1  0.3999109E+006  0.5137661E+01  0.7546771E-02  0.2543297E+00
         21   -1    0    0  503  502  0.00000000000E+00  0.00000000000E+00  0.29882027290E+02  0.29882027290E+02  0.00000000000E+00 0.  1.
         21   -1    0    0  501  503 -0.00000000000E+00 -0.00000000000E+00 -0.14020656467E+01  0.14020656467E+01  0.00000000000E+00 0.  1.
          5    1    1    2  501    0 -0.20556562971E+01 -0.28254855505E+00  0.47255167481E+01  0.69804057930E+01  0.47000000000E+01 0.  1.
         -5    1    1    2    0  502  0.20556562971E+01  0.28254855505E+00  0.23754444895E+02  0.24303687143E+02  0.47000000000E+01 0.  1.
<mgrwt>
<rscale>  2 0.51376606E+01</rscale>
<asrwt>0</asrwt>
<pdfrwt beam="1">  1       21 0.45972345E-02 0.51376606E+01</pdfrwt>
<pdfrwt beam="2">  1       21 0.21570243E-03 0.51376606E+01</pdfrwt>
<totfact> 0.25492723E+09</totfact>
</mgrwt>
</event>
<event>
 4    1  0.3999109E+006  0.4829292E+01  0.7546771E-02  0.2598358E+00
         21   -1    0    0  503  502  0.00000000000E+00  0.00000000000E+00  0.60691315315E+01  0.60691315315E+01  0.00000000000E+00 0. -1.
         21   -1    0    0  501  503 -0.00000000000E+00 -0.00000000000E+00 -0.64378818160E+02  0.64378818160E+02  0.00000000000E+00 0. -1.
          5    1    1    2  501    0  0.10951322939E+01  0.18096080171E+00 -0.63311395251E+02  0.63495313451E+02  0.47000000000E+01 0. -1.
         -5    1    1    2    0  502 -0.10951322939E+01 -0.18096080171E+00  0.50017086225E+01  0.69526362408E+01  0.47000000000E+01 0. -1.
<mgrwt>
<rscale>  2 0.48292920E+01</rscale>
<asrwt>0</asrwt>
<pdfrwt beam="1">  1       21 0.93371253E-03 0.48292920E+01</pdfrwt>
<pdfrwt beam="2">  1       21 0.99044337E-02 0.48292920E+01</pdfrwt>
<totfact> 0.10395595E+08</totfact>
</mgrwt>
</event>
<event>
 4    1  0.3999109E+006  0.5768233E+01  0.7546771E-02  0.2446601E+00
         21   -1    0    0  501  502  0.00000000000E+00  0.00000000000E+00  0.31012048672E+02  0.31012048672E+02  0.00000000000E+00 0.  1.
         21   -1    0    0  502  503 -0.00000000000E+00 -0.00000000000E+00 -0.10945990025E+01  0.10945990025E+01  0.00000000000E+00 0.  1.
          5    1    1    2  501    0 -0.26544689089E+01 -0.20337898656E+01  0.17219517636E+02  0.18159964042E+02  0.47000000000E+01 0.  1.
         -5    1    1    2    0  503  0.26544689089E+01  0.20337898656E+01  0.12697932033E+02  0.13946683632E+02  0.47000000000E+01 0.  1.
<mgrwt>
<rscale>  2 0.57682325E+01</rscale>
<asrwt>0</asrwt>
<pdfrwt beam="1">  1       21 0.47710837E-02 0.57682325E+01</pdfrwt>
<pdfrwt beam="2">  1       21 0.16839987E-03 0.57682325E+01</pdfrwt>
<totfact> 0.37632673E+09</totfact>
</mgrwt>
</event>
<event>
 4    1  0.3999109E+006  0.5455238E+01  0.7546771E-02  0.2492222E+00
         21   -1    0    0  503  502  0.00000000000E+00  0.00000000000E+00  0.20447183465E+00  0.20447183465E+00  0.00000000000E+00 0. -1.
         21   -1    0    0  501  503 -0.00000000000E+00 -0.00000000000E+00 -0.53868701207E+03  0.53868701207E+03  0.00000000000E+00 0. -1.
          5    1    1    2  501    0 -0.83185256679E-01  0.27681591829E+01 -0.49942701072E+03  0.49945680360E+03  0.47000000000E+01 0. -1.
         -5    1    1    2    0  502  0.83185256679E-01 -0.27681591829E+01 -0.39055529514E+02  0.39434680304E+02  0.47000000000E+01 0. -1.
<mgrwt>
<rscale>  2 0.54552383E+01</rscale>
<asrwt>0</asrwt>
<pdfrwt beam="1">  1       21 0.31457007E-04 0.54552383E+01</pdfrwt>
<pdfrwt beam="2">  1       21 0.82875446E-01 0.54552383E+01</pdfrwt>
<totfact> 0.31329537E+08</totfact>
</mgrwt>
</event>
<event>
 4    1  0.3999109E+006  0.7108623E+01  0.7546771E-02  0.2290180E+00
         21   -1    0    0  501  502  0.00000000000E+00  0.00000000000E+00  0.72619924443E+02  0.72619924443E+02  0.00000000000E+00 0. -1.
         21   -1    0    0  502  503 -0.00000000000E+00 -0.00000000000E+00 -0.77622163712E+00  0.77622163712E+00  0.00000000000E+00 0.  1.
          5    1    1    2  501    0  0.44294982794E+01  0.29701973313E+01  0.47730591195E+02  0.48257039517E+02  0.47000000000E+01 0.  1.
         -5    1    1    2    0  503 -0.44294982794E+01 -0.29701973313E+01  0.24113111611E+02  0.25139106562E+02  0.47000000000E+01 0.  1.
<mgrwt>
<rscale>  2 0.71086234E+01</rscale>
<asrwt>0</asrwt>
<pdfrwt beam="1">  1       21 0.11172291E-01 0.71086234E+01</pdfrwt>
<pdfrwt beam="2">  1       21 0.11941877E-03 0.71086234E+01</pdfrwt>
<totfact> 0.19594557E+09</totfact>
</mgrwt>
</event>
<event>
 4    1  0.3999109E+006  0.7460526E+01  0.7546771E-02  0.2256927E+00
         21   -1    0    0  503  502  0.00000000000E+00  0.00000000000E+00  0.16165155096E+01  0.16165155096E+01  0.00000000000E+00 0.  1.
         21   -1    0    0  501  503 -0.00000000000E+00 -0.00000000000E+00 -0.35563197390E+02  0.35563197390E+02  0.00000000000E+00 0. -1.
          5    1    1    2  501    0 -0.19854095491E+01  0.54431244414E+01 -0.20289178073E+02  0.21617358803E+02  0.47000000000E+01 0.  1.
         -5    1    1    2    0  502  0.19854095491E+01 -0.54431244414E+01 -0.13657503808E+02  0.15562354096E+02  0.47000000000E+01 0. -1.
<mgrwt>
<rscale>  2 0.74605264E+01</rscale>
<asrwt>0</asrwt>
<pdfrwt beam="1">  1       21 0.24869470E-03 0.74605264E+01</pdfrwt>
<pdfrwt beam="2">  1       21 0.54712609E-02 0.74605264E+01</pdfrwt>
<totfact> 0.22218838E+09</totfact>
</mgrwt>
</event>
<event>
 4    1  0.3999109E+006  0.5236911E+01  0.7546771E-02  0.2526767E+00
         21   -1    0    0  503  502  0.00000000000E+00  0.00000000000E+00  0.19022869641E+04  0.19022869641E+04  0.00000000000E+00 0. -1.
         21   -1    0    0  501  503 -0.00000000000E+00 -0.00000000000E+00 -0.51825474546E-01  0.51825474546E-01  0.00000000000E+00 0. -1.
          5    1    1    2  501    0 -0.23098077515E+01  0.44485359172E-02  0.14300596337E+03  0.14310181967E+03  0.47000000000E+01 0. -1.
         -5    1    1    2    0  502  0.23098077515E+01 -0.44485359172E-02  0.17592291752E+04  0.17592369699E+04  0.47000000000E+01 0. -1.
<mgrwt>
<rscale>  2 0.52369105E+01</rscale>
<asrwt>0</asrwt>
<pdfrwt beam="1">  1       21 0.29260362E+00 0.52369105E+01</pdfrwt>
<pdfrwt beam="2">  1       21 0.79746735E-05 0.52369105E+01</pdfrwt>
<totfact> 0.12577787E+08</totfact>
</mgrwt>
</event>
<event>
 4    1  0.3999109E+006  0.1262914E+02  0.7546771E-02  0.1950414E+00
         21   -1    0    0  503  502  0.00000000000E+00  0.00000000000E+00  0.56470428487E+01  0.56470428487E+01  0.00000000000E+00 0. -1.
         21   -1    0    0  501  503 -0.00000000000E+00 -0.00000000000E+00 -0.30689126203E+02  0.30689126203E+02  0.00000000000E+00 0.  1.
          5    1    1    2  501    0  0.10880219762E+02 -0.43618803300E+01 -0.17649252683E+02  0.21702334030E+02  0.47000000000E+01 0.  1.
         -5    1    1    2    0  502 -0.10880219762E+02  0.43618803300E+01 -0.73928306708E+01  0.14633835021E+02  0.47000000000E+01 0. -1.
<mgrwt>
<rscale>  2 0.12629140E+02</rscale>
<asrwt>0</asrwt>
<pdfrwt beam="1">  1       21 0.86877583E-03 0.12629140E+02</pdfrwt>
<pdfrwt beam="2">  1       21 0.47214040E-02 0.12629140E+02</pdfrwt>
<totfact> 0.64522780E+08</totfact>
</mgrwt>
</event>
<event>
 4    1  0.3999109E+006  0.6509696E+01  0.7546771E-02  0.2353458E+00
         21   -1    0    0  503  502  0.00000000000E+00  0.00000000000E+00  0.13904267618E+03  0.13904267618E+03  0.00000000000E+00 0. -1.
         21   -1    0    0  501  503 -0.00000000000E+00 -0.00000000000E+00 -0.91797047009E+00  0.91797047009E+00  0.00000000000E+00 0. -1.
          5    1    1    2  501    0 -0.21335501185E+01 -0.39666235582E+01  0.11866759637E+02  0.13534996226E+02  0.47000000000E+01 0. -1.
         -5    1    1    2    0  502  0.21335501185E+01  0.39666235582E+01  0.12625794607E+03  0.12642565042E+03  0.47000000000E+01 0. -1.
<mgrwt>
<rscale>  2 0.65096957E+01</rscale>
<asrwt>0</asrwt>
<pdfrwt beam="1">  1       21 0.21391164E-01 0.65096957E+01</pdfrwt>
<pdfrwt beam="2">  1       21 0.14122634E-03 0.65096957E+01</pdfrwt>
<totfact> 0.51921998E+08</totfact>
</mgrwt>
</event>
<event>
 4    1  0.3999109E+006  0.1675189E+02  0.7546771E-02  0.1818884E+00
         21   -1    0    0  503  502  0.00000000000E+00  0.00000000000E+00  0.12975998148E+03  0.12975998148E+03  0.00000000000E+00 0.  1.
         21   -1    0    0  501  503 -0.00000000000E+00 -0.00000000000E+00 -0.21629446880E+01  0.21629446880E+01  0.00000000000E+00 0. -1.
          5    1    1    2  501    0 -0.12378162452E+02  0.10262396634E+02  0.64565757241E+02  0.66703543373E+02  0.47000000000E+01 0.  1.
         -5    1    1    2    0  502  0.12378162452E+02 -0.10262396634E+02  0.63031279553E+02  0.65219382798E+02  0.47000000000E+01 0. -1.
<mgrwt>
<rscale>  2 0.16751886E+02</rscale>
<asrwt>0</asrwt>
<pdfrwt beam="1">  1       21 0.19963068E-01 0.16751886E+02</pdfrwt>
<pdfrwt beam="2">  1       21 0.33276082E-03 0.16751886E+02</pdfrwt>
<totfact> 0.28312818E+08</totfact>
</mgrwt>
</event>
<event>
 4    1  0.3999109E+006  0.1080430E+02  0.7546771E-02  0.2031910E+00
         21   -1    0    0  501  502  0.00000000000E+00  0.00000000000E+00  0.57532192649E+00  0.57532192649E+00  0.00000000000E+00 0.  1.
         21   -1    0    0  502  503 -0.00000000000E+00 -0.00000000000E+00 -0.29670698857E+03  0.29670698857E+03  0.00000000000E+00 0. -1.
          5    1    1    2  501    0  0.97047766184E+01 -0.67833755617E+00 -0.64487687453E+02  0.65386502155E+02  0.47000000000E+01 0.  1.
         -5    1    1    2    0  503 -0.97047766184E+01  0.67833755617E+00 -0.23164397919E+03  0.23189580834E+03  0.47000000000E+01 0. -1.
<mgrwt>
<rscale>  2 0.10804297E+02</rscale>
<asrwt>0</asrwt>
<pdfrwt beam="1">  1       21 0.88511022E-04 0.10804297E+02</pdfrwt>
<pdfrwt beam="2">  1       21 0.45647251E-01 0.10804297E+02</pdfrwt>
<totfact> 0.35242737E+08</totfact>
</mgrwt>
</event>
<event>
 4    1  0.3999109E+006  0.3497902E+02  0.7546771E-02  0.1548787E+00
         21   -1    0    0  501  502  0.00000000000E+00  0.00000000000E+00  0.81985759363E+01  0.81985759363E+01  0.00000000000E+00 0. -1.
         21   -1    0    0  502  503 -0.00000000000E+00 -0.00000000000E+00 -0.14924029384E+03  0.14924029384E+03  0.00000000000E+00 0.  1.
          5    1    1    2  501    0  0.34653094069E+02  0.77754232649E+00 -0.70155333967E+02  0.78391979084E+02  0.47000000000E+01 0.  1.
         -5    1    1    2    0  503 -0.34653094069E+02 -0.77754232649E+00 -0.70886383937E+02  0.79046890693E+02  0.47000000000E+01 0. -1.
<mgrwt>
<rscale>  2 0.34979015E+02</rscale>
<asrwt>0</asrwt>
<pdfrwt beam="1">  1       21 0.12613195E-02 0.34979015E+02</pdfrwt>
<pdfrwt beam="2">  1       21 0.22960042E-01 0.34979015E+02</pdfrwt>
<totfact> 0.37202481E+07</totfact>
</mgrwt>
</event>
<event>
 4    1  0.3999109E+006  0.6034215E+01  0.7546771E-02  0.2410992E+00
         21   -1    0    0  503  502  0.00000000000E+00  0.00000000000E+00  0.33437108838E+00  0.33437108838E+00  0.00000000000E+00 0.  1.
         21   -1    0    0  501  503 -0.00000000000E+00 -0.00000000000E+00 -0.27762625657E+03  0.27762625657E+03  0.00000000000E+00 0.  1.
          5    1    1    2  501    0  0.23454650110E-01 -0.37843362564E+01 -0.24699352049E+03  0.24706721943E+03  0.47000000000E+01 0.  1.
         -5    1    1    2    0  502 -0.23454650110E-01  0.37843362564E+01 -0.30298364989E+02  0.30893408229E+02  0.47000000000E+01 0.  1.
<mgrwt>
<rscale>  2 0.60342150E+01</rscale>
<asrwt>0</asrwt>
<pdfrwt beam="1">  1       21 0.51441573E-04 0.60342150E+01</pdfrwt>
<pdfrwt beam="2">  1       21 0.42711842E-01 0.60342150E+01</pdfrwt>
<totfact> 0.59406705E+08</totfact>
</mgrwt>
</event>
<event>
 4    1  0.3999109E+006  0.5073499E+01  0.7546771E-02  0.2554278E+00
         21   -1    0    0  503  502  0.00000000000E+00  0.00000000000E+00  0.11942745797E+03  0.11942745797E+03  0.00000000000E+00 0.  1.
         21   -1    0    0  501  503 -0.00000000000E+00 -0.00000000000E+00 -0.14377016626E+01  0.14377016626E+01  0.00000000000E+00 0. -1.
          5    1    1    2  501    0  0.15133175111E+01  0.11663019854E+01  0.32759736876E+01  0.60392378503E+01  0.47000000000E+01 0. -1.
         -5    1    1    2    0  502 -0.15133175111E+01 -0.11663019854E+01  0.11471378262E+03  0.11482592178E+03  0.47000000000E+01 0.  1.
<mgrwt>
<rscale>  2 0.50734988E+01</rscale>
<asrwt>0</asrwt>
<pdfrwt beam="1">  1       21 0.18373447E-01 0.50734988E+01</pdfrwt>
<pdfrwt beam="2">  1       21 0.22118496E-03 0.50734988E+01</pdfrwt>
<totfact> 0.29982277E+08</totfact>
</mgrwt>
</event>
<event>
 4    1  0.3999109E+006  0.5399376E+01  0.7546771E-02  0.2500834E+00
         21   -1    0    0  503  502  0.00000000000E+00  0.00000000000E+00  0.65917800832E+02  0.65917800832E+02  0.00000000000E+00 0. -1.
         21   -1    0    0  501  503 -0.00000000000E+00 -0.00000000000E+00 -0.45400889422E+00  0.45400889422E+00  0.00000000000E+00 0. -1.
          5    1    1    2  501    0  0.12532093153E+01  0.23436573961E+01  0.38068829715E+02  0.38449825220E+02  0.47000000000E+01 0. -1.
         -5    1    1    2    0  502 -0.12532093153E+01 -0.23436573961E+01  0.27394962223E+02  0.27921984507E+02  0.47000000000E+01 0. -1.
<mgrwt>
<rscale>  2 0.53993762E+01</rscale>
<asrwt>0</asrwt>
<pdfrwt beam="1">  1       21 0.10141193E-01 0.53993762E+01</pdfrwt>
<pdfrwt beam="2">  1       21 0.69847575E-04 0.53993762E+01</pdfrwt>
<totfact> 0.37238500E+09</totfact>
</mgrwt>
</event>
<event>
 4    1  0.3999109E+006  0.4756740E+01  0.7546771E-02  0.2612206E+00
         21   -1    0    0  503  502  0.00000000000E+00  0.00000000000E+00  0.69072502280E+01  0.69072502280E+01  0.00000000000E+00 0. -1.
         21   -1    0    0  501  503 -0.00000000000E+00 -0.00000000000E+00 -0.60669862456E+02  0.60669862456E+02  0.00000000000E+00 0. -1.
          5    1    1    2  501    0 -0.30417789242E+00  0.66637092676E+00 -0.59745026098E+02  0.59934086444E+02  0.47000000000E+01 0. -1.
         -5    1    1    2    0  502  0.30417789242E+00 -0.66637092676E+00  0.59824138698E+01  0.76430262404E+01  0.47000000000E+01 0. -1.
<mgrwt>
<rscale>  2 0.47567399E+01</rscale>
<asrwt>0</asrwt>
<pdfrwt beam="1">  1       21 0.10626539E-02 0.47567399E+01</pdfrwt>
<pdfrwt beam="2">  1       21 0.93338246E-02 0.47567399E+01</pdfrwt>
<totfact> 0.93825599E+07</totfact>
</mgrwt>
</event>
<event>
 4    1  0.3999109E+006  0.7878899E+01  0.7546771E-02  0.2220563E+00
         21   -1    0    0  501  502  0.00000000000E+00  0.00000000000E+00  0.24768372355E+03  0.24768372355E+03  0.00000000000E+00 0. -1.
         21   -1    0    0  502  503 -0.00000000000E+00 -0.00000000000E+00 -0.56117182838E+00  0.56117182838E+00  0.00000000000E+00 0. -1.
          5    1    1    2  501    0 -0.33390061360E+01  0.53701099139E+01  0.21589540422E+03  0.21603912286E+03  0.47000000000E+01 0. -1.
         -5    1    1    2    0  503  0.33390061360E+01 -0.53701099139E+01  0.31227147499E+02  0.32205772516E+02  0.47000000000E+01 0. -1.
<mgrwt>
<rscale>  2 0.78788986E+01</rscale>
<asrwt>0</asrwt>
<pdfrwt beam="1">  1       21 0.38105101E-01 0.78788986E+01</pdfrwt>
<pdfrwt beam="2">  1       21 0.86334325E-04 0.78788986E+01</pdfrwt>
<totfact> 0.42921876E+08</totfact>
</mgrwt>
</event>
<event>
 4    1  0.3999109E+006  0.6887998E+01  0.7546771E-02  0.2312435E+00
         21   -1    0    0  501  502  0.00000000000E+00  0.00000000000E+00  0.57729954630E+01  0.57729954630E+01  0.00000000000E+00 0.  1.
         21   -1    0    0  502  503 -0.00000000000E+00 -0.00000000000E+00 -0.97250080326E+01  0.97250080326E+01  0.00000000000E+00 0. -1.
          5    1    1    2  501    0 -0.43563109315E+01 -0.25252863625E+01  0.10740485604E+01  0.69712334959E+01  0.47000000000E+01 0.  1.
         -5    1    1    2    0  503  0.43563109315E+01  0.25252863625E+01 -0.50260611300E+01  0.85267699997E+01  0.47000000000E+01 0. -1.
<mgrwt>
<rscale>  2 0.68879980E+01</rscale>
<asrwt>0</asrwt>
<pdfrwt beam="1">  1       21 0.88815316E-03 0.68879980E+01</pdfrwt>
<pdfrwt beam="2">  1       21 0.14961551E-02 0.68879980E+01</pdfrwt>
<totfact> 0.23629837E+09</totfact>
</mgrwt>
</event>
<event>
 4    1  0.3999109E+006  0.5799242E+01  0.7546771E-02  0.2442308E+00
         21   -1    0    0  503  502  0.00000000000E+00  0.00000000000E+00  0.45198903261E+03  0.45198903261E+03  0.00000000000E+00 0. -1.
         21   -1    0    0  501  503 -0.00000000000E+00 -0.00000000000E+00 -0.24387268454E+00  0.24387268454E+00  0.00000000000E+00 0. -1.
          5    1    1    2  501    0  0.21958559865E+01 -0.25921848682E+01  0.37381282060E+02  0.37828447686E+02  0.47000000000E+01 0. -1.
         -5    1    1    2    0  502 -0.21958559865E+01  0.25921848682E+01  0.41436387786E+03  0.41440445760E+03  0.47000000000E+01 0. -1.
<mgrwt>
<rscale>  2 0.57992418E+01</rscale>
<asrwt>0</asrwt>
<pdfrwt beam="1">  1       21 0.69536104E-01 0.57992418E+01</pdfrwt>
<pdfrwt beam="2">  1       21 0.37519236E-04 0.57992418E+01</pdfrwt>
<totfact> 0.36196535E+08</totfact>
</mgrwt>
</event>
<event>
 4    1  0.3999109E+006  0.5769409E+01  0.7546771E-02  0.2446437E+00
         21   -1    0    0  501  502  0.00000000000E+00  0.00000000000E+00  0.13422216404E+01  0.13422216404E+01  0.00000000000E+00 0. -1.
         21   -1    0    0  502  503 -0.00000000000E+00 -0.00000000000E+00 -0.39450894185E+02  0.39450894185E+02  0.00000000000E+00 0.  1.
          5    1    1    2  501    0 -0.32701382441E+01 -0.70871671095E+00 -0.66243196140E+01  0.87845144351E+01  0.47000000000E+01 0. -1.
         -5    1    1    2    0  503  0.32701382441E+01  0.70871671095E+00 -0.31484352931E+02  0.32008601391E+02  0.47000000000E+01 0.  1.
<mgrwt>
<rscale>  2 0.57694093E+01</rscale>
<asrwt>0</asrwt>
<pdfrwt beam="1">  1       21 0.20649567E-03 0.57694093E+01</pdfrwt>
<pdfrwt beam="2">  1       21 0.60693674E-02 0.57694093E+01</pdfrwt>
<totfact> 0.19979832E+09</totfact>
</mgrwt>
</event>
<event>
 4    1  0.3999109E+006  0.5245632E+01  0.7546771E-02  0.2525341E+00
         21   -1    0    0  501  502  0.00000000000E+00  0.00000000000E+00  0.16479010211E+02  0.16479010211E+02  0.00000000000E+00 0.  1.
         21   -1    0    0  502  503 -0.00000000000E+00 -0.00000000000E+00 -0.25356006598E+01  0.25356006598E+01  0.00000000000E+00 0.  1.
          5    1    1    2  501    0 -0.16983592499E+01  0.15944376936E+01  0.12527240017E+02  0.13581178084E+02  0.47000000000E+01 0.  1.
         -5    1    1    2    0  503  0.16983592499E+01 -0.15944376936E+01  0.14161695342E+01  0.54334327869E+01  0.47000000000E+01 0.  1.
<mgrwt>
<rscale>  2 0.52456321E+01</rscale>
<asrwt>0</asrwt>
<pdfrwt beam="1">  1       21 0.25352323E-02 0.52456321E+01</pdfrwt>
<pdfrwt beam="2">  1       21 0.39009242E-03 0.52456321E+01</pdfrwt>
<totfact> 0.27480644E+09</totfact>
</mgrwt>
</event>
<event>
 4    1  0.3999109E+006  0.4822031E+01  0.7546771E-02  0.2599728E+00
         21   -1    0    0  501  502  0.00000000000E+00  0.00000000000E+00  0.10019160043E+02  0.10019160043E+02  0.00000000000E+00 0.  1.
         21   -1    0    0  502  503 -0.00000000000E+00 -0.00000000000E+00 -0.32858487718E+01  0.32858487718E+01  0.00000000000E+00 0.  1.
          5    1    1    2  501    0  0.10492383064E+01  0.24714367296E+00  0.69720014051E+01  0.84770740596E+01  0.47000000000E+01 0.  1.
         -5    1    1    2    0  503 -0.10492383064E+01 -0.24714367296E+00 -0.23869013400E+00  0.48279347550E+01  0.47000000000E+01 0.  1.
<mgrwt>
<rscale>  2 0.48220308E+01</rscale>
<asrwt>0</asrwt>
<pdfrwt beam="1">  1       21 0.15414092E-02 0.48220308E+01</pdfrwt>
<pdfrwt beam="2">  1       21 0.50551520E-03 0.48220308E+01</pdfrwt>
<totfact> 0.35788351E+09</totfact>
</mgrwt>
</event>
<event>
 4    1  0.3999109E+006  0.5224284E+01  0.7546771E-02  0.2528841E+00
         21   -1    0    0  501  502  0.00000000000E+00  0.00000000000E+00  0.88453721684E+02  0.88453721684E+02  0.00000000000E+00 0. -1.
         21   -1    0    0  502  503 -0.00000000000E+00 -0.00000000000E+00 -0.68813578027E+01  0.68813578027E+01  0.00000000000E+00 0. -1.
          5    1    1    2  501    0 -0.16329098027E+01  0.15927167470E+01  0.87372764756E+02  0.87528813326E+02  0.47000000000E+01 0. -1.
         -5    1    1    2    0  503  0.16329098027E+01 -0.15927167470E+01 -0.58004008752E+01  0.78062661608E+01  0.47000000000E+01 0. -1.
<mgrwt>
<rscale>  2 0.52242838E+01</rscale>
<asrwt>0</asrwt>
<pdfrwt beam="1">  1       21 0.13608264E-01 0.52242838E+01</pdfrwt>
<pdfrwt beam="2">  1       21 0.10586705E-02 0.52242838E+01</pdfrwt>
<totfact> 0.56955945E+07</totfact>
</mgrwt>
</event>
<event>
 4    1  0.3999109E+006  0.7103613E+01  0.7546771E-02  0.2290673E+00
         21   -1    0    0  503  502  0.00000000000E+00  0.00000000000E+00  0.33360165236E-01  0.33360165236E-01  0.00000000000E+00 0.  1.
         21   -1    0    0  501  503 -0.00000000000E+00 -0.00000000000E+00 -0.15126610616E+04  0.15126610616E+04  0.00000000000E+00 0.  1.
          5    1    1    2  501    0 -0.17796423120E+01  0.50203775005E+01 -0.75246616039E+03  0.75249969027E+03  0.47000000000E+01 0.  1.
         -5    1    1    2    0  502  0.17796423120E+01 -0.50203775005E+01 -0.76016154100E+03  0.76019473145E+03  0.47000000000E+01 0.  1.
<mgrwt>
<rscale>  2 0.71036130E+01</rscale>
<asrwt>0</asrwt>
<pdfrwt beam="1">  1       21 0.51330472E-05 0.71036130E+01</pdfrwt>
<pdfrwt beam="2">  1       21 0.23268471E+00 0.71036130E+01</pdfrwt>
<totfact> 0.45530981E+08</totfact>
</mgrwt>
</event>
<event>
 4    1  0.3999109E+006  0.1494880E+02  0.7546771E-02  0.1869635E+00
         21   -1    0    0  503  502  0.00000000000E+00  0.00000000000E+00  0.39500606559E+01  0.39500606559E+01  0.00000000000E+00 0.  1.
         21   -1    0    0  501  503 -0.00000000000E+00 -0.00000000000E+00 -0.14038698501E+03  0.14038698501E+03  0.00000000000E+00 0. -1.
          5    1    1    2  501    0  0.52413628927E+01  0.13187289459E+02 -0.12398103841E+03  0.12487899893E+03  0.47000000000E+01 0. -1.
         -5    1    1    2    0  502 -0.52413628927E+01 -0.13187289459E+02 -0.12455885949E+02  0.19458046742E+02  0.47000000000E+01 0.  1.
<mgrwt>
<rscale>  2 0.14948796E+02</rscale>
<asrwt>0</asrwt>
<pdfrwt beam="1">  1       21 0.60770161E-03 0.14948796E+02</pdfrwt>
<pdfrwt beam="2">  1       21 0.21597999E-01 0.14948796E+02</pdfrwt>
<totfact> 0.99022656E+07</totfact>
</mgrwt>
</event>
<event>
 4    1  0.3999109E+006  0.4887751E+01  0.7546771E-02  0.2587460E+00
         21   -1    0    0  501  502  0.00000000000E+00  0.00000000000E+00  0.55407227311E+01  0.55407227311E+01  0.00000000000E+00 0.  1.
         21   -1    0    0  502  503 -0.00000000000E+00 -0.00000000000E+00 -0.35312306868E+02  0.35312306868E+02  0.00000000000E+00 0.  1.
          5    1    1    2  501    0 -0.32555696568E-01 -0.13412855158E+01  0.42530697921E+01  0.64790978820E+01  0.47000000000E+01 0.  1.
         -5    1    1    2    0  503  0.32555696568E-01  0.13412855158E+01 -0.34024653929E+02  0.34373931717E+02  0.47000000000E+01 0.  1.
<mgrwt>
<rscale>  2 0.48877507E+01</rscale>
<asrwt>0</asrwt>
<pdfrwt beam="1">  1       21 0.85241889E-03 0.48877507E+01</pdfrwt>
<pdfrwt beam="2">  1       21 0.54326626E-02 0.48877507E+01</pdfrwt>
<totfact> 0.29060124E+08</totfact>
</mgrwt>
</event>
<event>
 4    1  0.3999109E+006  0.6817263E+01  0.7546771E-02  0.2319820E+00
         21   -1    0    0  501  502  0.00000000000E+00  0.00000000000E+00  0.47176488762E+02  0.47176488762E+02  0.00000000000E+00 0. -1.
         21   -1    0    0  502  503 -0.00000000000E+00 -0.00000000000E+00 -0.16086787870E+01  0.16086787870E+01  0.00000000000E+00 0.  1.
          5    1    1    2  501    0  0.52021537117E+00  0.49106464003E+01  0.37970402932E+02  0.38577539721E+02  0.47000000000E+01 0.  1.
         -5    1    1    2    0  503 -0.52021537117E+00 -0.49106464003E+01  0.75974070434E+01  0.10207627828E+02  0.47000000000E+01 0.  1.
<mgrwt>
<rscale>  2 0.68172628E+01</rscale>
<asrwt>0</asrwt>
<pdfrwt beam="1">  1       21 0.72579203E-02 0.68172628E+01</pdfrwt>
<pdfrwt beam="2">  1       21 0.24748908E-03 0.68172628E+01</pdfrwt>
<totfact> 0.13631434E+09</totfact>
</mgrwt>
</event>
<event>
 4    1  0.3999109E+006  0.6101387E+01  0.7546771E-02  0.2402412E+00
         21   -1    0    0  501  502  0.00000000000E+00  0.00000000000E+00  0.24301269578E+02  0.24301269578E+02  0.00000000000E+00 0.  1.
         21   -1    0    0  502  503 -0.00000000000E+00 -0.00000000000E+00 -0.62458885632E+01  0.62458885632E+01  0.00000000000E+00 0.  1.
          5    1    1    2  501    0  0.15933517835E+01  0.35493881720E+01  0.22296694402E+02  0.23116433712E+02  0.47000000000E+01 0.  1.
         -5    1    1    2    0  503 -0.15933517835E+01 -0.35493881720E+01 -0.42413133869E+01  0.74307244295E+01  0.47000000000E+01 0.  1.
<mgrwt>
<rscale>  2 0.61013872E+01</rscale>
<asrwt>0</asrwt>
<pdfrwt beam="1">  1       21 0.37386568E-02 0.61013872E+01</pdfrwt>
<pdfrwt beam="2">  1       21 0.96090595E-03 0.61013872E+01</pdfrwt>
<totfact> 0.50905823E+08</totfact>
</mgrwt>
</event>
<event>
 4    1  0.3999109E+006  0.5123270E+01  0.7546771E-02  0.2545740E+00
         21   -1    0    0  501  502  0.00000000000E+00  0.00000000000E+00  0.25548214814E+02  0.25548214814E+02  0.00000000000E+00 0.  1.
         21   -1    0    0  502  503 -0.00000000000E+00 -0.00000000000E+00 -0.24438870753E+01  0.24438870753E+01  0.00000000000E+00 0. -1.
          5    1    1    2  501    0  0.19463516923E+01  0.60795620655E+00  0.22207650708E+02  0.22790955347E+02  0.47000000000E+01 0.  1.
         -5    1    1    2    0  503 -0.19463516923E+01 -0.60795620655E+00  0.89667703104E+00  0.52011465426E+01  0.47000000000E+01 0. -1.
<mgrwt>
<rscale>  2 0.51232700E+01</rscale>
<asrwt>0</asrwt>
<pdfrwt beam="1">  1       21 0.39304944E-02 0.51232700E+01</pdfrwt>
<pdfrwt beam="2">  1       21 0.37598264E-03 0.51232700E+01</pdfrwt>
<totfact> 0.15011581E+09</totfact>
</mgrwt>
</event>
<event>
 4    1  0.3999109E+006  0.5037238E+01  0.7546771E-02  0.2560590E+00
         21   -1    0    0  503  502  0.00000000000E+00  0.00000000000E+00  0.11496948058E+03  0.11496948058E+03  0.00000000000E+00 0.  1.
         21   -1    0    0  501  503 -0.00000000000E+00 -0.00000000000E+00 -0.92345918302E+00  0.92345918302E+00  0.00000000000E+00 0.  1.
          5    1    1    2  501    0  0.18049625347E+01 -0.16087342165E+00  0.64729849624E+01  0.82020305006E+01  0.47000000000E+01 0.  1.
         -5    1    1    2    0  502 -0.18049625347E+01  0.16087342165E+00  0.10757303644E+03  0.10769090927E+03  0.47000000000E+01 0.  1.
<mgrwt>
<rscale>  2 0.50372383E+01</rscale>
<asrwt>0</asrwt>
<pdfrwt beam="1">  1       21 0.17687601E-01 0.50372383E+01</pdfrwt>
<pdfrwt beam="2">  1       21 0.14207073E-03 0.50372383E+01</pdfrwt>
<totfact> 0.57345785E+08</totfact>
</mgrwt>
</event>
<event>
 4    1  0.3999109E+006  0.5321226E+01  0.7546771E-02  0.2513140E+00
         21   -1    0    0  503  502  0.00000000000E+00  0.00000000000E+00  0.77653154084E+01  0.77653154084E+01  0.00000000000E+00 0.  1.
         21   -1    0    0  501  503 -0.00000000000E+00 -0.00000000000E+00 -0.46274801386E+01  0.46274801386E+01  0.00000000000E+00 0. -1.
          5    1    1    2  501    0 -0.11145651354E+01  0.22323059968E+01 -0.12841972960E+01  0.54739938070E+01  0.47000000000E+01 0.  1.
         -5    1    1    2    0  502  0.11145651354E+01 -0.22323059968E+01  0.44220325657E+01  0.69188017399E+01  0.47000000000E+01 0.  1.
<mgrwt>
<rscale>  2 0.53212259E+01</rscale>
<asrwt>0</asrwt>
<pdfrwt beam="1">  1       21 0.11946639E-02 0.53212259E+01</pdfrwt>
<pdfrwt beam="2">  1       21 0.71192002E-03 0.53212259E+01</pdfrwt>
<totfact> 0.35346409E+09</totfact>
</mgrwt>
</event>
<event>
 4    1  0.3999109E+006  0.4939671E+01  0.7546771E-02  0.2577969E+00
         21   -1    0    0  501  502  0.00000000000E+00  0.00000000000E+00  0.66958154965E+01  0.66958154965E+01  0.00000000000E+00 0.  1.
         21   -1    0    0  502  503 -0.00000000000E+00 -0.00000000000E+00 -0.15548720759E+02  0.15548720759E+02  0.00000000000E+00 0.  1.
          5    1    1    2  501    0  0.28247573317E+00  0.14935065168E+01  0.53055775826E+01  0.72491039267E+01  0.47000000000E+01 0.  1.
         -5    1    1    2    0  503 -0.28247573317E+00 -0.14935065168E+01 -0.14158482845E+02  0.14995432329E+02  0.47000000000E+01 0.  1.
<mgrwt>
<rscale>  2 0.49396715E+01</rscale>
<asrwt>0</asrwt>
<pdfrwt beam="1">  1       21 0.10301255E-02 0.49396715E+01</pdfrwt>
<pdfrwt beam="2">  1       21 0.23921109E-02 0.49396715E+01</pdfrwt>
<totfact> 0.73614560E+08</totfact>
</mgrwt>
</event>
<event>
 4    1  0.3999109E+006  0.1203829E+02  0.7546771E-02  0.1974705E+00
         21   -1    0    0  501  502  0.00000000000E+00  0.00000000000E+00  0.10549738772E+01  0.10549738772E+01  0.00000000000E+00 0.  1.
         21   -1    0    0  502  503 -0.00000000000E+00 -0.00000000000E+00 -0.24473197731E+03  0.24473197731E+03  0.00000000000E+00 0. -1.
          5    1    1    2  501    0  0.10805211550E+02 -0.24653316882E+01 -0.40440973115E+02  0.42194700656E+02  0.47000000000E+01 0.  1.
         -5    1    1    2    0  503 -0.10805211550E+02  0.24653316882E+01 -0.20323603032E+03  0.20359225054E+03  0.47000000000E+01 0. -1.
<mgrwt>
<rscale>  2 0.12038291E+02</rscale>
<asrwt>0</asrwt>
<pdfrwt beam="1">  1       21 0.16230375E-03 0.12038291E+02</pdfrwt>
<pdfrwt beam="2">  1       21 0.37651055E-01 0.12038291E+02</pdfrwt>
<totfact> 0.22603500E+08</totfact>
</mgrwt>
</event>
<event>
 4    1  0.3999109E+006  0.5670846E+01  0.7546771E-02  0.2460339E+00
         21   -1    0    0  503  502  0.00000000000E+00  0.00000000000E+00  0.53965699138E+02  0.53965699138E+02  0.00000000000E+00 0.  1.
         21   -1    0    0  501  503 -0.00000000000E+00 -0.00000000000E+00 -0.11836704972E+01  0.11836704972E+01  0.00000000000E+00 0.  1.
          5    1    1    2  501    0  0.14289892662E+01  0.28331050181E+01  0.69599428623E+01  0.89777112347E+01  0.47000000000E+01 0.  1.
         -5    1    1    2    0  502 -0.14289892662E+01 -0.28331050181E+01  0.45822085778E+02  0.46171658401E+02  0.47000000000E+01 0.  1.
<mgrwt>
<rscale>  2 0.56708460E+01</rscale>
<asrwt>0</asrwt>
<pdfrwt beam="1">  1       21 0.83024133E-02 0.56708460E+01</pdfrwt>
<pdfrwt beam="2">  1       21 0.18210320E-03 0.56708460E+01</pdfrwt>
<totfact> 0.14586988E+09</totfact>
</mgrwt>
</event>
<event>
 4    1  0.3999109E+006  0.4911981E+01  0.7546771E-02  0.2583009E+00
         21   -1    0    0  503  502  0.00000000000E+00  0.00000000000E+00  0.20516958223E+02  0.20516958223E+02  0.00000000000E+00 0. -1.
         21   -1    0    0  501  503 -0.00000000000E+00 -0.00000000000E+00 -0.17504793398E+01  0.17504793398E+01  0.00000000000E+00 0. -1.
          5    1    1    2  501    0  0.14242868541E+01 -0.94672352552E-01  0.30049225927E+01  0.57582215731E+01  0.47000000000E+01 0. -1.
         -5    1    1    2    0  502 -0.14242868541E+01  0.94672352552E-01  0.15761556290E+02  0.16509215989E+02  0.47000000000E+01 0. -1.
<mgrwt>
<rscale>  2 0.49119809E+01</rscale>
<asrwt>0</asrwt>
<pdfrwt beam="1">  1       21 0.31564549E-02 0.49119809E+01</pdfrwt>
<pdfrwt beam="2">  1       21 0.26930453E-03 0.49119809E+01</pdfrwt>
<totfact> 0.31100095E+09</totfact>
</mgrwt>
</event>
<event>
 4    1  0.3999109E+006  0.9006683E+01  0.7546771E-02  0.2136357E+00
         21   -1    0    0  501  502  0.00000000000E+00  0.00000000000E+00  0.53557005458E+03  0.53557005458E+03  0.00000000000E+00 0. -1.
         21   -1    0    0  502  503 -0.00000000000E+00 -0.00000000000E+00 -0.21739442723E+00  0.21739442723E+00  0.00000000000E+00 0.  1.
          5    1    1    2  501    0  0.59850007523E+01  0.48176875034E+01  0.41520505283E+03  0.41530272843E+03  0.47000000000E+01 0. -1.
         -5    1    1    2    0  503 -0.59850007523E+01 -0.48176875034E+01  0.12014760732E+03  0.12048472058E+03  0.47000000000E+01 0.  1.
<mgrwt>
<rscale>  2 0.90066835E+01</rscale>
<asrwt>0</asrwt>
<pdfrwt beam="1">  1       21 0.82394337E-01 0.90066835E+01</pdfrwt>
<pdfrwt beam="2">  1       21 0.33445725E-04 0.90066835E+01</pdfrwt>
<totfact> 0.39277988E+08</totfact>
</mgrwt>
</event>
<event>
 4    1  0.3999109E+006  0.5157871E+01  0.7546771E-02  0.2539887E+00
         21   -1    0    0  503  502  0.00000000000E+00  0.00000000000E+00  0.18146013467E+02  0.18146013467E+02  0.00000000000E+00 0. -1.
         21   -1    0    0  501  503 -0.00000000000E+00 -0.00000000000E+00 -0.32696945991E+01  0.32696945991E+01  0.00000000000E+00 0. -1.
          5    1    1    2  501    0  0.17894946743E+01  0.11451365375E+01 -0.51463785146E+00  0.51834815517E+01  0.47000000000E+01 0. -1.
         -5    1    1    2    0  502 -0.17894946743E+01 -0.11451365375E+01  0.15390956719E+02  0.16232226515E+02  0.47000000000E+01 0. -1.
<mgrwt>
<rscale>  2 0.51578706E+01</rscale>
<asrwt>0</asrwt>
<pdfrwt beam="1">  1       21 0.27916943E-02 0.51578706E+01</pdfrwt>
<pdfrwt beam="2">  1       21 0.50302995E-03 0.51578706E+01</pdfrwt>
<totfact> 0.16603757E+09</totfact>
</mgrwt>
</event>
<event>
 4    1  0.3999109E+006  0.5195707E+01  0.7546771E-02  0.2533564E+00
         21   -1    0    0  503  502  0.00000000000E+00  0.00000000000E+00  0.91530420397E-01  0.91530420397E-01  0.00000000000E+00 0.  1.
         21   -1    0    0  501  503 -0.00000000000E+00 -0.00000000000E+00 -0.40242757741E+03  0.40242757741E+03  0.00000000000E+00 0.  1.
          5    1    1    2  501    0  0.22107000115E+01 -0.13482109425E+00 -0.30518524758E+03  0.30522947222E+03  0.47000000000E+01 0.  1.
         -5    1    1    2    0  502 -0.22107000115E+01  0.13482109425E+00 -0.97150799412E+02  0.97289635613E+02  0.47000000000E+01 0.  1.
<mgrwt>
<rscale>  2 0.51957070E+01</rscale>
<asrwt>0</asrwt>
<pdfrwt beam="1">  1       21 0.14081358E-04 0.51957070E+01</pdfrwt>
<pdfrwt beam="2">  1       21 0.61913011E-01 0.51957070E+01</pdfrwt>
<totfact> 0.15225431E+09</totfact>
</mgrwt>
</event>
<event>
 4    1  0.3999109E+006  0.6907852E+01  0.7546771E-02  0.2310385E+00
         21   -1    0    0  503  502  0.00000000000E+00  0.00000000000E+00  0.58318220137E+03  0.58318220137E+03  0.00000000000E+00 0. -1.
         21   -1    0    0  501  503 -0.00000000000E+00 -0.00000000000E+00 -0.10297965028E+00  0.10297965028E+00  0.00000000000E+00 0.  1.
          5    1    1    2  501    0 -0.23418567146E+01 -0.44882202783E+01  0.15935331607E+03  0.15950297100E+03  0.47000000000E+01 0.  1.
         -5    1    1    2    0  502  0.23418567146E+01  0.44882202783E+01  0.42372590565E+03  0.42378221002E+03  0.47000000000E+01 0. -1.
<mgrwt>
<rscale>  2 0.69078516E+01</rscale>
<asrwt>0</asrwt>
<pdfrwt beam="1">  1       21 0.89717694E-01 0.69078516E+01</pdfrwt>
<pdfrwt beam="2">  1       21 0.15843490E-04 0.69078516E+01</pdfrwt>
<totfact> 0.78181500E+08</totfact>
</mgrwt>
</event>
<event>
 4    1  0.3999109E+006  0.1055008E+02  0.7546771E-02  0.2044970E+00
         21   -1    0    0  503  502  0.00000000000E+00  0.00000000000E+00  0.33412020425E+00  0.33412020425E+00  0.00000000000E+00 0.  1.
         21   -1    0    0  501  503 -0.00000000000E+00 -0.00000000000E+00 -0.34546189474E+03  0.34546189474E+03  0.00000000000E+00 0.  1.
          5    1    1    2  501    0 -0.88027491822E+01 -0.34242939318E+01 -0.13989214110E+03  0.14028939847E+03  0.47000000000E+01 0.  1.
         -5    1    1    2    0  502  0.88027491822E+01  0.34242939318E+01 -0.20523563344E+03  0.20550661648E+03  0.47000000000E+01 0.  1.
<mgrwt>
<rscale>  2 0.10550080E+02</rscale>
<asrwt>0</asrwt>
<pdfrwt beam="1">  1       21 0.51403091E-04 0.10550080E+02</pdfrwt>
<pdfrwt beam="2">  1       21 0.53148002E-01 0.10550080E+02</pdfrwt>
<totfact> 0.55410645E+08</totfact>
</mgrwt>
</event>
<event>
 4    1  0.3999109E+006  0.6062648E+01  0.7546771E-02  0.2407340E+00
         21   -1    0    0  503  502  0.00000000000E+00  0.00000000000E+00  0.98836454714E+01  0.98836454714E+01  0.00000000000E+00 0.  1.
         21   -1    0    0  501  503 -0.00000000000E+00 -0.00000000000E+00 -0.46324148793E+01  0.46324148793E+01  0.00000000000E+00 0. -1.
          5    1    1    2  501    0  0.24397628181E+01  0.29518237691E+01 -0.59758191408E+00  0.60920284238E+01  0.47000000000E+01 0. -1.
         -5    1    1    2    0  502 -0.24397628181E+01 -0.29518237691E+01  0.58488125062E+01  0.84240319269E+01  0.47000000000E+01 0.  1.
<mgrwt>
<rscale>  2 0.60626484E+01</rscale>
<asrwt>0</asrwt>
<pdfrwt beam="1">  1       21 0.15205608E-02 0.60626484E+01</pdfrwt>
<pdfrwt beam="2">  1       21 0.71267922E-03 0.60626484E+01</pdfrwt>
<totfact> 0.28300344E+09</totfact>
</mgrwt>
</event>
<event>
 4    1  0.3999109E+006  0.5113361E+01  0.7546771E-02  0.2547428E+00
         21   -1    0    0  501  502  0.00000000000E+00  0.00000000000E+00  0.11836316537E+01  0.11836316537E+01  0.00000000000E+00 0. -1.
         21   -1    0    0  502  503 -0.00000000000E+00 -0.00000000000E+00 -0.92175207302E+02  0.92175207302E+02  0.00000000000E+00 0. -1.
          5    1    1    2  501    0 -0.14260399377E+01  0.14222777643E+01 -0.47923155090E+01  0.70080490781E+01  0.47000000000E+01 0. -1.
         -5    1    1    2    0  503  0.14260399377E+01 -0.14222777643E+01 -0.86199260140E+02  0.86350789878E+02  0.47000000000E+01 0. -1.
<mgrwt>
<rscale>  2 0.51133613E+01</rscale>
<asrwt>0</asrwt>
<pdfrwt beam="1">  1       21 0.18209714E-03 0.51133613E+01</pdfrwt>
<pdfrwt beam="2">  1       21 0.14180804E-01 0.51133613E+01</pdfrwt>
<totfact> 0.58829640E+08</totfact>
</mgrwt>
</event>
<event>
 4    1  0.3999109E+006  0.5669848E+01  0.7546771E-02  0.2460482E+00
         21   -1    0    0  501  502  0.00000000000E+00  0.00000000000E+00  0.25811844110E+00  0.25811844110E+00  0.00000000000E+00 0.  1.
         21   -1    0    0  502  503 -0.00000000000E+00 -0.00000000000E+00 -0.23975061721E+03  0.23975061721E+03  0.00000000000E+00 0.  1.
          5    1    1    2  501    0 -0.34912537591E+00 -0.31520299170E+01 -0.36559274894E+02  0.36996320924E+02  0.47000000000E+01 0.  1.
         -5    1    1    2    0  503  0.34912537591E+00  0.31520299170E+01 -0.20293322387E+03  0.20301241473E+03  0.47000000000E+01 0.  1.
<mgrwt>
<rscale>  2 0.56698484E+01</rscale>
<asrwt>0</asrwt>
<pdfrwt beam="1">  1       21 0.39710648E-04 0.56698484E+01</pdfrwt>
<pdfrwt beam="2">  1       21 0.36884600E-01 0.56698484E+01</pdfrwt>
<totfact> 0.10341487E+09</totfact>
</mgrwt>
</event>
<event>
 4    1  0.3999109E+006  0.1751439E+02  0.7546771E-02  0.1799813E+00
         21   -1    0    0  501  502  0.00000000000E+00  0.00000000000E+00  0.11471225546E+02  0.11471225546E+02  0.00000000000E+00 0.  1.
         21   -1    0    0  502  503 -0.00000000000E+00 -0.00000000000E+00 -0.61792735324E+02  0.61792735324E+02  0.00000000000E+00 0. -1.
          5    1    1    2  501    0 -0.51051762100E+01 -0.16081077339E+02  0.24288487894E+01  0.17682001554E+02  0.47000000000E+01 0.  1.
         -5    1    1    2    0  503  0.51051762100E+01  0.16081077339E+02 -0.52750358567E+02  0.55581959316E+02  0.47000000000E+01 0. -1.
<mgrwt>
<rscale>  2 0.17514390E+02</rscale>
<asrwt>0</asrwt>
<pdfrwt beam="1">  1       21 0.17648039E-02 0.17514390E+02</pdfrwt>
<pdfrwt beam="2">  1       21 0.95065747E-02 0.17514390E+02</pdfrwt>
<totfact> 0.84614169E+07</totfact>
</mgrwt>
</event>
<event>
 4    1  0.3999109E+006  0.5357675E+01  0.7546771E-02  0.2507363E+00
         21   -1    0    0  501  502  0.00000000000E+00  0.00000000000E+00  0.21797855955E+00  0.21797855955E+00  0.00000000000E+00 0. -1.
         21   -1    0    0  502  503 -0.00000000000E+00 -0.00000000000E+00 -0.14070561453E+03  0.14070561453E+03  0.00000000000E+00 0. -1.
          5    1    1    2  501    0 -0.12523375119E+01 -0.22464050210E+01 -0.88083881100E+02  0.88246670160E+02  0.47000000000E+01 0. -1.
         -5    1    1    2    0  503  0.12523375119E+01  0.22464050210E+01 -0.52403754873E+02  0.52676922931E+02  0.47000000000E+01 0. -1.
<mgrwt>
<rscale>  2 0.53576753E+01</rscale>
<asrwt>0</asrwt>
<pdfrwt beam="1">  1       21 0.33535096E-04 0.53576753E+01</pdfrwt>
<pdfrwt beam="2">  1       21 0.21647061E-01 0.53576753E+01</pdfrwt>
<totfact> 0.29948819E+09</totfact>
</mgrwt>
</event>
<event>
 4    1  0.3999109E+006  0.7186367E+01  0.7546771E-02  0.2282606E+00
         21   -1    0    0  501  502  0.00000000000E+00  0.00000000000E+00  0.67730827483E+01  0.67730827483E+01  0.00000000000E+00 0.  1.
         21   -1    0    0  502  503 -0.00000000000E+00 -0.00000000000E+00 -0.94664865297E+01  0.94664865297E+01  0.00000000000E+00 0.  1.
          5    1    1    2  501    0 -0.35189918763E+01 -0.41437378675E+01 -0.49280772682E+01  0.87137714511E+01  0.47000000000E+01 0.  1.
         -5    1    1    2    0  503  0.35189918763E+01  0.41437378675E+01  0.22346734867E+01  0.75257978270E+01  0.47000000000E+01 0.  1.
<mgrwt>
<rscale>  2 0.71863668E+01</rscale>
<asrwt>0</asrwt>
<pdfrwt beam="1">  1       21 0.10420127E-02 0.71863668E+01</pdfrwt>
<pdfrwt beam="2">  1       21 0.14563825E-02 0.71863668E+01</pdfrwt>
<totfact> 0.20222454E+09</totfact>
</mgrwt>
</event>
<event>
 4    1  0.3999109E+006  0.1249489E+02  0.7546771E-02  0.1955778E+00
         21   -1    0    0  503  502  0.00000000000E+00  0.00000000000E+00  0.26892064113E+02  0.26892064113E+02  0.00000000000E+00 0.  1.
         21   -1    0    0  501  503 -0.00000000000E+00 -0.00000000000E+00 -0.58262514550E+01  0.58262514550E+01  0.00000000000E+00 0. -1.
          5    1    1    2  501    0 -0.44665376188E+01  0.10680928029E+02  0.95568555491E+01  0.15730723755E+02  0.47000000000E+01 0. -1.
         -5    1    1    2    0  502  0.44665376188E+01 -0.10680928029E+02  0.11508957109E+02  0.16987591813E+02  0.47000000000E+01 0.  1.
<mgrwt>
<rscale>  2 0.12494886E+02</rscale>
<asrwt>0</asrwt>
<pdfrwt beam="1">  1       21 0.41372406E-02 0.12494886E+02</pdfrwt>
<pdfrwt beam="2">  1       21 0.89634639E-03 0.12494886E+02</pdfrwt>
<totfact> 0.75160903E+08</totfact>
</mgrwt>
</event>
<event>
 4    1  0.3999109E+006  0.2307408E+02  0.7546771E-02  0.1690312E+00
         21   -1    0    0  503  502  0.00000000000E+00  0.00000000000E+00  0.26619909911E+02  0.26619909911E+02  0.00000000000E+00 0.  1.
         21   -1    0    0  501  503 -0.00000000000E+00 -0.00000000000E+00 -0.52605613580E+02  0.52605613580E+02  0.00000000000E+00 0. -1.
          5    1    1    2  501    0 -0.17658692839E+01 -0.22521208961E+02 -0.44178984728E+02  0.49841707826E+02  0.47000000000E+01 0. -1.
         -5    1    1    2    0  502  0.17658692839E+01  0.22521208961E+02  0.18193281058E+02  0.29383815665E+02  0.47000000000E+01 0.  1.
<mgrwt>
<rscale>  2 0.23074080E+02</rscale>
<asrwt>0</asrwt>
<pdfrwt beam="1">  1       21 0.40953708E-02 0.23074080E+02</pdfrwt>
<pdfrwt beam="2">  1       21 0.80931713E-02 0.23074080E+02</pdfrwt>
<totfact> 0.32411859E+07</totfact>
</mgrwt>
</event>
<event>
 4    1  0.3999109E+006  0.4748783E+01  0.7546771E-02  0.2613747E+00
         21   -1    0    0  501  502  0.00000000000E+00  0.00000000000E+00  0.32288871351E+00  0.32288871351E+00  0.00000000000E+00 0. -1.
         21   -1    0    0  502  503 -0.00000000000E+00 -0.00000000000E+00 -0.17587745774E+03  0.17587745774E+03  0.00000000000E+00 0. -1.
          5    1    1    2  501    0 -0.49656538816E+00 -0.46299096491E+00 -0.19370551116E+02  0.19944151733E+02  0.47000000000E+01 0. -1.
         -5    1    1    2    0  503  0.49656538816E+00  0.46299096491E+00 -0.15618401792E+03  0.15625619472E+03  0.47000000000E+01 0. -1.
<mgrwt>
<rscale>  2 0.47487828E+01</rscale>
<asrwt>0</asrwt>
<pdfrwt beam="1">  1       21 0.49675201E-04 0.47487828E+01</pdfrwt>
<pdfrwt beam="2">  1       21 0.27058063E-01 0.47487828E+01</pdfrwt>
<totfact> 0.11092906E+09</totfact>
</mgrwt>
</event>
<event>
 4    1  0.3999109E+006  0.5198101E+01  0.7546771E-02  0.2533167E+00
         21   -1    0    0  503  502  0.00000000000E+00  0.00000000000E+00  0.16752011353E+01  0.16752011353E+01  0.00000000000E+00 0. -1.
         21   -1    0    0  501  503 -0.00000000000E+00 -0.00000000000E+00 -0.16177931177E+02  0.16177931177E+02  0.00000000000E+00 0.  1.
          5    1    1    2  501    0  0.54892279849E+00  0.21514975701E+01 -0.77394709673E+01  0.93230718589E+01  0.47000000000E+01 0. -1.
         -5    1    1    2    0  502 -0.54892279849E+00 -0.21514975701E+01 -0.67632590745E+01  0.85300604535E+01  0.47000000000E+01 0.  1.
<mgrwt>
<rscale>  2 0.51981014E+01</rscale>
<asrwt>0</asrwt>
<pdfrwt beam="1">  1       21 0.25772324E-03 0.51981014E+01</pdfrwt>
<pdfrwt beam="2">  1       21 0.24889126E-02 0.51981014E+01</pdfrwt>
<totfact> 0.49195387E+09</totfact>
</mgrwt>
</event>
<event>
 4    1  0.3999109E+006  0.7688321E+01  0.7546771E-02  0.2236730E+00
         21   -1    0    0  501  502  0.00000000000E+00  0.00000000000E+00  0.35624638383E+03  0.35624638383E+03  0.00000000000E+00 0.  1.
         21   -1    0    0  502  503 -0.00000000000E+00 -0.00000000000E+00 -0.20953159073E+00  0.20953159073E+00  0.00000000000E+00 0. -1.
          5    1    1    2  501    0  0.15762572025E+00 -0.60823871296E+01  0.25932502134E+03  0.25943896580E+03  0.47000000000E+01 0.  1.
         -5    1    1    2    0  503 -0.15762572025E+00  0.60823871296E+01  0.96711830896E+02  0.97016949624E+02  0.47000000000E+01 0. -1.
<mgrwt>
<rscale>  2 0.76883210E+01</rscale>
<asrwt>0</asrwt>
<pdfrwt beam="1">  1       21 0.54806651E-01 0.76883210E+01</pdfrwt>
<pdfrwt beam="2">  1       21 0.32235914E-04 0.76883210E+01</pdfrwt>
<totfact> 0.83131559E+08</totfact>
</mgrwt>
</event>
<event>
 4    1  0.3999109E+006  0.7771993E+01  0.7546771E-02  0.2229553E+00
         21   -1    0    0  503  502  0.00000000000E+00  0.00000000000E+00  0.78189484119E+01  0.78189484119E+01  0.00000000000E+00 0. -1.
         21   -1    0    0  501  503 -0.00000000000E+00 -0.00000000000E+00 -0.13807579751E+02  0.13807579751E+02  0.00000000000E+00 0. -1.
          5    1    1    2  501    0 -0.29624580989E+01  0.54348614866E+01 -0.10171110260E+02  0.12800600037E+02  0.47000000000E+01 0. -1.
         -5    1    1    2    0  502  0.29624580989E+01 -0.54348614866E+01  0.41824789213E+01  0.88259281265E+01  0.47000000000E+01 0. -1.
<mgrwt>
<rscale>  2 0.77719931E+01</rscale>
<asrwt>0</asrwt>
<pdfrwt beam="1">  1       21 0.12029152E-02 0.77719931E+01</pdfrwt>
<pdfrwt beam="2">  1       21 0.21242430E-02 0.77719931E+01</pdfrwt>
<totfact> 0.10081584E+09</totfact>
</mgrwt>
</event>
<event>
 4    1  0.3999109E+006  0.7748912E+01  0.7546771E-02  0.2231520E+00
         21   -1    0    0  501  502  0.00000000000E+00  0.00000000000E+00  0.70205280932E+03  0.70205280932E+03  0.00000000000E+00 0.  1.
         21   -1    0    0  502  503 -0.00000000000E+00 -0.00000000000E+00 -0.85728250317E-01  0.85728250317E-01  0.00000000000E+00 0.  1.
          5    1    1    2  501    0  0.61559021316E+01 -0.24598411173E+00  0.36792284595E+03  0.36800443776E+03  0.47000000000E+01 0.  1.
         -5    1    1    2    0  503 -0.61559021316E+01  0.24598411173E+00  0.33404423512E+03  0.33413409981E+03  0.47000000000E+01 0.  1.
<mgrwt>
<rscale>  2 0.77489121E+01</rscale>
<asrwt>0</asrwt>
<pdfrwt beam="1">  1       21 0.10800352E+00 0.77489121E+01</pdfrwt>
<pdfrwt beam="2">  1       21 0.13189524E-04 0.77489121E+01</pdfrwt>
<totfact> 0.73179652E+08</totfact>
</mgrwt>
</event>
<event>
 4    1  0.3999109E+006  0.6716675E+01  0.7546771E-02  0.2330541E+00
         21   -1    0    0  503  502  0.00000000000E+00  0.00000000000E+00  0.17105481383E+02  0.17105481383E+02  0.00000000000E+00 0. -1.
         21   -1    0    0  501  503 -0.00000000000E+00 -0.00000000000E+00 -0.77876346323E+01  0.77876346323E+01  0.00000000000E+00 0.  1.
          5    1    1    2  501    0  0.46572212472E+01  0.11549953048E+01 -0.54629444819E+01  0.86577991610E+01  0.47000000000E+01 0.  1.
         -5    1    1    2    0  502 -0.46572212472E+01 -0.11549953048E+01  0.14780791233E+02  0.16235316855E+02  0.47000000000E+01 0. -1.
<mgrwt>
<rscale>  2 0.67166751E+01</rscale>
<asrwt>0</asrwt>
<pdfrwt beam="1">  1       21 0.26316125E-02 0.67166751E+01</pdfrwt>
<pdfrwt beam="2">  1       21 0.11980976E-02 0.67166751E+01</pdfrwt>
<totfact> 0.66867731E+08</totfact>
</mgrwt>
</event>
<event>
 4    1  0.3999109E+006  0.5514107E+01  0.7546771E-02  0.2483307E+00
         21   -1    0    0  501  502  0.00000000000E+00  0.00000000000E+00  0.39797723754E+03  0.39797723754E+03  0.00000000000E+00 0. -1.
         21   -1    0    0  502  503 -0.00000000000E+00 -0.00000000000E+00 -0.89365133389E-01  0.89365133389E-01  0.00000000000E+00 0. -1.
          5    1    1    2  501    0 -0.21369338272E+01  0.19362058418E+01  0.27475518066E+03  0.27481050686E+03  0.47000000000E+01 0. -1.
         -5    1    1    2    0  503  0.21369338272E+01 -0.19362058418E+01  0.12313269174E+03  0.12325609581E+03  0.47000000000E+01 0. -1.
<mgrwt>
<rscale>  2 0.55141073E+01</rscale>
<asrwt>0</asrwt>
<pdfrwt beam="1">  1       21 0.61225848E-01 0.55141073E+01</pdfrwt>
<pdfrwt beam="2">  1       21 0.13748801E-04 0.55141073E+01</pdfrwt>
<totfact> 0.16826180E+09</totfact>
</mgrwt>
</event>
<event>
 4    1  0.3999109E+006  0.1595173E+02  0.7546771E-02  0.1840343E+00
         21   -1    0    0  501  502  0.00000000000E+00  0.00000000000E+00  0.14337761069E+01  0.14337761069E+01  0.00000000000E+00 0.  1.
         21   -1    0    0  502  503 -0.00000000000E+00 -0.00000000000E+00 -0.17783351335E+03  0.17783351335E+03  0.00000000000E+00 0. -1.
          5    1    1    2  501    0  0.10383934421E+02 -0.11159825179E+02 -0.84168975848E+02  0.85667229950E+02  0.47000000000E+01 0.  1.
         -5    1    1    2    0  503 -0.10383934421E+02  0.11159825179E+02 -0.92230761394E+02  0.93600059505E+02  0.47000000000E+01 0. -1.
<mgrwt>
<rscale>  2 0.15951733E+02</rscale>
<asrwt>0</asrwt>
<pdfrwt beam="1">  1       21 0.22058079E-03 0.15951733E+02</pdfrwt>
<pdfrwt beam="2">  1       21 0.27359021E-01 0.15951733E+02</pdfrwt>
<totfact> 0.28962418E+08</totfact>
</mgrwt>
</event>
<event>
 4    1  0.3999109E+006  0.9039408E+01  0.7546771E-02  0.2134166E+00
         21   -1    0    0  503  502  0.00000000000E+00  0.00000000000E+00  0.29789574749E+01  0.29789574749E+01  0.00000000000E+00 0.  1.
         21   -1    0    0  501  503 -0.00000000000E+00 -0.00000000000E+00 -0.27770541454E+02  0.27770541454E+02  0.00000000000E+00 0.  1.
          5    1    1    2  501    0 -0.25637192962E+00  0.77172000621E+01 -0.10691644329E+02  0.14000791472E+02  0.47000000000E+01 0.  1.
         -5    1    1    2    0  502  0.25637192962E+00 -0.77172000621E+01 -0.14099939649E+02  0.16748707457E+02  0.47000000000E+01 0.  1.
<mgrwt>
<rscale>  2 0.90394084E+01</rscale>
<asrwt>0</asrwt>
<pdfrwt beam="1">  1       21 0.45830115E-03 0.90394084E+01</pdfrwt>
<pdfrwt beam="2">  1       21 0.42723910E-02 0.90394084E+01</pdfrwt>
<totfact> 0.15647686E+09</totfact>
</mgrwt>
</event>
<event>
 4    1  0.3999109E+006  0.6028357E+01  0.7546771E-02  0.2411747E+00
         21   -1    0    0  503  502  0.00000000000E+00  0.00000000000E+00  0.12080157505E+00  0.12080157505E+00  0.00000000000E+00 0.  1.
         21   -1    0    0  501  503 -0.00000000000E+00 -0.00000000000E+00 -0.31262563368E+03  0.31262563368E+03  0.00000000000E+00 0.  1.
          5    1    1    2  501    0  0.15136336975E+01  0.34583238624E+01 -0.18662326312E+03  0.18672060258E+03  0.47000000000E+01 0.  1.
         -5    1    1    2    0  502 -0.15136336975E+01 -0.34583238624E+01 -0.12588156899E+03  0.12602583268E+03  0.47000000000E+01 0.  1.
<mgrwt>
<rscale>  2 0.60283572E+01</rscale>
<asrwt>0</asrwt>
<pdfrwt beam="1">  1       21 0.18584861E-04 0.60283572E+01</pdfrwt>
<pdfrwt beam="2">  1       21 0.48096244E-01 0.60283572E+01</pdfrwt>
<totfact> 0.18723843E+09</totfact>
</mgrwt>
</event>
<event>
 4    1  0.3999109E+006  0.4980858E+01  0.7546771E-02  0.2570561E+00
         21   -1    0    0  503  502  0.00000000000E+00  0.00000000000E+00  0.20332938268E+01  0.20332938268E+01  0.00000000000E+00 0. -1.
         21   -1    0    0  501  503 -0.00000000000E+00 -0.00000000000E+00 -0.13118590748E+02  0.13118590748E+02  0.00000000000E+00 0. -1.
          5    1    1    2  501    0 -0.76780526903E+00  0.14592543733E+01 -0.75458865406E+01  0.90415348222E+01  0.47000000000E+01 0.  1.
         -5    1    1    2    0  502  0.76780526903E+00 -0.14592543733E+01 -0.35394103808E+01  0.61103497527E+01  0.47000000000E+01 0.  1.
<mgrwt>
<rscale>  2 0.49808582E+01</rscale>
<asrwt>0</asrwt>
<pdfrwt beam="1">  1       21 0.31281442E-03 0.49808582E+01</pdfrwt>
<pdfrwt beam="2">  1       21 0.20182448E-02 0.49808582E+01</pdfrwt>
<totfact> 0.48747307E+09</totfact>
</mgrwt>
</event>
<event>
 4    1  0.3999109E+006  0.4884875E+01  0.7546771E-02  0.2587991E+00
         21   -1    0    0  503  502  0.00000000000E+00  0.00000000000E+00  0.35328262818E+02  0.35328262818E+02  0.00000000000E+00 0.  1.
         21   -1    0    0  501  503 -0.00000000000E+00 -0.00000000000E+00 -0.20312677807E+01  0.20312677807E+01  0.00000000000E+00 0. -1.
          5    1    1    2  501    0  0.11731685428E+01  0.62902877181E+00  0.13872289761E+01  0.50780316913E+01  0.47000000000E+01 0. -1.
         -5    1    1    2    0  502 -0.11731685428E+01 -0.62902877181E+00  0.31909766062E+02  0.32281498908E+02  0.47000000000E+01 0.  1.
<mgrwt>
<rscale>  2 0.48848748E+01</rscale>
<asrwt>0</asrwt>
<pdfrwt beam="1">  1       21 0.54351169E-02 0.48848748E+01</pdfrwt>
<pdfrwt beam="2">  1       21 0.31250276E-03 0.48848748E+01</pdfrwt>
<totfact> 0.11502988E+09</totfact>
</mgrwt>
</event>
<event>
 4    1  0.3999109E+006  0.5177207E+01  0.7546771E-02  0.2536646E+00
         21   -1    0    0  501  502  0.00000000000E+00  0.00000000000E+00  0.98665320267E+02  0.98665320267E+02  0.00000000000E+00 0.  1.
         21   -1    0    0  502  503 -0.00000000000E+00 -0.00000000000E+00 -0.51401539890E+00  0.51401539890E+00  0.00000000000E+00 0.  1.
          5    1    1    2  501    0  0.20868463700E+01 -0.59878217755E+00  0.83126588661E+02  0.83287653408E+02  0.47000000000E+01 0.  1.
         -5    1    1    2    0  503 -0.20868463700E+01  0.59878217755E+00  0.15024716207E+02  0.15891682257E+02  0.47000000000E+01 0.  1.
<mgrwt>
<rscale>  2 0.51772066E+01</rscale>
<asrwt>0</asrwt>
<pdfrwt beam="1">  1       21 0.15179265E-01 0.51772066E+01</pdfrwt>
<pdfrwt beam="2">  1       21 0.79079371E-04 0.51772066E+01</pdfrwt>
<totfact> 0.16301247E+09</totfact>
</mgrwt>
</event>
<event>
 4    1  0.3999109E+006  0.8503561E+01  0.7546771E-02  0.2171711E+00
         21   -1    0    0  501  502  0.00000000000E+00  0.00000000000E+00  0.46005199231E+00  0.46005199231E+00  0.00000000000E+00 0.  1.
         21   -1    0    0  502  503 -0.00000000000E+00 -0.00000000000E+00 -0.16023877101E+03  0.16023877101E+03  0.00000000000E+00 0. -1.
          5    1    1    2  501    0 -0.24981792322E+01 -0.66317149281E+01 -0.68786401643E+02  0.69310025201E+02  0.47000000000E+01 0. -1.
         -5    1    1    2    0  503  0.24981792322E+01  0.66317149281E+01 -0.90992317379E+02  0.91388797806E+02  0.47000000000E+01 0.  1.
<mgrwt>
<rscale>  2 0.85035606E+01</rscale>
<asrwt>0</asrwt>
<pdfrwt beam="1">  1       21 0.70777147E-04 0.85035606E+01</pdfrwt>
<pdfrwt beam="2">  1       21 0.24652147E-01 0.85035606E+01</pdfrwt>
<totfact> 0.12487628E+09</totfact>
</mgrwt>
</event>
<event>
 4    1  0.3999109E+006  0.7318575E+01  0.7546771E-02  0.2270027E+00
         21   -1    0    0  503  502  0.00000000000E+00  0.00000000000E+00  0.18948933433E+03  0.18948933433E+03  0.00000000000E+00 0.  1.
         21   -1    0    0  501  503 -0.00000000000E+00 -0.00000000000E+00 -0.53052909507E+00  0.53052909507E+00  0.00000000000E+00 0. -1.
          5    1    1    2  501    0 -0.51167662151E+01 -0.23000545034E+01  0.29537752597E+02  0.30430911516E+02  0.47000000000E+01 0. -1.
         -5    1    1    2    0  502  0.51167662151E+01  0.23000545034E+01  0.15942105263E+03  0.15958895191E+03  0.47000000000E+01 0.  1.
<mgrwt>
<rscale>  2 0.73185755E+01</rscale>
<asrwt>0</asrwt>
<pdfrwt beam="1">  1       21 0.29152151E-01 0.73185755E+01</pdfrwt>
<pdfrwt beam="2">  1       21 0.81620012E-04 0.73185755E+01</pdfrwt>
<totfact> 0.70440813E+08</totfact>
</mgrwt>
</event>
<event>
 4    1  0.3999109E+006  0.5822414E+01  0.7546771E-02  0.2439126E+00
         21   -1    0    0  501  502  0.00000000000E+00  0.00000000000E+00  0.36115361507E+00  0.36115361507E+00  0.00000000000E+00 0. -1.
         21   -1    0    0  502  503 -0.00000000000E+00 -0.00000000000E+00 -0.11043947998E+03  0.11043947998E+03  0.00000000000E+00 0.  1.
          5    1    1    2  501    0  0.25931058607E+01 -0.22552844163E+01 -0.33578644403E+02  0.34079698733E+02  0.47000000000E+01 0. -1.
         -5    1    1    2    0  503 -0.25931058607E+01  0.22552844163E+01 -0.76499681967E+02  0.76720934867E+02  0.47000000000E+01 0.  1.
<mgrwt>
<rscale>  2 0.58224141E+01</rscale>
<asrwt>0</asrwt>
<pdfrwt beam="1">  1       21 0.55562101E-04 0.58224141E+01</pdfrwt>
<pdfrwt beam="2">  1       21 0.16990687E-01 0.58224141E+01</pdfrwt>
<totfact> 0.24216668E+09</totfact>
</mgrwt>
</event>
<event>
 4    1  0.3999109E+006  0.6785792E+01  0.7546771E-02  0.2323146E+00
         21   -1    0    0  503  502  0.00000000000E+00  0.00000000000E+00  0.22355429682E+03  0.22355429682E+03  0.00000000000E+00 0. -1.
         21   -1    0    0  501  503 -0.00000000000E+00 -0.00000000000E+00 -0.94016356993E+00  0.94016356993E+00  0.00000000000E+00 0.  1.
          5    1    1    2  501    0 -0.30292264677E+01 -0.38445759408E+01  0.12114933613E+02  0.13885913496E+02  0.47000000000E+01 0.  1.
         -5    1    1    2    0  502  0.30292264677E+01  0.38445759408E+01  0.21049919963E+03  0.21060854689E+03  0.47000000000E+01 0. -1.
<mgrwt>
<rscale>  2 0.67857923E+01</rscale>
<asrwt>0</asrwt>
<pdfrwt beam="1">  1       21 0.34392926E-01 0.67857923E+01</pdfrwt>
<pdfrwt beam="2">  1       21 0.14464073E-03 0.67857923E+01</pdfrwt>
<totfact> 0.23264081E+08</totfact>
</mgrwt>
</event>
<event>
 4    1  0.3999109E+006  0.5282835E+01  0.7546771E-02  0.2519299E+00
         21   -1    0    0  501  502  0.00000000000E+00  0.00000000000E+00  0.29842521138E+02  0.29842521138E+02  0.00000000000E+00 0. -1.
         21   -1    0    0  502  503 -0.00000000000E+00 -0.00000000000E+00 -0.94357238375E+00  0.94357238375E+00  0.00000000000E+00 0. -1.
          5    1    1    2  501    0 -0.20517117558E+01  0.12683946602E+01  0.12998394822E+02  0.14030916367E+02  0.47000000000E+01 0. -1.
         -5    1    1    2    0  503  0.20517117558E+01 -0.12683946602E+01  0.15900553932E+02  0.16755177155E+02  0.47000000000E+01 0. -1.
<mgrwt>
<rscale>  2 0.52828350E+01</rscale>
<asrwt>0</asrwt>
<pdfrwt beam="1">  1       21 0.45911564E-02 0.52828350E+01</pdfrwt>
<pdfrwt beam="2">  1       21 0.14516501E-03 0.52828350E+01</pdfrwt>
<totfact> 0.44742656E+09</totfact>
</mgrwt>
</event>
<event>
 4    1  0.3999109E+006  0.6200068E+01  0.7546771E-02  0.2390090E+00
         21   -1    0    0  501  502  0.00000000000E+00  0.00000000000E+00  0.94445492691E+00  0.94445492691E+00  0.00000000000E+00 0.  1.
         21   -1    0    0  502  503 -0.00000000000E+00 -0.00000000000E+00 -0.10846043330E+03  0.10846043330E+03  0.00000000000E+00 0.  1.
          5    1    1    2  501    0  0.37364211478E+01 -0.15459641857E+01 -0.10521148755E+02  0.12212101350E+02  0.47000000000E+01 0.  1.
         -5    1    1    2    0  503 -0.37364211478E+01  0.15459641857E+01 -0.96994829621E+02  0.97192786880E+02  0.47000000000E+01 0.  1.
<mgrwt>
<rscale>  2 0.62000684E+01</rscale>
<asrwt>0</asrwt>
<pdfrwt beam="1">  1       21 0.14530085E-03 0.62000684E+01</pdfrwt>
<pdfrwt beam="2">  1       21 0.16686210E-01 0.62000684E+01</pdfrwt>
<totfact> 0.72024699E+08</totfact>
</mgrwt>
</event>
<event>
 4    1  0.3999109E+006  0.6292395E+01  0.7546771E-02  0.2378854E+00
         21   -1    0    0  501  502  0.00000000000E+00  0.00000000000E+00  0.14424833389E+03  0.14424833389E+03  0.00000000000E+00 0. -1.
         21   -1    0    0  502  503 -0.00000000000E+00 -0.00000000000E+00 -0.32865046944E+00  0.32865046944E+00  0.00000000000E+00 0.  1.
          5    1    1    2  501    0 -0.41772474666E+01 -0.23416889885E+00  0.10130638609E+03  0.10150161622E+03  0.47000000000E+01 0. -1.
         -5    1    1    2    0  503  0.41772474666E+01  0.23416889885E+00  0.42613297331E+02  0.43075368146E+02  0.47000000000E+01 0.  1.
<mgrwt>
<rscale>  2 0.62923947E+01</rscale>
<asrwt>0</asrwt>
<pdfrwt beam="1">  1       21 0.22192001E-01 0.62923947E+01</pdfrwt>
<pdfrwt beam="2">  1       21 0.50561726E-04 0.62923947E+01</pdfrwt>
<totfact> 0.19020548E+09</totfact>
</mgrwt>
</event>
<event>
 4    1  0.3999109E+006  0.1518168E+02  0.7546771E-02  0.1862575E+00
         21   -1    0    0  501  502  0.00000000000E+00  0.00000000000E+00  0.12022391417E+01  0.12022391417E+01  0.00000000000E+00 0. -1.
         21   -1    0    0  502  503 -0.00000000000E+00 -0.00000000000E+00 -0.23544331406E+03  0.23544331406E+03  0.00000000000E+00 0.  1.
          5    1    1    2  501    0 -0.11534183365E+02  0.86807796877E+01 -0.66126091913E+02  0.67846468984E+02  0.47000000000E+01 0. -1.
         -5    1    1    2    0  503  0.11534183365E+02 -0.86807796877E+01 -0.16811498301E+03  0.16879908422E+03  0.47000000000E+01 0.  1.
<mgrwt>
<rscale>  2 0.15181677E+02</rscale>
<asrwt>0</asrwt>
<pdfrwt beam="1">  1       21 0.18495999E-03 0.15181677E+02</pdfrwt>
<pdfrwt beam="2">  1       21 0.36222024E-01 0.15181677E+02</pdfrwt>
<totfact> 0.22075768E+08</totfact>
</mgrwt>
</event>
<event>
 4    1  0.3999109E+006  0.8349390E+01  0.7546771E-02  0.2183222E+00
         21   -1    0    0  503  502  0.00000000000E+00  0.00000000000E+00  0.17318251137E+03  0.17318251137E+03  0.00000000000E+00 0.  1.
         21   -1    0    0  501  503 -0.00000000000E+00 -0.00000000000E+00 -0.46305407505E+00  0.46305407505E+00  0.00000000000E+00 0. -1.
          5    1    1    2  501    0 -0.23896767470E+01 -0.64739294536E+01  0.54972146072E+02  0.55602600310E+02  0.47000000000E+01 0. -1.
         -5    1    1    2    0  502  0.23896767470E+01  0.64739294536E+01  0.11774731122E+03  0.11804296513E+03  0.47000000000E+01 0.  1.
<mgrwt>
<rscale>  2 0.83493902E+01</rscale>
<asrwt>0</asrwt>
<pdfrwt beam="1">  1       21 0.26643412E-01 0.83493902E+01</pdfrwt>
<pdfrwt beam="2">  1       21 0.71239227E-04 0.83493902E+01</pdfrwt>
<totfact> 0.10729569E+09</totfact>
</mgrwt>
</event>
<event>
 4    1  0.3999109E+006  0.5585711E+01  0.7546771E-02  0.2472679E+00
         21   -1    0    0  501  502  0.00000000000E+00  0.00000000000E+00  0.19565099599E+02  0.19565099599E+02  0.00000000000E+00 0.  1.
         21   -1    0    0  502  503 -0.00000000000E+00 -0.00000000000E+00 -0.34634663321E+01  0.34634663321E+01  0.00000000000E+00 0.  1.
          5    1    1    2  501    0 -0.16151207770E+01  0.25498150077E+01  0.16508679738E+02  0.17428042873E+02  0.47000000000E+01 0.  1.
         -5    1    1    2    0  503  0.16151207770E+01 -0.25498150077E+01 -0.40704647072E+00  0.56005230583E+01  0.47000000000E+01 0.  1.
<mgrwt>
<rscale>  2 0.55857114E+01</rscale>
<asrwt>0</asrwt>
<pdfrwt beam="1">  1       21 0.30100153E-02 0.55857114E+01</pdfrwt>
<pdfrwt beam="2">  1       21 0.53284099E-03 0.55857114E+01</pdfrwt>
<totfact> 0.14811049E+09</totfact>
</mgrwt>
</event>
<event>
 4    1  0.3999109E+006  0.6716315E+01  0.7546771E-02  0.2330580E+00
         21   -1    0    0  501  502  0.00000000000E+00  0.00000000000E+00  0.76959419385E+00  0.76959419385E+00  0.00000000000E+00 0. -1.
         21   -1    0    0  502  503 -0.00000000000E+00 -0.00000000000E+00 -0.69123957429E+02  0.69123957429E+02  0.00000000000E+00 0.  1.
          5    1    1    2  501    0  0.17328905565E+01 -0.44739221949E+01 -0.20550311916E+02  0.21619995590E+02  0.47000000000E+01 0.  1.
         -5    1    1    2    0  503 -0.17328905565E+01  0.44739221949E+01 -0.47804051319E+02  0.48273556032E+02  0.47000000000E+01 0. -1.
<mgrwt>
<rscale>  2 0.67163152E+01</rscale>
<asrwt>0</asrwt>
<pdfrwt beam="1">  1       21 0.11839908E-03 0.67163152E+01</pdfrwt>
<pdfrwt beam="2">  1       21 0.10634458E-01 0.67163152E+01</pdfrwt>
<totfact> 0.20516157E+09</totfact>
</mgrwt>
</event>
<event>
 4    1  0.3999109E+006  0.5177221E+01  0.7546771E-02  0.2536644E+00
         21   -1    0    0  503  502  0.00000000000E+00  0.00000000000E+00  0.12759966953E+01  0.12759966953E+01  0.00000000000E+00 0.  1.
         21   -1    0    0  501  503 -0.00000000000E+00 -0.00000000000E+00 -0.25481389359E+02  0.25481389359E+02  0.00000000000E+00 0.  1.
          5    1    1    2  501    0 -0.88181493156E+00 -0.19839401251E+01 -0.64958786916E+01  0.83066272319E+01  0.47000000000E+01 0.  1.
         -5    1    1    2    0  502  0.88181493156E+00  0.19839401251E+01 -0.17709513972E+02  0.18450758823E+02  0.47000000000E+01 0.  1.
<mgrwt>
<rscale>  2 0.51772209E+01</rscale>
<asrwt>0</asrwt>
<pdfrwt beam="1">  1       21 0.19630718E-03 0.51772209E+01</pdfrwt>
<pdfrwt beam="2">  1       21 0.39202139E-02 0.51772209E+01</pdfrwt>
<totfact> 0.36784690E+09</totfact>
</mgrwt>
</event>
<event>
 4    1  0.3999109E+006  0.5416757E+01  0.7546771E-02  0.2498139E+00
         21   -1    0    0  503  502  0.00000000000E+00  0.00000000000E+00  0.79958859763E-01  0.79958859763E-01  0.00000000000E+00 0. -1.
         21   -1    0    0  501  503 -0.00000000000E+00 -0.00000000000E+00 -0.53470592324E+03  0.53470592324E+03  0.00000000000E+00 0. -1.
          5    1    1    2  501    0  0.79963167501E+00 -0.25713512332E+01 -0.41708325991E+03  0.41711843277E+03  0.47000000000E+01 0. -1.
         -5    1    1    2    0  502 -0.79963167501E+00  0.25713512332E+01 -0.11754270447E+03  0.11766744933E+03  0.47000000000E+01 0. -1.
<mgrwt>
<rscale>  2 0.54167571E+01</rscale>
<asrwt>0</asrwt>
<pdfrwt beam="1">  1       21 0.12301230E-04 0.54167571E+01</pdfrwt>
<pdfrwt beam="2">  1       21 0.82263340E-01 0.54167571E+01</pdfrwt>
<totfact> 0.10998588E+09</totfact>
</mgrwt>
</event>
<event>
 4    1  0.3999109E+006  0.5306407E+01  0.7546771E-02  0.2515509E+00
         21   -1    0    0  501  502  0.00000000000E+00  0.00000000000E+00  0.86958011541E+01  0.86958011541E+01  0.00000000000E+00 0. -1.
         21   -1    0    0  502  503 -0.00000000000E+00 -0.00000000000E+00 -0.59577695497E+01  0.59577695497E+01  0.00000000000E+00 0.  1.
          5    1    1    2  501    0 -0.24629078079E+01  0.45154840235E-01  0.63192865432E+01  0.82517474661E+01  0.47000000000E+01 0. -1.
         -5    1    1    2    0  503  0.24629078079E+01 -0.45154840235E-01 -0.35812549387E+01  0.64018232376E+01  0.47000000000E+01 0.  1.
<mgrwt>
<rscale>  2 0.53064069E+01</rscale>
<asrwt>0</asrwt>
<pdfrwt beam="1">  1       21 0.13378156E-02 0.53064069E+01</pdfrwt>
<pdfrwt beam="2">  1       21 0.91657993E-03 0.53064069E+01</pdfrwt>
<totfact> 0.21136671E+09</totfact>
</mgrwt>
</event>
<event>
 4    1  0.3999109E+006  0.4912655E+01  0.7546771E-02  0.2582886E+00
         21   -1    0    0  503  502  0.00000000000E+00  0.00000000000E+00  0.59315625679E-01  0.59315625679E-01  0.00000000000E+00 0.  1.
         21   -1    0    0  501  503 -0.00000000000E+00 -0.00000000000E+00 -0.40971711619E+03  0.40971711619E+03  0.00000000000E+00 0.  1.
          5    1    1    2  501    0 -0.28266081126E+00  0.14015289706E+01 -0.22188663580E+03  0.22194101317E+03  0.47000000000E+01 0.  1.
         -5    1    1    2    0  502  0.28266081126E+00 -0.14015289706E+01 -0.18777116477E+03  0.18783541865E+03  0.47000000000E+01 0.  1.
<mgrwt>
<rscale>  2 0.49126551E+01</rscale>
<asrwt>0</asrwt>
<pdfrwt beam="1">  1       21 0.91260087E-05 0.49126551E+01</pdfrwt>
<pdfrwt beam="2">  1       21 0.63029757E-01 0.49126551E+01</pdfrwt>
<totfact> 0.24962731E+09</totfact>
</mgrwt>
</event>
<event>
 4    1  0.3999109E+006  0.4791388E+01  0.7546771E-02  0.2605547E+00
         21   -1    0    0  501  502  0.00000000000E+00  0.00000000000E+00  0.94661478577E+01  0.94661478577E+01  0.00000000000E+00 0. -1.
         21   -1    0    0  502  503 -0.00000000000E+00 -0.00000000000E+00 -0.68392514757E+01  0.68392514757E+01  0.00000000000E+00 0. -1.
          5    1    1    2  501    0 -0.67194246870E-02  0.93131655483E+00  0.78630570719E+01  0.92078804397E+01  0.47000000000E+01 0. -1.
         -5    1    1    2    0  503  0.67194246870E-02 -0.93131655483E+00 -0.52361606898E+01  0.70975188937E+01  0.47000000000E+01 0. -1.
<mgrwt>
<rscale>  2 0.47913877E+01</rscale>
<asrwt>0</asrwt>
<pdfrwt beam="1">  1       21 0.14563304E-02 0.47913877E+01</pdfrwt>
<pdfrwt beam="2">  1       21 0.10521925E-02 0.47913877E+01</pdfrwt>
<totfact> 0.13989106E+09</totfact>
</mgrwt>
</event>
<event>
 4    1  0.3999109E+006  0.5098071E+01  0.7546771E-02  0.2550045E+00
         21   -1    0    0  501  502  0.00000000000E+00  0.00000000000E+00  0.90246492186E+02  0.90246492186E+02  0.00000000000E+00 0.  1.
         21   -1    0    0  502  503 -0.00000000000E+00 -0.00000000000E+00 -0.17823384280E+01  0.17823384280E+01  0.00000000000E+00 0.  1.
          5    1    1    2  501    0 -0.11709250800E+01 -0.15903667323E+01  0.86365269054E+02  0.86515605706E+02  0.47000000000E+01 0.  1.
         -5    1    1    2    0  503  0.11709250800E+01  0.15903667323E+01  0.20988847039E+01  0.55132249080E+01  0.47000000000E+01 0.  1.
<mgrwt>
<rscale>  2 0.50980714E+01</rscale>
<asrwt>0</asrwt>
<pdfrwt beam="1">  1       21 0.13884072E-01 0.50980714E+01</pdfrwt>
<pdfrwt beam="2">  1       21 0.27420598E-03 0.50980714E+01</pdfrwt>
<totfact> 0.34882726E+08</totfact>
</mgrwt>
</event>
<event>
 4    1  0.3999109E+006  0.7668017E+01  0.7546771E-02  0.2238491E+00
         21   -1    0    0  503  502  0.00000000000E+00  0.00000000000E+00  0.31836980104E+03  0.31836980104E+03  0.00000000000E+00 0. -1.
         21   -1    0    0  501  503 -0.00000000000E+00 -0.00000000000E+00 -0.34181712373E+00  0.34181712373E+00  0.00000000000E+00 0. -1.
          5    1    1    2  501    0  0.56438492896E+01  0.22035102348E+01  0.50969683088E+02  0.51543254517E+02  0.47000000000E+01 0. -1.
         -5    1    1    2    0  502 -0.56438492896E+01 -0.22035102348E+01  0.26705830083E+03  0.26716836365E+03  0.47000000000E+01 0. -1.
<mgrwt>
<rscale>  2 0.76680175E+01</rscale>
<asrwt>0</asrwt>
<pdfrwt beam="1">  1       21 0.48979732E-01 0.76680175E+01</pdfrwt>
<pdfrwt beam="2">  1       21 0.52587504E-04 0.76680175E+01</pdfrwt>
<totfact> 0.52708297E+08</totfact>
</mgrwt>
</event>
<event>
 4    1  0.3999109E+006  0.4844864E+01  0.7546771E-02  0.2595433E+00
         21   -1    0    0  501  502  0.00000000000E+00  0.00000000000E+00  0.93386874603E+02  0.93386874603E+02  0.00000000000E+00 0. -1.
         21   -1    0    0  502  503 -0.00000000000E+00 -0.00000000000E+00 -0.31629584111E+00  0.31629584111E+00  0.00000000000E+00 0. -1.
          5    1    1    2  501    0 -0.51497515935E+00 -0.10571239426E+01  0.25304990730E+02  0.25764612675E+02  0.47000000000E+01 0. -1.
         -5    1    1    2    0  503  0.51497515935E+00  0.10571239426E+01  0.67765588032E+02  0.67938557770E+02  0.47000000000E+01 0. -1.
<mgrwt>
<rscale>  2 0.48448643E+01</rscale>
<asrwt>0</asrwt>
<pdfrwt beam="1">  1       21 0.14367190E-01 0.48448643E+01</pdfrwt>
<pdfrwt beam="2">  1       21 0.48660973E-04 0.48448643E+01</pdfrwt>
<totfact> 0.31700978E+09</totfact>
</mgrwt>
</event>
<event>
 4    1  0.3999109E+006  0.6105131E+01  0.7546771E-02  0.2401938E+00
         21   -1    0    0  503  502  0.00000000000E+00  0.00000000000E+00  0.85527262343E+02  0.85527262343E+02  0.00000000000E+00 0.  1.
         21   -1    0    0  501  503 -0.00000000000E+00 -0.00000000000E+00 -0.77005697333E+00  0.77005697333E+00  0.00000000000E+00 0. -1.
          5    1    1    2  501    0  0.21746118287E+01  0.32332163170E+01  0.13950537142E+02  0.15227938499E+02  0.47000000000E+01 0. -1.
         -5    1    1    2    0  502 -0.21746118287E+01 -0.32332163170E+01  0.70806668227E+02  0.71069380818E+02  0.47000000000E+01 0.  1.
<mgrwt>
<rscale>  2 0.61051310E+01</rscale>
<asrwt>0</asrwt>
<pdfrwt beam="1">  1       21 0.13158033E-01 0.61051310E+01</pdfrwt>
<pdfrwt beam="2">  1       21 0.11847037E-03 0.61051310E+01</pdfrwt>
<totfact> 0.13648133E+09</totfact>
</mgrwt>
</event>
<event>
 4    1  0.3999109E+006  0.6374286E+01  0.7546771E-02  0.2369115E+00
         21   -1    0    0  503  502  0.00000000000E+00  0.00000000000E+00  0.19572086358E+02  0.19572086358E+02  0.00000000000E+00 0.  1.
         21   -1    0    0  501  503 -0.00000000000E+00 -0.00000000000E+00 -0.21529948489E+01  0.21529948489E+01  0.00000000000E+00 0.  1.
          5    1    1    2  501    0 -0.42848179317E+01 -0.42645115083E+00  0.66552692137E+01  0.92154291055E+01  0.47000000000E+01 0.  1.
         -5    1    1    2    0  502  0.42848179317E+01  0.42645115083E+00  0.10763822295E+02  0.12509652101E+02  0.47000000000E+01 0.  1.
<mgrwt>
<rscale>  2 0.63742863E+01</rscale>
<asrwt>0</asrwt>
<pdfrwt beam="1">  1       21 0.30110901E-02 0.63742863E+01</pdfrwt>
<pdfrwt beam="2">  1       21 0.33122999E-03 0.63742863E+01</pdfrwt>
<totfact> 0.32032144E+09</totfact>
</mgrwt>
</event>
<event>
 4    1  0.3999109E+006  0.6281266E+01  0.7546771E-02  0.2380193E+00
         21   -1    0    0  503  502  0.00000000000E+00  0.00000000000E+00  0.86288800051E+00  0.86288800051E+00  0.00000000000E+00 0.  1.
         21   -1    0    0  501  503 -0.00000000000E+00 -0.00000000000E+00 -0.72046888769E+02  0.72046888769E+02  0.00000000000E+00 0.  1.
          5    1    1    2  501    0  0.28613784276E+01 -0.30293266520E+01 -0.57627282093E+02  0.57968594497E+02  0.47000000000E+01 0.  1.
         -5    1    1    2    0  502 -0.28613784276E+01  0.30293266520E+01 -0.13556718676E+02  0.14941182273E+02  0.47000000000E+01 0.  1.
<mgrwt>
<rscale>  2 0.62812663E+01</rscale>
<asrwt>0</asrwt>
<pdfrwt beam="1">  1       21 0.13275201E-03 0.62812663E+01</pdfrwt>
<pdfrwt beam="2">  1       21 0.11084136E-01 0.62812663E+01</pdfrwt>
<totfact> 0.15635425E+09</totfact>
</mgrwt>
</event>
<event>
 4    1  0.3999109E+006  0.8445057E+01  0.7546771E-02  0.2176040E+00
         21   -1    0    0  501  502  0.00000000000E+00  0.00000000000E+00  0.76215308443E+02  0.76215308443E+02  0.00000000000E+00 0. -1.
         21   -1    0    0  502  503 -0.00000000000E+00 -0.00000000000E+00 -0.95651330623E+00  0.95651330623E+00  0.00000000000E+00 0.  1.
          5    1    1    2  501    0 -0.40702269482E+01 -0.57150893308E+01  0.31945315617E+02  0.33042732686E+02  0.47000000000E+01 0.  1.
         -5    1    1    2    0  503  0.40702269482E+01  0.57150893308E+01  0.43313479520E+02  0.44129089064E+02  0.47000000000E+01 0. -1.
<mgrwt>
<rscale>  2 0.84450573E+01</rscale>
<asrwt>0</asrwt>
<pdfrwt beam="1">  1       21 0.11725427E-01 0.84450573E+01</pdfrwt>
<pdfrwt beam="2">  1       21 0.14715595E-03 0.84450573E+01</pdfrwt>
<totfact> 0.15370236E+09</totfact>
</mgrwt>
</event>
<event>
 4    1  0.3999109E+006  0.1133762E+02  0.7546771E-02  0.2006004E+00
         21   -1    0    0  501  502  0.00000000000E+00  0.00000000000E+00  0.40437265306E+03  0.40437265306E+03  0.00000000000E+00 0.  1.
         21   -1    0    0  502  503 -0.00000000000E+00 -0.00000000000E+00 -0.40231673916E+00  0.40231673916E+00  0.00000000000E+00 0. -1.
          5    1    1    2  501    0  0.62402664873E+00 -0.10298655091E+02  0.29470381077E+03  0.29492181640E+03  0.47000000000E+01 0.  1.
         -5    1    1    2    0  503 -0.62402664873E+00  0.10298655091E+02  0.10926652555E+03  0.10985315340E+03  0.47000000000E+01 0. -1.
<mgrwt>
<rscale>  2 0.11337623E+02</rscale>
<asrwt>0</asrwt>
<pdfrwt beam="1">  1       21 0.62210852E-01 0.11337623E+02</pdfrwt>
<pdfrwt beam="2">  1       21 0.61895206E-04 0.11337623E+02</pdfrwt>
<totfact> 0.32828914E+08</totfact>
</mgrwt>
</event>
<event>
 4    1  0.3999109E+006  0.1016145E+02  0.7546771E-02  0.2065914E+00
         21   -1    0    0  501  502  0.00000000000E+00  0.00000000000E+00  0.29825713317E+01  0.29825713317E+01  0.00000000000E+00 0. -1.
         21   -1    0    0  502  503 -0.00000000000E+00 -0.00000000000E+00 -0.59604931069E+02  0.59604931069E+02  0.00000000000E+00 0.  1.
          5    1    1    2  501    0  0.29318859452E+01  0.85187505538E+01 -0.80502144911E+01  0.12963835063E+02  0.47000000000E+01 0. -1.
         -5    1    1    2    0  503 -0.29318859452E+01 -0.85187505538E+01 -0.48572145247E+02  0.49623667338E+02  0.47000000000E+01 0.  1.
<mgrwt>
<rscale>  2 0.10161450E+02</rscale>
<asrwt>0</asrwt>
<pdfrwt beam="1">  1       21 0.45885713E-03 0.10161450E+02</pdfrwt>
<pdfrwt beam="2">  1       21 0.91699893E-02 0.10161450E+02</pdfrwt>
<totfact> 0.51428548E+08</totfact>
</mgrwt>
</event>
<event>
 4    1  0.3999109E+006  0.5823447E+01  0.7546771E-02  0.2438984E+00
         21   -1    0    0  503  502  0.00000000000E+00  0.00000000000E+00  0.45918752222E+00  0.45918752222E+00  0.00000000000E+00 0. -1.
         21   -1    0    0  501  503 -0.00000000000E+00 -0.00000000000E+00 -0.95170664222E+02  0.95170664222E+02  0.00000000000E+00 0. -1.
          5    1    1    2  501    0 -0.33114515208E+01  0.92565033209E+00 -0.69985402852E+02  0.70227267867E+02  0.47000000000E+01 0. -1.
         -5    1    1    2    0  502  0.33114515208E+01 -0.92565033209E+00 -0.24726073848E+02  0.25402583877E+02  0.47000000000E+01 0. -1.
<mgrwt>
<rscale>  2 0.58234474E+01</rscale>
<asrwt>0</asrwt>
<pdfrwt beam="1">  1       21 0.70644148E-04 0.58234474E+01</pdfrwt>
<pdfrwt beam="2">  1       21 0.14641658E-01 0.58234474E+01</pdfrwt>
<totfact> 0.22228684E+09</totfact>
</mgrwt>
</event>
<event>
 4    1  0.3999109E+006  0.5653276E+01  0.7546771E-02  0.2462860E+00
         21   -1    0    0  501  502  0.00000000000E+00  0.00000000000E+00  0.25936564496E+01  0.25936564496E+01  0.00000000000E+00 0.  1.
         21   -1    0    0  502  503 -0.00000000000E+00 -0.00000000000E+00 -0.26494337999E+02  0.26494337999E+02  0.00000000000E+00 0.  1.
          5    1    1    2  501    0  0.30938846825E+01 -0.54534536006E+00 -0.13131950884E+01  0.58037923232E+01  0.47000000000E+01 0.  1.
         -5    1    1    2    0  503 -0.30938846825E+01  0.54534536006E+00 -0.22587486461E+02  0.23284202125E+02  0.47000000000E+01 0.  1.
<mgrwt>
<rscale>  2 0.56532755E+01</rscale>
<asrwt>0</asrwt>
<pdfrwt beam="1">  1       21 0.39902406E-03 0.56532755E+01</pdfrwt>
<pdfrwt beam="2">  1       21 0.40760521E-02 0.56532755E+01</pdfrwt>
<totfact> 0.14353637E+09</totfact>
</mgrwt>
</event>
<event>
 4    1  0.3999109E+006  0.6253033E+01  0.7546771E-02  0.2383610E+00
         21   -1    0    0  503  502  0.00000000000E+00  0.00000000000E+00  0.51345267024E+01  0.51345267024E+01  0.00000000000E+00 0.  1.
         21   -1    0    0  501  503 -0.00000000000E+00 -0.00000000000E+00 -0.13216760942E+02  0.13216760942E+02  0.00000000000E+00 0.  1.
          5    1    1    2  501    0  0.39706291787E+01 -0.11155831498E+01 -0.10014615603E+02  0.11806479048E+02  0.47000000000E+01 0.  1.
         -5    1    1    2    0  502 -0.39706291787E+01  0.11155831498E+01  0.19323813627E+01  0.65448085969E+01  0.47000000000E+01 0.  1.
<mgrwt>
<rscale>  2 0.62530330E+01</rscale>
<asrwt>0</asrwt>
<pdfrwt beam="1">  1       21 0.78992719E-03 0.62530330E+01</pdfrwt>
<pdfrwt beam="2">  1       21 0.20333478E-02 0.62530330E+01</pdfrwt>
<totfact> 0.16581545E+09</totfact>
</mgrwt>
</event>
<event>
 4    1  0.3999109E+006  0.9078663E+01  0.7546771E-02  0.2131555E+00
         21   -1    0    0  501  502  0.00000000000E+00  0.00000000000E+00  0.21862713883E+01  0.21862713883E+01  0.00000000000E+00 0.  1.
         21   -1    0    0  502  503 -0.00000000000E+00 -0.00000000000E+00 -0.11132282900E+03  0.11132282900E+03  0.00000000000E+00 0. -1.
          5    1    1    2  501    0 -0.42920922502E+01 -0.64737982973E+01 -0.84136524770E+01  0.12377870103E+02  0.47000000000E+01 0.  1.
         -5    1    1    2    0  503  0.42920922502E+01  0.64737982973E+01 -0.10072290514E+03  0.10113123029E+03  0.47000000000E+01 0. -1.
<mgrwt>
<rscale>  2 0.90786629E+01</rscale>
<asrwt>0</asrwt>
<pdfrwt beam="1">  1       21 0.33634940E-03 0.90786629E+01</pdfrwt>
<pdfrwt beam="2">  1       21 0.17126591E-01 0.90786629E+01</pdfrwt>
<totfact> 0.27531523E+08</totfact>
</mgrwt>
</event>
<event>
 4    1  0.3999109E+006  0.7045580E+01  0.7546771E-02  0.2296423E+00
         21   -1    0    0  503  502  0.00000000000E+00  0.00000000000E+00  0.13491761808E+01  0.13491761808E+01  0.00000000000E+00 0. -1.
         21   -1    0    0  501  503 -0.00000000000E+00 -0.00000000000E+00 -0.39641901866E+02  0.39641901866E+02  0.00000000000E+00 0. -1.
          5    1    1    2  501    0  0.27608851927E+01 -0.44640465709E+01 -0.13651926704E+02  0.15362789512E+02  0.47000000000E+01 0. -1.
         -5    1    1    2    0  502 -0.27608851927E+01  0.44640465709E+01 -0.24640798981E+02  0.25628288536E+02  0.47000000000E+01 0. -1.
<mgrwt>
<rscale>  2 0.70455801E+01</rscale>
<asrwt>0</asrwt>
<pdfrwt beam="1">  1       21 0.20756558E-03 0.70455801E+01</pdfrwt>
<pdfrwt beam="2">  1       21 0.60987538E-02 0.70455801E+01</pdfrwt>
<totfact> 0.23178656E+09</totfact>
</mgrwt>
</event>
<event>
 4    1  0.3999109E+006  0.4781155E+01  0.7546771E-02  0.2607505E+00
         21   -1    0    0  503  502  0.00000000000E+00  0.00000000000E+00  0.16132613290E+02  0.16132613290E+02  0.00000000000E+00 0.  1.
         21   -1    0    0  501  503 -0.00000000000E+00 -0.00000000000E+00 -0.44806354441E+01  0.44806354441E+01  0.00000000000E+00 0.  1.
          5    1    1    2  501    0  0.57776554305E+00 -0.66002218358E+00 -0.26965158657E+01  0.54891383768E+01  0.47000000000E+01 0.  1.
         -5    1    1    2    0  502 -0.57776554305E+00  0.66002218358E+00  0.14348493712E+02  0.15124110358E+02  0.47000000000E+01 0.  1.
<mgrwt>
<rscale>  2 0.47811549E+01</rscale>
<asrwt>0</asrwt>
<pdfrwt beam="1">  1       21 0.24819405E-02 0.47811549E+01</pdfrwt>
<pdfrwt beam="2">  1       21 0.68932854E-03 0.47811549E+01</pdfrwt>
<totfact> 0.11815343E+09</totfact>
</mgrwt>
</event>
<event>
 4    1  0.3999109E+006  0.4922641E+01  0.7546771E-02  0.2581063E+00
         21   -1    0    0  503  502  0.00000000000E+00  0.00000000000E+00  0.60888349571E+02  0.60888349571E+02  0.00000000000E+00 0.  1.
         21   -1    0    0  501  503 -0.00000000000E+00 -0.00000000000E+00 -0.14374901936E+01  0.14374901936E+01  0.00000000000E+00 0.  1.
          5    1    1    2  501    0  0.11195704153E+01 -0.94284749851E+00  0.32251846995E+01  0.58850841681E+01  0.47000000000E+01 0.  1.
         -5    1    1    2    0  502 -0.11195704153E+01  0.94284749851E+00  0.56225674678E+02  0.56440755597E+02  0.47000000000E+01 0.  1.
<mgrwt>
<rscale>  2 0.49226415E+01</rscale>
<asrwt>0</asrwt>
<pdfrwt beam="1">  1       21 0.93674364E-02 0.49226415E+01</pdfrwt>
<pdfrwt beam="2">  1       21 0.22115238E-03 0.49226415E+01</pdfrwt>
<totfact> 0.82464599E+08</totfact>
</mgrwt>
</event>
<event>
 4    1  0.3999109E+006  0.5379582E+01  0.7546771E-02  0.2503922E+00
         21   -1    0    0  501  502  0.00000000000E+00  0.00000000000E+00  0.23969118956E+01  0.23969118956E+01  0.00000000000E+00 0.  1.
         21   -1    0    0  502  503 -0.00000000000E+00 -0.00000000000E+00 -0.41627514442E+02  0.41627514442E+02  0.00000000000E+00 0.  1.
          5    1    1    2  501    0 -0.21384823673E+01  0.15089040910E+01 -0.10680604340E+01  0.54845830728E+01  0.47000000000E+01 0.  1.
         -5    1    1    2    0  503  0.21384823673E+01 -0.15089040910E+01 -0.38162542112E+02  0.38539843264E+02  0.47000000000E+01 0.  1.
<mgrwt>
<rscale>  2 0.53795816E+01</rscale>
<asrwt>0</asrwt>
<pdfrwt beam="1">  1       21 0.36875568E-03 0.53795816E+01</pdfrwt>
<pdfrwt beam="2">  1       21 0.64042329E-02 0.53795816E+01</pdfrwt>
<totfact> 0.78743360E+08</totfact>
</mgrwt>
</event>
<event>
 4    1  0.3999109E+006  0.5967488E+01  0.7546771E-02  0.2419674E+00
         21   -1    0    0  501  502  0.00000000000E+00  0.00000000000E+00  0.11161177411E+01  0.11161177411E+01  0.00000000000E+00 0. -1.
         21   -1    0    0  502  503 -0.00000000000E+00 -0.00000000000E+00 -0.68987038955E+02  0.68987038955E+02  0.00000000000E+00 0.  1.
          5    1    1    2  501    0 -0.21402412599E+01  0.29900306203E+01 -0.82374536585E+01  0.10171851284E+02  0.47000000000E+01 0. -1.
         -5    1    1    2    0  503  0.21402412599E+01 -0.29900306203E+01 -0.59633467556E+02  0.59931305413E+02  0.47000000000E+01 0.  1.
<mgrwt>
<rscale>  2 0.59674882E+01</rscale>
<asrwt>0</asrwt>
<pdfrwt beam="1">  1       21 0.17171042E-03 0.59674882E+01</pdfrwt>
<pdfrwt beam="2">  1       21 0.10613391E-01 0.59674882E+01</pdfrwt>
<totfact> 0.11325282E+09</totfact>
</mgrwt>
</event>
<event>
 4    1  0.3999109E+006  0.4928103E+01  0.7546771E-02  0.2580068E+00
         21   -1    0    0  503  502  0.00000000000E+00  0.00000000000E+00  0.23355549356E+04  0.23355549356E+04  0.00000000000E+00 0. -1.
         21   -1    0    0  501  503 -0.00000000000E+00 -0.00000000000E+00 -0.17809837377E-01  0.17809837377E-01  0.00000000000E+00 0. -1.
          5    1    1    2  501    0  0.12655779212E+01  0.77104783644E+00  0.41444328100E+03  0.41447257976E+03  0.47000000000E+01 0. -1.
         -5    1    1    2    0  502 -0.12655779212E+01 -0.77104783644E+00  0.19210938447E+04  0.19211001657E+04  0.47000000000E+01 0. -1.
<mgrwt>
<rscale>  2 0.49281033E+01</rscale>
<asrwt>0</asrwt>
<pdfrwt beam="1">  1       21 0.35907100E+00 0.49281033E+01</pdfrwt>
<pdfrwt beam="2">  1       21 0.27418456E-05 0.49281033E+01</pdfrwt>
<totfact> 0.29410296E+08</totfact>
</mgrwt>
</event>
<event>
 4    1  0.3999109E+006  0.5624975E+01  0.7546771E-02  0.2466949E+00
         21   -1    0    0  503  502  0.00000000000E+00  0.00000000000E+00  0.16481504282E+01  0.16481504282E+01  0.00000000000E+00 0. -1.
         21   -1    0    0  501  503 -0.00000000000E+00 -0.00000000000E+00 -0.43678533516E+02  0.43678533516E+02  0.00000000000E+00 0. -1.
          5    1    1    2  501    0 -0.11682289435E+01  0.28610465694E+01 -0.37982185988E+02  0.38396442527E+02  0.47000000000E+01 0. -1.
         -5    1    1    2    0  502  0.11682289435E+01 -0.28610465694E+01 -0.40481971000E+01  0.69302414170E+01  0.47000000000E+01 0. -1.
<mgrwt>
<rscale>  2 0.56249752E+01</rscale>
<asrwt>0</asrwt>
<pdfrwt beam="1">  1       21 0.25356162E-03 0.56249752E+01</pdfrwt>
<pdfrwt beam="2">  1       21 0.67197739E-02 0.56249752E+01</pdfrwt>
<totfact> 0.12700829E+09</totfact>
</mgrwt>
</event>
<event>
 4    1  0.3999109E+006  0.4882867E+01  0.7546771E-02  0.2588362E+00
         21   -1    0    0  501  502  0.00000000000E+00  0.00000000000E+00  0.38008703899E+00  0.38008703899E+00  0.00000000000E+00 0. -1.
         21   -1    0    0  502  503 -0.00000000000E+00 -0.00000000000E+00 -0.88256502372E+02  0.88256502372E+02  0.00000000000E+00 0. -1.
          5    1    1    2  501    0  0.12763883545E+01  0.35103503199E+00 -0.20103172576E+02  0.20687676053E+02  0.47000000000E+01 0. -1.
         -5    1    1    2    0  503 -0.12763883545E+01 -0.35103503199E+00 -0.67773242757E+02  0.67948913359E+02  0.47000000000E+01 0. -1.
<mgrwt>
<rscale>  2 0.48828673E+01</rscale>
<asrwt>0</asrwt>
<pdfrwt beam="1">  1       21 0.58474925E-04 0.48828673E+01</pdfrwt>
<pdfrwt beam="2">  1       21 0.13577924E-01 0.48828673E+01</pdfrwt>
<totfact> 0.27338716E+09</totfact>
</mgrwt>
</event>
<event>
 4    1  0.3999109E+006  0.5657600E+01  0.7546771E-02  0.2462238E+00
         21   -1    0    0  503  502  0.00000000000E+00  0.00000000000E+00  0.20944595690E+02  0.20944595690E+02  0.00000000000E+00 0.  1.
         21   -1    0    0  501  503 -0.00000000000E+00 -0.00000000000E+00 -0.22522650138E+01  0.22522650138E+01  0.00000000000E+00 0.  1.
          5    1    1    2  501    0  0.27261090885E+01  0.15769490334E+01  0.27701130902E+01  0.62993623129E+01  0.47000000000E+01 0.  1.
         -5    1    1    2    0  502 -0.27261090885E+01 -0.15769490334E+01  0.15922217586E+02  0.16897498391E+02  0.47000000000E+01 0.  1.
<mgrwt>
<rscale>  2 0.56576001E+01</rscale>
<asrwt>0</asrwt>
<pdfrwt beam="1">  1       21 0.32222454E-02 0.56576001E+01</pdfrwt>
<pdfrwt beam="2">  1       21 0.34650232E-03 0.56576001E+01</pdfrwt>
<totfact> 0.24565636E+09</totfact>
</mgrwt>
</event>
<event>
 4    1  0.3999109E+006  0.5038037E+01  0.7546771E-02  0.2560450E+00
         21   -1    0    0  503  502  0.00000000000E+00  0.00000000000E+00  0.23347291444E+02  0.23347291444E+02  0.00000000000E+00 0.  1.
         21   -1    0    0  501  503 -0.00000000000E+00 -0.00000000000E+00 -0.24932504221E+01  0.24932504221E+01  0.00000000000E+00 0.  1.
          5    1    1    2  501    0 -0.58727642732E+00 -0.17166617898E+01  0.72419830114E+00  0.50898216552E+01  0.47000000000E+01 0.  1.
         -5    1    1    2    0  502  0.58727642732E+00  0.17166617898E+01  0.20129842720E+02  0.20750720211E+02  0.47000000000E+01 0.  1.
<mgrwt>
<rscale>  2 0.50380374E+01</rscale>
<asrwt>0</asrwt>
<pdfrwt beam="1">  1       21 0.35918909E-02 0.50380374E+01</pdfrwt>
<pdfrwt beam="2">  1       21 0.38357700E-03 0.50380374E+01</pdfrwt>
<totfact> 0.16374076E+09</totfact>
</mgrwt>
</event>
<event>
 4    1  0.3999109E+006  0.2990799E+02  0.7546771E-02  0.1599108E+00
         21   -1    0    0  501  502  0.00000000000E+00  0.00000000000E+00  0.36419540561E+03  0.36419540561E+03  0.00000000000E+00 0.  1.
         21   -1    0    0  502  503 -0.00000000000E+00 -0.00000000000E+00 -0.15835330629E+02  0.15835330629E+02  0.00000000000E+00 0. -1.
          5    1    1    2  501    0 -0.67787984351E+01 -0.28747973912E+02  0.34883916019E+03  0.35011890522E+03  0.47000000000E+01 0.  1.
         -5    1    1    2    0  503  0.67787984351E+01  0.28747973912E+02 -0.47908520686E+00  0.29911831019E+02  0.47000000000E+01 0. -1.
<mgrwt>
<rscale>  2 0.29907994E+02</rscale>
<asrwt>0</asrwt>
<pdfrwt beam="1">  1       21 0.56030056E-01 0.29907994E+02</pdfrwt>
<pdfrwt beam="2">  1       21 0.24362050E-02 0.29907994E+02</pdfrwt>
<totfact> 0.24360421E+06</totfact>
</mgrwt>
</event>
<event>
 4    1  0.3999109E+006  0.6525439E+01  0.7546771E-02  0.2351673E+00
         21   -1    0    0  501  502  0.00000000000E+00  0.00000000000E+00  0.23801848524E+01  0.23801848524E+01  0.00000000000E+00 0. -1.
         21   -1    0    0  502  503 -0.00000000000E+00 -0.00000000000E+00 -0.21131643857E+02  0.21131643857E+02  0.00000000000E+00 0.  1.
          5    1    1    2  501    0  0.66162313371E+00 -0.44781256168E+01 -0.47712905205E+01  0.80837223754E+01  0.47000000000E+01 0. -1.
         -5    1    1    2    0  503 -0.66162313371E+00  0.44781256168E+01 -0.13980168484E+02  0.15428106334E+02  0.47000000000E+01 0.  1.
<mgrwt>
<rscale>  2 0.65254390E+01</rscale>
<asrwt>0</asrwt>
<pdfrwt beam="1">  1       21 0.36618230E-03 0.65254390E+01</pdfrwt>
<pdfrwt beam="2">  1       21 0.32510220E-02 0.65254390E+01</pdfrwt>
<totfact> 0.25421143E+09</totfact>
</mgrwt>
</event>
<event>
 4    1  0.3999109E+006  0.8747773E+01  0.7546771E-02  0.2154146E+00
         21   -1    0    0  501  502  0.00000000000E+00  0.00000000000E+00  0.42834773022E+03  0.42834773022E+03  0.00000000000E+00 0.  1.
         21   -1    0    0  502  503 -0.00000000000E+00 -0.00000000000E+00 -0.27128974705E+00  0.27128974705E+00  0.00000000000E+00 0.  1.
          5    1    1    2  501    0  0.71709442901E+01  0.17352483956E+01  0.33927381212E+03  0.33938656886E+03  0.47000000000E+01 0.  1.
         -5    1    1    2    0  503 -0.71709442901E+01 -0.17352483956E+01  0.88802628358E+02  0.89232451117E+02  0.47000000000E+01 0.  1.
<mgrwt>
<rscale>  2 0.87477728E+01</rscale>
<asrwt>0</asrwt>
<pdfrwt beam="1">  1       21 0.65899110E-01 0.87477728E+01</pdfrwt>
<pdfrwt beam="2">  1       21 0.41737227E-04 0.87477728E+01</pdfrwt>
<totfact> 0.44458661E+08</totfact>
</mgrwt>
</event>
<event>
 4    1  0.3999109E+006  0.7492575E+01  0.7546771E-02  0.2254025E+00
         21   -1    0    0  501  502  0.00000000000E+00  0.00000000000E+00  0.33429142154E+01  0.33429142154E+01  0.00000000000E+00 0. -1.
         21   -1    0    0  502  503 -0.00000000000E+00 -0.00000000000E+00 -0.17466284630E+02  0.17466284630E+02  0.00000000000E+00 0. -1.
          5    1    1    2  501    0 -0.50320879089E+01 -0.29541100607E+01 -0.91039718552E+01  0.11790715776E+02  0.47000000000E+01 0. -1.
         -5    1    1    2    0  503  0.50320879089E+01  0.29541100607E+01 -0.50193985595E+01  0.90184830694E+01  0.47000000000E+01 0. -1.
<mgrwt>
<rscale>  2 0.74925747E+01</rscale>
<asrwt>0</asrwt>
<pdfrwt beam="1">  1       21 0.51429450E-03 0.74925747E+01</pdfrwt>
<pdfrwt beam="2">  1       21 0.26871207E-02 0.74925747E+01</pdfrwt>
<totfact> 0.23303537E+09</totfact>
</mgrwt>
</event>
<event>
 4    1  0.3999109E+006  0.5046167E+01  0.7546771E-02  0.2559028E+00
         21   -1    0    0  501  502  0.00000000000E+00  0.00000000000E+00  0.14228008320E+01  0.14228008320E+01  0.00000000000E+00 0. -1.
         21   -1    0    0  502  503 -0.00000000000E+00 -0.00000000000E+00 -0.25430739533E+02  0.25430739533E+02  0.00000000000E+00 0. -1.
          5    1    1    2  501    0  0.24220670694E+00  0.18207528004E+01 -0.46959681535E+01  0.68931793643E+01  0.47000000000E+01 0. -1.
         -5    1    1    2    0  503 -0.24220670694E+00 -0.18207528004E+01 -0.19311970547E+02  0.19960361001E+02  0.47000000000E+01 0. -1.
<mgrwt>
<rscale>  2 0.50461673E+01</rscale>
<asrwt>0</asrwt>
<pdfrwt beam="1">  1       21 0.21889243E-03 0.50461673E+01</pdfrwt>
<pdfrwt beam="2">  1       21 0.39124215E-02 0.50461673E+01</pdfrwt>
<totfact> 0.31038040E+09</totfact>
</mgrwt>
</event>
<event>
 4    1  0.3999109E+006  0.6181262E+01  0.7546771E-02  0.2392413E+00
         21   -1    0    0  503  502  0.00000000000E+00  0.00000000000E+00  0.36310347187E-01  0.36310347187E-01  0.00000000000E+00 0.  1.
         21   -1    0    0  501  503 -0.00000000000E+00 -0.00000000000E+00 -0.17321096035E+04  0.17321096035E+04  0.00000000000E+00 0.  1.
          5    1    1    2  501    0 -0.20315602483E+01 -0.34627681926E+01 -0.14086276152E+04  0.14086411773E+04  0.47000000000E+01 0.  1.
         -5    1    1    2    0  502  0.20315602483E+01  0.34627681926E+01 -0.32344567798E+03  0.32350473660E+03  0.47000000000E+01 0.  1.
<mgrwt>
<rscale>  2 0.61812621E+01</rscale>
<asrwt>0</asrwt>
<pdfrwt beam="1">  1       21 0.55863256E-05 0.61812621E+01</pdfrwt>
<pdfrwt beam="2">  1       21 0.26647276E+00 0.61812621E+01</pdfrwt>
<totfact> 0.27559706E+08</totfact>
</mgrwt>
</event>
<event>
 4    1  0.3999109E+006  0.9891470E+01  0.7546771E-02  0.2081217E+00
         21   -1    0    0  501  502  0.00000000000E+00  0.00000000000E+00  0.59202723360E+03  0.59202723360E+03  0.00000000000E+00 0. -1.
         21   -1    0    0  502  503 -0.00000000000E+00 -0.00000000000E+00 -0.56172361193E+00  0.56172361193E+00  0.00000000000E+00 0.  1.
          5    1    1    2  501    0  0.86977152934E+01  0.31768774508E+00  0.54465363944E+03  0.54474345166E+03  0.47000000000E+01 0. -1.
         -5    1    1    2    0  503 -0.86977152934E+01 -0.31768774508E+00  0.46811870553E+02  0.47845505551E+02  0.47000000000E+01 0.  1.
<mgrwt>
<rscale>  2 0.98914699E+01</rscale>
<asrwt>0</asrwt>
<pdfrwt beam="1">  1       21 0.91080614E-01 0.98914699E+01</pdfrwt>
<pdfrwt beam="2">  1       21 0.86419491E-04 0.98914699E+01</pdfrwt>
<totfact> 0.91439639E+07</totfact>
</mgrwt>
</event>
<event>
 4    1  0.3999109E+006  0.8036766E+01  0.7546771E-02  0.2207642E+00
         21   -1    0    0  501  502  0.00000000000E+00  0.00000000000E+00  0.51115022935E+01  0.51115022935E+01  0.00000000000E+00 0.  1.
         21   -1    0    0  502  503 -0.00000000000E+00 -0.00000000000E+00 -0.15981417931E+02  0.15981417931E+02  0.00000000000E+00 0.  1.
          5    1    1    2  501    0 -0.39855765352E+00 -0.65069778492E+01 -0.60975255045E+00  0.80598639633E+01  0.47000000000E+01 0.  1.
         -5    1    1    2    0  503  0.39855765352E+00  0.65069778492E+01 -0.10260163087E+02  0.13033056261E+02  0.47000000000E+01 0.  1.
<mgrwt>
<rscale>  2 0.80367661E+01</rscale>
<asrwt>0</asrwt>
<pdfrwt beam="1">  1       21 0.78638498E-03 0.80367661E+01</pdfrwt>
<pdfrwt beam="2">  1       21 0.24586797E-02 0.80367661E+01</pdfrwt>
<totfact> 0.15308496E+09</totfact>
</mgrwt>
</event>
<event>
 4    1  0.3999109E+006  0.6698254E+01  0.7546771E-02  0.2332534E+00
         21   -1    0    0  501  502  0.00000000000E+00  0.00000000000E+00  0.23256037062E+02  0.23256037062E+02  0.00000000000E+00 0. -1.
         21   -1    0    0  502  503 -0.00000000000E+00 -0.00000000000E+00 -0.29176883704E+01  0.29176883704E+01  0.00000000000E+00 0.  1.
          5    1    1    2  501    0 -0.23993073179E+01  0.41255224118E+01  0.17786312368E+02  0.19005775922E+02  0.47000000000E+01 0.  1.
         -5    1    1    2    0  503  0.23993073179E+01 -0.41255224118E+01  0.25520363237E+01  0.71679495097E+01  0.47000000000E+01 0. -1.
<mgrwt>
<rscale>  2 0.66982543E+01</rscale>
<asrwt>0</asrwt>
<pdfrwt beam="1">  1       21 0.35778517E-02 0.66982543E+01</pdfrwt>
<pdfrwt beam="2">  1       21 0.44887515E-03 0.66982543E+01</pdfrwt>
<totfact> 0.16985985E+09</totfact>
</mgrwt>
</event>
<event>
 4    1  0.3999109E+006  0.5288993E+01  0.7546771E-02  0.2518306E+00
         21   -1    0    0  501  502  0.00000000000E+00  0.00000000000E+00  0.33012757735E+00  0.33012757735E+00  0.00000000000E+00 0. -1.
         21   -1    0    0  502  503 -0.00000000000E+00 -0.00000000000E+00 -0.39994277059E+03  0.39994277059E+03  0.00000000000E+00 0. -1.
          5    1    1    2  501    0  0.22414574746E+01  0.92699421435E+00 -0.22131644229E+02  0.22754848410E+02  0.47000000000E+01 0. -1.
         -5    1    1    2    0  503 -0.22414574746E+01 -0.92699421435E+00 -0.37748099879E+03  0.37751804976E+03  0.47000000000E+01 0. -1.
<mgrwt>
<rscale>  2 0.52889933E+01</rscale>
<asrwt>0</asrwt>
<pdfrwt beam="1">  1       21 0.50788774E-04 0.52889933E+01</pdfrwt>
<pdfrwt beam="2">  1       21 0.61529759E-01 0.52889933E+01</pdfrwt>
<totfact> 0.28472802E+08</totfact>
</mgrwt>
</event>
<event>
 4    1  0.3999109E+006  0.6248151E+01  0.7546771E-02  0.2384204E+00
         21   -1    0    0  501  502  0.00000000000E+00  0.00000000000E+00  0.14785567761E+00  0.14785567761E+00  0.00000000000E+00 0. -1.
         21   -1    0    0  502  503 -0.00000000000E+00 -0.00000000000E+00 -0.29734856608E+03  0.29734856608E+03  0.00000000000E+00 0. -1.
          5    1    1    2  501    0 -0.41169513388E+01 -0.10068138942E-01 -0.98813411852E+02  0.99010755737E+02  0.47000000000E+01 0. -1.
         -5    1    1    2    0  503  0.41169513388E+01  0.10068138942E-01 -0.19838729855E+03  0.19848566603E+03  0.47000000000E+01 0. -1.
<mgrwt>
<rscale>  2 0.62481509E+01</rscale>
<asrwt>0</asrwt>
<pdfrwt beam="1">  1       21 0.22746992E-04 0.62481509E+01</pdfrwt>
<pdfrwt beam="2">  1       21 0.45746004E-01 0.62481509E+01</pdfrwt>
<totfact> 0.16059144E+09</totfact>
</mgrwt>
</event>
<event>
 4    1  0.3999109E+006  0.5640302E+01  0.7546771E-02  0.2464730E+00
         21   -1    0    0  503  502  0.00000000000E+00  0.00000000000E+00  0.45966770808E+02  0.45966770808E+02  0.00000000000E+00 0.  1.
         21   -1    0    0  501  503 -0.00000000000E+00 -0.00000000000E+00 -0.96779911402E+00  0.96779911402E+00  0.00000000000E+00 0.  1.
          5    1    1    2  501    0  0.31000202903E+01  0.33598319442E+00  0.99738997017E+01  0.11458258409E+02  0.47000000000E+01 0.  1.
         -5    1    1    2    0  502 -0.31000202903E+01 -0.33598319442E+00  0.35025071992E+02  0.35476311513E+02  0.47000000000E+01 0.  1.
<mgrwt>
<rscale>  2 0.56403023E+01</rscale>
<asrwt>0</asrwt>
<pdfrwt beam="1">  1       21 0.70718092E-02 0.56403023E+01</pdfrwt>
<pdfrwt beam="2">  1       21 0.14889221E-03 0.56403023E+01</pdfrwt>
<totfact> 0.24262451E+09</totfact>
</mgrwt>
</event>
<event>
 4    1  0.3999109E+006  0.5777419E+01  0.7546771E-02  0.2445325E+00
         21   -1    0    0  503  502  0.00000000000E+00  0.00000000000E+00  0.28193106370E+04  0.28193106370E+04  0.00000000000E+00 0. -1.
         21   -1    0    0  501  503 -0.00000000000E+00 -0.00000000000E+00 -0.38279461954E+00  0.38279461954E+00  0.00000000000E+00 0. -1.
          5    1    1    2  501    0  0.33222086678E+01  0.50150294954E+00  0.21590672971E+02  0.22350296082E+02  0.47000000000E+01 0. -1.
         -5    1    1    2    0  502 -0.33222086678E+01 -0.50150294954E+00  0.27973371694E+04  0.27973431356E+04  0.47000000000E+01 0. -1.
<mgrwt>
<rscale>  2 0.57774195E+01</rscale>
<asrwt>0</asrwt>
<pdfrwt beam="1">  1       21 0.43372347E+00 0.57774195E+01</pdfrwt>
<pdfrwt beam="2">  1       21 0.58893738E-04 0.57774195E+01</pdfrwt>
<totfact> 0.23582943E+06</totfact>
</mgrwt>
</event>
<event>
 4    1  0.3999109E+006  0.1630797E+02  0.7546771E-02  0.1830595E+00
         21   -1    0    0  503  502  0.00000000000E+00  0.00000000000E+00  0.41908841219E+00  0.41908841219E+00  0.00000000000E+00 0. -1.
         21   -1    0    0  501  503 -0.00000000000E+00 -0.00000000000E+00 -0.81116074788E+03  0.81116074788E+03  0.00000000000E+00 0. -1.
          5    1    1    2  501    0 -0.88648060952E+01 -0.12855935758E+02 -0.59469477084E+03  0.59491833081E+03  0.47000000000E+01 0. -1.
         -5    1    1    2    0  502  0.88648060952E+01  0.12855935758E+02 -0.21604688863E+03  0.21666150548E+03  0.47000000000E+01 0. -1.
<mgrwt>
<rscale>  2 0.16307970E+02</rscale>
<asrwt>0</asrwt>
<pdfrwt beam="1">  1       21 0.64475341E-04 0.16307970E+02</pdfrwt>
<pdfrwt beam="2">  1       21 0.12479357E+00 0.16307970E+02</pdfrwt>
<totfact> 0.82781159E+07</totfact>
</mgrwt>
</event>
<event>
 4    1  0.3999109E+006  0.4868680E+01  0.7546771E-02  0.2590990E+00
         21   -1    0    0  501  502  0.00000000000E+00  0.00000000000E+00  0.30722437090E+01  0.30722437090E+01  0.00000000000E+00 0.  1.
         21   -1    0    0  502  503 -0.00000000000E+00 -0.00000000000E+00 -0.79238242229E+01  0.79238242229E+01  0.00000000000E+00 0.  1.
          5    1    1    2  501    0 -0.11643288883E+01  0.50831807481E+00 -0.15344201265E+01  0.51047521144E+01  0.47000000000E+01 0.  1.
         -5    1    1    2    0  503  0.11643288883E+01 -0.50831807481E+00 -0.33171603875E+01  0.58913158175E+01  0.47000000000E+01 0.  1.
<mgrwt>
<rscale>  2 0.48686804E+01</rscale>
<asrwt>0</asrwt>
<pdfrwt beam="1">  1       21 0.47265288E-03 0.48686804E+01</pdfrwt>
<pdfrwt beam="2">  1       21 0.12190499E-02 0.48686804E+01</pdfrwt>
<totfact> 0.55086987E+09</totfact>
</mgrwt>
</event>
<event>
 4    1  0.3999109E+006  0.8289904E+01  0.7546771E-02  0.2187754E+00
         21   -1    0    0  501  502  0.00000000000E+00  0.00000000000E+00  0.33360620791E+01  0.33360620791E+01  0.00000000000E+00 0.  1.
         21   -1    0    0  502  503 -0.00000000000E+00 -0.00000000000E+00 -0.40309104256E+02  0.40309104256E+02  0.00000000000E+00 0. -1.
          5    1    1    2  501    0 -0.35342506577E+01  0.58430803605E+01 -0.32270589537E+01  0.88958656297E+01  0.47000000000E+01 0.  1.
         -5    1    1    2    0  503  0.35342506577E+01 -0.58430803605E+01 -0.33745983224E+02  0.34749300706E+02  0.47000000000E+01 0. -1.
<mgrwt>
<rscale>  2 0.82899045E+01</rscale>
<asrwt>0</asrwt>
<pdfrwt beam="1">  1       21 0.51324033E-03 0.82899045E+01</pdfrwt>
<pdfrwt beam="2">  1       21 0.62014005E-02 0.82899045E+01</pdfrwt>
<totfact> 0.71604421E+08</totfact>
</mgrwt>
</event>
<event>
 4    1  0.3999109E+006  0.5516457E+01  0.7546771E-02  0.2482955E+00
         21   -1    0    0  503  502  0.00000000000E+00  0.00000000000E+00  0.16892024773E+01  0.16892024773E+01  0.00000000000E+00 0. -1.
         21   -1    0    0  501  503 -0.00000000000E+00 -0.00000000000E+00 -0.25143308862E+02  0.25143308862E+02  0.00000000000E+00 0. -1.
          5    1    1    2  501    0  0.49220975831E+00  0.28458799224E+01 -0.18870496263E+02  0.19660288203E+02  0.47000000000E+01 0. -1.
         -5    1    1    2    0  502 -0.49220975831E+00 -0.28458799224E+01 -0.45836101210E+01  0.71722231366E+01  0.47000000000E+01 0. -1.
<mgrwt>
<rscale>  2 0.55164575E+01</rscale>
<asrwt>0</asrwt>
<pdfrwt beam="1">  1       21 0.25987729E-03 0.55164575E+01</pdfrwt>
<pdfrwt beam="2">  1       21 0.38682016E-02 0.55164575E+01</pdfrwt>
<totfact> 0.27277562E+09</totfact>
</mgrwt>
</event>
<event>
 4    1  0.3999109E+006  0.6140355E+01  0.7546771E-02  0.2397507E+00
         21   -1    0    0  503  502  0.00000000000E+00  0.00000000000E+00  0.23056831544E+00  0.23056831544E+00  0.00000000000E+00 0.  1.
         21   -1    0    0  501  503 -0.00000000000E+00 -0.00000000000E+00 -0.37103219541E+03  0.37103219541E+03  0.00000000000E+00 0.  1.
          5    1    1    2  501    0 -0.39164817670E+01  0.52452533280E+00 -0.32422365944E+03  0.32428179921E+03  0.47000000000E+01 0.  1.
         -5    1    1    2    0  502  0.39164817670E+01 -0.52452533280E+00 -0.46577967656E+02  0.46980964520E+02  0.47000000000E+01 0.  1.
<mgrwt>
<rscale>  2 0.61403547E+01</rscale>
<asrwt>0</asrwt>
<pdfrwt beam="1">  1       21 0.35472056E-04 0.61403547E+01</pdfrwt>
<pdfrwt beam="2">  1       21 0.57081863E-01 0.61403547E+01</pdfrwt>
<totfact> 0.58652590E+08</totfact>
</mgrwt>
</event>
<event>
 4    1  0.3999109E+006  0.1303307E+02  0.7546771E-02  0.1934787E+00
         21   -1    0    0  503  502  0.00000000000E+00  0.00000000000E+00  0.13405088082E+03  0.13405088082E+03  0.00000000000E+00 0.  1.
         21   -1    0    0  501  503 -0.00000000000E+00 -0.00000000000E+00 -0.13128106035E+01  0.13128106035E+01  0.00000000000E+00 0. -1.
          5    1    1    2  501    0 -0.10225451102E+02  0.65735160734E+01  0.78993096067E+02  0.80061040401E+02  0.47000000000E+01 0. -1.
         -5    1    1    2    0  502  0.10225451102E+02 -0.65735160734E+01  0.53744974145E+02  0.55302651018E+02  0.47000000000E+01 0. -1.
<mgrwt>
<rscale>  2 0.13033072E+02</rscale>
<asrwt>0</asrwt>
<pdfrwt beam="1">  1       21 0.20623202E-01 0.13033072E+02</pdfrwt>
<pdfrwt beam="2">  1       21 0.20197097E-03 0.13033072E+02</pdfrwt>
<totfact> 0.49381298E+08</totfact>
</mgrwt>
</event>
<event>
 4    1  0.3999109E+006  0.8502285E+01  0.7546771E-02  0.2171805E+00
         21   -1    0    0  501  502  0.00000000000E+00  0.00000000000E+00  0.99512827285E-01  0.99512827285E-01  0.00000000000E+00 0. -1.
         21   -1    0    0  502  503 -0.00000000000E+00 -0.00000000000E+00 -0.12982991889E+04  0.12982991889E+04  0.00000000000E+00 0.  1.
          5    1    1    2  501    0 -0.58906648111E+00  0.70605839215E+01 -0.21823602600E+03  0.21840158399E+03  0.47000000000E+01 0. -1.
         -5    1    1    2    0  503  0.58906648111E+00 -0.70605839215E+01 -0.10799636501E+04  0.10799971178E+04  0.47000000000E+01 0.  1.
<mgrwt>
<rscale>  2 0.85022847E+01</rscale>
<asrwt>0</asrwt>
<pdfrwt beam="1">  1       21 0.15308040E-04 0.85022847E+01</pdfrwt>
<pdfrwt beam="2">  1       21 0.19975955E+00 0.85022847E+01</pdfrwt>
<totfact> 0.16198508E+08</totfact>
</mgrwt>
</event>
<event>
 4    1  0.3999109E+006  0.6006314E+01  0.7546771E-02  0.2414603E+00
         21   -1    0    0  501  502  0.00000000000E+00  0.00000000000E+00  0.62873042740E+03  0.62873042740E+03  0.00000000000E+00 0.  1.
         21   -1    0    0  502  503 -0.00000000000E+00 -0.00000000000E+00 -0.88117648430E-01  0.88117648430E-01  0.00000000000E+00 0.  1.
          5    1    1    2  501    0 -0.37132542594E+01 -0.44446318774E+00  0.50001931951E+03  0.50005539262E+03  0.47000000000E+01 0.  1.
         -5    1    1    2    0  503  0.37132542594E+01  0.44446318774E+00  0.12862299024E+03  0.12876315242E+03  0.47000000000E+01 0.  1.
<mgrwt>
<rscale>  2 0.60063137E+01</rscale>
<asrwt>0</asrwt>
<pdfrwt beam="1">  1       21 0.96724166E-01 0.60063137E+01</pdfrwt>
<pdfrwt beam="2">  1       21 0.13557065E-04 0.60063137E+01</pdfrwt>
<totfact> 0.75629439E+08</totfact>
</mgrwt>
</event>
<event>
 4    1  0.3999109E+006  0.4919436E+01  0.7546771E-02  0.2581647E+00
         21   -1    0    0  501  502  0.00000000000E+00  0.00000000000E+00  0.86389464034E+01  0.86389464034E+01  0.00000000000E+00 0.  1.
         21   -1    0    0  502  503 -0.00000000000E+00 -0.00000000000E+00 -0.12242563155E+02  0.12242563155E+02  0.00000000000E+00 0.  1.
          5    1    1    2  501    0  0.12888220989E+01 -0.67066356370E+00  0.73669230022E+01  0.88584652473E+01  0.47000000000E+01 0.  1.
         -5    1    1    2    0  503 -0.12888220989E+01  0.67066356370E+00 -0.10970539754E+02  0.12023044311E+02  0.47000000000E+01 0.  1.
<mgrwt>
<rscale>  2 0.49194361E+01</rscale>
<asrwt>0</asrwt>
<pdfrwt beam="1">  1       21 0.13290687E-02 0.49194361E+01</pdfrwt>
<pdfrwt beam="2">  1       21 0.18834713E-02 0.49194361E+01</pdfrwt>
<totfact> 0.72092774E+08</totfact>
</mgrwt>
</event>
<event>
 4    1  0.3999109E+006  0.5334403E+01  0.7546771E-02  0.2511044E+00
         21   -1    0    0  503  502  0.00000000000E+00  0.00000000000E+00  0.42579469336E+03  0.42579469336E+03  0.00000000000E+00 0.  1.
         21   -1    0    0  501  503 -0.00000000000E+00 -0.00000000000E+00 -0.79156070973E-01  0.79156070973E-01  0.00000000000E+00 0. -1.
          5    1    1    2  501    0 -0.42638326849E+00 -0.24867748705E+01  0.12883025723E+03  0.12894064925E+03  0.47000000000E+01 0. -1.
         -5    1    1    2    0  502  0.42638326849E+00  0.24867748705E+01  0.29688528006E+03  0.29693320018E+03  0.47000000000E+01 0.  1.
<mgrwt>
<rscale>  2 0.53344027E+01</rscale>
<asrwt>0</asrwt>
<pdfrwt beam="1">  1       21 0.65505042E-01 0.53344027E+01</pdfrwt>
<pdfrwt beam="2">  1       21 0.12178198E-04 0.53344027E+01</pdfrwt>
<totfact> 0.16982781E+09</totfact>
</mgrwt>
</event>
<event>
 4    1  0.3999109E+006  0.6461208E+01  0.7546771E-02  0.2359002E+00
         21   -1    0    0  501  502  0.00000000000E+00  0.00000000000E+00  0.60795011838E-01  0.60795011838E-01  0.00000000000E+00 0. -1.
         21   -1    0    0  502  503 -0.00000000000E+00 -0.00000000000E+00 -0.70933197550E+03  0.70933197550E+03  0.00000000000E+00 0. -1.
          5    1    1    2  501    0  0.18890211612E+01 -0.40110850274E+01 -0.29126197296E+03  0.29133363022E+03  0.47000000000E+01 0. -1.
         -5    1    1    2    0  503 -0.18890211612E+01  0.40110850274E+01 -0.41800920753E+03  0.41805914029E+03  0.47000000000E+01 0. -1.
<mgrwt>
<rscale>  2 0.64612076E+01</rscale>
<asrwt>0</asrwt>
<pdfrwt beam="1">  1       21 0.93532097E-05 0.64612076E+01</pdfrwt>
<pdfrwt beam="2">  1       21 0.10912647E+00 0.64612076E+01</pdfrwt>
<totfact> 0.10173540E+09</totfact>
</mgrwt>
</event>
<event>
 4    1  0.3999109E+006  0.7518687E+01  0.7546771E-02  0.2251676E+00
         21   -1    0    0  503  502  0.00000000000E+00  0.00000000000E+00  0.26801765346E+01  0.26801765346E+01  0.00000000000E+00 0. -1.
         21   -1    0    0  501  503 -0.00000000000E+00 -0.00000000000E+00 -0.35503015041E+02  0.35503015041E+02  0.00000000000E+00 0.  1.
          5    1    1    2  501    0  0.56662706574E+01  0.15277527294E+01 -0.28574814767E+02  0.29547431201E+02  0.47000000000E+01 0.  1.
         -5    1    1    2    0  502 -0.56662706574E+01 -0.15277527294E+01 -0.42480237391E+01  0.86357603749E+01  0.47000000000E+01 0.  1.
<mgrwt>
<rscale>  2 0.75186868E+01</rscale>
<asrwt>0</asrwt>
<pdfrwt beam="1">  1       21 0.41233485E-03 0.75186868E+01</pdfrwt>
<pdfrwt beam="2">  1       21 0.54620023E-02 0.75186868E+01</pdfrwt>
<totfact> 0.11078425E+09</totfact>
</mgrwt>
</event>
<event>
 4    1  0.3999109E+006  0.8650755E+01  0.7546771E-02  0.2161029E+00
         21   -1    0    0  503  502  0.00000000000E+00  0.00000000000E+00  0.20064722256E+01  0.20064722256E+01  0.00000000000E+00 0. -1.
         21   -1    0    0  501  503 -0.00000000000E+00 -0.00000000000E+00 -0.50525378721E+02  0.50525378721E+02  0.00000000000E+00 0.  1.
          5    1    1    2  501    0  0.35291123936E+01 -0.63475132631E+01 -0.37699162844E+02  0.38678966352E+02  0.47000000000E+01 0.  1.
         -5    1    1    2    0  502 -0.35291123936E+01  0.63475132631E+01 -0.10819743651E+02  0.13852884594E+02  0.47000000000E+01 0. -1.
<mgrwt>
<rscale>  2 0.86507548E+01</rscale>
<asrwt>0</asrwt>
<pdfrwt beam="1">  1       21 0.30868802E-03 0.86507548E+01</pdfrwt>
<pdfrwt beam="2">  1       21 0.77731355E-02 0.86507548E+01</pdfrwt>
<totfact> 0.10625474E+09</totfact>
</mgrwt>
</event>
<event>
 4    1  0.3999109E+006  0.5111353E+01  0.7546771E-02  0.2547771E+00
         21   -1    0    0  501  502  0.00000000000E+00  0.00000000000E+00  0.52622038193E+01  0.52622038193E+01  0.00000000000E+00 0.  1.
         21   -1    0    0  502  503 -0.00000000000E+00 -0.00000000000E+00 -0.50118772632E+01  0.50118772632E+01  0.00000000000E+00 0.  1.
          5    1    1    2  501    0  0.14343448027E+01 -0.14066218290E+01 -0.37256833798E+00  0.51249133797E+01  0.47000000000E+01 0.  1.
         -5    1    1    2    0  503 -0.14343448027E+01  0.14066218290E+01  0.62289489404E+00  0.51491677028E+01  0.47000000000E+01 0.  1.
<mgrwt>
<rscale>  2 0.51113530E+01</rscale>
<asrwt>0</asrwt>
<pdfrwt beam="1">  1       21 0.80956982E-03 0.51113530E+01</pdfrwt>
<pdfrwt beam="2">  1       21 0.77105803E-03 0.51113530E+01</pdfrwt>
<totfact> 0.52293596E+09</totfact>
</mgrwt>
</event>
<event>
 4    1  0.3999109E+006  0.6196126E+01  0.7546771E-02  0.2390576E+00
         21   -1    0    0  501  502  0.00000000000E+00  0.00000000000E+00  0.19444565773E+02  0.19444565773E+02  0.00000000000E+00 0.  1.
         21   -1    0    0  502  503 -0.00000000000E+00 -0.00000000000E+00 -0.19847245628E+01  0.19847245628E+01  0.00000000000E+00 0.  1.
          5    1    1    2  501    0  0.15857201718E+01 -0.37131479027E+01  0.79583311870E+01  0.10085980919E+02  0.47000000000E+01 0.  1.
         -5    1    1    2    0  503 -0.15857201718E+01  0.37131479027E+01  0.95015100227E+01  0.11343309417E+02  0.47000000000E+01 0.  1.
<mgrwt>
<rscale>  2 0.61961259E+01</rscale>
<asrwt>0</asrwt>
<pdfrwt beam="1">  1       21 0.29914715E-02 0.61961259E+01</pdfrwt>
<pdfrwt beam="2">  1       21 0.30534225E-03 0.61961259E+01</pdfrwt>
<totfact> 0.35300537E+09</totfact>
</mgrwt>
</event>
<event>
 4    1  0.3999109E+006  0.5847502E+01  0.7546771E-02  0.2435704E+00
         21   -1    0    0  501  502  0.00000000000E+00  0.00000000000E+00  0.26494663247E+02  0.26494663247E+02  0.00000000000E+00 0. -1.
         21   -1    0    0  502  503 -0.00000000000E+00 -0.00000000000E+00 -0.39034474326E+01  0.39034474326E+01  0.00000000000E+00 0. -1.
          5    1    1    2  501    0  0.34681231963E+01 -0.27458616145E+00  0.23730778974E+02  0.24440604469E+02  0.47000000000E+01 0. -1.
         -5    1    1    2    0  503 -0.34681231963E+01  0.27458616145E+00 -0.11395631594E+01  0.59575062114E+01  0.47000000000E+01 0. -1.
<mgrwt>
<rscale>  2 0.58475017E+01</rscale>
<asrwt>0</asrwt>
<pdfrwt beam="1">  1       21 0.40761019E-02 0.58475017E+01</pdfrwt>
<pdfrwt beam="2">  1       21 0.60053039E-03 0.58475017E+01</pdfrwt>
<totfact> 0.83817277E+08</totfact>
</mgrwt>
</event>
<event>
 4    1  0.3999109E+006  0.6046420E+01  0.7546771E-02  0.2409421E+00
         21   -1    0    0  501  502  0.00000000000E+00  0.00000000000E+00  0.47443940817E+00  0.47443940817E+00  0.00000000000E+00 0. -1.
         21   -1    0    0  502  503 -0.00000000000E+00 -0.00000000000E+00 -0.23080090604E+03  0.23080090604E+03  0.00000000000E+00 0.  1.
          5    1    1    2  501    0 -0.28432430213E+01  0.25268872590E+01 -0.20783528954E+02  0.21645190364E+02  0.47000000000E+01 0. -1.
         -5    1    1    2    0  503  0.28432430213E+01 -0.25268872590E+01 -0.20954293768E+03  0.20963015509E+03  0.47000000000E+01 0.  1.
<mgrwt>
<rscale>  2 0.60464196E+01</rscale>
<asrwt>0</asrwt>
<pdfrwt beam="1">  1       21 0.72990633E-04 0.60464196E+01</pdfrwt>
<pdfrwt beam="2">  1       21 0.35507853E-01 0.60464196E+01</pdfrwt>
<totfact> 0.51358557E+08</totfact>
</mgrwt>
</event>
<event>
 4    1  0.3999109E+006  0.1126060E+02  0.7546771E-02  0.2009628E+00
         21   -1    0    0  501  502  0.00000000000E+00  0.00000000000E+00  0.42305999926E+03  0.42305999926E+03  0.00000000000E+00 0. -1.
         21   -1    0    0  502  503 -0.00000000000E+00 -0.00000000000E+00 -0.30662346589E+00  0.30662346589E+00  0.00000000000E+00 0.  1.
          5    1    1    2  501    0  0.17385233003E+01  0.10084078938E+02  0.24313086639E+03  0.24339149390E+03  0.47000000000E+01 0.  1.
         -5    1    1    2    0  503 -0.17385233003E+01 -0.10084078938E+02  0.17962250940E+03  0.17997512882E+03  0.47000000000E+01 0. -1.
<mgrwt>
<rscale>  2 0.11260600E+02</rscale>
<asrwt>0</asrwt>
<pdfrwt beam="1">  1       21 0.65085687E-01 0.11260600E+02</pdfrwt>
<pdfrwt beam="2">  1       21 0.47173179E-04 0.11260600E+02</pdfrwt>
<totfact> 0.43548552E+08</totfact>
</mgrwt>
</event>
<event>
 4    1  0.3999109E+006  0.6078955E+01  0.7546771E-02  0.2405259E+00
         21   -1    0    0  501  502  0.00000000000E+00  0.00000000000E+00  0.20169688708E+01  0.20169688708E+01  0.00000000000E+00 0.  1.
         21   -1    0    0  502  503 -0.00000000000E+00 -0.00000000000E+00 -0.35272550189E+02  0.35272550189E+02  0.00000000000E+00 0.  1.
          5    1    1    2  501    0  0.32227980730E+01 -0.21159565690E+01 -0.37025718713E+01  0.71177762035E+01  0.47000000000E+01 0.  1.
         -5    1    1    2    0  503 -0.32227980730E+01  0.21159565690E+01 -0.29553009447E+02  0.30171742856E+02  0.47000000000E+01 0.  1.
<mgrwt>
<rscale>  2 0.60789555E+01</rscale>
<asrwt>0</asrwt>
<pdfrwt beam="1">  1       21 0.31030295E-03 0.60789555E+01</pdfrwt>
<pdfrwt beam="2">  1       21 0.54265454E-02 0.60789555E+01</pdfrwt>
<totfact> 0.14135817E+09</totfact>
</mgrwt>
</event>
<event>
 4    1  0.3999109E+006  0.1086688E+02  0.7546771E-02  0.2028768E+00
         21   -1    0    0  501  502  0.00000000000E+00  0.00000000000E+00  0.26330251247E+02  0.26330251247E+02  0.00000000000E+00 0. -1.
         21   -1    0    0  502  503 -0.00000000000E+00 -0.00000000000E+00 -0.45135219086E+01  0.45135219086E+01  0.00000000000E+00 0.  1.
          5    1    1    2  501    0 -0.33461347946E+01 -0.92088216407E+01  0.12136068133E+02  0.16290278199E+02  0.47000000000E+01 0.  1.
         -5    1    1    2    0  503  0.33461347946E+01  0.92088216407E+01  0.96806612050E+01  0.14553494956E+02  0.47000000000E+01 0.  1.
<mgrwt>
<rscale>  2 0.10866877E+02</rscale>
<asrwt>0</asrwt>
<pdfrwt beam="1">  1       21 0.40508078E-02 0.10866877E+02</pdfrwt>
<pdfrwt beam="2">  1       21 0.69438800E-03 0.10866877E+02</pdfrwt>
<totfact> 0.10451616E+09</totfact>
</mgrwt>
</event>
<event>
 4    1  0.3999109E+006  0.1030438E+02  0.7546771E-02  0.2058068E+00
         21   -1    0    0  503  502  0.00000000000E+00  0.00000000000E+00  0.21070893338E+03  0.21070893338E+03  0.00000000000E+00 0. -1.
         21   -1    0    0  501  503 -0.00000000000E+00 -0.00000000000E+00 -0.52060625050E+00  0.52060625050E+00  0.00000000000E+00 0.  1.
          5    1    1    2  501    0 -0.24865211532E+01 -0.88265219067E+01  0.86185544922E+02  0.86799357313E+02  0.47000000000E+01 0.  1.
         -5    1    1    2    0  502  0.24865211532E+01  0.88265219067E+01  0.12400278221E+03  0.12443018232E+03  0.47000000000E+01 0.  1.
<mgrwt>
<rscale>  2 0.10304381E+02</rscale>
<asrwt>0</asrwt>
<pdfrwt beam="1">  1       21 0.32416691E-01 0.10304381E+02</pdfrwt>
<pdfrwt beam="2">  1       21 0.80093438E-04 0.10304381E+02</pdfrwt>
<totfact> 0.73266152E+08</totfact>
</mgrwt>
</event>
<event>
 4    1  0.3999109E+006  0.6101713E+01  0.7546771E-02  0.2402371E+00
         21   -1    0    0  503  502  0.00000000000E+00  0.00000000000E+00  0.14303407584E+03  0.14303407584E+03  0.00000000000E+00 0. -1.
         21   -1    0    0  501  503 -0.00000000000E+00 -0.00000000000E+00 -0.78446843121E+00  0.78446843121E+00  0.00000000000E+00 0. -1.
          5    1    1    2  501    0 -0.34789200190E+01 -0.17429900170E+01  0.12344055298E+02  0.13769771236E+02  0.47000000000E+01 0. -1.
         -5    1    1    2    0  502  0.34789200190E+01  0.17429900170E+01  0.12990555211E+03  0.13004877303E+03  0.47000000000E+01 0. -1.
<mgrwt>
<rscale>  2 0.61017128E+01</rscale>
<asrwt>0</asrwt>
<pdfrwt beam="1">  1       21 0.22005222E-01 0.61017128E+01</pdfrwt>
<pdfrwt beam="2">  1       21 0.12068756E-03 0.61017128E+01</pdfrwt>
<totfact> 0.58550997E+08</totfact>
</mgrwt>
</event>
<event>
 4    1  0.3999109E+006  0.7681319E+01  0.7546771E-02  0.2237336E+00
         21   -1    0    0  501  502  0.00000000000E+00  0.00000000000E+00  0.11244725721E+00  0.11244725721E+00  0.00000000000E+00 0. -1.
         21   -1    0    0  502  503 -0.00000000000E+00 -0.00000000000E+00 -0.83715891332E+03  0.83715891332E+03  0.00000000000E+00 0. -1.
          5    1    1    2  501    0  0.82010196331E+00  0.60199750601E+01 -0.16277130704E+03  0.16295245031E+03  0.47000000000E+01 0. -1.
         -5    1    1    2    0  503 -0.82010196331E+00 -0.60199750601E+01 -0.67427515902E+03  0.67431891027E+03  0.47000000000E+01 0. -1.
<mgrwt>
<rscale>  2 0.76813193E+01</rscale>
<asrwt>0</asrwt>
<pdfrwt beam="1">  1       21 0.17300260E-04 0.76813193E+01</pdfrwt>
<pdfrwt beam="2">  1       21 0.12878860E+00 0.76813193E+01</pdfrwt>
<totfact> 0.34848724E+08</totfact>
</mgrwt>
</event>
<event>
 4    1  0.3999109E+006  0.5220914E+01  0.7546771E-02  0.2529395E+00
         21   -1    0    0  503  502  0.00000000000E+00  0.00000000000E+00  0.28704456394E+03  0.28704456394E+03  0.00000000000E+00 0.  1.
         21   -1    0    0  501  503 -0.00000000000E+00 -0.00000000000E+00 -0.49404920253E+00  0.49404920253E+00  0.00000000000E+00 0.  1.
          5    1    1    2  501    0  0.14497266778E-01  0.22732654161E+01  0.14059434395E+02  0.14997521173E+02  0.47000000000E+01 0.  1.
         -5    1    1    2    0  502 -0.14497266778E-01 -0.22732654161E+01  0.27249108034E+03  0.27254109197E+03  0.47000000000E+01 0.  1.
<mgrwt>
<rscale>  2 0.52209143E+01</rscale>
<asrwt>0</asrwt>
<pdfrwt beam="1">  1       21 0.44160569E-01 0.52209143E+01</pdfrwt>
<pdfrwt beam="2">  1       21 0.76007799E-04 0.52209143E+01</pdfrwt>
<totfact> 0.29929502E+08</totfact>
</mgrwt>
</event>
<event>
 4    1  0.3999109E+006  0.1827390E+02  0.7546771E-02  0.1782006E+00
         21   -1    0    0  501  502  0.00000000000E+00  0.00000000000E+00  0.71186980474E+01  0.71186980474E+01  0.00000000000E+00 0. -1.
         21   -1    0    0  502  503 -0.00000000000E+00 -0.00000000000E+00 -0.10658826297E+03  0.10658826297E+03  0.00000000000E+00 0.  1.
          5    1    1    2  501    0 -0.10533116017E+02  0.14173877553E+02 -0.71933728460E+01  0.19638735978E+02  0.47000000000E+01 0. -1.
         -5    1    1    2    0  503  0.10533116017E+02 -0.14173877553E+02 -0.92276192081E+02  0.94068225044E+02  0.47000000000E+01 0.  1.
<mgrwt>
<rscale>  2 0.18273898E+02</rscale>
<asrwt>0</asrwt>
<pdfrwt beam="1">  1       21 0.10951844E-02 0.18273898E+02</pdfrwt>
<pdfrwt beam="2">  1       21 0.16398193E-01 0.18273898E+02</pdfrwt>
<totfact> 0.70955162E+07</totfact>
</mgrwt>
</event>
<event>
 4    1  0.3999109E+006  0.9431610E+01  0.7546771E-02  0.2108856E+00
         21   -1    0    0  501  502  0.00000000000E+00  0.00000000000E+00  0.66955696630E+02  0.66955696630E+02  0.00000000000E+00 0. -1.
         21   -1    0    0  502  503 -0.00000000000E+00 -0.00000000000E+00 -0.23787698910E+01  0.23787698910E+01  0.00000000000E+00 0.  1.
          5    1    1    2  501    0  0.97350148556E+00  0.81189633104E+01  0.55322981655E+02  0.56121186459E+02  0.47000000000E+01 0. -1.
         -5    1    1    2    0  503 -0.97350148556E+00 -0.81189633104E+01  0.92539450839E+01  0.13213280062E+02  0.47000000000E+01 0.  1.
<mgrwt>
<rscale>  2 0.94316102E+01</rscale>
<asrwt>0</asrwt>
<pdfrwt beam="1">  1       21 0.10300875E-01 0.94316102E+01</pdfrwt>
<pdfrwt beam="2">  1       21 0.36596465E-03 0.94316102E+01</pdfrwt>
<totfact> 0.56636716E+08</totfact>
</mgrwt>
</event>
<event>
 4    1  0.3999109E+006  0.5341871E+01  0.7546771E-02  0.2509860E+00
         21   -1    0    0  501  502  0.00000000000E+00  0.00000000000E+00  0.14831014772E+01  0.14831014772E+01  0.00000000000E+00 0.  1.
         21   -1    0    0  502  503 -0.00000000000E+00 -0.00000000000E+00 -0.25652436730E+02  0.25652436730E+02  0.00000000000E+00 0. -1.
          5    1    1    2  501    0 -0.14088819734E+01  0.21120212316E+01 -0.53013918538E+01  0.75259775235E+01  0.47000000000E+01 0.  1.
         -5    1    1    2    0  503  0.14088819734E+01 -0.21120212316E+01 -0.18867943399E+02  0.19609560684E+02  0.47000000000E+01 0. -1.
<mgrwt>
<rscale>  2 0.53418707E+01</rscale>
<asrwt>0</asrwt>
<pdfrwt beam="1">  1       21 0.22816950E-03 0.53418707E+01</pdfrwt>
<pdfrwt beam="2">  1       21 0.39465281E-02 0.53418707E+01</pdfrwt>
<totfact> 0.30667722E+09</totfact>
</mgrwt>
</event>
<event>
 4    1  0.3999109E+006  0.6357519E+01  0.7546771E-02  0.2371092E+00
         21   -1    0    0  503  502  0.00000000000E+00  0.00000000000E+00  0.19545200228E+00  0.19545200228E+00  0.00000000000E+00 0.  1.
         21   -1    0    0  501  503 -0.00000000000E+00 -0.00000000000E+00 -0.30806578637E+03  0.30806578637E+03  0.00000000000E+00 0. -1.
          5    1    1    2  501    0 -0.17217689162E+01 -0.39196375293E+01 -0.24230707268E+03  0.24239046086E+03  0.47000000000E+01 0. -1.
         -5    1    1    2    0  502  0.17217689162E+01  0.39196375293E+01 -0.65563261687E+02  0.65870777509E+02  0.47000000000E+01 0.  1.
<mgrwt>
<rscale>  2 0.63575189E+01</rscale>
<asrwt>0</asrwt>
<pdfrwt beam="1">  1       21 0.30069574E-04 0.63575189E+01</pdfrwt>
<pdfrwt beam="2">  1       21 0.47394682E-01 0.63575189E+01</pdfrwt>
<totfact> 0.10509247E+09</totfact>
</mgrwt>
</event>
<event>
 4    1  0.3999109E+006  0.4842280E+01  0.7546771E-02  0.2595917E+00
         21   -1    0    0  501  502  0.00000000000E+00  0.00000000000E+00  0.28329010291E+04  0.28329010291E+04  0.00000000000E+00 0.  1.
         21   -1    0    0  502  503 -0.00000000000E+00 -0.00000000000E+00 -0.83274394326E-02  0.83274394326E-02  0.00000000000E+00 0.  1.
          5    1    1    2  501    0 -0.28783415681E+00 -0.11290841259E+01  0.13061147228E+04  0.13061236989E+04  0.47000000000E+01 0. -1.
         -5    1    1    2    0  503  0.28783415681E+00  0.11290841259E+01  0.15267779789E+04  0.15267856577E+04  0.47000000000E+01 0. -1.
<mgrwt>
<rscale>  2 0.48422804E+01</rscale>
<asrwt>0</asrwt>
<pdfrwt beam="1">  1       21 0.43506040E+00 0.48422804E+01</pdfrwt>
<pdfrwt beam="2">  1       21 0.12834135E-05 0.48422804E+01</pdfrwt>
<totfact> 0.40039007E+08</totfact>
</mgrwt>
</event>
<event>
 4    1  0.3999109E+006  0.6704176E+01  0.7546771E-02  0.2331892E+00
         21   -1    0    0  501  502  0.00000000000E+00  0.00000000000E+00  0.47976773168E+02  0.47976773168E+02  0.00000000000E+00 0. -1.
         21   -1    0    0  502  503 -0.00000000000E+00 -0.00000000000E+00 -0.82731853978E+01  0.82731853978E+01  0.00000000000E+00 0. -1.
          5    1    1    2  501    0  0.46893728977E+01 -0.93045952433E+00  0.46336556213E+02  0.46819039020E+02  0.47000000000E+01 0. -1.
         -5    1    1    2    0  503 -0.46893728977E+01  0.93045952433E+00 -0.66329684431E+01  0.94309195452E+01  0.47000000000E+01 0. -1.
<mgrwt>
<rscale>  2 0.67041758E+01</rscale>
<asrwt>0</asrwt>
<pdfrwt beam="1">  1       21 0.73810418E-02 0.67041758E+01</pdfrwt>
<pdfrwt beam="2">  1       21 0.12727978E-02 0.67041758E+01</pdfrwt>
<totfact> 0.13211565E+08</totfact>
</mgrwt>
</event>
<event>
 4    1  0.3999109E+006  0.6347623E+01  0.7546771E-02  0.2372263E+00
         21   -1    0    0  501  502  0.00000000000E+00  0.00000000000E+00  0.19164612949E+03  0.19164612949E+03  0.00000000000E+00 0. -1.
         21   -1    0    0  502  503 -0.00000000000E+00 -0.00000000000E+00 -0.21412359082E+00  0.21412359082E+00  0.00000000000E+00 0.  1.
          5    1    1    2  501    0 -0.20031944063E+01 -0.37668986571E+01  0.82802166031E+02  0.83045114322E+02  0.47000000000E+01 0.  1.
         -5    1    1    2    0  503  0.20031944063E+01  0.37668986571E+01  0.10862983986E+03  0.10881513875E+03  0.47000000000E+01 0. -1.
<mgrwt>
<rscale>  2 0.63476227E+01</rscale>
<asrwt>0</asrwt>
<pdfrwt beam="1">  1       21 0.29483883E-01 0.63476227E+01</pdfrwt>
<pdfrwt beam="2">  1       21 0.32942244E-04 0.63476227E+01</pdfrwt>
<totfact> 0.21202431E+09</totfact>
</mgrwt>
</event>
<event>
 4    1  0.3999109E+006  0.6902314E+01  0.7546771E-02  0.2310956E+00
         21   -1    0    0  503  502  0.00000000000E+00  0.00000000000E+00  0.27480807695E+00  0.27480807695E+00  0.00000000000E+00 0.  1.
         21   -1    0    0  501  503 -0.00000000000E+00 -0.00000000000E+00 -0.18154780254E+03  0.18154780254E+03  0.00000000000E+00 0.  1.
          5    1    1    2  501    0 -0.29870366190E+01 -0.40779349202E+01 -0.71335088626E+02  0.71668241295E+02  0.47000000000E+01 0.  1.
         -5    1    1    2    0  502  0.29870366190E+01  0.40779349202E+01 -0.10993790584E+03  0.11015436932E+03  0.47000000000E+01 0.  1.
<mgrwt>
<rscale>  2 0.69023142E+01</rscale>
<asrwt>0</asrwt>
<pdfrwt beam="1">  1       21 0.42278162E-04 0.69023142E+01</pdfrwt>
<pdfrwt beam="2">  1       21 0.27930434E-01 0.69023142E+01</pdfrwt>
<totfact> 0.17683498E+09</totfact>
</mgrwt>
</event>
<event>
 4    1  0.3999109E+006  0.4834245E+01  0.7546771E-02  0.2597426E+00
         21   -1    0    0  501  502  0.00000000000E+00  0.00000000000E+00  0.22117662971E+01  0.22117662971E+01  0.00000000000E+00 0.  1.
         21   -1    0    0  502  503 -0.00000000000E+00 -0.00000000000E+00 -0.36007210814E+02  0.36007210814E+02  0.00000000000E+00 0.  1.
          5    1    1    2  501    0 -0.87828353898E+00  0.71312083974E+00 -0.83490696402E+00  0.49058121596E+01  0.47000000000E+01 0.  1.
         -5    1    1    2    0  503  0.87828353898E+00 -0.71312083974E+00 -0.32960537553E+02  0.33313164952E+02  0.47000000000E+01 0.  1.
<mgrwt>
<rscale>  2 0.48342449E+01</rscale>
<asrwt>0</asrwt>
<pdfrwt beam="1">  1       21 0.34027175E-03 0.48342449E+01</pdfrwt>
<pdfrwt beam="2">  1       21 0.55395708E-02 0.48342449E+01</pdfrwt>
<totfact> 0.98665764E+08</totfact>
</mgrwt>
</event>
<event>
 4    1  0.3999109E+006  0.9186247E+01  0.7546771E-02  0.2124490E+00
         21   -1    0    0  503  502  0.00000000000E+00  0.00000000000E+00  0.10202199753E+02  0.10202199753E+02  0.00000000000E+00 0. -1.
         21   -1    0    0  501  503 -0.00000000000E+00 -0.00000000000E+00 -0.18216767255E+02  0.18216767255E+02  0.00000000000E+00 0.  1.
          5    1    1    2  501    0  0.78175110779E+01 -0.10879589370E+01 -0.14506373287E+02  0.17170381476E+02  0.47000000000E+01 0.  1.
         -5    1    1    2    0  502 -0.78175110779E+01  0.10879589370E+01  0.64918057850E+01  0.11248585531E+02  0.47000000000E+01 0. -1.
<mgrwt>
<rscale>  2 0.91862470E+01</rscale>
<asrwt>0</asrwt>
<pdfrwt beam="1">  1       21 0.15695692E-02 0.91862470E+01</pdfrwt>
<pdfrwt beam="2">  1       21 0.28025796E-02 0.91862470E+01</pdfrwt>
<totfact> 0.50603188E+08</totfact>
</mgrwt>
</event>
<event>
 4    1  0.3999109E+006  0.6374349E+01  0.7546771E-02  0.2369107E+00
         21   -1    0    0  501  502  0.00000000000E+00  0.00000000000E+00  0.25093741138E+03  0.25093741138E+03  0.00000000000E+00 0. -1.
         21   -1    0    0  502  503 -0.00000000000E+00 -0.00000000000E+00 -0.22631157652E+00  0.22631157652E+00  0.00000000000E+00 0. -1.
          5    1    1    2  501    0  0.42374793527E+00  0.42851794045E+01  0.19234105155E+03  0.19244664829E+03  0.47000000000E+01 0. -1.
         -5    1    1    2    0  503 -0.42374793527E+00 -0.42851794045E+01  0.58370048246E+02  0.58717074664E+02  0.47000000000E+01 0. -1.
<mgrwt>
<rscale>  2 0.63743490E+01</rscale>
<asrwt>0</asrwt>
<pdfrwt beam="1">  1       21 0.38605533E-01 0.63743490E+01</pdfrwt>
<pdfrwt beam="2">  1       21 0.34817366E-04 0.63743490E+01</pdfrwt>
<totfact> 0.12438719E+09</totfact>
</mgrwt>
</event>
<event>
 4    1  0.3999109E+006  0.6251030E+01  0.7546771E-02  0.2383854E+00
         21   -1    0    0  503  502  0.00000000000E+00  0.00000000000E+00  0.18079271705E+02  0.18079271705E+02  0.00000000000E+00 0. -1.
         21   -1    0    0  501  503 -0.00000000000E+00 -0.00000000000E+00 -0.21927053876E+01  0.21927053876E+01  0.00000000000E+00 0.  1.
          5    1    1    2  501    0 -0.34029244272E+01 -0.23249688289E+01  0.91556423678E+01  0.11086079644E+02  0.47000000000E+01 0. -1.
         -5    1    1    2    0  502  0.34029244272E+01  0.23249688289E+01  0.67309239493E+01  0.91858974479E+01  0.47000000000E+01 0. -1.
<mgrwt>
<rscale>  2 0.62510299E+01</rscale>
<asrwt>0</asrwt>
<pdfrwt beam="1">  1       21 0.27814263E-02 0.62510299E+01</pdfrwt>
<pdfrwt beam="2">  1       21 0.33733930E-03 0.62510299E+01</pdfrwt>
<totfact> 0.34474874E+09</totfact>
</mgrwt>
</event>
<event>
 4    1  0.3999109E+006  0.5796706E+01  0.7546771E-02  0.2442658E+00
         21   -1    0    0  503  502  0.00000000000E+00  0.00000000000E+00  0.84280837952E+02  0.84280837952E+02  0.00000000000E+00 0. -1.
         21   -1    0    0  501  503 -0.00000000000E+00 -0.00000000000E+00 -0.40056501344E+00  0.40056501344E+00  0.00000000000E+00 0. -1.
          5    1    1    2  501    0 -0.17383028380E+01  0.29137777779E+01  0.39042114129E+02  0.39470095938E+02  0.47000000000E+01 0. -1.
         -5    1    1    2    0  502  0.17383028380E+01 -0.29137777779E+01  0.44838158810E+02  0.45211307028E+02  0.47000000000E+01 0. -1.
<mgrwt>
<rscale>  2 0.57967058E+01</rscale>
<asrwt>0</asrwt>
<pdfrwt beam="1">  1       21 0.12966269E-01 0.57967058E+01</pdfrwt>
<pdfrwt beam="2">  1       21 0.61625454E-04 0.57967058E+01</pdfrwt>
<totfact> 0.32136302E+09</totfact>
</mgrwt>
</event>
<event>
 4    1  0.3999109E+006  0.4890454E+01  0.7546771E-02  0.2586962E+00
         21   -1    0    0  503  502  0.00000000000E+00  0.00000000000E+00  0.15619367252E+03  0.15619367252E+03  0.00000000000E+00 0. -1.
         21   -1    0    0  501  503 -0.00000000000E+00 -0.00000000000E+00 -0.18801281470E+00  0.18801281470E+00  0.00000000000E+00 0. -1.
          5    1    1    2  501    0  0.91965785704E+00 -0.99033916916E+00  0.44318841245E+02  0.44587848474E+02  0.47000000000E+01 0. -1.
         -5    1    1    2    0  502 -0.91965785704E+00  0.99033916916E+00  0.11168681846E+03  0.11179383686E+03  0.47000000000E+01 0. -1.
<mgrwt>
<rscale>  2 0.48904542E+01</rscale>
<asrwt>0</asrwt>
<pdfrwt beam="1">  1       21 0.24029692E-01 0.48904542E+01</pdfrwt>
<pdfrwt beam="2">  1       21 0.28925173E-04 0.48904542E+01</pdfrwt>
<totfact> 0.28271961E+09</totfact>
</mgrwt>
</event>
<event>
 4    1  0.3999109E+006  0.4740836E+01  0.7546771E-02  0.2615290E+00
         21   -1    0    0  501  502  0.00000000000E+00  0.00000000000E+00  0.20406080962E+01  0.20406080962E+01  0.00000000000E+00 0.  1.
         21   -1    0    0  502  503 -0.00000000000E+00 -0.00000000000E+00 -0.41256554036E+02  0.41256554036E+02  0.00000000000E+00 0.  1.
          5    1    1    2  501    0  0.29807496777E+00  0.54468509804E+00 -0.10730308959E+01  0.48607536294E+01  0.47000000000E+01 0.  1.
         -5    1    1    2    0  503 -0.29807496777E+00 -0.54468509804E+00 -0.38142915044E+02  0.38436408503E+02  0.47000000000E+01 0.  1.
<mgrwt>
<rscale>  2 0.47408365E+01</rscale>
<asrwt>0</asrwt>
<pdfrwt beam="1">  1       21 0.31393970E-03 0.47408365E+01</pdfrwt>
<pdfrwt beam="2">  1       21 0.63471622E-02 0.47408365E+01</pdfrwt>
<totfact> 0.88469922E+08</totfact>
</mgrwt>
</event>
<event>
 4    1  0.3999109E+006  0.5154747E+01  0.7546771E-02  0.2540413E+00
         21   -1    0    0  503  502  0.00000000000E+00  0.00000000000E+00  0.50789411043E+01  0.50789411043E+01  0.00000000000E+00 0. -1.
         21   -1    0    0  501  503 -0.00000000000E+00 -0.00000000000E+00 -0.10923973581E+02  0.10923973581E+02  0.00000000000E+00 0. -1.
          5    1    1    2  501    0 -0.13873376622E+01  0.15989717535E+01 -0.86984506757E+01  0.10111105806E+02  0.47000000000E+01 0. -1.
         -5    1    1    2    0  502  0.13873376622E+01 -0.15989717535E+01  0.28534181988E+01  0.58918088797E+01  0.47000000000E+01 0. -1.
<mgrwt>
<rscale>  2 0.51547470E+01</rscale>
<asrwt>0</asrwt>
<pdfrwt beam="1">  1       21 0.78137556E-03 0.51547470E+01</pdfrwt>
<pdfrwt beam="2">  1       21 0.16806113E-02 0.51547470E+01</pdfrwt>
<totfact> 0.18595412E+09</totfact>
</mgrwt>
</event>
<event>
 4    1  0.3999109E+006  0.5400527E+01  0.7546771E-02  0.2500655E+00
         21   -1    0    0  503  502  0.00000000000E+00  0.00000000000E+00  0.34139076137E+01  0.34139076137E+01  0.00000000000E+00 0.  1.
         21   -1    0    0  501  503 -0.00000000000E+00 -0.00000000000E+00 -0.13026093500E+02  0.13026093500E+02  0.00000000000E+00 0.  1.
          5    1    1    2  501    0 -0.94648566687E+00 -0.24859328267E+01 -0.96282787370E+01  0.11039449650E+02  0.47000000000E+01 0.  1.
         -5    1    1    2    0  502  0.94648566687E+00  0.24859328267E+01  0.16092850340E-01  0.54005514641E+01  0.47000000000E+01 0.  1.
<mgrwt>
<rscale>  2 0.54005275E+01</rscale>
<asrwt>0</asrwt>
<pdfrwt beam="1">  1       21 0.52521655E-03 0.54005275E+01</pdfrwt>
<pdfrwt beam="2">  1       21 0.20040144E-02 0.54005275E+01</pdfrwt>
<totfact> 0.26283578E+09</totfact>
</mgrwt>
</event>
<event>
 4    1  0.3999109E+006  0.1013003E+02  0.7546771E-02  0.2067662E+00
         21   -1    0    0  503  502  0.00000000000E+00  0.00000000000E+00  0.18726349620E+03  0.18726349620E+03  0.00000000000E+00 0.  1.
         21   -1    0    0  501  503 -0.00000000000E+00 -0.00000000000E+00 -0.26402332311E+01  0.26402332311E+01  0.00000000000E+00 0.  1.
          5    1    1    2  501    0  0.36796844183E+01  0.81845806358E+01  0.77858803027E+01  0.12776438067E+02  0.47000000000E+01 0.  1.
         -5    1    1    2    0  502 -0.36796844183E+01 -0.81845806358E+01  0.17683738267E+03  0.17712729136E+03  0.47000000000E+01 0.  1.
<mgrwt>
<rscale>  2 0.10130027E+02</rscale>
<asrwt>0</asrwt>
<pdfrwt beam="1">  1       21 0.28809758E-01 0.10130027E+02</pdfrwt>
<pdfrwt beam="2">  1       21 0.40618987E-03 0.10130027E+02</pdfrwt>
<totfact> 0.92452266E+07</totfact>
</mgrwt>
</event>
<event>
 4    1  0.3999109E+006  0.5033353E+01  0.7546771E-02  0.2561271E+00
         21   -1    0    0  503  502  0.00000000000E+00  0.00000000000E+00  0.39712951996E+02  0.39712951996E+02  0.00000000000E+00 0. -1.
         21   -1    0    0  501  503 -0.00000000000E+00 -0.00000000000E+00 -0.64103673189E+00  0.64103673189E+00  0.00000000000E+00 0.  1.
          5    1    1    2  501    0 -0.12282971606E+00  0.17970974994E+01  0.18134520649E+02  0.18820081979E+02  0.47000000000E+01 0.  1.
         -5    1    1    2    0  502  0.12282971606E+00 -0.17970974994E+01  0.20937394615E+02  0.21533906748E+02  0.47000000000E+01 0.  1.
<mgrwt>
<rscale>  2 0.50333534E+01</rscale>
<asrwt>0</asrwt>
<pdfrwt beam="1">  1       21 0.61096830E-02 0.50333534E+01</pdfrwt>
<pdfrwt beam="2">  1       21 0.98621067E-04 0.50333534E+01</pdfrwt>
<totfact> 0.46899293E+09</totfact>
</mgrwt>
</event>
<event>
 4    1  0.3999109E+006  0.5827368E+01  0.7546771E-02  0.2438448E+00
         21   -1    0    0  501  502  0.00000000000E+00  0.00000000000E+00  0.51447469946E+02  0.51447469946E+02  0.00000000000E+00 0.  1.
         21   -1    0    0  502  503 -0.00000000000E+00 -0.00000000000E+00 -0.18434533691E+01  0.18434533691E+01  0.00000000000E+00 0.  1.
          5    1    1    2  501    0  0.18175923764E+00  0.34402298656E+01  0.46150758051E+02  0.46517208500E+02  0.47000000000E+01 0.  1.
         -5    1    1    2    0  503 -0.18175923764E+00 -0.34402298656E+01  0.34532585257E+01  0.67737148149E+01  0.47000000000E+01 0.  1.
<mgrwt>
<rscale>  2 0.58273680E+01</rscale>
<asrwt>0</asrwt>
<pdfrwt beam="1">  1       21 0.79149943E-02 0.58273680E+01</pdfrwt>
<pdfrwt beam="2">  1       21 0.28360825E-03 0.58273680E+01</pdfrwt>
<totfact> 0.87732803E+08</totfact>
</mgrwt>
</event>
<event>
 4    1  0.3999109E+006  0.6025276E+01  0.7546771E-02  0.2412145E+00
         21   -1    0    0  503  502  0.00000000000E+00  0.00000000000E+00  0.72885013272E+00  0.72885013272E+00  0.00000000000E+00 0. -1.
         21   -1    0    0  501  503 -0.00000000000E+00 -0.00000000000E+00 -0.14230805948E+03  0.14230805948E+03  0.00000000000E+00 0.  1.
          5    1    1    2  501    0  0.30574871651E+01  0.22058376717E+01 -0.12844898026E+03  0.12859021921E+03  0.47000000000E+01 0.  1.
         -5    1    1    2    0  502 -0.30574871651E+01 -0.22058376717E+01 -0.13130229087E+02  0.14446690399E+02  0.47000000000E+01 0. -1.
<mgrwt>
<rscale>  2 0.60252757E+01</rscale>
<asrwt>0</asrwt>
<pdfrwt beam="1">  1       21 0.11213077E-03 0.60252757E+01</pdfrwt>
<pdfrwt beam="2">  1       21 0.21893552E-01 0.60252757E+01</pdfrwt>
<totfact> 0.64587670E+08</totfact>
</mgrwt>
</event>
<event>
 4    1  0.3999109E+006  0.8253632E+01  0.7546771E-02  0.2190544E+00
         21   -1    0    0  503  502  0.00000000000E+00  0.00000000000E+00  0.19555937920E+01  0.19555937920E+01  0.00000000000E+00 0.  1.
         21   -1    0    0  501  503 -0.00000000000E+00 -0.00000000000E+00 -0.47627502679E+02  0.47627502679E+02  0.00000000000E+00 0. -1.
          5    1    1    2  501    0  0.44236391822E+01 -0.51443030106E+01 -0.35684629362E+02  0.36626700777E+02  0.47000000000E+01 0. -1.
         -5    1    1    2    0  502 -0.44236391822E+01  0.51443030106E+01 -0.99872795249E+01  0.12956395694E+02  0.47000000000E+01 0.  1.
<mgrwt>
<rscale>  2 0.82536318E+01</rscale>
<asrwt>0</asrwt>
<pdfrwt beam="1">  1       21 0.30086062E-03 0.82536318E+01</pdfrwt>
<pdfrwt beam="2">  1       21 0.73273072E-02 0.82536318E+01</pdfrwt>
<totfact> 0.11711890E+09</totfact>
</mgrwt>
</event>
<event>
 4    1  0.3999109E+006  0.6546715E+01  0.7546771E-02  0.2349272E+00
         21   -1    0    0  501  502  0.00000000000E+00  0.00000000000E+00  0.14370704499E+02  0.14370704499E+02  0.00000000000E+00 0. -1.
         21   -1    0    0  502  503 -0.00000000000E+00 -0.00000000000E+00 -0.32291494224E+01  0.32291494224E+01  0.00000000000E+00 0.  1.
          5    1    1    2  501    0 -0.45425221582E+01  0.36737943670E+00  0.80032366440E+01  0.10339790713E+02  0.47000000000E+01 0. -1.
         -5    1    1    2    0  503  0.45425221582E+01 -0.36737943670E+00  0.31383184328E+01  0.72600632087E+01  0.47000000000E+01 0.  1.
<mgrwt>
<rscale>  2 0.65467148E+01</rscale>
<asrwt>0</asrwt>
<pdfrwt beam="1">  1       21 0.22108776E-02 0.65467148E+01</pdfrwt>
<pdfrwt beam="2">  1       21 0.49679223E-03 0.65467148E+01</pdfrwt>
<totfact> 0.29249770E+09</totfact>
</mgrwt>
</event>
<event>
 4    1  0.3999109E+006  0.5174455E+01  0.7546771E-02  0.2537106E+00
         21   -1    0    0  503  502  0.00000000000E+00  0.00000000000E+00  0.45354193297E+02  0.45354193297E+02  0.00000000000E+00 0. -1.
         21   -1    0    0  501  503 -0.00000000000E+00 -0.00000000000E+00 -0.16588338845E+01  0.16588338845E+01  0.00000000000E+00 0. -1.
          5    1    1    2  501    0 -0.62289594021E+00  0.20729161435E+01  0.29820995426E+01  0.59722607421E+01  0.47000000000E+01 0. -1.
         -5    1    1    2    0  502  0.62289594021E+00 -0.20729161435E+01  0.40713259870E+02  0.41040766439E+02  0.47000000000E+01 0. -1.
<mgrwt>
<rscale>  2 0.51744546E+01</rscale>
<asrwt>0</asrwt>
<pdfrwt beam="1">  1       21 0.69775672E-02 0.51744546E+01</pdfrwt>
<pdfrwt beam="2">  1       21 0.25520525E-03 0.51744546E+01</pdfrwt>
<totfact> 0.11054381E+09</totfact>
</mgrwt>
</event>
<event>
 4    1  0.3999109E+006  0.6305385E+01  0.7546771E-02  0.2377295E+00
         21   -1    0    0  501  502  0.00000000000E+00  0.00000000000E+00  0.39477190270E+03  0.39477190270E+03  0.00000000000E+00 0.  1.
         21   -1    0    0  502  503 -0.00000000000E+00 -0.00000000000E+00 -0.46927897541E+00  0.46927897541E+00  0.00000000000E+00 0.  1.
          5    1    1    2  501    0  0.38262618414E+01 -0.17399999816E+01  0.37228731468E+03  0.37234070762E+03  0.47000000000E+01 0.  1.
         -5    1    1    2    0  503 -0.38262618414E+01  0.17399999816E+01  0.22015309044E+02  0.22900474055E+02  0.47000000000E+01 0.  1.
<mgrwt>
<rscale>  2 0.63053850E+01</rscale>
<asrwt>0</asrwt>
<pdfrwt beam="1">  1       21 0.60733873E-01 0.63053850E+01</pdfrwt>
<pdfrwt beam="2">  1       21 0.72197081E-04 0.63053850E+01</pdfrwt>
<totfact> 0.20534127E+08</totfact>
</mgrwt>
</event>
<event>
 4    1  0.3999109E+006  0.8134448E+01  0.7546771E-02  0.2199850E+00
         21   -1    0    0  501  502  0.00000000000E+00  0.00000000000E+00  0.43189414990E+01  0.43189414990E+01  0.00000000000E+00 0. -1.
         21   -1    0    0  502  503 -0.00000000000E+00 -0.00000000000E+00 -0.25896588588E+02  0.25896588588E+02  0.00000000000E+00 0.  1.
          5    1    1    2  501    0  0.63735862448E+01  0.18592069304E+01 -0.11341595706E+01  0.82131339914E+01  0.47000000000E+01 0. -1.
         -5    1    1    2    0  503 -0.63735862448E+01 -0.18592069304E+01 -0.20443487518E+02  0.22002396095E+02  0.47000000000E+01 0.  1.
<mgrwt>
<rscale>  2 0.81344485E+01</rscale>
<asrwt>0</asrwt>
<pdfrwt beam="1">  1       21 0.66445255E-03 0.81344485E+01</pdfrwt>
<pdfrwt beam="2">  1       21 0.39840905E-02 0.81344485E+01</pdfrwt>
<totfact> 0.95820027E+08</totfact>
</mgrwt>
</event>
<event>
 4    1  0.3999109E+006  0.6766946E+01  0.7546771E-02  0.2325150E+00
         21   -1    0    0  503  502  0.00000000000E+00  0.00000000000E+00  0.16089311445E+01  0.16089311445E+01  0.00000000000E+00 0.  1.
         21   -1    0    0  501  503 -0.00000000000E+00 -0.00000000000E+00 -0.60520800365E+02  0.60520800365E+02  0.00000000000E+00 0. -1.
          5    1    1    2  501    0  0.19586583240E+01 -0.44570403918E+01 -0.52065830250E+02  0.52503735402E+02  0.47000000000E+01 0. -1.
         -5    1    1    2    0  502 -0.19586583240E+01  0.44570403918E+01 -0.68460389699E+01  0.96259961075E+01  0.47000000000E+01 0.  1.
<mgrwt>
<rscale>  2 0.67669455E+01</rscale>
<asrwt>0</asrwt>
<pdfrwt beam="1">  1       21 0.24752791E-03 0.67669455E+01</pdfrwt>
<pdfrwt beam="2">  1       21 0.93108907E-02 0.67669455E+01</pdfrwt>
<totfact> 0.92555184E+08</totfact>
</mgrwt>
</event>
<event>
 4    1  0.3999109E+006  0.6360801E+01  0.7546771E-02  0.2370704E+00
         21   -1    0    0  501  502  0.00000000000E+00  0.00000000000E+00  0.10887532128E+01  0.10887532128E+01  0.00000000000E+00 0.  1.
         21   -1    0    0  502  503 -0.00000000000E+00 -0.00000000000E+00 -0.11290869282E+03  0.11290869282E+03  0.00000000000E+00 0.  1.
          5    1    1    2  501    0 -0.12897180041E+01 -0.40873487549E+01 -0.92242057380E+01  0.11204720607E+02  0.47000000000E+01 0.  1.
         -5    1    1    2    0  503  0.12897180041E+01  0.40873487549E+01 -0.10259573387E+03  0.10279272543E+03  0.47000000000E+01 0.  1.
<mgrwt>
<rscale>  2 0.63608012E+01</rscale>
<asrwt>0</asrwt>
<pdfrwt beam="1">  1       21 0.16750050E-03 0.63608012E+01</pdfrwt>
<pdfrwt beam="2">  1       21 0.17370568E-01 0.63608012E+01</pdfrwt>
<totfact> 0.56740251E+08</totfact>
</mgrwt>
</event>
<event>
 4    1  0.3999109E+006  0.6348208E+01  0.7546771E-02  0.2372193E+00
         21   -1    0    0  503  502  0.00000000000E+00  0.00000000000E+00  0.27163339006E+02  0.27163339006E+02  0.00000000000E+00 0.  1.
         21   -1    0    0  501  503 -0.00000000000E+00 -0.00000000000E+00 -0.33897298593E+01  0.33897298593E+01  0.00000000000E+00 0.  1.
          5    1    1    2  501    0  0.22305605496E+01 -0.36379030519E+01  0.43120924740E+00  0.63628358768E+01  0.47000000000E+01 0.  1.
         -5    1    1    2    0  502 -0.22305605496E+01  0.36379030519E+01  0.23342399900E+02  0.24190232989E+02  0.47000000000E+01 0.  1.
<mgrwt>
<rscale>  2 0.63482075E+01</rscale>
<asrwt>0</asrwt>
<pdfrwt beam="1">  1       21 0.41789751E-02 0.63482075E+01</pdfrwt>
<pdfrwt beam="2">  1       21 0.52149692E-03 0.63482075E+01</pdfrwt>
<totfact> 0.10506076E+09</totfact>
</mgrwt>
</event>
<event>
 4    1  0.3999109E+006  0.6031687E+01  0.7546771E-02  0.2411318E+00
         21   -1    0    0  501  502  0.00000000000E+00  0.00000000000E+00  0.23094649203E+03  0.23094649203E+03  0.00000000000E+00 0. -1.
         21   -1    0    0  502  503 -0.00000000000E+00 -0.00000000000E+00 -0.17675155442E+00  0.17675155442E+00  0.00000000000E+00 0. -1.
          5    1    1    2  501    0 -0.34289847629E+01  0.15916371115E+01  0.15349270811E+03  0.15361117371E+03  0.47000000000E+01 0. -1.
         -5    1    1    2    0  503  0.34289847629E+01 -0.15916371115E+01  0.77277032367E+02  0.77512069877E+02  0.47000000000E+01 0. -1.
<mgrwt>
<rscale>  2 0.60316868E+01</rscale>
<asrwt>0</asrwt>
<pdfrwt beam="1">  1       21 0.35529988E-01 0.60316868E+01</pdfrwt>
<pdfrwt beam="2">  1       21 0.27192732E-04 0.60316868E+01</pdfrwt>
<totfact> 0.19175750E+09</totfact>
</mgrwt>
</event>
<event>
 4    1  0.3999109E+006  0.5876930E+01  0.7546771E-02  0.2431722E+00
         21   -1    0    0  501  502  0.00000000000E+00  0.00000000000E+00  0.19311861402E+01  0.19311861402E+01  0.00000000000E+00 0. -1.
         21   -1    0    0  502  503 -0.00000000000E+00 -0.00000000000E+00 -0.17916182738E+02  0.17916182738E+02  0.00000000000E+00 0. -1.
          5    1    1    2  501    0 -0.35281445489E+01 -0.22334994919E-01 -0.75752002547E+01  0.95875941565E+01  0.47000000000E+01 0. -1.
         -5    1    1    2    0  503  0.35281445489E+01  0.22334994919E-01 -0.84097963431E+01  0.10259774722E+02  0.47000000000E+01 0. -1.
<mgrwt>
<rscale>  2 0.58769297E+01</rscale>
<asrwt>0</asrwt>
<pdfrwt beam="1">  1       21 0.29710557E-03 0.58769297E+01</pdfrwt>
<pdfrwt beam="2">  1       21 0.27563357E-02 0.58769297E+01</pdfrwt>
<totfact> 0.39376530E+09</totfact>
</mgrwt>
</event>
<event>
 4    1  0.3999109E+006  0.7024339E+01  0.7546771E-02  0.2298547E+00
         21   -1    0    0  501  502  0.00000000000E+00  0.00000000000E+00  0.36745884942E+01  0.36745884942E+01  0.00000000000E+00 0. -1.
         21   -1    0    0  502  503 -0.00000000000E+00 -0.00000000000E+00 -0.26087032428E+03  0.26087032428E+03  0.00000000000E+00 0. -1.
          5    1    1    2  501    0 -0.46656450001E+01 -0.23416019513E+01  0.22540220584E+00  0.70279548319E+01  0.47000000000E+01 0. -1.
         -5    1    1    2    0  503  0.46656450001E+01  0.23416019513E+01 -0.25742113799E+03  0.25751695794E+03  0.47000000000E+01 0. -1.
<mgrwt>
<rscale>  2 0.70243393E+01</rscale>
<asrwt>0</asrwt>
<pdfrwt beam="1">  1       21 0.56532112E-03 0.70243393E+01</pdfrwt>
<pdfrwt beam="2">  1       21 0.40133910E-01 0.70243393E+01</pdfrwt>
<totfact> 0.27474879E+07</totfact>
</mgrwt>
</event>
<event>
 4    1  0.3999109E+006  0.7261021E+01  0.7546771E-02  0.2275457E+00
         21   -1    0    0  503  502  0.00000000000E+00  0.00000000000E+00  0.13333553319E+03  0.13333553319E+03  0.00000000000E+00 0.  1.
         21   -1    0    0  501  503 -0.00000000000E+00 -0.00000000000E+00 -0.40093375341E+00  0.40093375341E+00  0.00000000000E+00 0.  1.
          5    1    1    2  501    0  0.38499068777E+01 -0.39762594321E+01  0.58619712598E+02  0.59067699524E+02  0.47000000000E+01 0.  1.
         -5    1    1    2    0  502 -0.38499068777E+01  0.39762594321E+01  0.74314886843E+02  0.74668767424E+02  0.47000000000E+01 0.  1.
<mgrwt>
<rscale>  2 0.72610207E+01</rscale>
<asrwt>0</asrwt>
<pdfrwt beam="1">  1       21 0.20513124E-01 0.72610207E+01</pdfrwt>
<pdfrwt beam="2">  1       21 0.61682222E-04 0.72610207E+01</pdfrwt>
<totfact> 0.18414103E+09</totfact>
</mgrwt>
</event>
<event>
 4    1  0.3999109E+006  0.6110511E+01  0.7546771E-02  0.2401259E+00
         21   -1    0    0  503  502  0.00000000000E+00  0.00000000000E+00  0.71441515560E+02  0.71441515560E+02  0.00000000000E+00 0. -1.
         21   -1    0    0  501  503 -0.00000000000E+00 -0.00000000000E+00 -0.80280946961E+00  0.80280946961E+00  0.00000000000E+00 0. -1.
          5    1    1    2  501    0  0.11969075229E+01  0.37169559255E+01  0.13980247166E+02  0.15257314960E+02  0.47000000000E+01 0. -1.
         -5    1    1    2    0  502 -0.11969075229E+01 -0.37169559255E+01  0.56658458924E+02  0.56987010069E+02  0.47000000000E+01 0. -1.
<mgrwt>
<rscale>  2 0.61105114E+01</rscale>
<asrwt>0</asrwt>
<pdfrwt beam="1">  1       21 0.10990997E-01 0.61105114E+01</pdfrwt>
<pdfrwt beam="2">  1       21 0.12350921E-03 0.61105114E+01</pdfrwt>
<totfact> 0.17080842E+09</totfact>
</mgrwt>
</event>
<event>
 4    1  0.3999109E+006  0.5803699E+01  0.7546771E-02  0.2441695E+00
         21   -1    0    0  503  502  0.00000000000E+00  0.00000000000E+00  0.13415476209E+03  0.13415476209E+03  0.00000000000E+00 0.  1.
         21   -1    0    0  501  503 -0.00000000000E+00 -0.00000000000E+00 -0.30590160552E+00  0.30590160552E+00  0.00000000000E+00 0.  1.
          5    1    1    2  501    0 -0.23162331630E+01 -0.24955922171E+01  0.38462144797E+02  0.38897551323E+02  0.47000000000E+01 0.  1.
         -5    1    1    2    0  502  0.23162331630E+01  0.24955922171E+01  0.95386715683E+02  0.95563112367E+02  0.47000000000E+01 0.  1.
<mgrwt>
<rscale>  2 0.58036985E+01</rscale>
<asrwt>0</asrwt>
<pdfrwt beam="1">  1       21 0.20639147E-01 0.58036985E+01</pdfrwt>
<pdfrwt beam="2">  1       21 0.47061893E-04 0.58036985E+01</pdfrwt>
<totfact> 0.22072910E+09</totfact>
</mgrwt>
</event>
<event>
 4    1  0.3999109E+006  0.4803037E+01  0.7546771E-02  0.2603327E+00
         21   -1    0    0  503  502  0.00000000000E+00  0.00000000000E+00  0.11268737291E+00  0.11268737291E+00  0.00000000000E+00 0. -1.
         21   -1    0    0  501  503 -0.00000000000E+00 -0.00000000000E+00 -0.23246496042E+03  0.23246496042E+03  0.00000000000E+00 0. -1.
          5    1    1    2  501    0 -0.87824096785E+00  0.45591625937E+00 -0.15635194525E+03  0.15642570105E+03  0.47000000000E+01 0. -1.
         -5    1    1    2    0  502  0.87824096785E+00 -0.45591625937E+00 -0.76000327800E+02  0.76151946742E+02  0.47000000000E+01 0. -1.
<mgrwt>
<rscale>  2 0.48030373E+01</rscale>
<asrwt>0</asrwt>
<pdfrwt beam="1">  1       21 0.17336563E-04 0.48030373E+01</pdfrwt>
<pdfrwt beam="2">  1       21 0.35763750E-01 0.48030373E+01</pdfrwt>
<totfact> 0.28367883E+09</totfact>
</mgrwt>
</event>
<event>
 4    1  0.3999109E+006  0.9214662E+01  0.7546771E-02  0.2122646E+00
         21   -1    0    0  503  502  0.00000000000E+00  0.00000000000E+00  0.16467797492E+02  0.16467797492E+02  0.00000000000E+00 0. -1.
         21   -1    0    0  501  503 -0.00000000000E+00 -0.00000000000E+00 -0.95247376830E+01  0.95247376830E+01  0.00000000000E+00 0. -1.
          5    1    1    2  501    0  0.77458334057E+01 -0.16799004552E+01 -0.53301175539E+01  0.10645193931E+02  0.47000000000E+01 0. -1.
         -5    1    1    2    0  502 -0.77458334057E+01  0.16799004552E+01  0.12273177363E+02  0.15347341244E+02  0.47000000000E+01 0. -1.
<mgrwt>
<rscale>  2 0.92146623E+01</rscale>
<asrwt>0</asrwt>
<pdfrwt beam="1">  1       21 0.25335073E-02 0.92146623E+01</pdfrwt>
<pdfrwt beam="2">  1       21 0.14653443E-02 0.92146623E+01</pdfrwt>
<totfact> 0.65126456E+08</totfact>
</mgrwt>
</event>
<event>
 4    1  0.3999109E+006  0.5145887E+01  0.7546771E-02  0.2541907E+00
         21   -1    0    0  501  502  0.00000000000E+00  0.00000000000E+00  0.16518175380E+00  0.16518175380E+00  0.00000000000E+00 0. -1.
         21   -1    0    0  502  503 -0.00000000000E+00 -0.00000000000E+00 -0.16032346299E+03  0.16032346299E+03  0.00000000000E+00 0. -1.
          5    1    1    2  501    0 -0.20059615579E+01 -0.60520576363E+00 -0.79322428696E+02  0.79489168130E+02  0.47000000000E+01 0. -1.
         -5    1    1    2    0  503  0.20059615579E+01  0.60520576363E+00 -0.80835852539E+02  0.80999476612E+02  0.47000000000E+01 0. -1.
<mgrwt>
<rscale>  2 0.51458873E+01</rscale>
<asrwt>0</asrwt>
<pdfrwt beam="1">  1       21 0.25412481E-04 0.51458873E+01</pdfrwt>
<pdfrwt beam="2">  1       21 0.24665242E-01 0.51458873E+01</pdfrwt>
<totfact> 0.33754477E+09</totfact>
</mgrwt>
</event>
<event>
 4    1  0.3999109E+006  0.5171423E+01  0.7546771E-02  0.2537613E+00
         21   -1    0    0  503  502  0.00000000000E+00  0.00000000000E+00  0.43275005617E+01  0.43275005617E+01  0.00000000000E+00 0. -1.
         21   -1    0    0  501  503 -0.00000000000E+00 -0.00000000000E+00 -0.66834681287E+01  0.66834681287E+01  0.00000000000E+00 0.  1.
          5    1    1    2  501    0 -0.31349683659E+00  0.21343223505E+01 -0.26891582160E+01  0.58288235582E+01  0.47000000000E+01 0.  1.
         -5    1    1    2    0  502  0.31349683659E+00 -0.21343223505E+01  0.33319064907E+00  0.51821451322E+01  0.47000000000E+01 0. -1.
<mgrwt>
<rscale>  2 0.51714226E+01</rscale>
<asrwt>0</asrwt>
<pdfrwt beam="1">  1       21 0.66576932E-03 0.51714226E+01</pdfrwt>
<pdfrwt beam="2">  1       21 0.10282259E-02 0.51714226E+01</pdfrwt>
<totfact> 0.46495997E+09</totfact>
</mgrwt>
</event>
<event>
 4    1  0.3999109E+006  0.5122819E+01  0.7546771E-02  0.2545816E+00
         21   -1    0    0  503  502  0.00000000000E+00  0.00000000000E+00  0.12903376065E+02  0.12903376065E+02  0.00000000000E+00 0. -1.
         21   -1    0    0  501  503 -0.00000000000E+00 -0.00000000000E+00 -0.36658181735E+02  0.36658181735E+02  0.00000000000E+00 0. -1.
          5    1    1    2  501    0 -0.74983719924E+00  0.18949994297E+01 -0.35960942404E+02  0.36323995613E+02  0.47000000000E+01 0. -1.
         -5    1    1    2    0  502  0.74983719924E+00 -0.18949994297E+01  0.12206136734E+02  0.13237562187E+02  0.47000000000E+01 0. -1.
<mgrwt>
<rscale>  2 0.51228194E+01</rscale>
<asrwt>0</asrwt>
<pdfrwt beam="1">  1       21 0.19851348E-02 0.51228194E+01</pdfrwt>
<pdfrwt beam="2">  1       21 0.56397202E-02 0.51228194E+01</pdfrwt>
<totfact> 0.87270324E+07</totfact>
</mgrwt>
</event>
<event>
 4    1  0.3999109E+006  0.4888515E+01  0.7546771E-02  0.2587319E+00
         21   -1    0    0  503  502  0.00000000000E+00  0.00000000000E+00  0.41649315385E+03  0.41649315385E+03  0.00000000000E+00 0.  1.
         21   -1    0    0  501  503 -0.00000000000E+00 -0.00000000000E+00 -0.13181535661E+00  0.13181535661E+00  0.00000000000E+00 0.  1.
          5    1    1    2  501    0  0.10344851242E+01  0.85873053850E+00  0.51639875562E+02  0.51870746338E+02  0.47000000000E+01 0.  1.
         -5    1    1    2    0  502 -0.10344851242E+01 -0.85873053850E+00  0.36472146293E+03  0.36475422287E+03  0.47000000000E+01 0.  1.
<mgrwt>
<rscale>  2 0.48885149E+01</rscale>
<asrwt>0</asrwt>
<pdfrwt beam="1">  1       21 0.64074816E-01 0.48885149E+01</pdfrwt>
<pdfrwt beam="2">  1       21 0.20279619E-04 0.48885149E+01</pdfrwt>
<totfact> 0.83855360E+08</totfact>
</mgrwt>
</event>
<event>
 4    1  0.3999109E+006  0.5574559E+01  0.7546771E-02  0.2474319E+00
         21   -1    0    0  501  502  0.00000000000E+00  0.00000000000E+00  0.11622013481E+02  0.11622013481E+02  0.00000000000E+00 0. -1.
         21   -1    0    0  502  503 -0.00000000000E+00 -0.00000000000E+00 -0.27058884965E+01  0.27058884965E+01  0.00000000000E+00 0. -1.
          5    1    1    2  501    0  0.20870660816E+01  0.21517124735E+01  0.52373944928E+01  0.76489223078E+01  0.47000000000E+01 0. -1.
         -5    1    1    2    0  503 -0.20870660816E+01 -0.21517124735E+01  0.36787304917E+01  0.66789796697E+01  0.47000000000E+01 0. -1.
<mgrwt>
<rscale>  2 0.55745593E+01</rscale>
<asrwt>0</asrwt>
<pdfrwt beam="1">  1       21 0.17880020E-02 0.55745593E+01</pdfrwt>
<pdfrwt beam="2">  1       21 0.41629055E-03 0.55745593E+01</pdfrwt>
<totfact> 0.43908307E+09</totfact>
</mgrwt>
</event>
<event>
 4    1  0.3999109E+006  0.4788058E+01  0.7546771E-02  0.2606184E+00
         21   -1    0    0  501  502  0.00000000000E+00  0.00000000000E+00  0.75222679139E+02  0.75222679139E+02  0.00000000000E+00 0. -1.
         21   -1    0    0  502  503 -0.00000000000E+00 -0.00000000000E+00 -0.74781068953E+00  0.74781068953E+00  0.00000000000E+00 0. -1.
          5    1    1    2  501    0  0.70004174910E+00  0.58773943997E+00  0.66475031811E+02  0.66647245632E+02  0.47000000000E+01 0. -1.
         -5    1    1    2    0  503 -0.70004174910E+00 -0.58773943997E+00  0.79998366383E+01  0.93232441960E+01  0.47000000000E+01 0. -1.
<mgrwt>
<rscale>  2 0.47880577E+01</rscale>
<asrwt>0</asrwt>
<pdfrwt beam="1">  1       21 0.11572714E-01 0.47880577E+01</pdfrwt>
<pdfrwt beam="2">  1       21 0.11504786E-03 0.47880577E+01</pdfrwt>
<totfact> 0.13975549E+09</totfact>
</mgrwt>
</event>
<event>
 4    1  0.3999109E+006  0.6881699E+01  0.7546771E-02  0.2313088E+00
         21   -1    0    0  501  502  0.00000000000E+00  0.00000000000E+00  0.86774449042E+02  0.86774449042E+02  0.00000000000E+00 0.  1.
         21   -1    0    0  502  503 -0.00000000000E+00 -0.00000000000E+00 -0.77537840783E+00  0.77537840783E+00  0.00000000000E+00 0. -1.
          5    1    1    2  501    0  0.36790894273E+01 -0.34252120172E+01  0.66821330651E+02  0.67174757211E+02  0.47000000000E+01 0.  1.
         -5    1    1    2    0  503 -0.36790894273E+01  0.34252120172E+01  0.19177739983E+02  0.20375070238E+02  0.47000000000E+01 0. -1.
<mgrwt>
<rscale>  2 0.68816987E+01</rscale>
<asrwt>0</asrwt>
<pdfrwt beam="1">  1       21 0.13349908E-01 0.68816987E+01</pdfrwt>
<pdfrwt beam="2">  1       21 0.11928905E-03 0.68816987E+01</pdfrwt>
<totfact> 0.14483020E+09</totfact>
</mgrwt>
</event>
<event>
 4    1  0.3999109E+006  0.5429792E+01  0.7546771E-02  0.2496127E+00
         21   -1    0    0  503  502  0.00000000000E+00  0.00000000000E+00  0.32596616078E+01  0.32596616078E+01  0.00000000000E+00 0.  1.
         21   -1    0    0  501  503 -0.00000000000E+00 -0.00000000000E+00 -0.10767883632E+02  0.10767883632E+02  0.00000000000E+00 0.  1.
          5    1    1    2  501    0  0.21614716416E+01  0.16494472286E+01 -0.65598888006E+01  0.85155608678E+01  0.47000000000E+01 0. -1.
         -5    1    1    2    0  502 -0.21614716416E+01 -0.16494472286E+01 -0.94833322412E+00  0.55119843724E+01  0.47000000000E+01 0. -1.
<mgrwt>
<rscale>  2 0.54297915E+01</rscale>
<asrwt>0</asrwt>
<pdfrwt beam="1">  1       21 0.50148641E-03 0.54297915E+01</pdfrwt>
<pdfrwt beam="2">  1       21 0.16565974E-02 0.54297915E+01</pdfrwt>
<totfact> 0.36927035E+09</totfact>
</mgrwt>
</event>
<event>
 4    1  0.3999109E+006  0.5400967E+01  0.7546771E-02  0.2500587E+00
         21   -1    0    0  501  502  0.00000000000E+00  0.00000000000E+00  0.25152055179E+00  0.25152055179E+00  0.00000000000E+00 0.  1.
         21   -1    0    0  502  503 -0.00000000000E+00 -0.00000000000E+00 -0.12866767397E+03  0.12866767397E+03  0.00000000000E+00 0. -1.
          5    1    1    2  501    0 -0.11596413579E+01  0.23949270180E+01 -0.43963635820E+02  0.44294149929E+02  0.47000000000E+01 0. -1.
         -5    1    1    2    0  503  0.11596413579E+01 -0.23949270180E+01 -0.84452517603E+02  0.84625044597E+02  0.47000000000E+01 0. -1.
<mgrwt>
<rscale>  2 0.54009669E+01</rscale>
<asrwt>0</asrwt>
<pdfrwt beam="1">  1       21 0.38695462E-04 0.54009669E+01</pdfrwt>
<pdfrwt beam="2">  1       21 0.19795031E-01 0.54009669E+01</pdfrwt>
<totfact> 0.28796545E+09</totfact>
</mgrwt>
</event>
<event>
 4    1  0.3999109E+006  0.8053587E+01  0.7546771E-02  0.2206289E+00
         21   -1    0    0  501  502  0.00000000000E+00  0.00000000000E+00  0.57523058764E+02  0.57523058764E+02  0.00000000000E+00 0.  1.
         21   -1    0    0  502  503 -0.00000000000E+00 -0.00000000000E+00 -0.20139595949E+01  0.20139595949E+01  0.00000000000E+00 0.  1.
          5    1    1    2  501    0  0.50671753289E+01 -0.41344882458E+01  0.47503697502E+02  0.48181547663E+02  0.47000000000E+01 0.  1.
         -5    1    1    2    0  503 -0.50671753289E+01  0.41344882458E+01  0.80054016672E+01  0.11355470696E+02  0.47000000000E+01 0.  1.
<mgrwt>
<rscale>  2 0.80535867E+01</rscale>
<asrwt>0</asrwt>
<pdfrwt beam="1">  1       21 0.88497001E-02 0.80535867E+01</pdfrwt>
<pdfrwt beam="2">  1       21 0.30983998E-03 0.80535867E+01</pdfrwt>
<totfact> 0.82605546E+08</totfact>
</mgrwt>
</event>
<event>
 4    1  0.3999109E+006  0.5202174E+01  0.7546771E-02  0.2532491E+00
         21   -1    0    0  501  502  0.00000000000E+00  0.00000000000E+00  0.73009328560E+03  0.73009328560E+03  0.00000000000E+00 0. -1.
         21   -1    0    0  502  503 -0.00000000000E+00 -0.00000000000E+00 -0.60384939330E-01  0.60384939330E-01  0.00000000000E+00 0. -1.
          5    1    1    2  501    0  0.59672061043E+00  0.21486143006E+01  0.59187849467E+03  0.59190135586E+03  0.47000000000E+01 0. -1.
         -5    1    1    2    0  503 -0.59672061043E+00 -0.21486143006E+01  0.13815440599E+03  0.13825231468E+03  0.47000000000E+01 0. -1.
<mgrwt>
<rscale>  2 0.52021744E+01</rscale>
<asrwt>0</asrwt>
<pdfrwt beam="1">  1       21 0.11231497E+00 0.52021744E+01</pdfrwt>
<pdfrwt beam="2">  1       21 0.92905754E-05 0.52021744E+01</pdfrwt>
<totfact> 0.83324105E+08</totfact>
</mgrwt>
</event>
<event>
 4    1  0.3999109E+006  0.5417102E+01  0.7546771E-02  0.2498085E+00
         21   -1    0    0  501  502  0.00000000000E+00  0.00000000000E+00  0.15339912354E+00  0.15339912354E+00  0.00000000000E+00 0.  1.
         21   -1    0    0  502  503 -0.00000000000E+00 -0.00000000000E+00 -0.22163647195E+03  0.22163647195E+03  0.00000000000E+00 0.  1.
          5    1    1    2  501    0 -0.22285774325E+01 -0.15127595065E+01 -0.69713052459E+02  0.69923205604E+02  0.47000000000E+01 0.  1.
         -5    1    1    2    0  503  0.22285774325E+01  0.15127595065E+01 -0.15177002036E+03  0.15186666547E+03  0.47000000000E+01 0.  1.
<mgrwt>
<rscale>  2 0.54171024E+01</rscale>
<asrwt>0</asrwt>
<pdfrwt beam="1">  1       21 0.23599855E-04 0.54171024E+01</pdfrwt>
<pdfrwt beam="2">  1       21 0.34097934E-01 0.54171024E+01</pdfrwt>
<totfact> 0.22769193E+09</totfact>
</mgrwt>
</event>
<event>
 4    1  0.3999109E+006  0.7591068E+01  0.7546771E-02  0.2245232E+00
         21   -1    0    0  501  502  0.00000000000E+00  0.00000000000E+00  0.20415373169E+00  0.20415373169E+00  0.00000000000E+00 0. -1.
         21   -1    0    0  502  503 -0.00000000000E+00 -0.00000000000E+00 -0.28750853339E+03  0.28750853339E+03  0.00000000000E+00 0. -1.
          5    1    1    2  501    0  0.59501247044E+01 -0.36100879038E+00 -0.12421438833E+03  0.12444612722E+03  0.47000000000E+01 0. -1.
         -5    1    1    2    0  503 -0.59501247044E+01  0.36100879038E+00 -0.16308999133E+03  0.16326655990E+03  0.47000000000E+01 0. -1.
<mgrwt>
<rscale>  2 0.75910679E+01</rscale>
<asrwt>0</asrwt>
<pdfrwt beam="1">  1       21 0.31408405E-04 0.75910679E+01</pdfrwt>
<pdfrwt beam="2">  1       21 0.44231887E-01 0.75910679E+01</pdfrwt>
<totfact> 0.12640885E+09</totfact>
</mgrwt>
</event>
<event>
 4    1  0.3999109E+006  0.4736938E+01  0.7546771E-02  0.2616049E+00
         21   -1    0    0  503  502  0.00000000000E+00  0.00000000000E+00  0.41097209301E+01  0.41097209301E+01  0.00000000000E+00 0. -1.
         21   -1    0    0  501  503 -0.00000000000E+00 -0.00000000000E+00 -0.82447670536E+01  0.82447670536E+01  0.00000000000E+00 0. -1.
          5    1    1    2  501    0  0.23401967528E+00 -0.54204971830E+00 -0.56576462768E+01  0.73788579400E+01  0.47000000000E+01 0. -1.
         -5    1    1    2    0  502 -0.23401967528E+00  0.54204971830E+00  0.15226001532E+01  0.49756300437E+01  0.47000000000E+01 0. -1.
<mgrwt>
<rscale>  2 0.47369382E+01</rscale>
<asrwt>0</asrwt>
<pdfrwt beam="1">  1       21 0.63226477E-03 0.47369382E+01</pdfrwt>
<pdfrwt beam="2">  1       21 0.12684257E-02 0.47369382E+01</pdfrwt>
<totfact> 0.33936114E+09</totfact>
</mgrwt>
</event>
<event>
 4    1  0.3999109E+006  0.8803539E+01  0.7546771E-02  0.2150244E+00
         21   -1    0    0  503  502  0.00000000000E+00  0.00000000000E+00  0.28200697138E+00  0.28200697138E+00  0.00000000000E+00 0. -1.
         21   -1    0    0  501  503 -0.00000000000E+00 -0.00000000000E+00 -0.53773796681E+03  0.53773796681E+03  0.00000000000E+00 0.  1.
          5    1    1    2  501    0 -0.18092492909E+01 -0.72207287565E+01 -0.45682842140E+03  0.45691324002E+03  0.47000000000E+01 0.  1.
         -5    1    1    2    0  502  0.18092492909E+01  0.72207287565E+01 -0.80627538444E+02  0.81106733767E+02  0.47000000000E+01 0. -1.
<mgrwt>
<rscale>  2 0.88035394E+01</rscale>
<asrwt>0</asrwt>
<pdfrwt beam="1">  1       21 0.43386407E-04 0.88035394E+01</pdfrwt>
<pdfrwt beam="2">  1       21 0.82727547E-01 0.88035394E+01</pdfrwt>
<totfact> 0.27049735E+08</totfact>
</mgrwt>
</event>
<event>
 4    1  0.3999109E+006  0.8615257E+01  0.7546771E-02  0.2163579E+00
         21   -1    0    0  503  502  0.00000000000E+00  0.00000000000E+00  0.76379214638E-01  0.76379214638E-01  0.00000000000E+00 0.  1.
         21   -1    0    0  501  503 -0.00000000000E+00 -0.00000000000E+00 -0.11326709270E+04  0.11326709270E+04  0.00000000000E+00 0. -1.
          5    1    1    2  501    0  0.38646465771E+01  0.60989470170E+01 -0.77976743603E+03  0.77981502739E+03  0.47000000000E+01 0.  1.
         -5    1    1    2    0  502 -0.38646465771E+01 -0.60989470170E+01 -0.35282711171E+03  0.35293227878E+03  0.47000000000E+01 0. -1.
<mgrwt>
<rscale>  2 0.86152567E+01</rscale>
<asrwt>0</asrwt>
<pdfrwt beam="1">  1       21 0.11750685E-04 0.86152567E+01</pdfrwt>
<pdfrwt beam="2">  1       21 0.17425652E+00 0.86152567E+01</pdfrwt>
<totfact> 0.31876329E+08</totfact>
</mgrwt>
</event>
<event>
 4    1  0.3999109E+006  0.1581989E+02  0.7546771E-02  0.1844033E+00
         21   -1    0    0  501  502  0.00000000000E+00  0.00000000000E+00  0.26379467260E+03  0.26379467260E+03  0.00000000000E+00 0. -1.
         21   -1    0    0  502  503 -0.00000000000E+00 -0.00000000000E+00 -0.12916193305E+01  0.12916193305E+01  0.00000000000E+00 0.  1.
          5    1    1    2  501    0  0.95471616313E+01  0.11706007581E+02  0.19954346182E+03  0.20016958326E+03  0.47000000000E+01 0.  1.
         -5    1    1    2    0  503 -0.95471616313E+01 -0.11706007581E+02  0.62959591452E+02  0.64916708669E+02  0.47000000000E+01 0. -1.
<mgrwt>
<rscale>  2 0.15819890E+02</rscale>
<asrwt>0</asrwt>
<pdfrwt beam="1">  1       21 0.40583753E-01 0.15819890E+02</pdfrwt>
<pdfrwt beam="2">  1       21 0.19871088E-03 0.15819890E+02</pdfrwt>
<totfact> 0.16410470E+08</totfact>
</mgrwt>
</event>
<event>
 4    1  0.3999109E+006  0.6257343E+01  0.7546771E-02  0.2383087E+00
         21   -1    0    0  501  502  0.00000000000E+00  0.00000000000E+00  0.46801523182E+02  0.46801523182E+02  0.00000000000E+00 0.  1.
         21   -1    0    0  502  503 -0.00000000000E+00 -0.00000000000E+00 -0.21326336542E+01  0.21326336542E+01  0.00000000000E+00 0. -1.
          5    1    1    2  501    0  0.39251701073E+01 -0.12873947947E+01  0.41407990669E+02  0.41878109281E+02  0.47000000000E+01 0.  1.
         -5    1    1    2    0  503 -0.39251701073E+01  0.12873947947E+01  0.32608988585E+01  0.70560475547E+01  0.47000000000E+01 0.  1.
<mgrwt>
<rscale>  2 0.62573433E+01</rscale>
<asrwt>0</asrwt>
<pdfrwt beam="1">  1       21 0.72002336E-02 0.62573433E+01</pdfrwt>
<pdfrwt beam="2">  1       21 0.32809752E-03 0.62573433E+01</pdfrwt>
<totfact> 0.87645131E+08</totfact>
</mgrwt>
</event>
<event>
 4    1  0.3999109E+006  0.5866805E+01  0.7546771E-02  0.2433088E+00
         21   -1    0    0  503  502  0.00000000000E+00  0.00000000000E+00  0.59662632514E+02  0.59662632514E+02  0.00000000000E+00 0. -1.
         21   -1    0    0  501  503 -0.00000000000E+00 -0.00000000000E+00 -0.84551587766E+00  0.84551587766E+00  0.00000000000E+00 0. -1.
          5    1    1    2  501    0 -0.33559677532E+01 -0.10328984293E+01  0.12356042103E+02  0.13678127620E+02  0.47000000000E+01 0. -1.
         -5    1    1    2    0  502  0.33559677532E+01  0.10328984293E+01  0.46461074533E+02  0.46830020771E+02  0.47000000000E+01 0. -1.
<mgrwt>
<rscale>  2 0.58668048E+01</rscale>
<asrwt>0</asrwt>
<pdfrwt beam="1">  1       21 0.91788632E-02 0.58668048E+01</pdfrwt>
<pdfrwt beam="2">  1       21 0.13007941E-03 0.58668048E+01</pdfrwt>
<totfact> 0.20304603E+09</totfact>
</mgrwt>
</event>
<event>
 4    1  0.3999109E+006  0.5357814E+01  0.7546771E-02  0.2507341E+00
         21   -1    0    0  503  502  0.00000000000E+00  0.00000000000E+00  0.89395058724E-01  0.89395058724E-01  0.00000000000E+00 0. -1.
         21   -1    0    0  501  503 -0.00000000000E+00 -0.00000000000E+00 -0.74734977875E+03  0.74734977875E+03  0.00000000000E+00 0. -1.
          5    1    1    2  501    0  0.22535381260E+01  0.12400544813E+01 -0.65586327470E+03  0.65588515860E+03  0.47000000000E+01 0. -1.
         -5    1    1    2    0  502 -0.22535381260E+01 -0.12400544813E+01 -0.91397108990E+02  0.91554015210E+02  0.47000000000E+01 0. -1.
<mgrwt>
<rscale>  2 0.53578138E+01</rscale>
<asrwt>0</asrwt>
<pdfrwt beam="1">  1       21 0.13753378E-04 0.53578138E+01</pdfrwt>
<pdfrwt beam="2">  1       21 0.11497445E+00 0.53578138E+01</pdfrwt>
<totfact> 0.48220747E+08</totfact>
</mgrwt>
</event>
<event>
 4    1  0.3999109E+006  0.5544034E+01  0.7546771E-02  0.2478837E+00
         21   -1    0    0  501  502  0.00000000000E+00  0.00000000000E+00  0.46912174160E+01  0.46912174160E+01  0.00000000000E+00 0.  1.
         21   -1    0    0  502  503 -0.00000000000E+00 -0.00000000000E+00 -0.19598139578E+02  0.19598139578E+02  0.00000000000E+00 0.  1.
          5    1    1    2  501    0  0.11059327261E+01 -0.27245605455E+01  0.24553494073E+01  0.60634196682E+01  0.47000000000E+01 0.  1.
         -5    1    1    2    0  503 -0.11059327261E+01  0.27245605455E+01 -0.17362271569E+02  0.18225937326E+02  0.47000000000E+01 0.  1.
<mgrwt>
<rscale>  2 0.55440344E+01</rscale>
<asrwt>0</asrwt>
<pdfrwt beam="1">  1       21 0.72172577E-03 0.55440344E+01</pdfrwt>
<pdfrwt beam="2">  1       21 0.30150983E-02 0.55440344E+01</pdfrwt>
<totfact> 0.96306100E+08</totfact>
</mgrwt>
</event>
<event>
 4    1  0.3999109E+006  0.4856893E+01  0.7546771E-02  0.2593185E+00
         21   -1    0    0  501  502  0.00000000000E+00  0.00000000000E+00  0.12966689868E+02  0.12966689868E+02  0.00000000000E+00 0. -1.
         21   -1    0    0  502  503 -0.00000000000E+00 -0.00000000000E+00 -0.41795368496E+01  0.41795368496E+01  0.00000000000E+00 0. -1.
          5    1    1    2  501    0 -0.69230122929E+00 -0.10100127757E+01  0.10836138554E+02  0.11874818128E+02  0.47000000000E+01 0. -1.
         -5    1    1    2    0  503  0.69230122929E+00  0.10100127757E+01 -0.20489855356E+01  0.52714085901E+01  0.47000000000E+01 0. -1.
<mgrwt>
<rscale>  2 0.48568927E+01</rscale>
<asrwt>0</asrwt>
<pdfrwt beam="1">  1       21 0.19948753E-02 0.48568927E+01</pdfrwt>
<pdfrwt beam="2">  1       21 0.64300568E-03 0.48568927E+01</pdfrwt>
<totfact> 0.18008846E+09</totfact>
</mgrwt>
</event>
<event>
 4    1  0.3999109E+006  0.6140193E+01  0.7546771E-02  0.2397527E+00
         21   -1    0    0  503  502  0.00000000000E+00  0.00000000000E+00  0.18959707547E+02  0.18959707547E+02  0.00000000000E+00 0. -1.
         21   -1    0    0  501  503 -0.00000000000E+00 -0.00000000000E+00 -0.22254599967E+01  0.22254599967E+01  0.00000000000E+00 0. -1.
          5    1    1    2  501    0 -0.39452284601E+01 -0.21712608502E+00  0.11823339732E+02  0.13322662413E+02  0.47000000000E+01 0. -1.
         -5    1    1    2    0  502  0.39452284601E+01  0.21712608502E+00  0.49109078188E+01  0.78625051316E+01  0.47000000000E+01 0. -1.
<mgrwt>
<rscale>  2 0.61401931E+01</rscale>
<asrwt>0</asrwt>
<pdfrwt beam="1">  1       21 0.29168780E-02 0.61401931E+01</pdfrwt>
<pdfrwt beam="2">  1       21 0.34237847E-03 0.61401931E+01</pdfrwt>
<totfact> 0.31030663E+09</totfact>
</mgrwt>
</event>
<event>
 4    1  0.3999109E+006  0.5845985E+01  0.7546771E-02  0.2435910E+00
         21   -1    0    0  501  502  0.00000000000E+00  0.00000000000E+00  0.12921558998E+04  0.12921558998E+04  0.00000000000E+00 0.  1.
         21   -1    0    0  502  503 -0.00000000000E+00 -0.00000000000E+00 -0.15791750775E+00  0.15791750775E+00  0.00000000000E+00 0. -1.
          5    1    1    2  501    0 -0.33487819628E+01  0.93338405230E+00  0.12355679285E+04  0.12355817583E+04  0.47000000000E+01 0.  1.
         -5    1    1    2    0  503  0.33487819628E+01 -0.93338405230E+00  0.56430053824E+02  0.56732059023E+02  0.47000000000E+01 0. -1.
<mgrwt>
<rscale>  2 0.58459855E+01</rscale>
<asrwt>0</asrwt>
<pdfrwt beam="1">  1       21 0.19878475E+00 0.58459855E+01</pdfrwt>
<pdfrwt beam="2">  1       21 0.24296036E-04 0.58459855E+01</pdfrwt>
<totfact> 0.74111725E+07</totfact>
</mgrwt>
</event>
<event>
 4    1  0.3999109E+006  0.8822696E+01  0.7546771E-02  0.2148913E+00
         21   -1    0    0  503  502  0.00000000000E+00  0.00000000000E+00  0.15436962358E+01  0.15436962358E+01  0.00000000000E+00 0. -1.
         21   -1    0    0  501  503 -0.00000000000E+00 -0.00000000000E+00 -0.84462843143E+02  0.84462843143E+02  0.00000000000E+00 0.  1.
          5    1    1    2  501    0 -0.62326672430E+01 -0.41114255993E+01 -0.68758995527E+02  0.69322719417E+02  0.47000000000E+01 0.  1.
         -5    1    1    2    0  502  0.62326672430E+01  0.41114255993E+01 -0.14160151380E+02  0.16683819962E+02  0.47000000000E+01 0. -1.
<mgrwt>
<rscale>  2 0.88226958E+01</rscale>
<asrwt>0</asrwt>
<pdfrwt beam="1">  1       21 0.23749170E-03 0.88226958E+01</pdfrwt>
<pdfrwt beam="2">  1       21 0.12994285E-01 0.88226958E+01</pdfrwt>
<totfact> 0.69036862E+08</totfact>
</mgrwt>
</event>
<event>
 4    1  0.3999109E+006  0.6474969E+01  0.7546771E-02  0.2357422E+00
         21   -1    0    0  503  502  0.00000000000E+00  0.00000000000E+00  0.41084606602E+02  0.41084606602E+02  0.00000000000E+00 0. -1.
         21   -1    0    0  501  503 -0.00000000000E+00 -0.00000000000E+00 -0.17445747896E+01  0.17445747896E+01  0.00000000000E+00 0. -1.
          5    1    1    2  501    0  0.41596380166E+01  0.15914261970E+01  0.58735298771E+01  0.87420580522E+01  0.47000000000E+01 0. -1.
         -5    1    1    2    0  502 -0.41596380166E+01 -0.15914261970E+01  0.33466501935E+02  0.34087123339E+02  0.47000000000E+01 0. -1.
<mgrwt>
<rscale>  2 0.64749692E+01</rscale>
<asrwt>0</asrwt>
<pdfrwt beam="1">  1       21 0.63207080E-02 0.64749692E+01</pdfrwt>
<pdfrwt beam="2">  1       21 0.26839615E-03 0.64749692E+01</pdfrwt>
<totfact> 0.14452959E+09</totfact>
</mgrwt>
</event>
<event>
 4    1  0.3999109E+006  0.6199996E+01  0.7546771E-02  0.2390099E+00
         21   -1    0    0  501  502  0.00000000000E+00  0.00000000000E+00  0.17575224755E+01  0.17575224755E+01  0.00000000000E+00 0.  1.
         21   -1    0    0  502  503 -0.00000000000E+00 -0.00000000000E+00 -0.47307946882E+02  0.47307946882E+02  0.00000000000E+00 0.  1.
          5    1    1    2  501    0  0.36863867797E+01 -0.16614750271E+01 -0.47862666575E+01  0.78325152583E+01  0.47000000000E+01 0.  1.
         -5    1    1    2    0  503 -0.36863867797E+01  0.16614750271E+01 -0.40764157749E+02  0.41232954099E+02  0.47000000000E+01 0.  1.
<mgrwt>
<rscale>  2 0.61999957E+01</rscale>
<asrwt>0</asrwt>
<pdfrwt beam="1">  1       21 0.27038807E-03 0.61999957E+01</pdfrwt>
<pdfrwt beam="2">  1       21 0.72781458E-02 0.61999957E+01</pdfrwt>
<totfact> 0.11172423E+09</totfact>
</mgrwt>
</event>
<event>
 4    1  0.3999109E+006  0.5165702E+01  0.7546771E-02  0.2538572E+00
         21   -1    0    0  503  502  0.00000000000E+00  0.00000000000E+00  0.89648419337E+02  0.89648419337E+02  0.00000000000E+00 0.  1.
         21   -1    0    0  501  503 -0.00000000000E+00 -0.00000000000E+00 -0.53815863568E+00  0.53815863568E+00  0.00000000000E+00 0.  1.
          5    1    1    2  501    0 -0.21426195118E+01  0.60477406476E-01  0.14410094129E+02  0.15308013871E+02  0.47000000000E+01 0.  1.
         -5    1    1    2    0  502  0.21426195118E+01 -0.60477406476E-01  0.74700166573E+02  0.74878564102E+02  0.47000000000E+01 0.  1.
<mgrwt>
<rscale>  2 0.51657019E+01</rscale>
<asrwt>0</asrwt>
<pdfrwt beam="1">  1       21 0.13792053E-01 0.51657019E+01</pdfrwt>
<pdfrwt beam="2">  1       21 0.82793707E-04 0.51657019E+01</pdfrwt>
<totfact> 0.17763783E+09</totfact>
</mgrwt>
</event>
<event>
 4    1  0.3999109E+006  0.8369532E+01  0.7546771E-02  0.2181699E+00
         21   -1    0    0  501  502  0.00000000000E+00  0.00000000000E+00  0.18266275776E+03  0.18266275776E+03  0.00000000000E+00 0. -1.
         21   -1    0    0  502  503 -0.00000000000E+00 -0.00000000000E+00 -0.40787292089E+00  0.40787292089E+00  0.00000000000E+00 0.  1.
          5    1    1    2  501    0 -0.67977376613E+01 -0.13228116803E+01  0.11350859336E+03  0.11381673794E+03  0.47000000000E+01 0. -1.
         -5    1    1    2    0  503  0.67977376613E+01  0.13228116803E+01  0.68746291480E+02  0.69253892745E+02  0.47000000000E+01 0.  1.
<mgrwt>
<rscale>  2 0.83695321E+01</rscale>
<asrwt>0</asrwt>
<pdfrwt beam="1">  1       21 0.28101897E-01 0.83695321E+01</pdfrwt>
<pdfrwt beam="2">  1       21 0.62749826E-04 0.83695321E+01</pdfrwt>
<totfact> 0.11660800E+09</totfact>
</mgrwt>
</event>
<event>
 4    1  0.3999109E+006  0.8548355E+01  0.7546771E-02  0.2168430E+00
         21   -1    0    0  503  502  0.00000000000E+00  0.00000000000E+00  0.16224875732E+03  0.16224875732E+03  0.00000000000E+00 0. -1.
         21   -1    0    0  501  503 -0.00000000000E+00 -0.00000000000E+00 -0.14509310504E+01  0.14509310504E+01  0.00000000000E+00 0.  1.
          5    1    1    2  501    0 -0.63482317075E+01  0.32686887018E+01  0.12429572441E+02  0.15085378441E+02  0.47000000000E+01 0.  1.
         -5    1    1    2    0  502  0.63482317075E+01 -0.32686887018E+01  0.14836825383E+03  0.14861430993E+03  0.47000000000E+01 0. -1.
<mgrwt>
<rscale>  2 0.85483549E+01</rscale>
<asrwt>0</asrwt>
<pdfrwt beam="1">  1       21 0.24961333E-01 0.85483549E+01</pdfrwt>
<pdfrwt beam="2">  1       21 0.22322029E-03 0.85483549E+01</pdfrwt>
<totfact> 0.25270544E+08</totfact>
</mgrwt>
</event>
<event>
 4    1  0.3999109E+006  0.9463126E+01  0.7546771E-02  0.2106894E+00
         21   -1    0    0  503  502  0.00000000000E+00  0.00000000000E+00  0.21161280514E+01  0.21161280514E+01  0.00000000000E+00 0.  1.
         21   -1    0    0  501  503 -0.00000000000E+00 -0.00000000000E+00 -0.63053288976E+02  0.63053288976E+02  0.00000000000E+00 0.  1.
          5    1    1    2  501    0 -0.22895094676E+00  0.82102574960E+01 -0.49154429566E+02  0.50057054375E+02  0.47000000000E+01 0.  1.
         -5    1    1    2    0  502  0.22895094676E+00 -0.82102574960E+01 -0.11782731358E+02  0.15112362653E+02  0.47000000000E+01 0.  1.
<mgrwt>
<rscale>  2 0.94631256E+01</rscale>
<asrwt>0</asrwt>
<pdfrwt beam="1">  1       21 0.32555817E-03 0.94631256E+01</pdfrwt>
<pdfrwt beam="2">  1       21 0.97005057E-02 0.94631256E+01</pdfrwt>
<totfact> 0.73604673E+08</totfact>
</mgrwt>
</event>
<event>
 4    1  0.3999109E+006  0.5130791E+01  0.7546771E-02  0.2544462E+00
         21   -1    0    0  503  502  0.00000000000E+00  0.00000000000E+00  0.10854841471E+00  0.10854841471E+00  0.00000000000E+00 0. -1.
         21   -1    0    0  501  503 -0.00000000000E+00 -0.00000000000E+00 -0.24261599184E+03  0.24261599184E+03  0.00000000000E+00 0. -1.
          5    1    1    2  501    0  0.18273742010E+01 -0.94642347322E+00 -0.12368478935E+03  0.12379116338E+03  0.47000000000E+01 0.  1.
         -5    1    1    2    0  502 -0.18273742010E+01  0.94642347322E+00 -0.11882265407E+03  0.11893337687E+03  0.47000000000E+01 0.  1.
<mgrwt>
<rscale>  2 0.51307908E+01</rscale>
<asrwt>0</asrwt>
<pdfrwt beam="1">  1       21 0.16699764E-04 0.51307908E+01</pdfrwt>
<pdfrwt beam="2">  1       21 0.37325520E-01 0.51307908E+01</pdfrwt>
<totfact> 0.29453723E+09</totfact>
</mgrwt>
</event>
<event>
 4    1  0.3999109E+006  0.6282114E+01  0.7546771E-02  0.2380091E+00
         21   -1    0    0  503  502  0.00000000000E+00  0.00000000000E+00  0.53449574273E+01  0.53449574273E+01  0.00000000000E+00 0. -1.
         21   -1    0    0  501  503 -0.00000000000E+00 -0.00000000000E+00 -0.88166166242E+01  0.88166166242E+01  0.00000000000E+00 0. -1.
          5    1    1    2  501    0 -0.15247510805E+01 -0.38794441838E+01  0.11188559974E+01  0.63809710684E+01  0.47000000000E+01 0. -1.
         -5    1    1    2    0  502  0.15247510805E+01  0.38794441838E+01 -0.45905151942E+01  0.77806029831E+01  0.47000000000E+01 0. -1.
<mgrwt>
<rscale>  2 0.62821137E+01</rscale>
<asrwt>0</asrwt>
<pdfrwt beam="1">  1       21 0.82230114E-03 0.62821137E+01</pdfrwt>
<pdfrwt beam="2">  1       21 0.13564026E-02 0.62821137E+01</pdfrwt>
<totfact> 0.28102257E+09</totfact>
</mgrwt>
</event>
<event>
 4    1  0.3999109E+006  0.7125811E+01  0.7546771E-02  0.2288494E+00
         21   -1    0    0  501  502  0.00000000000E+00  0.00000000000E+00  0.24346063020E+01  0.24346063020E+01  0.00000000000E+00 0.  1.
         21   -1    0    0  502  503 -0.00000000000E+00 -0.00000000000E+00 -0.36886787030E+02  0.36886787030E+02  0.00000000000E+00 0.  1.
          5    1    1    2  501    0  0.53498322678E+01 -0.25784094458E+00 -0.30186989605E+02  0.31016633097E+02  0.47000000000E+01 0.  1.
         -5    1    1    2    0  503 -0.53498322678E+01  0.25784094458E+00 -0.42651911228E+01  0.83047602350E+01  0.47000000000E+01 0.  1.
<mgrwt>
<rscale>  2 0.71258113E+01</rscale>
<asrwt>0</asrwt>
<pdfrwt beam="1">  1       21 0.37455483E-03 0.71258113E+01</pdfrwt>
<pdfrwt beam="2">  1       21 0.56748902E-02 0.71258113E+01</pdfrwt>
<totfact> 0.11511292E+09</totfact>
</mgrwt>
</event>
<event>
 4    1  0.3999109E+006  0.4850882E+01  0.7546771E-02  0.2594307E+00
         21   -1    0    0  501  502  0.00000000000E+00  0.00000000000E+00  0.73668606923E+01  0.73668606923E+01  0.00000000000E+00 0. -1.
         21   -1    0    0  502  503 -0.00000000000E+00 -0.00000000000E+00 -0.21316409556E+02  0.21316409556E+02  0.00000000000E+00 0. -1.
          5    1    1    2  501    0 -0.11858049487E+01  0.18686998336E+00  0.62487583455E+01  0.79106279541E+01  0.47000000000E+01 0. -1.
         -5    1    1    2    0  503  0.11858049487E+01 -0.18686998336E+00 -0.20198307209E+02  0.20772642294E+02  0.47000000000E+01 0. -1.
<mgrwt>
<rscale>  2 0.48508818E+01</rscale>
<asrwt>0</asrwt>
<pdfrwt beam="1">  1       21 0.11333632E-02 0.48508818E+01</pdfrwt>
<pdfrwt beam="2">  1       21 0.32794476E-02 0.48508818E+01</pdfrwt>
<totfact> 0.40360987E+08</totfact>
</mgrwt>
</event>
<event>
 4    1  0.3999109E+006  0.7226704E+01  0.7546771E-02  0.2278728E+00
         21   -1    0    0  503  502  0.00000000000E+00  0.00000000000E+00  0.28767995427E+03  0.28767995427E+03  0.00000000000E+00 0.  1.
         21   -1    0    0  501  503 -0.00000000000E+00 -0.00000000000E+00 -0.18227948160E+00  0.18227948160E+00  0.00000000000E+00 0.  1.
          5    1    1    2  501    0 -0.26482451947E+01  0.48085390370E+01  0.15291993969E+03  0.15309060456E+03  0.47000000000E+01 0.  1.
         -5    1    1    2    0  502  0.26482451947E+01 -0.48085390370E+01  0.13457773510E+03  0.13477162919E+03  0.47000000000E+01 0.  1.
<mgrwt>
<rscale>  2 0.72267040E+01</rscale>
<asrwt>0</asrwt>
<pdfrwt beam="1">  1       21 0.44258091E-01 0.72267040E+01</pdfrwt>
<pdfrwt beam="2">  1       21 0.28043227E-04 0.72267040E+01</pdfrwt>
<totfact> 0.14246038E+09</totfact>
</mgrwt>
</event>
<event>
 4    1  0.3999109E+006  0.5437784E+01  0.7546771E-02  0.2494897E+00
         21   -1    0    0  503  502  0.00000000000E+00  0.00000000000E+00  0.50902626672E+02  0.50902626672E+02  0.00000000000E+00 0. -1.
         21   -1    0    0  501  503 -0.00000000000E+00 -0.00000000000E+00 -0.80729204453E+01  0.80729204453E+01  0.00000000000E+00 0. -1.
          5    1    1    2  501    0 -0.51311950627E+00 -0.26862988253E+01 -0.69921902316E+01  0.88577772178E+01  0.47000000000E+01 0. -1.
         -5    1    1    2    0  502  0.51311950627E+00  0.26862988253E+01  0.49821896458E+02  0.50117769900E+02  0.47000000000E+01 0. -1.
<mgrwt>
<rscale>  2 0.54377838E+01</rscale>
<asrwt>0</asrwt>
<pdfrwt beam="1">  1       21 0.78311731E-02 0.54377838E+01</pdfrwt>
<pdfrwt beam="2">  1       21 0.12419878E-02 0.54377838E+01</pdfrwt>
<totfact> 0.10879266E+08</totfact>
</mgrwt>
</event>
<event>
 4    1  0.3999109E+006  0.4916954E+01  0.7546771E-02  0.2582100E+00
         21   -1    0    0  503  502  0.00000000000E+00  0.00000000000E+00  0.20855777008E+01  0.20855777008E+01  0.00000000000E+00 0.  1.
         21   -1    0    0  501  503 -0.00000000000E+00 -0.00000000000E+00 -0.36817753003E+02  0.36817753003E+02  0.00000000000E+00 0.  1.
          5    1    1    2  501    0 -0.10152663753E+01  0.10274600414E+01 -0.33466925342E+02  0.33826195940E+02  0.47000000000E+01 0.  1.
         -5    1    1    2    0  502  0.10152663753E+01 -0.10274600414E+01 -0.12652499609E+01  0.50771347641E+01  0.47000000000E+01 0.  1.
<mgrwt>
<rscale>  2 0.49169543E+01</rscale>
<asrwt>0</asrwt>
<pdfrwt beam="1">  1       21 0.32085817E-03 0.49169543E+01</pdfrwt>
<pdfrwt beam="2">  1       21 0.56642686E-02 0.49169543E+01</pdfrwt>
<totfact> 0.10511795E+09</totfact>
</mgrwt>
</event>
<event>
 4    1  0.3999109E+006  0.9840661E+01  0.7546771E-02  0.2084171E+00
         21   -1    0    0  501  502  0.00000000000E+00  0.00000000000E+00  0.97574306932E+02  0.97574306932E+02  0.00000000000E+00 0. -1.
         21   -1    0    0  502  503 -0.00000000000E+00 -0.00000000000E+00 -0.11089199167E+01  0.11089199167E+01  0.00000000000E+00 0.  1.
          5    1    1    2  501    0  0.34883896618E+01 -0.79107362132E+01  0.64222795718E+02  0.64972348731E+02  0.47000000000E+01 0. -1.
         -5    1    1    2    0  503 -0.34883896618E+01  0.79107362132E+01  0.32242591298E+02  0.33710878118E+02  0.47000000000E+01 0.  1.
<mgrwt>
<rscale>  2 0.98406610E+01</rscale>
<asrwt>0</asrwt>
<pdfrwt beam="1">  1       21 0.15011425E-01 0.98406610E+01</pdfrwt>
<pdfrwt beam="2">  1       21 0.17060314E-03 0.98406610E+01</pdfrwt>
<totfact> 0.92312474E+08</totfact>
</mgrwt>
</event>
<event>
 4    1  0.3999109E+006  0.7732559E+01  0.7546771E-02  0.2232920E+00
         21   -1    0    0  501  502  0.00000000000E+00  0.00000000000E+00  0.44175640661E+00  0.44175640661E+00  0.00000000000E+00 0. -1.
         21   -1    0    0  502  503 -0.00000000000E+00 -0.00000000000E+00 -0.64451011463E+03  0.64451011463E+03  0.00000000000E+00 0. -1.
          5    1    1    2  501    0  0.35955808533E+01 -0.49773758469E+01 -0.35412580602E+02  0.36246976934E+02  0.47000000000E+01 0. -1.
         -5    1    1    2    0  503 -0.35955808533E+01  0.49773758469E+01 -0.60865577762E+03  0.60870489410E+03  0.47000000000E+01 0. -1.
<mgrwt>
<rscale>  2 0.77325592E+01</rscale>
<asrwt>0</asrwt>
<pdfrwt beam="1">  1       21 0.67962850E-04 0.77325592E+01</pdfrwt>
<pdfrwt beam="2">  1       21 0.99154927E-01 0.77325592E+01</pdfrwt>
<totfact> 0.95574788E+07</totfact>
</mgrwt>
</event>
<event>
 4    1  0.3999109E+006  0.4706445E+01  0.7546771E-02  0.2622023E+00
         21   -1    0    0  503  502  0.00000000000E+00  0.00000000000E+00  0.76805967406E+00  0.76805967406E+00  0.00000000000E+00 0.  1.
         21   -1    0    0  501  503 -0.00000000000E+00 -0.00000000000E+00 -0.31837613642E+02  0.31837613642E+02  0.00000000000E+00 0.  1.
          5    1    1    2  501    0  0.19903226723E+00  0.14493544582E+00 -0.20537443835E+02  0.21069817735E+02  0.47000000000E+01 0.  1.
         -5    1    1    2    0  502 -0.19903226723E+00 -0.14493544582E+00 -0.10532110134E+02  0.11535855581E+02  0.47000000000E+01 0.  1.
<mgrwt>
<rscale>  2 0.47064445E+01</rscale>
<asrwt>0</asrwt>
<pdfrwt beam="1">  1       21 0.11816300E-03 0.47064445E+01</pdfrwt>
<pdfrwt beam="2">  1       21 0.48980956E-02 0.47064445E+01</pdfrwt>
<totfact> 0.47483491E+09</totfact>
</mgrwt>
</event>
<event>
 4    1  0.3999109E+006  0.7183161E+01  0.7546771E-02  0.2282915E+00
         21   -1    0    0  501  502  0.00000000000E+00  0.00000000000E+00  0.27425165120E+02  0.27425165120E+02  0.00000000000E+00 0.  1.
         21   -1    0    0  502  503 -0.00000000000E+00 -0.00000000000E+00 -0.21043904902E+01  0.21043904902E+01  0.00000000000E+00 0. -1.
          5    1    1    2  501    0  0.50400133999E+01 -0.20263442816E+01  0.17466604044E+02  0.18885975300E+02  0.47000000000E+01 0. -1.
         -5    1    1    2    0  503 -0.50400133999E+01  0.20263442816E+01  0.78541705860E+01  0.10643580310E+02  0.47000000000E+01 0. -1.
<mgrwt>
<rscale>  2 0.71831613E+01</rscale>
<asrwt>0</asrwt>
<pdfrwt beam="1">  1       21 0.42192559E-02 0.71831613E+01</pdfrwt>
<pdfrwt beam="2">  1       21 0.32375240E-03 0.71831613E+01</pdfrwt>
<totfact> 0.22119194E+09</totfact>
</mgrwt>
</event>
<event>
 4    1  0.3999109E+006  0.4841710E+01  0.7546771E-02  0.2596024E+00
         21   -1    0    0  501  502  0.00000000000E+00  0.00000000000E+00  0.29419735578E+00  0.29419735578E+00  0.00000000000E+00 0.  1.
         21   -1    0    0  502  503 -0.00000000000E+00 -0.00000000000E+00 -0.14271354597E+03  0.14271354597E+03  0.00000000000E+00 0.  1.
          5    1    1    2  501    0  0.10680114445E+01  0.45989946823E+00 -0.23689628658E+02  0.24179343703E+02  0.47000000000E+01 0.  1.
         -5    1    1    2    0  503 -0.10680114445E+01 -0.45989946823E+00 -0.11872971995E+03  0.11882839962E+03  0.47000000000E+01 0.  1.
<mgrwt>
<rscale>  2 0.48417100E+01</rscale>
<asrwt>0</asrwt>
<pdfrwt beam="1">  1       21 0.45261148E-04 0.48417100E+01</pdfrwt>
<pdfrwt beam="2">  1       21 0.21955922E-01 0.48417100E+01</pdfrwt>
<totfact> 0.17905531E+09</totfact>
</mgrwt>
</event>
<event>
 4    1  0.3999109E+006  0.8974662E+01  0.7546771E-02  0.2138513E+00
         21   -1    0    0  501  502  0.00000000000E+00  0.00000000000E+00  0.14102274751E+02  0.14102274751E+02  0.00000000000E+00 0.  1.
         21   -1    0    0  502  503 -0.00000000000E+00 -0.00000000000E+00 -0.58936695800E+01  0.58936695800E+01  0.00000000000E+00 0. -1.
          5    1    1    2  501    0 -0.29073116577E+01  0.70712156301E+01  0.58622540555E+01  0.10719634983E+02  0.47000000000E+01 0. -1.
         -5    1    1    2    0  503  0.29073116577E+01 -0.70712156301E+01  0.23463511160E+01  0.92763093481E+01  0.47000000000E+01 0.  1.
<mgrwt>
<rscale>  2 0.89746616E+01</rscale>
<asrwt>0</asrwt>
<pdfrwt beam="1">  1       21 0.21695807E-02 0.89746616E+01</pdfrwt>
<pdfrwt beam="2">  1       21 0.90671840E-03 0.89746616E+01</pdfrwt>
<totfact> 0.16158218E+09</totfact>
</mgrwt>
</event>
<event>
 4    1  0.3999109E+006  0.5141357E+01  0.7546771E-02  0.2542672E+00
         21   -1    0    0  501  502  0.00000000000E+00  0.00000000000E+00  0.38250073809E+00  0.38250073809E+00  0.00000000000E+00 0.  1.
         21   -1    0    0  502  503 -0.00000000000E+00 -0.00000000000E+00 -0.76600507949E+02  0.76600507949E+02  0.00000000000E+00 0. -1.
          5    1    1    2  501    0  0.12461996017E+00 -0.20803895554E+01 -0.26070121364E+02  0.26572255809E+02  0.47000000000E+01 0.  1.
         -5    1    1    2    0  503 -0.12461996017E+00  0.20803895554E+01 -0.50147885846E+02  0.50410752878E+02  0.47000000000E+01 0. -1.
<mgrwt>
<rscale>  2 0.51413569E+01</rscale>
<asrwt>0</asrwt>
<pdfrwt beam="1">  1       21 0.58846260E-04 0.51413569E+01</pdfrwt>
<pdfrwt beam="2">  1       21 0.11784695E-01 0.51413569E+01</pdfrwt>
<totfact> 0.35455252E+09</totfact>
</mgrwt>
</event>
<event>
 4    1  0.3999109E+006  0.5484783E+01  0.7546771E-02  0.2487728E+00
         21   -1    0    0  501  502  0.00000000000E+00  0.00000000000E+00  0.28141081296E+02  0.28141081296E+02  0.00000000000E+00 0.  1.
         21   -1    0    0  502  503 -0.00000000000E+00 -0.00000000000E+00 -0.12114373031E+02  0.12114373031E+02  0.00000000000E+00 0.  1.
          5    1    1    2  501    0  0.16384021212E+01  0.23040143592E+01  0.27232515802E+02  0.27779358534E+02  0.47000000000E+01 0.  1.
         -5    1    1    2    0  503 -0.16384021212E+01 -0.23040143592E+01 -0.11205807537E+02  0.12476095793E+02  0.47000000000E+01 0.  1.
<mgrwt>
<rscale>  2 0.54847829E+01</rscale>
<asrwt>0</asrwt>
<pdfrwt beam="1">  1       21 0.43293971E-02 0.54847829E+01</pdfrwt>
<pdfrwt beam="2">  1       21 0.18637497E-02 0.54847829E+01</pdfrwt>
<totfact> 0.14826030E+08</totfact>
</mgrwt>
</event>
<event>
 4    1  0.3999109E+006  0.5485454E+01  0.7546771E-02  0.2487626E+00
         21   -1    0    0  503  502  0.00000000000E+00  0.00000000000E+00  0.28123447835E+02  0.28123447835E+02  0.00000000000E+00 0.  1.
         21   -1    0    0  501  503 -0.00000000000E+00 -0.00000000000E+00 -0.12208281141E+02  0.12208281141E+02  0.00000000000E+00 0.  1.
          5    1    1    2  501    0  0.47413518340E-01 -0.28280652436E+01 -0.11304354633E+02  0.12564976512E+02  0.47000000000E+01 0.  1.
         -5    1    1    2    0  502 -0.47413518340E-01  0.28280652436E+01  0.27219521327E+02  0.27766752463E+02  0.47000000000E+01 0.  1.
<mgrwt>
<rscale>  2 0.54854536E+01</rscale>
<asrwt>0</asrwt>
<pdfrwt beam="1">  1       21 0.43266843E-02 0.54854536E+01</pdfrwt>
<pdfrwt beam="2">  1       21 0.18781971E-02 0.54854536E+01</pdfrwt>
<totfact> 0.14678556E+08</totfact>
</mgrwt>
</event>
<event>
 4    1  0.3999109E+006  0.6938067E+01  0.7546771E-02  0.2307283E+00
         21   -1    0    0  503  502  0.00000000000E+00  0.00000000000E+00  0.42857112478E+02  0.42857112478E+02  0.00000000000E+00 0. -1.
         21   -1    0    0  501  503 -0.00000000000E+00 -0.00000000000E+00 -0.11347343274E+01  0.11347343274E+01  0.00000000000E+00 0.  1.
          5    1    1    2  501    0  0.15323217233E-01  0.51035804816E+01  0.18642785123E+02  0.19891963344E+02  0.47000000000E+01 0. -1.
         -5    1    1    2    0  502 -0.15323217233E-01 -0.51035804816E+01  0.23079593028E+02  0.24099883462E+02  0.47000000000E+01 0. -1.
<mgrwt>
<rscale>  2 0.69380666E+01</rscale>
<asrwt>0</asrwt>
<pdfrwt beam="1">  1       21 0.65934007E-02 0.69380666E+01</pdfrwt>
<pdfrwt beam="2">  1       21 0.17457455E-03 0.69380666E+01</pdfrwt>
<totfact> 0.25808684E+09</totfact>
</mgrwt>
</event>
<event>
 4    1  0.3999109E+006  0.6017109E+01  0.7546771E-02  0.2413202E+00
         21   -1    0    0  501  502  0.00000000000E+00  0.00000000000E+00  0.17709392257E+01  0.17709392257E+01  0.00000000000E+00 0. -1.
         21   -1    0    0  502  503 -0.00000000000E+00 -0.00000000000E+00 -0.38914165081E+02  0.38914165081E+02  0.00000000000E+00 0. -1.
          5    1    1    2  501    0  0.26623475596E+01 -0.26509452425E+01 -0.45569230612E+01  0.75479237538E+01  0.47000000000E+01 0. -1.
         -5    1    1    2    0  503 -0.26623475596E+01  0.26509452425E+01 -0.32586302794E+02  0.33137180553E+02  0.47000000000E+01 0. -1.
<mgrwt>
<rscale>  2 0.60171094E+01</rscale>
<asrwt>0</asrwt>
<pdfrwt beam="1">  1       21 0.27245218E-03 0.60171094E+01</pdfrwt>
<pdfrwt beam="2">  1       21 0.59867948E-02 0.60171094E+01</pdfrwt>
<totfact> 0.14474182E+09</totfact>
</mgrwt>
</event>
<event>
 4    1  0.3999109E+006  0.5293302E+01  0.7546771E-02  0.2517612E+00
         21   -1    0    0  503  502  0.00000000000E+00  0.00000000000E+00  0.30557144588E+01  0.30557144588E+01  0.00000000000E+00 0. -1.
         21   -1    0    0  501  503 -0.00000000000E+00 -0.00000000000E+00 -0.12299646585E+02  0.12299646585E+02  0.00000000000E+00 0. -1.
          5    1    1    2  501    0  0.18281517363E+01  0.16083880048E+01 -0.84951969886E+01  0.10009366744E+02  0.47000000000E+01 0. -1.
         -5    1    1    2    0  502 -0.18281517363E+01 -0.16083880048E+01 -0.74873513756E+00  0.53459942996E+01  0.47000000000E+01 0. -1.
<mgrwt>
<rscale>  2 0.52933024E+01</rscale>
<asrwt>0</asrwt>
<pdfrwt beam="1">  1       21 0.47010992E-03 0.52933024E+01</pdfrwt>
<pdfrwt beam="2">  1       21 0.18922533E-02 0.52933024E+01</pdfrwt>
<totfact> 0.32580162E+09</totfact>
</mgrwt>
</event>
<event>
 4    1  0.3999109E+006  0.6183342E+01  0.7546771E-02  0.2392155E+00
         21   -1    0    0  501  502  0.00000000000E+00  0.00000000000E+00  0.11347838595E+03  0.11347838595E+03  0.00000000000E+00 0. -1.
         21   -1    0    0  502  503 -0.00000000000E+00 -0.00000000000E+00 -0.38424701452E+00  0.38424701452E+00  0.00000000000E+00 0. -1.
          5    1    1    2  501    0 -0.15269690995E+01 -0.37164618896E+01  0.76526211895E+02  0.76775613515E+02  0.47000000000E+01 0. -1.
         -5    1    1    2    0  503  0.15269690995E+01  0.37164618896E+01  0.36567927038E+02  0.37087019447E+02  0.47000000000E+01 0. -1.
<mgrwt>
<rscale>  2 0.61833424E+01</rscale>
<asrwt>0</asrwt>
<pdfrwt beam="1">  1       21 0.17458186E-01 0.61833424E+01</pdfrwt>
<pdfrwt beam="2">  1       21 0.59115016E-04 0.61833424E+01</pdfrwt>
<totfact> 0.22431244E+09</totfact>
</mgrwt>
</event>
<event>
 4    1  0.3999109E+006  0.4804491E+01  0.7546771E-02  0.2603051E+00
         21   -1    0    0  503  502  0.00000000000E+00  0.00000000000E+00  0.20304068329E+02  0.20304068329E+02  0.00000000000E+00 0.  1.
         21   -1    0    0  501  503 -0.00000000000E+00 -0.00000000000E+00 -0.12865603722E+01  0.12865603722E+01  0.00000000000E+00 0.  1.
          5    1    1    2  501    0 -0.69524716364E+00  0.71398093419E+00  0.58265021900E+01  0.75519047374E+01  0.47000000000E+01 0.  1.
         -5    1    1    2    0  502  0.69524716364E+00 -0.71398093419E+00  0.13191005767E+02  0.14038723964E+02  0.47000000000E+01 0.  1.
<mgrwt>
<rscale>  2 0.48044914E+01</rscale>
<asrwt>0</asrwt>
<pdfrwt beam="1">  1       21 0.31237026E-02 0.48044914E+01</pdfrwt>
<pdfrwt beam="2">  1       21 0.19793238E-03 0.48044914E+01</pdfrwt>
<totfact> 0.46694989E+09</totfact>
</mgrwt>
</event>
<event>
 4    1  0.3999109E+006  0.5492112E+01  0.7546771E-02  0.2486619E+00
         21   -1    0    0  501  502  0.00000000000E+00  0.00000000000E+00  0.25294909002E+01  0.25294909002E+01  0.00000000000E+00 0. -1.
         21   -1    0    0  502  503 -0.00000000000E+00 -0.00000000000E+00 -0.35572343259E+02  0.35572343259E+02  0.00000000000E+00 0. -1.
          5    1    1    2  501    0  0.10195173019E+00  0.28395248301E+01 -0.98847293970E+00  0.55803560969E+01  0.47000000000E+01 0. -1.
         -5    1    1    2    0  503 -0.10195173019E+00 -0.28395248301E+01 -0.32054379419E+02  0.32521478062E+02  0.47000000000E+01 0. -1.
<mgrwt>
<rscale>  2 0.54921121E+01</rscale>
<asrwt>0</asrwt>
<pdfrwt beam="1">  1       21 0.38915247E-03 0.54921121E+01</pdfrwt>
<pdfrwt beam="2">  1       21 0.54726678E-02 0.54921121E+01</pdfrwt>
<totfact> 0.93981106E+08</totfact>
</mgrwt>
</event>
<event>
 4    1  0.3999109E+006  0.8363200E+01  0.7546771E-02  0.2182177E+00
         21   -1    0    0  501  502  0.00000000000E+00  0.00000000000E+00  0.22526030700E+01  0.22526030700E+01  0.00000000000E+00 0. -1.
         21   -1    0    0  502  503 -0.00000000000E+00 -0.00000000000E+00 -0.43756228475E+02  0.43756228475E+02  0.00000000000E+00 0.  1.
          5    1    1    2  501    0 -0.43075882943E+01  0.54127444896E+01 -0.83552535578E+01  0.11821733453E+02  0.47000000000E+01 0. -1.
         -5    1    1    2    0  503  0.43075882943E+01 -0.54127444896E+01 -0.33148371847E+02  0.34187098092E+02  0.47000000000E+01 0.  1.
<mgrwt>
<rscale>  2 0.83632003E+01</rscale>
<asrwt>0</asrwt>
<pdfrwt beam="1">  1       21 0.34655433E-03 0.83632003E+01</pdfrwt>
<pdfrwt beam="2">  1       21 0.67317272E-02 0.83632003E+01</pdfrwt>
<totfact> 0.11040857E+09</totfact>
</mgrwt>
</event>
<event>
 4    1  0.3999109E+006  0.5963188E+01  0.7546771E-02  0.2420239E+00
         21   -1    0    0  501  502  0.00000000000E+00  0.00000000000E+00  0.19813850896E+01  0.19813850896E+01  0.00000000000E+00 0. -1.
         21   -1    0    0  502  503 -0.00000000000E+00 -0.00000000000E+00 -0.11038069420E+03  0.11038069420E+03  0.00000000000E+00 0. -1.
          5    1    1    2  501    0  0.16198569965E+01  0.32932770988E+01 -0.27883373702E+01  0.65828896413E+01  0.47000000000E+01 0. -1.
         -5    1    1    2    0  503 -0.16198569965E+01 -0.32932770988E+01 -0.10561097174E+03  0.10577918964E+03  0.47000000000E+01 0. -1.
<mgrwt>
<rscale>  2 0.59631880E+01</rscale>
<asrwt>0</asrwt>
<pdfrwt beam="1">  1       21 0.30482845E-03 0.59631880E+01</pdfrwt>
<pdfrwt beam="2">  1       21 0.16981646E-01 0.59631880E+01</pdfrwt>
<totfact> 0.24789653E+08</totfact>
</mgrwt>
</event>
<event>
 4    1  0.3999109E+006  0.9522648E+01  0.7546771E-02  0.2103218E+00
         21   -1    0    0  501  502  0.00000000000E+00  0.00000000000E+00  0.77996720371E+02  0.77996720371E+02  0.00000000000E+00 0.  1.
         21   -1    0    0  502  503 -0.00000000000E+00 -0.00000000000E+00 -0.33945431234E+01  0.33945431234E+01  0.00000000000E+00 0. -1.
          5    1    1    2  501    0  0.32018236554E+01  0.76380071037E+01  0.70299755568E+02  0.70941782190E+02  0.47000000000E+01 0.  1.
         -5    1    1    2    0  503 -0.32018236554E+01 -0.76380071037E+01  0.43024216792E+01  0.10449481305E+02  0.47000000000E+01 0. -1.
<mgrwt>
<rscale>  2 0.95226481E+01</rscale>
<asrwt>0</asrwt>
<pdfrwt beam="1">  1       21 0.11999494E-01 0.95226481E+01</pdfrwt>
<pdfrwt beam="2">  1       21 0.52223746E-03 0.95226481E+01</pdfrwt>
<totfact> 0.26955786E+08</totfact>
</mgrwt>
</event>
<event>
 4    1  0.3999109E+006  0.7279818E+01  0.7546771E-02  0.2273676E+00
         21   -1    0    0  503  502  0.00000000000E+00  0.00000000000E+00  0.61436697465E+03  0.61436697465E+03  0.00000000000E+00 0.  1.
         21   -1    0    0  501  503 -0.00000000000E+00 -0.00000000000E+00 -0.90305689251E-01  0.90305689251E-01  0.00000000000E+00 0.  1.
          5    1    1    2  501    0 -0.62043039858E+00  0.55245652957E+01  0.24211635578E+03  0.24222577380E+03  0.47000000000E+01 0.  1.
         -5    1    1    2    0  502  0.62043039858E+00 -0.55245652957E+01  0.37216031318E+03  0.37223150654E+03  0.47000000000E+01 0.  1.
<mgrwt>
<rscale>  2 0.72798184E+01</rscale>
<asrwt>0</asrwt>
<pdfrwt beam="1">  1       21 0.94514649E-01 0.72798184E+01</pdfrwt>
<pdfrwt beam="2">  1       21 0.13893675E-04 0.72798184E+01</pdfrwt>
<totfact> 0.86658835E+08</totfact>
</mgrwt>
</event>
<event>
 4    1  0.3999109E+006  0.5799621E+01  0.7546771E-02  0.2442256E+00
         21   -1    0    0  503  502  0.00000000000E+00  0.00000000000E+00  0.29127996352E+02  0.29127996352E+02  0.00000000000E+00 0. -1.
         21   -1    0    0  501  503 -0.00000000000E+00 -0.00000000000E+00 -0.11983069098E+01  0.11983069098E+01  0.00000000000E+00 0. -1.
          5    1    1    2  501    0  0.29170601159E+00  0.33853380753E+01  0.11073998487E+02  0.12500761927E+02  0.47000000000E+01 0. -1.
         -5    1    1    2    0  502 -0.29170601159E+00 -0.33853380753E+01  0.16855690956E+02  0.17825541335E+02  0.47000000000E+01 0. -1.
<mgrwt>
<rscale>  2 0.57996212E+01</rscale>
<asrwt>0</asrwt>
<pdfrwt beam="1">  1       21 0.44812297E-02 0.57996212E+01</pdfrwt>
<pdfrwt beam="2">  1       21 0.18435493E-03 0.57996212E+01</pdfrwt>
<totfact> 0.36692153E+09</totfact>
</mgrwt>
</event>
<event>
 4    1  0.3999109E+006  0.4702775E+01  0.7546771E-02  0.2622746E+00
         21   -1    0    0  503  502  0.00000000000E+00  0.00000000000E+00  0.30156270528E+01  0.30156270528E+01  0.00000000000E+00 0. -1.
         21   -1    0    0  501  503 -0.00000000000E+00 -0.00000000000E+00 -0.74978825563E+01  0.74978825563E+01  0.00000000000E+00 0. -1.
          5    1    1    2  501    0  0.13587247643E+00  0.87343679981E-01 -0.30187031194E+01  0.55882608002E+01  0.47000000000E+01 0.  1.
         -5    1    1    2    0  502 -0.13587247643E+00 -0.87343679981E-01 -0.14635523841E+01  0.49252488089E+01  0.47000000000E+01 0.  1.
<mgrwt>
<rscale>  2 0.47027747E+01</rscale>
<asrwt>0</asrwt>
<pdfrwt beam="1">  1       21 0.46394262E-03 0.47027747E+01</pdfrwt>
<pdfrwt beam="2">  1       21 0.11535204E-02 0.47027747E+01</pdfrwt>
<totfact> 0.58745727E+09</totfact>
</mgrwt>
</event>
<event>
 4    1  0.3999109E+006  0.5911916E+01  0.7546771E-02  0.2427031E+00
         21   -1    0    0  501  502  0.00000000000E+00  0.00000000000E+00  0.22433507674E+01  0.22433507674E+01  0.00000000000E+00 0. -1.
         21   -1    0    0  502  503 -0.00000000000E+00 -0.00000000000E+00 -0.22006005209E+02  0.22006005209E+02  0.00000000000E+00 0. -1.
          5    1    1    2  501    0  0.33484380856E+01 -0.12840233344E+01 -0.33292356803E+01  0.67848775782E+01  0.47000000000E+01 0. -1.
         -5    1    1    2    0  503 -0.33484380856E+01  0.12840233344E+01 -0.16433418762E+02  0.17464478398E+02  0.47000000000E+01 0. -1.
<mgrwt>
<rscale>  2 0.59119162E+01</rscale>
<asrwt>0</asrwt>
<pdfrwt beam="1">  1       21 0.34513089E-03 0.59119162E+01</pdfrwt>
<pdfrwt beam="2">  1       21 0.33855393E-02 0.59119162E+01</pdfrwt>
<totfact> 0.23897370E+09</totfact>
</mgrwt>
</event>
<event>
 4    1  0.3999109E+006  0.7376612E+01  0.7546771E-02  0.2264621E+00
         21   -1    0    0  501  502  0.00000000000E+00  0.00000000000E+00  0.21558703230E+00  0.21558703230E+00  0.00000000000E+00 0.  1.
         21   -1    0    0  502  503 -0.00000000000E+00 -0.00000000000E+00 -0.38515633746E+03  0.38515633746E+03  0.00000000000E+00 0. -1.
          5    1    1    2  501    0 -0.55279536288E+01  0.13289576607E+01 -0.79345681415E+02  0.79687838213E+02  0.47000000000E+01 0.  1.
         -5    1    1    2    0  503  0.55279536288E+01 -0.13289576607E+01 -0.30559506901E+03  0.30568408628E+03  0.47000000000E+01 0. -1.
<mgrwt>
<rscale>  2 0.73766117E+01</rscale>
<asrwt>0</asrwt>
<pdfrwt beam="1">  1       21 0.33167567E-04 0.73766117E+01</pdfrwt>
<pdfrwt beam="2">  1       21 0.59254229E-01 0.73766117E+01</pdfrwt>
<totfact> 0.67436137E+08</totfact>
</mgrwt>
</event>
<event>
 4    1  0.3999109E+006  0.4805091E+01  0.7546771E-02  0.2602937E+00
         21   -1    0    0  503  502  0.00000000000E+00  0.00000000000E+00  0.19475302366E+00  0.19475302366E+00  0.00000000000E+00 0. -1.
         21   -1    0    0  501  503 -0.00000000000E+00 -0.00000000000E+00 -0.11960487934E+03  0.11960487934E+03  0.00000000000E+00 0. -1.
          5    1    1    2  501    0 -0.97258289581E+00 -0.23016863244E+00 -0.54092342368E+02  0.54305344101E+02  0.47000000000E+01 0.  1.
         -5    1    1    2    0  502  0.97258289581E+00  0.23016863244E+00 -0.65317783946E+02  0.65494288261E+02  0.47000000000E+01 0.  1.
<mgrwt>
<rscale>  2 0.48050905E+01</rscale>
<asrwt>0</asrwt>
<pdfrwt beam="1">  1       21 0.29962047E-04 0.48050905E+01</pdfrwt>
<pdfrwt beam="2">  1       21 0.18400724E-01 0.48050905E+01</pdfrwt>
<totfact> 0.40591415E+09</totfact>
</mgrwt>
</event>
<event>
 4    1  0.3999109E+006  0.4717219E+01  0.7546771E-02  0.2619904E+00
         21   -1    0    0  503  502  0.00000000000E+00  0.00000000000E+00  0.57557928195E+00  0.57557928195E+00  0.00000000000E+00 0. -1.
         21   -1    0    0  501  503 -0.00000000000E+00 -0.00000000000E+00 -0.45106712661E+02  0.45106712661E+02  0.00000000000E+00 0. -1.
          5    1    1    2  501    0 -0.31214566108E+00 -0.25439381702E+00 -0.30900350537E+02  0.31258339918E+02  0.47000000000E+01 0. -1.
         -5    1    1    2    0  502  0.31214566108E+00  0.25439381702E+00 -0.13630782842E+02  0.14423952025E+02  0.47000000000E+01 0. -1.
<mgrwt>
<rscale>  2 0.47172186E+01</rscale>
<asrwt>0</asrwt>
<pdfrwt beam="1">  1       21 0.88550670E-04 0.47172186E+01</pdfrwt>
<pdfrwt beam="2">  1       21 0.69394934E-02 0.47172186E+01</pdfrwt>
<totfact> 0.41876382E+09</totfact>
</mgrwt>
</event>
<event>
 4    1  0.3999109E+006  0.4908930E+01  0.7546771E-02  0.2583567E+00
         21   -1    0    0  501  502  0.00000000000E+00  0.00000000000E+00  0.29957659298E-01  0.29957659298E-01  0.00000000000E+00 0. -1.
         21   -1    0    0  502  503 -0.00000000000E+00 -0.00000000000E+00 -0.84770402973E+03  0.84770402973E+03  0.00000000000E+00 0.  1.
          5    1    1    2  501    0 -0.11407625293E+01 -0.84039067704E+00 -0.51965114300E+03  0.51967432880E+03  0.47000000000E+01 0.  1.
         -5    1    1    2    0  503  0.11407625293E+01  0.84039067704E+00 -0.32802292908E+03  0.32805965859E+03  0.47000000000E+01 0.  1.
<mgrwt>
<rscale>  2 0.49089302E+01</rscale>
<asrwt>0</asrwt>
<pdfrwt beam="1">  1       21 0.46092948E-05 0.49089302E+01</pdfrwt>
<pdfrwt beam="2">  1       21 0.13040400E+00 0.49089302E+01</pdfrwt>
<totfact> 0.14991398E+09</totfact>
</mgrwt>
</event>
<event>
 4    1  0.3999109E+006  0.4837272E+01  0.7546771E-02  0.2596857E+00
         21   -1    0    0  503  502  0.00000000000E+00  0.00000000000E+00  0.23052216761E+02  0.23052216761E+02  0.00000000000E+00 0. -1.
         21   -1    0    0  501  503 -0.00000000000E+00 -0.00000000000E+00 -0.14753304213E+01  0.14753304213E+01  0.00000000000E+00 0. -1.
          5    1    1    2  501    0 -0.58948193231E+00  0.98066934743E+00  0.39384564466E+01  0.62378394095E+01  0.47000000000E+01 0. -1.
         -5    1    1    2    0  502  0.58948193231E+00 -0.98066934743E+00  0.17638429893E+02  0.18289707773E+02  0.47000000000E+01 0. -1.
<mgrwt>
<rscale>  2 0.48372721E+01</rscale>
<asrwt>0</asrwt>
<pdfrwt beam="1">  1       21 0.35464946E-02 0.48372721E+01</pdfrwt>
<pdfrwt beam="2">  1       21 0.22697393E-03 0.48372721E+01</pdfrwt>
<totfact> 0.32610200E+09</totfact>
</mgrwt>
</event>
<event>
 4    1  0.3999109E+006  0.5194413E+01  0.7546771E-02  0.2533779E+00
         21   -1    0    0  503  502  0.00000000000E+00  0.00000000000E+00  0.12396734167E+03  0.12396734167E+03  0.00000000000E+00 0.  1.
         21   -1    0    0  501  503 -0.00000000000E+00 -0.00000000000E+00 -0.21765665213E+00  0.21765665213E+00  0.00000000000E+00 0.  1.
          5    1    1    2  501    0 -0.38638294515E+00  0.21777583038E+01  0.61637705265E+02  0.61856193168E+02  0.47000000000E+01 0. -1.
         -5    1    1    2    0  502  0.38638294515E+00 -0.21777583038E+01  0.62111979749E+02  0.62328805149E+02  0.47000000000E+01 0. -1.
<mgrwt>
<rscale>  2 0.51944127E+01</rscale>
<asrwt>0</asrwt>
<pdfrwt beam="1">  1       21 0.19071842E-01 0.51944127E+01</pdfrwt>
<pdfrwt beam="2">  1       21 0.33485738E-04 0.51944127E+01</pdfrwt>
<totfact> 0.35715702E+09</totfact>
</mgrwt>
</event>
<event>
 4    1  0.3999109E+006  0.5901892E+01  0.7546771E-02  0.2428370E+00
         21   -1    0    0  503  502  0.00000000000E+00  0.00000000000E+00  0.39964030799E+03  0.39964030799E+03  0.00000000000E+00 0.  1.
         21   -1    0    0  501  503 -0.00000000000E+00 -0.00000000000E+00 -0.34290683228E+00  0.34290683228E+00  0.00000000000E+00 0.  1.
          5    1    1    2  501    0  0.88209559364E+00  0.34589354879E+01  0.26933915175E+02  0.27572959834E+02  0.47000000000E+01 0.  1.
         -5    1    1    2    0  502 -0.88209559364E+00 -0.34589354879E+01  0.37236348598E+03  0.37241025499E+03  0.47000000000E+01 0.  1.
<mgrwt>
<rscale>  2 0.59018918E+01</rscale>
<asrwt>0</asrwt>
<pdfrwt beam="1">  1       21 0.61482752E-01 0.59018918E+01</pdfrwt>
<pdfrwt beam="2">  1       21 0.52755217E-04 0.59018918E+01</pdfrwt>
<totfact> 0.29275879E+08</totfact>
</mgrwt>
</event>
<event>
 4    1  0.3999109E+006  0.1566587E+02  0.7546771E-02  0.1848404E+00
         21   -1    0    0  503  502  0.00000000000E+00  0.00000000000E+00  0.31831654292E+02  0.31831654292E+02  0.00000000000E+00 0. -1.
         21   -1    0    0  501  503 -0.00000000000E+00 -0.00000000000E+00 -0.26914751082E+02  0.26914751082E+02  0.00000000000E+00 0.  1.
          5    1    1    2  501    0  0.68247983612E+01  0.13294793350E+02 -0.22353527198E+02  0.27296512251E+02  0.47000000000E+01 0.  1.
         -5    1    1    2    0  502 -0.68247983612E+01 -0.13294793350E+02  0.27270430407E+02  0.31449893123E+02  0.47000000000E+01 0. -1.
<mgrwt>
<rscale>  2 0.15665867E+02</rscale>
<asrwt>0</asrwt>
<pdfrwt beam="1">  1       21 0.48971776E-02 0.15665867E+02</pdfrwt>
<pdfrwt beam="2">  1       21 0.41407309E-02 0.15665867E+02</pdfrwt>
<totfact> 0.63671471E+07</totfact>
</mgrwt>
</event>
<event>
 4    1  0.3999109E+006  0.1503461E+02  0.7546771E-02  0.1867014E+00
         21   -1    0    0  501  502  0.00000000000E+00  0.00000000000E+00  0.17017714607E+02  0.17017714607E+02  0.00000000000E+00 0.  1.
         21   -1    0    0  502  503 -0.00000000000E+00 -0.00000000000E+00 -0.23997673998E+02  0.23997673998E+02  0.00000000000E+00 0. -1.
          5    1    1    2  501    0 -0.76330060301E+00 -0.14260672503E+02  0.10213471345E+02  0.18175654182E+02  0.47000000000E+01 0.  1.
         -5    1    1    2    0  503  0.76330060301E+00  0.14260672503E+02 -0.17193430736E+02  0.22839734423E+02  0.47000000000E+01 0. -1.
<mgrwt>
<rscale>  2 0.15034607E+02</rscale>
<asrwt>0</asrwt>
<pdfrwt beam="1">  1       21 0.26181100E-02 0.15034607E+02</pdfrwt>
<pdfrwt beam="2">  1       21 0.36919498E-02 0.15034607E+02</pdfrwt>
<totfact> 0.19680487E+08</totfact>
</mgrwt>
</event>
<event>
 4    1  0.3999109E+006  0.5725564E+01  0.7546771E-02  0.2452572E+00
         21   -1    0    0  501  502  0.00000000000E+00  0.00000000000E+00  0.10745057479E+02  0.10745057479E+02  0.00000000000E+00 0.  1.
         21   -1    0    0  502  503 -0.00000000000E+00 -0.00000000000E+00 -0.44989458999E+01  0.44989458999E+01  0.00000000000E+00 0.  1.
          5    1    1    2  501    0  0.12521564420E+00  0.32674766198E+01  0.74472481688E+01  0.93938058159E+01  0.47000000000E+01 0.  1.
         -5    1    1    2    0  503 -0.12521564420E+00 -0.32674766198E+01 -0.12011365897E+01  0.58501975630E+01  0.47000000000E+01 0.  1.
<mgrwt>
<rscale>  2 0.57255639E+01</rscale>
<asrwt>0</asrwt>
<pdfrwt beam="1">  1       21 0.16530858E-02 0.57255639E+01</pdfrwt>
<pdfrwt beam="2">  1       21 0.69214552E-03 0.57255639E+01</pdfrwt>
<totfact> 0.24871964E+09</totfact>
</mgrwt>
</event>
<event>
 4    1  0.3999109E+006  0.1624564E+02  0.7546771E-02  0.1832277E+00
         21   -1    0    0  503  502  0.00000000000E+00  0.00000000000E+00  0.17944911704E+02  0.17944911704E+02  0.00000000000E+00 0. -1.
         21   -1    0    0  501  503 -0.00000000000E+00 -0.00000000000E+00 -0.20428525281E+03  0.20428525281E+03  0.00000000000E+00 0.  1.
          5    1    1    2  501    0 -0.91371657695E+01  0.12583446895E+02 -0.20021074607E+03  0.20086877253E+03  0.47000000000E+01 0.  1.
         -5    1    1    2    0  502  0.91371657695E+01 -0.12583446895E+02  0.13870404960E+02  0.21361391992E+02  0.47000000000E+01 0. -1.
<mgrwt>
<rscale>  2 0.16245644E+02</rscale>
<asrwt>0</asrwt>
<pdfrwt beam="1">  1       21 0.27607555E-02 0.16245644E+02</pdfrwt>
<pdfrwt beam="2">  1       21 0.31428503E-01 0.16245644E+02</pdfrwt>
<totfact> 0.54765616E+06</totfact>
</mgrwt>
</event>
<event>
 4    1  0.3999109E+006  0.7005331E+01  0.7546771E-02  0.2300457E+00
         21   -1    0    0  503  502  0.00000000000E+00  0.00000000000E+00  0.11575525518E+03  0.11575525518E+03  0.00000000000E+00 0.  1.
         21   -1    0    0  501  503 -0.00000000000E+00 -0.00000000000E+00 -0.68093408384E+00  0.68093408384E+00  0.00000000000E+00 0.  1.
          5    1    1    2  501    0  0.42233812243E+01 -0.30245178678E+01  0.93302057763E+02  0.93564676241E+02  0.47000000000E+01 0.  1.
         -5    1    1    2    0  502 -0.42233812243E+01  0.30245178678E+01  0.21772263333E+02  0.22871513022E+02  0.47000000000E+01 0.  1.
<mgrwt>
<rscale>  2 0.70053306E+01</rscale>
<asrwt>0</asrwt>
<pdfrwt beam="1">  1       21 0.17808485E-01 0.70053306E+01</pdfrwt>
<pdfrwt beam="2">  1       21 0.10475918E-03 0.70053306E+01</pdfrwt>
<totfact> 0.11039118E+09</totfact>
</mgrwt>
</event>
<event>
 4    1  0.3999109E+006  0.7309474E+01  0.7546771E-02  0.2270881E+00
         21   -1    0    0  501  502  0.00000000000E+00  0.00000000000E+00  0.15781993789E+03  0.15781993789E+03  0.00000000000E+00 0.  1.
         21   -1    0    0  502  503 -0.00000000000E+00 -0.00000000000E+00 -0.35537169638E+00  0.35537169638E+00  0.00000000000E+00 0. -1.
          5    1    1    2  501    0  0.55980521392E+01 -0.14791029650E-01  0.95944133606E+02  0.96222165741E+02  0.47000000000E+01 0.  1.
         -5    1    1    2    0  503 -0.55980521392E+01  0.14791029650E-01  0.61520432586E+02  0.61953143843E+02  0.47000000000E+01 0. -1.
<mgrwt>
<rscale>  2 0.73094738E+01</rscale>
<asrwt>0</asrwt>
<pdfrwt beam="1">  1       21 0.24279934E-01 0.73094738E+01</pdfrwt>
<pdfrwt beam="2">  1       21 0.54672695E-04 0.73094738E+01</pdfrwt>
<totfact> 0.16471105E+09</totfact>
</mgrwt>
</event>
<event>
 4    1  0.3999109E+006  0.5658836E+01  0.7546771E-02  0.2462061E+00
         21   -1    0    0  501  502  0.00000000000E+00  0.00000000000E+00  0.18850991427E+02  0.18850991427E+02  0.00000000000E+00 0.  1.
         21   -1    0    0  502  503 -0.00000000000E+00 -0.00000000000E+00 -0.18324846119E+01  0.18324846119E+01  0.00000000000E+00 0. -1.
          5    1    1    2  501    0 -0.13075571684E+01 -0.28675276255E+01  0.11303441698E+02  0.12640815426E+02  0.47000000000E+01 0. -1.
         -5    1    1    2    0  503  0.13075571684E+01  0.28675276255E+01  0.57150651172E+01  0.80426606123E+01  0.47000000000E+01 0. -1.
<mgrwt>
<rscale>  2 0.56588356E+01</rscale>
<asrwt>0</asrwt>
<pdfrwt beam="1">  1       21 0.29001524E-02 0.56588356E+01</pdfrwt>
<pdfrwt beam="2">  1       21 0.28192072E-03 0.56588356E+01</pdfrwt>
<totfact> 0.37966555E+09</totfact>
</mgrwt>
</event>
<event>
 4    1  0.3999109E+006  0.1070737E+02  0.7546771E-02  0.2036833E+00
         21   -1    0    0  501  502  0.00000000000E+00  0.00000000000E+00  0.46160372887E+03  0.46160372887E+03  0.00000000000E+00 0.  1.
         21   -1    0    0  502  503 -0.00000000000E+00 -0.00000000000E+00 -0.25000101465E+00  0.25000101465E+00  0.00000000000E+00 0.  1.
          5    1    1    2  501    0 -0.10661341952E+01 -0.95614344237E+01  0.21201406037E+03  0.21228426570E+03  0.47000000000E+01 0.  1.
         -5    1    1    2    0  503  0.10661341952E+01  0.95614344237E+01  0.24933966748E+03  0.24956946418E+03  0.47000000000E+01 0.  1.
<mgrwt>
<rscale>  2 0.10707365E+02</rscale>
<asrwt>0</asrwt>
<pdfrwt beam="1">  1       21 0.71015276E-01 0.10707365E+02</pdfrwt>
<pdfrwt beam="2">  1       21 0.38462064E-04 0.10707365E+02</pdfrwt>
<totfact> 0.47437892E+08</totfact>
</mgrwt>
</event>
<event>
 4    1  0.3999109E+006  0.1617688E+02  0.7546771E-02  0.1834144E+00
         21   -1    0    0  503  502  0.00000000000E+00  0.00000000000E+00  0.12108082644E+01  0.12108082644E+01  0.00000000000E+00 0.  1.
         21   -1    0    0  501  503 -0.00000000000E+00 -0.00000000000E+00 -0.25598889996E+03  0.25598889996E+03  0.00000000000E+00 0. -1.
          5    1    1    2  501    0  0.80598335314E+01 -0.13215165775E+02 -0.17813421041E+03  0.17886723692E+03  0.47000000000E+01 0. -1.
         -5    1    1    2    0  502 -0.80598335314E+01  0.13215165775E+02 -0.76643881286E+02  0.78332471310E+02  0.47000000000E+01 0.  1.
<mgrwt>
<rscale>  2 0.16176882E+02</rscale>
<asrwt>0</asrwt>
<pdfrwt beam="1">  1       21 0.18627793E-03 0.16176882E+02</pdfrwt>
<pdfrwt beam="2">  1       21 0.39382964E-01 0.16176882E+02</pdfrwt>
<totfact> 0.19169377E+08</totfact>
</mgrwt>
</event>
<event>
 4    1  0.3999109E+006  0.9147252E+01  0.7546771E-02  0.2127036E+00
         21   -1    0    0  501  502  0.00000000000E+00  0.00000000000E+00  0.25482760746E+02  0.25482760746E+02  0.00000000000E+00 0. -1.
         21   -1    0    0  502  503 -0.00000000000E+00 -0.00000000000E+00 -0.33683022355E+01  0.33683022355E+01  0.00000000000E+00 0.  1.
          5    1    1    2  501    0  0.35648139932E+01 -0.69910172620E+01  0.13346370144E+02  0.16180167403E+02  0.47000000000E+01 0.  1.
         -5    1    1    2    0  503 -0.35648139932E+01  0.69910172620E+01  0.87680883666E+01  0.12670895579E+02  0.47000000000E+01 0.  1.
<mgrwt>
<rscale>  2 0.91472521E+01</rscale>
<asrwt>0</asrwt>
<pdfrwt beam="1">  1       21 0.39204246E-02 0.91472521E+01</pdfrwt>
<pdfrwt beam="2">  1       21 0.51820036E-03 0.91472521E+01</pdfrwt>
<totfact> 0.15080055E+09</totfact>
</mgrwt>
</event>
<event>
 4    1  0.3999109E+006  0.5342808E+01  0.7546771E-02  0.2509711E+00
         21   -1    0    0  501  502  0.00000000000E+00  0.00000000000E+00  0.23061787959E+00  0.23061787959E+00  0.00000000000E+00 0. -1.
         21   -1    0    0  502  503 -0.00000000000E+00 -0.00000000000E+00 -0.16636474865E+03  0.16636474865E+03  0.00000000000E+00 0. -1.
          5    1    1    2  501    0  0.25068993046E+01  0.41358353886E+00 -0.40923077446E+02  0.41270375126E+02  0.47000000000E+01 0. -1.
         -5    1    1    2    0  503 -0.25068993046E+01 -0.41358353886E+00 -0.12521105333E+03  0.12532499141E+03  0.47000000000E+01 0. -1.
<mgrwt>
<rscale>  2 0.53428078E+01</rscale>
<asrwt>0</asrwt>
<pdfrwt beam="1">  1       21 0.35479756E-04 0.53428078E+01</pdfrwt>
<pdfrwt beam="2">  1       21 0.25594518E-01 0.53428078E+01</pdfrwt>
<totfact> 0.21111958E+09</totfact>
</mgrwt>
</event>
<event>
 4    1  0.3999109E+006  0.7842476E+01  0.7546771E-02  0.2223604E+00
         21   -1    0    0  501  502  0.00000000000E+00  0.00000000000E+00  0.97670191930E-01  0.97670191930E-01  0.00000000000E+00 0.  1.
         21   -1    0    0  502  503 -0.00000000000E+00 -0.00000000000E+00 -0.64513004003E+03  0.64513004003E+03  0.00000000000E+00 0. -1.
          5    1    1    2  501    0 -0.31996231331E+01 -0.54015586778E+01 -0.27264771727E+03  0.27276048497E+03  0.47000000000E+01 0.  1.
         -5    1    1    2    0  503  0.31996231331E+01  0.54015586778E+01 -0.37238465256E+03  0.37246722525E+03  0.47000000000E+01 0. -1.
<mgrwt>
<rscale>  2 0.78424757E+01</rscale>
<asrwt>0</asrwt>
<pdfrwt beam="1">  1       21 0.15027182E-04 0.78424757E+01</pdfrwt>
<pdfrwt beam="2">  1       21 0.99244180E-01 0.78424757E+01</pdfrwt>
<totfact> 0.73689085E+08</totfact>
</mgrwt>
</event>
<event>
 4    1  0.3999109E+006  0.6861480E+01  0.7546771E-02  0.2315189E+00
         21   -1    0    0  503  502  0.00000000000E+00  0.00000000000E+00  0.35898853063E+02  0.35898853063E+02  0.00000000000E+00 0. -1.
         21   -1    0    0  501  503 -0.00000000000E+00 -0.00000000000E+00 -0.13217645585E+01  0.13217645585E+01  0.00000000000E+00 0. -1.
          5    1    1    2  501    0  0.36017897244E+01 -0.34665563232E+01  0.15645323740E+02  0.17083795155E+02  0.47000000000E+01 0.  1.
         -5    1    1    2    0  502 -0.36017897244E+01  0.34665563232E+01  0.18931764764E+02  0.20136822466E+02  0.47000000000E+01 0.  1.
<mgrwt>
<rscale>  2 0.68614796E+01</rscale>
<asrwt>0</asrwt>
<pdfrwt beam="1">  1       21 0.55228997E-02 0.68614796E+01</pdfrwt>
<pdfrwt beam="2">  1       21 0.20334842E-03 0.68614796E+01</pdfrwt>
<totfact> 0.27125374E+09</totfact>
</mgrwt>
</event>
<event>
 4    1  0.3999109E+006  0.5427907E+01  0.7546771E-02  0.2496417E+00
         21   -1    0    0  503  502  0.00000000000E+00  0.00000000000E+00  0.61113629646E+02  0.61113629646E+02  0.00000000000E+00 0.  1.
         21   -1    0    0  501  503 -0.00000000000E+00 -0.00000000000E+00 -0.21909183320E+01  0.21909183320E+01  0.00000000000E+00 0.  1.
          5    1    1    2  501    0 -0.79271938674E+00 -0.25968768113E+01  0.15075307580E+01  0.56333668606E+01  0.47000000000E+01 0.  1.
         -5    1    1    2    0  502  0.79271938674E+00  0.25968768113E+01  0.57415180556E+02  0.57671181117E+02  0.47000000000E+01 0.  1.
<mgrwt>
<rscale>  2 0.54279069E+01</rscale>
<asrwt>0</asrwt>
<pdfrwt beam="1">  1       21 0.94020956E-02 0.54279069E+01</pdfrwt>
<pdfrwt beam="2">  1       21 0.33706441E-03 0.54279069E+01</pdfrwt>
<totfact> 0.50422143E+08</totfact>
</mgrwt>
</event>
<event>
 4    1  0.3999109E+006  0.7334497E+01  0.7546771E-02  0.2268537E+00
         21   -1    0    0  501  502  0.00000000000E+00  0.00000000000E+00  0.12159733948E+01  0.12159733948E+01  0.00000000000E+00 0.  1.
         21   -1    0    0  502  503 -0.00000000000E+00 -0.00000000000E+00 -0.44511997734E+02  0.44511997734E+02  0.00000000000E+00 0.  1.
          5    1    1    2  501    0  0.40082249191E+01 -0.39546156905E+01 -0.19861229492E+02  0.21172229198E+02  0.47000000000E+01 0.  1.
         -5    1    1    2    0  503 -0.40082249191E+01  0.39546156905E+01 -0.23434794847E+02  0.24555741931E+02  0.47000000000E+01 0.  1.
<mgrwt>
<rscale>  2 0.73344974E+01</rscale>
<asrwt>0</asrwt>
<pdfrwt beam="1">  1       21 0.18707283E-03 0.73344974E+01</pdfrwt>
<pdfrwt beam="2">  1       21 0.68479996E-02 0.73344974E+01</pdfrwt>
<totfact> 0.23113883E+09</totfact>
</mgrwt>
</event>
<event>
 4    1  0.3999109E+006  0.2046516E+02  0.7546771E-02  0.1736233E+00
         21   -1    0    0  503  502  0.00000000000E+00  0.00000000000E+00  0.19989592258E+03  0.19989592258E+03  0.00000000000E+00 0.  1.
         21   -1    0    0  501  503 -0.00000000000E+00 -0.00000000000E+00 -0.73830947660E+01  0.73830947660E+01  0.00000000000E+00 0. -1.
          5    1    1    2  501    0  0.12241862011E+02 -0.15712080533E+02  0.85467640445E+01  0.22178138691E+02  0.47000000000E+01 0. -1.
         -5    1    1    2    0  502 -0.12241862011E+02  0.15712080533E+02  0.18396606377E+03  0.18510087865E+03  0.47000000000E+01 0.  1.
<mgrwt>
<rscale>  2 0.20465157E+02</rscale>
<asrwt>0</asrwt>
<pdfrwt beam="1">  1       21 0.30753215E-01 0.20465157E+02</pdfrwt>
<pdfrwt beam="2">  1       21 0.11358609E-02 0.20465157E+02</pdfrwt>
<totfact> 0.23012132E+07</totfact>
</mgrwt>
</event>
<event>
 4    1  0.3999109E+006  0.5519091E+01  0.7546771E-02  0.2482560E+00
         21   -1    0    0  503  502  0.00000000000E+00  0.00000000000E+00  0.10476712637E+00  0.10476712637E+00  0.00000000000E+00 0. -1.
         21   -1    0    0  501  503 -0.00000000000E+00 -0.00000000000E+00 -0.45535513200E+03  0.45535513200E+03  0.00000000000E+00 0. -1.
          5    1    1    2  501    0  0.26936645334E+01  0.10557166520E+01 -0.36454781049E+03  0.36458958638E+03  0.47000000000E+01 0. -1.
         -5    1    1    2    0  502 -0.26936645334E+01 -0.10557166520E+01 -0.90702554391E+02  0.90870312750E+02  0.47000000000E+01 0. -1.
<mgrwt>
<rscale>  2 0.55190911E+01</rscale>
<asrwt>0</asrwt>
<pdfrwt beam="1">  1       21 0.16118061E-04 0.55190911E+01</pdfrwt>
<pdfrwt beam="2">  1       21 0.70054454E-01 0.55190911E+01</pdfrwt>
<totfact> 0.10601378E+09</totfact>
</mgrwt>
</event>
<event>
 4    1  0.3999109E+006  0.6745135E+01  0.7546771E-02  0.2327481E+00
         21   -1    0    0  501  502  0.00000000000E+00  0.00000000000E+00  0.33896784741E+00  0.33896784741E+00  0.00000000000E+00 0. -1.
         21   -1    0    0  502  503 -0.00000000000E+00 -0.00000000000E+00 -0.16152807498E+03  0.16152807498E+03  0.00000000000E+00 0.  1.
          5    1    1    2  501    0  0.35576442875E+01 -0.32787203226E+01 -0.47318142993E+02  0.47796479955E+02  0.47000000000E+01 0.  1.
         -5    1    1    2    0  503 -0.35576442875E+01  0.32787203226E+01 -0.11387096414E+03  0.11407056287E+03  0.47000000000E+01 0. -1.
<mgrwt>
<rscale>  2 0.67451345E+01</rscale>
<asrwt>0</asrwt>
<pdfrwt beam="1">  1       21 0.52148807E-04 0.67451345E+01</pdfrwt>
<pdfrwt beam="2">  1       21 0.24850517E-01 0.67451345E+01</pdfrwt>
<totfact> 0.15952249E+09</totfact>
</mgrwt>
</event>
<event>
 4    1  0.3999109E+006  0.6453667E+01  0.7546771E-02  0.2359870E+00
         21   -1    0    0  503  502  0.00000000000E+00  0.00000000000E+00  0.19989270049E+03  0.19989270049E+03  0.00000000000E+00 0.  1.
         21   -1    0    0  501  503 -0.00000000000E+00 -0.00000000000E+00 -0.22595622403E+00  0.22595622403E+00  0.00000000000E+00 0. -1.
          5    1    1    2  501    0 -0.34273188697E+00 -0.44093483033E+01  0.12775523535E+03  0.12791813780E+03  0.47000000000E+01 0.  1.
         -5    1    1    2    0  502  0.34273188697E+00  0.44093483033E+01  0.71911508912E+02  0.72200518915E+02  0.47000000000E+01 0. -1.
<mgrwt>
<rscale>  2 0.64536670E+01</rscale>
<asrwt>0</asrwt>
<pdfrwt beam="1">  1       21 0.30752582E-01 0.64536670E+01</pdfrwt>
<pdfrwt beam="2">  1       21 0.34762656E-04 0.64536670E+01</pdfrwt>
<totfact> 0.18602247E+09</totfact>
</mgrwt>
</event>
<event>
 4    1  0.3999109E+006  0.6346723E+01  0.7546771E-02  0.2372369E+00
         21   -1    0    0  501  502  0.00000000000E+00  0.00000000000E+00  0.30805719759E+03  0.30805719759E+03  0.00000000000E+00 0.  1.
         21   -1    0    0  502  503 -0.00000000000E+00 -0.00000000000E+00 -0.13087308729E+00  0.13087308729E+00  0.00000000000E+00 0. -1.
          5    1    1    2  501    0  0.29872970446E+01 -0.30441663242E+01  0.14939033016E+03  0.14952508699E+03  0.47000000000E+01 0. -1.
         -5    1    1    2    0  503 -0.29872970446E+01  0.30441663242E+01  0.15853599434E+03  0.15866298369E+03  0.47000000000E+01 0.  1.
<mgrwt>
<rscale>  2 0.63467230E+01</rscale>
<asrwt>0</asrwt>
<pdfrwt beam="1">  1       21 0.47392835E-01 0.63467230E+01</pdfrwt>
<pdfrwt beam="2">  1       21 0.20134568E-04 0.63467230E+01</pdfrwt>
<totfact> 0.17946331E+09</totfact>
</mgrwt>
</event>
<event>
 4    1  0.3999109E+006  0.4859875E+01  0.7546771E-02  0.2592629E+00
         21   -1    0    0  501  502  0.00000000000E+00  0.00000000000E+00  0.11442489573E+03  0.11442489573E+03  0.00000000000E+00 0. -1.
         21   -1    0    0  502  503 -0.00000000000E+00 -0.00000000000E+00 -0.24442713601E+00  0.24442713601E+00  0.00000000000E+00 0. -1.
          5    1    1    2  501    0 -0.57463651100E+00 -0.10946116859E+01  0.79702041777E+02  0.79850071041E+02  0.47000000000E+01 0. -1.
         -5    1    1    2    0  503  0.57463651100E+00  0.10946116859E+01  0.34478426814E+02  0.34819251822E+02  0.47000000000E+01 0. -1.
<mgrwt>
<rscale>  2 0.48598747E+01</rscale>
<asrwt>0</asrwt>
<pdfrwt beam="1">  1       21 0.17603787E-01 0.48598747E+01</pdfrwt>
<pdfrwt beam="2">  1       21 0.37604266E-04 0.48598747E+01</pdfrwt>
<totfact> 0.32590895E+09</totfact>
</mgrwt>
</event>
<event>
 4    1  0.3999109E+006  0.4888845E+01  0.7546771E-02  0.2587258E+00
         21   -1    0    0  501  502  0.00000000000E+00  0.00000000000E+00  0.67376784870E+01  0.67376784870E+01  0.00000000000E+00 0. -1.
         21   -1    0    0  502  503 -0.00000000000E+00 -0.00000000000E+00 -0.91052990596E+01  0.91052990596E+01  0.00000000000E+00 0. -1.
          5    1    1    2  501    0  0.13265260520E+01  0.22612749196E+00  0.50051480278E+01  0.69965928701E+01  0.47000000000E+01 0. -1.
         -5    1    1    2    0  503 -0.13265260520E+01 -0.22612749196E+00 -0.73727686004E+01  0.88463846765E+01  0.47000000000E+01 0. -1.
<mgrwt>
<rscale>  2 0.48888450E+01</rscale>
<asrwt>0</asrwt>
<pdfrwt beam="1">  1       21 0.10365659E-02 0.48888450E+01</pdfrwt>
<pdfrwt beam="2">  1       21 0.14008152E-02 0.48888450E+01</pdfrwt>
<totfact> 0.15391078E+09</totfact>
</mgrwt>
</event>
<event>
 4    1  0.3999109E+006  0.2092824E+02  0.7546771E-02  0.1727475E+00
         21   -1    0    0  503  502  0.00000000000E+00  0.00000000000E+00  0.78244573233E+01  0.78244573233E+01  0.00000000000E+00 0.  1.
         21   -1    0    0  501  503 -0.00000000000E+00 -0.00000000000E+00 -0.71493632410E+02  0.71493632410E+02  0.00000000000E+00 0. -1.
          5    1    1    2  501    0  0.17621623615E+02  0.10265447306E+02 -0.50310454976E+02  0.54489750478E+02  0.47000000000E+01 0. -1.
         -5    1    1    2    0  502 -0.17621623615E+02 -0.10265447306E+02 -0.13358720111E+02  0.24828339256E+02  0.47000000000E+01 0.  1.
<mgrwt>
<rscale>  2 0.20928235E+02</rscale>
<asrwt>0</asrwt>
<pdfrwt beam="1">  1       21 0.12037627E-02 0.20928235E+02</pdfrwt>
<pdfrwt beam="2">  1       21 0.10999020E-01 0.20928235E+02</pdfrwt>
<totfact> 0.12536113E+08</totfact>
</mgrwt>
</event>
<event>
 4    1  0.3999109E+006  0.7968261E+01  0.7546771E-02  0.2213198E+00
         21   -1    0    0  503  502  0.00000000000E+00  0.00000000000E+00  0.80139774155E+01  0.80139774155E+01  0.00000000000E+00 0.  1.
         21   -1    0    0  501  503 -0.00000000000E+00 -0.00000000000E+00 -0.15342093793E+02  0.15342093793E+02  0.00000000000E+00 0.  1.
          5    1    1    2  501    0 -0.61931233050E+01  0.17459669310E+01 -0.11785041711E+02  0.14226046004E+02  0.47000000000E+01 0.  1.
         -5    1    1    2    0  502  0.61931233050E+01 -0.17459669310E+01  0.44569253335E+01  0.91300252039E+01  0.47000000000E+01 0.  1.
<mgrwt>
<rscale>  2 0.79682606E+01</rscale>
<asrwt>0</asrwt>
<pdfrwt beam="1">  1       21 0.12329196E-02 0.79682606E+01</pdfrwt>
<pdfrwt beam="2">  1       21 0.23603221E-02 0.79682606E+01</pdfrwt>
<totfact> 0.84806966E+08</totfact>
</mgrwt>
</event>
<event>
 4    1  0.3999109E+006  0.5777743E+01  0.7546771E-02  0.2445280E+00
         21   -1    0    0  503  502  0.00000000000E+00  0.00000000000E+00  0.11515757294E+01  0.11515757294E+01  0.00000000000E+00 0.  1.
         21   -1    0    0  501  503 -0.00000000000E+00 -0.00000000000E+00 -0.11644899068E+03  0.11644899068E+03  0.00000000000E+00 0. -1.
          5    1    1    2  501    0 -0.22195541781E+01 -0.25230722142E+01 -0.10860734499E+03  0.10876091991E+03  0.47000000000E+01 0. -1.
         -5    1    1    2    0  502  0.22195541781E+01  0.25230722142E+01 -0.66900699634E+01  0.88396465010E+01  0.47000000000E+01 0.  1.
<mgrwt>
<rscale>  2 0.57777430E+01</rscale>
<asrwt>0</asrwt>
<pdfrwt beam="1">  1       21 0.17716554E-03 0.57777430E+01</pdfrwt>
<pdfrwt beam="2">  1       21 0.17915225E-01 0.57777430E+01</pdfrwt>
<totfact> 0.46637993E+08</totfact>
</mgrwt>
</event>
<event>
 4    1  0.3999109E+006  0.6007535E+01  0.7546771E-02  0.2414444E+00
         21   -1    0    0  503  502  0.00000000000E+00  0.00000000000E+00  0.13921137015E+02  0.13921137015E+02  0.00000000000E+00 0. -1.
         21   -1    0    0  501  503 -0.00000000000E+00 -0.00000000000E+00 -0.26242852988E+01  0.26242852988E+01  0.00000000000E+00 0. -1.
          5    1    1    2  501    0 -0.12703818974E+01  0.35194604949E+01  0.65589521080E+01  0.88943985235E+01  0.47000000000E+01 0. -1.
         -5    1    1    2    0  502  0.12703818974E+01 -0.35194604949E+01  0.47378996078E+01  0.76510237899E+01  0.47000000000E+01 0. -1.
<mgrwt>
<rscale>  2 0.60075346E+01</rscale>
<asrwt>0</asrwt>
<pdfrwt beam="1">  1       21 0.21417133E-02 0.60075346E+01</pdfrwt>
<pdfrwt beam="2">  1       21 0.40373621E-03 0.60075346E+01</pdfrwt>
<totfact> 0.37898945E+09</totfact>
</mgrwt>
</event>
<event>
 4    1  0.3999109E+006  0.5267749E+01  0.7546771E-02  0.2521740E+00
         21   -1    0    0  503  502  0.00000000000E+00  0.00000000000E+00  0.38000546803E+03  0.38000546803E+03  0.00000000000E+00 0. -1.
         21   -1    0    0  501  503 -0.00000000000E+00 -0.00000000000E+00 -0.78681566248E-01  0.78681566248E-01  0.00000000000E+00 0.  1.
          5    1    1    2  501    0 -0.11328104766E+00  0.23762033562E+01  0.13899946884E+03  0.13909925058E+03  0.47000000000E+01 0. -1.
         -5    1    1    2    0  502  0.11328104766E+00 -0.23762033562E+01  0.24092731762E+03  0.24098489901E+03  0.47000000000E+01 0. -1.
<mgrwt>
<rscale>  2 0.52677486E+01</rscale>
<asrwt>0</asrwt>
<pdfrwt beam="1">  1       21 0.58460910E-01 0.52677486E+01</pdfrwt>
<pdfrwt beam="2">  1       21 0.12105161E-04 0.52677486E+01</pdfrwt>
<totfact> 0.20903410E+09</totfact>
</mgrwt>
</event>
<event>
 4    1  0.3999109E+006  0.5690212E+01  0.7546771E-02  0.2457576E+00
         21   -1    0    0  501  502  0.00000000000E+00  0.00000000000E+00  0.20393322314E-01  0.20393322314E-01  0.00000000000E+00 0.  1.
         21   -1    0    0  502  503 -0.00000000000E+00 -0.00000000000E+00 -0.19185304070E+04  0.19185304070E+04  0.00000000000E+00 0. -1.
          5    1    1    2  501    0 -0.28070272947E+01 -0.15521299109E+01 -0.56090882859E+03  0.56093769039E+03  0.47000000000E+01 0.  1.
         -5    1    1    2    0  503  0.28070272947E+01  0.15521299109E+01 -0.13576011851E+04  0.13576131100E+04  0.47000000000E+01 0. -1.
<mgrwt>
<rscale>  2 0.56902117E+01</rscale>
<asrwt>0</asrwt>
<pdfrwt beam="1">  1       21 0.31373432E-05 0.56902117E+01</pdfrwt>
<pdfrwt beam="2">  1       21 0.29516708E+00 0.56902117E+01</pdfrwt>
<totfact> 0.45047809E+08</totfact>
</mgrwt>
</event>
<event>
 4    1  0.3999109E+006  0.4789524E+01  0.7546771E-02  0.2605903E+00
         21   -1    0    0  501  502  0.00000000000E+00  0.00000000000E+00  0.27292970018E+02  0.27292970018E+02  0.00000000000E+00 0.  1.
         21   -1    0    0  502  503 -0.00000000000E+00 -0.00000000000E+00 -0.90032644450E+00  0.90032644450E+00  0.00000000000E+00 0.  1.
          5    1    1    2  501    0 -0.40414169338E+00  0.82837557095E+00  0.16830361570E+02  0.17498588719E+02  0.47000000000E+01 0. -1.
         -5    1    1    2    0  503  0.40414169338E+00 -0.82837557095E+00  0.95622820034E+01  0.10694707743E+02  0.47000000000E+01 0. -1.
<mgrwt>
<rscale>  2 0.47895236E+01</rscale>
<asrwt>0</asrwt>
<pdfrwt beam="1">  1       21 0.41989178E-02 0.47895236E+01</pdfrwt>
<pdfrwt beam="2">  1       21 0.13851178E-03 0.47895236E+01</pdfrwt>
<totfact> 0.48983753E+09</totfact>
</mgrwt>
</event>
<event>
 4    1  0.3999109E+006  0.4914295E+01  0.7546771E-02  0.2582586E+00
         21   -1    0    0  503  502  0.00000000000E+00  0.00000000000E+00  0.12293414009E+03  0.12293414009E+03  0.00000000000E+00 0. -1.
         21   -1    0    0  501  503 -0.00000000000E+00 -0.00000000000E+00 -0.21850935054E+00  0.21850935054E+00  0.00000000000E+00 0. -1.
          5    1    1    2  501    0 -0.65743001743E+00 -0.12759638794E+01  0.80923012208E+02  0.81072092627E+02  0.47000000000E+01 0. -1.
         -5    1    1    2    0  502  0.65743001743E+00  0.12759638794E+01  0.41792618528E+02  0.42080556811E+02  0.47000000000E+01 0. -1.
<mgrwt>
<rscale>  2 0.49142953E+01</rscale>
<asrwt>0</asrwt>
<pdfrwt beam="1">  1       21 0.18912889E-01 0.49142953E+01</pdfrwt>
<pdfrwt beam="2">  1       21 0.33616921E-04 0.49142953E+01</pdfrwt>
<totfact> 0.34135520E+09</totfact>
</mgrwt>
</event>
<event>
 4    1  0.3999109E+006  0.7682936E+01  0.7546771E-02  0.2237196E+00
         21   -1    0    0  501  502  0.00000000000E+00  0.00000000000E+00  0.64619825423E+01  0.64619825423E+01  0.00000000000E+00 0. -1.
         21   -1    0    0  502  503 -0.00000000000E+00 -0.00000000000E+00 -0.10965447772E+02  0.10965447772E+02  0.00000000000E+00 0.  1.
          5    1    1    2  501    0 -0.53254699444E+01 -0.29286294853E+01  0.13088296507E+01  0.77936214846E+01  0.47000000000E+01 0. -1.
         -5    1    1    2    0  503  0.53254699444E+01  0.29286294853E+01 -0.58122948804E+01  0.96338088298E+01  0.47000000000E+01 0.  1.
<mgrwt>
<rscale>  2 0.76829357E+01</rscale>
<asrwt>0</asrwt>
<pdfrwt beam="1">  1       21 0.99415116E-03 0.76829357E+01</pdfrwt>
<pdfrwt beam="2">  1       21 0.16869920E-02 0.76829357E+01</pdfrwt>
<totfact> 0.18387536E+09</totfact>
</mgrwt>
</event>
<event>
 4    1  0.3999109E+006  0.7682558E+01  0.7546771E-02  0.2237229E+00
         21   -1    0    0  501  502  0.00000000000E+00  0.00000000000E+00  0.73406016739E+00  0.73406016739E+00  0.00000000000E+00 0. -1.
         21   -1    0    0  502  503 -0.00000000000E+00 -0.00000000000E+00 -0.13562659319E+03  0.13562659319E+03  0.00000000000E+00 0.  1.
          5    1    1    2  501    0 -0.52040518810E+01  0.31383988127E+01 -0.23940854568E+02  0.25143313634E+02  0.47000000000E+01 0. -1.
         -5    1    1    2    0  503  0.52040518810E+01 -0.31383988127E+01 -0.11095167845E+03  0.11121733972E+03  0.47000000000E+01 0.  1.
<mgrwt>
<rscale>  2 0.76825584E+01</rscale>
<asrwt>0</asrwt>
<pdfrwt beam="1">  1       21 0.11293242E-03 0.76825584E+01</pdfrwt>
<pdfrwt beam="2">  1       21 0.20865613E-01 0.76825584E+01</pdfrwt>
<totfact> 0.81859909E+08</totfact>
</mgrwt>
</event>
<event>
 4    1  0.3999109E+006  0.5380151E+01  0.7546771E-02  0.2503833E+00
         21   -1    0    0  503  502  0.00000000000E+00  0.00000000000E+00  0.49409101982E+01  0.49409101982E+01  0.00000000000E+00 0.  1.
         21   -1    0    0  501  503 -0.00000000000E+00 -0.00000000000E+00 -0.86398089510E+01  0.86398089510E+01  0.00000000000E+00 0.  1.
          5    1    1    2  501    0  0.22158212479E+01  0.13950476743E+01 -0.57021926340E+01  0.78397080718E+01  0.47000000000E+01 0.  1.
         -5    1    1    2    0  502 -0.22158212479E+01 -0.13950476743E+01  0.20032938811E+01  0.57410110774E+01  0.47000000000E+01 0.  1.
<mgrwt>
<rscale>  2 0.53801507E+01</rscale>
<asrwt>0</asrwt>
<pdfrwt beam="1">  1       21 0.76014004E-03 0.53801507E+01</pdfrwt>
<pdfrwt beam="2">  1       21 0.13292014E-02 0.53801507E+01</pdfrwt>
<totfact> 0.28069824E+09</totfact>
</mgrwt>
</event>
<event>
 4    1  0.3999109E+006  0.4885326E+01  0.7546771E-02  0.2587908E+00
         21   -1    0    0  503  502  0.00000000000E+00  0.00000000000E+00  0.27164735355E+03  0.27164735355E+03  0.00000000000E+00 0.  1.
         21   -1    0    0  501  503 -0.00000000000E+00 -0.00000000000E+00 -0.59269935155E+00  0.59269935155E+00  0.00000000000E+00 0.  1.
          5    1    1    2  501    0 -0.13328150360E+01  0.39414222944E-02  0.99005465459E+01  0.11040255131E+02  0.47000000000E+01 0.  1.
         -5    1    1    2    0  502  0.13328150360E+01 -0.39414222944E-02  0.26115410765E+03  0.26119979777E+03  0.47000000000E+01 0.  1.
<mgrwt>
<rscale>  2 0.48853261E+01</rscale>
<asrwt>0</asrwt>
<pdfrwt beam="1">  1       21 0.41791801E-01 0.48853261E+01</pdfrwt>
<pdfrwt beam="2">  1       21 0.91184733E-04 0.48853261E+01</pdfrwt>
<totfact> 0.24557134E+08</totfact>
</mgrwt>
</event>
<event>
 4    1  0.3999109E+006  0.5688556E+01  0.7546771E-02  0.2457811E+00
         21   -1    0    0  503  502  0.00000000000E+00  0.00000000000E+00  0.60417675719E+03  0.60417675719E+03  0.00000000000E+00 0.  1.
         21   -1    0    0  501  503 -0.00000000000E+00 -0.00000000000E+00 -0.58774389970E-01  0.58774389970E-01  0.00000000000E+00 0.  1.
          5    1    1    2  501    0 -0.33867939946E-01 -0.32044537145E+01  0.21207060451E+03  0.21214688536E+03  0.47000000000E+01 0.  1.
         -5    1    1    2    0  502  0.33867939946E-01  0.32044537145E+01  0.39204737829E+03  0.39208864622E+03  0.47000000000E+01 0.  1.
<mgrwt>
<rscale>  2 0.56885561E+01</rscale>
<asrwt>0</asrwt>
<pdfrwt beam="1">  1       21 0.92945297E-01 0.56885561E+01</pdfrwt>
<pdfrwt beam="2">  1       21 0.90426977E-05 0.56885561E+01</pdfrwt>
<totfact> 0.13514347E+09</totfact>
</mgrwt>
</event>
<event>
 4    1  0.3999109E+006  0.1278758E+02  0.7546771E-02  0.1944194E+00
         21   -1    0    0  503  502  0.00000000000E+00  0.00000000000E+00  0.19294272418E+02  0.19294272418E+02  0.00000000000E+00 0. -1.
         21   -1    0    0  501  503 -0.00000000000E+00 -0.00000000000E+00 -0.13023964919E+02  0.13023964919E+02  0.00000000000E+00 0.  1.
          5    1    1    2  501    0  0.70552785823E+01  0.95736750576E+01 -0.64146470194E+01  0.14306289049E+02  0.47000000000E+01 0.  1.
         -5    1    1    2    0  502 -0.70552785823E+01 -0.95736750576E+01  0.12684954518E+02  0.18011948288E+02  0.47000000000E+01 0. -1.
<mgrwt>
<rscale>  2 0.12787580E+02</rscale>
<asrwt>0</asrwt>
<pdfrwt beam="1">  1       21 0.29683496E-02 0.12787580E+02</pdfrwt>
<pdfrwt beam="2">  1       21 0.20036869E-02 0.12787580E+02</pdfrwt>
<totfact> 0.38396408E+08</totfact>
</mgrwt>
</event>
<event>
 4    1  0.3999109E+006  0.6488184E+01  0.7546771E-02  0.2355909E+00
         21   -1    0    0  503  502  0.00000000000E+00  0.00000000000E+00  0.49098266610E-01  0.49098266610E-01  0.00000000000E+00 0.  1.
         21   -1    0    0  501  503 -0.00000000000E+00 -0.00000000000E+00 -0.26986847765E+04  0.26986847765E+04  0.00000000000E+00 0. -1.
          5    1    1    2  501    0  0.41805744153E+01 -0.15903870478E+01 -0.24639080795E+04  0.24639166221E+04  0.47000000000E+01 0. -1.
         -5    1    1    2    0  502 -0.41805744153E+01  0.15903870478E+01 -0.23472759875E+03  0.23481725266E+03  0.47000000000E+01 0.  1.
<mgrwt>
<rscale>  2 0.64881841E+01</rscale>
<asrwt>0</asrwt>
<pdfrwt beam="1">  1       21 0.75558102E-05 0.64881841E+01</pdfrwt>
<pdfrwt beam="2">  1       21 0.41505970E+00 0.64881841E+01</pdfrwt>
<totfact> 0.45244618E+07</totfact>
</mgrwt>
</event>
<event>
 4    1  0.3999109E+006  0.5295863E+01  0.7546771E-02  0.2517200E+00
         21   -1    0    0  503  502  0.00000000000E+00  0.00000000000E+00  0.93412683207E+02  0.93412683207E+02  0.00000000000E+00 0. -1.
         21   -1    0    0  501  503 -0.00000000000E+00 -0.00000000000E+00 -0.30084180100E+00  0.30084180100E+00  0.00000000000E+00 0. -1.
          5    1    1    2  501    0  0.68255843928E+00  0.23431343555E+01  0.44459111707E+02  0.44773415979E+02  0.47000000000E+01 0. -1.
         -5    1    1    2    0  502 -0.68255843928E+00 -0.23431343555E+01  0.48652729698E+02  0.48940109029E+02  0.47000000000E+01 0. -1.
<mgrwt>
<rscale>  2 0.52958630E+01</rscale>
<asrwt>0</asrwt>
<pdfrwt beam="1">  1       21 0.14371159E-01 0.52958630E+01</pdfrwt>
<pdfrwt beam="2">  1       21 0.46283429E-04 0.52958630E+01</pdfrwt>
<totfact> 0.36938597E+09</totfact>
</mgrwt>
</event>
<event>
 4    1  0.3999109E+006  0.5435106E+01  0.7546771E-02  0.2495309E+00
         21   -1    0    0  501  502  0.00000000000E+00  0.00000000000E+00  0.35862108077E-01  0.35862108077E-01  0.00000000000E+00 0. -1.
         21   -1    0    0  502  503 -0.00000000000E+00 -0.00000000000E+00 -0.88303884718E+03  0.88303884718E+03  0.00000000000E+00 0. -1.
          5    1    1    2  501    0 -0.24728838601E+01 -0.11555161750E+01 -0.32706351693E+03  0.32710867380E+03  0.47000000000E+01 0.  1.
         -5    1    1    2    0  503  0.24728838601E+01  0.11555161750E+01 -0.55593946814E+03  0.55596603548E+03  0.47000000000E+01 0.  1.
<mgrwt>
<rscale>  2 0.54351055E+01</rscale>
<asrwt>0</asrwt>
<pdfrwt beam="1">  1       21 0.55166918E-05 0.54351055E+01</pdfrwt>
<pdfrwt beam="2">  1       21 0.13586581E+00 0.54351055E+01</pdfrwt>
<totfact> 0.11620767E+09</totfact>
</mgrwt>
</event>
<event>
 4    1  0.3999109E+006  0.7180023E+01  0.7546771E-02  0.2283219E+00
         21   -1    0    0  501  502  0.00000000000E+00  0.00000000000E+00  0.16166851232E+03  0.16166851232E+03  0.00000000000E+00 0. -1.
         21   -1    0    0  502  503 -0.00000000000E+00 -0.00000000000E+00 -0.33941336191E+00  0.33941336191E+00  0.00000000000E+00 0.  1.
          5    1    1    2  501    0  0.13793645732E+01 -0.52497696345E+01  0.10058871588E+03  0.10084464532E+03  0.47000000000E+01 0. -1.
         -5    1    1    2    0  503 -0.13793645732E+01  0.52497696345E+01  0.60740383074E+02  0.61163280355E+02  0.47000000000E+01 0.  1.
<mgrwt>
<rscale>  2 0.71800228E+01</rscale>
<asrwt>0</asrwt>
<pdfrwt beam="1">  1       21 0.24872017E-01 0.71800228E+01</pdfrwt>
<pdfrwt beam="2">  1       21 0.52217569E-04 0.71800228E+01</pdfrwt>
<totfact> 0.16625150E+09</totfact>
</mgrwt>
</event>
<event>
 4    1  0.3999109E+006  0.7111637E+01  0.7546771E-02  0.2289884E+00
         21   -1    0    0  501  502  0.00000000000E+00  0.00000000000E+00  0.12804744449E+02  0.12804744449E+02  0.00000000000E+00 0.  1.
         21   -1    0    0  502  503 -0.00000000000E+00 -0.00000000000E+00 -0.47019508361E+01  0.47019508361E+01  0.00000000000E+00 0.  1.
          5    1    1    2  501    0 -0.51616716138E+01 -0.13573953439E+01  0.75525065595E+01  0.10373800234E+02  0.47000000000E+01 0.  1.
         -5    1    1    2    0  503  0.51616716138E+01  0.13573953439E+01  0.55028705359E+00  0.71328950511E+01  0.47000000000E+01 0.  1.
<mgrwt>
<rscale>  2 0.71116367E+01</rscale>
<asrwt>0</asrwt>
<pdfrwt beam="1">  1       21 0.19699607E-02 0.71116367E+01</pdfrwt>
<pdfrwt beam="2">  1       21 0.72337705E-03 0.71116367E+01</pdfrwt>
<totfact> 0.21776564E+09</totfact>
</mgrwt>
</event>
<event>
 4    1  0.3999109E+006  0.8280831E+01  0.7546771E-02  0.2188450E+00
         21   -1    0    0  503  502  0.00000000000E+00  0.00000000000E+00  0.25205660565E+03  0.25205660565E+03  0.00000000000E+00 0. -1.
         21   -1    0    0  501  503 -0.00000000000E+00 -0.00000000000E+00 -0.80642060632E+00  0.80642060632E+00  0.00000000000E+00 0. -1.
          5    1    1    2  501    0 -0.58657062904E+01  0.34750038961E+01  0.22706095455E+02  0.24168966324E+02  0.47000000000E+01 0. -1.
         -5    1    1    2    0  502  0.58657062904E+01 -0.34750038961E+01  0.22854408959E+03  0.22869405993E+03  0.47000000000E+01 0. -1.
<mgrwt>
<rscale>  2 0.82808310E+01</rscale>
<asrwt>0</asrwt>
<pdfrwt beam="1">  1       21 0.38777876E-01 0.82808310E+01</pdfrwt>
<pdfrwt beam="2">  1       21 0.12406491E-03 0.82808310E+01</pdfrwt>
<totfact> 0.26064754E+08</totfact>
</mgrwt>
</event>
<event>
 4    1  0.3999109E+006  0.7883360E+01  0.7546771E-02  0.2220192E+00
         21   -1    0    0  501  502  0.00000000000E+00  0.00000000000E+00  0.12612950942E+03  0.12612950942E+03  0.00000000000E+00 0.  1.
         21   -1    0    0  502  503 -0.00000000000E+00 -0.00000000000E+00 -0.50714329223E+00  0.50714329223E+00  0.00000000000E+00 0. -1.
          5    1    1    2  501    0  0.61538209019E+01  0.14791378103E+01  0.52135458188E+02  0.52728107882E+02  0.47000000000E+01 0. -1.
         -5    1    1    2    0  503 -0.61538209019E+01 -0.14791378103E+01  0.73486907937E+02  0.73908544828E+02  0.47000000000E+01 0.  1.
<mgrwt>
<rscale>  2 0.78833597E+01</rscale>
<asrwt>0</asrwt>
<pdfrwt beam="1">  1       21 0.19404515E-01 0.78833597E+01</pdfrwt>
<pdfrwt beam="2">  1       21 0.78022145E-04 0.78833597E+01</pdfrwt>
<totfact> 0.15527159E+09</totfact>
</mgrwt>
</event>
<event>
 4    1  0.3999109E+006  0.5301271E+01  0.7546771E-02  0.2516332E+00
         21   -1    0    0  501  502  0.00000000000E+00  0.00000000000E+00  0.18909934724E+02  0.18909934724E+02  0.00000000000E+00 0. -1.
         21   -1    0    0  502  503 -0.00000000000E+00 -0.00000000000E+00 -0.16925423476E+01  0.16925423476E+01  0.00000000000E+00 0. -1.
          5    1    1    2  501    0 -0.24188164477E+01 -0.40348554608E+00  0.12205693290E+02  0.13307231954E+02  0.47000000000E+01 0. -1.
         -5    1    1    2    0  503  0.24188164477E+01  0.40348554608E+00  0.50116990870E+01  0.72952451180E+01  0.47000000000E+01 0. -1.
<mgrwt>
<rscale>  2 0.53012709E+01</rscale>
<asrwt>0</asrwt>
<pdfrwt beam="1">  1       21 0.29092206E-02 0.53012709E+01</pdfrwt>
<pdfrwt beam="2">  1       21 0.26039114E-03 0.53012709E+01</pdfrwt>
<totfact> 0.39561922E+09</totfact>
</mgrwt>
</event>
<event>
 4    1  0.3999109E+006  0.7860549E+01  0.7546771E-02  0.2222092E+00
         21   -1    0    0  501  502  0.00000000000E+00  0.00000000000E+00  0.17469743103E+02  0.17469743103E+02  0.00000000000E+00 0. -1.
         21   -1    0    0  502  503 -0.00000000000E+00 -0.00000000000E+00 -0.23024202501E+02  0.23024202501E+02  0.00000000000E+00 0.  1.
          5    1    1    2  501    0  0.62586743115E+01 -0.72610633332E+00  0.15849816149E+02  0.17691944678E+02  0.47000000000E+01 0. -1.
         -5    1    1    2    0  503 -0.62586743115E+01  0.72610633332E+00 -0.21404275547E+02  0.22802000926E+02  0.47000000000E+01 0.  1.
<mgrwt>
<rscale>  2 0.78605493E+01</rscale>
<asrwt>0</asrwt>
<pdfrwt beam="1">  1       21 0.26876528E-02 0.78605493E+01</pdfrwt>
<pdfrwt beam="2">  1       21 0.35421850E-02 0.78605493E+01</pdfrwt>
<totfact> 0.14824618E+08</totfact>
</mgrwt>
</event>
<event>
 4    1  0.3999109E+006  0.8356171E+01  0.7546771E-02  0.2182708E+00
         21   -1    0    0  501  502  0.00000000000E+00  0.00000000000E+00  0.68982583820E+01  0.68982583820E+01  0.00000000000E+00 0.  1.
         21   -1    0    0  502  503 -0.00000000000E+00 -0.00000000000E+00 -0.14563257465E+02  0.14563257465E+02  0.00000000000E+00 0. -1.
          5    1    1    2  501    0 -0.55487612070E+01 -0.41166550964E+01  0.20932594222E+01  0.86143679468E+01  0.47000000000E+01 0.  1.
         -5    1    1    2    0  503  0.55487612070E+01  0.41166550964E+01 -0.97582585048E+01  0.12847147900E+02  0.47000000000E+01 0. -1.
<mgrwt>
<rscale>  2 0.83561714E+01</rscale>
<asrwt>0</asrwt>
<pdfrwt beam="1">  1       21 0.10612705E-02 0.83561714E+01</pdfrwt>
<pdfrwt beam="2">  1       21 0.22405011E-02 0.83561714E+01</pdfrwt>
<totfact> 0.11722518E+09</totfact>
</mgrwt>
</event>
<event>
 4    1  0.3999109E+006  0.5503733E+01  0.7546771E-02  0.2484867E+00
         21   -1    0    0  503  502  0.00000000000E+00  0.00000000000E+00  0.35583574412E+01  0.35583574412E+01  0.00000000000E+00 0. -1.
         21   -1    0    0  501  503 -0.00000000000E+00 -0.00000000000E+00 -0.37765648976E+02  0.37765648976E+02  0.00000000000E+00 0.  1.
          5    1    1    2  501    0  0.90433290551E+00  0.27172155040E+01 -0.35288469301E+02  0.35715082860E+02  0.47000000000E+01 0.  1.
         -5    1    1    2    0  502 -0.90433290551E+00 -0.27172155040E+01  0.10811777667E+01  0.56089235565E+01  0.47000000000E+01 0. -1.
<mgrwt>
<rscale>  2 0.55037331E+01</rscale>
<asrwt>0</asrwt>
<pdfrwt beam="1">  1       21 0.54743962E-03 0.55037331E+01</pdfrwt>
<pdfrwt beam="2">  1       21 0.58100997E-02 0.55037331E+01</pdfrwt>
<totfact> 0.53815943E+08</totfact>
</mgrwt>
</event>
<event>
 4    1  0.3999109E+006  0.5770620E+01  0.7546771E-02  0.2446269E+00
         21   -1    0    0  501  502  0.00000000000E+00  0.00000000000E+00  0.64852098245E+01  0.64852098245E+01  0.00000000000E+00 0.  1.
         21   -1    0    0  502  503 -0.00000000000E+00 -0.00000000000E+00 -0.92155439196E+01  0.92155439196E+01  0.00000000000E+00 0.  1.
          5    1    1    2  501    0  0.31641865637E+01  0.10945230937E+01  0.38588106652E+01  0.69419361249E+01  0.47000000000E+01 0.  1.
         -5    1    1    2    0  503 -0.31641865637E+01 -0.10945230937E+01 -0.65891447603E+01  0.87588176192E+01  0.47000000000E+01 0.  1.
<mgrwt>
<rscale>  2 0.57706202E+01</rscale>
<asrwt>0</asrwt>
<pdfrwt beam="1">  1       21 0.99772460E-03 0.57706202E+01</pdfrwt>
<pdfrwt beam="2">  1       21 0.14177760E-02 0.57706202E+01</pdfrwt>
<totfact> 0.18663653E+09</totfact>
</mgrwt>
</event>
<event>
 4    1  0.3999109E+006  0.1037244E+02  0.7546771E-02  0.2054391E+00
         21   -1    0    0  503  502  0.00000000000E+00  0.00000000000E+00  0.29279056479E+01  0.29279056479E+01  0.00000000000E+00 0.  1.
         21   -1    0    0  501  503 -0.00000000000E+00 -0.00000000000E+00 -0.37204827637E+02  0.37204827637E+02  0.00000000000E+00 0. -1.
          5    1    1    2  501    0  0.44622887921E+01  0.80984877865E+01 -0.14908983248E+02  0.18162194448E+02  0.47000000000E+01 0.  1.
         -5    1    1    2    0  502 -0.44622887921E+01 -0.80984877865E+01 -0.19367938742E+02  0.21970538837E+02  0.47000000000E+01 0. -1.
<mgrwt>
<rscale>  2 0.10372441E+02</rscale>
<asrwt>0</asrwt>
<pdfrwt beam="1">  1       21 0.45044705E-03 0.10372441E+02</pdfrwt>
<pdfrwt beam="2">  1       21 0.57238193E-02 0.10372441E+02</pdfrwt>
<totfact> 0.11147315E+09</totfact>
</mgrwt>
</event>
<event>
 4    1  0.3999109E+006  0.6332524E+01  0.7546771E-02  0.2374055E+00
         21   -1    0    0  501  502  0.00000000000E+00  0.00000000000E+00  0.82436439909E+01  0.82436439909E+01  0.00000000000E+00 0.  1.
         21   -1    0    0  502  503 -0.00000000000E+00 -0.00000000000E+00 -0.53882899676E+01  0.53882899676E+01  0.00000000000E+00 0. -1.
          5    1    1    2  501    0 -0.40342681342E+01  0.13174005806E+01  0.35528672433E+01  0.72611107495E+01  0.47000000000E+01 0. -1.
         -5    1    1    2    0  503  0.40342681342E+01 -0.13174005806E+01 -0.69751321996E+00  0.63708232090E+01  0.47000000000E+01 0. -1.
<mgrwt>
<rscale>  2 0.63325243E+01</rscale>
<asrwt>0</asrwt>
<pdfrwt beam="1">  1       21 0.12682529E-02 0.63325243E+01</pdfrwt>
<pdfrwt beam="2">  1       21 0.82896769E-03 0.63325243E+01</pdfrwt>
<totfact> 0.30788411E+09</totfact>
</mgrwt>
</event>
<event>
 4    1  0.3999109E+006  0.5560387E+01  0.7546771E-02  0.2476412E+00
         21   -1    0    0  501  502  0.00000000000E+00  0.00000000000E+00  0.12256293738E+02  0.12256293738E+02  0.00000000000E+00 0.  1.
         21   -1    0    0  502  503 -0.00000000000E+00 -0.00000000000E+00 -0.26330805680E+01  0.26330805680E+01  0.00000000000E+00 0.  1.
          5    1    1    2  501    0  0.11723652528E+01  0.27301040079E+01  0.63364603756E+01  0.84302217214E+01  0.47000000000E+01 0.  1.
         -5    1    1    2    0  503 -0.11723652528E+01 -0.27301040079E+01  0.32867527942E+01  0.64591525846E+01  0.47000000000E+01 0.  1.
<mgrwt>
<rscale>  2 0.55603874E+01</rscale>
<asrwt>0</asrwt>
<pdfrwt beam="1">  1       21 0.18855836E-02 0.55603874E+01</pdfrwt>
<pdfrwt beam="2">  1       21 0.40508933E-03 0.55603874E+01</pdfrwt>
<totfact> 0.42160889E+09</totfact>
</mgrwt>
</event>
<event>
 4    1  0.3999109E+006  0.6548743E+01  0.7546771E-02  0.2349043E+00
         21   -1    0    0  503  502  0.00000000000E+00  0.00000000000E+00  0.28071568334E+02  0.28071568334E+02  0.00000000000E+00 0. -1.
         21   -1    0    0  501  503 -0.00000000000E+00 -0.00000000000E+00 -0.16665240995E+01  0.16665240995E+01  0.00000000000E+00 0. -1.
          5    1    1    2  501    0  0.39053072336E+01 -0.23547004247E+01  0.89116236888E+01  0.11059072088E+02  0.47000000000E+01 0. -1.
         -5    1    1    2    0  502 -0.39053072336E+01  0.23547004247E+01  0.17493420546E+02  0.18679020346E+02  0.47000000000E+01 0. -1.
<mgrwt>
<rscale>  2 0.65487433E+01</rscale>
<asrwt>0</asrwt>
<pdfrwt beam="1">  1       21 0.43187025E-02 0.65487433E+01</pdfrwt>
<pdfrwt beam="2">  1       21 0.25638834E-03 0.65487433E+01</pdfrwt>
<totfact> 0.27441810E+09</totfact>
</mgrwt>
</event>
<event>
 4    1  0.3999109E+006  0.5817668E+01  0.7546771E-02  0.2439776E+00
         21   -1    0    0  501  502  0.00000000000E+00  0.00000000000E+00  0.48907429885E+02  0.48907429885E+02  0.00000000000E+00 0. -1.
         21   -1    0    0  502  503 -0.00000000000E+00 -0.00000000000E+00 -0.40030174121E+01  0.40030174121E+01  0.00000000000E+00 0.  1.
          5    1    1    2  501    0 -0.22022243642E+01 -0.26278262023E+01  0.46512263595E+02  0.46874683225E+02  0.47000000000E+01 0. -1.
         -5    1    1    2    0  503  0.22022243642E+01  0.26278262023E+01 -0.16078511224E+01  0.60357640719E+01  0.47000000000E+01 0.  1.
<mgrwt>
<rscale>  2 0.58176681E+01</rscale>
<asrwt>0</asrwt>
<pdfrwt beam="1">  1       21 0.75242196E-02 0.58176681E+01</pdfrwt>
<pdfrwt beam="2">  1       21 0.61584887E-03 0.58176681E+01</pdfrwt>
<totfact> 0.32410062E+08</totfact>
</mgrwt>
</event>
<event>
 4    1  0.3999109E+006  0.5636774E+01  0.7546771E-02  0.2465240E+00
         21   -1    0    0  503  502  0.00000000000E+00  0.00000000000E+00  0.13382293255E+01  0.13382293255E+01  0.00000000000E+00 0. -1.
         21   -1    0    0  501  503 -0.00000000000E+00 -0.00000000000E+00 -0.76743441307E+02  0.76743441307E+02  0.00000000000E+00 0. -1.
          5    1    1    2  501    0  0.30689568286E+01  0.51451669016E+00 -0.70146972397E+02  0.70373084058E+02  0.47000000000E+01 0. -1.
         -5    1    1    2    0  502 -0.30689568286E+01 -0.51451669016E+00 -0.52582395845E+01  0.77085865740E+01  0.47000000000E+01 0. -1.
<mgrwt>
<rscale>  2 0.56367742E+01</rscale>
<asrwt>0</asrwt>
<pdfrwt beam="1">  1       21 0.20588143E-03 0.56367742E+01</pdfrwt>
<pdfrwt beam="2">  1       21 0.11806683E-01 0.56367742E+01</pdfrwt>
<totfact> 0.71785031E+08</totfact>
</mgrwt>
</event>
<event>
 4    1  0.3999109E+006  0.6514447E+01  0.7546771E-02  0.2352919E+00
         21   -1    0    0  503  502  0.00000000000E+00  0.00000000000E+00  0.55010324491E+02  0.55010324491E+02  0.00000000000E+00 0. -1.
         21   -1    0    0  501  503 -0.00000000000E+00 -0.00000000000E+00 -0.49429234889E+01  0.49429234889E+01  0.00000000000E+00 0. -1.
          5    1    1    2  501    0  0.41821287903E+01  0.16905098222E+01 -0.25044790390E+01  0.69792864918E+01  0.47000000000E+01 0. -1.
         -5    1    1    2    0  502 -0.41821287903E+01 -0.16905098222E+01  0.52571880041E+02  0.52973961488E+02  0.47000000000E+01 0. -1.
<mgrwt>
<rscale>  2 0.65144474E+01</rscale>
<asrwt>0</asrwt>
<pdfrwt beam="1">  1       21 0.84631264E-02 0.65144474E+01</pdfrwt>
<pdfrwt beam="2">  1       21 0.76044980E-03 0.65144474E+01</pdfrwt>
<totfact> 0.21866416E+08</totfact>
</mgrwt>
</event>
<event>
 4    1  0.3999109E+006  0.5178000E+01  0.7546771E-02  0.2536514E+00
         21   -1    0    0  503  502  0.00000000000E+00  0.00000000000E+00  0.26577696697E+02  0.26577696697E+02  0.00000000000E+00 0. -1.
         21   -1    0    0  501  503 -0.00000000000E+00 -0.00000000000E+00 -0.10088374137E+01  0.10088374137E+01  0.00000000000E+00 0.  1.
          5    1    1    2  501    0  0.78545675314E+00  0.20260158762E+01  0.12863993933E+02  0.13867012027E+02  0.47000000000E+01 0.  1.
         -5    1    1    2    0  502 -0.78545675314E+00 -0.20260158762E+01  0.12704865350E+02  0.13719522084E+02  0.47000000000E+01 0.  1.
<mgrwt>
<rscale>  2 0.51779999E+01</rscale>
<asrwt>0</asrwt>
<pdfrwt beam="1">  1       21 0.40888759E-02 0.51779999E+01</pdfrwt>
<pdfrwt beam="2">  1       21 0.15520578E-03 0.51779999E+01</pdfrwt>
<totfact> 0.47459816E+09</totfact>
</mgrwt>
</event>
<event>
 4    1  0.3999109E+006  0.5022043E+01  0.7546771E-02  0.2563258E+00
         21   -1    0    0  503  502  0.00000000000E+00  0.00000000000E+00  0.63621765830E+02  0.63621765830E+02  0.00000000000E+00 0.  1.
         21   -1    0    0  501  503 -0.00000000000E+00 -0.00000000000E+00 -0.22523214270E+01  0.22523214270E+01  0.00000000000E+00 0.  1.
          5    1    1    2  501    0 -0.15131651851E+01 -0.91719256375E+00  0.78639174806E+00  0.50832394256E+01  0.47000000000E+01 0.  1.
         -5    1    1    2    0  502  0.15131651851E+01  0.91719256375E+00  0.60583052655E+02  0.60790847832E+02  0.47000000000E+01 0.  1.
<mgrwt>
<rscale>  2 0.50220425E+01</rscale>
<asrwt>0</asrwt>
<pdfrwt beam="1">  1       21 0.97879626E-02 0.50220425E+01</pdfrwt>
<pdfrwt beam="2">  1       21 0.34651104E-03 0.50220425E+01</pdfrwt>
<totfact> 0.42755733E+08</totfact>
</mgrwt>
</event>
<event>
 4    1  0.3999109E+006  0.5506341E+01  0.7546771E-02  0.2484474E+00
         21   -1    0    0  501  502  0.00000000000E+00  0.00000000000E+00  0.25475235050E+02  0.25475235050E+02  0.00000000000E+00 0. -1.
         21   -1    0    0  502  503 -0.00000000000E+00 -0.00000000000E+00 -0.17349411635E+01  0.17349411635E+01  0.00000000000E+00 0. -1.
          5    1    1    2  501    0  0.17320227155E+01  0.22868956277E+01  0.19493869346E+02  0.20256622038E+02  0.47000000000E+01 0. -1.
         -5    1    1    2    0  503 -0.17320227155E+01 -0.22868956277E+01  0.42464245407E+01  0.69535541760E+01  0.47000000000E+01 0. -1.
<mgrwt>
<rscale>  2 0.55063413E+01</rscale>
<asrwt>0</asrwt>
<pdfrwt beam="1">  1       21 0.39192666E-02 0.55063413E+01</pdfrwt>
<pdfrwt beam="2">  1       21 0.26691404E-03 0.55063413E+01</pdfrwt>
<totfact> 0.25761123E+09</totfact>
</mgrwt>
</event>
<event>
 4    1  0.3999109E+006  0.6313921E+01  0.7546771E-02  0.2376273E+00
         21   -1    0    0  501  502  0.00000000000E+00  0.00000000000E+00  0.31604406122E+00  0.31604406122E+00  0.00000000000E+00 0. -1.
         21   -1    0    0  502  503 -0.00000000000E+00 -0.00000000000E+00 -0.15658444260E+03  0.15658444260E+03  0.00000000000E+00 0. -1.
          5    1    1    2  501    0  0.15072617778E+01  0.39374818013E+01 -0.43541978308E+02  0.43997380331E+02  0.47000000000E+01 0. -1.
         -5    1    1    2    0  503 -0.15072617778E+01 -0.39374818013E+01 -0.11272642023E+03  0.11290310633E+03  0.47000000000E+01 0. -1.
<mgrwt>
<rscale>  2 0.63139212E+01</rscale>
<asrwt>0</asrwt>
<pdfrwt beam="1">  1       21 0.48622188E-04 0.63139212E+01</pdfrwt>
<pdfrwt beam="2">  1       21 0.24089902E-01 0.63139212E+01</pdfrwt>
<totfact> 0.17561322E+09</totfact>
</mgrwt>
</event>
<event>
 4    1  0.3999109E+006  0.7228495E+01  0.7546771E-02  0.2278556E+00
         21   -1    0    0  501  502  0.00000000000E+00  0.00000000000E+00  0.37468135508E+01  0.37468135508E+01  0.00000000000E+00 0.  1.
         21   -1    0    0  502  503 -0.00000000000E+00 -0.00000000000E+00 -0.15777654342E+02  0.15777654342E+02  0.00000000000E+00 0. -1.
          5    1    1    2  501    0 -0.13936991256E+01 -0.53121322154E+01 -0.26887454819E+01  0.77123600923E+01  0.47000000000E+01 0.  1.
         -5    1    1    2    0  503  0.13936991256E+01  0.53121322154E+01 -0.93420953095E+01  0.11812107801E+02  0.47000000000E+01 0. -1.
<mgrwt>
<rscale>  2 0.72284954E+01</rscale>
<asrwt>0</asrwt>
<pdfrwt beam="1">  1       21 0.57643285E-03 0.72284954E+01</pdfrwt>
<pdfrwt beam="2">  1       21 0.24273315E-02 0.72284954E+01</pdfrwt>
<totfact> 0.22416457E+09</totfact>
</mgrwt>
</event>
<event>
 4    1  0.3999109E+006  0.5388957E+01  0.7546771E-02  0.2502457E+00
         21   -1    0    0  501  502  0.00000000000E+00  0.00000000000E+00  0.50188347401E+01  0.50188347401E+01  0.00000000000E+00 0.  1.
         21   -1    0    0  502  503 -0.00000000000E+00 -0.00000000000E+00 -0.95763257649E+01  0.95763257649E+01  0.00000000000E+00 0.  1.
          5    1    1    2  501    0 -0.21469174398E+01  0.15302302795E+01  0.23121373913E+01  0.58640292051E+01  0.47000000000E+01 0.  1.
         -5    1    1    2    0  503  0.21469174398E+01 -0.15302302795E+01 -0.68696284161E+01  0.87311312999E+01  0.47000000000E+01 0.  1.
<mgrwt>
<rscale>  2 0.53889572E+01</rscale>
<asrwt>0</asrwt>
<pdfrwt beam="1">  1       21 0.77212842E-03 0.53889572E+01</pdfrwt>
<pdfrwt beam="2">  1       21 0.14732809E-02 0.53889572E+01</pdfrwt>
<totfact> 0.23786891E+09</totfact>
</mgrwt>
</event>
<event>
 4    1  0.3999109E+006  0.4920712E+01  0.7546771E-02  0.2581414E+00
         21   -1    0    0  503  502  0.00000000000E+00  0.00000000000E+00  0.18053776740E+03  0.18053776740E+03  0.00000000000E+00 0. -1.
         21   -1    0    0  501  503 -0.00000000000E+00 -0.00000000000E+00 -0.32570228032E+00  0.32570228032E+00  0.00000000000E+00 0. -1.
          5    1    1    2  501    0 -0.11383955034E+01  0.90965099016E+00  0.20749061811E+02  0.21324562722E+02  0.47000000000E+01 0. -1.
         -5    1    1    2    0  502  0.11383955034E+01 -0.90965099016E+00  0.15946300331E+03  0.15953890696E+03  0.47000000000E+01 0. -1.
<mgrwt>
<rscale>  2 0.49207123E+01</rscale>
<asrwt>0</asrwt>
<pdfrwt beam="1">  1       21 0.27774961E-01 0.49207123E+01</pdfrwt>
<pdfrwt beam="2">  1       21 0.50108187E-04 0.49207123E+01</pdfrwt>
<totfact> 0.10853616E+09</totfact>
</mgrwt>
</event>
<event>
 4    1  0.3999109E+006  0.6268574E+01  0.7546771E-02  0.2381726E+00
         21   -1    0    0  501  502  0.00000000000E+00  0.00000000000E+00  0.85456738897E-01  0.85456738897E-01  0.00000000000E+00 0. -1.
         21   -1    0    0  502  503 -0.00000000000E+00 -0.00000000000E+00 -0.46233429068E+03  0.46233429068E+03  0.00000000000E+00 0.  1.
          5    1    1    2  501    0 -0.39677370341E+01  0.12091670881E+01 -0.24816278799E+03  0.24824194723E+03  0.47000000000E+01 0.  1.
         -5    1    1    2    0  503  0.39677370341E+01 -0.12091670881E+01 -0.21408604595E+03  0.21417780019E+03  0.47000000000E+01 0. -1.
<mgrwt>
<rscale>  2 0.62685742E+01</rscale>
<asrwt>0</asrwt>
<pdfrwt beam="1">  1       21 0.13147169E-04 0.62685742E+01</pdfrwt>
<pdfrwt beam="2">  1       21 0.71128470E-01 0.62685742E+01</pdfrwt>
<totfact> 0.14817418E+09</totfact>
</mgrwt>
</event>
<event>
 4    1  0.3999109E+006  0.5877050E+01  0.7546771E-02  0.2431706E+00
         21   -1    0    0  501  502  0.00000000000E+00  0.00000000000E+00  0.21450508446E-01  0.21450508446E-01  0.00000000000E+00 0. -1.
         21   -1    0    0  502  503 -0.00000000000E+00 -0.00000000000E+00 -0.25663617603E+04  0.25663617603E+04  0.00000000000E+00 0. -1.
          5    1    1    2  501    0  0.20932754493E+01  0.28404084633E+01 -0.49992619514E+03  0.49996073877E+03  0.47000000000E+01 0. -1.
         -5    1    1    2    0  503 -0.20932754493E+01 -0.28404084633E+01 -0.20664141147E+04  0.20664224721E+04  0.47000000000E+01 0. -1.
<mgrwt>
<rscale>  2 0.58770505E+01</rscale>
<asrwt>0</asrwt>
<pdfrwt beam="1">  1       21 0.32991637E-05 0.58770505E+01</pdfrwt>
<pdfrwt beam="2">  1       21 0.39493433E+00 0.58770505E+01</pdfrwt>
<totfact> 0.16940238E+08</totfact>
</mgrwt>
</event>
<event>
 4    1  0.3999109E+006  0.5361874E+01  0.7546771E-02  0.2506701E+00
         21   -1    0    0  503  502  0.00000000000E+00  0.00000000000E+00  0.16594169090E+00  0.16594169090E+00  0.00000000000E+00 0. -1.
         21   -1    0    0  501  503 -0.00000000000E+00 -0.00000000000E+00 -0.17368038391E+03  0.17368038391E+03  0.00000000000E+00 0. -1.
          5    1    1    2  501    0  0.17898718917E+01  0.18590452471E+01 -0.82439083740E+02  0.82613269022E+02  0.47000000000E+01 0. -1.
         -5    1    1    2    0  502 -0.17898718917E+01 -0.18590452471E+01 -0.91075358475E+02  0.91233056574E+02  0.47000000000E+01 0. -1.
<mgrwt>
<rscale>  2 0.53618738E+01</rscale>
<asrwt>0</asrwt>
<pdfrwt beam="1">  1       21 0.25529286E-04 0.53618738E+01</pdfrwt>
<pdfrwt beam="2">  1       21 0.26720274E-01 0.53618738E+01</pdfrwt>
<totfact> 0.30552753E+09</totfact>
</mgrwt>
</event>
<event>
 4    1  0.3999109E+006  0.5599999E+01  0.7546771E-02  0.2470586E+00
         21   -1    0    0  503  502  0.00000000000E+00  0.00000000000E+00  0.12916924082E+03  0.12916924082E+03  0.00000000000E+00 0.  1.
         21   -1    0    0  501  503 -0.00000000000E+00 -0.00000000000E+00 -0.28737938385E+00  0.28737938385E+00  0.00000000000E+00 0. -1.
          5    1    1    2  501    0 -0.79846035090E+00 -0.29381030033E+01  0.38942095479E+02  0.39342684053E+02  0.47000000000E+01 0. -1.
         -5    1    1    2    0  502  0.79846035090E+00  0.29381030033E+01  0.89939765955E+02  0.90113936149E+02  0.47000000000E+01 0.  1.
<mgrwt>
<rscale>  2 0.55999989E+01</rscale>
<asrwt>0</asrwt>
<pdfrwt beam="1">  1       21 0.19872144E-01 0.55999989E+01</pdfrwt>
<pdfrwt beam="2">  1       21 0.44212316E-04 0.55999989E+01</pdfrwt>
<totfact> 0.24739927E+09</totfact>
</mgrwt>
</event>
<event>
 4    1  0.3999109E+006  0.5511187E+01  0.7546771E-02  0.2483746E+00
         21   -1    0    0  503  502  0.00000000000E+00  0.00000000000E+00  0.63378329139E+01  0.63378329139E+01  0.00000000000E+00 0. -1.
         21   -1    0    0  501  503 -0.00000000000E+00 -0.00000000000E+00 -0.11498766088E+02  0.11498766088E+02  0.00000000000E+00 0. -1.
          5    1    1    2  501    0 -0.26242498995E+01 -0.11817355856E+01 -0.93913164681E+01  0.10888985790E+02  0.47000000000E+01 0. -1.
         -5    1    1    2    0  502  0.26242498995E+01  0.11817355856E+01  0.42303832939E+01  0.69476132120E+01  0.47000000000E+01 0. -1.
<mgrwt>
<rscale>  2 0.55111874E+01</rscale>
<asrwt>0</asrwt>
<pdfrwt beam="1">  1       21 0.97505122E-03 0.55111874E+01</pdfrwt>
<pdfrwt beam="2">  1       21 0.17690409E-02 0.55111874E+01</pdfrwt>
<totfact> 0.13516950E+09</totfact>
</mgrwt>
</event>
<event>
 4    1  0.3999109E+006  0.5615142E+01  0.7546771E-02  0.2468377E+00
         21   -1    0    0  501  502  0.00000000000E+00  0.00000000000E+00  0.32818781835E+03  0.32818781835E+03  0.00000000000E+00 0. -1.
         21   -1    0    0  502  503 -0.00000000000E+00 -0.00000000000E+00 -0.10105857598E+00  0.10105857598E+00  0.00000000000E+00 0. -1.
          5    1    1    2  501    0  0.42306531409E+00 -0.30431618606E+01  0.12758311644E+03  0.12770662245E+03  0.47000000000E+01 0. -1.
         -5    1    1    2    0  503 -0.42306531409E+00  0.30431618606E+01  0.20050364333E+03  0.20058225447E+03  0.47000000000E+01 0. -1.
<mgrwt>
<rscale>  2 0.56151419E+01</rscale>
<asrwt>0</asrwt>
<pdfrwt beam="1">  1       21 0.50489580E-01 0.56151419E+01</pdfrwt>
<pdfrwt beam="2">  1       21 0.15547736E-04 0.56151419E+01</pdfrwt>
<totfact> 0.20596520E+09</totfact>
</mgrwt>
</event>
<event>
 4    1  0.3999109E+006  0.5954328E+01  0.7546771E-02  0.2421406E+00
         21   -1    0    0  501  502  0.00000000000E+00  0.00000000000E+00  0.94011386872E+00  0.94011386872E+00  0.00000000000E+00 0. -1.
         21   -1    0    0  502  503 -0.00000000000E+00 -0.00000000000E+00 -0.70664660386E+02  0.70664660386E+02  0.00000000000E+00 0. -1.
          5    1    1    2  501    0 -0.20970137754E+01 -0.29944201819E+01 -0.10413730985E+02  0.11995824775E+02  0.47000000000E+01 0. -1.
         -5    1    1    2    0  503  0.20970137754E+01  0.29944201819E+01 -0.59310815532E+02  0.59608949480E+02  0.47000000000E+01 0. -1.
<mgrwt>
<rscale>  2 0.59543278E+01</rscale>
<asrwt>0</asrwt>
<pdfrwt beam="1">  1       21 0.14463290E-03 0.59543278E+01</pdfrwt>
<pdfrwt beam="2">  1       21 0.10871486E-01 0.59543278E+01</pdfrwt>
<totfact> 0.13743333E+09</totfact>
</mgrwt>
</event>
<event>
 4    1  0.3999109E+006  0.6515081E+01  0.7546771E-02  0.2352847E+00
         21   -1    0    0  503  502  0.00000000000E+00  0.00000000000E+00  0.13800031502E+02  0.13800031502E+02  0.00000000000E+00 0. -1.
         21   -1    0    0  501  503 -0.00000000000E+00 -0.00000000000E+00 -0.31480479668E+01  0.31480479668E+01  0.00000000000E+00 0.  1.
          5    1    1    2  501    0  0.30007975557E+01 -0.33691982136E+01  0.40423291030E+01  0.76672489949E+01  0.47000000000E+01 0.  1.
         -5    1    1    2    0  502 -0.30007975557E+01  0.33691982136E+01  0.66096544324E+01  0.92808304741E+01  0.47000000000E+01 0. -1.
<mgrwt>
<rscale>  2 0.65150812E+01</rscale>
<asrwt>0</asrwt>
<pdfrwt beam="1">  1       21 0.21230817E-02 0.65150812E+01</pdfrwt>
<pdfrwt beam="2">  1       21 0.48431508E-03 0.65150812E+01</pdfrwt>
<totfact> 0.32005062E+09</totfact>
</mgrwt>
</event>
<event>
 4    1  0.3999109E+006  0.6349101E+01  0.7546771E-02  0.2372088E+00
         21   -1    0    0  503  502  0.00000000000E+00  0.00000000000E+00  0.20592596332E+02  0.20592596332E+02  0.00000000000E+00 0. -1.
         21   -1    0    0  501  503 -0.00000000000E+00 -0.00000000000E+00 -0.22110776831E+01  0.22110776831E+01  0.00000000000E+00 0.  1.
          5    1    1    2  501    0  0.40001513718E+01  0.14899239269E+01  0.53299037867E+01  0.82896899026E+01  0.47000000000E+01 0.  1.
         -5    1    1    2    0  502 -0.40001513718E+01 -0.14899239269E+01  0.13051614862E+02  0.14513984112E+02  0.47000000000E+01 0.  1.
<mgrwt>
<rscale>  2 0.63491011E+01</rscale>
<asrwt>0</asrwt>
<pdfrwt beam="1">  1       21 0.31680916E-02 0.63491011E+01</pdfrwt>
<pdfrwt beam="2">  1       21 0.34016581E-03 0.63491011E+01</pdfrwt>
<totfact> 0.28568269E+09</totfact>
</mgrwt>
</event>
<event>
 4    1  0.3999109E+006  0.9838334E+01  0.7546771E-02  0.2084307E+00
         21   -1    0    0  501  502  0.00000000000E+00  0.00000000000E+00  0.46948263775E+03  0.46948263775E+03  0.00000000000E+00 0. -1.
         21   -1    0    0  502  503 -0.00000000000E+00 -0.00000000000E+00 -0.50432879426E+01  0.50432879426E+01  0.00000000000E+00 0.  1.
          5    1    1    2  501    0 -0.35320424092E+01  0.78884405921E+01  0.46458239158E+03  0.46468655176E+03  0.47000000000E+01 0. -1.
         -5    1    1    2    0  503  0.35320424092E+01 -0.78884405921E+01 -0.14304176856E+00  0.98393739386E+01  0.47000000000E+01 0.  1.
<mgrwt>
<rscale>  2 0.98383341E+01</rscale>
<asrwt>0</asrwt>
<pdfrwt beam="1">  1       21 0.72228064E-01 0.98383341E+01</pdfrwt>
<pdfrwt beam="2">  1       21 0.77589082E-03 0.98383341E+01</pdfrwt>
<totfact> 0.66536539E+06</totfact>
</mgrwt>
</event>
<event>
 4    1  0.3999109E+006  0.5270767E+01  0.7546771E-02  0.2521251E+00
         21   -1    0    0  501  502  0.00000000000E+00  0.00000000000E+00  0.31379265711E+01  0.31379265711E+01  0.00000000000E+00 0.  1.
         21   -1    0    0  502  503 -0.00000000000E+00 -0.00000000000E+00 -0.97999465803E+01  0.97999465803E+01  0.00000000000E+00 0. -1.
          5    1    1    2  501    0 -0.23056913249E+01  0.61218966430E+00 -0.13204539276E+01  0.54336532136E+01  0.47000000000E+01 0.  1.
         -5    1    1    2    0  503  0.23056913249E+01 -0.61218966430E+00 -0.53415660816E+01  0.75042199378E+01  0.47000000000E+01 0.  1.
<mgrwt>
<rscale>  2 0.52707674E+01</rscale>
<asrwt>0</asrwt>
<pdfrwt beam="1">  1       21 0.48275793E-03 0.52707674E+01</pdfrwt>
<pdfrwt beam="2">  1       21 0.15076841E-02 0.52707674E+01</pdfrwt>
<totfact> 0.43157537E+09</totfact>
</mgrwt>
</event>
<event>
 4    1  0.3999109E+006  0.8878001E+01  0.7546771E-02  0.2145095E+00
         21   -1    0    0  501  502  0.00000000000E+00  0.00000000000E+00  0.61458740769E+01  0.61458740769E+01  0.00000000000E+00 0. -1.
         21   -1    0    0  502  503 -0.00000000000E+00 -0.00000000000E+00 -0.22989281034E+02  0.22989281034E+02  0.00000000000E+00 0.  1.
          5    1    1    2  501    0 -0.64488422722E+01 -0.38911878044E+01  0.12648587053E+01  0.89676516839E+01  0.47000000000E+01 0. -1.
         -5    1    1    2    0  503  0.64488422722E+01  0.38911878044E+01 -0.18108265662E+02  0.20167503427E+02  0.47000000000E+01 0.  1.
<mgrwt>
<rscale>  2 0.88780014E+01</rscale>
<asrwt>0</asrwt>
<pdfrwt beam="1">  1       21 0.94551907E-03 0.88780014E+01</pdfrwt>
<pdfrwt beam="2">  1       21 0.35368126E-02 0.88780014E+01</pdfrwt>
<totfact> 0.73062841E+08</totfact>
</mgrwt>
</event>
<event>
 4    1  0.3999109E+006  0.5103935E+01  0.7546771E-02  0.2549040E+00
         21   -1    0    0  501  502  0.00000000000E+00  0.00000000000E+00  0.13208151956E+01  0.13208151956E+01  0.00000000000E+00 0.  1.
         21   -1    0    0  502  503 -0.00000000000E+00 -0.00000000000E+00 -0.22423901129E+02  0.22423901129E+02  0.00000000000E+00 0.  1.
          5    1    1    2  501    0 -0.14623675889E+01  0.13496807060E+01 -0.64310150603E+01  0.82102443130E+01  0.47000000000E+01 0.  1.
         -5    1    1    2    0  503  0.14623675889E+01 -0.13496807060E+01 -0.14672070873E+02  0.15534472012E+02  0.47000000000E+01 0.  1.
<mgrwt>
<rscale>  2 0.51039354E+01</rscale>
<asrwt>0</asrwt>
<pdfrwt beam="1">  1       21 0.20320235E-03 0.51039354E+01</pdfrwt>
<pdfrwt beam="2">  1       21 0.34498307E-02 0.51039354E+01</pdfrwt>
<totfact> 0.41642404E+09</totfact>
</mgrwt>
</event>
<event>
 4    1  0.3999109E+006  0.1010714E+02  0.7546771E-02  0.2068941E+00
         21   -1    0    0  501  502  0.00000000000E+00  0.00000000000E+00  0.16974911144E+02  0.16974911144E+02  0.00000000000E+00 0. -1.
         21   -1    0    0  502  503 -0.00000000000E+00 -0.00000000000E+00 -0.14520628408E+02  0.14520628408E+02  0.00000000000E+00 0.  1.
          5    1    1    2  501    0 -0.71051622517E+01 -0.54388345035E+01  0.13277614539E+02  0.16686800149E+02  0.47000000000E+01 0. -1.
         -5    1    1    2    0  503  0.71051622517E+01  0.54388345035E+01 -0.10823331803E+02  0.14808739403E+02  0.47000000000E+01 0.  1.
<mgrwt>
<rscale>  2 0.10107139E+02</rscale>
<asrwt>0</asrwt>
<pdfrwt beam="1">  1       21 0.26115248E-02 0.10107139E+02</pdfrwt>
<pdfrwt beam="2">  1       21 0.22339428E-02 0.10107139E+02</pdfrwt>
<totfact> 0.35233497E+08</totfact>
</mgrwt>
</event>
<event>
 4    1  0.3999109E+006  0.5178762E+01  0.7546771E-02  0.2536386E+00
         21   -1    0    0  503  502  0.00000000000E+00  0.00000000000E+00  0.38459802676E+02  0.38459802676E+02  0.00000000000E+00 0. -1.
         21   -1    0    0  501  503 -0.00000000000E+00 -0.00000000000E+00 -0.13992238071E+01  0.13992238071E+01  0.00000000000E+00 0. -1.
          5    1    1    2  501    0  0.10037776852E+01  0.19292513844E+01  0.44151382123E+01  0.68053674390E+01  0.47000000000E+01 0. -1.
         -5    1    1    2    0  502 -0.10037776852E+01 -0.19292513844E+01  0.32645440657E+02  0.33053659045E+02  0.47000000000E+01 0. -1.
<mgrwt>
<rscale>  2 0.51787625E+01</rscale>
<asrwt>0</asrwt>
<pdfrwt beam="1">  1       21 0.59168919E-02 0.51787625E+01</pdfrwt>
<pdfrwt beam="2">  1       21 0.21526523E-03 0.51787625E+01</pdfrwt>
<totfact> 0.17785198E+09</totfact>
</mgrwt>
</event>
<event>
 4    1  0.3999109E+006  0.6765982E+01  0.7546771E-02  0.2325253E+00
         21   -1    0    0  503  502  0.00000000000E+00  0.00000000000E+00  0.25133278187E+03  0.25133278187E+03  0.00000000000E+00 0. -1.
         21   -1    0    0  501  503 -0.00000000000E+00 -0.00000000000E+00 -0.18639265814E+00  0.18639265814E+00  0.00000000000E+00 0. -1.
          5    1    1    2  501    0 -0.35961345677E+01  0.32796844226E+01  0.14456220389E+03  0.14472045228E+03  0.47000000000E+01 0. -1.
         -5    1    1    2    0  502  0.35961345677E+01 -0.32796844226E+01  0.10658418532E+03  0.10679872225E+03  0.47000000000E+01 0. -1.
<mgrwt>
<rscale>  2 0.67659821E+01</rscale>
<asrwt>0</asrwt>
<pdfrwt beam="1">  1       21 0.38666311E-01 0.67659821E+01</pdfrwt>
<pdfrwt beam="2">  1       21 0.28675995E-04 0.67659821E+01</pdfrwt>
<totfact> 0.16790340E+09</totfact>
</mgrwt>
</event>
<event>
 4    1  0.3999109E+006  0.5923195E+01  0.7546771E-02  0.2425528E+00
         21   -1    0    0  503  502  0.00000000000E+00  0.00000000000E+00  0.30703989254E+01  0.30703989254E+01  0.00000000000E+00 0.  1.
         21   -1    0    0  501  503 -0.00000000000E+00 -0.00000000000E+00 -0.13322276284E+02  0.13322276284E+02  0.00000000000E+00 0. -1.
          5    1    1    2  501    0  0.35759476441E+01 -0.45479179637E+00 -0.82177435945E+01  0.10129933214E+02  0.47000000000E+01 0. -1.
         -5    1    1    2    0  502 -0.35759476441E+01  0.45479179637E+00 -0.20341337641E+01  0.62627419955E+01  0.47000000000E+01 0.  1.
<mgrwt>
<rscale>  2 0.59231948E+01</rscale>
<asrwt>0</asrwt>
<pdfrwt beam="1">  1       21 0.47236906E-03 0.59231948E+01</pdfrwt>
<pdfrwt beam="2">  1       21 0.20495810E-02 0.59231948E+01</pdfrwt>
<totfact> 0.32074837E+09</totfact>
</mgrwt>
</event>
<event>
 4    1  0.3999109E+006  0.5386800E+01  0.7546771E-02  0.2502794E+00
         21   -1    0    0  503  502  0.00000000000E+00  0.00000000000E+00  0.18905652803E+03  0.18905652803E+03  0.00000000000E+00 0.  1.
         21   -1    0    0  501  503 -0.00000000000E+00 -0.00000000000E+00 -0.21391474225E+00  0.21391474225E+00  0.00000000000E+00 0.  1.
          5    1    1    2  501    0 -0.26120753624E+01  0.32353976800E+00  0.44123088679E+02  0.44450698198E+02  0.47000000000E+01 0.  1.
         -5    1    1    2    0  502  0.26120753624E+01 -0.32353976800E+00  0.14471952461E+03  0.14481974457E+03  0.47000000000E+01 0.  1.
<mgrwt>
<rscale>  2 0.53868001E+01</rscale>
<asrwt>0</asrwt>
<pdfrwt beam="1">  1       21 0.29085486E-01 0.53868001E+01</pdfrwt>
<pdfrwt beam="2">  1       21 0.32910112E-04 0.53868001E+01</pdfrwt>
<totfact> 0.19025833E+09</totfact>
</mgrwt>
</event>
<event>
 4    1  0.3999109E+006  0.7078395E+01  0.7546771E-02  0.2293162E+00
         21   -1    0    0  501  502  0.00000000000E+00  0.00000000000E+00  0.13416490652E+01  0.13416490652E+01  0.00000000000E+00 0.  1.
         21   -1    0    0  502  503 -0.00000000000E+00 -0.00000000000E+00 -0.42580915860E+02  0.42580915860E+02  0.00000000000E+00 0.  1.
          5    1    1    2  501    0  0.52742561224E+01  0.44260427643E+00 -0.12918529861E+02  0.14730651376E+02  0.47000000000E+01 0.  1.
         -5    1    1    2    0  503 -0.52742561224E+01 -0.44260427643E+00 -0.28320736933E+02  0.29191913548E+02  0.47000000000E+01 0.  1.
<mgrwt>
<rscale>  2 0.70783950E+01</rscale>
<asrwt>0</asrwt>
<pdfrwt beam="1">  1       21 0.20640757E-03 0.70783950E+01</pdfrwt>
<pdfrwt beam="2">  1       21 0.65509096E-02 0.70783950E+01</pdfrwt>
<totfact> 0.21032678E+09</totfact>
</mgrwt>
</event>
<event>
 4    1  0.3999109E+006  0.4842809E+01  0.7546771E-02  0.2595818E+00
         21   -1    0    0  503  502  0.00000000000E+00  0.00000000000E+00  0.13970732895E+00  0.13970732895E+00  0.00000000000E+00 0.  1.
         21   -1    0    0  501  503 -0.00000000000E+00 -0.00000000000E+00 -0.17900718379E+03  0.17900718379E+03  0.00000000000E+00 0.  1.
          5    1    1    2  501    0  0.58969931548E-01 -0.11658999773E+01 -0.11177529720E+03  0.11188015849E+03  0.47000000000E+01 0.  1.
         -5    1    1    2    0  502 -0.58969931548E-01  0.11658999773E+01 -0.67092179265E+02  0.67266732630E+02  0.47000000000E+01 0.  1.
<mgrwt>
<rscale>  2 0.48428091E+01</rscale>
<asrwt>0</asrwt>
<pdfrwt beam="1">  1       21 0.21493343E-04 0.48428091E+01</pdfrwt>
<pdfrwt beam="2">  1       21 0.27539685E-01 0.48428091E+01</pdfrwt>
<totfact> 0.33230222E+09</totfact>
</mgrwt>
</event>
<event>
 4    1  0.3999109E+006  0.5000955E+01  0.7546771E-02  0.2566984E+00
         21   -1    0    0  503  502  0.00000000000E+00  0.00000000000E+00  0.20379581148E+00  0.20379581148E+00  0.00000000000E+00 0.  1.
         21   -1    0    0  501  503 -0.00000000000E+00 -0.00000000000E+00 -0.22116709488E+03  0.22116709488E+03  0.00000000000E+00 0.  1.
          5    1    1    2  501    0 -0.14127280737E+01  0.96111855786E+00 -0.18432895642E+03  0.18439678339E+03  0.47000000000E+01 0.  1.
         -5    1    1    2    0  502  0.14127280737E+01 -0.96111855786E+00 -0.36634342648E+02  0.36974107302E+02  0.47000000000E+01 0.  1.
<mgrwt>
<rscale>  2 0.50009549E+01</rscale>
<asrwt>0</asrwt>
<pdfrwt beam="1">  1       21 0.31353176E-04 0.50009549E+01</pdfrwt>
<pdfrwt beam="2">  1       21 0.34025735E-01 0.50009549E+01</pdfrwt>
<totfact> 0.14620349E+09</totfact>
</mgrwt>
</event>
<event>
 4    1  0.3999109E+006  0.6447535E+01  0.7546771E-02  0.2360578E+00
         21   -1    0    0  501  502  0.00000000000E+00  0.00000000000E+00  0.63004484598E+01  0.63004484598E+01  0.00000000000E+00 0. -1.
         21   -1    0    0  502  503 -0.00000000000E+00 -0.00000000000E+00 -0.85942521177E+01  0.85942521177E+01  0.00000000000E+00 0. -1.
          5    1    1    2  501    0  0.11043508629E+01  0.42733034566E+01 -0.47361155063E+01  0.80000939588E+01  0.47000000000E+01 0. -1.
         -5    1    1    2    0  503 -0.11043508629E+01 -0.42733034566E+01  0.24423118484E+01  0.68946066186E+01  0.47000000000E+01 0. -1.
<mgrwt>
<rscale>  2 0.64475354E+01</rscale>
<asrwt>0</asrwt>
<pdfrwt beam="1">  1       21 0.96929976E-03 0.64475354E+01</pdfrwt>
<pdfrwt beam="2">  1       21 0.13221926E-02 0.64475354E+01</pdfrwt>
<totfact> 0.23622853E+09</totfact>
</mgrwt>
</event>
<event>
 4    1  0.3999109E+006  0.4960514E+01  0.7546771E-02  0.2574207E+00
         21   -1    0    0  503  502  0.00000000000E+00  0.00000000000E+00  0.15345812418E+02  0.15345812418E+02  0.00000000000E+00 0. -1.
         21   -1    0    0  501  503 -0.00000000000E+00 -0.00000000000E+00 -0.19231093978E+01  0.19231093978E+01  0.00000000000E+00 0. -1.
          5    1    1    2  501    0  0.83681513847E+00  0.13477541614E+01  0.31912377505E+01  0.58983641152E+01  0.47000000000E+01 0. -1.
         -5    1    1    2    0  502 -0.83681513847E+00 -0.13477541614E+01  0.10231465269E+02  0.11370557700E+02  0.47000000000E+01 0. -1.
<mgrwt>
<rscale>  2 0.49605142E+01</rscale>
<asrwt>0</asrwt>
<pdfrwt beam="1">  1       21 0.23608941E-02 0.49605142E+01</pdfrwt>
<pdfrwt beam="2">  1       21 0.29586299E-03 0.49605142E+01</pdfrwt>
<totfact> 0.41894691E+09</totfact>
</mgrwt>
</event>
<event>
 4    1  0.3999109E+006  0.1049304E+02  0.7546771E-02  0.2047968E+00
         21   -1    0    0  503  502  0.00000000000E+00  0.00000000000E+00  0.28730108768E+00  0.28730108768E+00  0.00000000000E+00 0. -1.
         21   -1    0    0  501  503 -0.00000000000E+00 -0.00000000000E+00 -0.47327902799E+03  0.47327902799E+03  0.00000000000E+00 0.  1.
          5    1    1    2  501    0  0.33657479449E+01  0.87570326760E+01 -0.33977658017E+03  0.33993856549E+03  0.47000000000E+01 0.  1.
         -5    1    1    2    0  502 -0.33657479449E+01 -0.87570326760E+01 -0.13321514674E+03  0.13362776359E+03  0.47000000000E+01 0. -1.
<mgrwt>
<rscale>  2 0.10493040E+02</rscale>
<asrwt>0</asrwt>
<pdfrwt beam="1">  1       21 0.44199868E-04 0.10493040E+02</pdfrwt>
<pdfrwt beam="2">  1       21 0.72812652E-01 0.10493040E+02</pdfrwt>
<totfact> 0.36977139E+08</totfact>
</mgrwt>
</event>
<event>
 4    1  0.3999109E+006  0.5320526E+01  0.7546771E-02  0.2513252E+00
         21   -1    0    0  501  502  0.00000000000E+00  0.00000000000E+00  0.13729716156E+01  0.13729716156E+01  0.00000000000E+00 0. -1.
         21   -1    0    0  502  503 -0.00000000000E+00 -0.00000000000E+00 -0.44236200908E+02  0.44236200908E+02  0.00000000000E+00 0. -1.
          5    1    1    2  501    0  0.16661683681E+01  0.18552301016E+01 -0.47684976305E+01  0.71446879157E+01  0.47000000000E+01 0. -1.
         -5    1    1    2    0  503 -0.16661683681E+01 -0.18552301016E+01 -0.38094731662E+02  0.38464484608E+02  0.47000000000E+01 0. -1.
<mgrwt>
<rscale>  2 0.53205259E+01</rscale>
<asrwt>0</asrwt>
<pdfrwt beam="1">  1       21 0.21122635E-03 0.53205259E+01</pdfrwt>
<pdfrwt beam="2">  1       21 0.68055709E-02 0.53205259E+01</pdfrwt>
<totfact> 0.15207952E+09</totfact>
</mgrwt>
</event>
<event>
 4    1  0.3999109E+006  0.7011324E+01  0.7546771E-02  0.2299854E+00
         21   -1    0    0  503  502  0.00000000000E+00  0.00000000000E+00  0.57971092779E-01  0.57971092779E-01  0.00000000000E+00 0. -1.
         21   -1    0    0  501  503 -0.00000000000E+00 -0.00000000000E+00 -0.21958256767E+04  0.21958256767E+04  0.00000000000E+00 0. -1.
          5    1    1    2  501    0 -0.51727423543E+01  0.55803431695E+00 -0.19580840616E+04  0.19580966143E+04  0.47000000000E+01 0. -1.
         -5    1    1    2    0  502  0.51727423543E+01 -0.55803431695E+00 -0.23768364403E+03  0.23778703351E+03  0.47000000000E+01 0. -1.
<mgrwt>
<rscale>  2 0.70113241E+01</rscale>
<asrwt>0</asrwt>
<pdfrwt beam="1">  1       21 0.89193293E-05 0.70113241E+01</pdfrwt>
<pdfrwt beam="2">  1       21 0.33779284E+00 0.70113241E+01</pdfrwt>
<totfact> 0.80076919E+07</totfact>
</mgrwt>
</event>
<event>
 4    1  0.3999109E+006  0.5433838E+01  0.7546771E-02  0.2495504E+00
         21   -1    0    0  503  502  0.00000000000E+00  0.00000000000E+00  0.31182097257E+00  0.31182097257E+00  0.00000000000E+00 0.  1.
         21   -1    0    0  501  503 -0.00000000000E+00 -0.00000000000E+00 -0.95075226907E+02  0.95075226907E+02  0.00000000000E+00 0. -1.
          5    1    1    2  501    0  0.13908574600E+01  0.23456587086E+01 -0.50414147998E+02  0.50706142800E+02  0.47000000000E+01 0.  1.
         -5    1    1    2    0  502 -0.13908574600E+01 -0.23456587086E+01 -0.44349257937E+02  0.44680905080E+02  0.47000000000E+01 0. -1.
<mgrwt>
<rscale>  2 0.54338384E+01</rscale>
<asrwt>0</asrwt>
<pdfrwt beam="1">  1       21 0.47972433E-04 0.54338384E+01</pdfrwt>
<pdfrwt beam="2">  1       21 0.14626965E-01 0.54338384E+01</pdfrwt>
<totfact> 0.35102550E+09</totfact>
</mgrwt>
</event>
<event>
 4    1  0.3999109E+006  0.5282743E+01  0.7546771E-02  0.2519314E+00
         21   -1    0    0  503  502  0.00000000000E+00  0.00000000000E+00  0.44636227439E+03  0.44636227439E+03  0.00000000000E+00 0.  1.
         21   -1    0    0  501  503 -0.00000000000E+00 -0.00000000000E+00 -0.44114701706E+00  0.44114701706E+00  0.00000000000E+00 0.  1.
          5    1    1    2  501    0  0.47607395954E+00 -0.23644708858E+01  0.15994283784E+02  0.16844123092E+02  0.47000000000E+01 0.  1.
         -5    1    1    2    0  502 -0.47607395954E+00  0.23644708858E+01  0.42992684358E+03  0.42995929831E+03  0.47000000000E+01 0.  1.
<mgrwt>
<rscale>  2 0.52827426E+01</rscale>
<asrwt>0</asrwt>
<pdfrwt beam="1">  1       21 0.68670758E-01 0.52827426E+01</pdfrwt>
<pdfrwt beam="2">  1       21 0.67869129E-04 0.52827426E+01</pdfrwt>
<totfact> 0.15779165E+08</totfact>
</mgrwt>
</event>
<event>
 4    1  0.3999109E+006  0.6156859E+01  0.7546771E-02  0.2395445E+00
         21   -1    0    0  503  502  0.00000000000E+00  0.00000000000E+00  0.64986830129E+02  0.64986830129E+02  0.00000000000E+00 0.  1.
         21   -1    0    0  501  503 -0.00000000000E+00 -0.00000000000E+00 -0.28023960860E+01  0.28023960860E+01  0.00000000000E+00 0.  1.
          5    1    1    2  501    0 -0.39639398121E+01 -0.32263790043E+00  0.93065486196E+00  0.62267995408E+01  0.47000000000E+01 0.  1.
         -5    1    1    2    0  502  0.39639398121E+01  0.32263790043E+00  0.61253779181E+02  0.61562426674E+02  0.47000000000E+01 0.  1.
<mgrwt>
<rscale>  2 0.61568591E+01</rscale>
<asrwt>0</asrwt>
<pdfrwt beam="1">  1       21 0.99979727E-02 0.61568591E+01</pdfrwt>
<pdfrwt beam="2">  1       21 0.43113791E-03 0.61568591E+01</pdfrwt>
<totfact> 0.35978206E+08</totfact>
</mgrwt>
</event>
<event>
 4    1  0.3999109E+006  0.5538984E+01  0.7546771E-02  0.2479589E+00
         21   -1    0    0  503  502  0.00000000000E+00  0.00000000000E+00  0.33430525891E+01  0.33430525891E+01  0.00000000000E+00 0.  1.
         21   -1    0    0  501  503 -0.00000000000E+00 -0.00000000000E+00 -0.98266065147E+01  0.98266065147E+01  0.00000000000E+00 0.  1.
          5    1    1    2  501    0 -0.17628027236E+01  0.23415518900E+01 -0.49343733599E+01  0.74181115623E+01  0.47000000000E+01 0.  1.
         -5    1    1    2    0  502  0.17628027236E+01 -0.23415518900E+01 -0.15491805657E+01  0.57515475414E+01  0.47000000000E+01 0.  1.
<mgrwt>
<rscale>  2 0.55389835E+01</rscale>
<asrwt>0</asrwt>
<pdfrwt beam="1">  1       21 0.51431579E-03 0.55389835E+01</pdfrwt>
<pdfrwt beam="2">  1       21 0.15117856E-02 0.55389835E+01</pdfrwt>
<totfact> 0.41375570E+09</totfact>
</mgrwt>
</event>
<event>
 4    1  0.3999109E+006  0.1012127E+02  0.7546771E-02  0.2068151E+00
         21   -1    0    0  503  502  0.00000000000E+00  0.00000000000E+00  0.12028211211E+02  0.12028211211E+02  0.00000000000E+00 0. -1.
         21   -1    0    0  501  503 -0.00000000000E+00 -0.00000000000E+00 -0.60837899578E+02  0.60837899578E+02  0.00000000000E+00 0.  1.
          5    1    1    2  501    0  0.17626287120E+01  0.87888116202E+01 -0.58191681484E+02  0.59065318619E+02  0.47000000000E+01 0.  1.
         -5    1    1    2    0  502 -0.17626287120E+01 -0.87888116202E+01  0.93819931163E+01  0.13800792169E+02  0.47000000000E+01 0. -1.
<mgrwt>
<rscale>  2 0.10121268E+02</rscale>
<asrwt>0</asrwt>
<pdfrwt beam="1">  1       21 0.18504940E-02 0.10121268E+02</pdfrwt>
<pdfrwt beam="2">  1       21 0.93596768E-02 0.10121268E+02</pdfrwt>
<totfact> 0.65818559E+07</totfact>
</mgrwt>
</event>
<event>
 4    1  0.3999109E+006  0.5193612E+01  0.7546771E-02  0.2533912E+00
         21   -1    0    0  501  502  0.00000000000E+00  0.00000000000E+00  0.46104030897E+01  0.46104030897E+01  0.00000000000E+00 0. -1.
         21   -1    0    0  502  503 -0.00000000000E+00 -0.00000000000E+00 -0.63090522047E+01  0.63090522047E+01  0.00000000000E+00 0. -1.
          5    1    1    2  501    0  0.13218950965E+01 -0.17709322303E+01  0.62243772046E+00  0.52307777936E+01  0.47000000000E+01 0. -1.
         -5    1    1    2    0  503 -0.13218950965E+01  0.17709322303E+01 -0.23210868355E+01  0.56886775008E+01  0.47000000000E+01 0. -1.
<mgrwt>
<rscale>  2 0.51936122E+01</rscale>
<asrwt>0</asrwt>
<pdfrwt beam="1">  1       21 0.70929279E-03 0.51936122E+01</pdfrwt>
<pdfrwt beam="2">  1       21 0.97062341E-03 0.51936122E+01</pdfrwt>
<totfact> 0.46368395E+09</totfact>
</mgrwt>
</event>
<event>
 4    1  0.3999109E+006  0.1140561E+02  0.7546771E-02  0.2002838E+00
         21   -1    0    0  503  502  0.00000000000E+00  0.00000000000E+00  0.23117853836E+01  0.23117853836E+01  0.00000000000E+00 0. -1.
         21   -1    0    0  501  503 -0.00000000000E+00 -0.00000000000E+00 -0.56297029040E+02  0.56297029040E+02  0.00000000000E+00 0. -1.
          5    1    1    2  501    0 -0.10100580715E+02 -0.24446179806E+01 -0.27615296401E+02  0.29877959823E+02  0.47000000000E+01 0. -1.
         -5    1    1    2    0  502  0.10100580715E+02  0.24446179806E+01 -0.26369947255E+02  0.28730854601E+02  0.47000000000E+01 0. -1.
<mgrwt>
<rscale>  2 0.11405608E+02</rscale>
<asrwt>0</asrwt>
<pdfrwt beam="1">  1       21 0.35565932E-03 0.11405608E+02</pdfrwt>
<pdfrwt beam="2">  1       21 0.86610807E-02 0.11405608E+02</pdfrwt>
<totfact> 0.86043464E+08</totfact>
</mgrwt>
</event>
<event>
 4    1  0.3999109E+006  0.5725127E+01  0.7546771E-02  0.2452633E+00
         21   -1    0    0  501  502  0.00000000000E+00  0.00000000000E+00  0.39446581070E+00  0.39446581070E+00  0.00000000000E+00 0.  1.
         21   -1    0    0  502  503 -0.00000000000E+00 -0.00000000000E+00 -0.16111011507E+03  0.16111011507E+03  0.00000000000E+00 0.  1.
          5    1    1    2  501    0 -0.14521427121E+01 -0.29288842546E+01 -0.24163783238E+02  0.24832750589E+02  0.47000000000E+01 0.  1.
         -5    1    1    2    0  503  0.14521427121E+01  0.29288842546E+01 -0.13655186602E+03  0.13667183029E+03  0.47000000000E+01 0.  1.
<mgrwt>
<rscale>  2 0.57251272E+01</rscale>
<asrwt>0</asrwt>
<pdfrwt beam="1">  1       21 0.60687181E-04 0.57251272E+01</pdfrwt>
<pdfrwt beam="2">  1       21 0.24786117E-01 0.57251272E+01</pdfrwt>
<totfact> 0.11538135E+09</totfact>
</mgrwt>
</event>
<event>
 4    1  0.3999109E+006  0.8873812E+01  0.7546771E-02  0.2145383E+00
         21   -1    0    0  501  502  0.00000000000E+00  0.00000000000E+00  0.31887336186E+03  0.31887336186E+03  0.00000000000E+00 0.  1.
         21   -1    0    0  502  503 -0.00000000000E+00 -0.00000000000E+00 -0.54950791496E+00  0.54950791496E+00  0.00000000000E+00 0.  1.
          5    1    1    2  501    0  0.33617111990E+01 -0.67344958906E+01  0.27767222349E+03  0.27781398135E+03  0.47000000000E+01 0.  1.
         -5    1    1    2    0  503 -0.33617111990E+01  0.67344958906E+01  0.40651630451E+02  0.41608888418E+02  0.47000000000E+01 0.  1.
<mgrwt>
<rscale>  2 0.88738119E+01</rscale>
<asrwt>0</asrwt>
<pdfrwt beam="1">  1       21 0.49057293E-01 0.88738119E+01</pdfrwt>
<pdfrwt beam="2">  1       21 0.84539934E-04 0.88738119E+01</pdfrwt>
<totfact> 0.29863630E+08</totfact>
</mgrwt>
</event>
<event>
 4    1  0.3999109E+006  0.6014441E+01  0.7546771E-02  0.2413548E+00
         21   -1    0    0  501  502  0.00000000000E+00  0.00000000000E+00  0.60162802756E+02  0.60162802756E+02  0.00000000000E+00 0. -1.
         21   -1    0    0  502  503 -0.00000000000E+00 -0.00000000000E+00 -0.10019416824E+01  0.10019416824E+01  0.00000000000E+00 0. -1.
          5    1    1    2  501    0  0.13432051093E+01  0.35041832767E+01  0.48920123248E+02  0.49288456651E+02  0.47000000000E+01 0. -1.
         -5    1    1    2    0  503 -0.13432051093E+01 -0.35041832767E+01  0.10240737825E+02  0.11876287787E+02  0.47000000000E+01 0. -1.
<mgrwt>
<rscale>  2 0.60144410E+01</rscale>
<asrwt>0</asrwt>
<pdfrwt beam="1">  1       21 0.92558130E-02 0.60144410E+01</pdfrwt>
<pdfrwt beam="2">  1       21 0.15414492E-03 0.60144410E+01</pdfrwt>
<totfact> 0.16274387E+09</totfact>
</mgrwt>
</event>
<event>
 4    1  0.3999109E+006  0.6138482E+01  0.7546771E-02  0.2397741E+00
         21   -1    0    0  501  502  0.00000000000E+00  0.00000000000E+00  0.62176264915E+00  0.62176264915E+00  0.00000000000E+00 0.  1.
         21   -1    0    0  502  503 -0.00000000000E+00 -0.00000000000E+00 -0.77878942968E+02  0.77878942968E+02  0.00000000000E+00 0.  1.
          5    1    1    2  501    0  0.17950068047E+01 -0.35169465297E+01 -0.20142343178E+02  0.21056945434E+02  0.47000000000E+01 0.  1.
         -5    1    1    2    0  503 -0.17950068047E+01  0.35169465297E+01 -0.57114837140E+02  0.57443760182E+02  0.47000000000E+01 0.  1.
<mgrwt>
<rscale>  2 0.61384821E+01</rscale>
<asrwt>0</asrwt>
<pdfrwt beam="1">  1       21 0.95655835E-04 0.61384821E+01</pdfrwt>
<pdfrwt beam="2">  1       21 0.11981370E-01 0.61384821E+01</pdfrwt>
<totfact> 0.21162456E+09</totfact>
</mgrwt>
</event>
<event>
 4    1  0.3999109E+006  0.6026740E+01  0.7546771E-02  0.2411956E+00
         21   -1    0    0  503  502  0.00000000000E+00  0.00000000000E+00  0.94489669312E+01  0.94489669312E+01  0.00000000000E+00 0. -1.
         21   -1    0    0  501  503 -0.00000000000E+00 -0.00000000000E+00 -0.79347182706E+01  0.79347182706E+01  0.00000000000E+00 0.  1.
          5    1    1    2  501    0 -0.33058204241E+01 -0.18174548742E+01 -0.54837756109E+01  0.81482136599E+01  0.47000000000E+01 0.  1.
         -5    1    1    2    0  502  0.33058204241E+01  0.18174548742E+01  0.69980242715E+01  0.92354715419E+01  0.47000000000E+01 0. -1.
<mgrwt>
<rscale>  2 0.60267397E+01</rscale>
<asrwt>0</asrwt>
<pdfrwt beam="1">  1       21 0.14536872E-02 0.60267397E+01</pdfrwt>
<pdfrwt beam="2">  1       21 0.12207259E-02 0.60267397E+01</pdfrwt>
<totfact> 0.14059274E+09</totfact>
</mgrwt>
</event>
<event>
 4    1  0.3999109E+006  0.1293217E+02  0.7546771E-02  0.1938621E+00
         21   -1    0    0  503  502  0.00000000000E+00  0.00000000000E+00  0.58624944525E+01  0.58624944525E+01  0.00000000000E+00 0. -1.
         21   -1    0    0  501  503 -0.00000000000E+00 -0.00000000000E+00 -0.29102877300E+02  0.29102877300E+02  0.00000000000E+00 0.  1.
          5    1    1    2  501    0 -0.11558263356E+02 -0.33996287790E+01 -0.14078891505E+02  0.19116906487E+02  0.47000000000E+01 0.  1.
         -5    1    1    2    0  502  0.11558263356E+02  0.33996287790E+01 -0.91614913425E+01  0.15848465265E+02  0.47000000000E+01 0. -1.
<mgrwt>
<rscale>  2 0.12932166E+02</rscale>
<asrwt>0</asrwt>
<pdfrwt beam="1">  1       21 0.90192223E-03 0.12932166E+02</pdfrwt>
<pdfrwt beam="2">  1       21 0.44773657E-02 0.12932166E+02</pdfrwt>
<totfact> 0.67073053E+08</totfact>
</mgrwt>
</event>
<event>
 4    1  0.3999109E+006  0.6494833E+01  0.7546771E-02  0.2355150E+00
         21   -1    0    0  503  502  0.00000000000E+00  0.00000000000E+00  0.10479578765E+01  0.10479578765E+01  0.00000000000E+00 0.  1.
         21   -1    0    0  501  503 -0.00000000000E+00 -0.00000000000E+00 -0.43763238900E+02  0.43763238900E+02  0.00000000000E+00 0.  1.
          5    1    1    2  501    0  0.38981462574E+01  0.22129857572E+01 -0.15011561645E+02  0.16356339237E+02  0.47000000000E+01 0.  1.
         -5    1    1    2    0  502 -0.38981462574E+01 -0.22129857572E+01 -0.27703719378E+02  0.28454857539E+02  0.47000000000E+01 0.  1.
<mgrwt>
<rscale>  2 0.64948326E+01</rscale>
<asrwt>0</asrwt>
<pdfrwt beam="1">  1       21 0.16122425E-03 0.64948326E+01</pdfrwt>
<pdfrwt beam="2">  1       21 0.67328076E-02 0.64948326E+01</pdfrwt>
<totfact> 0.26455641E+09</totfact>
</mgrwt>
</event>
<event>
 4    1  0.3999109E+006  0.5373097E+01  0.7546771E-02  0.2504938E+00
         21   -1    0    0  503  502  0.00000000000E+00  0.00000000000E+00  0.25444603307E+01  0.25444603307E+01  0.00000000000E+00 0.  1.
         21   -1    0    0  501  503 -0.00000000000E+00 -0.00000000000E+00 -0.11498775542E+02  0.11498775542E+02  0.00000000000E+00 0.  1.
          5    1    1    2  501    0  0.25091543333E+01  0.69592609696E+00 -0.52857595845E+01  0.75372025969E+01  0.47000000000E+01 0.  1.
         -5    1    1    2    0  502 -0.25091543333E+01 -0.69592609696E+00 -0.36685556269E+01  0.65060332760E+01  0.47000000000E+01 0.  1.
<mgrwt>
<rscale>  2 0.53730967E+01</rscale>
<asrwt>0</asrwt>
<pdfrwt beam="1">  1       21 0.39145543E-03 0.53730967E+01</pdfrwt>
<pdfrwt beam="2">  1       21 0.17690424E-02 0.53730967E+01</pdfrwt>
<totfact> 0.46810025E+09</totfact>
</mgrwt>
</event>
<event>
 4    1  0.3999109E+006  0.5677554E+01  0.7546771E-02  0.2459380E+00
         21   -1    0    0  503  502  0.00000000000E+00  0.00000000000E+00  0.88700966225E+01  0.88700966225E+01  0.00000000000E+00 0. -1.
         21   -1    0    0  501  503 -0.00000000000E+00 -0.00000000000E+00 -0.82216672908E+01  0.82216672908E+01  0.00000000000E+00 0.  1.
          5    1    1    2  501    0 -0.21375770851E+01 -0.23612247256E+01 -0.60594377555E+01  0.83036982069E+01  0.47000000000E+01 0.  1.
         -5    1    1    2    0  502  0.21375770851E+01  0.23612247256E+01  0.67078670872E+01  0.87880657064E+01  0.47000000000E+01 0. -1.
<mgrwt>
<rscale>  2 0.56775539E+01</rscale>
<asrwt>0</asrwt>
<pdfrwt beam="1">  1       21 0.13646303E-02 0.56775539E+01</pdfrwt>
<pdfrwt beam="2">  1       21 0.12648719E-02 0.56775539E+01</pdfrwt>
<totfact> 0.13899829E+09</totfact>
</mgrwt>
</event>
<event>
 4    1  0.3999109E+006  0.6362614E+01  0.7546771E-02  0.2370490E+00
         21   -1    0    0  503  502  0.00000000000E+00  0.00000000000E+00  0.55254541147E+02  0.55254541147E+02  0.00000000000E+00 0. -1.
         21   -1    0    0  501  503 -0.00000000000E+00 -0.00000000000E+00 -0.75026973278E+00  0.75026973278E+00  0.00000000000E+00 0.  1.
          5    1    1    2  501    0  0.20242171663E+01  0.37809265693E+01  0.22962230782E+02  0.23827440134E+02  0.47000000000E+01 0. -1.
         -5    1    1    2    0  502 -0.20242171663E+01 -0.37809265693E+01  0.31542040632E+02  0.32177370746E+02  0.47000000000E+01 0.  1.
<mgrwt>
<rscale>  2 0.63626143E+01</rscale>
<asrwt>0</asrwt>
<pdfrwt beam="1">  1       21 0.85006955E-02 0.63626143E+01</pdfrwt>
<pdfrwt beam="2">  1       21 0.11542616E-03 0.63626143E+01</pdfrwt>
<totfact> 0.28714273E+09</totfact>
</mgrwt>
</event>
<event>
 4    1  0.3999109E+006  0.7717431E+01  0.7546771E-02  0.2234219E+00
         21   -1    0    0  503  502  0.00000000000E+00  0.00000000000E+00  0.30734512626E+00  0.30734512626E+00  0.00000000000E+00 0.  1.
         21   -1    0    0  501  503 -0.00000000000E+00 -0.00000000000E+00 -0.45365741772E+03  0.45365741772E+03  0.00000000000E+00 0.  1.
          5    1    1    2  501    0 -0.21019801623E+01  0.57489489071E+01 -0.39846928369E+03  0.39854401109E+03  0.47000000000E+01 0.  1.
         -5    1    1    2    0  502  0.21019801623E+01 -0.57489489071E+01 -0.54880788907E+02  0.55420751756E+02  0.47000000000E+01 0.  1.
<mgrwt>
<rscale>  2 0.77174305E+01</rscale>
<asrwt>0</asrwt>
<pdfrwt beam="1">  1       21 0.47283788E-04 0.77174305E+01</pdfrwt>
<pdfrwt beam="2">  1       21 0.69793563E-01 0.77174305E+01</pdfrwt>
<totfact> 0.31406399E+08</totfact>
</mgrwt>
</event>
<event>
 4    1  0.3999109E+006  0.9870979E+01  0.7546771E-02  0.2082406E+00
         21   -1    0    0  501  502  0.00000000000E+00  0.00000000000E+00  0.82489658725E+00  0.82489658725E+00  0.00000000000E+00 0. -1.
         21   -1    0    0  502  503 -0.00000000000E+00 -0.00000000000E+00 -0.26979284302E+03  0.26979284302E+03  0.00000000000E+00 0.  1.
          5    1    1    2  501    0  0.27120389297E+01  0.82456701667E+01 -0.33030731600E+02  0.34474127425E+02  0.47000000000E+01 0. -1.
         -5    1    1    2    0  503 -0.27120389297E+01 -0.82456701667E+01 -0.23593721484E+03  0.23614361219E+03  0.47000000000E+01 0.  1.
<mgrwt>
<rscale>  2 0.98709793E+01</rscale>
<asrwt>0</asrwt>
<pdfrwt beam="1">  1       21 0.12690708E-03 0.98709793E+01</pdfrwt>
<pdfrwt beam="2">  1       21 0.41506621E-01 0.98709793E+01</pdfrwt>
<totfact> 0.24432559E+08</totfact>
</mgrwt>
</event>
<event>
 4    1  0.3999109E+006  0.8876006E+01  0.7546771E-02  0.2145232E+00
         21   -1    0    0  501  502  0.00000000000E+00  0.00000000000E+00  0.28815899189E+00  0.28815899189E+00  0.00000000000E+00 0. -1.
         21   -1    0    0  502  503 -0.00000000000E+00 -0.00000000000E+00 -0.27340298387E+03  0.27340298387E+03  0.00000000000E+00 0. -1.
          5    1    1    2  501    0 -0.64830246488E+01  0.38293447387E+01 -0.13646176811E+03  0.13675012850E+03  0.47000000000E+01 0. -1.
         -5    1    1    2    0  503  0.64830246488E+01 -0.38293447387E+01 -0.13665305677E+03  0.13694101436E+03  0.47000000000E+01 0. -1.
<mgrwt>
<rscale>  2 0.88760064E+01</rscale>
<asrwt>0</asrwt>
<pdfrwt beam="1">  1       21 0.44332303E-04 0.88760064E+01</pdfrwt>
<pdfrwt beam="2">  1       21 0.42061855E-01 0.88760064E+01</pdfrwt>
<totfact> 0.95375289E+08</totfact>
</mgrwt>
</event>
<event>
 4    1  0.3999109E+006  0.8399094E+01  0.7546771E-02  0.2179474E+00
         21   -1    0    0  501  502  0.00000000000E+00  0.00000000000E+00  0.40295030840E+02  0.40295030840E+02  0.00000000000E+00 0. -1.
         21   -1    0    0  502  503 -0.00000000000E+00 -0.00000000000E+00 -0.69136342791E+01  0.69136342791E+01  0.00000000000E+00 0.  1.
          5    1    1    2  501    0 -0.66167990831E+00 -0.69294266192E+01  0.37088649431E+02  0.38027788395E+02  0.47000000000E+01 0. -1.
         -5    1    1    2    0  503  0.66167990831E+00  0.69294266192E+01 -0.37072528706E+01  0.91808767239E+01  0.47000000000E+01 0.  1.
<mgrwt>
<rscale>  2 0.83990936E+01</rscale>
<asrwt>0</asrwt>
<pdfrwt beam="1">  1       21 0.61992353E-02 0.83990936E+01</pdfrwt>
<pdfrwt beam="2">  1       21 0.10636361E-02 0.83990936E+01</pdfrwt>
<totfact> 0.25514855E+08</totfact>
</mgrwt>
</event>
<event>
 4    1  0.3999109E+006  0.5142430E+01  0.7546771E-02  0.2542491E+00
         21   -1    0    0  501  502  0.00000000000E+00  0.00000000000E+00  0.11615592488E+03  0.11615592488E+03  0.00000000000E+00 0.  1.
         21   -1    0    0  502  503 -0.00000000000E+00 -0.00000000000E+00 -0.43211470189E+00  0.43211470189E+00  0.00000000000E+00 0.  1.
          5    1    1    2  501    0  0.59333974627E+00 -0.20006327553E+01  0.97959491134E+02  0.98094375408E+02  0.47000000000E+01 0.  1.
         -5    1    1    2    0  503 -0.59333974627E+00  0.20006327553E+01  0.17764319047E+02  0.18493664177E+02  0.47000000000E+01 0.  1.
<mgrwt>
<rscale>  2 0.51424297E+01</rscale>
<asrwt>0</asrwt>
<pdfrwt beam="1">  1       21 0.17870117E-01 0.51424297E+01</pdfrwt>
<pdfrwt beam="2">  1       21 0.66479277E-04 0.51424297E+01</pdfrwt>
<totfact> 0.15790335E+09</totfact>
</mgrwt>
</event>
<event>
 4    1  0.3999109E+006  0.5090760E+01  0.7546771E-02  0.2551301E+00
         21   -1    0    0  503  502  0.00000000000E+00  0.00000000000E+00  0.33544356519E+01  0.33544356519E+01  0.00000000000E+00 0.  1.
         21   -1    0    0  501  503 -0.00000000000E+00 -0.00000000000E+00 -0.79207695522E+01  0.79207695522E+01  0.00000000000E+00 0.  1.
          5    1    1    2  501    0  0.79754366420E+00 -0.17859890275E+01 -0.31675690329E+01  0.59957757030E+01  0.47000000000E+01 0.  1.
         -5    1    1    2    0  502 -0.79754366420E+00  0.17859890275E+01 -0.13987648674E+01  0.52794295011E+01  0.47000000000E+01 0.  1.
<mgrwt>
<rscale>  2 0.50907595E+01</rscale>
<asrwt>0</asrwt>
<pdfrwt beam="1">  1       21 0.51606703E-03 0.50907595E+01</pdfrwt>
<pdfrwt beam="2">  1       21 0.12185799E-02 0.50907595E+01</pdfrwt>
<totfact> 0.51246103E+09</totfact>
</mgrwt>
</event>
<event>
 4    1  0.3999109E+006  0.6293314E+01  0.7546771E-02  0.2378743E+00
         21   -1    0    0  501  502  0.00000000000E+00  0.00000000000E+00  0.87286938578E+01  0.87286938578E+01  0.00000000000E+00 0.  1.
         21   -1    0    0  502  503 -0.00000000000E+00 -0.00000000000E+00 -0.52270131374E+01  0.52270131374E+01  0.00000000000E+00 0.  1.
          5    1    1    2  501    0  0.35282673755E+01 -0.22510285483E+01 -0.78364454364E+00  0.63419160329E+01  0.47000000000E+01 0.  1.
         -5    1    1    2    0  503 -0.35282673755E+01  0.22510285483E+01  0.42853252641E+01  0.76137909623E+01  0.47000000000E+01 0.  1.
<mgrwt>
<rscale>  2 0.62933139E+01</rscale>
<asrwt>0</asrwt>
<pdfrwt beam="1">  1       21 0.13428760E-02 0.62933139E+01</pdfrwt>
<pdfrwt beam="2">  1       21 0.80415587E-03 0.62933139E+01</pdfrwt>
<totfact> 0.29462147E+09</totfact>
</mgrwt>
</event>
<event>
 4    1  0.3999109E+006  0.4776472E+01  0.7546771E-02  0.2608404E+00
         21   -1    0    0  501  502  0.00000000000E+00  0.00000000000E+00  0.62283111577E+03  0.62283111577E+03  0.00000000000E+00 0. -1.
         21   -1    0    0  502  503 -0.00000000000E+00 -0.00000000000E+00 -0.43537724297E-01  0.43537724297E-01  0.00000000000E+00 0. -1.
          5    1    1    2  501    0  0.84474552718E+00  0.10530426345E+00  0.43544074369E+03  0.43546694013E+03  0.47000000000E+01 0. -1.
         -5    1    1    2    0  503 -0.84474552718E+00 -0.10530426345E+00  0.18734683435E+03  0.18740771336E+03  0.47000000000E+01 0. -1.
<mgrwt>
<rscale>  2 0.47764719E+01</rscale>
<asrwt>0</asrwt>
<pdfrwt beam="1">  1       21 0.95813036E-01 0.47764719E+01</pdfrwt>
<pdfrwt beam="2">  1       21 0.66986103E-05 0.47764719E+01</pdfrwt>
<totfact> 0.16571277E+09</totfact>
</mgrwt>
</event>
<event>
 4    1  0.3999109E+006  0.6043000E+01  0.7546771E-02  0.2409860E+00
         21   -1    0    0  503  502  0.00000000000E+00  0.00000000000E+00  0.22015659854E+02  0.22015659854E+02  0.00000000000E+00 0.  1.
         21   -1    0    0  501  503 -0.00000000000E+00 -0.00000000000E+00 -0.47320798227E+01  0.47320798227E+01  0.00000000000E+00 0.  1.
          5    1    1    2  501    0  0.32093022429E+01 -0.20318051124E+01 -0.21361967330E+01  0.64094609276E+01  0.47000000000E+01 0.  1.
         -5    1    1    2    0  502 -0.32093022429E+01  0.20318051124E+01  0.19419776765E+02  0.20338278749E+02  0.47000000000E+01 0.  1.
<mgrwt>
<rscale>  2 0.60430003E+01</rscale>
<asrwt>0</asrwt>
<pdfrwt beam="1">  1       21 0.33870245E-02 0.60430003E+01</pdfrwt>
<pdfrwt beam="2">  1       21 0.72801229E-03 0.60430003E+01</pdfrwt>
<totfact> 0.86261661E+08</totfact>
</mgrwt>
</event>
<event>
 4    1  0.3999109E+006  0.5225174E+01  0.7546771E-02  0.2528694E+00
         21   -1    0    0  501  502  0.00000000000E+00  0.00000000000E+00  0.97484229576E+02  0.97484229576E+02  0.00000000000E+00 0.  1.
         21   -1    0    0  502  503 -0.00000000000E+00 -0.00000000000E+00 -0.52396719617E+00  0.52396719617E+00  0.00000000000E+00 0.  1.
          5    1    1    2  501    0 -0.12608735811E+01 -0.19033242045E+01  0.81913752546E+02  0.82080236972E+02  0.47000000000E+01 0.  1.
         -5    1    1    2    0  503  0.12608735811E+01  0.19033242045E+01  0.15046509833E+02  0.15927959800E+02  0.47000000000E+01 0.  1.
<mgrwt>
<rscale>  2 0.52251742E+01</rscale>
<asrwt>0</asrwt>
<pdfrwt beam="1">  1       21 0.14997559E-01 0.52251742E+01</pdfrwt>
<pdfrwt beam="2">  1       21 0.80610416E-04 0.52251742E+01</pdfrwt>
<totfact> 0.16329819E+09</totfact>
</mgrwt>
</event>
<event>
 4    1  0.3999109E+006  0.7547191E+01  0.7546771E-02  0.2249126E+00
         21   -1    0    0  501  502  0.00000000000E+00  0.00000000000E+00  0.16506465867E+02  0.16506465867E+02  0.00000000000E+00 0. -1.
         21   -1    0    0  502  503 -0.00000000000E+00 -0.00000000000E+00 -0.35995901523E+01  0.35995901523E+01  0.00000000000E+00 0.  1.
          5    1    1    2  501    0 -0.16379868414E+01  0.56733670084E+01  0.44093740862E+01  0.87408623108E+01  0.47000000000E+01 0. -1.
         -5    1    1    2    0  503  0.16379868414E+01 -0.56733670084E+01  0.84975016283E+01  0.11365193708E+02  0.47000000000E+01 0.  1.
<mgrwt>
<rscale>  2 0.75471911E+01</rscale>
<asrwt>0</asrwt>
<pdfrwt beam="1">  1       21 0.25394562E-02 0.75471911E+01</pdfrwt>
<pdfrwt beam="2">  1       21 0.55378311E-03 0.75471911E+01</pdfrwt>
<totfact> 0.22939309E+09</totfact>
</mgrwt>
</event>
<event>
 4    1  0.3999109E+006  0.5358316E+01  0.7546771E-02  0.2507262E+00
         21   -1    0    0  501  502  0.00000000000E+00  0.00000000000E+00  0.10504753830E+03  0.10504753830E+03  0.00000000000E+00 0.  1.
         21   -1    0    0  502  503 -0.00000000000E+00 -0.00000000000E+00 -0.27431953855E+00  0.27431953855E+00  0.00000000000E+00 0.  1.
          5    1    1    2  501    0 -0.18440594955E+01 -0.17947131198E+01  0.55566029569E+02  0.55823786979E+02  0.47000000000E+01 0.  1.
         -5    1    1    2    0  503  0.18440594955E+01  0.17947131198E+01  0.49207189197E+02  0.49498070864E+02  0.47000000000E+01 0.  1.
<mgrwt>
<rscale>  2 0.53583160E+01</rscale>
<asrwt>0</asrwt>
<pdfrwt beam="1">  1       21 0.16161128E-01 0.53583160E+01</pdfrwt>
<pdfrwt beam="2">  1       21 0.42203090E-04 0.53583160E+01</pdfrwt>
<totfact> 0.35138254E+09</totfact>
</mgrwt>
</event>
<event>
 4    1  0.3999109E+006  0.4973021E+01  0.7546771E-02  0.2571962E+00
         21   -1    0    0  501  502  0.00000000000E+00  0.00000000000E+00  0.57825172402E+02  0.57825172402E+02  0.00000000000E+00 0.  1.
         21   -1    0    0  502  503 -0.00000000000E+00 -0.00000000000E+00 -0.91644225305E+00  0.91644225305E+00  0.00000000000E+00 0.  1.
          5    1    1    2  501    0 -0.15455493641E+01  0.50220623400E+00  0.49903517291E+02  0.50150692636E+02  0.47000000000E+01 0.  1.
         -5    1    1    2    0  503  0.15455493641E+01 -0.50220623400E+00  0.70052128579E+01  0.85909220182E+01  0.47000000000E+01 0.  1.
<mgrwt>
<rscale>  2 0.49730206E+01</rscale>
<asrwt>0</asrwt>
<pdfrwt beam="1">  1       21 0.88961775E-02 0.49730206E+01</pdfrwt>
<pdfrwt beam="2">  1       21 0.14099116E-03 0.49730206E+01</pdfrwt>
<totfact> 0.16454461E+09</totfact>
</mgrwt>
</event>
<event>
 4    1  0.3999109E+006  0.5553842E+01  0.7546771E-02  0.2477381E+00
         21   -1    0    0  501  502  0.00000000000E+00  0.00000000000E+00  0.24482470136E+00  0.24482470136E+00  0.00000000000E+00 0.  1.
         21   -1    0    0  502  503 -0.00000000000E+00 -0.00000000000E+00 -0.14300049997E+03  0.14300049997E+03  0.00000000000E+00 0.  1.
          5    1    1    2  501    0  0.26423779158E+01  0.13315423609E+01 -0.46674492834E+02  0.47003759928E+02  0.47000000000E+01 0.  1.
         -5    1    1    2    0  503 -0.26423779158E+01 -0.13315423609E+01 -0.96081182437E+02  0.96241564746E+02  0.47000000000E+01 0.  1.
<mgrwt>
<rscale>  2 0.55538425E+01</rscale>
<asrwt>0</asrwt>
<pdfrwt beam="1">  1       21 0.37665428E-04 0.55538425E+01</pdfrwt>
<pdfrwt beam="2">  1       21 0.22000025E-01 0.55538425E+01</pdfrwt>
<totfact> 0.25807147E+09</totfact>
</mgrwt>
</event>
<event>
 4    1  0.3999109E+006  0.5414057E+01  0.7546771E-02  0.2498556E+00
         21   -1    0    0  503  502  0.00000000000E+00  0.00000000000E+00  0.23400142636E+01  0.23400142636E+01  0.00000000000E+00 0.  1.
         21   -1    0    0  501  503 -0.00000000000E+00 -0.00000000000E+00 -0.12851441191E+02  0.12851441191E+02  0.00000000000E+00 0.  1.
          5    1    1    2  501    0  0.17926988733E+01  0.20020611103E+01 -0.64636513669E+01  0.84315364515E+01  0.47000000000E+01 0.  1.
         -5    1    1    2    0  502 -0.17926988733E+01 -0.20020611103E+01 -0.40477755603E+01  0.67599190029E+01  0.47000000000E+01 0.  1.
<mgrwt>
<rscale>  2 0.54140574E+01</rscale>
<asrwt>0</asrwt>
<pdfrwt beam="1">  1       21 0.36000219E-03 0.54140574E+01</pdfrwt>
<pdfrwt beam="2">  1       21 0.19771448E-02 0.54140574E+01</pdfrwt>
<totfact> 0.45166104E+09</totfact>
</mgrwt>
</event>
<event>
 4    1  0.3999109E+006  0.4986130E+01  0.7546771E-02  0.2569620E+00
         21   -1    0    0  501  502  0.00000000000E+00  0.00000000000E+00  0.14361770547E+03  0.14361770547E+03  0.00000000000E+00 0. -1.
         21   -1    0    0  502  503 -0.00000000000E+00 -0.00000000000E+00 -0.23850544534E+00  0.23850544534E+00  0.00000000000E+00 0. -1.
          5    1    1    2  501    0 -0.16436074188E+01  0.26465522968E+00  0.10935366830E+03  0.10946728396E+03  0.47000000000E+01 0. -1.
         -5    1    1    2    0  503  0.16436074188E+01 -0.26465522968E+00  0.34025531728E+02  0.34388926955E+02  0.47000000000E+01 0. -1.
<mgrwt>
<rscale>  2 0.49861295E+01</rscale>
<asrwt>0</asrwt>
<pdfrwt beam="1">  1       21 0.22094963E-01 0.49861295E+01</pdfrwt>
<pdfrwt beam="2">  1       21 0.36693260E-04 0.49861295E+01</pdfrwt>
<totfact> 0.24061456E+09</totfact>
</mgrwt>
</event>
<event>
 4    1  0.3999109E+006  0.5524195E+01  0.7546771E-02  0.2481796E+00
         21   -1    0    0  503  502  0.00000000000E+00  0.00000000000E+00  0.90287369068E-01  0.90287369068E-01  0.00000000000E+00 0.  1.
         21   -1    0    0  501  503 -0.00000000000E+00 -0.00000000000E+00 -0.33920074402E+03  0.33920074402E+03  0.00000000000E+00 0. -1.
          5    1    1    2  501    0  0.21378260488E+01 -0.19637801966E+01 -0.17966717264E+03  0.17975207831E+03  0.47000000000E+01 0. -1.
         -5    1    1    2    0  502 -0.21378260488E+01  0.19637801966E+01 -0.15944328401E+03  0.15953895308E+03  0.47000000000E+01 0.  1.
<mgrwt>
<rscale>  2 0.55241952E+01</rscale>
<asrwt>0</asrwt>
<pdfrwt beam="1">  1       21 0.13890252E-04 0.55241952E+01</pdfrwt>
<pdfrwt beam="2">  1       21 0.52185152E-01 0.55241952E+01</pdfrwt>
<totfact> 0.22247984E+09</totfact>
</mgrwt>
</event>
<event>
 4    1  0.3999109E+006  0.5510576E+01  0.7546771E-02  0.2483838E+00
         21   -1    0    0  503  502  0.00000000000E+00  0.00000000000E+00  0.17864801445E+02  0.17864801445E+02  0.00000000000E+00 0. -1.
         21   -1    0    0  501  503 -0.00000000000E+00 -0.00000000000E+00 -0.18968180608E+01  0.18968180608E+01  0.00000000000E+00 0.  1.
          5    1    1    2  501    0  0.21575160340E+01  0.19030435937E+01  0.47994913242E+01  0.73076376024E+01  0.47000000000E+01 0.  1.
         -5    1    1    2    0  502 -0.21575160340E+01 -0.19030435937E+01  0.11168492060E+02  0.12453981904E+02  0.47000000000E+01 0.  1.
<mgrwt>
<rscale>  2 0.55105762E+01</rscale>
<asrwt>0</asrwt>
<pdfrwt beam="1">  1       21 0.27484309E-02 0.55105762E+01</pdfrwt>
<pdfrwt beam="2">  1       21 0.29181818E-03 0.55105762E+01</pdfrwt>
<totfact> 0.38183321E+09</totfact>
</mgrwt>
</event>
<event>
 4    1  0.3999109E+006  0.4747502E+01  0.7546771E-02  0.2613995E+00
         21   -1    0    0  503  502  0.00000000000E+00  0.00000000000E+00  0.50138414463E+02  0.50138414463E+02  0.00000000000E+00 0. -1.
         21   -1    0    0  501  503 -0.00000000000E+00 -0.00000000000E+00 -0.45332946439E+00  0.45332946439E+00  0.00000000000E+00 0. -1.
          5    1    1    2  501    0 -0.65111970375E+00 -0.15755072327E+00  0.22527077872E+02  0.23021902974E+02  0.47000000000E+01 0.  1.
         -5    1    1    2    0  502  0.65111970375E+00  0.15755072327E+00  0.27158007127E+02  0.27569840953E+02  0.47000000000E+01 0.  1.
<mgrwt>
<rscale>  2 0.47475024E+01</rscale>
<asrwt>0</asrwt>
<pdfrwt beam="1">  1       21 0.77135978E-02 0.47475024E+01</pdfrwt>
<pdfrwt beam="2">  1       21 0.69743034E-04 0.47475024E+01</pdfrwt>
<totfact> 0.49429852E+09</totfact>
</mgrwt>
</event>
<event>
 4    1  0.3999109E+006  0.5015829E+01  0.7546771E-02  0.2564353E+00
         21   -1    0    0  501  502  0.00000000000E+00  0.00000000000E+00  0.82559720303E+00  0.82559720303E+00  0.00000000000E+00 0. -1.
         21   -1    0    0  502  503 -0.00000000000E+00 -0.00000000000E+00 -0.34235603868E+02  0.34235603868E+02  0.00000000000E+00 0. -1.
          5    1    1    2  501    0  0.75712810261E+00 -0.15796500130E+01 -0.22516581826E+02  0.23068484871E+02  0.47000000000E+01 0. -1.
         -5    1    1    2    0  503 -0.75712810261E+00  0.15796500130E+01 -0.10893424839E+02  0.11992716200E+02  0.47000000000E+01 0. -1.
<mgrwt>
<rscale>  2 0.50158287E+01</rscale>
<asrwt>0</asrwt>
<pdfrwt beam="1">  1       21 0.12701495E-03 0.50158287E+01</pdfrwt>
<pdfrwt beam="2">  1       21 0.52670161E-02 0.50158287E+01</pdfrwt>
<totfact> 0.41499270E+09</totfact>
</mgrwt>
</event>
<event>
 4    1  0.3999109E+006  0.7132351E+01  0.7546771E-02  0.2287854E+00
         21   -1    0    0  501  502  0.00000000000E+00  0.00000000000E+00  0.65873158066E-01  0.65873158066E-01  0.00000000000E+00 0.  1.
         21   -1    0    0  502  503 -0.00000000000E+00 -0.00000000000E+00 -0.79420535163E+03  0.79420535163E+03  0.00000000000E+00 0.  1.
          5    1    1    2  501    0  0.47699274789E+01 -0.24552429037E+01 -0.33103678755E+03  0.33111361364E+03  0.47000000000E+01 0.  1.
         -5    1    1    2    0  503 -0.47699274789E+01  0.24552429037E+01 -0.46310269092E+03  0.46315761114E+03  0.47000000000E+01 0.  1.
<mgrwt>
<rscale>  2 0.71323507E+01</rscale>
<asrwt>0</asrwt>
<pdfrwt beam="1">  1       21 0.10134583E-04 0.71323507E+01</pdfrwt>
<pdfrwt beam="2">  1       21 0.12218241E+00 0.71323507E+01</pdfrwt>
<totfact> 0.76692838E+08</totfact>
</mgrwt>
</event>
<event>
 4    1  0.3999109E+006  0.6409361E+01  0.7546771E-02  0.2365007E+00
         21   -1    0    0  501  502  0.00000000000E+00  0.00000000000E+00  0.16852058836E+03  0.16852058836E+03  0.00000000000E+00 0.  1.
         21   -1    0    0  502  503 -0.00000000000E+00 -0.00000000000E+00 -0.77350726083E+00  0.77350726083E+00  0.00000000000E+00 0.  1.
          5    1    1    2  501    0 -0.43572412576E+01  0.65974745647E-01  0.15392396234E+03  0.15405734675E+03  0.47000000000E+01 0.  1.
         -5    1    1    2    0  503  0.43572412576E+01 -0.65974745647E-01  0.13823118762E+02  0.15236748877E+02  0.47000000000E+01 0.  1.
<mgrwt>
<rscale>  2 0.64093607E+01</rscale>
<asrwt>0</asrwt>
<pdfrwt beam="1">  1       21 0.25926215E-01 0.64093607E+01</pdfrwt>
<pdfrwt beam="2">  1       21 0.11900125E-03 0.64093607E+01</pdfrwt>
<totfact> 0.47167848E+08</totfact>
</mgrwt>
</event>
<event>
 4    1  0.3999109E+006  0.5285528E+01  0.7546771E-02  0.2518865E+00
         21   -1    0    0  503  502  0.00000000000E+00  0.00000000000E+00  0.11898602725E+03  0.11898602725E+03  0.00000000000E+00 0. -1.
         21   -1    0    0  501  503 -0.00000000000E+00 -0.00000000000E+00 -0.37132915079E+00  0.37132915079E+00  0.00000000000E+00 0.  1.
          5    1    1    2  501    0 -0.20972353231E+01 -0.12034975245E+01  0.23119122792E+02  0.23715620189E+02  0.47000000000E+01 0.  1.
         -5    1    1    2    0  502  0.20972353231E+01  0.12034975245E+01  0.95495575308E+02  0.95641736212E+02  0.47000000000E+01 0. -1.
<mgrwt>
<rscale>  2 0.52855276E+01</rscale>
<asrwt>0</asrwt>
<pdfrwt beam="1">  1       21 0.18305512E-01 0.52855276E+01</pdfrwt>
<pdfrwt beam="2">  1       21 0.57127656E-04 0.52855276E+01</pdfrwt>
<totfact> 0.19060046E+09</totfact>
</mgrwt>
</event>
<event>
 4    1  0.3999109E+006  0.6101021E+01  0.7546771E-02  0.2402458E+00
         21   -1    0    0  501  502  0.00000000000E+00  0.00000000000E+00  0.10549618783E+01  0.10549618783E+01  0.00000000000E+00 0.  1.
         21   -1    0    0  502  503 -0.00000000000E+00 -0.00000000000E+00 -0.35307477711E+02  0.35307477711E+02  0.00000000000E+00 0. -1.
          5    1    1    2  501    0  0.30799585476E+01 -0.23761965794E+01 -0.16649727246E+02  0.17732339728E+02  0.47000000000E+01 0.  1.
         -5    1    1    2    0  503 -0.30799585476E+01  0.23761965794E+01 -0.17602788586E+02  0.18630099862E+02  0.47000000000E+01 0. -1.
<mgrwt>
<rscale>  2 0.61010208E+01</rscale>
<asrwt>0</asrwt>
<pdfrwt beam="1">  1       21 0.16230185E-03 0.61010208E+01</pdfrwt>
<pdfrwt beam="2">  1       21 0.54319189E-02 0.61010208E+01</pdfrwt>
<totfact> 0.34310863E+09</totfact>
</mgrwt>
</event>
<event>
 4    1  0.3999109E+006  0.4772097E+01  0.7546771E-02  0.2609244E+00
         21   -1    0    0  501  502  0.00000000000E+00  0.00000000000E+00  0.16615151789E+01  0.16615151789E+01  0.00000000000E+00 0.  1.
         21   -1    0    0  502  503 -0.00000000000E+00 -0.00000000000E+00 -0.34508338690E+02  0.34508338690E+02  0.00000000000E+00 0.  1.
          5    1    1    2  501    0 -0.41347353568E+00 -0.71550541357E+00 -0.23820355662E+01  0.53335730801E+01  0.47000000000E+01 0.  1.
         -5    1    1    2    0  503  0.41347353568E+00  0.71550541357E+00 -0.30464787945E+02  0.30836280789E+02  0.47000000000E+01 0.  1.
<mgrwt>
<rscale>  2 0.47720969E+01</rscale>
<asrwt>0</asrwt>
<pdfrwt beam="1">  1       21 0.25561772E-03 0.47720969E+01</pdfrwt>
<pdfrwt beam="2">  1       21 0.53089752E-02 0.47720969E+01</pdfrwt>
<totfact> 0.15271102E+09</totfact>
</mgrwt>
</event>
<event>
 4    1  0.3999109E+006  0.5832018E+01  0.7546771E-02  0.2437813E+00
         21   -1    0    0  501  502  0.00000000000E+00  0.00000000000E+00  0.20503406626E+00  0.20503406626E+00  0.00000000000E+00 0. -1.
         21   -1    0    0  502  503 -0.00000000000E+00 -0.00000000000E+00 -0.49534448241E+03  0.49534448241E+03  0.00000000000E+00 0.  1.
          5    1    1    2  501    0  0.32909112900E+01  0.10451470315E+01 -0.45499061280E+02  0.45871309190E+02  0.47000000000E+01 0. -1.
         -5    1    1    2    0  503 -0.32909112900E+01 -0.10451470315E+01 -0.44964038706E+03  0.44967820728E+03  0.47000000000E+01 0.  1.
<mgrwt>
<rscale>  2 0.58320176E+01</rscale>
<asrwt>0</asrwt>
<pdfrwt beam="1">  1       21 0.31543751E-04 0.58320176E+01</pdfrwt>
<pdfrwt beam="2">  1       21 0.76206726E-01 0.58320176E+01</pdfrwt>
<totfact> 0.38449004E+08</totfact>
</mgrwt>
</event>
<event>
 4    1  0.3999109E+006  0.5031924E+01  0.7546771E-02  0.2561521E+00
         21   -1    0    0  503  502  0.00000000000E+00  0.00000000000E+00  0.74531507048E+01  0.74531507048E+01  0.00000000000E+00 0. -1.
         21   -1    0    0  501  503 -0.00000000000E+00 -0.00000000000E+00 -0.10992071447E+02  0.10992071447E+02  0.00000000000E+00 0. -1.
          5    1    1    2  501    0  0.18167418314E+00  0.17880878480E+01 -0.94355293968E+01  0.10693431566E+02  0.47000000000E+01 0. -1.
         -5    1    1    2    0  502 -0.18167418314E+00 -0.17880878480E+01  0.58966086545E+01  0.77517905858E+01  0.47000000000E+01 0. -1.
<mgrwt>
<rscale>  2 0.50319244E+01</rscale>
<asrwt>0</asrwt>
<pdfrwt beam="1">  1       21 0.11466386E-02 0.50319244E+01</pdfrwt>
<pdfrwt beam="2">  1       21 0.16910879E-02 0.50319244E+01</pdfrwt>
<totfact> 0.10547721E+09</totfact>
</mgrwt>
</event>
<event>
 4    1  0.3999109E+006  0.5438110E+01  0.7546771E-02  0.2494847E+00
         21   -1    0    0  501  502  0.00000000000E+00  0.00000000000E+00  0.20953452500E+02  0.20953452500E+02  0.00000000000E+00 0. -1.
         21   -1    0    0  502  503 -0.00000000000E+00 -0.00000000000E+00 -0.17353885392E+01  0.17353885392E+01  0.00000000000E+00 0.  1.
          5    1    1    2  501    0 -0.18939971465E+01  0.19737818794E+01  0.14510994390E+02  0.15496515682E+02  0.47000000000E+01 0. -1.
         -5    1    1    2    0  503  0.18939971465E+01 -0.19737818794E+01  0.47070695708E+01  0.71923253571E+01  0.47000000000E+01 0.  1.
<mgrwt>
<rscale>  2 0.54381100E+01</rscale>
<asrwt>0</asrwt>
<pdfrwt beam="1">  1       21 0.32236079E-02 0.54381100E+01</pdfrwt>
<pdfrwt beam="2">  1       21 0.26698287E-03 0.54381100E+01</pdfrwt>
<totfact> 0.33815651E+09</totfact>
</mgrwt>
</event>
<event>
 4    1  0.3999109E+006  0.4734165E+01  0.7546771E-02  0.2616590E+00
         21   -1    0    0  501  502  0.00000000000E+00  0.00000000000E+00  0.39640885282E+01  0.39640885282E+01  0.00000000000E+00 0.  1.
         21   -1    0    0  502  503 -0.00000000000E+00 -0.00000000000E+00 -0.22747017823E+02  0.22747017823E+02  0.00000000000E+00 0.  1.
          5    1    1    2  501    0  0.19328843919E+00 -0.53381754092E+00  0.21859357793E+01  0.52144641929E+01  0.47000000000E+01 0.  1.
         -5    1    1    2    0  503 -0.19328843919E+00  0.53381754092E+00 -0.20968865074E+02  0.21496642158E+02  0.47000000000E+01 0.  1.
<mgrwt>
<rscale>  2 0.47341654E+01</rscale>
<asrwt>0</asrwt>
<pdfrwt beam="1">  1       21 0.60985978E-03 0.47341654E+01</pdfrwt>
<pdfrwt beam="2">  1       21 0.34995412E-02 0.47341654E+01</pdfrwt>
<totfact> 0.84778657E+08</totfact>
</mgrwt>
</event>
<event>
 4    1  0.3999109E+006  0.7154455E+01  0.7546771E-02  0.2285699E+00
         21   -1    0    0  503  502  0.00000000000E+00  0.00000000000E+00  0.40127274665E+03  0.40127274665E+03  0.00000000000E+00 0.  1.
         21   -1    0    0  501  503 -0.00000000000E+00 -0.00000000000E+00 -0.50176398536E+00  0.50176398536E+00  0.00000000000E+00 0. -1.
          5    1    1    2  501    0 -0.36601152365E+01 -0.39622951521E+01  0.26902449949E+02  0.27837529339E+02  0.47000000000E+01 0. -1.
         -5    1    1    2    0  502  0.36601152365E+01  0.39622951521E+01  0.37386853272E+03  0.37393698130E+03  0.47000000000E+01 0.  1.
<mgrwt>
<rscale>  2 0.71544550E+01</rscale>
<asrwt>0</asrwt>
<pdfrwt beam="1">  1       21 0.61734012E-01 0.71544550E+01</pdfrwt>
<pdfrwt beam="2">  1       21 0.77194780E-04 0.71544550E+01</pdfrwt>
<totfact> 0.19609921E+08</totfact>
</mgrwt>
</event>
<event>
 4    1  0.3999109E+006  0.6026996E+01  0.7546771E-02  0.2411923E+00
         21   -1    0    0  501  502  0.00000000000E+00  0.00000000000E+00  0.60578619302E-01  0.60578619302E-01  0.00000000000E+00 0.  1.
         21   -1    0    0  502  503 -0.00000000000E+00 -0.00000000000E+00 -0.95603241832E+03  0.95603241832E+03  0.00000000000E+00 0. -1.
          5    1    1    2  501    0 -0.36870244952E+01  0.80032938919E+00 -0.18610549817E+03  0.18620306423E+03  0.47000000000E+01 0.  1.
         -5    1    1    2    0  503  0.36870244952E+01 -0.80032938919E+00 -0.76986634152E+03  0.76988993271E+03  0.47000000000E+01 0. -1.
<mgrwt>
<rscale>  2 0.60269957E+01</rscale>
<asrwt>0</asrwt>
<pdfrwt beam="1">  1       21 0.93197082E-05 0.60269957E+01</pdfrwt>
<pdfrwt beam="2">  1       21 0.14708316E+00 0.60269957E+01</pdfrwt>
<totfact> 0.52160886E+08</totfact>
</mgrwt>
</event>
<event>
 4    1  0.3999109E+006  0.7819127E+01  0.7546771E-02  0.2225565E+00
         21   -1    0    0  503  502  0.00000000000E+00  0.00000000000E+00  0.21908939981E+02  0.21908939981E+02  0.00000000000E+00 0. -1.
         21   -1    0    0  501  503 -0.00000000000E+00 -0.00000000000E+00 -0.27923435693E+01  0.27923435693E+01  0.00000000000E+00 0.  1.
          5    1    1    2  501    0 -0.51324396368E+01 -0.35646612451E+01  0.98682950705E+01  0.12590551776E+02  0.47000000000E+01 0. -1.
         -5    1    1    2    0  502  0.51324396368E+01  0.35646612451E+01  0.92483013408E+01  0.12110731774E+02  0.47000000000E+01 0.  1.
<mgrwt>
<rscale>  2 0.78191270E+01</rscale>
<asrwt>0</asrwt>
<pdfrwt beam="1">  1       21 0.33706060E-02 0.78191270E+01</pdfrwt>
<pdfrwt beam="2">  1       21 0.42959133E-03 0.78191270E+01</pdfrwt>
<totfact> 0.22166684E+09</totfact>
</mgrwt>
</event>
<event>
 4    1  0.3999109E+006  0.5847562E+01  0.7546771E-02  0.2435696E+00
         21   -1    0    0  503  502  0.00000000000E+00  0.00000000000E+00  0.12775693079E+02  0.12775693079E+02  0.00000000000E+00 0.  1.
         21   -1    0    0  501  503 -0.00000000000E+00 -0.00000000000E+00 -0.55656587688E+01  0.55656587688E+01  0.00000000000E+00 0.  1.
          5    1    1    2  501    0  0.34186082476E+01  0.64583305675E+00 -0.30023692120E+01  0.65732947274E+01  0.47000000000E+01 0.  1.
         -5    1    1    2    0  502 -0.34186082476E+01 -0.64583305675E+00  0.10212403522E+02  0.11768057120E+02  0.47000000000E+01 0.  1.
<mgrwt>
<rscale>  2 0.58475621E+01</rscale>
<asrwt>0</asrwt>
<pdfrwt beam="1">  1       21 0.19654912E-02 0.58475621E+01</pdfrwt>
<pdfrwt beam="2">  1       21 0.85625520E-03 0.58475621E+01</pdfrwt>
<totfact> 0.14689466E+09</totfact>
</mgrwt>
</event>
<event>
 4    1  0.3999109E+006  0.1040146E+02  0.7546771E-02  0.2052835E+00
         21   -1    0    0  501  502  0.00000000000E+00  0.00000000000E+00  0.10330208558E+02  0.10330208558E+02  0.00000000000E+00 0.  1.
         21   -1    0    0  502  503 -0.00000000000E+00 -0.00000000000E+00 -0.24104779224E+02  0.24104779224E+02  0.00000000000E+00 0. -1.
          5    1    1    2  501    0 -0.34086319769E+01  0.86302728406E+01  0.60603774922E+01  0.12038212351E+02  0.47000000000E+01 0.  1.
         -5    1    1    2    0  503  0.34086319769E+01 -0.86302728406E+01 -0.19834948158E+02  0.22396775431E+02  0.47000000000E+01 0. -1.
<mgrwt>
<rscale>  2 0.10401461E+02</rscale>
<asrwt>0</asrwt>
<pdfrwt beam="1">  1       21 0.15892629E-02 0.10401461E+02</pdfrwt>
<pdfrwt beam="2">  1       21 0.37084275E-02 0.10401461E+02</pdfrwt>
<totfact> 0.34921345E+08</totfact>
</mgrwt>
</event>
<event>
 4    1  0.3999109E+006  0.5955555E+01  0.7546771E-02  0.2421244E+00
         21   -1    0    0  501  502  0.00000000000E+00  0.00000000000E+00  0.17614244083E+01  0.17614244083E+01  0.00000000000E+00 0. -1.
         21   -1    0    0  502  503 -0.00000000000E+00 -0.00000000000E+00 -0.23624359078E+02  0.23624359078E+02  0.00000000000E+00 0. -1.
          5    1    1    2  501    0 -0.28626538563E+01  0.22768059424E+01 -0.60542705360E+01  0.84925157711E+01  0.47000000000E+01 0. -1.
         -5    1    1    2    0  503  0.28626538563E+01 -0.22768059424E+01 -0.15808664133E+02  0.16893267715E+02  0.47000000000E+01 0. -1.
<mgrwt>
<rscale>  2 0.59555548E+01</rscale>
<asrwt>0</asrwt>
<pdfrwt beam="1">  1       21 0.27098837E-03 0.59555548E+01</pdfrwt>
<pdfrwt beam="2">  1       21 0.36345168E-02 0.59555548E+01</pdfrwt>
<totfact> 0.30224643E+09</totfact>
</mgrwt>
</event>
<event>
 4    1  0.3999109E+006  0.6280588E+01  0.7546771E-02  0.2380275E+00
         21   -1    0    0  501  502  0.00000000000E+00  0.00000000000E+00  0.24284314038E+01  0.24284314038E+01  0.00000000000E+00 0. -1.
         21   -1    0    0  502  503 -0.00000000000E+00 -0.00000000000E+00 -0.35466319836E+02  0.35466319836E+02  0.00000000000E+00 0. -1.
          5    1    1    2  501    0 -0.33315621654E+01  0.25012947814E+01 -0.25696699812E+01  0.67859403076E+01  0.47000000000E+01 0. -1.
         -5    1    1    2    0  503  0.33315621654E+01 -0.25012947814E+01 -0.30468218451E+02  0.31108810932E+02  0.47000000000E+01 0. -1.
<mgrwt>
<rscale>  2 0.62805877E+01</rscale>
<asrwt>0</asrwt>
<pdfrwt beam="1">  1       21 0.37360485E-03 0.62805877E+01</pdfrwt>
<pdfrwt beam="2">  1       21 0.54563566E-02 0.62805877E+01</pdfrwt>
<totfact> 0.11142576E+09</totfact>
</mgrwt>
</event>
<event>
 4    1  0.3999109E+006  0.2084006E+02  0.7546771E-02  0.1729121E+00
         21   -1    0    0  501  502  0.00000000000E+00  0.00000000000E+00  0.53103104763E+00  0.53103104763E+00  0.00000000000E+00 0. -1.
         21   -1    0    0  502  503 -0.00000000000E+00 -0.00000000000E+00 -0.94552779789E+03  0.94552779789E+03  0.00000000000E+00 0.  1.
          5    1    1    2  501    0 -0.19302735242E+02  0.62946548986E+01 -0.29868060568E+03  0.29940676758E+03  0.47000000000E+01 0. -1.
         -5    1    1    2    0  503  0.19302735242E+02 -0.62946548986E+01 -0.64631616117E+03  0.64665206135E+03  0.47000000000E+01 0.  1.
<mgrwt>
<rscale>  2 0.20840064E+02</rscale>
<asrwt>0</asrwt>
<pdfrwt beam="1">  1       21 0.81697789E-04 0.20840064E+02</pdfrwt>
<pdfrwt beam="2">  1       21 0.14546456E+00 0.20840064E+02</pdfrwt>
<totfact> 0.44369521E+07</totfact>
</mgrwt>
</event>
<event>
 4    1  0.3999109E+006  0.5738337E+01  0.7546771E-02  0.2450776E+00
         21   -1    0    0  503  502  0.00000000000E+00  0.00000000000E+00  0.14987064980E-01  0.14987064980E-01  0.00000000000E+00 0. -1.
         21   -1    0    0  501  503 -0.00000000000E+00 -0.00000000000E+00 -0.22069183085E+04  0.22069183085E+04  0.00000000000E+00 0.  1.
          5    1    1    2  501    0 -0.30277744266E+01  0.12927073519E+01 -0.11769452095E+04  0.11769591984E+04  0.47000000000E+01 0. -1.
         -5    1    1    2    0  502  0.30277744266E+01 -0.12927073519E+01 -0.10299581119E+04  0.10299740972E+04  0.47000000000E+01 0.  1.
<mgrwt>
<rscale>  2 0.57383369E+01</rscale>
<asrwt>0</asrwt>
<pdfrwt beam="1">  1       21 0.23058950E-05 0.57383369E+01</pdfrwt>
<pdfrwt beam="2">  1       21 0.33949752E+00 0.57383369E+01</pdfrwt>
<totfact> 0.46701883E+08</totfact>
</mgrwt>
</event>
<event>
 4    1  0.3999109E+006  0.1025524E+02  0.7546771E-02  0.2060746E+00
         21   -1    0    0  501  502  0.00000000000E+00  0.00000000000E+00  0.19103498878E+03  0.19103498878E+03  0.00000000000E+00 0.  1.
         21   -1    0    0  502  503 -0.00000000000E+00 -0.00000000000E+00 -0.55423294054E+00  0.55423294054E+00  0.00000000000E+00 0.  1.
          5    1    1    2  501    0 -0.83434940381E+01 -0.36695991252E+01  0.10307404707E+03  0.10358295723E+03  0.47000000000E+01 0.  1.
         -5    1    1    2    0  503  0.83434940381E+01  0.36695991252E+01  0.87406708776E+02  0.88006264490E+02  0.47000000000E+01 0.  1.
<mgrwt>
<rscale>  2 0.10255235E+02</rscale>
<asrwt>0</asrwt>
<pdfrwt beam="1">  1       21 0.29389946E-01 0.10255235E+02</pdfrwt>
<pdfrwt beam="2">  1       21 0.85266758E-04 0.10255235E+02</pdfrwt>
<totfact> 0.79610005E+08</totfact>
</mgrwt>
</event>
<event>
 4    1  0.3999109E+006  0.5936380E+01  0.7546771E-02  0.2423778E+00
         21   -1    0    0  501  502  0.00000000000E+00  0.00000000000E+00  0.37072041805E+01  0.37072041805E+01  0.00000000000E+00 0. -1.
         21   -1    0    0  502  503 -0.00000000000E+00 -0.00000000000E+00 -0.42344095505E+02  0.42344095505E+02  0.00000000000E+00 0. -1.
          5    1    1    2  501    0 -0.46509583089E+00  0.35964281428E+01  0.95859525158E+00  0.60132781721E+01  0.47000000000E+01 0. -1.
         -5    1    1    2    0  503  0.46509583089E+00 -0.35964281428E+01 -0.39595486576E+02  0.40038021514E+02  0.47000000000E+01 0. -1.
<mgrwt>
<rscale>  2 0.59363802E+01</rscale>
<asrwt>0</asrwt>
<pdfrwt beam="1">  1       21 0.57033910E-03 0.59363802E+01</pdfrwt>
<pdfrwt beam="2">  1       21 0.65144762E-02 0.59363802E+01</pdfrwt>
<totfact> 0.45475619E+08</totfact>
</mgrwt>
</event>
<event>
 4    1  0.3999109E+006  0.5912964E+01  0.7546771E-02  0.2426891E+00
         21   -1    0    0  503  502  0.00000000000E+00  0.00000000000E+00  0.12085003256E+03  0.12085003256E+03  0.00000000000E+00 0. -1.
         21   -1    0    0  501  503 -0.00000000000E+00 -0.00000000000E+00 -0.63869262900E+00  0.63869262900E+00  0.00000000000E+00 0.  1.
          5    1    1    2  501    0  0.33606535166E+01  0.12566440296E+01  0.15178344954E+02  0.16289423005E+02  0.47000000000E+01 0.  1.
         -5    1    1    2    0  502 -0.33606535166E+01 -0.12566440296E+01  0.10503299498E+03  0.10519930218E+03  0.47000000000E+01 0. -1.
<mgrwt>
<rscale>  2 0.59129643E+01</rscale>
<asrwt>0</asrwt>
<pdfrwt beam="1">  1       21 0.18592295E-01 0.59129643E+01</pdfrwt>
<pdfrwt beam="2">  1       21 0.98260500E-04 0.59129643E+01</pdfrwt>
<totfact> 0.99024751E+08</totfact>
</mgrwt>
</event>
<event>
 4    1  0.3999109E+006  0.4874277E+01  0.7546771E-02  0.2589952E+00
         21   -1    0    0  503  502  0.00000000000E+00  0.00000000000E+00  0.32705795001E+02  0.32705795001E+02  0.00000000000E+00 0. -1.
         21   -1    0    0  501  503 -0.00000000000E+00 -0.00000000000E+00 -0.90228430068E+00  0.90228430068E+00  0.00000000000E+00 0. -1.
          5    1    1    2  501    0 -0.88404895246E+00  0.94182699940E+00  0.84832854046E+01  0.97839006487E+01  0.47000000000E+01 0. -1.
         -5    1    1    2    0  502  0.88404895246E+00 -0.94182699940E+00  0.23320225295E+02  0.23824178653E+02  0.47000000000E+01 0. -1.
<mgrwt>
<rscale>  2 0.48742774E+01</rscale>
<asrwt>0</asrwt>
<pdfrwt beam="1">  1       21 0.50316599E-02 0.48742774E+01</pdfrwt>
<pdfrwt beam="2">  1       21 0.13881299E-03 0.48742774E+01</pdfrwt>
<totfact> 0.38257831E+09</totfact>
</mgrwt>
</event>
<event>
 4    1  0.3999109E+006  0.7075739E+01  0.7546771E-02  0.2293425E+00
         21   -1    0    0  501  502  0.00000000000E+00  0.00000000000E+00  0.56172882603E+02  0.56172882603E+02  0.00000000000E+00 0. -1.
         21   -1    0    0  502  503 -0.00000000000E+00 -0.00000000000E+00 -0.96917009036E+00  0.96917009036E+00  0.00000000000E+00 0. -1.
          5    1    1    2  501    0 -0.13576393524E+00  0.52874993538E+01  0.35701228082E+02  0.36395655892E+02  0.47000000000E+01 0. -1.
         -5    1    1    2    0  503  0.13576393524E+00 -0.52874993538E+01  0.19502484431E+02  0.20746396801E+02  0.47000000000E+01 0. -1.
<mgrwt>
<rscale>  2 0.70757389E+01</rscale>
<asrwt>0</asrwt>
<pdfrwt beam="1">  1       21 0.86419794E-02 0.70757389E+01</pdfrwt>
<pdfrwt beam="2">  1       21 0.14910314E-03 0.70757389E+01</pdfrwt>
<totfact> 0.21495460E+09</totfact>
</mgrwt>
</event>
<event>
 4    1  0.3999109E+006  0.5969495E+01  0.7546771E-02  0.2419411E+00
         21   -1    0    0  503  502  0.00000000000E+00  0.00000000000E+00  0.76027010932E+02  0.76027010932E+02  0.00000000000E+00 0. -1.
         21   -1    0    0  501  503 -0.00000000000E+00 -0.00000000000E+00 -0.84064457260E+00  0.84064457260E+00  0.00000000000E+00 0.  1.
          5    1    1    2  501    0 -0.36253020047E+01  0.63407984730E+00  0.12028596508E+02  0.13428402951E+02  0.47000000000E+01 0.  1.
         -5    1    1    2    0  502  0.36253020047E+01 -0.63407984730E+00  0.63157769852E+02  0.63439252554E+02  0.47000000000E+01 0. -1.
<mgrwt>
<rscale>  2 0.59694951E+01</rscale>
<asrwt>0</asrwt>
<pdfrwt beam="1">  1       21 0.11696458E-01 0.59694951E+01</pdfrwt>
<pdfrwt beam="2">  1       21 0.12932999E-03 0.59694951E+01</pdfrwt>
<totfact> 0.14304122E+09</totfact>
</mgrwt>
</event>
<event>
 4    1  0.3999109E+006  0.5395405E+01  0.7546771E-02  0.2501452E+00
         21   -1    0    0  501  502  0.00000000000E+00  0.00000000000E+00  0.23822880197E+03  0.23822880197E+03  0.00000000000E+00 0. -1.
         21   -1    0    0  502  503 -0.00000000000E+00 -0.00000000000E+00 -0.32911154727E+00  0.32911154727E+00  0.00000000000E+00 0.  1.
          5    1    1    2  501    0 -0.25038440529E+01 -0.86669777332E+00  0.21352776205E+03  0.21359591655E+03  0.47000000000E+01 0. -1.
         -5    1    1    2    0  503  0.25038440529E+01  0.86669777332E+00  0.24371928375E+02  0.24961996971E+02  0.47000000000E+01 0.  1.
<mgrwt>
<rscale>  2 0.53954055E+01</rscale>
<asrwt>0</asrwt>
<pdfrwt beam="1">  1       21 0.36650447E-01 0.53954055E+01</pdfrwt>
<pdfrwt beam="2">  1       21 0.50632736E-04 0.53954055E+01</pdfrwt>
<totfact> 0.72761066E+08</totfact>
</mgrwt>
</event>
<event>
 4    1  0.3999109E+006  0.5271092E+01  0.7546771E-02  0.2521198E+00
         21   -1    0    0  503  502  0.00000000000E+00  0.00000000000E+00  0.42854808475E+00  0.42854808475E+00  0.00000000000E+00 0.  1.
         21   -1    0    0  501  503 -0.00000000000E+00 -0.00000000000E+00 -0.67015526199E+02  0.67015526199E+02  0.00000000000E+00 0.  1.
          5    1    1    2  501    0  0.17020881563E+01  0.16725152062E+01 -0.39377973667E+02  0.39729198599E+02  0.47000000000E+01 0.  1.
         -5    1    1    2    0  502 -0.17020881563E+01 -0.16725152062E+01 -0.27209004448E+02  0.27714875685E+02  0.47000000000E+01 0.  1.
<mgrwt>
<rscale>  2 0.52710920E+01</rscale>
<asrwt>0</asrwt>
<pdfrwt beam="1">  1       21 0.65930471E-04 0.52710920E+01</pdfrwt>
<pdfrwt beam="2">  1       21 0.10310081E-01 0.52710920E+01</pdfrwt>
<totfact> 0.38311783E+09</totfact>
</mgrwt>
</event>
<event>
 4    1  0.3999109E+006  0.7465436E+01  0.7546771E-02  0.2256481E+00
         21   -1    0    0  501  502  0.00000000000E+00  0.00000000000E+00  0.43154319638E+00  0.43154319638E+00  0.00000000000E+00 0. -1.
         21   -1    0    0  502  503 -0.00000000000E+00 -0.00000000000E+00 -0.18766793615E+03  0.18766793615E+03  0.00000000000E+00 0. -1.
          5    1    1    2  501    0  0.20417557329E+01 -0.54289933614E+01 -0.41099220907E+02  0.41771745170E+02  0.47000000000E+01 0. -1.
         -5    1    1    2    0  503 -0.20417557329E+01  0.54289933614E+01 -0.14613717204E+03  0.14632773417E+03  0.47000000000E+01 0. -1.
<mgrwt>
<rscale>  2 0.74654360E+01</rscale>
<asrwt>0</asrwt>
<pdfrwt beam="1">  1       21 0.66391293E-04 0.74654360E+01</pdfrwt>
<pdfrwt beam="2">  1       21 0.28871976E-01 0.74654360E+01</pdfrwt>
<totfact> 0.95948381E+08</totfact>
</mgrwt>
</event>
<event>
 4    1  0.3999109E+006  0.4728688E+01  0.7546771E-02  0.2617659E+00
         21   -1    0    0  503  502  0.00000000000E+00  0.00000000000E+00  0.76736716797E+02  0.76736716797E+02  0.00000000000E+00 0.  1.
         21   -1    0    0  501  503 -0.00000000000E+00 -0.00000000000E+00 -0.15079731792E+01  0.15079731792E+01  0.00000000000E+00 0.  1.
          5    1    1    2  501    0 -0.31889836648E+00  0.41084535207E+00  0.24746305667E+01  0.53370672202E+01  0.47000000000E+01 0.  1.
         -5    1    1    2    0  502  0.31889836648E+00 -0.41084535207E+00  0.72754113051E+02  0.72907622756E+02  0.47000000000E+01 0.  1.
<mgrwt>
<rscale>  2 0.47286880E+01</rscale>
<asrwt>0</asrwt>
<pdfrwt beam="1">  1       21 0.11805646E-01 0.47286880E+01</pdfrwt>
<pdfrwt beam="2">  1       21 0.23199593E-03 0.47286880E+01</pdfrwt>
<totfact> 0.52522826E+08</totfact>
</mgrwt>
</event>
<event>
 4    1  0.3999109E+006  0.6268814E+01  0.7546771E-02  0.2381697E+00
         21   -1    0    0  503  502  0.00000000000E+00  0.00000000000E+00  0.16210685235E+01  0.16210685235E+01  0.00000000000E+00 0. -1.
         21   -1    0    0  501  503 -0.00000000000E+00 -0.00000000000E+00 -0.25476834708E+02  0.25476834708E+02  0.00000000000E+00 0. -1.
          5    1    1    2  501    0  0.20019925424E+01 -0.36331880404E+01 -0.14910709682E+02  0.16174896992E+02  0.47000000000E+01 0. -1.
         -5    1    1    2    0  502 -0.20019925424E+01  0.36331880404E+01 -0.89450565026E+01  0.10923006240E+02  0.47000000000E+01 0. -1.
<mgrwt>
<rscale>  2 0.62688140E+01</rscale>
<asrwt>0</asrwt>
<pdfrwt beam="1">  1       21 0.24939516E-03 0.62688140E+01</pdfrwt>
<pdfrwt beam="2">  1       21 0.39195129E-02 0.62688140E+01</pdfrwt>
<totfact> 0.31701285E+09</totfact>
</mgrwt>
</event>
<event>
 4    1  0.3999109E+006  0.6010046E+01  0.7546771E-02  0.2414118E+00
         21   -1    0    0  503  502  0.00000000000E+00  0.00000000000E+00  0.32000821579E+03  0.32000821579E+03  0.00000000000E+00 0. -1.
         21   -1    0    0  501  503 -0.00000000000E+00 -0.00000000000E+00 -0.89640966139E+00  0.89640966139E+00  0.00000000000E+00 0.  1.
          5    1    1    2  501    0 -0.30305823676E+01 -0.22014130391E+01  0.95452627697E+01  0.11279746903E+02  0.47000000000E+01 0.  1.
         -5    1    1    2    0  502  0.30305823676E+01  0.22014130391E+01  0.30956654336E+03  0.30962487855E+03  0.47000000000E+01 0. -1.
<mgrwt>
<rscale>  2 0.60100457E+01</rscale>
<asrwt>0</asrwt>
<pdfrwt beam="1">  1       21 0.49231942E-01 0.60100457E+01</pdfrwt>
<pdfrwt beam="2">  1       21 0.13790943E-03 0.60100457E+01</pdfrwt>
<totfact> 0.12244034E+08</totfact>
</mgrwt>
</event>
<event>
 4    1  0.3999109E+006  0.5624863E+01  0.7546771E-02  0.2466965E+00
         21   -1    0    0  501  502  0.00000000000E+00  0.00000000000E+00  0.13267907007E+01  0.13267907007E+01  0.00000000000E+00 0. -1.
         21   -1    0    0  502  503 -0.00000000000E+00 -0.00000000000E+00 -0.24042321898E+02  0.24042321898E+02  0.00000000000E+00 0.  1.
          5    1    1    2  501    0  0.17550865879E+01 -0.25433751076E+01 -0.10212493558E+02  0.11659078460E+02  0.47000000000E+01 0.  1.
         -5    1    1    2    0  503 -0.17550865879E+01  0.25433751076E+01 -0.12503037639E+02  0.13710034139E+02  0.47000000000E+01 0.  1.
<mgrwt>
<rscale>  2 0.56248632E+01</rscale>
<asrwt>0</asrwt>
<pdfrwt beam="1">  1       21 0.20412165E-03 0.56248632E+01</pdfrwt>
<pdfrwt beam="2">  1       21 0.36988187E-02 0.56248632E+01</pdfrwt>
<totfact> 0.41161137E+09</totfact>
</mgrwt>
</event>
<event>
 4    1  0.3999109E+006  0.2839925E+02  0.7546771E-02  0.1616488E+00
         21   -1    0    0  501  502  0.00000000000E+00  0.00000000000E+00  0.68343644673E+02  0.68343644673E+02  0.00000000000E+00 0.  1.
         21   -1    0    0  502  503 -0.00000000000E+00 -0.00000000000E+00 -0.12853253131E+02  0.12853253131E+02  0.00000000000E+00 0. -1.
          5    1    1    2  501    0 -0.26650680675E+02  0.86121281193E+01  0.16128554026E+02  0.32659574188E+02  0.47000000000E+01 0. -1.
         -5    1    1    2    0  503  0.26650680675E+02 -0.86121281193E+01  0.39361837516E+02  0.48537323616E+02  0.47000000000E+01 0.  1.
<mgrwt>
<rscale>  2 0.28399252E+02</rscale>
<asrwt>0</asrwt>
<pdfrwt beam="1">  1       21 0.10514407E-01 0.28399252E+02</pdfrwt>
<pdfrwt beam="2">  1       21 0.19774236E-02 0.28399252E+02</pdfrwt>
<totfact> 0.68855279E+07</totfact>
</mgrwt>
</event>
<event>
 4    1  0.3999109E+006  0.8590604E+01  0.7546771E-02  0.2165359E+00
         21   -1    0    0  503  502  0.00000000000E+00  0.00000000000E+00  0.82746892898E+00  0.82746892898E+00  0.00000000000E+00 0. -1.
         21   -1    0    0  501  503 -0.00000000000E+00 -0.00000000000E+00 -0.21887608550E+03  0.21887608550E+03  0.00000000000E+00 0.  1.
          5    1    1    2  501    0 -0.71143910958E+01  0.10459011969E+01 -0.19358366515E+03  0.19377418270E+03  0.47000000000E+01 0.  1.
         -5    1    1    2    0  502  0.71143910958E+01 -0.10459011969E+01 -0.24464951420E+02  0.25929371723E+02  0.47000000000E+01 0. -1.
<mgrwt>
<rscale>  2 0.85906036E+01</rscale>
<asrwt>0</asrwt>
<pdfrwt beam="1">  1       21 0.12730295E-03 0.85906036E+01</pdfrwt>
<pdfrwt beam="2">  1       21 0.33673234E-01 0.85906036E+01</pdfrwt>
<totfact> 0.32910493E+08</totfact>
</mgrwt>
</event>
<event>
 4    1  0.3999109E+006  0.1082554E+02  0.7546771E-02  0.2030840E+00
         21   -1    0    0  501  502  0.00000000000E+00  0.00000000000E+00  0.12062273308E+03  0.12062273308E+03  0.00000000000E+00 0.  1.
         21   -1    0    0  502  503 -0.00000000000E+00 -0.00000000000E+00 -0.10287198431E+01  0.10287198431E+01  0.00000000000E+00 0.  1.
          5    1    1    2  501    0  0.94133976801E+01  0.25475943952E+01  0.74134790780E+02  0.74921021730E+02  0.47000000000E+01 0.  1.
         -5    1    1    2    0  503 -0.94133976801E+01 -0.25475943952E+01  0.45459222453E+02  0.46730431189E+02  0.47000000000E+01 0.  1.
<mgrwt>
<rscale>  2 0.10825539E+02</rscale>
<asrwt>0</asrwt>
<pdfrwt beam="1">  1       21 0.18557332E-01 0.10825539E+02</pdfrwt>
<pdfrwt beam="2">  1       21 0.15826469E-03 0.10825539E+02</pdfrwt>
<totfact> 0.76035790E+08</totfact>
</mgrwt>
</event>
<event>
 4    1  0.3999109E+006  0.5894354E+01  0.7546771E-02  0.2429380E+00
         21   -1    0    0  501  502  0.00000000000E+00  0.00000000000E+00  0.56808912844E+01  0.56808912844E+01  0.00000000000E+00 0.  1.
         21   -1    0    0  502  503 -0.00000000000E+00 -0.00000000000E+00 -0.15028157349E+02  0.15028157349E+02  0.00000000000E+00 0.  1.
          5    1    1    2  501    0 -0.15175477548E+01 -0.32172120511E+01  0.33003018026E+01  0.67553975870E+01  0.47000000000E+01 0.  1.
         -5    1    1    2    0  503  0.15175477548E+01  0.32172120511E+01 -0.12647567868E+02  0.13953651047E+02  0.47000000000E+01 0.  1.
<mgrwt>
<rscale>  2 0.58943536E+01</rscale>
<asrwt>0</asrwt>
<pdfrwt beam="1">  1       21 0.87398329E-03 0.58943536E+01</pdfrwt>
<pdfrwt beam="2">  1       21 0.23120242E-02 0.58943536E+01</pdfrwt>
<totfact> 0.11379019E+09</totfact>
</mgrwt>
</event>
<event>
 4    1  0.3999109E+006  0.4986127E+01  0.7546771E-02  0.2569621E+00
         21   -1    0    0  503  502  0.00000000000E+00  0.00000000000E+00  0.52532507974E+02  0.52532507974E+02  0.00000000000E+00 0. -1.
         21   -1    0    0  501  503 -0.00000000000E+00 -0.00000000000E+00 -0.51167351865E+00  0.51167351865E+00  0.00000000000E+00 0. -1.
          5    1    1    2  501    0  0.36854149929E+00  0.16234651181E+01  0.33277517881E+02  0.33648991933E+02  0.47000000000E+01 0. -1.
         -5    1    1    2    0  502 -0.36854149929E+00 -0.16234651181E+01  0.18743316575E+02  0.19395189559E+02  0.47000000000E+01 0. -1.
<mgrwt>
<rscale>  2 0.49861269E+01</rscale>
<asrwt>0</asrwt>
<pdfrwt beam="1">  1       21 0.80819201E-02 0.49861269E+01</pdfrwt>
<pdfrwt beam="2">  1       21 0.78719044E-04 0.49861269E+01</pdfrwt>
<totfact> 0.41354041E+09</totfact>
</mgrwt>
</event>
<event>
 4    1  0.3999109E+006  0.5322594E+01  0.7546771E-02  0.2512922E+00
         21   -1    0    0  503  502  0.00000000000E+00  0.00000000000E+00  0.28266099893E+00  0.28266099893E+00  0.00000000000E+00 0.  1.
         21   -1    0    0  501  503 -0.00000000000E+00 -0.00000000000E+00 -0.10996280617E+03  0.10996280617E+03  0.00000000000E+00 0.  1.
          5    1    1    2  501    0  0.23801452885E+01  0.75823394108E+00 -0.38437430381E+02  0.38804201636E+02  0.47000000000E+01 0.  1.
         -5    1    1    2    0  502 -0.23801452885E+01 -0.75823394108E+00 -0.71242714787E+02  0.71441265530E+02  0.47000000000E+01 0.  1.
<mgrwt>
<rscale>  2 0.53225943E+01</rscale>
<asrwt>0</asrwt>
<pdfrwt beam="1">  1       21 0.43486259E-04 0.53225943E+01</pdfrwt>
<pdfrwt beam="2">  1       21 0.16917374E-01 0.53225943E+01</pdfrwt>
<totfact> 0.31225723E+09</totfact>
</mgrwt>
</event>
<event>
 4    1  0.3999109E+006  0.6201985E+01  0.7546771E-02  0.2389854E+00
         21   -1    0    0  501  502  0.00000000000E+00  0.00000000000E+00  0.19165845243E+03  0.19165845243E+03  0.00000000000E+00 0.  1.
         21   -1    0    0  502  503 -0.00000000000E+00 -0.00000000000E+00 -0.23387845452E+00  0.23387845452E+00  0.00000000000E+00 0. -1.
          5    1    1    2  501    0  0.33866549301E+01 -0.22147664466E+01  0.13185348696E+03  0.13199926760E+03  0.47000000000E+01 0.  1.
         -5    1    1    2    0  503 -0.33866549301E+01  0.22147664466E+01  0.59571087010E+02  0.59893063285E+02  0.47000000000E+01 0. -1.
<mgrwt>
<rscale>  2 0.62019853E+01</rscale>
<asrwt>0</asrwt>
<pdfrwt beam="1">  1       21 0.29485790E-01 0.62019853E+01</pdfrwt>
<pdfrwt beam="2">  1       21 0.35981454E-04 0.62019853E+01</pdfrwt>
<totfact> 0.18506573E+09</totfact>
</mgrwt>
</event>
<event>
 4    1  0.3999109E+006  0.5604500E+01  0.7546771E-02  0.2469928E+00
         21   -1    0    0  501  502  0.00000000000E+00  0.00000000000E+00  0.78619147565E+02  0.78619147565E+02  0.00000000000E+00 0. -1.
         21   -1    0    0  502  503 -0.00000000000E+00 -0.00000000000E+00 -0.10025030693E+01  0.10025030693E+01  0.00000000000E+00 0. -1.
          5    1    1    2  501    0  0.20923091989E+01 -0.22232107454E+01  0.69683437346E+02  0.69908453453E+02  0.47000000000E+01 0. -1.
         -5    1    1    2    0  503 -0.20923091989E+01  0.22232107454E+01  0.79332071488E+01  0.97131971805E+01  0.47000000000E+01 0. -1.
<mgrwt>
<rscale>  2 0.56045003E+01</rscale>
<asrwt>0</asrwt>
<pdfrwt beam="1">  1       21 0.12095249E-01 0.56045003E+01</pdfrwt>
<pdfrwt beam="2">  1       21 0.15423130E-03 0.56045003E+01</pdfrwt>
<totfact> 0.10172766E+09</totfact>
</mgrwt>
</event>
<event>
 4    1  0.3999109E+006  0.1030108E+02  0.7546771E-02  0.2058247E+00
         21   -1    0    0  503  502  0.00000000000E+00  0.00000000000E+00  0.29220081839E+01  0.29220081839E+01  0.00000000000E+00 0.  1.
         21   -1    0    0  501  503 -0.00000000000E+00 -0.00000000000E+00 -0.73894251679E+02  0.73894251679E+02  0.00000000000E+00 0. -1.
          5    1    1    2  501    0  0.90728672289E+01  0.13059027097E+01 -0.62876166373E+02  0.63714398682E+02  0.47000000000E+01 0. -1.
         -5    1    1    2    0  502 -0.90728672289E+01 -0.13059027097E+01 -0.80960771222E+01  0.13101861181E+02  0.47000000000E+01 0.  1.
<mgrwt>
<rscale>  2 0.10301083E+02</rscale>
<asrwt>0</asrwt>
<pdfrwt beam="1">  1       21 0.44953976E-03 0.10301083E+02</pdfrwt>
<pdfrwt beam="2">  1       21 0.11368345E-01 0.10301083E+02</pdfrwt>
<totfact> 0.37878251E+08</totfact>
</mgrwt>
</event>
<event>
 4    1  0.3999109E+006  0.9289504E+01  0.7546771E-02  0.2117831E+00
         21   -1    0    0  501  502  0.00000000000E+00  0.00000000000E+00  0.11497163897E+02  0.11497163897E+02  0.00000000000E+00 0.  1.
         21   -1    0    0  502  503 -0.00000000000E+00 -0.00000000000E+00 -0.45111552140E+02  0.45111552140E+02  0.00000000000E+00 0. -1.
          5    1    1    2  501    0 -0.72951774621E+01 -0.33144048592E+01  0.90354426980E+01  0.12958939714E+02  0.47000000000E+01 0.  1.
         -5    1    1    2    0  503  0.72951774621E+01  0.33144048592E+01 -0.42649830941E+02  0.43649776323E+02  0.47000000000E+01 0. -1.
<mgrwt>
<rscale>  2 0.92895045E+01</rscale>
<asrwt>0</asrwt>
<pdfrwt beam="1">  1       21 0.17687944E-02 0.92895045E+01</pdfrwt>
<pdfrwt beam="2">  1       21 0.69402388E-02 0.92895045E+01</pdfrwt>
<totfact> 0.10799715E+08</totfact>
</mgrwt>
</event>
<event>
 4    1  0.3999109E+006  0.6343278E+01  0.7546771E-02  0.2372778E+00
         21   -1    0    0  503  502  0.00000000000E+00  0.00000000000E+00  0.96131996705E+03  0.96131996705E+03  0.00000000000E+00 0. -1.
         21   -1    0    0  501  503 -0.00000000000E+00 -0.00000000000E+00 -0.20061663953E+00  0.20061663953E+00  0.00000000000E+00 0. -1.
          5    1    1    2  501    0 -0.15173258462E+01  0.39805654755E+01  0.52882284815E+02  0.53261367111E+02  0.47000000000E+01 0. -1.
         -5    1    1    2    0  502  0.15173258462E+01 -0.39805654755E+01  0.90823706559E+03  0.90825921658E+03  0.47000000000E+01 0. -1.
<mgrwt>
<rscale>  2 0.63432783E+01</rscale>
<asrwt>0</asrwt>
<pdfrwt beam="1">  1       21 0.14789169E+00 0.63432783E+01</pdfrwt>
<pdfrwt beam="2">  1       21 0.30864868E-04 0.63432783E+01</pdfrwt>
<totfact> 0.10744913E+08</totfact>
</mgrwt>
</event>
<event>
 4    1  0.3999109E+006  0.6056300E+01  0.7546771E-02  0.2408153E+00
         21   -1    0    0  501  502  0.00000000000E+00  0.00000000000E+00  0.52900240721E+03  0.52900240721E+03  0.00000000000E+00 0. -1.
         21   -1    0    0  502  503 -0.00000000000E+00 -0.00000000000E+00 -0.71249333771E-01  0.71249333771E-01  0.00000000000E+00 0. -1.
          5    1    1    2  501    0  0.35815761097E+01 -0.13270597738E+01  0.30781868781E+03  0.30787826059E+03  0.47000000000E+01 0. -1.
         -5    1    1    2    0  503 -0.35815761097E+01  0.13270597738E+01  0.22111247006E+03  0.22119539595E+03  0.47000000000E+01 0. -1.
<mgrwt>
<rscale>  2 0.60563004E+01</rscale>
<asrwt>0</asrwt>
<pdfrwt beam="1">  1       21 0.81381841E-01 0.60563004E+01</pdfrwt>
<pdfrwt beam="2">  1       21 0.10961860E-04 0.60563004E+01</pdfrwt>
<totfact> 0.14210111E+09</totfact>
</mgrwt>
</event>
<event>
 4    1  0.3999109E+006  0.6365781E+01  0.7546771E-02  0.2370116E+00
         21   -1    0    0  501  502  0.00000000000E+00  0.00000000000E+00  0.28197287963E+03  0.28197287963E+03  0.00000000000E+00 0.  1.
         21   -1    0    0  502  503 -0.00000000000E+00 -0.00000000000E+00 -0.38652736050E+00  0.38652736050E+00  0.00000000000E+00 0. -1.
          5    1    1    2  501    0 -0.32024258816E+01  0.28596556374E+01  0.25269040975E+03  0.25277058045E+03  0.47000000000E+01 0.  1.
         -5    1    1    2    0  503  0.32024258816E+01 -0.28596556374E+01  0.28895942515E+02  0.29588826535E+02  0.47000000000E+01 0. -1.
<mgrwt>
<rscale>  2 0.63657805E+01</rscale>
<asrwt>0</asrwt>
<pdfrwt beam="1">  1       21 0.43380278E-01 0.63657805E+01</pdfrwt>
<pdfrwt beam="2">  1       21 0.59465973E-04 0.63657805E+01</pdfrwt>
<totfact> 0.49397289E+08</totfact>
</mgrwt>
</event>
<event>
 4    1  0.3999109E+006  0.9486151E+01  0.7546771E-02  0.2105468E+00
         21   -1    0    0  503  502  0.00000000000E+00  0.00000000000E+00  0.33515529053E+03  0.33515529053E+03  0.00000000000E+00 0. -1.
         21   -1    0    0  501  503 -0.00000000000E+00 -0.00000000000E+00 -0.33598695202E+00  0.33598695202E+00  0.00000000000E+00 0.  1.
          5    1    1    2  501    0  0.61525524391E+01  0.54811648414E+01  0.92226531181E+02  0.92713106534E+02  0.47000000000E+01 0.  1.
         -5    1    1    2    0  502 -0.61525524391E+01 -0.54811648414E+01  0.24259277240E+03  0.24277817095E+03  0.47000000000E+01 0. -1.
<mgrwt>
<rscale>  2 0.94861515E+01</rscale>
<asrwt>0</asrwt>
<pdfrwt beam="1">  1       21 0.51562085E-01 0.94861515E+01</pdfrwt>
<pdfrwt beam="2">  1       21 0.51690568E-04 0.94861515E+01</pdfrwt>
<totfact> 0.55201400E+08</totfact>
</mgrwt>
</event>
<event>
 4    1  0.3999109E+006  0.9241496E+01  0.7546771E-02  0.2120912E+00
         21   -1    0    0  503  502  0.00000000000E+00  0.00000000000E+00  0.33081811844E+03  0.33081811844E+03  0.00000000000E+00 0.  1.
         21   -1    0    0  501  503 -0.00000000000E+00 -0.00000000000E+00 -0.33417809686E+00  0.33417809686E+00  0.00000000000E+00 0.  1.
          5    1    1    2  501    0  0.40359409054E+01 -0.68575820045E+01  0.86272988960E+02  0.86766548128E+02  0.47000000000E+01 0.  1.
         -5    1    1    2    0  502 -0.40359409054E+01  0.68575820045E+01  0.24421095138E+03  0.24438574840E+03  0.47000000000E+01 0.  1.
<mgrwt>
<rscale>  2 0.92414961E+01</rscale>
<asrwt>0</asrwt>
<pdfrwt beam="1">  1       21 0.50894833E-01 0.92414961E+01</pdfrwt>
<pdfrwt beam="2">  1       21 0.51412279E-04 0.92414961E+01</pdfrwt>
<totfact> 0.56202916E+08</totfact>
</mgrwt>
</event>
<event>
 4    1  0.3999109E+006  0.5744518E+01  0.7546771E-02  0.2449910E+00
         21   -1    0    0  501  502  0.00000000000E+00  0.00000000000E+00  0.35788310952E+00  0.35788310952E+00  0.00000000000E+00 0. -1.
         21   -1    0    0  502  503 -0.00000000000E+00 -0.00000000000E+00 -0.33135144165E+03  0.33135144165E+03  0.00000000000E+00 0.  1.
          5    1    1    2  501    0  0.28557864370E+01  0.16595106950E+01 -0.24596134092E+02  0.25258054244E+02  0.47000000000E+01 0. -1.
         -5    1    1    2    0  503 -0.28557864370E+01 -0.16595106950E+01 -0.30639742445E+03  0.30645127052E+03  0.47000000000E+01 0.  1.
<mgrwt>
<rscale>  2 0.57445184E+01</rscale>
<asrwt>0</asrwt>
<pdfrwt beam="1">  1       21 0.55059265E-04 0.57445184E+01</pdfrwt>
<pdfrwt beam="2">  1       21 0.50976844E-01 0.57445184E+01</pdfrwt>
<totfact> 0.38234465E+08</totfact>
</mgrwt>
</event>
<event>
 4    1  0.3999109E+006  0.6118435E+01  0.7546771E-02  0.2400259E+00
         21   -1    0    0  503  502  0.00000000000E+00  0.00000000000E+00  0.63451196034E+02  0.63451196034E+02  0.00000000000E+00 0. -1.
         21   -1    0    0  501  503 -0.00000000000E+00 -0.00000000000E+00 -0.60647116056E+00  0.60647116056E+00  0.00000000000E+00 0.  1.
          5    1    1    2  501    0 -0.19423827474E+01 -0.34018216949E+01  0.36703145956E+02  0.37209624624E+02  0.47000000000E+01 0. -1.
         -5    1    1    2    0  502  0.19423827474E+01  0.34018216949E+01  0.26141578917E+02  0.26848042571E+02  0.47000000000E+01 0.  1.
<mgrwt>
<rscale>  2 0.61184346E+01</rscale>
<asrwt>0</asrwt>
<pdfrwt beam="1">  1       21 0.97617172E-02 0.61184346E+01</pdfrwt>
<pdfrwt beam="2">  1       21 0.93303305E-04 0.61184346E+01</pdfrwt>
<totfact> 0.29949418E+09</totfact>
</mgrwt>
</event>
<event>
 4    1  0.3999109E+006  0.7215381E+01  0.7546771E-02  0.2279813E+00
         21   -1    0    0  501  502  0.00000000000E+00  0.00000000000E+00  0.28932956365E+00  0.28932956365E+00  0.00000000000E+00 0.  1.
         21   -1    0    0  502  503 -0.00000000000E+00 -0.00000000000E+00 -0.20067581588E+03  0.20067581588E+03  0.00000000000E+00 0. -1.
          5    1    1    2  501    0  0.51556480292E+01  0.18414731696E+01 -0.67892525206E+02  0.68274861471E+02  0.47000000000E+01 0. -1.
         -5    1    1    2    0  503 -0.51556480292E+01 -0.18414731696E+01 -0.13249396111E+03  0.13269028398E+03  0.47000000000E+01 0.  1.
<mgrwt>
<rscale>  2 0.72153815E+01</rscale>
<asrwt>0</asrwt>
<pdfrwt beam="1">  1       21 0.44512123E-04 0.72153815E+01</pdfrwt>
<pdfrwt beam="2">  1       21 0.30873284E-01 0.72153815E+01</pdfrwt>
<totfact> 0.14353639E+09</totfact>
</mgrwt>
</event>
<event>
 4    1  0.3999109E+006  0.7052979E+01  0.7546771E-02  0.2295686E+00
         21   -1    0    0  501  502  0.00000000000E+00  0.00000000000E+00  0.64783572849E-01  0.64783572849E-01  0.00000000000E+00 0. -1.
         21   -1    0    0  502  503 -0.00000000000E+00 -0.00000000000E+00 -0.14914343210E+04  0.14914343210E+04  0.00000000000E+00 0. -1.
          5    1    1    2  501    0 -0.26788967635E+01  0.45252657413E+01 -0.22624712801E+03  0.22635703535E+03  0.47000000000E+01 0. -1.
         -5    1    1    2    0  503  0.26788967635E+01 -0.45252657413E+01 -0.12651224095E+04  0.12651420693E+04  0.47000000000E+01 0. -1.
<mgrwt>
<rscale>  2 0.70529794E+01</rscale>
<asrwt>0</asrwt>
<pdfrwt beam="1">  1       21 0.99658079E-05 0.70529794E+01</pdfrwt>
<pdfrwt beam="2">  1       21 0.22947205E+00 0.70529794E+01</pdfrwt>
<totfact> 0.19220803E+08</totfact>
</mgrwt>
</event>
<event>
 4    1  0.3999109E+006  0.5596366E+01  0.7546771E-02  0.2471117E+00
         21   -1    0    0  501  502  0.00000000000E+00  0.00000000000E+00  0.17747276589E+01  0.17747276589E+01  0.00000000000E+00 0. -1.
         21   -1    0    0  502  503 -0.00000000000E+00 -0.00000000000E+00 -0.18887562719E+02  0.18887562719E+02  0.00000000000E+00 0. -1.
          5    1    1    2  501    0 -0.22647434574E+01  0.20249084217E+01 -0.59091306367E+01  0.81386203945E+01  0.47000000000E+01 0. -1.
         -5    1    1    2    0  503  0.22647434574E+01 -0.20249084217E+01 -0.11203704423E+02  0.12523669983E+02  0.47000000000E+01 0. -1.
<mgrwt>
<rscale>  2 0.55963664E+01</rscale>
<asrwt>0</asrwt>
<pdfrwt beam="1">  1       21 0.27303503E-03 0.55963664E+01</pdfrwt>
<pdfrwt beam="2">  1       21 0.29057788E-02 0.55963664E+01</pdfrwt>
<totfact> 0.39147246E+09</totfact>
</mgrwt>
</event>
<event>
 4    1  0.3999109E+006  0.6239583E+01  0.7546771E-02  0.2385247E+00
         21   -1    0    0  501  502  0.00000000000E+00  0.00000000000E+00  0.12160948597E+00  0.12160948597E+00  0.00000000000E+00 0. -1.
         21   -1    0    0  502  503 -0.00000000000E+00 -0.00000000000E+00 -0.32018522333E+03  0.32018522333E+03  0.00000000000E+00 0.  1.
          5    1    1    2  501    0  0.22101649614E+00  0.40979931714E+01 -0.15818743207E+03  0.15831044205E+03  0.47000000000E+01 0.  1.
         -5    1    1    2    0  503 -0.22101649614E+00 -0.40979931714E+01 -0.16187618178E+03  0.16199639077E+03  0.47000000000E+01 0.  1.
<mgrwt>
<rscale>  2 0.62395830E+01</rscale>
<asrwt>0</asrwt>
<pdfrwt beam="1">  1       21 0.18709108E-04 0.62395830E+01</pdfrwt>
<pdfrwt beam="2">  1       21 0.49259380E-01 0.62395830E+01</pdfrwt>
<totfact> 0.18239002E+09</totfact>
</mgrwt>
</event>
<event>
 4    1  0.3999109E+006  0.6539922E+01  0.7546771E-02  0.2350037E+00
         21   -1    0    0  503  502  0.00000000000E+00  0.00000000000E+00  0.16501889668E+03  0.16501889668E+03  0.00000000000E+00 0.  1.
         21   -1    0    0  501  503 -0.00000000000E+00 -0.00000000000E+00 -0.29522595596E+00  0.29522595596E+00  0.00000000000E+00 0. -1.
          5    1    1    2  501    0 -0.43751414008E+01  0.12404517314E+01  0.53481980937E+02  0.53880356975E+02  0.47000000000E+01 0. -1.
         -5    1    1    2    0  502  0.43751414008E+01 -0.12404517314E+01  0.11124168979E+03  0.11143376567E+03  0.47000000000E+01 0.  1.
<mgrwt>
<rscale>  2 0.65399222E+01</rscale>
<asrwt>0</asrwt>
<pdfrwt beam="1">  1       21 0.25387449E-01 0.65399222E+01</pdfrwt>
<pdfrwt beam="2">  1       21 0.45419510E-04 0.65399222E+01</pdfrwt>
<totfact> 0.18117592E+09</totfact>
</mgrwt>
</event>
<event>
 4    1  0.3999109E+006  0.5136687E+01  0.7546771E-02  0.2543462E+00
         21   -1    0    0  501  502  0.00000000000E+00  0.00000000000E+00  0.10878228803E+02  0.10878228803E+02  0.00000000000E+00 0. -1.
         21   -1    0    0  502  503 -0.00000000000E+00 -0.00000000000E+00 -0.28307913478E+01  0.28307913478E+01  0.00000000000E+00 0.  1.
          5    1    1    2  501    0 -0.10730276599E+01  0.17731792356E+01  0.66172172836E+01  0.83769396284E+01  0.47000000000E+01 0. -1.
         -5    1    1    2    0  503  0.10730276599E+01 -0.17731792356E+01  0.14302201719E+01  0.53320805227E+01  0.47000000000E+01 0.  1.
<mgrwt>
<rscale>  2 0.51366870E+01</rscale>
<asrwt>0</asrwt>
<pdfrwt beam="1">  1       21 0.16735736E-02 0.51366870E+01</pdfrwt>
<pdfrwt beam="2">  1       21 0.43550637E-03 0.51366870E+01</pdfrwt>
<totfact> 0.41777588E+09</totfact>
</mgrwt>
</event>
<event>
 4    1  0.3999109E+006  0.5493416E+01  0.7546771E-02  0.2486422E+00
         21   -1    0    0  501  502  0.00000000000E+00  0.00000000000E+00  0.50006908389E+01  0.50006908389E+01  0.00000000000E+00 0. -1.
         21   -1    0    0  502  503 -0.00000000000E+00 -0.00000000000E+00 -0.84467257119E+01  0.84467257119E+01  0.00000000000E+00 0. -1.
          5    1    1    2  501    0 -0.28412009258E+01  0.12328867300E+00  0.18699763387E+01  0.58029677153E+01  0.47000000000E+01 0. -1.
         -5    1    1    2    0  503  0.28412009258E+01 -0.12328867300E+00 -0.53160112116E+01  0.76444488355E+01  0.47000000000E+01 0. -1.
<mgrwt>
<rscale>  2 0.54934163E+01</rscale>
<asrwt>0</asrwt>
<pdfrwt beam="1">  1       21 0.76933706E-03 0.54934163E+01</pdfrwt>
<pdfrwt beam="2">  1       21 0.12994963E-02 0.54934163E+01</pdfrwt>
<totfact> 0.29069717E+09</totfact>
</mgrwt>
</event>
<event>
 4    1  0.3999109E+006  0.5078717E+01  0.7546771E-02  0.2553376E+00
         21   -1    0    0  503  502  0.00000000000E+00  0.00000000000E+00  0.60214214779E+02  0.60214214779E+02  0.00000000000E+00 0.  1.
         21   -1    0    0  501  503 -0.00000000000E+00 -0.00000000000E+00 -0.18928056802E+01  0.18928056802E+01  0.00000000000E+00 0.  1.
          5    1    1    2  501    0 -0.15661077795E+01 -0.11183343271E+01  0.18461383796E+01  0.54038497537E+01  0.47000000000E+01 0.  1.
         -5    1    1    2    0  502  0.15661077795E+01  0.11183343271E+01  0.56475270719E+02  0.56703170706E+02  0.47000000000E+01 0.  1.
<mgrwt>
<rscale>  2 0.50787169E+01</rscale>
<asrwt>0</asrwt>
<pdfrwt beam="1">  1       21 0.92637239E-02 0.50787169E+01</pdfrwt>
<pdfrwt beam="2">  1       21 0.29120092E-03 0.50787169E+01</pdfrwt>
<totfact> 0.59443584E+08</totfact>
</mgrwt>
</event>
<event>
 4    1  0.3999109E+006  0.5622713E+01  0.7546771E-02  0.2467277E+00
         21   -1    0    0  501  502  0.00000000000E+00  0.00000000000E+00  0.22403199782E+01  0.22403199782E+01  0.00000000000E+00 0. -1.
         21   -1    0    0  502  503 -0.00000000000E+00 -0.00000000000E+00 -0.14126362587E+02  0.14126362587E+02  0.00000000000E+00 0.  1.
          5    1    1    2  501    0  0.13896222352E+01  0.27556952499E+01 -0.62059323382E+01  0.83742762346E+01  0.47000000000E+01 0. -1.
         -5    1    1    2    0  503 -0.13896222352E+01 -0.27556952499E+01 -0.56801102707E+01  0.79924063307E+01  0.47000000000E+01 0. -1.
<mgrwt>
<rscale>  2 0.56227134E+01</rscale>
<asrwt>0</asrwt>
<pdfrwt beam="1">  1       21 0.34466461E-03 0.56227134E+01</pdfrwt>
<pdfrwt beam="2">  1       21 0.21732866E-02 0.56227134E+01</pdfrwt>
<totfact> 0.43421082E+09</totfact>
</mgrwt>
</event>
<event>
 4    1  0.3999109E+006  0.6095565E+01  0.7546771E-02  0.2403149E+00
         21   -1    0    0  501  502  0.00000000000E+00  0.00000000000E+00  0.71566203631E-01  0.71566203631E-01  0.00000000000E+00 0. -1.
         21   -1    0    0  502  503 -0.00000000000E+00 -0.00000000000E+00 -0.10148827352E+04  0.10148827352E+04  0.00000000000E+00 0. -1.
          5    1    1    2  501    0 -0.19999588977E+01  0.33265720177E+01 -0.15274073779E+03  0.15286232007E+03  0.47000000000E+01 0. -1.
         -5    1    1    2    0  503  0.19999588977E+01 -0.33265720177E+01 -0.86207043125E+03  0.86209198137E+03  0.47000000000E+01 0. -1.
<mgrwt>
<rscale>  2 0.60955654E+01</rscale>
<asrwt>0</asrwt>
<pdfrwt beam="1">  1       21 0.11009223E-04 0.60955654E+01</pdfrwt>
<pdfrwt beam="2">  1       21 0.15614945E+00 0.60955654E+01</pdfrwt>
<totfact> 0.36990476E+08</totfact>
</mgrwt>
</event>
<event>
 4    1  0.3999109E+006  0.1030832E+02  0.7546771E-02  0.2057854E+00
         21   -1    0    0  501  502  0.00000000000E+00  0.00000000000E+00  0.20815154962E+01  0.20815154962E+01  0.00000000000E+00 0. -1.
         21   -1    0    0  502  503 -0.00000000000E+00 -0.00000000000E+00 -0.58875345929E+02  0.58875345929E+02  0.00000000000E+00 0.  1.
          5    1    1    2  501    0 -0.83651724144E+01 -0.37676758744E+01 -0.17285331231E+02  0.20125709100E+02  0.47000000000E+01 0. -1.
         -5    1    1    2    0  503  0.83651724144E+01  0.37676758744E+01 -0.39508499201E+02  0.40831152325E+02  0.47000000000E+01 0.  1.
<mgrwt>
<rscale>  2 0.10308321E+02</rscale>
<asrwt>0</asrwt>
<pdfrwt beam="1">  1       21 0.32023315E-03 0.10308321E+02</pdfrwt>
<pdfrwt beam="2">  1       21 0.90577455E-02 0.10308321E+02</pdfrwt>
<totfact> 0.88067961E+08</totfact>
</mgrwt>
</event>
<event>
 4    1  0.3999109E+006  0.1431326E+02  0.7546771E-02  0.1889778E+00
         21   -1    0    0  503  502  0.00000000000E+00  0.00000000000E+00  0.41142872670E+03  0.41142872670E+03  0.00000000000E+00 0.  1.
         21   -1    0    0  501  503 -0.00000000000E+00 -0.00000000000E+00 -0.50974956420E+00  0.50974956420E+00  0.00000000000E+00 0. -1.
          5    1    1    2  501    0  0.10559537637E+02  0.84424855800E+01  0.17411756592E+03  0.17470488305E+03  0.47000000000E+01 0.  1.
         -5    1    1    2    0  502 -0.10559537637E+02 -0.84424855800E+01  0.23680141122E+03  0.23723359322E+03  0.47000000000E+01 0. -1.
<mgrwt>
<rscale>  2 0.14313260E+02</rscale>
<asrwt>0</asrwt>
<pdfrwt beam="1">  1       21 0.63296462E-01 0.14313260E+02</pdfrwt>
<pdfrwt beam="2">  1       21 0.78423339E-04 0.14313260E+02</pdfrwt>
<totfact> 0.25102246E+08</totfact>
</mgrwt>
</event>
<event>
 4    1  0.3999109E+006  0.5835016E+01  0.7546771E-02  0.2437404E+00
         21   -1    0    0  501  502  0.00000000000E+00  0.00000000000E+00  0.55912444736E+03  0.55912444736E+03  0.00000000000E+00 0. -1.
         21   -1    0    0  502  503 -0.00000000000E+00 -0.00000000000E+00 -0.62024652796E-01  0.62024652796E-01  0.00000000000E+00 0. -1.
          5    1    1    2  501    0 -0.32944021027E+01  0.10508718792E+01  0.31727775877E+03  0.31733140977E+03  0.47000000000E+01 0. -1.
         -5    1    1    2    0  503  0.32944021027E+01 -0.10508718792E+01  0.24178466394E+03  0.24185506225E+03  0.47000000000E+01 0. -1.
<mgrwt>
<rscale>  2 0.58350164E+01</rscale>
<asrwt>0</asrwt>
<pdfrwt beam="1">  1       21 0.86015109E-01 0.58350164E+01</pdfrwt>
<pdfrwt beam="2">  1       21 0.95427021E-05 0.58350164E+01</pdfrwt>
<totfact> 0.14934275E+09</totfact>
</mgrwt>
</event>
<event>
 4    1  0.3999109E+006  0.8579463E+01  0.7546771E-02  0.2166167E+00
         21   -1    0    0  501  502  0.00000000000E+00  0.00000000000E+00  0.78380375464E-01  0.78380375464E-01  0.00000000000E+00 0. -1.
         21   -1    0    0  502  503 -0.00000000000E+00 -0.00000000000E+00 -0.94159959772E+03  0.94159959772E+03  0.00000000000E+00 0.  1.
          5    1    1    2  501    0 -0.59998688472E+01 -0.39393850823E+01 -0.49500913707E+03  0.49508348080E+03  0.47000000000E+01 0. -1.
         -5    1    1    2    0  503  0.59998688472E+01  0.39393850823E+01 -0.44651208027E+03  0.44659449729E+03  0.47000000000E+01 0.  1.
<mgrwt>
<rscale>  2 0.85794627E+01</rscale>
<asrwt>0</asrwt>
<pdfrwt beam="1">  1       21 0.12059041E-04 0.85794627E+01</pdfrwt>
<pdfrwt beam="2">  1       21 0.14485520E+00 0.85794627E+01</pdfrwt>
<totfact> 0.46404688E+08</totfact>
</mgrwt>
</event>
<event>
 4    1  0.3999109E+006  0.5134624E+01  0.7546771E-02  0.2543812E+00
         21   -1    0    0  501  502  0.00000000000E+00  0.00000000000E+00  0.44406067629E+01  0.44406067629E+01  0.00000000000E+00 0. -1.
         21   -1    0    0  502  503 -0.00000000000E+00 -0.00000000000E+00 -0.71696904703E+01  0.71696904703E+01  0.00000000000E+00 0. -1.
          5    1    1    2  501    0 -0.19626677815E+01  0.64984148153E+00  0.10424313654E+01  0.52393722833E+01  0.47000000000E+01 0. -1.
         -5    1    1    2    0  503  0.19626677815E+01 -0.64984148153E+00 -0.37715150729E+01  0.63709249499E+01  0.47000000000E+01 0. -1.
<mgrwt>
<rscale>  2 0.51346235E+01</rscale>
<asrwt>0</asrwt>
<pdfrwt beam="1">  1       21 0.68317027E-03 0.51346235E+01</pdfrwt>
<pdfrwt beam="2">  1       21 0.11030293E-02 0.51346235E+01</pdfrwt>
<totfact> 0.40364432E+09</totfact>
</mgrwt>
</event>
<event>
 4    1  0.3999109E+006  0.7689727E+01  0.7546771E-02  0.2236608E+00
         21   -1    0    0  501  502  0.00000000000E+00  0.00000000000E+00  0.45436574302E+01  0.45436574302E+01  0.00000000000E+00 0.  1.
         21   -1    0    0  502  503 -0.00000000000E+00 -0.00000000000E+00 -0.19200085530E+02  0.19200085530E+02  0.00000000000E+00 0. -1.
          5    1    1    2  501    0  0.58800855503E+01  0.15705087460E+01 -0.58961212698E+00  0.77122983773E+01  0.47000000000E+01 0.  1.
         -5    1    1    2    0  503 -0.58800855503E+01 -0.15705087460E+01 -0.14066815973E+02  0.16031444583E+02  0.47000000000E+01 0. -1.
<mgrwt>
<rscale>  2 0.76897272E+01</rscale>
<asrwt>0</asrwt>
<pdfrwt beam="1">  1       21 0.69902420E-03 0.76897272E+01</pdfrwt>
<pdfrwt beam="2">  1       21 0.29538594E-02 0.76897272E+01</pdfrwt>
<totfact> 0.13389901E+09</totfact>
</mgrwt>
</event>
<event>
 4    1  0.3999109E+006  0.4934974E+01  0.7546771E-02  0.2578820E+00
         21   -1    0    0  503  502  0.00000000000E+00  0.00000000000E+00  0.38357238642E+01  0.38357238642E+01  0.00000000000E+00 0.  1.
         21   -1    0    0  501  503 -0.00000000000E+00 -0.00000000000E+00 -0.65472271500E+01  0.65472271500E+01  0.00000000000E+00 0.  1.
          5    1    1    2  501    0 -0.12722249158E+01  0.80337689475E+00 -0.45299774126E+00  0.49557217058E+01  0.47000000000E+01 0.  1.
         -5    1    1    2    0  502  0.12722249158E+01 -0.80337689475E+00 -0.22585055445E+01  0.54272293084E+01  0.47000000000E+01 0.  1.
<mgrwt>
<rscale>  2 0.49349742E+01</rscale>
<asrwt>0</asrwt>
<pdfrwt beam="1">  1       21 0.59011137E-03 0.49349742E+01</pdfrwt>
<pdfrwt beam="2">  1       21 0.10072657E-02 0.49349742E+01</pdfrwt>
<totfact> 0.53793739E+09</totfact>
</mgrwt>
</event>
<event>
 4    1  0.3999109E+006  0.5769808E+01  0.7546771E-02  0.2446382E+00
         21   -1    0    0  501  502  0.00000000000E+00  0.00000000000E+00  0.41689539091E+00  0.41689539091E+00  0.00000000000E+00 0. -1.
         21   -1    0    0  502  503 -0.00000000000E+00 -0.00000000000E+00 -0.52852572947E+03  0.52852572947E+03  0.00000000000E+00 0.  1.
          5    1    1    2  501    0  0.10196180034E+01 -0.31876416911E+01 -0.20379989872E+02  0.21180997796E+02  0.47000000000E+01 0. -1.
         -5    1    1    2    0  503 -0.10196180034E+01  0.31876416911E+01 -0.50772884421E+03  0.50776162706E+03  0.47000000000E+01 0.  1.
<mgrwt>
<rscale>  2 0.57698077E+01</rscale>
<asrwt>0</asrwt>
<pdfrwt beam="1">  1       21 0.64137414E-04 0.57698077E+01</pdfrwt>
<pdfrwt beam="2">  1       21 0.81312080E-01 0.57698077E+01</pdfrwt>
<totfact> 0.13063960E+08</totfact>
</mgrwt>
</event>
<event>
 4    1  0.3999109E+006  0.1035209E+02  0.7546771E-02  0.2055487E+00
         21   -1    0    0  503  502  0.00000000000E+00  0.00000000000E+00  0.62593308279E+02  0.62593308279E+02  0.00000000000E+00 0.  1.
         21   -1    0    0  501  503 -0.00000000000E+00 -0.00000000000E+00 -0.25789954648E+01  0.25789954648E+01  0.00000000000E+00 0. -1.
          5    1    1    2  501    0  0.26409733608E+01  0.88374769219E+01  0.11114535430E+02  0.15188766785E+02  0.47000000000E+01 0. -1.
         -5    1    1    2    0  502 -0.26409733608E+01 -0.88374769219E+01  0.48899777384E+02  0.49983536958E+02  0.47000000000E+01 0.  1.
<mgrwt>
<rscale>  2 0.10352089E+02</rscale>
<asrwt>0</asrwt>
<pdfrwt beam="1">  1       21 0.96297386E-02 0.10352089E+02</pdfrwt>
<pdfrwt beam="2">  1       21 0.39676858E-03 0.10352089E+02</pdfrwt>
<totfact> 0.59115519E+08</totfact>
</mgrwt>
</event>
<event>
 4    1  0.3999109E+006  0.5690357E+01  0.7546771E-02  0.2457555E+00
         21   -1    0    0  501  502  0.00000000000E+00  0.00000000000E+00  0.16809987891E+02  0.16809987891E+02  0.00000000000E+00 0.  1.
         21   -1    0    0  502  503 -0.00000000000E+00 -0.00000000000E+00 -0.24020780828E+01  0.24020780828E+01  0.00000000000E+00 0. -1.
          5    1    1    2  501    0  0.29267663276E+01  0.13130885647E+01  0.11479363480E+02  0.12812335799E+02  0.47000000000E+01 0.  1.
         -5    1    1    2    0  503 -0.29267663276E+01 -0.13130885647E+01  0.29285463279E+01  0.63997301748E+01  0.47000000000E+01 0. -1.
<mgrwt>
<rscale>  2 0.56903570E+01</rscale>
<asrwt>0</asrwt>
<pdfrwt beam="1">  1       21 0.25861519E-02 0.56903570E+01</pdfrwt>
<pdfrwt beam="2">  1       21 0.36955048E-03 0.56903570E+01</pdfrwt>
<totfact> 0.31068798E+09</totfact>
</mgrwt>
</event>
<event>
 4    1  0.3999109E+006  0.6701767E+01  0.7546771E-02  0.2332153E+00
         21   -1    0    0  501  502  0.00000000000E+00  0.00000000000E+00  0.16674864597E+02  0.16674864597E+02  0.00000000000E+00 0. -1.
         21   -1    0    0  502  503 -0.00000000000E+00 -0.00000000000E+00 -0.20762544921E+02  0.20762544921E+02  0.00000000000E+00 0. -1.
          5    1    1    2  501    0  0.23975355245E+01  0.41322513201E+01  0.15418528443E+02  0.16812040236E+02  0.47000000000E+01 0. -1.
         -5    1    1    2    0  503 -0.23975355245E+01 -0.41322513201E+01 -0.19506208767E+02  0.20625369282E+02  0.47000000000E+01 0. -1.
<mgrwt>
<rscale>  2 0.67017667E+01</rscale>
<asrwt>0</asrwt>
<pdfrwt beam="1">  1       21 0.25653638E-02 0.67017667E+01</pdfrwt>
<pdfrwt beam="2">  1       21 0.31942377E-02 0.67017667E+01</pdfrwt>
<totfact> 0.16780155E+08</totfact>
</mgrwt>
</event>
<event>
 4    1  0.3999109E+006  0.6826912E+01  0.7546771E-02  0.2318805E+00
         21   -1    0    0  503  502  0.00000000000E+00  0.00000000000E+00  0.94942265270E+00  0.94942265270E+00  0.00000000000E+00 0. -1.
         21   -1    0    0  501  503 -0.00000000000E+00 -0.00000000000E+00 -0.26650235025E+03  0.26650235025E+03  0.00000000000E+00 0.  1.
          5    1    1    2  501    0 -0.37730357992E+01 -0.32063884282E+01 -0.25355993976E+03  0.25365182786E+03  0.47000000000E+01 0.  1.
         -5    1    1    2    0  502  0.37730357992E+01  0.32063884282E+01 -0.11992987835E+02  0.13799945040E+02  0.47000000000E+01 0. -1.
<mgrwt>
<rscale>  2 0.68269119E+01</rscale>
<asrwt>0</asrwt>
<pdfrwt beam="1">  1       21 0.14606481E-03 0.68269119E+01</pdfrwt>
<pdfrwt beam="2">  1       21 0.41000422E-01 0.68269119E+01</pdfrwt>
<totfact> 0.16949092E+08</totfact>
</mgrwt>
</event>
<event>
 4    1  0.3999109E+006  0.5976747E+01  0.7546771E-02  0.2418460E+00
         21   -1    0    0  503  502  0.00000000000E+00  0.00000000000E+00  0.14935583547E+01  0.14935583547E+01  0.00000000000E+00 0. -1.
         21   -1    0    0  501  503 -0.00000000000E+00 -0.00000000000E+00 -0.88509758322E+02  0.88509758322E+02  0.00000000000E+00 0.  1.
          5    1    1    2  501    0  0.35626881686E+01 -0.96889636140E+00 -0.81951757005E+02  0.82169410265E+02  0.47000000000E+01 0.  1.
         -5    1    1    2    0  502 -0.35626881686E+01  0.96889636140E+00 -0.50644429624E+01  0.78339064116E+01  0.47000000000E+01 0. -1.
<mgrwt>
<rscale>  2 0.59767472E+01</rscale>
<asrwt>0</asrwt>
<pdfrwt beam="1">  1       21 0.22977812E-03 0.59767472E+01</pdfrwt>
<pdfrwt beam="2">  1       21 0.13616891E-01 0.59767472E+01</pdfrwt>
<totfact> 0.51814134E+08</totfact>
</mgrwt>
</event>
<event>
 4    1  0.3999109E+006  0.5592086E+01  0.7546771E-02  0.2471744E+00
         21   -1    0    0  501  502  0.00000000000E+00  0.00000000000E+00  0.51470187456E+01  0.51470187456E+01  0.00000000000E+00 0.  1.
         21   -1    0    0  502  503 -0.00000000000E+00 -0.00000000000E+00 -0.88515601104E+01  0.88515601104E+01  0.00000000000E+00 0.  1.
          5    1    1    2  501    0 -0.26127424183E+01 -0.15346004353E+01  0.20673830069E+01  0.59620041880E+01  0.47000000000E+01 0.  1.
         -5    1    1    2    0  503  0.26127424183E+01  0.15346004353E+01 -0.57719243717E+01  0.80365746679E+01  0.47000000000E+01 0.  1.
<mgrwt>
<rscale>  2 0.55920856E+01</rscale>
<asrwt>0</asrwt>
<pdfrwt beam="1">  1       21 0.79184905E-03 0.55920856E+01</pdfrwt>
<pdfrwt beam="2">  1       21 0.13617785E-02 0.55920856E+01</pdfrwt>
<totfact> 0.26566986E+09</totfact>
</mgrwt>
</event>
<event>
 4    1  0.3999109E+006  0.6681648E+01  0.7546771E-02  0.2334337E+00
         21   -1    0    0  501  502  0.00000000000E+00  0.00000000000E+00  0.79335731100E+00  0.79335731100E+00  0.00000000000E+00 0.  1.
         21   -1    0    0  502  503 -0.00000000000E+00 -0.00000000000E+00 -0.64200769326E+02  0.64200769326E+02  0.00000000000E+00 0.  1.
          5    1    1    2  501    0 -0.25257318507E+01 -0.40218283082E+01 -0.20283986713E+02  0.21356135917E+02  0.47000000000E+01 0.  1.
         -5    1    1    2    0  503  0.25257318507E+01  0.40218283082E+01 -0.43123425302E+02  0.43637990720E+02  0.47000000000E+01 0.  1.
<mgrwt>
<rscale>  2 0.66816483E+01</rscale>
<asrwt>0</asrwt>
<pdfrwt beam="1">  1       21 0.12205499E-03 0.66816483E+01</pdfrwt>
<pdfrwt beam="2">  1       21 0.98770395E-02 0.66816483E+01</pdfrwt>
<totfact> 0.21988267E+09</totfact>
</mgrwt>
</event>
<event>
 4    1  0.3999109E+006  0.4761668E+01  0.7546771E-02  0.2611253E+00
         21   -1    0    0  503  502  0.00000000000E+00  0.00000000000E+00  0.23078571734E+02  0.23078571734E+02  0.00000000000E+00 0. -1.
         21   -1    0    0  501  503 -0.00000000000E+00 -0.00000000000E+00 -0.14074851673E+01  0.14074851673E+01  0.00000000000E+00 0. -1.
          5    1    1    2  501    0 -0.24373564611E+00 -0.72393344038E+00  0.41076263634E+01  0.62885674865E+01  0.47000000000E+01 0. -1.
         -5    1    1    2    0  502  0.24373564611E+00  0.72393344038E+00  0.17563460203E+02  0.18197489415E+02  0.47000000000E+01 0. -1.
<mgrwt>
<rscale>  2 0.47616685E+01</rscale>
<asrwt>0</asrwt>
<pdfrwt beam="1">  1       21 0.35505492E-02 0.47616685E+01</pdfrwt>
<pdfrwt beam="2">  1       21 0.21653620E-03 0.47616685E+01</pdfrwt>
<totfact> 0.34114336E+09</totfact>
</mgrwt>
</event>
<event>
 4    1  0.3999109E+006  0.6147724E+01  0.7546771E-02  0.2396585E+00
         21   -1    0    0  503  502  0.00000000000E+00  0.00000000000E+00  0.56735699362E+01  0.56735699362E+01  0.00000000000E+00 0. -1.
         21   -1    0    0  501  503 -0.00000000000E+00 -0.00000000000E+00 -0.21379303438E+02  0.21379303438E+02  0.00000000000E+00 0.  1.
          5    1    1    2  501    0 -0.37375676860E+01  0.13172300391E+01 -0.19075843751E+02  0.20042013921E+02  0.47000000000E+01 0.  1.
         -5    1    1    2    0  502  0.37375676860E+01 -0.13172300391E+01  0.33701102494E+01  0.70108594535E+01  0.47000000000E+01 0. -1.
<mgrwt>
<rscale>  2 0.61477237E+01</rscale>
<asrwt>0</asrwt>
<pdfrwt beam="1">  1       21 0.87285690E-03 0.61477237E+01</pdfrwt>
<pdfrwt beam="2">  1       21 0.32891237E-02 0.61477237E+01</pdfrwt>
<totfact> 0.70733605E+08</totfact>
</mgrwt>
</event>
<event>
 4    1  0.3999109E+006  0.5859305E+01  0.7546771E-02  0.2434103E+00
         21   -1    0    0  503  502  0.00000000000E+00  0.00000000000E+00  0.28783425946E+02  0.28783425946E+02  0.00000000000E+00 0.  1.
         21   -1    0    0  501  503 -0.00000000000E+00 -0.00000000000E+00 -0.78391568503E+01  0.78391568503E+01  0.00000000000E+00 0. -1.
          5    1    1    2  501    0  0.29371165061E+00  0.34864291914E+01 -0.63886481441E+01  0.86686954122E+01  0.47000000000E+01 0. -1.
         -5    1    1    2    0  502 -0.29371165061E+00 -0.34864291914E+01  0.27332917240E+02  0.27953887384E+02  0.47000000000E+01 0.  1.
<mgrwt>
<rscale>  2 0.58593050E+01</rscale>
<asrwt>0</asrwt>
<pdfrwt beam="1">  1       21 0.44282193E-02 0.58593050E+01</pdfrwt>
<pdfrwt beam="2">  1       21 0.12060241E-02 0.58593050E+01</pdfrwt>
<totfact> 0.27925904E+08</totfact>
</mgrwt>
</event>
<event>
 4    1  0.3999109E+006  0.9814616E+01  0.7546771E-02  0.2085694E+00
         21   -1    0    0  503  502  0.00000000000E+00  0.00000000000E+00  0.17930380851E+00  0.17930380851E+00  0.00000000000E+00 0.  1.
         21   -1    0    0  501  503 -0.00000000000E+00 -0.00000000000E+00 -0.58539326501E+03  0.58539326501E+03  0.00000000000E+00 0.  1.
          5    1    1    2  501    0  0.80059542849E+01  0.31845541197E+01 -0.37659209733E+03  0.37671996822E+03  0.47000000000E+01 0.  1.
         -5    1    1    2    0  502 -0.80059542849E+01 -0.31845541197E+01 -0.20862186388E+03  0.20885260060E+03  0.47000000000E+01 0.  1.
<mgrwt>
<rscale>  2 0.98146161E+01</rscale>
<asrwt>0</asrwt>
<pdfrwt beam="1">  1       21 0.27585080E-04 0.98146161E+01</pdfrwt>
<pdfrwt beam="2">  1       21 0.90060898E-01 0.98146161E+01</pdfrwt>
<totfact> 0.44431380E+08</totfact>
</mgrwt>
</event>
<event>
 4    1  0.3999109E+006  0.4967925E+01  0.7546771E-02  0.2572876E+00
         21   -1    0    0  503  502  0.00000000000E+00  0.00000000000E+00  0.53428872301E-01  0.53428872301E-01  0.00000000000E+00 0. -1.
         21   -1    0    0  501  503 -0.00000000000E+00 -0.00000000000E+00 -0.55039219688E+03  0.55039219688E+03  0.00000000000E+00 0. -1.
          5    1    1    2  501    0 -0.12828788243E+01 -0.97185268837E+00 -0.38550934296E+03  0.38554135159E+03  0.47000000000E+01 0. -1.
         -5    1    1    2    0  502  0.12828788243E+01  0.97185268837E+00 -0.16482942505E+03  0.16490427416E+03  0.47000000000E+01 0. -1.
<mgrwt>
<rscale>  2 0.49679247E+01</rscale>
<asrwt>0</asrwt>
<pdfrwt beam="1">  1       21 0.82197050E-05 0.49679247E+01</pdfrwt>
<pdfrwt beam="2">  1       21 0.84676974E-01 0.49679247E+01</pdfrwt>
<totfact> 0.16590895E+09</totfact>
</mgrwt>
</event>
<event>
 4    1  0.3999109E+006  0.6368116E+01  0.7546771E-02  0.2369841E+00
         21   -1    0    0  503  502  0.00000000000E+00  0.00000000000E+00  0.64322395902E+01  0.64322395902E+01  0.00000000000E+00 0.  1.
         21   -1    0    0  501  503 -0.00000000000E+00 -0.00000000000E+00 -0.63376862190E+01  0.63376862190E+01  0.00000000000E+00 0. -1.
          5    1    1    2  501    0 -0.28527746351E+01  0.32131885286E+01 -0.41383525986E+00  0.63815486570E+01  0.47000000000E+01 0. -1.
         -5    1    1    2    0  502  0.28527746351E+01 -0.32131885286E+01  0.50838863109E+00  0.63883771522E+01  0.47000000000E+01 0.  1.
<mgrwt>
<rscale>  2 0.63681162E+01</rscale>
<asrwt>0</asrwt>
<pdfrwt beam="1">  1       21 0.98957532E-03 0.63681162E+01</pdfrwt>
<pdfrwt beam="2">  1       21 0.97502865E-03 0.63681162E+01</pdfrwt>
<totfact> 0.34991051E+09</totfact>
</mgrwt>
</event>
<event>
 4    1  0.3999109E+006  0.5634424E+01  0.7546771E-02  0.2465580E+00
         21   -1    0    0  501  502  0.00000000000E+00  0.00000000000E+00  0.18478250537E-01  0.18478250537E-01  0.00000000000E+00 0.  1.
         21   -1    0    0  502  503 -0.00000000000E+00 -0.00000000000E+00 -0.23679620974E+04  0.23679620974E+04  0.00000000000E+00 0. -1.
          5    1    1    2  501    0  0.12531561238E+01  0.28436477661E+01 -0.56369589057E+03  0.56372404931E+03  0.47000000000E+01 0.  1.
         -5    1    1    2    0  503 -0.12531561238E+01 -0.28436477661E+01 -0.18042477286E+04  0.18042565264E+04  0.47000000000E+01 0. -1.
<mgrwt>
<rscale>  2 0.56344239E+01</rscale>
<asrwt>0</asrwt>
<pdfrwt beam="1">  1       21 0.28441355E-05 0.56344239E+01</pdfrwt>
<pdfrwt beam="2">  1       21 0.36413180E+00 0.56344239E+01</pdfrwt>
<totfact> 0.27746322E+08</totfact>
</mgrwt>
</event>
<event>
 4    1  0.3999109E+006  0.5236581E+01  0.7546771E-02  0.2526822E+00
         21   -1    0    0  503  502  0.00000000000E+00  0.00000000000E+00  0.29993055296E+01  0.29993055296E+01  0.00000000000E+00 0. -1.
         21   -1    0    0  501  503 -0.00000000000E+00 -0.00000000000E+00 -0.25265996398E+03  0.25265996398E+03  0.00000000000E+00 0.  1.
          5    1    1    2  501    0 -0.22778802184E+01 -0.37820681621E+00 -0.25032584348E+03  0.25038060966E+03  0.47000000000E+01 0.  1.
         -5    1    1    2    0  502  0.22778802184E+01  0.37820681621E+00  0.66518503130E+00  0.52786598499E+01  0.47000000000E+01 0. -1.
<mgrwt>
<rscale>  2 0.52365808E+01</rscale>
<asrwt>0</asrwt>
<pdfrwt beam="1">  1       21 0.46143174E-03 0.52365808E+01</pdfrwt>
<pdfrwt beam="2">  1       21 0.38870753E-01 0.52365808E+01</pdfrwt>
<totfact> 0.32850570E+07</totfact>
</mgrwt>
</event>
<event>
 4    1  0.3999109E+006  0.6311729E+01  0.7546771E-02  0.2376535E+00
         21   -1    0    0  503  502  0.00000000000E+00  0.00000000000E+00  0.35686816644E+01  0.35686816644E+01  0.00000000000E+00 0. -1.
         21   -1    0    0  501  503 -0.00000000000E+00 -0.00000000000E+00 -0.25722640272E+02  0.25722640272E+02  0.00000000000E+00 0.  1.
          5    1    1    2  501    0  0.40213407695E+01 -0.12556811271E+01 -0.22095505388E+02  0.22979322772E+02  0.47000000000E+01 0.  1.
         -5    1    1    2    0  502 -0.40213407695E+01  0.12556811271E+01 -0.58453219210E-01  0.63119991648E+01  0.47000000000E+01 0. -1.
<mgrwt>
<rscale>  2 0.63117285E+01</rscale>
<asrwt>0</asrwt>
<pdfrwt beam="1">  1       21 0.54902794E-03 0.63117285E+01</pdfrwt>
<pdfrwt beam="2">  1       21 0.39573293E-02 0.63117285E+01</pdfrwt>
<totfact> 0.10548520E+09</totfact>
</mgrwt>
</event>
<event>
 4    1  0.3999109E+006  0.4714314E+01  0.7546771E-02  0.2620475E+00
         21   -1    0    0  503  502  0.00000000000E+00  0.00000000000E+00  0.35025525540E+03  0.35025525540E+03  0.00000000000E+00 0.  1.
         21   -1    0    0  501  503 -0.00000000000E+00 -0.00000000000E+00 -0.63453546115E-01  0.63453546115E-01  0.00000000000E+00 0.  1.
          5    1    1    2  501    0  0.93749918700E-01  0.35491305121E+00  0.17560218554E+03  0.17566545568E+03  0.47000000000E+01 0. -1.
         -5    1    1    2    0  502 -0.93749918700E-01 -0.35491305121E+00  0.17458961631E+03  0.17465325326E+03  0.47000000000E+01 0. -1.
<mgrwt>
<rscale>  2 0.47143136E+01</rscale>
<asrwt>0</asrwt>
<pdfrwt beam="1">  1       21 0.53883876E-01 0.47143136E+01</pdfrwt>
<pdfrwt beam="2">  1       21 0.97623645E-05 0.47143136E+01</pdfrwt>
<totfact> 0.29230613E+09</totfact>
</mgrwt>
</event>
<event>
 4    1  0.3999109E+006  0.5622654E+01  0.7546771E-02  0.2467286E+00
         21   -1    0    0  501  502  0.00000000000E+00  0.00000000000E+00  0.15863976304E+03  0.15863976304E+03  0.00000000000E+00 0.  1.
         21   -1    0    0  502  503 -0.00000000000E+00 -0.00000000000E+00 -0.20898879656E+00  0.20898879656E+00  0.00000000000E+00 0.  1.
          5    1    1    2  501    0 -0.27274684650E+01  0.14440046380E+01  0.96331465731E+02  0.96495417112E+02  0.47000000000E+01 0.  1.
         -5    1    1    2    0  503  0.27274684650E+01 -0.14440046380E+01  0.62099308511E+02  0.62353334724E+02  0.47000000000E+01 0.  1.
<mgrwt>
<rscale>  2 0.56226536E+01</rscale>
<asrwt>0</asrwt>
<pdfrwt beam="1">  1       21 0.24406021E-01 0.56226536E+01</pdfrwt>
<pdfrwt beam="2">  1       21 0.32152249E-04 0.56226536E+01</pdfrwt>
<totfact> 0.27190535E+09</totfact>
</mgrwt>
</event>
<event>
 4    1  0.3999109E+006  0.8705908E+01  0.7546771E-02  0.2157101E+00
         21   -1    0    0  501  502  0.00000000000E+00  0.00000000000E+00  0.17205628608E+01  0.17205628608E+01  0.00000000000E+00 0.  1.
         21   -1    0    0  502  503 -0.00000000000E+00 -0.00000000000E+00 -0.47911263417E+02  0.47911263417E+02  0.00000000000E+00 0.  1.
          5    1    1    2  501    0 -0.98024067163E+00 -0.72623658045E+01 -0.16051507654E+02  0.18260441583E+02  0.47000000000E+01 0.  1.
         -5    1    1    2    0  503  0.98024067163E+00  0.72623658045E+01 -0.30139192903E+02  0.31371384695E+02  0.47000000000E+01 0.  1.
<mgrwt>
<rscale>  2 0.87059077E+01</rscale>
<asrwt>0</asrwt>
<pdfrwt beam="1">  1       21 0.26470200E-03 0.87059077E+01</pdfrwt>
<pdfrwt beam="2">  1       21 0.73709629E-02 0.87059077E+01</pdfrwt>
<totfact> 0.14364318E+09</totfact>
</mgrwt>
</event>
<event>
 4    1  0.3999109E+006  0.4946130E+01  0.7546771E-02  0.2576800E+00
         21   -1    0    0  501  502  0.00000000000E+00  0.00000000000E+00  0.54779544100E+00  0.54779544100E+00  0.00000000000E+00 0. -1.
         21   -1    0    0  502  503 -0.00000000000E+00 -0.00000000000E+00 -0.47329216757E+02  0.47329216757E+02  0.00000000000E+00 0.  1.
          5    1    1    2  501    0 -0.11357650112E+01  0.10412672509E+01 -0.29076300137E+02  0.29493989715E+02  0.47000000000E+01 0.  1.
         -5    1    1    2    0  503  0.11357650112E+01 -0.10412672509E+01 -0.17705121179E+02  0.18383022483E+02  0.47000000000E+01 0. -1.
<mgrwt>
<rscale>  2 0.49461298E+01</rscale>
<asrwt>0</asrwt>
<pdfrwt beam="1">  1       21 0.84276209E-04 0.49461298E+01</pdfrwt>
<pdfrwt beam="2">  1       21 0.72814190E-02 0.49461298E+01</pdfrwt>
<totfact> 0.43765507E+09</totfact>
</mgrwt>
</event>
<event>
 4    1  0.3999109E+006  0.5681331E+01  0.7546771E-02  0.2458841E+00
         21   -1    0    0  501  502  0.00000000000E+00  0.00000000000E+00  0.12294781540E+02  0.12294781540E+02  0.00000000000E+00 0. -1.
         21   -1    0    0  502  503 -0.00000000000E+00 -0.00000000000E+00 -0.33644405631E+01  0.33644405631E+01  0.00000000000E+00 0.  1.
          5    1    1    2  501    0  0.23688510676E+01  0.21391748941E+01  0.81350047321E+01  0.99224909473E+01  0.47000000000E+01 0. -1.
         -5    1    1    2    0  503 -0.23688510676E+01 -0.21391748941E+01  0.79533624457E+00  0.57367311555E+01  0.47000000000E+01 0.  1.
<mgrwt>
<rscale>  2 0.56813312E+01</rscale>
<asrwt>0</asrwt>
<pdfrwt beam="1">  1       21 0.18915048E-02 0.56813312E+01</pdfrwt>
<pdfrwt beam="2">  1       21 0.51760625E-03 0.56813312E+01</pdfrwt>
<totfact> 0.30525056E+09</totfact>
</mgrwt>
</event>
<event>
 4    1  0.3999109E+006  0.1049291E+02  0.7546771E-02  0.2047975E+00
         21   -1    0    0  501  502  0.00000000000E+00  0.00000000000E+00  0.80651330102E+03  0.80651330102E+03  0.00000000000E+00 0.  1.
         21   -1    0    0  502  503 -0.00000000000E+00 -0.00000000000E+00 -0.46537681505E+00  0.46537681505E+00  0.00000000000E+00 0. -1.
          5    1    1    2  501    0  0.56413190067E+01  0.74957710480E+01  0.74220885350E+03  0.74228302101E+03  0.47000000000E+01 0.  1.
         -5    1    1    2    0  503 -0.56413190067E+01 -0.74957710480E+01  0.63839070701E+02  0.64695656823E+02  0.47000000000E+01 0. -1.
<mgrwt>
<rscale>  2 0.10492905E+02</rscale>
<asrwt>0</asrwt>
<pdfrwt beam="1">  1       21 0.12407785E+00 0.10492905E+02</pdfrwt>
<pdfrwt beam="2">  1       21 0.71597079E-04 0.10492905E+02</pdfrwt>
<totfact> 0.62975228E+07</totfact>
</mgrwt>
</event>
<event>
 4    1  0.3999109E+006  0.6061536E+01  0.7546771E-02  0.2407483E+00
         21   -1    0    0  501  502  0.00000000000E+00  0.00000000000E+00  0.32347717365E+03  0.32347717365E+03  0.00000000000E+00 0.  1.
         21   -1    0    0  502  503 -0.00000000000E+00 -0.00000000000E+00 -0.12515253462E+00  0.12515253462E+00  0.00000000000E+00 0. -1.
          5    1    1    2  501    0  0.48374328867E+00 -0.37971321798E+01  0.21086619058E+03  0.21095329472E+03  0.47000000000E+01 0. -1.
         -5    1    1    2    0  503 -0.48374328867E+00  0.37971321798E+01  0.11248583053E+03  0.11264903147E+03  0.47000000000E+01 0.  1.
<mgrwt>
<rscale>  2 0.60615361E+01</rscale>
<asrwt>0</asrwt>
<pdfrwt beam="1">  1       21 0.49765050E-01 0.60615361E+01</pdfrwt>
<pdfrwt beam="2">  1       21 0.19254495E-04 0.60615361E+01</pdfrwt>
<totfact> 0.16868448E+09</totfact>
</mgrwt>
</event>
<event>
 4    1  0.3999109E+006  0.6268562E+01  0.7546771E-02  0.2381728E+00
         21   -1    0    0  501  502  0.00000000000E+00  0.00000000000E+00  0.12022914790E+01  0.12022914790E+01  0.00000000000E+00 0.  1.
         21   -1    0    0  502  503 -0.00000000000E+00 -0.00000000000E+00 -0.33151465284E+02  0.33151465284E+02  0.00000000000E+00 0. -1.
          5    1    1    2  501    0 -0.39110150767E+01 -0.13816033308E+01 -0.13933379038E+02  0.15278544371E+02  0.47000000000E+01 0.  1.
         -5    1    1    2    0  503  0.39110150767E+01  0.13816033308E+01 -0.18015794767E+02  0.19075212391E+02  0.47000000000E+01 0. -1.
<mgrwt>
<rscale>  2 0.62685618E+01</rscale>
<asrwt>0</asrwt>
<pdfrwt beam="1">  1       21 0.18496793E-03 0.62685618E+01</pdfrwt>
<pdfrwt beam="2">  1       21 0.51002252E-02 0.62685618E+01</pdfrwt>
<totfact> 0.32297687E+09</totfact>
</mgrwt>
</event>
<event>
 4    1  0.3999109E+006  0.5211774E+01  0.7546771E-02  0.2530903E+00
         21   -1    0    0  503  502  0.00000000000E+00  0.00000000000E+00  0.12191168140E+02  0.12191168140E+02  0.00000000000E+00 0. -1.
         21   -1    0    0  501  503 -0.00000000000E+00 -0.00000000000E+00 -0.23840988778E+01  0.23840988778E+01  0.00000000000E+00 0.  1.
          5    1    1    2  501    0 -0.13876842308E+01  0.17739567046E+01  0.67679734078E+01  0.85421340403E+01  0.47000000000E+01 0.  1.
         -5    1    1    2    0  502  0.13876842308E+01 -0.17739567046E+01  0.30390958547E+01  0.60331329778E+01  0.47000000000E+01 0.  1.
<mgrwt>
<rscale>  2 0.52117742E+01</rscale>
<asrwt>0</asrwt>
<pdfrwt beam="1">  1       21 0.18755643E-02 0.52117742E+01</pdfrwt>
<pdfrwt beam="2">  1       21 0.36678445E-03 0.52117742E+01</pdfrwt>
<totfact> 0.45653594E+09</totfact>
</mgrwt>
</event>
<event>
 4    1  0.3999109E+006  0.1163996E+02  0.7546771E-02  0.1992142E+00
         21   -1    0    0  503  502  0.00000000000E+00  0.00000000000E+00  0.92538060192E+01  0.92538060192E+01  0.00000000000E+00 0. -1.
         21   -1    0    0  501  503 -0.00000000000E+00 -0.00000000000E+00 -0.14788632486E+02  0.14788632486E+02  0.00000000000E+00 0.  1.
          5    1    1    2  501    0  0.12677907609E+01 -0.10573142794E+02 -0.15679369338E+01  0.11745086981E+02  0.47000000000E+01 0.  1.
         -5    1    1    2    0  502 -0.12677907609E+01  0.10573142794E+02 -0.39668895334E+01  0.12297351525E+02  0.47000000000E+01 0. -1.
<mgrwt>
<rscale>  2 0.11639959E+02</rscale>
<asrwt>0</asrwt>
<pdfrwt beam="1">  1       21 0.14236625E-02 0.11639959E+02</pdfrwt>
<pdfrwt beam="2">  1       21 0.22751742E-02 0.11639959E+02</pdfrwt>
<totfact> 0.90968588E+08</totfact>
</mgrwt>
</event>
<event>
 4    1  0.3999109E+006  0.5282118E+01  0.7546771E-02  0.2519415E+00
         21   -1    0    0  501  502  0.00000000000E+00  0.00000000000E+00  0.23241857389E+01  0.23241857389E+01  0.00000000000E+00 0.  1.
         21   -1    0    0  502  503 -0.00000000000E+00 -0.00000000000E+00 -0.20730094493E+02  0.20730094493E+02  0.00000000000E+00 0.  1.
          5    1    1    2  501    0 -0.12704618876E+01  0.20485853279E+01 -0.17244025644E+01  0.55564682540E+01  0.47000000000E+01 0.  1.
         -5    1    1    2    0  503  0.12704618876E+01 -0.20485853279E+01 -0.16681506190E+02  0.17497811978E+02  0.47000000000E+01 0.  1.
<mgrwt>
<rscale>  2 0.52821184E+01</rscale>
<asrwt>0</asrwt>
<pdfrwt beam="1">  1       21 0.35756703E-03 0.52821184E+01</pdfrwt>
<pdfrwt beam="2">  1       21 0.31892454E-02 0.52821184E+01</pdfrwt>
<totfact> 0.22408035E+09</totfact>
</mgrwt>
</event>
<event>
 4    1  0.3999109E+006  0.8962447E+01  0.7546771E-02  0.2139338E+00
         21   -1    0    0  503  502  0.00000000000E+00  0.00000000000E+00  0.73278395011E+00  0.73278395011E+00  0.00000000000E+00 0. -1.
         21   -1    0    0  501  503 -0.00000000000E+00 -0.00000000000E+00 -0.14555038870E+03  0.14555038870E+03  0.00000000000E+00 0.  1.
          5    1    1    2  501    0  0.74195632250E+01  0.17848089802E+01 -0.10875071171E+03  0.10911939680E+03  0.47000000000E+01 0.  1.
         -5    1    1    2    0  502 -0.74195632250E+01 -0.17848089802E+01 -0.36066893037E+02  0.37163775843E+02  0.47000000000E+01 0. -1.
<mgrwt>
<rscale>  2 0.89624473E+01</rscale>
<asrwt>0</asrwt>
<pdfrwt beam="1">  1       21 0.11273602E-03 0.89624473E+01</pdfrwt>
<pdfrwt beam="2">  1       21 0.22392362E-01 0.89624473E+01</pdfrwt>
<totfact> 0.80115474E+08</totfact>
</mgrwt>
</event>
<event>
 4    1  0.3999109E+006  0.5909024E+01  0.7546771E-02  0.2427417E+00
         21   -1    0    0  503  502  0.00000000000E+00  0.00000000000E+00  0.90194318195E+02  0.90194318195E+02  0.00000000000E+00 0. -1.
         21   -1    0    0  501  503 -0.00000000000E+00 -0.00000000000E+00 -0.95783809365E+00  0.95783809365E+00  0.00000000000E+00 0.  1.
          5    1    1    2  501    0 -0.32663992711E+01  0.14687422733E+01  0.94379491701E+01  0.11135144929E+02  0.47000000000E+01 0. -1.
         -5    1    1    2    0  502  0.32663992711E+01 -0.14687422733E+01  0.79798530932E+02  0.80017011359E+02  0.47000000000E+01 0. -1.
<mgrwt>
<rscale>  2 0.59090243E+01</rscale>
<asrwt>0</asrwt>
<pdfrwt beam="1">  1       21 0.13876042E-01 0.59090243E+01</pdfrwt>
<pdfrwt beam="2">  1       21 0.14735978E-03 0.59090243E+01</pdfrwt>
<totfact> 0.91159446E+08</totfact>
</mgrwt>
</event>
<event>
 4    1  0.3999109E+006  0.7066873E+01  0.7546771E-02  0.2294304E+00
         21   -1    0    0  503  502  0.00000000000E+00  0.00000000000E+00  0.19422129453E+03  0.19422129453E+03  0.00000000000E+00 0.  1.
         21   -1    0    0  501  503 -0.00000000000E+00 -0.00000000000E+00 -0.26804018899E+00  0.26804018899E+00  0.00000000000E+00 0.  1.
          5    1    1    2  501    0  0.13264473784E+01  0.51079581033E+01  0.77360068589E+02  0.77682178849E+02  0.47000000000E+01 0.  1.
         -5    1    1    2    0  502 -0.13264473784E+01 -0.51079581033E+01  0.11659318575E+03  0.11680715587E+03  0.47000000000E+01 0.  1.
<mgrwt>
<rscale>  2 0.70668733E+01</rscale>
<asrwt>0</asrwt>
<pdfrwt beam="1">  1       21 0.29880087E-01 0.70668733E+01</pdfrwt>
<pdfrwt beam="2">  1       21 0.41237107E-04 0.70668733E+01</pdfrwt>
<totfact> 0.16583995E+09</totfact>
</mgrwt>
</event>
<event>
 4    1  0.3999109E+006  0.5198718E+01  0.7546771E-02  0.2533064E+00
         21   -1    0    0  501  502  0.00000000000E+00  0.00000000000E+00  0.88766858847E-01  0.88766858847E-01  0.00000000000E+00 0.  1.
         21   -1    0    0  502  503 -0.00000000000E+00 -0.00000000000E+00 -0.32240165752E+03  0.32240165752E+03  0.00000000000E+00 0. -1.
          5    1    1    2  501    0  0.14181484925E+01  0.17104159586E+01 -0.12312676787E+03  0.12323647039E+03  0.47000000000E+01 0. -1.
         -5    1    1    2    0  503 -0.14181484925E+01 -0.17104159586E+01 -0.19918612280E+03  0.19925395400E+03  0.47000000000E+01 0. -1.
<mgrwt>
<rscale>  2 0.51987179E+01</rscale>
<asrwt>0</asrwt>
<pdfrwt beam="1">  1       21 0.13656432E-04 0.51987179E+01</pdfrwt>
<pdfrwt beam="2">  1       21 0.49600284E-01 0.51987179E+01</pdfrwt>
<totfact> 0.23696735E+09</totfact>
</mgrwt>
</event>
<event>
 4    1  0.3999109E+006  0.6330560E+01  0.7546771E-02  0.2374289E+00
         21   -1    0    0  503  502  0.00000000000E+00  0.00000000000E+00  0.40244466768E+00  0.40244466768E+00  0.00000000000E+00 0. -1.
         21   -1    0    0  501  503 -0.00000000000E+00 -0.00000000000E+00 -0.10876782413E+03  0.10876782413E+03  0.00000000000E+00 0. -1.
          5    1    1    2  501    0 -0.27012657207E+01  0.32694265779E+01 -0.70046167197E+02  0.70331653796E+02  0.47000000000E+01 0. -1.
         -5    1    1    2    0  502  0.27012657207E+01 -0.32694265779E+01 -0.38319212266E+02  0.38838615002E+02  0.47000000000E+01 0. -1.
<mgrwt>
<rscale>  2 0.63305597E+01</rscale>
<asrwt>0</asrwt>
<pdfrwt beam="1">  1       21 0.61914494E-04 0.63305597E+01</pdfrwt>
<pdfrwt beam="2">  1       21 0.16733530E-01 0.63305597E+01</pdfrwt>
<totfact> 0.22990419E+09</totfact>
</mgrwt>
</event>
<event>
 4    1  0.3999109E+006  0.5333489E+01  0.7546771E-02  0.2511189E+00
         21   -1    0    0  501  502  0.00000000000E+00  0.00000000000E+00  0.36587851654E+03  0.36587851654E+03  0.00000000000E+00 0.  1.
         21   -1    0    0  502  503 -0.00000000000E+00 -0.00000000000E+00 -0.77759142566E-01  0.77759142566E-01  0.00000000000E+00 0.  1.
          5    1    1    2  501    0 -0.12480814646E+01 -0.21905247715E+01  0.18065253322E+03  0.18073124761E+03  0.47000000000E+01 0.  1.
         -5    1    1    2    0  503  0.12480814646E+01  0.21905247715E+01  0.18514822418E+03  0.18522502807E+03  0.47000000000E+01 0.  1.
<mgrwt>
<rscale>  2 0.53334891E+01</rscale>
<asrwt>0</asrwt>
<pdfrwt beam="1">  1       21 0.56287624E-01 0.53334891E+01</pdfrwt>
<pdfrwt beam="2">  1       21 0.11963238E-04 0.53334891E+01</pdfrwt>
<totfact> 0.22983864E+09</totfact>
</mgrwt>
</event>
<event>
 4    1  0.3999109E+006  0.6651726E+01  0.7546771E-02  0.2337606E+00
         21   -1    0    0  503  502  0.00000000000E+00  0.00000000000E+00  0.43284590927E+03  0.43284590927E+03  0.00000000000E+00 0.  1.
         21   -1    0    0  501  503 -0.00000000000E+00 -0.00000000000E+00 -0.11130905004E+00  0.11130905004E+00  0.00000000000E+00 0.  1.
          5    1    1    2  501    0 -0.53021182830E+00  0.46769998747E+01  0.15450698713E+03  0.15465010354E+03  0.47000000000E+01 0.  1.
         -5    1    1    2    0  502  0.53021182830E+00 -0.46769998747E+01  0.27822761309E+03  0.27830711478E+03  0.47000000000E+01 0.  1.
<mgrwt>
<rscale>  2 0.66517255E+01</rscale>
<asrwt>0</asrwt>
<pdfrwt beam="1">  1       21 0.66590331E-01 0.66517255E+01</pdfrwt>
<pdfrwt beam="2">  1       21 0.17124816E-04 0.66517255E+01</pdfrwt>
<totfact> 0.12293343E+09</totfact>
</mgrwt>
</event>
<event>
 4    1  0.3999109E+006  0.6462270E+01  0.7546771E-02  0.2358880E+00
         21   -1    0    0  501  502  0.00000000000E+00  0.00000000000E+00  0.43731343775E+00  0.43731343775E+00  0.00000000000E+00 0.  1.
         21   -1    0    0  502  503 -0.00000000000E+00 -0.00000000000E+00 -0.34883429927E+03  0.34883429927E+03  0.00000000000E+00 0. -1.
          5    1    1    2  501    0  0.42962232677E+01 -0.11015449384E+01 -0.25373594139E+02  0.26183586751E+02  0.47000000000E+01 0.  1.
         -5    1    1    2    0  503 -0.42962232677E+01  0.11015449384E+01 -0.32302339169E+03  0.32308802595E+03  0.47000000000E+01 0. -1.
<mgrwt>
<rscale>  2 0.64622702E+01</rscale>
<asrwt>0</asrwt>
<pdfrwt beam="1">  1       21 0.67278956E-04 0.64622702E+01</pdfrwt>
<pdfrwt beam="2">  1       21 0.53666842E-01 0.64622702E+01</pdfrwt>
<totfact> 0.28811279E+08</totfact>
</mgrwt>
</event>
<event>
 4    1  0.3999109E+006  0.5060760E+01  0.7546771E-02  0.2556487E+00
         21   -1    0    0  501  502  0.00000000000E+00  0.00000000000E+00  0.25611648594E+03  0.25611648594E+03  0.00000000000E+00 0. -1.
         21   -1    0    0  502  503 -0.00000000000E+00 -0.00000000000E+00 -0.11319099389E+00  0.11319099389E+00  0.00000000000E+00 0. -1.
          5    1    1    2  501    0 -0.28434238668E+00 -0.18548421062E+01  0.17173928432E+03  0.17181383258E+03  0.47000000000E+01 0.  1.
         -5    1    1    2    0  503  0.28434238668E+00  0.18548421062E+01  0.84264010630E+02  0.84415844350E+02  0.47000000000E+01 0.  1.
<mgrwt>
<rscale>  2 0.50607598E+01</rscale>
<asrwt>0</asrwt>
<pdfrwt beam="1">  1       21 0.39402072E-01 0.50607598E+01</pdfrwt>
<pdfrwt beam="2">  1       21 0.17414204E-04 0.50607598E+01</pdfrwt>
<totfact> 0.25087591E+09</totfact>
</mgrwt>
</event>
<event>
 4    1  0.3999109E+006  0.1076314E+02  0.7546771E-02  0.2033992E+00
         21   -1    0    0  501  502  0.00000000000E+00  0.00000000000E+00  0.41142003862E+01  0.41142003862E+01  0.00000000000E+00 0. -1.
         21   -1    0    0  502  503 -0.00000000000E+00 -0.00000000000E+00 -0.29104683655E+02  0.29104683655E+02  0.00000000000E+00 0.  1.
          5    1    1    2  501    0 -0.96216327324E+01 -0.10860000067E+01 -0.94987563661E+01  0.14355193658E+02  0.47000000000E+01 0. -1.
         -5    1    1    2    0  503  0.96216327324E+01  0.10860000067E+01 -0.15491726903E+02  0.18863690383E+02  0.47000000000E+01 0. -1.
<mgrwt>
<rscale>  2 0.10763141E+02</rscale>
<asrwt>0</asrwt>
<pdfrwt beam="1">  1       21 0.63295393E-03 0.10763141E+02</pdfrwt>
<pdfrwt beam="2">  1       21 0.44776435E-02 0.10763141E+02</pdfrwt>
<totfact> 0.10195756E+09</totfact>
</mgrwt>
</event>
<event>
 4    1  0.3999109E+006  0.6230940E+01  0.7546771E-02  0.2386302E+00
         21   -1    0    0  503  502  0.00000000000E+00  0.00000000000E+00  0.17587282154E+02  0.17587282154E+02  0.00000000000E+00 0.  1.
         21   -1    0    0  501  503 -0.00000000000E+00 -0.00000000000E+00 -0.22410840849E+01  0.22410840849E+01  0.00000000000E+00 0.  1.
          5    1    1    2  501    0 -0.39364892072E+01 -0.11129551362E+01  0.64601559826E+01  0.89754237634E+01  0.47000000000E+01 0.  1.
         -5    1    1    2    0  502  0.39364892072E+01  0.11129551362E+01  0.88860420868E+01  0.10852942476E+02  0.47000000000E+01 0.  1.
<mgrwt>
<rscale>  2 0.62309403E+01</rscale>
<asrwt>0</asrwt>
<pdfrwt beam="1">  1       21 0.27057356E-02 0.62309403E+01</pdfrwt>
<pdfrwt beam="2">  1       21 0.34478218E-03 0.62309403E+01</pdfrwt>
<totfact> 0.34722864E+09</totfact>
</mgrwt>
</event>
<event>
 4    1  0.3999109E+006  0.6328364E+01  0.7546771E-02  0.2374550E+00
         21   -1    0    0  501  502  0.00000000000E+00  0.00000000000E+00  0.35474106868E+03  0.35474106868E+03  0.00000000000E+00 0.  1.
         21   -1    0    0  502  503 -0.00000000000E+00 -0.00000000000E+00 -0.11373788726E+00  0.11373788726E+00  0.00000000000E+00 0.  1.
          5    1    1    2  501    0  0.42332531491E+01 -0.19430451020E+00  0.19259549399E+03  0.19269943563E+03  0.47000000000E+01 0.  1.
         -5    1    1    2    0  503 -0.42332531491E+01  0.19430451020E+00  0.16203183680E+03  0.16215537094E+03  0.47000000000E+01 0.  1.
<mgrwt>
<rscale>  2 0.63283636E+01</rscale>
<asrwt>0</asrwt>
<pdfrwt beam="1">  1       21 0.54574663E-01 0.63283636E+01</pdfrwt>
<pdfrwt beam="2">  1       21 0.17498421E-04 0.63283636E+01</pdfrwt>
<totfact> 0.16724677E+09</totfact>
</mgrwt>
</event>
<event>
 4    1  0.3999109E+006  0.6449352E+01  0.7546771E-02  0.2360368E+00
         21   -1    0    0  503  502  0.00000000000E+00  0.00000000000E+00  0.11683913759E+03  0.11683913759E+03  0.00000000000E+00 0. -1.
         21   -1    0    0  501  503 -0.00000000000E+00 -0.00000000000E+00 -0.35688837103E+00  0.35688837103E+00  0.00000000000E+00 0.  1.
          5    1    1    2  501    0 -0.97757822805E+00  0.43067941395E+01  0.55309141921E+02  0.55683887391E+02  0.47000000000E+01 0.  1.
         -5    1    1    2    0  502  0.97757822805E+00 -0.43067941395E+01  0.61173107298E+02  0.61512138570E+02  0.47000000000E+01 0. -1.
<mgrwt>
<rscale>  2 0.64493515E+01</rscale>
<asrwt>0</asrwt>
<pdfrwt beam="1">  1       21 0.17975221E-01 0.64493515E+01</pdfrwt>
<pdfrwt beam="2">  1       21 0.54905996E-04 0.64493515E+01</pdfrwt>
<totfact> 0.24441544E+09</totfact>
</mgrwt>
</event>
<event>
 4    1  0.3999109E+006  0.6789156E+01  0.7546771E-02  0.2322790E+00
         21   -1    0    0  503  502  0.00000000000E+00  0.00000000000E+00  0.14728372089E+00  0.14728372089E+00  0.00000000000E+00 0. -1.
         21   -1    0    0  501  503 -0.00000000000E+00 -0.00000000000E+00 -0.31321515030E+03  0.31321515030E+03  0.00000000000E+00 0.  1.
          5    1    1    2  501    0  0.13401178351E+01 -0.47124012256E+01 -0.16108091203E+03  0.16122392149E+03  0.47000000000E+01 0.  1.
         -5    1    1    2    0  502 -0.13401178351E+01  0.47124012256E+01 -0.15198695454E+03  0.15213851252E+03  0.47000000000E+01 0.  1.
<mgrwt>
<rscale>  2 0.67891561E+01</rscale>
<asrwt>0</asrwt>
<pdfrwt beam="1">  1       21 0.22659103E-04 0.67891561E+01</pdfrwt>
<pdfrwt beam="2">  1       21 0.48186799E-01 0.67891561E+01</pdfrwt>
<totfact> 0.15599244E+09</totfact>
</mgrwt>
</event>
<event>
 4    1  0.3999109E+006  0.6742881E+01  0.7546771E-02  0.2327723E+00
         21   -1    0    0  501  502  0.00000000000E+00  0.00000000000E+00  0.14957774688E+00  0.14957774688E+00  0.00000000000E+00 0.  1.
         21   -1    0    0  502  503 -0.00000000000E+00 -0.00000000000E+00 -0.34598157439E+03  0.34598157439E+03  0.00000000000E+00 0. -1.
          5    1    1    2  501    0 -0.22850388588E+01 -0.42608726472E+01 -0.11260546090E+03  0.11280716406E+03  0.47000000000E+01 0.  1.
         -5    1    1    2    0  503  0.22850388588E+01  0.42608726472E+01 -0.23322653575E+03  0.23332398808E+03  0.47000000000E+01 0. -1.
<mgrwt>
<rscale>  2 0.67428806E+01</rscale>
<asrwt>0</asrwt>
<pdfrwt beam="1">  1       21 0.23012053E-04 0.67428806E+01</pdfrwt>
<pdfrwt beam="2">  1       21 0.53227722E-01 0.67428806E+01</pdfrwt>
<totfact> 0.12688291E+09</totfact>
</mgrwt>
</event>
<event>
 4    1  0.3999109E+006  0.4856207E+01  0.7546771E-02  0.2593312E+00
         21   -1    0    0  503  502  0.00000000000E+00  0.00000000000E+00  0.50995611800E+00  0.50995611800E+00  0.00000000000E+00 0.  1.
         21   -1    0    0  501  503 -0.00000000000E+00 -0.00000000000E+00 -0.46756155635E+02  0.46756155635E+02  0.00000000000E+00 0.  1.
          5    1    1    2  501    0 -0.11522028347E+01  0.40641984390E+00 -0.20651259074E+02  0.21214552784E+02  0.47000000000E+01 0. -1.
         -5    1    1    2    0  502  0.11522028347E+01 -0.40641984390E+00 -0.25594940443E+02  0.26051558970E+02  0.47000000000E+01 0. -1.
<mgrwt>
<rscale>  2 0.48562072E+01</rscale>
<asrwt>0</asrwt>
<pdfrwt beam="1">  1       21 0.78454794E-04 0.48562072E+01</pdfrwt>
<pdfrwt beam="2">  1       21 0.71932541E-02 0.48562072E+01</pdfrwt>
<totfact> 0.48066085E+09</totfact>
</mgrwt>
</event>
<event>
 4    1  0.3999109E+006  0.1059743E+02  0.7546771E-02  0.2042501E+00
         21   -1    0    0  501  502  0.00000000000E+00  0.00000000000E+00  0.77184822026E+00  0.77184822026E+00  0.00000000000E+00 0. -1.
         21   -1    0    0  502  503 -0.00000000000E+00 -0.00000000000E+00 -0.25113397907E+03  0.25113397907E+03  0.00000000000E+00 0. -1.
          5    1    1    2  501    0  0.68097067717E+01 -0.66214290252E+01 -0.43494004495E+02  0.44766436709E+02  0.47000000000E+01 0. -1.
         -5    1    1    2    0  503 -0.68097067717E+01  0.66214290252E+01 -0.20686812635E+03  0.20713939058E+03  0.47000000000E+01 0. -1.
<mgrwt>
<rscale>  2 0.10597426E+02</rscale>
<asrwt>0</asrwt>
<pdfrwt beam="1">  1       21 0.11874580E-03 0.10597426E+02</pdfrwt>
<pdfrwt beam="2">  1       21 0.38636023E-01 0.10597426E+02</pdfrwt>
<totfact> 0.31530025E+08</totfact>
</mgrwt>
</event>
<event>
 4    1  0.3999109E+006  0.5364387E+01  0.7546771E-02  0.2506306E+00
         21   -1    0    0  503  502  0.00000000000E+00  0.00000000000E+00  0.19795303367E+02  0.19795303367E+02  0.00000000000E+00 0. -1.
         21   -1    0    0  501  503 -0.00000000000E+00 -0.00000000000E+00 -0.14557373089E+01  0.14557373089E+01  0.00000000000E+00 0. -1.
          5    1    1    2  501    0 -0.60187159159E+00 -0.25148346391E+01  0.87733201406E+01  0.10283374396E+02  0.47000000000E+01 0. -1.
         -5    1    1    2    0  502  0.60187159159E+00  0.25148346391E+01  0.95662459171E+01  0.10967666280E+02  0.47000000000E+01 0. -1.
<mgrwt>
<rscale>  2 0.53643865E+01</rscale>
<asrwt>0</asrwt>
<pdfrwt beam="1">  1       21 0.30454311E-02 0.53643865E+01</pdfrwt>
<pdfrwt beam="2">  1       21 0.22395960E-03 0.53643865E+01</pdfrwt>
<totfact> 0.45984440E+09</totfact>
</mgrwt>
</event>
<event>
 4    1  0.3999109E+006  0.4852030E+01  0.7546771E-02  0.2594092E+00
         21   -1    0    0  503  502  0.00000000000E+00  0.00000000000E+00  0.75415444242E+01  0.75415444242E+01  0.00000000000E+00 0. -1.
         21   -1    0    0  501  503 -0.00000000000E+00 -0.00000000000E+00 -0.76076218322E+01  0.76076218322E+01  0.00000000000E+00 0. -1.
          5    1    1    2  501    0  0.11529645967E+01 -0.35052395647E+00 -0.58495382749E+01  0.75999534495E+01  0.47000000000E+01 0. -1.
         -5    1    1    2    0  502 -0.11529645967E+01  0.35052395647E+00  0.57834608668E+01  0.75492128069E+01  0.47000000000E+01 0. -1.
<mgrwt>
<rscale>  2 0.48520299E+01</rscale>
<asrwt>0</asrwt>
<pdfrwt beam="1">  1       21 0.11602376E-02 0.48520299E+01</pdfrwt>
<pdfrwt beam="2">  1       21 0.11704034E-02 0.48520299E+01</pdfrwt>
<totfact> 0.16786036E+09</totfact>
</mgrwt>
</event>
<event>
 4    1  0.3999109E+006  0.5057355E+01  0.7546771E-02  0.2557079E+00
         21   -1    0    0  503  502  0.00000000000E+00  0.00000000000E+00  0.43276893871E+02  0.43276893871E+02  0.00000000000E+00 0.  1.
         21   -1    0    0  501  503 -0.00000000000E+00 -0.00000000000E+00 -0.19072073074E+01  0.19072073074E+01  0.00000000000E+00 0.  1.
          5    1    1    2  501    0  0.16570698653E+01  0.86078944016E+00  0.19168384175E+01  0.54084293947E+01  0.47000000000E+01 0.  1.
         -5    1    1    2    0  502 -0.16570698653E+01 -0.86078944016E+00  0.39452848146E+02  0.39775671784E+02  0.47000000000E+01 0.  1.
<mgrwt>
<rscale>  2 0.50573549E+01</rscale>
<asrwt>0</asrwt>
<pdfrwt beam="1">  1       21 0.66579830E-02 0.50573549E+01</pdfrwt>
<pdfrwt beam="2">  1       21 0.29341654E-03 0.50573549E+01</pdfrwt>
<totfact> 0.96020311E+08</totfact>
</mgrwt>
</event>
<event>
 4    1  0.3999109E+006  0.5528222E+01  0.7546771E-02  0.2481194E+00
         21   -1    0    0  501  502  0.00000000000E+00  0.00000000000E+00  0.15345914322E+02  0.15345914322E+02  0.00000000000E+00 0. -1.
         21   -1    0    0  502  503 -0.00000000000E+00 -0.00000000000E+00 -0.25401184909E+01  0.25401184909E+01  0.00000000000E+00 0.  1.
          5    1    1    2  501    0 -0.28506638690E+01  0.58732940792E+00  0.10559094475E+02  0.11918712869E+02  0.47000000000E+01 0.  1.
         -5    1    1    2    0  503  0.28506638690E+01 -0.58732940792E+00  0.22467013560E+01  0.59673199437E+01  0.47000000000E+01 0.  1.
<mgrwt>
<rscale>  2 0.55282222E+01</rscale>
<asrwt>0</asrwt>
<pdfrwt beam="1">  1       21 0.23609098E-02 0.55282222E+01</pdfrwt>
<pdfrwt beam="2">  1       21 0.39078747E-03 0.55282222E+01</pdfrwt>
<totfact> 0.31940159E+09</totfact>
</mgrwt>
</event>
<event>
 4    1  0.3999109E+006  0.1144081E+02  0.7546771E-02  0.2001210E+00
         21   -1    0    0  503  502  0.00000000000E+00  0.00000000000E+00  0.10310849379E+01  0.10310849379E+01  0.00000000000E+00 0.  1.
         21   -1    0    0  501  503 -0.00000000000E+00 -0.00000000000E+00 -0.16612329933E+03  0.16612329933E+03  0.00000000000E+00 0. -1.
          5    1    1    2  501    0  0.58740498734E+01 -0.86196045009E+01 -0.12313340131E+03  0.12366376414E+03  0.47000000000E+01 0. -1.
         -5    1    1    2    0  502 -0.58740498734E+01  0.86196045009E+01 -0.41958813086E+02  0.43490620130E+02  0.47000000000E+01 0.  1.
<mgrwt>
<rscale>  2 0.11440806E+02</rscale>
<asrwt>0</asrwt>
<pdfrwt beam="1">  1       21 0.15862853E-03 0.11440806E+02</pdfrwt>
<pdfrwt beam="2">  1       21 0.25557418E-01 0.11440806E+02</pdfrwt>
<totfact> 0.45259128E+08</totfact>
</mgrwt>
</event>
<event>
 4    1  0.3999109E+006  0.6253005E+01  0.7546771E-02  0.2383614E+00
         21   -1    0    0  503  502  0.00000000000E+00  0.00000000000E+00  0.47881733017E+02  0.47881733017E+02  0.00000000000E+00 0.  1.
         21   -1    0    0  501  503 -0.00000000000E+00 -0.00000000000E+00 -0.10699741961E+01  0.10699741961E+01  0.00000000000E+00 0.  1.
          5    1    1    2  501    0  0.41240026808E+01  0.51687834493E-01  0.35316520366E+02  0.35865814928E+02  0.47000000000E+01 0.  1.
         -5    1    1    2    0  502 -0.41240026808E+01 -0.51687834493E-01  0.11495238455E+02  0.13085892285E+02  0.47000000000E+01 0.  1.
<mgrwt>
<rscale>  2 0.62530049E+01</rscale>
<asrwt>0</asrwt>
<pdfrwt beam="1">  1       21 0.73664188E-02 0.62530049E+01</pdfrwt>
<pdfrwt beam="2">  1       21 0.16461145E-03 0.62530049E+01</pdfrwt>
<totfact> 0.21754721E+09</totfact>
</mgrwt>
</event>
<event>
 4    1  0.3999109E+006  0.5366322E+01  0.7546771E-02  0.2506002E+00
         21   -1    0    0  501  502  0.00000000000E+00  0.00000000000E+00  0.98204921415E+00  0.98204921415E+00  0.00000000000E+00 0.  1.
         21   -1    0    0  502  503 -0.00000000000E+00 -0.00000000000E+00 -0.54417654165E+02  0.54417654165E+02  0.00000000000E+00 0. -1.
          5    1    1    2  501    0 -0.24119578346E+01 -0.94333102740E+00 -0.79076971712E+01  0.95566253759E+01  0.47000000000E+01 0.  1.
         -5    1    1    2    0  503  0.24119578346E+01  0.94333102740E+00 -0.45527907779E+02  0.45843078003E+02  0.47000000000E+01 0. -1.
<mgrwt>
<rscale>  2 0.53663222E+01</rscale>
<asrwt>0</asrwt>
<pdfrwt beam="1">  1       21 0.15108450E-03 0.53663222E+01</pdfrwt>
<pdfrwt beam="2">  1       21 0.83719464E-02 0.53663222E+01</pdfrwt>
<totfact> 0.17656817E+09</totfact>
</mgrwt>
</event>
<event>
 4    1  0.3999109E+006  0.6315081E+01  0.7546771E-02  0.2376135E+00
         21   -1    0    0  501  502  0.00000000000E+00  0.00000000000E+00  0.18496152103E+02  0.18496152103E+02  0.00000000000E+00 0. -1.
         21   -1    0    0  502  503 -0.00000000000E+00 -0.00000000000E+00 -0.64042917327E+01  0.64042917327E+01  0.00000000000E+00 0.  1.
          5    1    1    2  501    0  0.37971443870E+01 -0.18362852772E+01  0.16186016960E+02  0.17374331473E+02  0.47000000000E+01 0. -1.
         -5    1    1    2    0  503 -0.37971443870E+01  0.18362852772E+01 -0.40941565894E+01  0.75261123625E+01  0.47000000000E+01 0.  1.
<mgrwt>
<rscale>  2 0.63150811E+01</rscale>
<asrwt>0</asrwt>
<pdfrwt beam="1">  1       21 0.28455618E-02 0.63150811E+01</pdfrwt>
<pdfrwt beam="2">  1       21 0.98527566E-03 0.63150811E+01</pdfrwt>
<totfact> 0.75206947E+08</totfact>
</mgrwt>
</event>
<event>
 4    1  0.3999109E+006  0.7620334E+01  0.7546771E-02  0.2242655E+00
         21   -1    0    0  503  502  0.00000000000E+00  0.00000000000E+00  0.19077871708E+02  0.19077871708E+02  0.00000000000E+00 0.  1.
         21   -1    0    0  501  503 -0.00000000000E+00 -0.00000000000E+00 -0.35998551710E+01  0.35998551710E+01  0.00000000000E+00 0. -1.
          5    1    1    2  501    0  0.52658975137E+01 -0.28722485715E+01  0.12195371452E+02  0.14380423267E+02  0.47000000000E+01 0.  1.
         -5    1    1    2    0  502 -0.52658975137E+01  0.28722485715E+01  0.32826450853E+01  0.82973036125E+01  0.47000000000E+01 0. -1.
<mgrwt>
<rscale>  2 0.76203339E+01</rscale>
<asrwt>0</asrwt>
<pdfrwt beam="1">  1       21 0.29350571E-02 0.76203339E+01</pdfrwt>
<pdfrwt beam="2">  1       21 0.55382388E-03 0.76203339E+01</pdfrwt>
<totfact> 0.18669041E+09</totfact>
</mgrwt>
</event>
<event>
 4    1  0.3999109E+006  0.1102549E+02  0.7546771E-02  0.2020930E+00
         21   -1    0    0  503  502  0.00000000000E+00  0.00000000000E+00  0.14491151252E+00  0.14491151252E+00  0.00000000000E+00 0. -1.
         21   -1    0    0  501  503 -0.00000000000E+00 -0.00000000000E+00 -0.12196289971E+04  0.12196289971E+04  0.00000000000E+00 0.  1.
          5    1    1    2  501    0 -0.66928577449E+01 -0.73943957530E+01 -0.95051292408E+03  0.95057686710E+03  0.47000000000E+01 0.  1.
         -5    1    1    2    0  502  0.66928577449E+01  0.73943957530E+01 -0.26897116151E+03  0.26919704151E+03  0.47000000000E+01 0. -1.
<mgrwt>
<rscale>  2 0.11025490E+02</rscale>
<asrwt>0</asrwt>
<pdfrwt beam="1">  1       21 0.22294998E-04 0.11025490E+02</pdfrwt>
<pdfrwt beam="2">  1       21 0.18762749E+00 0.11025490E+02</pdfrwt>
<totfact> 0.12425051E+08</totfact>
</mgrwt>
</event>
<event>
 4    1  0.3999109E+006  0.5844718E+01  0.7546771E-02  0.2436083E+00
         21   -1    0    0  503  502  0.00000000000E+00  0.00000000000E+00  0.64113225531E+00  0.64113225531E+00  0.00000000000E+00 0. -1.
         21   -1    0    0  501  503 -0.00000000000E+00 -0.00000000000E+00 -0.63437094908E+02  0.63437094908E+02  0.00000000000E+00 0. -1.
          5    1    1    2  501    0 -0.32708328927E+01  0.11714859661E+01 -0.44216964141E+02  0.44601576710E+02  0.47000000000E+01 0. -1.
         -5    1    1    2    0  502  0.32708328927E+01 -0.11714859661E+01 -0.18578998513E+02  0.19476650454E+02  0.47000000000E+01 0. -1.
<mgrwt>
<rscale>  2 0.58447179E+01</rscale>
<asrwt>0</asrwt>
<pdfrwt beam="1">  1       21 0.98635730E-04 0.58447179E+01</pdfrwt>
<pdfrwt beam="2">  1       21 0.97595532E-02 0.58447179E+01</pdfrwt>
<totfact> 0.26735781E+09</totfact>
</mgrwt>
</event>
<event>
 4    1  0.3999109E+006  0.4859022E+01  0.7546771E-02  0.2592788E+00
         21   -1    0    0  503  502  0.00000000000E+00  0.00000000000E+00  0.48496182618E-01  0.48496182618E-01  0.00000000000E+00 0.  1.
         21   -1    0    0  501  503 -0.00000000000E+00 -0.00000000000E+00 -0.10228425922E+04  0.10228425922E+04  0.00000000000E+00 0.  1.
          5    1    1    2  501    0  0.52814290505E+00 -0.11140740166E+01 -0.14116274719E+03  0.14124634965E+03  0.47000000000E+01 0.  1.
         -5    1    1    2    0  502 -0.52814290505E+00  0.11140740166E+01 -0.88163134880E+03  0.88164473870E+03  0.47000000000E+01 0.  1.
<mgrwt>
<rscale>  2 0.48590221E+01</rscale>
<asrwt>0</asrwt>
<pdfrwt beam="1">  1       21 0.74617153E-05 0.48590221E+01</pdfrwt>
<pdfrwt beam="2">  1       21 0.15734428E+00 0.48590221E+01</pdfrwt>
<totfact> 0.52500849E+08</totfact>
</mgrwt>
</event>
<event>
 4    1  0.3999109E+006  0.5339960E+01  0.7546771E-02  0.2510162E+00
         21   -1    0    0  503  502  0.00000000000E+00  0.00000000000E+00  0.16434328031E+03  0.16434328031E+03  0.00000000000E+00 0.  1.
         21   -1    0    0  501  503 -0.00000000000E+00 -0.00000000000E+00 -0.18004766457E+00  0.18004766457E+00  0.00000000000E+00 0.  1.
          5    1    1    2  501    0 -0.24781239664E+01 -0.53298906559E+00  0.66406149487E+02  0.66620506343E+02  0.47000000000E+01 0.  1.
         -5    1    1    2    0  502  0.24781239664E+01  0.53298906559E+00  0.97757083155E+02  0.97902821627E+02  0.47000000000E+01 0.  1.
<mgrwt>
<rscale>  2 0.53399603E+01</rscale>
<asrwt>0</asrwt>
<pdfrwt beam="1">  1       21 0.25283462E-01 0.53399603E+01</pdfrwt>
<pdfrwt beam="2">  1       21 0.27699772E-04 0.53399603E+01</pdfrwt>
<totfact> 0.29909516E+09</totfact>
</mgrwt>
</event>
<event>
 4    1  0.3999109E+006  0.5413204E+01  0.7546771E-02  0.2498688E+00
         21   -1    0    0  503  502  0.00000000000E+00  0.00000000000E+00  0.14332820704E+02  0.14332820704E+02  0.00000000000E+00 0.  1.
         21   -1    0    0  501  503 -0.00000000000E+00 -0.00000000000E+00 -0.20649981246E+01  0.20649981246E+01  0.00000000000E+00 0.  1.
          5    1    1    2  501    0 -0.14759861201E+01  0.22437126713E+01  0.53161091910E+01  0.75870810269E+01  0.47000000000E+01 0.  1.
         -5    1    1    2    0  502  0.14759861201E+01 -0.22437126713E+01  0.69517133888E+01  0.88107378022E+01  0.47000000000E+01 0.  1.
<mgrwt>
<rscale>  2 0.54132044E+01</rscale>
<asrwt>0</asrwt>
<pdfrwt beam="1">  1       21 0.22050493E-02 0.54132044E+01</pdfrwt>
<pdfrwt beam="2">  1       21 0.31769203E-03 0.54132044E+01</pdfrwt>
<totfact> 0.45855622E+09</totfact>
</mgrwt>
</event>
<event>
 4    1  0.3999109E+006  0.8757867E+01  0.7546771E-02  0.2153437E+00
         21   -1    0    0  503  502  0.00000000000E+00  0.00000000000E+00  0.18754876643E+01  0.18754876643E+01  0.00000000000E+00 0. -1.
         21   -1    0    0  501  503 -0.00000000000E+00 -0.00000000000E+00 -0.18549758649E+03  0.18549758649E+03  0.00000000000E+00 0.  1.
          5    1    1    2  501    0  0.73060089118E+01  0.11101682467E+01 -0.17452796781E+03  0.17474756590E+03  0.47000000000E+01 0.  1.
         -5    1    1    2    0  502 -0.73060089118E+01 -0.11101682467E+01 -0.90941310130E+01  0.12625508253E+02  0.47000000000E+01 0. -1.
<mgrwt>
<rscale>  2 0.87578673E+01</rscale>
<asrwt>0</asrwt>
<pdfrwt beam="1">  1       21 0.28853641E-03 0.87578673E+01</pdfrwt>
<pdfrwt beam="2">  1       21 0.28538106E-01 0.87578673E+01</pdfrwt>
<totfact> 0.14232590E+08</totfact>
</mgrwt>
</event>
<event>
 4    1  0.3999109E+006  0.5183396E+01  0.7546771E-02  0.2535613E+00
         21   -1    0    0  501  502  0.00000000000E+00  0.00000000000E+00  0.31087723600E+03  0.31087723600E+03  0.00000000000E+00 0.  1.
         21   -1    0    0  502  503 -0.00000000000E+00 -0.00000000000E+00 -0.17028927604E+00  0.17028927604E+00  0.00000000000E+00 0.  1.
          5    1    1    2  501    0 -0.17997442817E+01  0.12403706229E+01  0.26449532716E+03  0.26454611259E+03  0.47000000000E+01 0.  1.
         -5    1    1    2    0  503  0.17997442817E+01 -0.12403706229E+01  0.46211619561E+02  0.46501412679E+02  0.47000000000E+01 0.  1.
<mgrwt>
<rscale>  2 0.51833965E+01</rscale>
<asrwt>0</asrwt>
<pdfrwt beam="1">  1       21 0.47826813E-01 0.51833965E+01</pdfrwt>
<pdfrwt beam="2">  1       21 0.26198599E-04 0.51833965E+01</pdfrwt>
<totfact> 0.10633307E+09</totfact>
</mgrwt>
</event>
<event>
 4    1  0.3999109E+006  0.7238719E+01  0.7546771E-02  0.2277580E+00
         21   -1    0    0  503  502  0.00000000000E+00  0.00000000000E+00  0.68477615079E+00  0.68477615079E+00  0.00000000000E+00 0.  1.
         21   -1    0    0  501  503 -0.00000000000E+00 -0.00000000000E+00 -0.95578720931E+02  0.95578720931E+02  0.00000000000E+00 0. -1.
          5    1    1    2  501    0 -0.49553548321E+00  0.54830194266E+01 -0.25953918191E+02  0.26944478598E+02  0.47000000000E+01 0.  1.
         -5    1    1    2    0  502  0.49553548321E+00 -0.54830194266E+01 -0.68940026589E+02  0.69319018484E+02  0.47000000000E+01 0. -1.
<mgrwt>
<rscale>  2 0.72387193E+01</rscale>
<asrwt>0</asrwt>
<pdfrwt beam="1">  1       21 0.10535028E-03 0.72387193E+01</pdfrwt>
<pdfrwt beam="2">  1       21 0.14704405E-01 0.72387193E+01</pdfrwt>
<totfact> 0.15251773E+09</totfact>
</mgrwt>
</event>
<event>
 4    1  0.3999109E+006  0.5976843E+01  0.7546771E-02  0.2418447E+00
         21   -1    0    0  503  502  0.00000000000E+00  0.00000000000E+00  0.13681161844E+01  0.13681161844E+01  0.00000000000E+00 0. -1.
         21   -1    0    0  501  503 -0.00000000000E+00 -0.00000000000E+00 -0.28705199413E+02  0.28705199413E+02  0.00000000000E+00 0.  1.
          5    1    1    2  501    0  0.18291152717E+01  0.32073342829E+01 -0.18189042157E+02  0.19145858833E+02  0.47000000000E+01 0.  1.
         -5    1    1    2    0  502 -0.18291152717E+01 -0.32073342829E+01 -0.91480410713E+01  0.10927456764E+02  0.47000000000E+01 0. -1.
<mgrwt>
<rscale>  2 0.59768433E+01</rscale>
<asrwt>0</asrwt>
<pdfrwt beam="1">  1       21 0.21047940E-03 0.59768433E+01</pdfrwt>
<pdfrwt beam="2">  1       21 0.44161848E-02 0.59768433E+01</pdfrwt>
<totfact> 0.32165693E+09</totfact>
</mgrwt>
</event>
<event>
 4    1  0.3999109E+006  0.5405114E+01  0.7546771E-02  0.2499943E+00
         21   -1    0    0  501  502  0.00000000000E+00  0.00000000000E+00  0.21075216914E+03  0.21075216914E+03  0.00000000000E+00 0.  1.
         21   -1    0    0  502  503 -0.00000000000E+00 -0.00000000000E+00 -0.20833000061E+00  0.20833000061E+00  0.00000000000E+00 0.  1.
          5    1    1    2  501    0  0.45018994423E+00  0.26310817235E+01  0.16628613257E+03  0.16637395574E+03  0.47000000000E+01 0.  1.
         -5    1    1    2    0  503 -0.45018994423E+00 -0.26310817235E+01  0.44257706563E+02  0.44586543398E+02  0.47000000000E+01 0.  1.
<mgrwt>
<rscale>  2 0.54051144E+01</rscale>
<asrwt>0</asrwt>
<pdfrwt beam="1">  1       21 0.32423240E-01 0.54051144E+01</pdfrwt>
<pdfrwt beam="2">  1       21 0.32050938E-04 0.54051144E+01</pdfrwt>
<totfact> 0.16477418E+09</totfact>
</mgrwt>
</event>
<event>
 4    1  0.3999109E+006  0.4986677E+01  0.7546771E-02  0.2569523E+00
         21   -1    0    0  503  502  0.00000000000E+00  0.00000000000E+00  0.29243872321E+01  0.29243872321E+01  0.00000000000E+00 0.  1.
         21   -1    0    0  501  503 -0.00000000000E+00 -0.00000000000E+00 -0.29922842352E+02  0.29922842352E+02  0.00000000000E+00 0.  1.
          5    1    1    2  501    0  0.59800490910E+00  0.15554226636E+01 -0.27394670511E+02  0.27844836540E+02  0.47000000000E+01 0.  1.
         -5    1    1    2    0  502 -0.59800490910E+00 -0.15554226636E+01  0.39621539087E+00  0.50023930443E+01  0.47000000000E+01 0.  1.
<mgrwt>
<rscale>  2 0.49866772E+01</rscale>
<asrwt>0</asrwt>
<pdfrwt beam="1">  1       21 0.44990573E-03 0.49866772E+01</pdfrwt>
<pdfrwt beam="2">  1       21 0.46035142E-02 0.49866772E+01</pdfrwt>
<totfact> 0.90954967E+08</totfact>
</mgrwt>
</event>
<event>
 4    1  0.3999109E+006  0.5846203E+01  0.7546771E-02  0.2435881E+00
         21   -1    0    0  503  502  0.00000000000E+00  0.00000000000E+00  0.25531029725E+01  0.25531029725E+01  0.00000000000E+00 0.  1.
         21   -1    0    0  501  503 -0.00000000000E+00 -0.00000000000E+00 -0.18171561164E+02  0.18171561164E+02  0.00000000000E+00 0. -1.
          5    1    1    2  501    0  0.34226284701E+01  0.61131638494E+00 -0.13126486746E+02  0.14369507565E+02  0.47000000000E+01 0. -1.
         -5    1    1    2    0  502 -0.34226284701E+01 -0.61131638494E+00 -0.24919714461E+01  0.63551565720E+01  0.47000000000E+01 0.  1.
<mgrwt>
<rscale>  2 0.58462033E+01</rscale>
<asrwt>0</asrwt>
<pdfrwt beam="1">  1       21 0.39278506E-03 0.58462033E+01</pdfrwt>
<pdfrwt beam="2">  1       21 0.27956249E-02 0.58462033E+01</pdfrwt>
<totfact> 0.26152666E+09</totfact>
</mgrwt>
</event>
<event>
 4    1  0.3999109E+006  0.1482686E+02  0.7546771E-02  0.1873398E+00
         21   -1    0    0  501  502  0.00000000000E+00  0.00000000000E+00  0.17848921710E+02  0.17848921710E+02  0.00000000000E+00 0. -1.
         21   -1    0    0  502  503 -0.00000000000E+00 -0.00000000000E+00 -0.34086126952E+02  0.34086126952E+02  0.00000000000E+00 0.  1.
          5    1    1    2  501    0 -0.20111116039E+01  0.13917661968E+02  0.12633753577E+02  0.19479415135E+02  0.47000000000E+01 0. -1.
         -5    1    1    2    0  503  0.20111116039E+01 -0.13917661968E+02 -0.28870958819E+02  0.32455633527E+02  0.47000000000E+01 0.  1.
<mgrwt>
<rscale>  2 0.14826864E+02</rscale>
<asrwt>0</asrwt>
<pdfrwt beam="1">  1       21 0.27459880E-02 0.14826864E+02</pdfrwt>
<pdfrwt beam="2">  1       21 0.52440195E-02 0.14826864E+02</pdfrwt>
<totfact> 0.10553964E+08</totfact>
</mgrwt>
</event>
<event>
 4    1  0.3999109E+006  0.5057066E+01  0.7546771E-02  0.2557129E+00
         21   -1    0    0  501  502  0.00000000000E+00  0.00000000000E+00  0.24543293311E+02  0.24543293311E+02  0.00000000000E+00 0.  1.
         21   -1    0    0  502  503 -0.00000000000E+00 -0.00000000000E+00 -0.11352911489E+01  0.11352911489E+01  0.00000000000E+00 0.  1.
          5    1    1    2  501    0  0.18799066500E+00 -0.18570335373E+01  0.15384667137E+02  0.16194502059E+02  0.47000000000E+01 0.  1.
         -5    1    1    2    0  503 -0.18799066500E+00  0.18570335373E+01  0.80233350258E+01  0.94840824008E+01  0.47000000000E+01 0.  1.
<mgrwt>
<rscale>  2 0.50570658E+01</rscale>
<asrwt>0</asrwt>
<pdfrwt beam="1">  1       21 0.37758909E-02 0.50570658E+01</pdfrwt>
<pdfrwt beam="2">  1       21 0.17466020E-03 0.50570658E+01</pdfrwt>
<totfact> 0.44371549E+09</totfact>
</mgrwt>
</event>
<event>
 4    1  0.3999109E+006  0.6468859E+01  0.7546771E-02  0.2358123E+00
         21   -1    0    0  503  502  0.00000000000E+00  0.00000000000E+00  0.98221983012E+01  0.98221983012E+01  0.00000000000E+00 0. -1.
         21   -1    0    0  501  503 -0.00000000000E+00 -0.00000000000E+00 -0.50377900066E+01  0.50377900066E+01  0.00000000000E+00 0. -1.
          5    1    1    2  501    0  0.11898653995E+01  0.42825644082E+01 -0.52655355614E+00  0.64902539416E+01  0.47000000000E+01 0. -1.
         -5    1    1    2    0  502 -0.11898653995E+01 -0.42825644082E+01  0.53109618508E+01  0.83697343661E+01  0.47000000000E+01 0. -1.
<mgrwt>
<rscale>  2 0.64688591E+01</rscale>
<asrwt>0</asrwt>
<pdfrwt beam="1">  1       21 0.15111074E-02 0.64688591E+01</pdfrwt>
<pdfrwt beam="2">  1       21 0.77504462E-03 0.64688591E+01</pdfrwt>
<totfact> 0.26843740E+09</totfact>
</mgrwt>
</event>
<event>
 4    1  0.3999109E+006  0.8079039E+01  0.7546771E-02  0.2204251E+00
         21   -1    0    0  503  502  0.00000000000E+00  0.00000000000E+00  0.19579100779E+01  0.19579100779E+01  0.00000000000E+00 0.  1.
         21   -1    0    0  501  503 -0.00000000000E+00 -0.00000000000E+00 -0.75721691759E+02  0.75721691759E+02  0.00000000000E+00 0. -1.
          5    1    1    2  501    0 -0.42788453771E-01 -0.65710762610E+01 -0.65940263430E+02  0.66433344152E+02  0.47000000000E+01 0. -1.
         -5    1    1    2    0  502  0.42788453771E-01  0.65710762610E+01 -0.78235182517E+01  0.11246257685E+02  0.47000000000E+01 0.  1.
<mgrwt>
<rscale>  2 0.80790392E+01</rscale>
<asrwt>0</asrwt>
<pdfrwt beam="1">  1       21 0.30121697E-03 0.80790392E+01</pdfrwt>
<pdfrwt beam="2">  1       21 0.11649490E-01 0.80790392E+01</pdfrwt>
<totfact> 0.55937292E+08</totfact>
</mgrwt>
</event>
<event>
 4    1  0.3999109E+006  0.6032284E+01  0.7546771E-02  0.2411241E+00
         21   -1    0    0  503  502  0.00000000000E+00  0.00000000000E+00  0.87306955037E+01  0.87306955037E+01  0.00000000000E+00 0. -1.
         21   -1    0    0  501  503 -0.00000000000E+00 -0.00000000000E+00 -0.18548841440E+02  0.18548841440E+02  0.00000000000E+00 0.  1.
          5    1    1    2  501    0 -0.12835457081E+01 -0.35568185416E+01 -0.16919062812E+02  0.17962269738E+02  0.47000000000E+01 0.  1.
         -5    1    1    2    0  502  0.12835457081E+01  0.35568185416E+01  0.71009168749E+01  0.93172672059E+01  0.47000000000E+01 0. -1.
<mgrwt>
<rscale>  2 0.60322838E+01</rscale>
<asrwt>0</asrwt>
<pdfrwt beam="1">  1       21 0.13431839E-02 0.60322838E+01</pdfrwt>
<pdfrwt beam="2">  1       21 0.28536679E-02 0.60322838E+01</pdfrwt>
<totfact> 0.46576422E+08</totfact>
</mgrwt>
</event>
<event>
 4    1  0.3999109E+006  0.5703642E+01  0.7546771E-02  0.2455668E+00
         21   -1    0    0  503  502  0.00000000000E+00  0.00000000000E+00  0.56507116970E+02  0.56507116970E+02  0.00000000000E+00 0.  1.
         21   -1    0    0  501  503 -0.00000000000E+00 -0.00000000000E+00 -0.59121582890E+00  0.59121582890E+00  0.00000000000E+00 0.  1.
          5    1    1    2  501    0 -0.26811217603E+01 -0.18036413170E+01  0.32581884460E+02  0.33077344676E+02  0.47000000000E+01 0.  1.
         -5    1    1    2    0  502  0.26811217603E+01  0.18036413170E+01  0.23334016681E+02  0.24020988122E+02  0.47000000000E+01 0.  1.
<mgrwt>
<rscale>  2 0.57036423E+01</rscale>
<asrwt>0</asrwt>
<pdfrwt beam="1">  1       21 0.86933984E-02 0.57036423E+01</pdfrwt>
<pdfrwt beam="2">  1       21 0.90956326E-04 0.57036423E+01</pdfrwt>
<totfact> 0.34788788E+09</totfact>
</mgrwt>
</event>
<event>
 4    1  0.3999109E+006  0.7547603E+01  0.7546771E-02  0.2249090E+00
         21   -1    0    0  503  502  0.00000000000E+00  0.00000000000E+00  0.43556161270E+01  0.43556161270E+01  0.00000000000E+00 0.  1.
         21   -1    0    0  501  503 -0.00000000000E+00 -0.00000000000E+00 -0.14061836996E+02  0.14061836996E+02  0.00000000000E+00 0. -1.
          5    1    1    2  501    0  0.57911607133E+01  0.11570537842E+01 -0.72878876898E+01  0.10491883665E+02  0.47000000000E+01 0. -1.
         -5    1    1    2    0  502 -0.57911607133E+01 -0.11570537842E+01 -0.24183331795E+01  0.79255694580E+01  0.47000000000E+01 0.  1.
<mgrwt>
<rscale>  2 0.75476033E+01</rscale>
<asrwt>0</asrwt>
<pdfrwt beam="1">  1       21 0.67009478E-03 0.75476033E+01</pdfrwt>
<pdfrwt beam="2">  1       21 0.21633596E-02 0.75476033E+01</pdfrwt>
<totfact> 0.22155249E+09</totfact>
</mgrwt>
</event>
<event>
 4    1  0.3999109E+006  0.7371831E+01  0.7546771E-02  0.2265064E+00
         21   -1    0    0  503  502  0.00000000000E+00  0.00000000000E+00  0.29039969281E+00  0.29039969281E+00  0.00000000000E+00 0. -1.
         21   -1    0    0  501  503 -0.00000000000E+00 -0.00000000000E+00 -0.19134743702E+03  0.19134743702E+03  0.00000000000E+00 0.  1.
          5    1    1    2  501    0 -0.38083636333E+01 -0.42131063720E+01 -0.10974575255E+03  0.10999306388E+03  0.47000000000E+01 0.  1.
         -5    1    1    2    0  502  0.38083636333E+01  0.42131063720E+01 -0.81311284783E+02  0.81644772839E+02  0.47000000000E+01 0.  1.
<mgrwt>
<rscale>  2 0.73718314E+01</rscale>
<asrwt>0</asrwt>
<pdfrwt beam="1">  1       21 0.44676791E-04 0.73718314E+01</pdfrwt>
<pdfrwt beam="2">  1       21 0.29438123E-01 0.73718314E+01</pdfrwt>
<totfact> 0.15720649E+09</totfact>
</mgrwt>
</event>
<event>
 4    1  0.3999109E+006  0.9562698E+01  0.7546771E-02  0.2100764E+00
         21   -1    0    0  503  502  0.00000000000E+00  0.00000000000E+00  0.19774380255E+02  0.19774380255E+02  0.00000000000E+00 0.  1.
         21   -1    0    0  501  503 -0.00000000000E+00 -0.00000000000E+00 -0.85865792636E+01  0.85865792636E+01  0.00000000000E+00 0. -1.
          5    1    1    2  501    0  0.78825609930E+01 -0.26870840071E+01 -0.40387629038E+01  0.10380596999E+02  0.47000000000E+01 0. -1.
         -5    1    1    2    0  502 -0.78825609930E+01  0.26870840071E+01  0.15226563895E+02  0.17980362519E+02  0.47000000000E+01 0.  1.
<mgrwt>
<rscale>  2 0.95626978E+01</rscale>
<asrwt>0</asrwt>
<pdfrwt beam="1">  1       21 0.30422123E-02 0.95626978E+01</pdfrwt>
<pdfrwt beam="2">  1       21 0.13210122E-02 0.95626978E+01</pdfrwt>
<totfact> 0.58964925E+08</totfact>
</mgrwt>
</event>
<event>
 4    1  0.3999109E+006  0.5532939E+01  0.7546771E-02  0.2480490E+00
         21   -1    0    0  503  502  0.00000000000E+00  0.00000000000E+00  0.43610509620E+01  0.43610509620E+01  0.00000000000E+00 0.  1.
         21   -1    0    0  501  503 -0.00000000000E+00 -0.00000000000E+00 -0.70203467104E+01  0.70203467104E+01  0.00000000000E+00 0. -1.
          5    1    1    2  501    0  0.29191250450E+01 -0.46018833816E-01 -0.13829004048E+01  0.57031414405E+01  0.47000000000E+01 0.  1.
         -5    1    1    2    0  502 -0.29191250450E+01  0.46018833816E-01 -0.12763953437E+01  0.56782562319E+01  0.47000000000E+01 0.  1.
<mgrwt>
<rscale>  2 0.55329385E+01</rscale>
<asrwt>0</asrwt>
<pdfrwt beam="1">  1       21 0.67093092E-03 0.55329385E+01</pdfrwt>
<pdfrwt beam="2">  1       21 0.10800533E-02 0.55329385E+01</pdfrwt>
<totfact> 0.45958726E+09</totfact>
</mgrwt>
</event>
<event>
 4    1  0.3999109E+006  0.5467744E+01  0.7546771E-02  0.2490315E+00
         21   -1    0    0  501  502  0.00000000000E+00  0.00000000000E+00  0.20582527879E+02  0.20582527879E+02  0.00000000000E+00 0.  1.
         21   -1    0    0  502  503 -0.00000000000E+00 -0.00000000000E+00 -0.49345140716E+01  0.49345140716E+01  0.00000000000E+00 0.  1.
          5    1    1    2  501    0  0.35519121831E+00  0.27712925448E+01  0.18541496971E+02  0.19330890644E+02  0.47000000000E+01 0.  1.
         -5    1    1    2    0  503 -0.35519121831E+00 -0.27712925448E+01 -0.28934831634E+01  0.61861513066E+01  0.47000000000E+01 0.  1.
<mgrwt>
<rscale>  2 0.54677439E+01</rscale>
<asrwt>0</asrwt>
<pdfrwt beam="1">  1       21 0.31665427E-02 0.54677439E+01</pdfrwt>
<pdfrwt beam="2">  1       21 0.75915602E-03 0.54677439E+01</pdfrwt>
<totfact> 0.82637314E+08</totfact>
</mgrwt>
</event>
<event>
 4    1  0.3999109E+006  0.5123563E+01  0.7546771E-02  0.2545690E+00
         21   -1    0    0  501  502  0.00000000000E+00  0.00000000000E+00  0.17995342852E+02  0.17995342852E+02  0.00000000000E+00 0.  1.
         21   -1    0    0  502  503 -0.00000000000E+00 -0.00000000000E+00 -0.25068147625E+01  0.25068147625E+01  0.00000000000E+00 0. -1.
          5    1    1    2  501    0  0.10186879833E+01  0.17672489701E+01  0.14372536453E+02  0.15258463167E+02  0.47000000000E+01 0.  1.
         -5    1    1    2    0  503 -0.10186879833E+01 -0.17672489701E+01  0.11159916372E+01  0.52436944480E+01  0.47000000000E+01 0. -1.
<mgrwt>
<rscale>  2 0.51235626E+01</rscale>
<asrwt>0</asrwt>
<pdfrwt beam="1">  1       21 0.27685142E-02 0.51235626E+01</pdfrwt>
<pdfrwt beam="2">  1       21 0.38566382E-03 0.51235626E+01</pdfrwt>
<totfact> 0.24036470E+09</totfact>
</mgrwt>
</event>
<event>
 4    1  0.3999109E+006  0.4772157E+01  0.7546771E-02  0.2609233E+00
         21   -1    0    0  501  502  0.00000000000E+00  0.00000000000E+00  0.23933471798E+00  0.23933471798E+00  0.00000000000E+00 0.  1.
         21   -1    0    0  502  503 -0.00000000000E+00 -0.00000000000E+00 -0.35140412350E+03  0.35140412350E+03  0.00000000000E+00 0.  1.
          5    1    1    2  501    0  0.54558845419E-01 -0.82493014027E+00 -0.25440544874E+02  0.25884257955E+02  0.47000000000E+01 0.  1.
         -5    1    1    2    0  503 -0.54558845419E-01  0.82493014027E+00 -0.32572424390E+03  0.32575920026E+03  0.47000000000E+01 0.  1.
<mgrwt>
<rscale>  2 0.47721574E+01</rscale>
<asrwt>0</asrwt>
<pdfrwt beam="1">  1       21 0.36820568E-04 0.47721574E+01</pdfrwt>
<pdfrwt beam="2">  1       21 0.54062405E-01 0.47721574E+01</pdfrwt>
<totfact> 0.50845665E+08</totfact>
</mgrwt>
</event>
<event>
 4    1  0.3999109E+006  0.6035042E+01  0.7546771E-02  0.2410885E+00
         21   -1    0    0  501  502  0.00000000000E+00  0.00000000000E+00  0.29381768063E+01  0.29381768063E+01  0.00000000000E+00 0.  1.
         21   -1    0    0  502  503 -0.00000000000E+00 -0.00000000000E+00 -0.12788492740E+02  0.12788492740E+02  0.00000000000E+00 0.  1.
          5    1    1    2  501    0 -0.88075471375E+00 -0.36818484823E+01 -0.35476486204E+01  0.70005391111E+01  0.47000000000E+01 0.  1.
         -5    1    1    2    0  503  0.88075471375E+00  0.36818484823E+01 -0.63026673137E+01  0.87261304357E+01  0.47000000000E+01 0.  1.
<mgrwt>
<rscale>  2 0.60350424E+01</rscale>
<asrwt>0</asrwt>
<pdfrwt beam="1">  1       21 0.45202719E-03 0.60350424E+01</pdfrwt>
<pdfrwt beam="2">  1       21 0.19674604E-02 0.60350424E+01</pdfrwt>
<totfact> 0.36766711E+09</totfact>
</mgrwt>
</event>
<event>
 4    1  0.3999109E+006  0.1267920E+02  0.7546771E-02  0.1948436E+00
         21   -1    0    0  503  502  0.00000000000E+00  0.00000000000E+00  0.85926189744E-01  0.85926189744E-01  0.00000000000E+00 0. -1.
         21   -1    0    0  501  503 -0.00000000000E+00 -0.00000000000E+00 -0.22761864036E+04  0.22761864036E+04  0.00000000000E+00 0.  1.
          5    1    1    2  501    0  0.10714020346E+01 -0.11727074140E+02 -0.16182848785E+04  0.16183345483E+04  0.47000000000E+01 0. -1.
         -5    1    1    2    0  502 -0.10714020346E+01  0.11727074140E+02 -0.65781559893E+03  0.65793778153E+03  0.47000000000E+01 0.  1.
<mgrwt>
<rscale>  2 0.12679202E+02</rscale>
<asrwt>0</asrwt>
<pdfrwt beam="1">  1       21 0.13220468E-04 0.12679202E+02</pdfrwt>
<pdfrwt beam="2">  1       21 0.35015461E+00 0.12679202E+02</pdfrwt>
<totfact> 0.45810313E+07</totfact>
</mgrwt>
</event>
<event>
 4    1  0.3999109E+006  0.6542906E+01  0.7546771E-02  0.2349701E+00
         21   -1    0    0  501  502  0.00000000000E+00  0.00000000000E+00  0.22923004074E+03  0.22923004074E+03  0.00000000000E+00 0.  1.
         21   -1    0    0  502  503 -0.00000000000E+00 -0.00000000000E+00 -0.18753409321E+00  0.18753409321E+00  0.00000000000E+00 0.  1.
          5    1    1    2  501    0  0.45512900303E+01  0.73340494233E-01  0.12191966747E+03  0.12209510611E+03  0.47000000000E+01 0.  1.
         -5    1    1    2    0  503 -0.45512900303E+01 -0.73340494233E-01  0.10712283918E+03  0.10732246873E+03  0.47000000000E+01 0.  1.
<mgrwt>
<rscale>  2 0.65429061E+01</rscale>
<asrwt>0</asrwt>
<pdfrwt beam="1">  1       21 0.35265936E-01 0.65429061E+01</pdfrwt>
<pdfrwt beam="2">  1       21 0.28851582E-04 0.65429061E+01</pdfrwt>
<totfact> 0.19079014E+09</totfact>
</mgrwt>
</event>
<event>
 4    1  0.3999109E+006  0.9410985E+01  0.7546771E-02  0.2110145E+00
         21   -1    0    0  501  502  0.00000000000E+00  0.00000000000E+00  0.19748430282E+02  0.19748430282E+02  0.00000000000E+00 0.  1.
         21   -1    0    0  502  503 -0.00000000000E+00 -0.00000000000E+00 -0.66176363674E+01  0.66176363674E+01  0.00000000000E+00 0. -1.
          5    1    1    2  501    0 -0.29635703811E+01  0.75956490958E+01 -0.91885623794E+00  0.94557353694E+01  0.47000000000E+01 0. -1.
         -5    1    1    2    0  503  0.29635703811E+01 -0.75956490958E+01  0.14049650152E+02  0.16910331280E+02  0.47000000000E+01 0.  1.
<mgrwt>
<rscale>  2 0.94109848E+01</rscale>
<asrwt>0</asrwt>
<pdfrwt beam="1">  1       21 0.30382200E-02 0.94109848E+01</pdfrwt>
<pdfrwt beam="2">  1       21 0.10180979E-02 0.94109848E+01</pdfrwt>
<totfact> 0.85438195E+08</totfact>
</mgrwt>
</event>
<event>
 4    1  0.3999109E+006  0.5020277E+01  0.7546771E-02  0.2563569E+00
         21   -1    0    0  501  502  0.00000000000E+00  0.00000000000E+00  0.39420815873E+03  0.39420815873E+03  0.00000000000E+00 0.  1.
         21   -1    0    0  502  503 -0.00000000000E+00 -0.00000000000E+00 -0.13944923760E+00  0.13944923760E+00  0.00000000000E+00 0.  1.
          5    1    1    2  501    0 -0.14831306292E+01  0.95577431282E+00  0.34213165770E+03  0.34216848829E+03  0.47000000000E+01 0.  1.
         -5    1    1    2    0  503  0.14831306292E+01 -0.95577431282E+00  0.51937051789E+02  0.52179119670E+02  0.47000000000E+01 0.  1.
<mgrwt>
<rscale>  2 0.50202770E+01</rscale>
<asrwt>0</asrwt>
<pdfrwt beam="1">  1       21 0.60646517E-01 0.50202770E+01</pdfrwt>
<pdfrwt beam="2">  1       21 0.21454044E-04 0.50202770E+01</pdfrwt>
<totfact> 0.88032237E+08</totfact>
</mgrwt>
</event>
<event>
 4    1  0.3999109E+006  0.5144186E+01  0.7546771E-02  0.2542194E+00
         21   -1    0    0  503  502  0.00000000000E+00  0.00000000000E+00  0.22358181369E+02  0.22358181369E+02  0.00000000000E+00 0.  1.
         21   -1    0    0  501  503 -0.00000000000E+00 -0.00000000000E+00 -0.48254526118E+01  0.48254526118E+01  0.00000000000E+00 0.  1.
          5    1    1    2  501    0 -0.13449733968E+01  0.16011538074E+01 -0.30414902488E+01  0.59760614025E+01  0.47000000000E+01 0.  1.
         -5    1    1    2    0  502  0.13449733968E+01 -0.16011538074E+01  0.20574219006E+02  0.21207572578E+02  0.47000000000E+01 0.  1.
<mgrwt>
<rscale>  2 0.51441857E+01</rscale>
<asrwt>0</asrwt>
<pdfrwt beam="1">  1       21 0.34397201E-02 0.51441857E+01</pdfrwt>
<pdfrwt beam="2">  1       21 0.74237734E-03 0.51441857E+01</pdfrwt>
<totfact> 0.71609787E+08</totfact>
</mgrwt>
</event>
<event>
 4    1  0.3999109E+006  0.6094898E+01  0.7546771E-02  0.2403234E+00
         21   -1    0    0  503  502  0.00000000000E+00  0.00000000000E+00  0.58456116801E+01  0.58456116801E+01  0.00000000000E+00 0.  1.
         21   -1    0    0  501  503 -0.00000000000E+00 -0.00000000000E+00 -0.77359522360E+01  0.77359522360E+01  0.00000000000E+00 0.  1.
          5    1    1    2  501    0 -0.11340379270E+01  0.37110288893E+01 -0.38145062538E+01  0.71901484962E+01  0.47000000000E+01 0.  1.
         -5    1    1    2    0  502  0.11340379270E+01 -0.37110288893E+01  0.19241656979E+01  0.63914154199E+01  0.47000000000E+01 0.  1.
<mgrwt>
<rscale>  2 0.60948977E+01</rscale>
<asrwt>0</asrwt>
<pdfrwt beam="1">  1       21 0.89932487E-03 0.60948977E+01</pdfrwt>
<pdfrwt beam="2">  1       21 0.11901465E-02 0.60948977E+01</pdfrwt>
<totfact> 0.29056081E+09</totfact>
</mgrwt>
</event>
<event>
 4    1  0.3999109E+006  0.7302277E+01  0.7546771E-02  0.2271557E+00
         21   -1    0    0  501  502  0.00000000000E+00  0.00000000000E+00  0.20798759055E+00  0.20798759055E+00  0.00000000000E+00 0.  1.
         21   -1    0    0  502  503 -0.00000000000E+00 -0.00000000000E+00 -0.26735152060E+03  0.26735152060E+03  0.00000000000E+00 0. -1.
          5    1    1    2  501    0 -0.72194450430E+00 -0.55418451241E+01 -0.16067619473E+03  0.16084204302E+03  0.47000000000E+01 0. -1.
         -5    1    1    2    0  503  0.72194450430E+00  0.55418451241E+01 -0.10646733828E+03  0.10671746516E+03  0.47000000000E+01 0.  1.
<mgrwt>
<rscale>  2 0.73022771E+01</rscale>
<asrwt>0</asrwt>
<pdfrwt beam="1">  1       21 0.31998164E-04 0.73022771E+01</pdfrwt>
<pdfrwt beam="2">  1       21 0.41130909E-01 0.73022771E+01</pdfrwt>
<totfact> 0.13689827E+09</totfact>
</mgrwt>
</event>
<event>
 4    1  0.3999109E+006  0.5061383E+01  0.7546771E-02  0.2556378E+00
         21   -1    0    0  503  502  0.00000000000E+00  0.00000000000E+00  0.44582240534E+01  0.44582240534E+01  0.00000000000E+00 0. -1.
         21   -1    0    0  501  503 -0.00000000000E+00 -0.00000000000E+00 -0.57884615938E+01  0.57884615938E+01  0.00000000000E+00 0. -1.
          5    1    1    2  501    0  0.69264840373E+00  0.17458050236E+01 -0.11031779508E+01  0.51802122141E+01  0.47000000000E+01 0. -1.
         -5    1    1    2    0  502 -0.69264840373E+00 -0.17458050236E+01 -0.22705958952E+00  0.50664734332E+01  0.47000000000E+01 0. -1.
<mgrwt>
<rscale>  2 0.50613829E+01</rscale>
<asrwt>0</asrwt>
<pdfrwt beam="1">  1       21 0.68588063E-03 0.50613829E+01</pdfrwt>
<pdfrwt beam="2">  1       21 0.89053255E-03 0.50613829E+01</pdfrwt>
<totfact> 0.53311866E+09</totfact>
</mgrwt>
</event>
<event>
 4    1  0.3999109E+006  0.5550954E+01  0.7546771E-02  0.2477809E+00
         21   -1    0    0  503  502  0.00000000000E+00  0.00000000000E+00  0.46753417663E-01  0.46753417663E-01  0.00000000000E+00 0. -1.
         21   -1    0    0  501  503 -0.00000000000E+00 -0.00000000000E+00 -0.15729278702E+04  0.15729278702E+04  0.00000000000E+00 0. -1.
          5    1    1    2  501    0 -0.45721290113E+00  0.29178834883E+01 -0.13859280667E+04  0.13859391831E+04  0.47000000000E+01 0. -1.
         -5    1    1    2    0  502  0.45721290113E+00 -0.29178834883E+01 -0.18695305005E+03  0.18703544052E+03  0.47000000000E+01 0. -1.
<mgrwt>
<rscale>  2 0.55509538E+01</rscale>
<asrwt>0</asrwt>
<pdfrwt beam="1">  1       21 0.71926660E-05 0.55509538E+01</pdfrwt>
<pdfrwt beam="2">  1       21 0.24199454E+00 0.55509538E+01</pdfrwt>
<totfact> 0.23361553E+08</totfact>
</mgrwt>
</event>
<event>
 4    1  0.3999109E+006  0.5609386E+01  0.7546771E-02  0.2469216E+00
         21   -1    0    0  503  502  0.00000000000E+00  0.00000000000E+00  0.10195511601E+03  0.10195511601E+03  0.00000000000E+00 0.  1.
         21   -1    0    0  501  503 -0.00000000000E+00 -0.00000000000E+00 -0.32436105950E+00  0.32436105950E+00  0.00000000000E+00 0.  1.
          5    1    1    2  501    0 -0.86289619514E+00 -0.29377922434E+01  0.39548987559E+02  0.39944807298E+02  0.47000000000E+01 0.  1.
         -5    1    1    2    0  502  0.86289619514E+00  0.29377922434E+01  0.62081767395E+02  0.62334669775E+02  0.47000000000E+01 0.  1.
<mgrwt>
<rscale>  2 0.56093862E+01</rscale>
<asrwt>0</asrwt>
<pdfrwt beam="1">  1       21 0.15685377E-01 0.56093862E+01</pdfrwt>
<pdfrwt beam="2">  1       21 0.49901783E-04 0.56093862E+01</pdfrwt>
<totfact> 0.30712698E+09</totfact>
</mgrwt>
</event>
<event>
 4    1  0.3999109E+006  0.5781956E+01  0.7546771E-02  0.2444696E+00
         21   -1    0    0  503  502  0.00000000000E+00  0.00000000000E+00  0.32166296204E+02  0.32166296204E+02  0.00000000000E+00 0. -1.
         21   -1    0    0  501  503 -0.00000000000E+00 -0.00000000000E+00 -0.42288778254E+01  0.42288778254E+01  0.00000000000E+00 0.  1.
          5    1    1    2  501    0 -0.33465429680E+01  0.37639064443E+00 -0.18352752167E+01  0.60662389398E+01  0.47000000000E+01 0.  1.
         -5    1    1    2    0  502  0.33465429680E+01 -0.37639064443E+00  0.29772693596E+02  0.30328935090E+02  0.47000000000E+01 0. -1.
<mgrwt>
<rscale>  2 0.57819564E+01</rscale>
<asrwt>0</asrwt>
<pdfrwt beam="1">  1       21 0.49486608E-02 0.57819564E+01</pdfrwt>
<pdfrwt beam="2">  1       21 0.65059661E-03 0.57819564E+01</pdfrwt>
<totfact> 0.55835644E+08</totfact>
</mgrwt>
</event>
<event>
 4    1  0.3999109E+006  0.5791709E+01  0.7546771E-02  0.2443348E+00
         21   -1    0    0  501  502  0.00000000000E+00  0.00000000000E+00  0.14034080814E-01  0.14034080814E-01  0.00000000000E+00 0. -1.
         21   -1    0    0  502  503 -0.00000000000E+00 -0.00000000000E+00 -0.29662669160E+04  0.29662669160E+04  0.00000000000E+00 0.  1.
          5    1    1    2  501    0  0.32490951295E+00 -0.33687271205E+01 -0.82950902706E+03  0.82952924593E+03  0.47000000000E+01 0. -1.
         -5    1    1    2    0  503 -0.32490951295E+00  0.33687271205E+01 -0.21367438548E+04  0.21367517041E+04  0.47000000000E+01 0.  1.
<mgrwt>
<rscale>  2 0.57917086E+01</rscale>
<asrwt>0</asrwt>
<pdfrwt beam="1">  1       21 0.21577413E-05 0.57917086E+01</pdfrwt>
<pdfrwt beam="2">  1       21 0.45663386E+00 0.57917086E+01</pdfrwt>
<totfact> 0.15335962E+08</totfact>
</mgrwt>
</event>
<event>
 4    1  0.3999109E+006  0.5976296E+01  0.7546771E-02  0.2418519E+00
         21   -1    0    0  503  502  0.00000000000E+00  0.00000000000E+00  0.56982260799E+03  0.56982260799E+03  0.00000000000E+00 0.  1.
         21   -1    0    0  501  503 -0.00000000000E+00 -0.00000000000E+00 -0.12411451665E+00  0.12411451665E+00  0.00000000000E+00 0.  1.
          5    1    1    2  501    0 -0.33862557064E+01  0.14694838640E+01  0.84355193363E+02  0.84566629103E+02  0.47000000000E+01 0.  1.
         -5    1    1    2    0  502  0.33862557064E+01 -0.14694838640E+01  0.48534330011E+03  0.48538009340E+03  0.47000000000E+01 0.  1.
<mgrwt>
<rscale>  2 0.59762957E+01</rscale>
<asrwt>0</asrwt>
<pdfrwt beam="1">  1       21 0.87662922E-01 0.59762957E+01</pdfrwt>
<pdfrwt beam="2">  1       21 0.19094997E-04 0.59762957E+01</pdfrwt>
<totfact> 0.58099988E+08</totfact>
</mgrwt>
</event>
<event>
 4    1  0.3999109E+006  0.6147030E+01  0.7546771E-02  0.2396671E+00
         21   -1    0    0  503  502  0.00000000000E+00  0.00000000000E+00  0.18542085903E+02  0.18542085903E+02  0.00000000000E+00 0.  1.
         21   -1    0    0  501  503 -0.00000000000E+00 -0.00000000000E+00 -0.38001139808E+01  0.38001139808E+01  0.00000000000E+00 0.  1.
          5    1    1    2  501    0  0.22695192070E+01 -0.32473464859E+01 -0.23636049166E+00  0.61515723935E+01  0.47000000000E+01 0.  1.
         -5    1    1    2    0  502 -0.22695192070E+01  0.32473464859E+01  0.14978332414E+02  0.16190627490E+02  0.47000000000E+01 0.  1.
<mgrwt>
<rscale>  2 0.61470299E+01</rscale>
<asrwt>0</asrwt>
<pdfrwt beam="1">  1       21 0.28526285E-02 0.61470299E+01</pdfrwt>
<pdfrwt beam="2">  1       21 0.58463293E-03 0.61470299E+01</pdfrwt>
<totfact> 0.15269051E+09</totfact>
</mgrwt>
</event>
<event>
 4    1  0.3999109E+006  0.5074515E+01  0.7546771E-02  0.2554102E+00
         21   -1    0    0  501  502  0.00000000000E+00  0.00000000000E+00  0.70894676115E+01  0.70894676115E+01  0.00000000000E+00 0. -1.
         21   -1    0    0  502  503 -0.00000000000E+00 -0.00000000000E+00 -0.36554134067E+01  0.36554134067E+01  0.00000000000E+00 0. -1.
          5    1    1    2  501    0  0.17240465435E+01 -0.82967698722E+00  0.12893373573E+01  0.52357512554E+01  0.47000000000E+01 0. -1.
         -5    1    1    2    0  503 -0.17240465435E+01  0.82967698722E+00  0.21447168475E+01  0.55091297628E+01  0.47000000000E+01 0. -1.
<mgrwt>
<rscale>  2 0.50745148E+01</rscale>
<asrwt>0</asrwt>
<pdfrwt beam="1">  1       21 0.10906873E-02 0.50745148E+01</pdfrwt>
<pdfrwt beam="2">  1       21 0.56237130E-03 0.50745148E+01</pdfrwt>
<totfact> 0.52996630E+09</totfact>
</mgrwt>
</event>
<event>
 4    1  0.3999109E+006  0.6652589E+01  0.7546771E-02  0.2337511E+00
         21   -1    0    0  501  502  0.00000000000E+00  0.00000000000E+00  0.67161946981E+01  0.67161946981E+01  0.00000000000E+00 0. -1.
         21   -1    0    0  502  503 -0.00000000000E+00 -0.00000000000E+00 -0.69276018001E+01  0.69276018001E+01  0.00000000000E+00 0.  1.
          5    1    1    2  501    0  0.46318729778E+01  0.84420813770E+00  0.14011915987E+01  0.67985492981E+01  0.47000000000E+01 0. -1.
         -5    1    1    2    0  503 -0.46318729778E+01 -0.84420813770E+00 -0.16125987007E+01  0.68452472002E+01  0.47000000000E+01 0.  1.
<mgrwt>
<rscale>  2 0.66525886E+01</rscale>
<asrwt>0</asrwt>
<pdfrwt beam="1">  1       21 0.10332607E-02 0.66525886E+01</pdfrwt>
<pdfrwt beam="2">  1       21 0.10657849E-02 0.66525886E+01</pdfrwt>
<totfact> 0.30103774E+09</totfact>
</mgrwt>
</event>
<event>
 4    1  0.3999109E+006  0.5140230E+01  0.7546771E-02  0.2542863E+00
         21   -1    0    0  501  502  0.00000000000E+00  0.00000000000E+00  0.89476629145E+02  0.89476629145E+02  0.00000000000E+00 0.  1.
         21   -1    0    0  502  503 -0.00000000000E+00 -0.00000000000E+00 -0.14066149224E+01  0.14066149224E+01  0.00000000000E+00 0.  1.
          5    1    1    2  501    0 -0.21663462525E+00 -0.20700335236E+01  0.84426121396E+02  0.84582456475E+02  0.47000000000E+01 0.  1.
         -5    1    1    2    0  503  0.21663462525E+00  0.20700335236E+01  0.36438928258E+01  0.63007875917E+01  0.47000000000E+01 0.  1.
<mgrwt>
<rscale>  2 0.51402305E+01</rscale>
<asrwt>0</asrwt>
<pdfrwt beam="1">  1       21 0.13765631E-01 0.51402305E+01</pdfrwt>
<pdfrwt beam="2">  1       21 0.21640237E-03 0.51402305E+01</pdfrwt>
<totfact> 0.49041319E+08</totfact>
</mgrwt>
</event>
<event>
 4    1  0.3999109E+006  0.7242489E+01  0.7546771E-02  0.2277220E+00
         21   -1    0    0  501  502  0.00000000000E+00  0.00000000000E+00  0.11730644547E+02  0.11730644547E+02  0.00000000000E+00 0.  1.
         21   -1    0    0  502  503 -0.00000000000E+00 -0.00000000000E+00 -0.83960714515E+01  0.83960714515E+01  0.00000000000E+00 0. -1.
          5    1    1    2  501    0 -0.43052742551E+01 -0.34392231617E+01  0.85474803576E+01  0.11203261259E+02  0.47000000000E+01 0.  1.
         -5    1    1    2    0  503  0.43052742551E+01  0.34392231617E+01 -0.52129072621E+01  0.89234547397E+01  0.47000000000E+01 0. -1.
<mgrwt>
<rscale>  2 0.72424887E+01</rscale>
<asrwt>0</asrwt>
<pdfrwt beam="1">  1       21 0.18047145E-02 0.72424887E+01</pdfrwt>
<pdfrwt beam="2">  1       21 0.12917033E-02 0.72424887E+01</pdfrwt>
<totfact> 0.10971153E+09</totfact>
</mgrwt>
</event>
<event>
 4    1  0.3999109E+006  0.4832239E+01  0.7546771E-02  0.2597803E+00
         21   -1    0    0  503  502  0.00000000000E+00  0.00000000000E+00  0.24582093940E+02  0.24582093940E+02  0.00000000000E+00 0.  1.
         21   -1    0    0  501  503 -0.00000000000E+00 -0.00000000000E+00 -0.23362628876E+01  0.23362628876E+01  0.00000000000E+00 0.  1.
          5    1    1    2  501    0  0.92418537230E+00  0.63751075027E+00  0.75488877407E+00  0.48908481494E+01  0.47000000000E+01 0.  1.
         -5    1    1    2    0  502 -0.92418537230E+00 -0.63751075027E+00  0.21490942279E+02  0.22027508679E+02  0.47000000000E+01 0.  1.
<mgrwt>
<rscale>  2 0.48322395E+01</rscale>
<asrwt>0</asrwt>
<pdfrwt beam="1">  1       21 0.37818604E-02 0.48322395E+01</pdfrwt>
<pdfrwt beam="2">  1       21 0.35942508E-03 0.48322395E+01</pdfrwt>
<totfact> 0.15940510E+09</totfact>
</mgrwt>
</event>
<event>
 4    1  0.3999109E+006  0.4793713E+01  0.7546771E-02  0.2605103E+00
         21   -1    0    0  503  502  0.00000000000E+00  0.00000000000E+00  0.11765109438E+02  0.11765109438E+02  0.00000000000E+00 0. -1.
         21   -1    0    0  501  503 -0.00000000000E+00 -0.00000000000E+00 -0.47158562427E+01  0.47158562427E+01  0.00000000000E+00 0. -1.
          5    1    1    2  501    0 -0.23893793869E+00 -0.91246773018E+00 -0.27825543541E+01  0.55427698338E+01  0.47000000000E+01 0. -1.
         -5    1    1    2    0  502  0.23893793869E+00  0.91246773018E+00  0.98318075496E+01  0.10938195847E+02  0.47000000000E+01 0. -1.
<mgrwt>
<rscale>  2 0.47937135E+01</rscale>
<asrwt>0</asrwt>
<pdfrwt beam="1">  1       21 0.18100168E-02 0.47937135E+01</pdfrwt>
<pdfrwt beam="2">  1       21 0.72551635E-03 0.47937135E+01</pdfrwt>
<totfact> 0.17260200E+09</totfact>
</mgrwt>
</event>
<event>
 4    1  0.3999109E+006  0.5390516E+01  0.7546771E-02  0.2502214E+00
         21   -1    0    0  501  502  0.00000000000E+00  0.00000000000E+00  0.29019176753E+02  0.29019176753E+02  0.00000000000E+00 0.  1.
         21   -1    0    0  502  503 -0.00000000000E+00 -0.00000000000E+00 -0.10891677221E+01  0.10891677221E+01  0.00000000000E+00 0. -1.
          5    1    1    2  501    0 -0.14237953609E+01 -0.22227158033E+01  0.18240236636E+02  0.19020091779E+02  0.47000000000E+01 0.  1.
         -5    1    1    2    0  503  0.14237953609E+01  0.22227158033E+01  0.96897723957E+01  0.11088252696E+02  0.47000000000E+01 0. -1.
<mgrwt>
<rscale>  2 0.53905156E+01</rscale>
<asrwt>0</asrwt>
<pdfrwt beam="1">  1       21 0.44644881E-02 0.53905156E+01</pdfrwt>
<pdfrwt beam="2">  1       21 0.16756429E-03 0.53905156E+01</pdfrwt>
<totfact> 0.39216612E+09</totfact>
</mgrwt>
</event>
<event>
 4    1  0.3999109E+006  0.5902167E+01  0.7546771E-02  0.2428333E+00
         21   -1    0    0  501  502  0.00000000000E+00  0.00000000000E+00  0.15586519365E+03  0.15586519365E+03  0.00000000000E+00 0.  1.
         21   -1    0    0  502  503 -0.00000000000E+00 -0.00000000000E+00 -0.26386978333E+00  0.26386978333E+00  0.00000000000E+00 0.  1.
          5    1    1    2  501    0  0.34038922639E+01 -0.10766139006E+01  0.10833560899E+03  0.10849626609E+03  0.47000000000E+01 0.  1.
         -5    1    1    2    0  503 -0.34038922639E+01  0.10766139006E+01  0.47265714874E+02  0.47632797341E+02  0.47000000000E+01 0.  1.
<mgrwt>
<rscale>  2 0.59021674E+01</rscale>
<asrwt>0</asrwt>
<pdfrwt beam="1">  1       21 0.23979187E-01 0.59021674E+01</pdfrwt>
<pdfrwt beam="2">  1       21 0.40595476E-04 0.59021674E+01</pdfrwt>
<totfact> 0.21355023E+09</totfact>
</mgrwt>
</event>
<event>
 4    1  0.3999109E+006  0.5002556E+01  0.7546771E-02  0.2566700E+00
         21   -1    0    0  501  502  0.00000000000E+00  0.00000000000E+00  0.29821720111E+02  0.29821720111E+02  0.00000000000E+00 0. -1.
         21   -1    0    0  502  503 -0.00000000000E+00 -0.00000000000E+00 -0.12110696650E+01  0.12110696650E+01  0.00000000000E+00 0. -1.
          5    1    1    2  501    0  0.14464157275E+01  0.91839637593E+00  0.22903725071E+02  0.23443681291E+02  0.47000000000E+01 0. -1.
         -5    1    1    2    0  503 -0.14464157275E+01 -0.91839637593E+00  0.57069253756E+01  0.75891084854E+01  0.47000000000E+01 0. -1.
<mgrwt>
<rscale>  2 0.50025564E+01</rscale>
<asrwt>0</asrwt>
<pdfrwt beam="1">  1       21 0.45879564E-02 0.50025564E+01</pdfrwt>
<pdfrwt beam="2">  1       21 0.18631843E-03 0.50025564E+01</pdfrwt>
<totfact> 0.30321312E+09</totfact>
</mgrwt>
</event>
<event>
 4    1  0.3999109E+006  0.6918560E+01  0.7546771E-02  0.2309283E+00
         21   -1    0    0  501  502  0.00000000000E+00  0.00000000000E+00  0.38973165846E+02  0.38973165846E+02  0.00000000000E+00 0. -1.
         21   -1    0    0  502  503 -0.00000000000E+00 -0.00000000000E+00 -0.12589933439E+01  0.12589933439E+01  0.00000000000E+00 0. -1.
          5    1    1    2  501    0 -0.28152531877E+01 -0.42250227275E+01  0.22003587059E+02  0.23065652192E+02  0.47000000000E+01 0. -1.
         -5    1    1    2    0  503  0.28152531877E+01  0.42250227275E+01  0.15710585443E+02  0.17166506998E+02  0.47000000000E+01 0. -1.
<mgrwt>
<rscale>  2 0.69185596E+01</rscale>
<asrwt>0</asrwt>
<pdfrwt beam="1">  1       21 0.59958708E-02 0.69185596E+01</pdfrwt>
<pdfrwt beam="2">  1       21 0.19369131E-03 0.69185596E+01</pdfrwt>
<totfact> 0.25788189E+09</totfact>
</mgrwt>
</event>
<event>
 4    1  0.3999109E+006  0.4920778E+01  0.7546771E-02  0.2581402E+00
         21   -1    0    0  501  502  0.00000000000E+00  0.00000000000E+00  0.16791693856E+02  0.16791693856E+02  0.00000000000E+00 0. -1.
         21   -1    0    0  502  503 -0.00000000000E+00 -0.00000000000E+00 -0.31308454135E+01  0.31308454135E+01  0.00000000000E+00 0. -1.
          5    1    1    2  501    0 -0.17574654536E+00  0.14467782116E+01  0.14146455082E+02  0.14977858506E+02  0.47000000000E+01 0. -1.
         -5    1    1    2    0  503  0.17574654536E+00 -0.14467782116E+01 -0.48560663963E+00  0.49446807632E+01  0.47000000000E+01 0. -1.
<mgrwt>
<rscale>  2 0.49207778E+01</rscale>
<asrwt>0</asrwt>
<pdfrwt beam="1">  1       21 0.25833375E-02 0.49207778E+01</pdfrwt>
<pdfrwt beam="2">  1       21 0.48166853E-03 0.49207778E+01</pdfrwt>
<totfact> 0.18800356E+09</totfact>
</mgrwt>
</event>
<event>
 4    1  0.3999109E+006  0.1141668E+02  0.7546771E-02  0.2002325E+00
         21   -1    0    0  503  502  0.00000000000E+00  0.00000000000E+00  0.10051998418E+03  0.10051998418E+03  0.00000000000E+00 0. -1.
         21   -1    0    0  501  503 -0.00000000000E+00 -0.00000000000E+00 -0.13233646691E+01  0.13233646691E+01  0.00000000000E+00 0.  1.
          5    1    1    2  501    0  0.75353323574E+01  0.71742196639E+01  0.42365240488E+02  0.43876579893E+02  0.47000000000E+01 0.  1.
         -5    1    1    2    0  502 -0.75353323574E+01 -0.71742196639E+01  0.56831379021E+02  0.57966768954E+02  0.47000000000E+01 0.  1.
<mgrwt>
<rscale>  2 0.11416683E+02</rscale>
<asrwt>0</asrwt>
<pdfrwt beam="1">  1       21 0.15464607E-01 0.11416683E+02</pdfrwt>
<pdfrwt beam="2">  1       21 0.20359464E-03 0.11416683E+02</pdfrwt>
<totfact> 0.74303048E+08</totfact>
</mgrwt>
</event>
<event>
 4    1  0.3999109E+006  0.4951357E+01  0.7546771E-02  0.2575856E+00
         21   -1    0    0  501  502  0.00000000000E+00  0.00000000000E+00  0.36160792592E+03  0.36160792592E+03  0.00000000000E+00 0.  1.
         21   -1    0    0  502  503 -0.00000000000E+00 -0.00000000000E+00 -0.15931012309E+00  0.15931012309E+00  0.00000000000E+00 0.  1.
          5    1    1    2  501    0 -0.14148127252E+01 -0.65133914638E+00  0.31781854654E+03  0.31785711328E+03  0.47000000000E+01 0.  1.
         -5    1    1    2    0  503  0.14148127252E+01  0.65133914638E+00  0.43630069260E+02  0.43910122766E+02  0.47000000000E+01 0.  1.
<mgrwt>
<rscale>  2 0.49513572E+01</rscale>
<asrwt>0</asrwt>
<pdfrwt beam="1">  1       21 0.55631332E-01 0.49513572E+01</pdfrwt>
<pdfrwt beam="2">  1       21 0.24509539E-04 0.49513572E+01</pdfrwt>
<totfact> 0.85352078E+08</totfact>
</mgrwt>
</event>
<event>
 4    1  0.3999109E+006  0.8051710E+01  0.7546771E-02  0.2206440E+00
         21   -1    0    0  501  502  0.00000000000E+00  0.00000000000E+00  0.17237760274E+01  0.17237760274E+01  0.00000000000E+00 0.  1.
         21   -1    0    0  502  503 -0.00000000000E+00 -0.00000000000E+00 -0.39996954970E+02  0.39996954970E+02  0.00000000000E+00 0.  1.
          5    1    1    2  501    0  0.21645820897E+01  0.61688428012E+01 -0.14039845841E+02  0.16184786324E+02  0.47000000000E+01 0.  1.
         -5    1    1    2    0  503 -0.21645820897E+01 -0.61688428012E+01 -0.24233333102E+02  0.25535944674E+02  0.47000000000E+01 0.  1.
<mgrwt>
<rscale>  2 0.80517102E+01</rscale>
<asrwt>0</asrwt>
<pdfrwt beam="1">  1       21 0.26519631E-03 0.80517102E+01</pdfrwt>
<pdfrwt beam="2">  1       21 0.61533778E-02 0.80517102E+01</pdfrwt>
<totfact> 0.17957665E+09</totfact>
</mgrwt>
</event>
<event>
 4    1  0.3999109E+006  0.1351723E+02  0.7546771E-02  0.1917004E+00
         21   -1    0    0  501  502  0.00000000000E+00  0.00000000000E+00  0.20290964306E+01  0.20290964306E+01  0.00000000000E+00 0.  1.
         21   -1    0    0  502  503 -0.00000000000E+00 -0.00000000000E+00 -0.13866539758E+03  0.13866539758E+03  0.00000000000E+00 0. -1.
          5    1    1    2  501    0  0.12438324997E+02 -0.24317725485E+01 -0.26663807082E+02  0.29894381655E+02  0.47000000000E+01 0.  1.
         -5    1    1    2    0  503 -0.12438324997E+02  0.24317725485E+01 -0.10997249406E+03  0.11080011235E+03  0.47000000000E+01 0. -1.
<mgrwt>
<rscale>  2 0.13517228E+02</rscale>
<asrwt>0</asrwt>
<pdfrwt beam="1">  1       21 0.31216864E-03 0.13517228E+02</pdfrwt>
<pdfrwt beam="2">  1       21 0.21333141E-01 0.13517228E+02</pdfrwt>
<totfact> 0.25488390E+08</totfact>
</mgrwt>
</event>
<event>
 4    1  0.3999109E+006  0.5580777E+01  0.7546771E-02  0.2473404E+00
         21   -1    0    0  501  502  0.00000000000E+00  0.00000000000E+00  0.62762669393E-01  0.62762669393E-01  0.00000000000E+00 0.  1.
         21   -1    0    0  502  503 -0.00000000000E+00 -0.00000000000E+00 -0.53972727736E+03  0.53972727736E+03  0.00000000000E+00 0.  1.
          5    1    1    2  501    0  0.29276288821E+01  0.69574647398E+00 -0.19321783741E+03  0.19329841636E+03  0.47000000000E+01 0.  1.
         -5    1    1    2    0  503 -0.29276288821E+01 -0.69574647398E+00 -0.34644667728E+03  0.34649162366E+03  0.47000000000E+01 0.  1.
<mgrwt>
<rscale>  2 0.55807772E+01</rscale>
<asrwt>0</asrwt>
<pdfrwt beam="1">  1       21 0.96560512E-05 0.55807772E+01</pdfrwt>
<pdfrwt beam="2">  1       21 0.83032765E-01 0.55807772E+01</pdfrwt>
<totfact> 0.15240554E+09</totfact>
</mgrwt>
</event>
<event>
 4    1  0.3999109E+006  0.5968298E+01  0.7546771E-02  0.2419568E+00
         21   -1    0    0  501  502  0.00000000000E+00  0.00000000000E+00  0.20137047561E+01  0.20137047561E+01  0.00000000000E+00 0.  1.
         21   -1    0    0  502  503 -0.00000000000E+00 -0.00000000000E+00 -0.31231776685E+02  0.31231776685E+02  0.00000000000E+00 0. -1.
          5    1    1    2  501    0 -0.36449581388E+01  0.49483505174E+00 -0.36629996411E+01  0.70027243222E+01  0.47000000000E+01 0.  1.
         -5    1    1    2    0  503  0.36449581388E+01 -0.49483505174E+00 -0.25555072287E+02  0.26242757118E+02  0.47000000000E+01 0. -1.
<mgrwt>
<rscale>  2 0.59682980E+01</rscale>
<asrwt>0</asrwt>
<pdfrwt beam="1">  1       21 0.30980073E-03 0.59682980E+01</pdfrwt>
<pdfrwt beam="2">  1       21 0.48048888E-02 0.59682980E+01</pdfrwt>
<totfact> 0.16713614E+09</totfact>
</mgrwt>
</event>
<event>
 4    1  0.3999109E+006  0.6875681E+01  0.7546771E-02  0.2313712E+00
         21   -1    0    0  501  502  0.00000000000E+00  0.00000000000E+00  0.27081512961E+02  0.27081512961E+02  0.00000000000E+00 0.  1.
         21   -1    0    0  502  503 -0.00000000000E+00 -0.00000000000E+00 -0.50942955898E+01  0.50942955898E+01  0.00000000000E+00 0.  1.
          5    1    1    2  501    0  0.10117420416E+01  0.49154219714E+01  0.24037033284E+02  0.25001079261E+02  0.47000000000E+01 0.  1.
         -5    1    1    2    0  503 -0.10117420416E+01 -0.49154219714E+01 -0.20498159123E+01  0.71747292904E+01  0.47000000000E+01 0.  1.
<mgrwt>
<rscale>  2 0.68756814E+01</rscale>
<asrwt>0</asrwt>
<pdfrwt beam="1">  1       21 0.41663865E-02 0.68756814E+01</pdfrwt>
<pdfrwt beam="2">  1       21 0.78373780E-03 0.68756814E+01</pdfrwt>
<totfact> 0.63194938E+08</totfact>
</mgrwt>
</event>
<event>
 4    1  0.3999109E+006  0.6054472E+01  0.7546771E-02  0.2408388E+00
         21   -1    0    0  503  502  0.00000000000E+00  0.00000000000E+00  0.17206912150E+00  0.17206912150E+00  0.00000000000E+00 0.  1.
         21   -1    0    0  501  503 -0.00000000000E+00 -0.00000000000E+00 -0.11628345373E+04  0.11628345373E+04  0.00000000000E+00 0. -1.
          5    1    1    2  501    0  0.38240923840E+00 -0.37974189036E+01 -0.11068755687E+04  0.11068921272E+04  0.47000000000E+01 0. -1.
         -5    1    1    2    0  502 -0.38240923840E+00  0.37974189036E+01 -0.55786899457E+02  0.56114479220E+02  0.47000000000E+01 0.  1.
<mgrwt>
<rscale>  2 0.60544717E+01</rscale>
<asrwt>0</asrwt>
<pdfrwt beam="1">  1       21 0.26471511E-04 0.60544717E+01</pdfrwt>
<pdfrwt beam="2">  1       21 0.17890210E+00 0.60544717E+01</pdfrwt>
<totfact> 0.85076167E+07</totfact>
</mgrwt>
</event>
<event>
 4    1  0.3999109E+006  0.5529129E+01  0.7546771E-02  0.2481058E+00
         21   -1    0    0  503  502  0.00000000000E+00  0.00000000000E+00  0.18883324003E+04  0.18883324003E+04  0.00000000000E+00 0.  1.
         21   -1    0    0  501  503 -0.00000000000E+00 -0.00000000000E+00 -0.23976966821E-01  0.23976966821E-01  0.00000000000E+00 0.  1.
          5    1    1    2  501    0  0.69978076967E+00  0.28269377227E+01  0.40606623984E+03  0.40610388130E+03  0.47000000000E+01 0.  1.
         -5    1    1    2    0  502 -0.69978076967E+00 -0.28269377227E+01  0.14822421835E+04  0.14822524960E+04  0.47000000000E+01 0.  1.
<mgrwt>
<rscale>  2 0.55291292E+01</rscale>
<asrwt>0</asrwt>
<pdfrwt beam="1">  1       21 0.29039361E+00 0.55291292E+01</pdfrwt>
<pdfrwt beam="2">  1       21 0.36902766E-05 0.55291292E+01</pdfrwt>
<totfact> 0.37120367E+08</totfact>
</mgrwt>
</event>
<event>
 4    1  0.3999109E+006  0.5111732E+01  0.7546771E-02  0.2547706E+00
         21   -1    0    0  501  502  0.00000000000E+00  0.00000000000E+00  0.90416059403E+02  0.90416059403E+02  0.00000000000E+00 0.  1.
         21   -1    0    0  502  503 -0.00000000000E+00 -0.00000000000E+00 -0.40741298412E+00  0.40741298412E+00  0.00000000000E+00 0. -1.
          5    1    1    2  501    0 -0.20001769445E+01 -0.19773234464E+00  0.69487014952E+02  0.69674780608E+02  0.47000000000E+01 0.  1.
         -5    1    1    2    0  503  0.20001769445E+01  0.19773234464E+00  0.20521631467E+02  0.21148691779E+02  0.47000000000E+01 0. -1.
<mgrwt>
<rscale>  2 0.51117322E+01</rscale>
<asrwt>0</asrwt>
<pdfrwt beam="1">  1       21 0.13910147E-01 0.51117322E+01</pdfrwt>
<pdfrwt beam="2">  1       21 0.62678992E-04 0.51117322E+01</pdfrwt>
<totfact> 0.25118678E+09</totfact>
</mgrwt>
</event>
<event>
 4    1  0.3999109E+006  0.5728946E+01  0.7546771E-02  0.2452096E+00
         21   -1    0    0  501  502  0.00000000000E+00  0.00000000000E+00  0.10293659549E+01  0.10293659549E+01  0.00000000000E+00 0. -1.
         21   -1    0    0  502  503 -0.00000000000E+00 -0.00000000000E+00 -0.36732727649E+03  0.36732727649E+03  0.00000000000E+00 0.  1.
          5    1    1    2  501    0  0.32735474264E+01 -0.12127667418E+00 -0.71455212403E+01  0.91585640021E+01  0.47000000000E+01 0. -1.
         -5    1    1    2    0  503 -0.32735474264E+01  0.12127667418E+00 -0.35915238930E+03  0.35919807844E+03  0.47000000000E+01 0.  1.
<mgrwt>
<rscale>  2 0.57289459E+01</rscale>
<asrwt>0</asrwt>
<pdfrwt beam="1">  1       21 0.15836417E-03 0.57289459E+01</pdfrwt>
<pdfrwt beam="2">  1       21 0.56511827E-01 0.57289459E+01</pdfrwt>
<totfact> 0.76813598E+07</totfact>
</mgrwt>
</event>
<event>
 4    1  0.3999109E+006  0.4830952E+01  0.7546771E-02  0.2598046E+00
         21   -1    0    0  501  502  0.00000000000E+00  0.00000000000E+00  0.16013826238E+01  0.16013826238E+01  0.00000000000E+00 0. -1.
         21   -1    0    0  502  503 -0.00000000000E+00 -0.00000000000E+00 -0.37352846326E+02  0.37352846326E+02  0.00000000000E+00 0. -1.
          5    1    1    2  501    0  0.10741097722E+01 -0.30722953037E+00 -0.26656588358E+01  0.55175935711E+01  0.47000000000E+01 0. -1.
         -5    1    1    2    0  503 -0.10741097722E+01  0.30722953037E+00 -0.33085804866E+02  0.33436635379E+02  0.47000000000E+01 0. -1.
<mgrwt>
<rscale>  2 0.48309525E+01</rscale>
<asrwt>0</asrwt>
<pdfrwt beam="1">  1       21 0.24636661E-03 0.48309525E+01</pdfrwt>
<pdfrwt beam="2">  1       21 0.57465905E-02 0.48309525E+01</pdfrwt>
<totfact> 0.14467482E+09</totfact>
</mgrwt>
</event>
<event>
 4    1  0.3999109E+006  0.5617798E+01  0.7546771E-02  0.2467991E+00
         21   -1    0    0  503  502  0.00000000000E+00  0.00000000000E+00  0.41421836267E+03  0.41421836267E+03  0.00000000000E+00 0. -1.
         21   -1    0    0  501  503 -0.00000000000E+00 -0.00000000000E+00 -0.11088335792E+00  0.11088335792E+00  0.00000000000E+00 0.  1.
          5    1    1    2  501    0 -0.30654096994E+01 -0.27003225030E+00  0.91175955131E+02  0.91348861231E+02  0.47000000000E+01 0.  1.
         -5    1    1    2    0  502  0.30654096994E+01  0.27003225030E+00  0.32293152418E+03  0.32298038479E+03  0.47000000000E+01 0. -1.
<mgrwt>
<rscale>  2 0.56177980E+01</rscale>
<asrwt>0</asrwt>
<pdfrwt beam="1">  1       21 0.63724663E-01 0.56177980E+01</pdfrwt>
<pdfrwt beam="2">  1       21 0.17059310E-04 0.56177980E+01</pdfrwt>
<totfact> 0.11901984E+09</totfact>
</mgrwt>
</event>
<event>
 4    1  0.3999109E+006  0.1257764E+02  0.7546771E-02  0.1952461E+00
         21   -1    0    0  501  502  0.00000000000E+00  0.00000000000E+00  0.36051049665E+02  0.36051049665E+02  0.00000000000E+00 0.  1.
         21   -1    0    0  502  503 -0.00000000000E+00 -0.00000000000E+00 -0.86802040931E+01  0.86802040931E+01  0.00000000000E+00 0. -1.
          5    1    1    2  501    0 -0.11436367845E+02 -0.23057643391E+01  0.29412542713E+02  0.31988978219E+02  0.47000000000E+01 0.  1.
         -5    1    1    2    0  503  0.11436367845E+02  0.23057643391E+01 -0.20416971411E+01  0.12742275539E+02  0.47000000000E+01 0. -1.
<mgrwt>
<rscale>  2 0.12577641E+02</rscale>
<asrwt>0</asrwt>
<pdfrwt beam="1">  1       21 0.55463152E-02 0.12577641E+02</pdfrwt>
<pdfrwt beam="2">  1       21 0.13354160E-02 0.12577641E+02</pdfrwt>
<totfact> 0.26667638E+08</totfact>
</mgrwt>
</event>
<event>
 4    1  0.3999109E+006  0.8117788E+01  0.7546771E-02  0.2201168E+00
         21   -1    0    0  503  502  0.00000000000E+00  0.00000000000E+00  0.19865688870E+03  0.19865688870E+03  0.00000000000E+00 0. -1.
         21   -1    0    0  501  503 -0.00000000000E+00 -0.00000000000E+00 -0.17191400444E+01  0.17191400444E+01  0.00000000000E+00 0.  1.
          5    1    1    2  501    0  0.24961206243E+01  0.61300787688E+01  0.84643984885E+01  0.11727937826E+02  0.47000000000E+01 0.  1.
         -5    1    1    2    0  502 -0.24961206243E+01 -0.61300787688E+01  0.18847335017E+03  0.18864809092E+03  0.47000000000E+01 0. -1.
<mgrwt>
<rscale>  2 0.81177881E+01</rscale>
<asrwt>0</asrwt>
<pdfrwt beam="1">  1       21 0.30562580E-01 0.81177881E+01</pdfrwt>
<pdfrwt beam="2">  1       21 0.26448324E-03 0.81177881E+01</pdfrwt>
<totfact> 0.13747639E+08</totfact>
</mgrwt>
</event>
<event>
 4    1  0.3999109E+006  0.5378418E+01  0.7546771E-02  0.2504105E+00
         21   -1    0    0  501  502  0.00000000000E+00  0.00000000000E+00  0.29332397857E+03  0.29332397857E+03  0.00000000000E+00 0.  1.
         21   -1    0    0  502  503 -0.00000000000E+00 -0.00000000000E+00 -0.17241086742E+00  0.17241086742E+00  0.00000000000E+00 0. -1.
          5    1    1    2  501    0 -0.13567307590E+01 -0.22353209958E+01  0.24258083620E+03  0.24264045308E+03  0.47000000000E+01 0.  1.
         -5    1    1    2    0  503  0.13567307590E+01  0.22353209958E+01  0.50570731500E+02  0.50855936357E+02  0.47000000000E+01 0. -1.
<mgrwt>
<rscale>  2 0.53784178E+01</rscale>
<asrwt>0</asrwt>
<pdfrwt beam="1">  1       21 0.45126367E-01 0.53784178E+01</pdfrwt>
<pdfrwt beam="2">  1       21 0.26524984E-04 0.53784178E+01</pdfrwt>
<totfact> 0.11946042E+09</totfact>
</mgrwt>
</event>
<event>
 4    1  0.3999109E+006  0.8233866E+01  0.7546771E-02  0.2192072E+00
         21   -1    0    0  501  502  0.00000000000E+00  0.00000000000E+00  0.11894656635E+01  0.11894656635E+01  0.00000000000E+00 0. -1.
         21   -1    0    0  502  503 -0.00000000000E+00 -0.00000000000E+00 -0.14427592450E+03  0.14427592450E+03  0.00000000000E+00 0.  1.
          5    1    1    2  501    0 -0.44016901200E+01  0.51314402580E+01 -0.14973223252E+02  0.17087831038E+02  0.47000000000E+01 0. -1.
         -5    1    1    2    0  503  0.44016901200E+01 -0.51314402580E+01 -0.12811323559E+03  0.12837755913E+03  0.47000000000E+01 0.  1.
<mgrwt>
<rscale>  2 0.82338663E+01</rscale>
<asrwt>0</asrwt>
<pdfrwt beam="1">  1       21 0.18299471E-03 0.82338663E+01</pdfrwt>
<pdfrwt beam="2">  1       21 0.22196297E-01 0.82338663E+01</pdfrwt>
<totfact> 0.39713071E+08</totfact>
</mgrwt>
</event>
<event>
 4    1  0.3999109E+006  0.5134729E+01  0.7546771E-02  0.2543794E+00
         21   -1    0    0  501  502  0.00000000000E+00  0.00000000000E+00  0.84421892762E+00  0.84421892762E+00  0.00000000000E+00 0.  1.
         21   -1    0    0  502  503 -0.00000000000E+00 -0.00000000000E+00 -0.35006954735E+02  0.35006954735E+02  0.00000000000E+00 0.  1.
          5    1    1    2  501    0  0.18155035383E+01  0.98964028185E+00 -0.11193824112E+02  0.12315321321E+02  0.47000000000E+01 0.  1.
         -5    1    1    2    0  503 -0.18155035383E+01 -0.98964028185E+00 -0.22968911695E+02  0.23535852342E+02  0.47000000000E+01 0.  1.
<mgrwt>
<rscale>  2 0.51347289E+01</rscale>
<asrwt>0</asrwt>
<pdfrwt beam="1">  1       21 0.12987982E-03 0.51347289E+01</pdfrwt>
<pdfrwt beam="2">  1       21 0.53856859E-02 0.51347289E+01</pdfrwt>
<totfact> 0.39930490E+09</totfact>
</mgrwt>
</event>
<event>
 4    1  0.3999109E+006  0.1958951E+02  0.7546771E-02  0.1753617E+00
         21   -1    0    0  501  502  0.00000000000E+00  0.00000000000E+00  0.22675395272E+03  0.22675395272E+03  0.00000000000E+00 0. -1.
         21   -1    0    0  502  503 -0.00000000000E+00 -0.00000000000E+00 -0.18636881857E+01  0.18636881857E+01  0.00000000000E+00 0.  1.
          5    1    1    2  501    0 -0.19007090367E+02 -0.62388581321E+00  0.14710372208E+03  0.14840233748E+03  0.47000000000E+01 0. -1.
         -5    1    1    2    0  503  0.19007090367E+02  0.62388581321E+00  0.77786542450E+02  0.80215303428E+02  0.47000000000E+01 0.  1.
<mgrwt>
<rscale>  2 0.19589505E+02</rscale>
<asrwt>0</asrwt>
<pdfrwt beam="1">  1       21 0.34885202E-01 0.19589505E+02</pdfrwt>
<pdfrwt beam="2">  1       21 0.28672144E-03 0.19589505E+02</pdfrwt>
<totfact> 0.13727215E+08</totfact>
</mgrwt>
</event>
<event>
 4    1  0.3999109E+006  0.5252182E+01  0.7546771E-02  0.2524272E+00
         21   -1    0    0  501  502  0.00000000000E+00  0.00000000000E+00  0.90744854044E+01  0.90744854044E+01  0.00000000000E+00 0. -1.
         21   -1    0    0  502  503 -0.00000000000E+00 -0.00000000000E+00 -0.10798790871E+03  0.10798790871E+03  0.00000000000E+00 0. -1.
          5    1    1    2  501    0  0.39147608337E+00 -0.23113107438E+01  0.82447705149E+01  0.97755640104E+01  0.47000000000E+01 0. -1.
         -5    1    1    2    0  503 -0.39147608337E+00  0.23113107438E+01 -0.10715819382E+03  0.10728683010E+03  0.47000000000E+01 0. -1.
<mgrwt>
<rscale>  2 0.52521815E+01</rscale>
<asrwt>0</asrwt>
<pdfrwt beam="1">  1       21 0.13960748E-02 0.52521815E+01</pdfrwt>
<pdfrwt beam="2">  1       21 0.16613523E-01 0.52521815E+01</pdfrwt>
<totfact> 0.28381126E+07</totfact>
</mgrwt>
</event>
<event>
 4    1  0.3999109E+006  0.4856149E+01  0.7546771E-02  0.2593323E+00
         21   -1    0    0  501  502  0.00000000000E+00  0.00000000000E+00  0.71236583613E+02  0.71236583613E+02  0.00000000000E+00 0.  1.
         21   -1    0    0  502  503 -0.00000000000E+00 -0.00000000000E+00 -0.42235975371E+00  0.42235975371E+00  0.00000000000E+00 0. -1.
          5    1    1    2  501    0  0.12205554232E+01 -0.49317686962E-01  0.52067324318E+02  0.52293292585E+02  0.47000000000E+01 0. -1.
         -5    1    1    2    0  503 -0.12205554232E+01  0.49317686962E-01  0.18746899541E+02  0.19365650781E+02  0.47000000000E+01 0. -1.
<mgrwt>
<rscale>  2 0.48561495E+01</rscale>
<asrwt>0</asrwt>
<pdfrwt beam="1">  1       21 0.10959465E-01 0.48561495E+01</pdfrwt>
<pdfrwt beam="2">  1       21 0.64978480E-04 0.48561495E+01</pdfrwt>
<totfact> 0.32809191E+09</totfact>
</mgrwt>
</event>
<event>
 4    1  0.3999109E+006  0.6595989E+01  0.7546771E-02  0.2343760E+00
         21   -1    0    0  501  502  0.00000000000E+00  0.00000000000E+00  0.72269110440E+02  0.72269110440E+02  0.00000000000E+00 0. -1.
         21   -1    0    0  502  503 -0.00000000000E+00 -0.00000000000E+00 -0.87108357360E+00  0.87108357360E+00  0.00000000000E+00 0. -1.
          5    1    1    2  501    0 -0.46247874646E+01  0.16854682720E+00  0.15374136369E+02  0.16729349545E+02  0.47000000000E+01 0. -1.
         -5    1    1    2    0  503  0.46247874646E+01 -0.16854682720E+00  0.56023890497E+02  0.56410844468E+02  0.47000000000E+01 0. -1.
<mgrwt>
<rscale>  2 0.65959887E+01</rscale>
<asrwt>0</asrwt>
<pdfrwt beam="1">  1       21 0.11118320E-01 0.65959887E+01</pdfrwt>
<pdfrwt beam="2">  1       21 0.13401291E-03 0.65959887E+01</pdfrwt>
<totfact> 0.15962466E+09</totfact>
</mgrwt>
</event>
<event>
 4    1  0.3999109E+006  0.5072974E+01  0.7546771E-02  0.2554369E+00
         21   -1    0    0  503  502  0.00000000000E+00  0.00000000000E+00  0.51517583302E-01  0.51517583302E-01  0.00000000000E+00 0. -1.
         21   -1    0    0  501  503 -0.00000000000E+00 -0.00000000000E+00 -0.28424692284E+04  0.28424692284E+04  0.00000000000E+00 0. -1.
          5    1    1    2  501    0  0.12245419588E+01 -0.14647744428E+01 -0.27115525207E+04  0.27115572662E+04  0.47000000000E+01 0. -1.
         -5    1    1    2    0  502 -0.12245419588E+01  0.14647744428E+01 -0.13086519012E+03  0.13096347984E+03  0.47000000000E+01 0. -1.
<mgrwt>
<rscale>  2 0.50729742E+01</rscale>
<asrwt>0</asrwt>
<pdfrwt beam="1">  1       21 0.79251245E-05 0.50729742E+01</pdfrwt>
<pdfrwt beam="2">  1       21 0.43733924E+00 0.50729742E+01</pdfrwt>
<totfact> 0.32223095E+07</totfact>
</mgrwt>
</event>
<event>
 4    1  0.3999109E+006  0.8298517E+01  0.7546771E-02  0.2187095E+00
         21   -1    0    0  503  502  0.00000000000E+00  0.00000000000E+00  0.44065366332E+01  0.44065366332E+01  0.00000000000E+00 0. -1.
         21   -1    0    0  501  503 -0.00000000000E+00 -0.00000000000E+00 -0.29719681841E+02  0.29719681841E+02  0.00000000000E+00 0. -1.
          5    1    1    2  501    0  0.64937041754E+01 -0.21464351182E+01 -0.24406019613E+02  0.25778269356E+02  0.47000000000E+01 0. -1.
         -5    1    1    2    0  502 -0.64937041754E+01  0.21464351182E+01 -0.90712559460E+00  0.83479491181E+01  0.47000000000E+01 0. -1.
<mgrwt>
<rscale>  2 0.82985166E+01</rscale>
<asrwt>0</asrwt>
<pdfrwt beam="1">  1       21 0.67792870E-03 0.82985166E+01</pdfrwt>
<pdfrwt beam="2">  1       21 0.45722588E-02 0.82985166E+01</pdfrwt>
<totfact> 0.76681061E+08</totfact>
</mgrwt>
</event>
<event>
 4    1  0.3999109E+006  0.4771750E+01  0.7546771E-02  0.2609311E+00
         21   -1    0    0  501  502  0.00000000000E+00  0.00000000000E+00  0.74201623100E+02  0.74201623100E+02  0.00000000000E+00 0. -1.
         21   -1    0    0  502  503 -0.00000000000E+00 -0.00000000000E+00 -0.30881036590E+00  0.30881036590E+00  0.00000000000E+00 0. -1.
          5    1    1    2  501    0  0.55816537387E+00 -0.60667048143E+00  0.39906242975E+02  0.40190519106E+02  0.47000000000E+01 0. -1.
         -5    1    1    2    0  503 -0.55816537387E+00  0.60667048143E+00  0.33986569760E+02  0.34319914360E+02  0.47000000000E+01 0. -1.
<mgrwt>
<rscale>  2 0.47717500E+01</rscale>
<asrwt>0</asrwt>
<pdfrwt beam="1">  1       21 0.11415620E-01 0.47717500E+01</pdfrwt>
<pdfrwt beam="2">  1       21 0.47509346E-04 0.47717500E+01</pdfrwt>
<totfact> 0.45816521E+09</totfact>
</mgrwt>
</event>
<event>
 4    1  0.3999109E+006  0.7140654E+01  0.7546771E-02  0.2287043E+00
         21   -1    0    0  501  502  0.00000000000E+00  0.00000000000E+00  0.37833883586E+00  0.37833883586E+00  0.00000000000E+00 0. -1.
         21   -1    0    0  502  503 -0.00000000000E+00 -0.00000000000E+00 -0.15843801340E+03  0.15843801340E+03  0.00000000000E+00 0. -1.
          5    1    1    2  501    0  0.19591144349E+00  0.53722029977E+01 -0.48338835791E+02  0.48863401355E+02  0.47000000000E+01 0. -1.
         -5    1    1    2    0  503 -0.19591144349E+00 -0.53722029977E+01 -0.10972083877E+03  0.10995295088E+03  0.47000000000E+01 0. -1.
<mgrwt>
<rscale>  2 0.71406545E+01</rscale>
<asrwt>0</asrwt>
<pdfrwt beam="1">  1       21 0.58205806E-04 0.71406545E+01</pdfrwt>
<pdfrwt beam="2">  1       21 0.24375150E-01 0.71406545E+01</pdfrwt>
<totfact> 0.14795111E+09</totfact>
</mgrwt>
</event>
<event>
 4    1  0.3999109E+006  0.4781606E+01  0.7546771E-02  0.2607419E+00
         21   -1    0    0  501  502  0.00000000000E+00  0.00000000000E+00  0.25046456540E+00  0.25046456540E+00  0.00000000000E+00 0. -1.
         21   -1    0    0  502  503 -0.00000000000E+00 -0.00000000000E+00 -0.13431635640E+03  0.13431635640E+03  0.00000000000E+00 0. -1.
          5    1    1    2  501    0  0.15650938768E+00 -0.86560099897E+00 -0.28949696228E+02  0.29341926862E+02  0.47000000000E+01 0. -1.
         -5    1    1    2    0  503 -0.15650938768E+00  0.86560099897E+00 -0.10511619561E+03  0.10522489410E+03  0.47000000000E+01 0. -1.
<mgrwt>
<rscale>  2 0.47816065E+01</rscale>
<asrwt>0</asrwt>
<pdfrwt beam="1">  1       21 0.38533047E-04 0.47816065E+01</pdfrwt>
<pdfrwt beam="2">  1       21 0.20664035E-01 0.47816065E+01</pdfrwt>
<totfact> 0.24108899E+09</totfact>
</mgrwt>
</event>
<event>
 4    1  0.3999109E+006  0.6558655E+01  0.7546771E-02  0.2347930E+00
         21   -1    0    0  501  502  0.00000000000E+00  0.00000000000E+00  0.22016938119E+02  0.22016938119E+02  0.00000000000E+00 0.  1.
         21   -1    0    0  502  503 -0.00000000000E+00 -0.00000000000E+00 -0.33923523352E+01  0.33923523352E+01  0.00000000000E+00 0.  1.
          5    1    1    2  501    0 -0.39519093679E+01  0.23039902416E+01  0.17585615094E+02  0.18768852307E+02  0.47000000000E+01 0.  1.
         -5    1    1    2    0  503  0.39519093679E+01 -0.23039902416E+01  0.10389706891E+01  0.66404381466E+01  0.47000000000E+01 0.  1.
<mgrwt>
<rscale>  2 0.65586552E+01</rscale>
<asrwt>0</asrwt>
<pdfrwt beam="1">  1       21 0.33872212E-02 0.65586552E+01</pdfrwt>
<pdfrwt beam="2">  1       21 0.52190037E-03 0.65586552E+01</pdfrwt>
<totfact> 0.14677042E+09</totfact>
</mgrwt>
</event>
<event>
 4    1  0.3999109E+006  0.5440148E+01  0.7546771E-02  0.2494534E+00
         21   -1    0    0  501  502  0.00000000000E+00  0.00000000000E+00  0.35058197380E+02  0.35058197380E+02  0.00000000000E+00 0.  1.
         21   -1    0    0  502  503 -0.00000000000E+00 -0.00000000000E+00 -0.84979173716E+00  0.84979173716E+00  0.00000000000E+00 0. -1.
          5    1    1    2  501    0 -0.21602140108E+01 -0.16848405466E+01  0.15644405091E+02  0.16563291427E+02  0.47000000000E+01 0. -1.
         -5    1    1    2    0  503  0.21602140108E+01  0.16848405466E+01  0.18564000552E+02  0.19344697690E+02  0.47000000000E+01 0. -1.
<mgrwt>
<rscale>  2 0.54401482E+01</rscale>
<asrwt>0</asrwt>
<pdfrwt beam="1">  1       21 0.53935677E-02 0.54401482E+01</pdfrwt>
<pdfrwt beam="2">  1       21 0.13073722E-03 0.54401482E+01</pdfrwt>
<totfact> 0.41831996E+09</totfact>
</mgrwt>
</event>
<event>
 4    1  0.3999109E+006  0.5236075E+01  0.7546771E-02  0.2526904E+00
         21   -1    0    0  501  502  0.00000000000E+00  0.00000000000E+00  0.15909901054E+02  0.15909901054E+02  0.00000000000E+00 0.  1.
         21   -1    0    0  502  503 -0.00000000000E+00 -0.00000000000E+00 -0.30382504729E+01  0.30382504729E+01  0.00000000000E+00 0.  1.
          5    1    1    2  501    0  0.28820999282E+00  0.22898515951E+01  0.12668732089E+02  0.13708145683E+02  0.47000000000E+01 0.  1.
         -5    1    1    2    0  503 -0.28820999282E+00 -0.22898515951E+01  0.20291849210E+00  0.52400058437E+01  0.47000000000E+01 0.  1.
<mgrwt>
<rscale>  2 0.52360754E+01</rscale>
<asrwt>0</asrwt>
<pdfrwt beam="1">  1       21 0.24476770E-02 0.52360754E+01</pdfrwt>
<pdfrwt beam="2">  1       21 0.46742316E-03 0.52360754E+01</pdfrwt>
<totfact> 0.22505100E+09</totfact>
</mgrwt>
</event>
<event>
 4    1  0.3999109E+006  0.6027929E+01  0.7546771E-02  0.2411803E+00
         21   -1    0    0  501  502  0.00000000000E+00  0.00000000000E+00  0.49336919168E+01  0.49336919168E+01  0.00000000000E+00 0. -1.
         21   -1    0    0  502  503 -0.00000000000E+00 -0.00000000000E+00 -0.10412878122E+02  0.10412878122E+02  0.00000000000E+00 0.  1.
          5    1    1    2  501    0 -0.30624198843E+01 -0.22062443312E+01  0.14119065710E+01  0.61910750086E+01  0.47000000000E+01 0. -1.
         -5    1    1    2    0  503  0.30624198843E+01  0.22062443312E+01 -0.68910927758E+01  0.91554950299E+01  0.47000000000E+01 0.  1.
<mgrwt>
<rscale>  2 0.60279291E+01</rscale>
<asrwt>0</asrwt>
<pdfrwt beam="1">  1       21 0.75902953E-03 0.60279291E+01</pdfrwt>
<pdfrwt beam="2">  1       21 0.16019812E-02 0.60279291E+01</pdfrwt>
<totfact> 0.23928113E+09</totfact>
</mgrwt>
</event>
<event>
 4    1  0.3999109E+006  0.6142299E+01  0.7546771E-02  0.2397263E+00
         21   -1    0    0  503  502  0.00000000000E+00  0.00000000000E+00  0.11866055748E+02  0.11866055748E+02  0.00000000000E+00 0. -1.
         21   -1    0    0  501  503 -0.00000000000E+00 -0.00000000000E+00 -0.50417017708E+01  0.50417017708E+01  0.00000000000E+00 0. -1.
          5    1    1    2  501    0  0.23332878337E+01  0.31927423295E+01 -0.17256992900E+01  0.63801154956E+01  0.47000000000E+01 0. -1.
         -5    1    1    2    0  502 -0.23332878337E+01 -0.31927423295E+01  0.85500532667E+01  0.10527642023E+02  0.47000000000E+01 0. -1.
<mgrwt>
<rscale>  2 0.61422989E+01</rscale>
<asrwt>0</asrwt>
<pdfrwt beam="1">  1       21 0.18255470E-02 0.61422989E+01</pdfrwt>
<pdfrwt beam="2">  1       21 0.77564643E-03 0.61422989E+01</pdfrwt>
<totfact> 0.19567500E+09</totfact>
</mgrwt>
</event>
<event>
 4    1  0.3999109E+006  0.1025160E+02  0.7546771E-02  0.2060945E+00
         21   -1    0    0  501  502  0.00000000000E+00  0.00000000000E+00  0.43350625654E+03  0.43350625654E+03  0.00000000000E+00 0.  1.
         21   -1    0    0  502  503 -0.00000000000E+00 -0.00000000000E+00 -0.39100825343E+01  0.39100825343E+01  0.00000000000E+00 0. -1.
          5    1    1    2  501    0 -0.84899890779E+01 -0.33053562543E+01  0.42661765843E+03  0.42674081335E+03  0.47000000000E+01 0.  1.
         -5    1    1    2    0  503  0.84899890779E+01  0.33053562543E+01  0.29785155796E+01  0.10675525728E+02  0.47000000000E+01 0. -1.
<mgrwt>
<rscale>  2 0.10251600E+02</rscale>
<asrwt>0</asrwt>
<pdfrwt beam="1">  1       21 0.66693232E-01 0.10251600E+02</pdfrwt>
<pdfrwt beam="2">  1       21 0.60155150E-03 0.10251600E+02</pdfrwt>
<totfact> 0.11357438E+07</totfact>
</mgrwt>
</event>
<event>
 4    1  0.3999109E+006  0.7626961E+01  0.7546771E-02  0.2242074E+00
         21   -1    0    0  503  502  0.00000000000E+00  0.00000000000E+00  0.19733167449E+02  0.19733167449E+02  0.00000000000E+00 0.  1.
         21   -1    0    0  501  503 -0.00000000000E+00 -0.00000000000E+00 -0.31028138933E+01  0.31028138933E+01  0.00000000000E+00 0. -1.
          5    1    1    2  501    0  0.59910433180E+01  0.43350612487E+00  0.57635375339E+01  0.95597537889E+01  0.47000000000E+01 0. -1.
         -5    1    1    2    0  502 -0.59910433180E+01 -0.43350612487E+00  0.10866816022E+02  0.13276227553E+02  0.47000000000E+01 0.  1.
<mgrwt>
<rscale>  2 0.76269606E+01</rscale>
<asrwt>0</asrwt>
<pdfrwt beam="1">  1       21 0.30358718E-02 0.76269606E+01</pdfrwt>
<pdfrwt beam="2">  1       21 0.47735600E-03 0.76269606E+01</pdfrwt>
<totfact> 0.21910326E+09</totfact>
</mgrwt>
</event>
<event>
 4    1  0.3999109E+006  0.1504460E+02  0.7546771E-02  0.1866711E+00
         21   -1    0    0  503  502  0.00000000000E+00  0.00000000000E+00  0.25000810858E+02  0.25000810858E+02  0.00000000000E+00 0. -1.
         21   -1    0    0  501  503 -0.00000000000E+00 -0.00000000000E+00 -0.11548386459E+02  0.11548386459E+02  0.00000000000E+00 0.  1.
          5    1    1    2  501    0 -0.85866742902E+01 -0.11424493681E+02 -0.17681217436E+01  0.15148144630E+02  0.47000000000E+01 0. -1.
         -5    1    1    2    0  502  0.85866742902E+01  0.11424493681E+02  0.15220546142E+02  0.21401052687E+02  0.47000000000E+01 0.  1.
<mgrwt>
<rscale>  2 0.15044601E+02</rscale>
<asrwt>0</asrwt>
<pdfrwt beam="1">  1       21 0.38462786E-02 0.15044601E+02</pdfrwt>
<pdfrwt beam="2">  1       21 0.17766748E-02 0.15044601E+02</pdfrwt>
<totfact> 0.33214670E+08</totfact>
</mgrwt>
</event>
<event>
 4    1  0.3999109E+006  0.6600035E+01  0.7546771E-02  0.2343310E+00
         21   -1    0    0  503  502  0.00000000000E+00  0.00000000000E+00  0.32619003276E+02  0.32619003276E+02  0.00000000000E+00 0.  1.
         21   -1    0    0  501  503 -0.00000000000E+00 -0.00000000000E+00 -0.16812270383E+01  0.16812270383E+01  0.00000000000E+00 0.  1.
          5    1    1    2  501    0 -0.11258301453E+01  0.44947705660E+01  0.76909706747E+01  0.10134667527E+02  0.47000000000E+01 0.  1.
         -5    1    1    2    0  502  0.11258301453E+01 -0.44947705660E+01  0.23246805563E+02  0.24165562788E+02  0.47000000000E+01 0.  1.
<mgrwt>
<rscale>  2 0.66000345E+01</rscale>
<asrwt>0</asrwt>
<pdfrwt beam="1">  1       21 0.50183077E-02 0.66000345E+01</pdfrwt>
<pdfrwt beam="2">  1       21 0.25865034E-03 0.66000345E+01</pdfrwt>
<totfact> 0.21821290E+09</totfact>
</mgrwt>
</event>
<event>
 4    1  0.3999109E+006  0.5500542E+01  0.7546771E-02  0.2485347E+00
         21   -1    0    0  503  502  0.00000000000E+00  0.00000000000E+00  0.22448143728E+01  0.22448143728E+01  0.00000000000E+00 0. -1.
         21   -1    0    0  501  503 -0.00000000000E+00 -0.00000000000E+00 -0.25679572969E+02  0.25679572969E+02  0.00000000000E+00 0. -1.
          5    1    1    2  501    0  0.28324383832E+01  0.37848964719E+00 -0.21341584349E+02  0.22039037732E+02  0.47000000000E+01 0. -1.
         -5    1    1    2    0  502 -0.28324383832E+01 -0.37848964719E+00 -0.20931742475E+01  0.58853496105E+01  0.47000000000E+01 0. -1.
<mgrwt>
<rscale>  2 0.55005419E+01</rscale>
<asrwt>0</asrwt>
<pdfrwt beam="1">  1       21 0.34535605E-03 0.55005419E+01</pdfrwt>
<pdfrwt beam="2">  1       21 0.39507036E-02 0.55005419E+01</pdfrwt>
<totfact> 0.17888984E+09</totfact>
</mgrwt>
</event>
<event>
 4    1  0.3999109E+006  0.5298227E+01  0.7546771E-02  0.2516821E+00
         21   -1    0    0  503  502  0.00000000000E+00  0.00000000000E+00  0.45402377575E+02  0.45402377575E+02  0.00000000000E+00 0.  1.
         21   -1    0    0  501  503 -0.00000000000E+00 -0.00000000000E+00 -0.85417594863E+00  0.85417594863E+00  0.00000000000E+00 0.  1.
          5    1    1    2  501    0  0.24456423370E+01  0.66983273305E-02  0.10119706875E+02  0.11422770178E+02  0.47000000000E+01 0.  1.
         -5    1    1    2    0  502 -0.24456423370E+01 -0.66983273305E-02  0.34428494752E+02  0.34833783346E+02  0.47000000000E+01 0.  1.
<mgrwt>
<rscale>  2 0.52982272E+01</rscale>
<asrwt>0</asrwt>
<pdfrwt beam="1">  1       21 0.69849793E-02 0.52982272E+01</pdfrwt>
<pdfrwt beam="2">  1       21 0.13141172E-03 0.52982272E+01</pdfrwt>
<totfact> 0.27594155E+09</totfact>
</mgrwt>
</event>
<event>
 4    1  0.3999109E+006  0.5965605E+01  0.7546771E-02  0.2419922E+00
         21   -1    0    0  501  502  0.00000000000E+00  0.00000000000E+00  0.68713395533E+01  0.68713395533E+01  0.00000000000E+00 0.  1.
         21   -1    0    0  502  503 -0.00000000000E+00 -0.00000000000E+00 -0.11798221844E+02  0.11798221844E+02  0.00000000000E+00 0.  1.
          5    1    1    2  501    0 -0.36739981037E+01 -0.13559600657E-01  0.45283881789E+01  0.74896425433E+01  0.47000000000E+01 0.  1.
         -5    1    1    2    0  503  0.36739981037E+01  0.13559600657E-01 -0.94552704691E+01  0.11179918854E+02  0.47000000000E+01 0.  1.
<mgrwt>
<rscale>  2 0.59656052E+01</rscale>
<asrwt>0</asrwt>
<pdfrwt beam="1">  1       21 0.10571292E-02 0.59656052E+01</pdfrwt>
<pdfrwt beam="2">  1       21 0.18151110E-02 0.59656052E+01</pdfrwt>
<totfact> 0.12444590E+09</totfact>
</mgrwt>
</event>
<event>
 4    1  0.3999109E+006  0.6373241E+01  0.7546771E-02  0.2369238E+00
         21   -1    0    0  501  502  0.00000000000E+00  0.00000000000E+00  0.58153095997E+03  0.58153095997E+03  0.00000000000E+00 0.  1.
         21   -1    0    0  502  503 -0.00000000000E+00 -0.00000000000E+00 -0.93795888883E-01  0.93795888883E-01  0.00000000000E+00 0. -1.
          5    1    1    2  501    0  0.99300241397E-01  0.43032937487E+01  0.43766655430E+03  0.43771295497E+03  0.47000000000E+01 0. -1.
         -5    1    1    2    0  503 -0.99300241397E-01 -0.43032937487E+01  0.14377060978E+03  0.14391180089E+03  0.47000000000E+01 0. -1.
<mgrwt>
<rscale>  2 0.63732407E+01</rscale>
<asrwt>0</asrwt>
<pdfrwt beam="1">  1       21 0.89463415E-01 0.63732407E+01</pdfrwt>
<pdfrwt beam="2">  1       21 0.14430602E-04 0.63732407E+01</pdfrwt>
<totfact> 0.84600750E+08</totfact>
</mgrwt>
</event>
<event>
 4    1  0.3999109E+006  0.8665098E+01  0.7546771E-02  0.2160004E+00
         21   -1    0    0  503  502  0.00000000000E+00  0.00000000000E+00  0.12211029464E+03  0.12211029464E+03  0.00000000000E+00 0.  1.
         21   -1    0    0  501  503 -0.00000000000E+00 -0.00000000000E+00 -0.65378935778E+00  0.65378935778E+00  0.00000000000E+00 0. -1.
          5    1    1    2  501    0  0.57256363535E+01  0.44956664403E+01  0.45755034897E+02  0.46568306248E+02  0.47000000000E+01 0. -1.
         -5    1    1    2    0  502 -0.57256363535E+01 -0.44956664403E+01  0.75701470389E+02  0.76195777753E+02  0.47000000000E+01 0.  1.
<mgrwt>
<rscale>  2 0.86650983E+01</rscale>
<asrwt>0</asrwt>
<pdfrwt beam="1">  1       21 0.18786181E-01 0.86650983E+01</pdfrwt>
<pdfrwt beam="2">  1       21 0.10058308E-03 0.86650983E+01</pdfrwt>
<totfact> 0.12298036E+09</totfact>
</mgrwt>
</event>
<event>
 4    1  0.3999109E+006  0.4828769E+01  0.7546771E-02  0.2598457E+00
         21   -1    0    0  503  502  0.00000000000E+00  0.00000000000E+00  0.25923435114E+00  0.25923435114E+00  0.00000000000E+00 0.  1.
         21   -1    0    0  501  503 -0.00000000000E+00 -0.00000000000E+00 -0.21641536088E+03  0.21641536088E+03  0.00000000000E+00 0.  1.
          5    1    1    2  501    0  0.11050002907E+01 -0.77363283870E-01 -0.19089652567E+03  0.19095758829E+03  0.47000000000E+01 0.  1.
         -5    1    1    2    0  502 -0.11050002907E+01  0.77363283870E-01 -0.25259600856E+02  0.25717006943E+02  0.47000000000E+01 0.  1.
<mgrwt>
<rscale>  2 0.48287691E+01</rscale>
<asrwt>0</asrwt>
<pdfrwt beam="1">  1       21 0.39882089E-04 0.48287691E+01</pdfrwt>
<pdfrwt beam="2">  1       21 0.33294770E-01 0.48287691E+01</pdfrwt>
<totfact> 0.10686832E+09</totfact>
</mgrwt>
</event>
<event>
 4    1  0.3999109E+006  0.8069108E+01  0.7546771E-02  0.2205045E+00
         21   -1    0    0  501  502  0.00000000000E+00  0.00000000000E+00  0.64292377592E+02  0.64292377592E+02  0.00000000000E+00 0.  1.
         21   -1    0    0  502  503 -0.00000000000E+00 -0.00000000000E+00 -0.25436906847E+01  0.25436906847E+01  0.00000000000E+00 0.  1.
          5    1    1    2  501    0 -0.43444380242E+01 -0.49138951217E+01  0.56800101112E+02  0.57370393003E+02  0.47000000000E+01 0.  1.
         -5    1    1    2    0  503  0.43444380242E+01  0.49138951217E+01  0.49485857957E+01  0.94656752739E+01  0.47000000000E+01 0.  1.
<mgrwt>
<rscale>  2 0.80691082E+01</rscale>
<asrwt>0</asrwt>
<pdfrwt beam="1">  1       21 0.98911338E-02 0.80691082E+01</pdfrwt>
<pdfrwt beam="2">  1       21 0.39133708E-03 0.80691082E+01</pdfrwt>
<totfact> 0.50128769E+08</totfact>
</mgrwt>
</event>
<event>
 4    1  0.3999109E+006  0.8807664E+01  0.7546771E-02  0.2149957E+00
         21   -1    0    0  501  502  0.00000000000E+00  0.00000000000E+00  0.13454486893E+01  0.13454486893E+01  0.00000000000E+00 0.  1.
         21   -1    0    0  502  503 -0.00000000000E+00 -0.00000000000E+00 -0.11505609234E+03  0.11505609234E+03  0.00000000000E+00 0. -1.
          5    1    1    2  501    0  0.73530173192E+01  0.11908312260E+01 -0.15747421901E+02  0.18043177083E+02  0.47000000000E+01 0.  1.
         -5    1    1    2    0  503 -0.73530173192E+01 -0.11908312260E+01 -0.97963221745E+02  0.98358363942E+02  0.47000000000E+01 0. -1.
<mgrwt>
<rscale>  2 0.88076639E+01</rscale>
<asrwt>0</asrwt>
<pdfrwt beam="1">  1       21 0.20699205E-03 0.88076639E+01</pdfrwt>
<pdfrwt beam="2">  1       21 0.17700942E-01 0.88076639E+01</pdfrwt>
<totfact> 0.50587472E+08</totfact>
</mgrwt>
</event>
<event>
 4    1  0.3999109E+006  0.6759276E+01  0.7546771E-02  0.2325969E+00
         21   -1    0    0  503  502  0.00000000000E+00  0.00000000000E+00  0.21053557858E+01  0.21053557858E+01  0.00000000000E+00 0.  1.
         21   -1    0    0  501  503 -0.00000000000E+00 -0.00000000000E+00 -0.37734268189E+02  0.37734268189E+02  0.00000000000E+00 0.  1.
          5    1    1    2  501    0 -0.15045486321E+01 -0.46188904695E+01 -0.30799146015E+02  0.31532129821E+02  0.47000000000E+01 0.  1.
         -5    1    1    2    0  502  0.15045486321E+01  0.46188904695E+01 -0.48297663873E+01  0.83074941535E+01  0.47000000000E+01 0.  1.
<mgrwt>
<rscale>  2 0.67592763E+01</rscale>
<asrwt>0</asrwt>
<pdfrwt beam="1">  1       21 0.32390088E-03 0.67592763E+01</pdfrwt>
<pdfrwt beam="2">  1       21 0.58052722E-02 0.67592763E+01</pdfrwt>
<totfact> 0.13095365E+09</totfact>
</mgrwt>
</event>
<event>
 4    1  0.3999109E+006  0.5947626E+01  0.7546771E-02  0.2422290E+00
         21   -1    0    0  501  502  0.00000000000E+00  0.00000000000E+00  0.47348222174E+02  0.47348222174E+02  0.00000000000E+00 0.  1.
         21   -1    0    0  502  503 -0.00000000000E+00 -0.00000000000E+00 -0.79145317235E+00  0.79145317235E+00  0.00000000000E+00 0. -1.
          5    1    1    2  501    0 -0.22898276966E+01  0.28356562811E+01  0.28975846836E+02  0.29579958710E+02  0.47000000000E+01 0.  1.
         -5    1    1    2    0  503  0.22898276966E+01 -0.28356562811E+01  0.17580922165E+02  0.18559716636E+02  0.47000000000E+01 0. -1.
<mgrwt>
<rscale>  2 0.59476262E+01</rscale>
<asrwt>0</asrwt>
<pdfrwt beam="1">  1       21 0.72843397E-02 0.59476262E+01</pdfrwt>
<pdfrwt beam="2">  1       21 0.12176206E-03 0.59476262E+01</pdfrwt>
<totfact> 0.31883427E+09</totfact>
</mgrwt>
</event>
<event>
 4    1  0.3999109E+006  0.5867186E+01  0.7546771E-02  0.2433037E+00
         21   -1    0    0  501  502  0.00000000000E+00  0.00000000000E+00  0.65986386616E+01  0.65986386616E+01  0.00000000000E+00 0. -1.
         21   -1    0    0  502  503 -0.00000000000E+00 -0.00000000000E+00 -0.51615863988E+02  0.51615863988E+02  0.00000000000E+00 0. -1.
          5    1    1    2  501    0  0.10277414841E+01 -0.33582167877E+01  0.50885312281E+01  0.77664034540E+01  0.47000000000E+01 0. -1.
         -5    1    1    2    0  503 -0.10277414841E+01  0.33582167877E+01 -0.50105756554E+02  0.50448099195E+02  0.47000000000E+01 0. -1.
<mgrwt>
<rscale>  2 0.58671861E+01</rscale>
<asrwt>0</asrwt>
<pdfrwt beam="1">  1       21 0.10151752E-02 0.58671861E+01</pdfrwt>
<pdfrwt beam="2">  1       21 0.79409023E-02 0.58671861E+01</pdfrwt>
<totfact> 0.14921196E+08</totfact>
</mgrwt>
</event>
<event>
 4    1  0.3999109E+006  0.9767529E+01  0.7546771E-02  0.2088464E+00
         21   -1    0    0  501  502  0.00000000000E+00  0.00000000000E+00  0.60988968237E+01  0.60988968237E+01  0.00000000000E+00 0. -1.
         21   -1    0    0  502  503 -0.00000000000E+00 -0.00000000000E+00 -0.16449282125E+02  0.16449282125E+02  0.00000000000E+00 0. -1.
          5    1    1    2  501    0  0.41368645831E+01 -0.74967304534E+01 -0.26790444259E+01  0.10128272069E+02  0.47000000000E+01 0. -1.
         -5    1    1    2    0  503 -0.41368645831E+01  0.74967304534E+01 -0.76713408753E+01  0.12419906879E+02  0.47000000000E+01 0. -1.
<mgrwt>
<rscale>  2 0.97675287E+01</rscale>
<asrwt>0</asrwt>
<pdfrwt beam="1">  1       21 0.93829186E-03 0.97675287E+01</pdfrwt>
<pdfrwt beam="2">  1       21 0.25306587E-02 0.97675287E+01</pdfrwt>
<totfact> 0.12915289E+09</totfact>
</mgrwt>
</event>
<event>
 4    1  0.3999109E+006  0.8027936E+01  0.7546771E-02  0.2208354E+00
         21   -1    0    0  503  502  0.00000000000E+00  0.00000000000E+00  0.34535969124E+03  0.34535969124E+03  0.00000000000E+00 0. -1.
         21   -1    0    0  501  503 -0.00000000000E+00 -0.00000000000E+00 -0.26106319491E+00  0.26106319491E+00  0.00000000000E+00 0. -1.
          5    1    1    2  501    0  0.50934263391E+01  0.40515131738E+01  0.80263031396E+02  0.80663510708E+02  0.47000000000E+01 0. -1.
         -5    1    1    2    0  502 -0.50934263391E+01 -0.40515131738E+01  0.26483559665E+03  0.26495724373E+03  0.47000000000E+01 0. -1.
<mgrwt>
<rscale>  2 0.80279357E+01</rscale>
<asrwt>0</asrwt>
<pdfrwt beam="1">  1       21 0.53131895E-01 0.80279357E+01</pdfrwt>
<pdfrwt beam="2">  1       21 0.40163845E-04 0.80279357E+01</pdfrwt>
<totfact> 0.67127140E+08</totfact>
</mgrwt>
</event>
<event>
 4    1  0.3999109E+006  0.7043442E+01  0.7546771E-02  0.2296636E+00
         21   -1    0    0  501  502  0.00000000000E+00  0.00000000000E+00  0.24633737438E+01  0.24633737438E+01  0.00000000000E+00 0.  1.
         21   -1    0    0  502  503 -0.00000000000E+00 -0.00000000000E+00 -0.90539184935E+02  0.90539184935E+02  0.00000000000E+00 0.  1.
          5    1    1    2  501    0 -0.20117232751E+01  0.48448984141E+01 -0.30332398086E+01  0.76688079201E+01  0.47000000000E+01 0.  1.
         -5    1    1    2    0  503  0.20117232751E+01 -0.48448984141E+01 -0.85042571383E+02  0.85333750759E+02  0.47000000000E+01 0.  1.
<mgrwt>
<rscale>  2 0.70434417E+01</rscale>
<asrwt>0</asrwt>
<pdfrwt beam="1">  1       21 0.37898062E-03 0.70434417E+01</pdfrwt>
<pdfrwt beam="2">  1       21 0.13929104E-01 0.70434417E+01</pdfrwt>
<totfact> 0.28073424E+08</totfact>
</mgrwt>
</event>
<event>
 4    1  0.3999109E+006  0.8657355E+01  0.7546771E-02  0.2160557E+00
         21   -1    0    0  503  502  0.00000000000E+00  0.00000000000E+00  0.21425963212E+00  0.21425963212E+00  0.00000000000E+00 0. -1.
         21   -1    0    0  501  503 -0.00000000000E+00 -0.00000000000E+00 -0.39930784930E+03  0.39930784930E+03  0.00000000000E+00 0. -1.
          5    1    1    2  501    0  0.68446698936E+01  0.24515878190E+01 -0.26987956164E+03  0.27001838378E+03  0.47000000000E+01 0. -1.
         -5    1    1    2    0  502 -0.68446698936E+01 -0.24515878190E+01 -0.12921402803E+03  0.12950372515E+03  0.47000000000E+01 0. -1.
<mgrwt>
<rscale>  2 0.86573546E+01</rscale>
<asrwt>0</asrwt>
<pdfrwt beam="1">  1       21 0.32962793E-04 0.86573546E+01</pdfrwt>
<pdfrwt beam="2">  1       21 0.61432401E-01 0.86573546E+01</pdfrwt>
<totfact> 0.69683072E+08</totfact>
</mgrwt>
</event>
<event>
 4    1  0.3999109E+006  0.6336888E+01  0.7546771E-02  0.2373536E+00
         21   -1    0    0  501  502  0.00000000000E+00  0.00000000000E+00  0.77034381020E+03  0.77034381020E+03  0.00000000000E+00 0.  1.
         21   -1    0    0  502  503 -0.00000000000E+00 -0.00000000000E+00 -0.55738672612E-01  0.55738672612E-01  0.00000000000E+00 0.  1.
          5    1    1    2  501    0  0.78838421341E+00 -0.41766726295E+01  0.28709842150E+03  0.28716834744E+03  0.47000000000E+01 0.  1.
         -5    1    1    2    0  503 -0.78838421341E+00  0.41766726295E+01  0.48318965003E+03  0.48323120144E+03  0.47000000000E+01 0.  1.
<mgrwt>
<rscale>  2 0.63368876E+01</rscale>
<asrwt>0</asrwt>
<pdfrwt beam="1">  1       21 0.11850591E+00 0.63368876E+01</pdfrwt>
<pdfrwt beam="2">  1       21 0.85757974E-05 0.63368876E+01</pdfrwt>
<totfact> 0.95104159E+08</totfact>
</mgrwt>
</event>
<event>
 4    1  0.3999109E+006  0.5003948E+01  0.7546771E-02  0.2566454E+00
         21   -1    0    0  501  502  0.00000000000E+00  0.00000000000E+00  0.70091018428E-01  0.70091018428E-01  0.00000000000E+00 0. -1.
         21   -1    0    0  502  503 -0.00000000000E+00 -0.00000000000E+00 -0.35731271342E+03  0.35731271342E+03  0.00000000000E+00 0.  1.
          5    1    1    2  501    0 -0.10739317808E+01 -0.13402098353E+01 -0.18112589509E+03  0.18119500369E+03  0.47000000000E+01 0.  1.
         -5    1    1    2    0  503  0.10739317808E+01  0.13402098353E+01 -0.17611672731E+03  0.17618780075E+03  0.47000000000E+01 0.  1.
<mgrwt>
<rscale>  2 0.50039476E+01</rscale>
<asrwt>0</asrwt>
<pdfrwt beam="1">  1       21 0.10782807E-04 0.50039476E+01</pdfrwt>
<pdfrwt beam="2">  1       21 0.54973363E-01 0.50039476E+01</pdfrwt>
<totfact> 0.26082577E+09</totfact>
</mgrwt>
</event>
<event>
 4    1  0.3999109E+006  0.4820465E+01  0.7546771E-02  0.2600024E+00
         21   -1    0    0  501  502  0.00000000000E+00  0.00000000000E+00  0.54225796582E+01  0.54225796582E+01  0.00000000000E+00 0.  1.
         21   -1    0    0  502  503 -0.00000000000E+00 -0.00000000000E+00 -0.84685732041E+01  0.84685732041E+01  0.00000000000E+00 0.  1.
          5    1    1    2  501    0  0.17981061347E+00  0.10557223207E+01  0.33586467701E+01  0.58751501769E+01  0.47000000000E+01 0.  1.
         -5    1    1    2    0  503 -0.17981061347E+00 -0.10557223207E+01 -0.64046403159E+01  0.80160026854E+01  0.47000000000E+01 0.  1.
<mgrwt>
<rscale>  2 0.48204649E+01</rscale>
<asrwt>0</asrwt>
<pdfrwt beam="1">  1       21 0.83424303E-03 0.48204649E+01</pdfrwt>
<pdfrwt beam="2">  1       21 0.13028574E-02 0.48204649E+01</pdfrwt>
<totfact> 0.22709342E+09</totfact>
</mgrwt>
</event>
<event>
 4    1  0.3999109E+006  0.5669693E+01  0.7546771E-02  0.2460504E+00
         21   -1    0    0  503  502  0.00000000000E+00  0.00000000000E+00  0.74314540150E+01  0.74314540150E+01  0.00000000000E+00 0. -1.
         21   -1    0    0  501  503 -0.00000000000E+00 -0.00000000000E+00 -0.11638389968E+02  0.11638389968E+02  0.00000000000E+00 0. -1.
          5    1    1    2  501    0 -0.29902313727E+01  0.10554286282E+01 -0.96615670144E+01  0.11202289517E+02  0.47000000000E+01 0. -1.
         -5    1    1    2    0  502  0.29902313727E+01 -0.10554286282E+01  0.54546310616E+01  0.78675544656E+01  0.47000000000E+01 0. -1.
<mgrwt>
<rscale>  2 0.56696925E+01</rscale>
<asrwt>0</asrwt>
<pdfrwt beam="1">  1       21 0.11433006E-02 0.56696925E+01</pdfrwt>
<pdfrwt beam="2">  1       21 0.17905215E-02 0.56696925E+01</pdfrwt>
<totfact> 0.10883976E+09</totfact>
</mgrwt>
</event>
<event>
 4    1  0.3999109E+006  0.5077751E+01  0.7546771E-02  0.2553543E+00
         21   -1    0    0  503  502  0.00000000000E+00  0.00000000000E+00  0.40702757354E+03  0.40702757354E+03  0.00000000000E+00 0.  1.
         21   -1    0    0  501  503 -0.00000000000E+00 -0.00000000000E+00 -0.78711228384E-01  0.78711228384E-01  0.00000000000E+00 0.  1.
          5    1    1    2  501    0 -0.22810704212E+00 -0.19082775095E+01  0.11353929004E+03  0.11365277796E+03  0.47000000000E+01 0.  1.
         -5    1    1    2    0  502  0.22810704212E+00  0.19082775095E+01  0.29340957228E+03  0.29345350681E+03  0.47000000000E+01 0.  1.
<mgrwt>
<rscale>  2 0.50777511E+01</rscale>
<asrwt>0</asrwt>
<pdfrwt beam="1">  1       21 0.62617941E-01 0.50777511E+01</pdfrwt>
<pdfrwt beam="2">  1       21 0.12109746E-04 0.50777511E+01</pdfrwt>
<totfact> 0.17865340E+09</totfact>
</mgrwt>
</event>
<event>
 4    1  0.3999109E+006  0.6331090E+01  0.7546771E-02  0.2374226E+00
         21   -1    0    0  501  502  0.00000000000E+00  0.00000000000E+00  0.11590616180E+02  0.11590616180E+02  0.00000000000E+00 0.  1.
         21   -1    0    0  502  503 -0.00000000000E+00 -0.00000000000E+00 -0.28567314696E+02  0.28567314696E+02  0.00000000000E+00 0.  1.
          5    1    1    2  501    0 -0.33721675498E+01  0.25731671800E+01  0.10336100790E+02  0.12120960476E+02  0.47000000000E+01 0.  1.
         -5    1    1    2    0  503  0.33721675498E+01 -0.25731671800E+01 -0.27312799306E+02  0.28036970400E+02  0.47000000000E+01 0.  1.
<mgrwt>
<rscale>  2 0.63310902E+01</rscale>
<asrwt>0</asrwt>
<pdfrwt beam="1">  1       21 0.17831717E-02 0.63310902E+01</pdfrwt>
<pdfrwt beam="2">  1       21 0.43949714E-02 0.63310902E+01</pdfrwt>
<totfact> 0.17087251E+08</totfact>
</mgrwt>
</event>
<event>
 4    1  0.3999109E+006  0.6567655E+01  0.7546771E-02  0.2346921E+00
         21   -1    0    0  501  502  0.00000000000E+00  0.00000000000E+00  0.20617957279E+02  0.20617957279E+02  0.00000000000E+00 0. -1.
         21   -1    0    0  502  503 -0.00000000000E+00 -0.00000000000E+00 -0.32041159112E+01  0.32041159112E+01  0.00000000000E+00 0.  1.
          5    1    1    2  501    0  0.15760346858E+01 -0.43081557392E+01  0.15724024994E+02  0.17040512118E+02  0.47000000000E+01 0. -1.
         -5    1    1    2    0  503 -0.15760346858E+01  0.43081557392E+01  0.16898163733E+01  0.67815610725E+01  0.47000000000E+01 0.  1.
<mgrwt>
<rscale>  2 0.65676549E+01</rscale>
<asrwt>0</asrwt>
<pdfrwt beam="1">  1       21 0.31719933E-02 0.65676549E+01</pdfrwt>
<pdfrwt beam="2">  1       21 0.49294092E-03 0.65676549E+01</pdfrwt>
<totfact> 0.17521289E+09</totfact>
</mgrwt>
</event>
<event>
 4    1  0.3999109E+006  0.6501902E+01  0.7546771E-02  0.2354345E+00
         21   -1    0    0  501  502  0.00000000000E+00  0.00000000000E+00  0.73070269496E+03  0.73070269496E+03  0.00000000000E+00 0. -1.
         21   -1    0    0  502  503 -0.00000000000E+00 -0.00000000000E+00 -0.58840218230E-01  0.58840218230E-01  0.00000000000E+00 0.  1.
          5    1    1    2  501    0 -0.43962780930E+01  0.92599440887E+00  0.31803967008E+03  0.31810612454E+03  0.47000000000E+01 0.  1.
         -5    1    1    2    0  503  0.43962780930E+01 -0.92599440887E+00  0.41260418466E+03  0.41265541063E+03  0.47000000000E+01 0. -1.
<mgrwt>
<rscale>  2 0.65019018E+01</rscale>
<asrwt>0</asrwt>
<pdfrwt beam="1">  1       21 0.11240853E+00 0.65019018E+01</pdfrwt>
<pdfrwt beam="2">  1       21 0.90529264E-05 0.65019018E+01</pdfrwt>
<totfact> 0.10034192E+09</totfact>
</mgrwt>
</event>
<event>
 4    1  0.3999109E+006  0.7261393E+01  0.7546771E-02  0.2275421E+00
         21   -1    0    0  503  502  0.00000000000E+00  0.00000000000E+00  0.14589760362E+00  0.14589760362E+00  0.00000000000E+00 0.  1.
         21   -1    0    0  501  503 -0.00000000000E+00 -0.00000000000E+00 -0.42985894990E+03  0.42985894990E+03  0.00000000000E+00 0. -1.
          5    1    1    2  501    0  0.54999677265E+01  0.62304008863E+00 -0.30065629879E+03  0.30074397388E+03  0.47000000000E+01 0. -1.
         -5    1    1    2    0  502 -0.54999677265E+01 -0.62304008863E+00 -0.12905675351E+03  0.12926087362E+03  0.47000000000E+01 0.  1.
<mgrwt>
<rscale>  2 0.72613927E+01</rscale>
<asrwt>0</asrwt>
<pdfrwt beam="1">  1       21 0.22445497E-04 0.72613927E+01</pdfrwt>
<pdfrwt beam="2">  1       21 0.66132996E-01 0.72613927E+01</pdfrwt>
<totfact> 0.91745583E+08</totfact>
</mgrwt>
</event>
<event>
 4    1  0.3999109E+006  0.1318908E+02  0.7546771E-02  0.1928948E+00
         21   -1    0    0  503  502  0.00000000000E+00  0.00000000000E+00  0.49887138315E+01  0.49887138315E+01  0.00000000000E+00 0.  1.
         21   -1    0    0  501  503 -0.00000000000E+00 -0.00000000000E+00 -0.45561805524E+02  0.45561805524E+02  0.00000000000E+00 0. -1.
          5    1    1    2  501    0  0.56852812626E+01 -0.10933404857E+02 -0.32531009519E+02  0.35102967754E+02  0.47000000000E+01 0.  1.
         -5    1    1    2    0  502 -0.56852812626E+01  0.10933404857E+02 -0.80420821739E+01  0.15447551602E+02  0.47000000000E+01 0. -1.
<mgrwt>
<rscale>  2 0.13189077E+02</rscale>
<asrwt>0</asrwt>
<pdfrwt beam="1">  1       21 0.76749445E-03 0.13189077E+02</pdfrwt>
<pdfrwt beam="2">  1       21 0.70095084E-02 0.13189077E+02</pdfrwt>
<totfact> 0.42576576E+08</totfact>
</mgrwt>
</event>
<event>
 4    1  0.3999109E+006  0.4870123E+01  0.7546771E-02  0.2590723E+00
         21   -1    0    0  501  502  0.00000000000E+00  0.00000000000E+00  0.24285588954E+01  0.24285588954E+01  0.00000000000E+00 0. -1.
         21   -1    0    0  502  503 -0.00000000000E+00 -0.00000000000E+00 -0.26225575092E+02  0.26225575092E+02  0.00000000000E+00 0. -1.
          5    1    1    2  501    0  0.12089374870E+01 -0.40812939004E+00 -0.54840564275E+00  0.49009027939E+01  0.47000000000E+01 0. -1.
         -5    1    1    2    0  503 -0.12089374870E+01  0.40812939004E+00 -0.23248610553E+02  0.23753231193E+02  0.47000000000E+01 0. -1.
<mgrwt>
<rscale>  2 0.48701231E+01</rscale>
<asrwt>0</asrwt>
<pdfrwt beam="1">  1       21 0.37362441E-03 0.48701231E+01</pdfrwt>
<pdfrwt beam="2">  1       21 0.40347042E-02 0.48701231E+01</pdfrwt>
<totfact> 0.13878771E+09</totfact>
</mgrwt>
</event>
<event>
 4    1  0.3999109E+006  0.4817463E+01  0.7546771E-02  0.2600591E+00
         21   -1    0    0  503  502  0.00000000000E+00  0.00000000000E+00  0.24169722122E+02  0.24169722122E+02  0.00000000000E+00 0. -1.
         21   -1    0    0  501  503 -0.00000000000E+00 -0.00000000000E+00 -0.10847746968E+01  0.10847746968E+01  0.00000000000E+00 0. -1.
          5    1    1    2  501    0 -0.10631240012E-01 -0.10572776232E+01  0.72634887752E+01  0.87158601517E+01  0.47000000000E+01 0. -1.
         -5    1    1    2    0  502  0.10631240012E-01  0.10572776232E+01  0.15821458650E+02  0.16538636667E+02  0.47000000000E+01 0. -1.
<mgrwt>
<rscale>  2 0.48174629E+01</rscale>
<asrwt>0</asrwt>
<pdfrwt beam="1">  1       21 0.37184184E-02 0.48174629E+01</pdfrwt>
<pdfrwt beam="2">  1       21 0.16688843E-03 0.48174629E+01</pdfrwt>
<totfact> 0.45813110E+09</totfact>
</mgrwt>
</event>
<event>
 4    1  0.3999109E+006  0.5455989E+01  0.7546771E-02  0.2492108E+00
         21   -1    0    0  501  502  0.00000000000E+00  0.00000000000E+00  0.56447586097E+02  0.56447586097E+02  0.00000000000E+00 0.  1.
         21   -1    0    0  502  503 -0.00000000000E+00 -0.00000000000E+00 -0.25098455527E+02  0.25098455527E+02  0.00000000000E+00 0. -1.
          5    1    1    2  501    0  0.14137787510E+01  0.23830756996E+01  0.56016963294E+02  0.56282039736E+02  0.47000000000E+01 0.  1.
         -5    1    1    2    0  503 -0.14137787510E+01 -0.23830756996E+01 -0.24667832724E+02  0.25264001889E+02  0.47000000000E+01 0. -1.
<mgrwt>
<rscale>  2 0.54559894E+01</rscale>
<asrwt>0</asrwt>
<pdfrwt beam="1">  1       21 0.86842440E-02 0.54559894E+01</pdfrwt>
<pdfrwt beam="2">  1       21 0.38613009E-02 0.54559894E+01</pdfrwt>
<totfact> 0.18398150E+07</totfact>
</mgrwt>
</event>
<event>
 4    1  0.3999109E+006  0.9331249E+01  0.7546771E-02  0.2115172E+00
         21   -1    0    0  501  502  0.00000000000E+00  0.00000000000E+00  0.77236868431E+01  0.77236868431E+01  0.00000000000E+00 0. -1.
         21   -1    0    0  502  503 -0.00000000000E+00 -0.00000000000E+00 -0.14516288244E+02  0.14516288244E+02  0.00000000000E+00 0.  1.
          5    1    1    2  501    0  0.32696476871E+01  0.73682836643E+01  0.18595448754E+01  0.95147310681E+01  0.47000000000E+01 0.  1.
         -5    1    1    2    0  503 -0.32696476871E+01 -0.73682836643E+01 -0.86521462763E+01  0.12725244019E+02  0.47000000000E+01 0.  1.
<mgrwt>
<rscale>  2 0.93312486E+01</rscale>
<asrwt>0</asrwt>
<pdfrwt beam="1">  1       21 0.11882595E-02 0.93312486E+01</pdfrwt>
<pdfrwt beam="2">  1       21 0.22332751E-02 0.93312486E+01</pdfrwt>
<totfact> 0.10736122E+09</totfact>
</mgrwt>
</event>
<event>
 4    1  0.3999109E+006  0.1210295E+02  0.7546771E-02  0.1971958E+00
         21   -1    0    0  503  502  0.00000000000E+00  0.00000000000E+00  0.68060047368E+01  0.68060047368E+01  0.00000000000E+00 0. -1.
         21   -1    0    0  501  503 -0.00000000000E+00 -0.00000000000E+00 -0.22266493498E+02  0.22266493498E+02  0.00000000000E+00 0.  1.
          5    1    1    2  501    0 -0.62390491972E+01 -0.92447585977E+01 -0.10387610184E+02  0.15949411956E+02  0.47000000000E+01 0.  1.
         -5    1    1    2    0  502  0.62390491972E+01  0.92447585977E+01 -0.50728785773E+01  0.13123086279E+02  0.47000000000E+01 0. -1.
<mgrwt>
<rscale>  2 0.12102946E+02</rscale>
<asrwt>0</asrwt>
<pdfrwt beam="1">  1       21 0.10470776E-02 0.12102946E+02</pdfrwt>
<pdfrwt beam="2">  1       21 0.34256144E-02 0.12102946E+02</pdfrwt>
<totfact> 0.78627896E+08</totfact>
</mgrwt>
</event>
<event>
 4    1  0.3999109E+006  0.6544995E+01  0.7546771E-02  0.2349465E+00
         21   -1    0    0  503  502  0.00000000000E+00  0.00000000000E+00  0.41359753539E+00  0.41359753539E+00  0.00000000000E+00 0.  1.
         21   -1    0    0  501  503 -0.00000000000E+00 -0.00000000000E+00 -0.18198142979E+03  0.18198142979E+03  0.00000000000E+00 0.  1.
          5    1    1    2  501    0  0.43237972690E+01  0.14323881446E+01 -0.15064639772E+03  0.15078850787E+03  0.47000000000E+01 0.  1.
         -5    1    1    2    0  502 -0.43237972690E+01 -0.14323881446E+01 -0.30921434534E+02  0.31606519458E+02  0.47000000000E+01 0.  1.
<mgrwt>
<rscale>  2 0.65449949E+01</rscale>
<asrwt>0</asrwt>
<pdfrwt beam="1">  1       21 0.63630554E-04 0.65449949E+01</pdfrwt>
<pdfrwt beam="2">  1       21 0.27997071E-01 0.65449949E+01</pdfrwt>
<totfact> 0.97868567E+08</totfact>
</mgrwt>
</event>
<event>
 4    1  0.3999109E+006  0.5285563E+01  0.7546771E-02  0.2518859E+00
         21   -1    0    0  503  502  0.00000000000E+00  0.00000000000E+00  0.47703189186E+02  0.47703189186E+02  0.00000000000E+00 0. -1.
         21   -1    0    0  501  503 -0.00000000000E+00 -0.00000000000E+00 -0.28850532576E+01  0.28850532576E+01  0.00000000000E+00 0. -1.
          5    1    1    2  501    0  0.17688083493E+00 -0.24116149513E+01 -0.17232060186E+00  0.52883710056E+01  0.47000000000E+01 0. -1.
         -5    1    1    2    0  502 -0.17688083493E+00  0.24116149513E+01  0.44990456530E+02  0.45299871438E+02  0.47000000000E+01 0. -1.
<mgrwt>
<rscale>  2 0.52855627E+01</rscale>
<asrwt>0</asrwt>
<pdfrwt beam="1">  1       21 0.73389516E-02 0.52855627E+01</pdfrwt>
<pdfrwt beam="2">  1       21 0.44385438E-03 0.52855627E+01</pdfrwt>
<totfact> 0.49076712E+08</totfact>
</mgrwt>
</event>
<event>
 4    1  0.3999109E+006  0.9169010E+01  0.7546771E-02  0.2125613E+00
         21   -1    0    0  501  502  0.00000000000E+00  0.00000000000E+00  0.41018438389E+01  0.41018438389E+01  0.00000000000E+00 0. -1.
         21   -1    0    0  502  503 -0.00000000000E+00 -0.00000000000E+00 -0.27363525621E+02  0.27363525621E+02  0.00000000000E+00 0.  1.
          5    1    1    2  501    0 -0.32508999021E+00  0.78660703784E+01 -0.37491041167E+01  0.99058835233E+01  0.47000000000E+01 0. -1.
         -5    1    1    2    0  503  0.32508999021E+00 -0.78660703784E+01 -0.19512577666E+02  0.21559485937E+02  0.47000000000E+01 0.  1.
<mgrwt>
<rscale>  2 0.91690101E+01</rscale>
<asrwt>0</asrwt>
<pdfrwt beam="1">  1       21 0.63105292E-03 0.91690101E+01</pdfrwt>
<pdfrwt beam="2">  1       21 0.42097730E-02 0.91690101E+01</pdfrwt>
<totfact> 0.10242234E+09</totfact>
</mgrwt>
</event>
<event>
 4    1  0.3999109E+006  0.6425469E+01  0.7546771E-02  0.2363132E+00
         21   -1    0    0  503  502  0.00000000000E+00  0.00000000000E+00  0.58732585109E+03  0.58732585109E+03  0.00000000000E+00 0. -1.
         21   -1    0    0  501  503 -0.00000000000E+00 -0.00000000000E+00 -0.16814272958E+00  0.16814272958E+00  0.00000000000E+00 0.  1.
          5    1    1    2  501    0 -0.99595946007E-01  0.43802662992E+01  0.69496546746E+02  0.69792955675E+02  0.47000000000E+01 0.  1.
         -5    1    1    2    0  502  0.99595946007E-01 -0.43802662992E+01  0.51766116162E+03  0.51770103815E+03  0.47000000000E+01 0. -1.
<mgrwt>
<rscale>  2 0.64254690E+01</rscale>
<asrwt>0</asrwt>
<pdfrwt beam="1">  1       21 0.90356181E-01 0.64254690E+01</pdfrwt>
<pdfrwt beam="2">  1       21 0.25868582E-04 0.64254690E+01</pdfrwt>
<totfact> 0.38224753E+08</totfact>
</mgrwt>
</event>
<event>
 4    1  0.3999109E+006  0.5087696E+01  0.7546771E-02  0.2551828E+00
         21   -1    0    0  503  502  0.00000000000E+00  0.00000000000E+00  0.92467950642E+01  0.92467950642E+01  0.00000000000E+00 0. -1.
         21   -1    0    0  501  503 -0.00000000000E+00 -0.00000000000E+00 -0.35862488861E+01  0.35862488861E+01  0.00000000000E+00 0. -1.
          5    1    1    2  501    0 -0.50548912524E-02  0.19479788739E+01 -0.17545669968E+00  0.50907202141E+01  0.47000000000E+01 0. -1.
         -5    1    1    2    0  502  0.50548912524E-02 -0.19479788739E+01  0.58360028778E+01  0.77423237361E+01  0.47000000000E+01 0. -1.
<mgrwt>
<rscale>  2 0.50876957E+01</rscale>
<asrwt>0</asrwt>
<pdfrwt beam="1">  1       21 0.14225838E-02 0.50876957E+01</pdfrwt>
<pdfrwt beam="2">  1       21 0.55173060E-03 0.50876957E+01</pdfrwt>
<totfact> 0.37581135E+09</totfact>
</mgrwt>
</event>
<event>
 4    1  0.3999109E+006  0.1924996E+02  0.7546771E-02  0.1760668E+00
         21   -1    0    0  503  502  0.00000000000E+00  0.00000000000E+00  0.56491346849E+02  0.56491346849E+02  0.00000000000E+00 0.  1.
         21   -1    0    0  501  503 -0.00000000000E+00 -0.00000000000E+00 -0.79785347886E+01  0.79785347886E+01  0.00000000000E+00 0.  1.
          5    1    1    2  501    0 -0.14165845249E+02 -0.12157298906E+02  0.10662467359E+02  0.22005665145E+02  0.47000000000E+01 0.  1.
         -5    1    1    2    0  502  0.14165845249E+02  0.12157298906E+02  0.37850344701E+02  0.42464216492E+02  0.47000000000E+01 0.  1.
<mgrwt>
<rscale>  2 0.19249963E+02</rscale>
<asrwt>0</asrwt>
<pdfrwt beam="1">  1       21 0.86909762E-02 0.19249963E+02</pdfrwt>
<pdfrwt beam="2">  1       21 0.12274669E-02 0.19249963E+02</pdfrwt>
<totfact> 0.17450899E+08</totfact>
</mgrwt>
</event>
<event>
 4    1  0.3999109E+006  0.4720665E+01  0.7546771E-02  0.2619229E+00
         21   -1    0    0  501  502  0.00000000000E+00  0.00000000000E+00  0.18971287457E+01  0.18971287457E+01  0.00000000000E+00 0.  1.
         21   -1    0    0  502  503 -0.00000000000E+00 -0.00000000000E+00 -0.18325685708E+02  0.18325685708E+02  0.00000000000E+00 0.  1.
          5    1    1    2  501    0 -0.23667669749E+00  0.37236924951E+00 -0.21557569714E+01  0.51896014141E+01  0.47000000000E+01 0.  1.
         -5    1    1    2    0  503  0.23667669749E+00 -0.37236924951E+00 -0.14272799991E+02  0.15033213040E+02  0.47000000000E+01 0.  1.
<mgrwt>
<rscale>  2 0.47206646E+01</rscale>
<asrwt>0</asrwt>
<pdfrwt beam="1">  1       21 0.29186596E-03 0.47206646E+01</pdfrwt>
<pdfrwt beam="2">  1       21 0.28193363E-02 0.47206646E+01</pdfrwt>
<totfact> 0.31447724E+09</totfact>
</mgrwt>
</event>
<event>
 4    1  0.3999109E+006  0.9595314E+01  0.7546771E-02  0.2098778E+00
         21   -1    0    0  503  502  0.00000000000E+00  0.00000000000E+00  0.32687848271E+01  0.32687848271E+01  0.00000000000E+00 0. -1.
         21   -1    0    0  501  503 -0.00000000000E+00 -0.00000000000E+00 -0.28253233527E+02  0.28253233527E+02  0.00000000000E+00 0.  1.
          5    1    1    2  501    0  0.83476540731E+01 -0.54473082835E+00 -0.11618706462E+02  0.15068656212E+02  0.47000000000E+01 0.  1.
         -5    1    1    2    0  502 -0.83476540731E+01  0.54473082835E+00 -0.13365742239E+02  0.16453362142E+02  0.47000000000E+01 0. -1.
<mgrwt>
<rscale>  2 0.95953145E+01</rscale>
<asrwt>0</asrwt>
<pdfrwt beam="1">  1       21 0.50289000E-03 0.95953145E+01</pdfrwt>
<pdfrwt beam="2">  1       21 0.43466511E-02 0.95953145E+01</pdfrwt>
<totfact> 0.13874795E+09</totfact>
</mgrwt>
</event>
<event>
 4    1  0.3999109E+006  0.5523347E+01  0.7546771E-02  0.2481923E+00
         21   -1    0    0  503  502  0.00000000000E+00  0.00000000000E+00  0.68956729115E+02  0.68956729115E+02  0.00000000000E+00 0.  1.
         21   -1    0    0  501  503 -0.00000000000E+00 -0.00000000000E+00 -0.11582712675E+01  0.11582712675E+01  0.00000000000E+00 0. -1.
          5    1    1    2  501    0  0.28103284436E+01 -0.72070423586E+00  0.63385891675E+01  0.84074415366E+01  0.47000000000E+01 0. -1.
         -5    1    1    2    0  502 -0.28103284436E+01  0.72070423586E+00  0.61459868680E+02  0.61707558846E+02  0.47000000000E+01 0.  1.
<mgrwt>
<rscale>  2 0.55233469E+01</rscale>
<asrwt>0</asrwt>
<pdfrwt beam="1">  1       21 0.10608724E-01 0.55233469E+01</pdfrwt>
<pdfrwt beam="2">  1       21 0.17819563E-03 0.55233469E+01</pdfrwt>
<totfact> 0.10119575E+09</totfact>
</mgrwt>
</event>
<event>
 4    1  0.3999109E+006  0.5714272E+01  0.7546771E-02  0.2454164E+00
         21   -1    0    0  503  502  0.00000000000E+00  0.00000000000E+00  0.51651435220E+02  0.51651435220E+02  0.00000000000E+00 0.  1.
         21   -1    0    0  501  503 -0.00000000000E+00 -0.00000000000E+00 -0.10648055295E+01  0.10648055295E+01  0.00000000000E+00 0. -1.
          5    1    1    2  501    0 -0.22889237648E+01 -0.23073203376E+01  0.84922664755E+01  0.10235794499E+02  0.47000000000E+01 0. -1.
         -5    1    1    2    0  502  0.22889237648E+01  0.23073203376E+01  0.42094363215E+02  0.42480446250E+02  0.47000000000E+01 0.  1.
<mgrwt>
<rscale>  2 0.57142715E+01</rscale>
<asrwt>0</asrwt>
<pdfrwt beam="1">  1       21 0.79463727E-02 0.57142715E+01</pdfrwt>
<pdfrwt beam="2">  1       21 0.16381628E-03 0.57142715E+01</pdfrwt>
<totfact> 0.18100960E+09</totfact>
</mgrwt>
</event>
<event>
 4    1  0.3999109E+006  0.7423844E+01  0.7546771E-02  0.2260273E+00
         21   -1    0    0  501  502  0.00000000000E+00  0.00000000000E+00  0.77512347473E+00  0.77512347473E+00  0.00000000000E+00 0. -1.
         21   -1    0    0  502  503 -0.00000000000E+00 -0.00000000000E+00 -0.71202414240E+02  0.71202414240E+02  0.00000000000E+00 0.  1.
          5    1    1    2  501    0 -0.56668339691E+01 -0.95417420198E+00 -0.33867590435E+02  0.34671705143E+02  0.47000000000E+01 0. -1.
         -5    1    1    2    0  503  0.56668339691E+01  0.95417420198E+00 -0.36559700331E+02  0.37305832572E+02  0.47000000000E+01 0. -1.
<mgrwt>
<rscale>  2 0.74238437E+01</rscale>
<asrwt>0</asrwt>
<pdfrwt beam="1">  1       21 0.11924979E-03 0.74238437E+01</pdfrwt>
<pdfrwt beam="2">  1       21 0.10954216E-01 0.74238437E+01</pdfrwt>
<totfact> 0.20900500E+09</totfact>
</mgrwt>
</event>
<event>
 4    1  0.3999109E+006  0.4823019E+01  0.7546771E-02  0.2599541E+00
         21   -1    0    0  503  502  0.00000000000E+00  0.00000000000E+00  0.36971607397E+03  0.36971607397E+03  0.00000000000E+00 0.  1.
         21   -1    0    0  501  503 -0.00000000000E+00 -0.00000000000E+00 -0.10243605996E+00  0.10243605996E+00  0.00000000000E+00 0.  1.
          5    1    1    2  501    0  0.94078979477E+00 -0.53518840834E+00  0.69955961229E+02  0.70122022387E+02  0.47000000000E+01 0.  1.
         -5    1    1    2    0  502 -0.94078979477E+00  0.53518840834E+00  0.29965767668E+03  0.29969648764E+03  0.47000000000E+01 0.  1.
<mgrwt>
<rscale>  2 0.48230190E+01</rscale>
<asrwt>0</asrwt>
<pdfrwt beam="1">  1       21 0.56878328E-01 0.48230190E+01</pdfrwt>
<pdfrwt beam="2">  1       21 0.15759690E-04 0.48230190E+01</pdfrwt>
<totfact> 0.14378174E+09</totfact>
</mgrwt>
</event>
<event>
 4    1  0.3999109E+006  0.6023283E+01  0.7546771E-02  0.2412403E+00
         21   -1    0    0  501  502  0.00000000000E+00  0.00000000000E+00  0.46712771559E+02  0.46712771559E+02  0.00000000000E+00 0. -1.
         21   -1    0    0  502  503 -0.00000000000E+00 -0.00000000000E+00 -0.25651233458E+01  0.25651233458E+01  0.00000000000E+00 0. -1.
          5    1    1    2  501    0  0.28503381814E+01  0.24628252991E+01  0.15003298609E+01  0.62073284023E+01  0.47000000000E+01 0. -1.
         -5    1    1    2    0  503 -0.28503381814E+01 -0.24628252991E+01  0.42647318353E+02  0.43070566503E+02  0.47000000000E+01 0. -1.
<mgrwt>
<rscale>  2 0.60232828E+01</rscale>
<asrwt>0</asrwt>
<pdfrwt beam="1">  1       21 0.71865796E-02 0.60232828E+01</pdfrwt>
<pdfrwt beam="2">  1       21 0.39463440E-03 0.60232828E+01</pdfrwt>
<totfact> 0.66129221E+08</totfact>
</mgrwt>
</event>
<event>
 4    1  0.3999109E+006  0.4991605E+01  0.7546771E-02  0.2568645E+00
         21   -1    0    0  501  502  0.00000000000E+00  0.00000000000E+00  0.10387610045E+01  0.10387610045E+01  0.00000000000E+00 0. -1.
         21   -1    0    0  502  503 -0.00000000000E+00 -0.00000000000E+00 -0.41714741697E+02  0.41714741697E+02  0.00000000000E+00 0. -1.
          5    1    1    2  501    0 -0.15540300666E+01  0.64118228500E+00 -0.64022150854E+01  0.81181575601E+01  0.47000000000E+01 0. -1.
         -5    1    1    2    0  503  0.15540300666E+01 -0.64118228500E+00 -0.34273765607E+02  0.34635345141E+02  0.47000000000E+01 0. -1.
<mgrwt>
<rscale>  2 0.49916054E+01</rscale>
<asrwt>0</asrwt>
<pdfrwt beam="1">  1       21 0.15980944E-03 0.49916054E+01</pdfrwt>
<pdfrwt beam="2">  1       21 0.64176505E-02 0.49916054E+01</pdfrwt>
<totfact> 0.22717374E+09</totfact>
</mgrwt>
</event>
<event>
 4    1  0.3999109E+006  0.7183711E+01  0.7546771E-02  0.2282862E+00
         21   -1    0    0  503  502  0.00000000000E+00  0.00000000000E+00  0.67985286833E+02  0.67985286833E+02  0.00000000000E+00 0.  1.
         21   -1    0    0  501  503 -0.00000000000E+00 -0.00000000000E+00 -0.78238824292E+00  0.78238824292E+00  0.00000000000E+00 0. -1.
          5    1    1    2  501    0 -0.53968095983E+01  0.62461885723E+00  0.39537203528E+02  0.40184526442E+02  0.47000000000E+01 0.  1.
         -5    1    1    2    0  502  0.53968095983E+01 -0.62461885723E+00  0.27665695062E+02  0.28583148634E+02  0.47000000000E+01 0.  1.
<mgrwt>
<rscale>  2 0.71837109E+01</rscale>
<asrwt>0</asrwt>
<pdfrwt beam="1">  1       21 0.10459270E-01 0.71837109E+01</pdfrwt>
<pdfrwt beam="2">  1       21 0.12036748E-03 0.71837109E+01</pdfrwt>
<totfact> 0.21655400E+09</totfact>
</mgrwt>
</event>
<event>
 4    1  0.3999109E+006  0.7394160E+01  0.7546771E-02  0.2263000E+00
         21   -1    0    0  503  502  0.00000000000E+00  0.00000000000E+00  0.70588841223E+00  0.70588841223E+00  0.00000000000E+00 0.  1.
         21   -1    0    0  501  503 -0.00000000000E+00 -0.00000000000E+00 -0.84119592402E+02  0.84119592402E+02  0.00000000000E+00 0. -1.
          5    1    1    2  501    0 -0.42774112703E+01 -0.37798621374E+01 -0.29767524245E+02  0.30672122598E+02  0.47000000000E+01 0.  1.
         -5    1    1    2    0  502  0.42774112703E+01  0.37798621374E+01 -0.53646179745E+02  0.54153358217E+02  0.47000000000E+01 0. -1.
<mgrwt>
<rscale>  2 0.73941602E+01</rscale>
<asrwt>0</asrwt>
<pdfrwt beam="1">  1       21 0.10859828E-03 0.73941602E+01</pdfrwt>
<pdfrwt beam="2">  1       21 0.12941469E-01 0.73941602E+01</pdfrwt>
<totfact> 0.18204639E+09</totfact>
</mgrwt>
</event>
<event>
 4    1  0.3999109E+006  0.6533106E+01  0.7546771E-02  0.2350806E+00
         21   -1    0    0  501  502  0.00000000000E+00  0.00000000000E+00  0.17572069349E+03  0.17572069349E+03  0.00000000000E+00 0.  1.
         21   -1    0    0  502  503 -0.00000000000E+00 -0.00000000000E+00 -0.44981597643E+01  0.44981597643E+01  0.00000000000E+00 0. -1.
          5    1    1    2  501    0 -0.34356354337E+00  0.45247589928E+01  0.17325404572E+03  0.17337717796E+03  0.47000000000E+01 0.  1.
         -5    1    1    2    0  503  0.34356354337E+00 -0.45247589928E+01 -0.20315119924E+01  0.68416752938E+01  0.47000000000E+01 0. -1.
<mgrwt>
<rscale>  2 0.65331064E+01</rscale>
<asrwt>0</asrwt>
<pdfrwt beam="1">  1       21 0.27033948E-01 0.65331064E+01</pdfrwt>
<pdfrwt beam="2">  1       21 0.69202471E-03 0.65331064E+01</pdfrwt>
<totfact> 0.39326542E+07</totfact>
</mgrwt>
</event>
<event>
 4    1  0.3999109E+006  0.6194062E+01  0.7546771E-02  0.2390830E+00
         21   -1    0    0  503  502  0.00000000000E+00  0.00000000000E+00  0.17075127190E+01  0.17075127190E+01  0.00000000000E+00 0. -1.
         21   -1    0    0  501  503 -0.00000000000E+00 -0.00000000000E+00 -0.52733945570E+02  0.52733945570E+02  0.00000000000E+00 0. -1.
          5    1    1    2  501    0  0.29363448275E+01  0.27666364035E+01 -0.46134862619E+02  0.46548812518E+02  0.47000000000E+01 0. -1.
         -5    1    1    2    0  502 -0.29363448275E+01 -0.27666364035E+01 -0.48915702321E+01  0.78926457713E+01  0.47000000000E+01 0. -1.
<mgrwt>
<rscale>  2 0.61940615E+01</rscale>
<asrwt>0</asrwt>
<pdfrwt beam="1">  1       21 0.26269427E-03 0.61940615E+01</pdfrwt>
<pdfrwt beam="2">  1       21 0.81129144E-02 0.61940615E+01</pdfrwt>
<totfact> 0.98521213E+08</totfact>
</mgrwt>
</event>
<event>
 4    1  0.3999109E+006  0.4714109E+01  0.7546771E-02  0.2620515E+00
         21   -1    0    0  501  502  0.00000000000E+00  0.00000000000E+00  0.83446400399E+00  0.83446400399E+00  0.00000000000E+00 0. -1.
         21   -1    0    0  502  503 -0.00000000000E+00 -0.00000000000E+00 -0.35480573400E+02  0.35480573400E+02  0.00000000000E+00 0. -1.
          5    1    1    2  501    0 -0.26436137389E+00  0.25086426183E+00 -0.82549566015E+01  0.95061626488E+01  0.47000000000E+01 0. -1.
         -5    1    1    2    0  503  0.26436137389E+00 -0.25086426183E+00 -0.26391152795E+02  0.26808874756E+02  0.47000000000E+01 0. -1.
<mgrwt>
<rscale>  2 0.47141086E+01</rscale>
<asrwt>0</asrwt>
<pdfrwt beam="1">  1       21 0.12837909E-03 0.47141086E+01</pdfrwt>
<pdfrwt beam="2">  1       21 0.54585493E-02 0.47141086E+01</pdfrwt>
<totfact> 0.36387617E+09</totfact>
</mgrwt>
</event>
<event>
 4    1  0.3999109E+006  0.6447489E+01  0.7546771E-02  0.2360583E+00
         21   -1    0    0  501  502  0.00000000000E+00  0.00000000000E+00  0.63375066935E+01  0.63375066935E+01  0.00000000000E+00 0.  1.
         21   -1    0    0  502  503 -0.00000000000E+00 -0.00000000000E+00 -0.73236949939E+01  0.73236949939E+01  0.00000000000E+00 0.  1.
          5    1    1    2  501    0 -0.36024998989E+01 -0.25499226011E+01  0.17135390375E+01  0.66713062309E+01  0.47000000000E+01 0.  1.
         -5    1    1    2    0  503  0.36024998989E+01  0.25499226011E+01 -0.26997273379E+01  0.69898954565E+01  0.47000000000E+01 0.  1.
<mgrwt>
<rscale>  2 0.64474887E+01</rscale>
<asrwt>0</asrwt>
<pdfrwt beam="1">  1       21 0.97500103E-03 0.64474887E+01</pdfrwt>
<pdfrwt beam="2">  1       21 0.11267223E-02 0.64474887E+01</pdfrwt>
<totfact> 0.29421665E+09</totfact>
</mgrwt>
</event>
<event>
 4    1  0.3999109E+006  0.5709965E+01  0.7546771E-02  0.2454773E+00
         21   -1    0    0  503  502  0.00000000000E+00  0.00000000000E+00  0.54084549624E+01  0.54084549624E+01  0.00000000000E+00 0. -1.
         21   -1    0    0  501  503 -0.00000000000E+00 -0.00000000000E+00 -0.68286187453E+01  0.68286187453E+01  0.00000000000E+00 0. -1.
          5    1    1    2  501    0  0.16295563526E+01 -0.28032572228E+01  0.13845941253E+01  0.58754409073E+01  0.47000000000E+01 0. -1.
         -5    1    1    2    0  502 -0.16295563526E+01  0.28032572228E+01 -0.28047579082E+01  0.63616328004E+01  0.47000000000E+01 0. -1.
<mgrwt>
<rscale>  2 0.57099654E+01</rscale>
<asrwt>0</asrwt>
<pdfrwt beam="1">  1       21 0.83207000E-03 0.57099654E+01</pdfrwt>
<pdfrwt beam="2">  1       21 0.10505567E-02 0.57099654E+01</pdfrwt>
<totfact> 0.36446712E+09</totfact>
</mgrwt>
</event>
<event>
 4    1  0.3999109E+006  0.7672907E+01  0.7546771E-02  0.2238066E+00
         21   -1    0    0  503  502  0.00000000000E+00  0.00000000000E+00  0.16339292215E+01  0.16339292215E+01  0.00000000000E+00 0.  1.
         21   -1    0    0  501  503 -0.00000000000E+00 -0.00000000000E+00 -0.36039880690E+02  0.36039880690E+02  0.00000000000E+00 0.  1.
          5    1    1    2  501    0 -0.25087604092E+01  0.55217404362E+01 -0.16921828099E+02  0.18580144306E+02  0.47000000000E+01 0.  1.
         -5    1    1    2    0  502  0.25087604092E+01 -0.55217404362E+01 -0.17484123369E+02  0.19093665605E+02  0.47000000000E+01 0.  1.
<mgrwt>
<rscale>  2 0.76729066E+01</rscale>
<asrwt>0</asrwt>
<pdfrwt beam="1">  1       21 0.25137376E-03 0.76729066E+01</pdfrwt>
<pdfrwt beam="2">  1       21 0.55445963E-02 0.76729066E+01</pdfrwt>
<totfact> 0.21903042E+09</totfact>
</mgrwt>
</event>
<event>
 4    1  0.3999109E+006  0.5781627E+01  0.7546771E-02  0.2444742E+00
         21   -1    0    0  501  502  0.00000000000E+00  0.00000000000E+00  0.24180751853E+00  0.24180751853E+00  0.00000000000E+00 0. -1.
         21   -1    0    0  502  503 -0.00000000000E+00 -0.00000000000E+00 -0.48824534217E+03  0.48824534217E+03  0.00000000000E+00 0.  1.
          5    1    1    2  501    0  0.33390041433E+01  0.43389369319E+00 -0.37205786225E+02  0.37652327166E+02  0.47000000000E+01 0. -1.
         -5    1    1    2    0  503 -0.33390041433E+01 -0.43389369319E+00 -0.45079774842E+03  0.45083482252E+03  0.47000000000E+01 0.  1.
<mgrwt>
<rscale>  2 0.57816271E+01</rscale>
<asrwt>0</asrwt>
<pdfrwt beam="1">  1       21 0.37201222E-04 0.57816271E+01</pdfrwt>
<pdfrwt beam="2">  1       21 0.75114537E-01 0.57816271E+01</pdfrwt>
<totfact> 0.31537334E+08</totfact>
</mgrwt>
</event>
<event>
 4    1  0.3999109E+006  0.7107580E+01  0.7546771E-02  0.2290283E+00
         21   -1    0    0  503  502  0.00000000000E+00  0.00000000000E+00  0.99099242732E+02  0.99099242732E+02  0.00000000000E+00 0.  1.
         21   -1    0    0  501  503 -0.00000000000E+00 -0.00000000000E+00 -0.53966158354E+00  0.53966158354E+00  0.00000000000E+00 0.  1.
          5    1    1    2  501    0 -0.29752258397E+01 -0.44244459823E+01  0.61005042451E+02  0.61417692040E+02  0.47000000000E+01 0.  1.
         -5    1    1    2    0  502  0.29752258397E+01  0.44244459823E+01  0.37554538697E+02  0.38221212275E+02  0.47000000000E+01 0.  1.
<mgrwt>
<rscale>  2 0.71075798E+01</rscale>
<asrwt>0</asrwt>
<pdfrwt beam="1">  1       21 0.15246023E-01 0.71075798E+01</pdfrwt>
<pdfrwt beam="2">  1       21 0.83024938E-04 0.71075798E+01</pdfrwt>
<totfact> 0.19622649E+09</totfact>
</mgrwt>
</event>
<event>
 4    1  0.3999109E+006  0.4917572E+01  0.7546771E-02  0.2581987E+00
         21   -1    0    0  503  502  0.00000000000E+00  0.00000000000E+00  0.49222437951E+01  0.49222437951E+01  0.00000000000E+00 0. -1.
         21   -1    0    0  501  503 -0.00000000000E+00 -0.00000000000E+00 -0.76394299506E+01  0.76394299506E+01  0.00000000000E+00 0. -1.
          5    1    1    2  501    0  0.14276493569E+01 -0.23309270026E+00 -0.51108433345E+01  0.70924773163E+01  0.47000000000E+01 0. -1.
         -5    1    1    2    0  502 -0.14276493569E+01  0.23309270026E+00  0.23936571789E+01  0.54691964294E+01  0.47000000000E+01 0. -1.
<mgrwt>
<rscale>  2 0.49175721E+01</rscale>
<asrwt>0</asrwt>
<pdfrwt beam="1">  1       21 0.75726828E-03 0.49175721E+01</pdfrwt>
<pdfrwt beam="2">  1       21 0.11752969E-02 0.49175721E+01</pdfrwt>
<totfact> 0.30620974E+09</totfact>
</mgrwt>
</event>
<event>
 4    1  0.3999109E+006  0.7410302E+01  0.7546771E-02  0.2261515E+00
         21   -1    0    0  503  502  0.00000000000E+00  0.00000000000E+00  0.46539408098E+00  0.46539408098E+00  0.00000000000E+00 0. -1.
         21   -1    0    0  501  503 -0.00000000000E+00 -0.00000000000E+00 -0.13943376821E+03  0.13943376821E+03  0.00000000000E+00 0.  1.
          5    1    1    2  501    0  0.26890547406E+01  0.50588097216E+01 -0.96914827252E+02  0.97197717630E+02  0.47000000000E+01 0. -1.
         -5    1    1    2    0  502 -0.26890547406E+01 -0.50588097216E+01 -0.42053546878E+02  0.42701444662E+02  0.47000000000E+01 0.  1.
<mgrwt>
<rscale>  2 0.74103017E+01</rscale>
<asrwt>0</asrwt>
<pdfrwt beam="1">  1       21 0.71599046E-04 0.74103017E+01</pdfrwt>
<pdfrwt beam="2">  1       21 0.21451362E-01 0.74103017E+01</pdfrwt>
<totfact> 0.14182534E+09</totfact>
</mgrwt>
</event>
<event>
 4    1  0.3999109E+006  0.5855712E+01  0.7546771E-02  0.2434590E+00
         21   -1    0    0  501  502  0.00000000000E+00  0.00000000000E+00  0.39508453612E+01  0.39508453612E+01  0.00000000000E+00 0.  1.
         21   -1    0    0  502  503 -0.00000000000E+00 -0.00000000000E+00 -0.11087722887E+02  0.11087722887E+02  0.00000000000E+00 0.  1.
          5    1    1    2  501    0 -0.11211016922E+01  0.33079434572E+01 -0.63750681634E-01  0.58560586634E+01  0.47000000000E+01 0.  1.
         -5    1    1    2    0  503  0.11211016922E+01 -0.33079434572E+01 -0.70731268442E+01  0.91825095848E+01  0.47000000000E+01 0.  1.
<mgrwt>
<rscale>  2 0.58557116E+01</rscale>
<asrwt>0</asrwt>
<pdfrwt beam="1">  1       21 0.60782237E-03 0.58557116E+01</pdfrwt>
<pdfrwt beam="2">  1       21 0.17058035E-02 0.58557116E+01</pdfrwt>
<totfact> 0.29086808E+09</totfact>
</mgrwt>
</event>
<event>
 4    1  0.3999109E+006  0.4807301E+01  0.7546771E-02  0.2602517E+00
         21   -1    0    0  503  502  0.00000000000E+00  0.00000000000E+00  0.10681763335E+01  0.10681763335E+01  0.00000000000E+00 0. -1.
         21   -1    0    0  501  503 -0.00000000000E+00 -0.00000000000E+00 -0.66316708838E+02  0.66316708838E+02  0.00000000000E+00 0. -1.
          5    1    1    2  501    0  0.55296337418E-01  0.10085052559E+01 -0.60280003434E+02  0.60471389553E+02  0.47000000000E+01 0. -1.
         -5    1    1    2    0  502 -0.55296337418E-01 -0.10085052559E+01 -0.49685290709E+01  0.69134956183E+01  0.47000000000E+01 0. -1.
<mgrwt>
<rscale>  2 0.48073008E+01</rscale>
<asrwt>0</asrwt>
<pdfrwt beam="1">  1       21 0.16433480E-03 0.48073008E+01</pdfrwt>
<pdfrwt beam="2">  1       21 0.10202572E-01 0.48073008E+01</pdfrwt>
<totfact> 0.10561543E+09</totfact>
</mgrwt>
</event>
<event>
 4    1  0.3999109E+006  0.5265277E+01  0.7546771E-02  0.2522141E+00
         21   -1    0    0  501  502  0.00000000000E+00  0.00000000000E+00  0.44717154209E+01  0.44717154209E+01  0.00000000000E+00 0. -1.
         21   -1    0    0  502  503 -0.00000000000E+00 -0.00000000000E+00 -0.92248129147E+01  0.92248129147E+01  0.00000000000E+00 0. -1.
          5    1    1    2  501    0 -0.23705233720E+01  0.11732779568E+00  0.15451558677E+01  0.54873175163E+01  0.47000000000E+01 0. -1.
         -5    1    1    2    0  503  0.23705233720E+01 -0.11732779568E+00 -0.62982533616E+01  0.82092108193E+01  0.47000000000E+01 0. -1.
<mgrwt>
<rscale>  2 0.52652775E+01</rscale>
<asrwt>0</asrwt>
<pdfrwt beam="1">  1       21 0.68795622E-03 0.52652775E+01</pdfrwt>
<pdfrwt beam="2">  1       21 0.14192020E-02 0.52652775E+01</pdfrwt>
<totfact> 0.28777054E+09</totfact>
</mgrwt>
</event>
<event>
 4    1  0.3999109E+006  0.5634702E+01  0.7546771E-02  0.2465540E+00
         21   -1    0    0  501  502  0.00000000000E+00  0.00000000000E+00  0.27545100251E+01  0.27545100251E+01  0.00000000000E+00 0. -1.
         21   -1    0    0  502  503 -0.00000000000E+00 -0.00000000000E+00 -0.27569718321E+02  0.27569718321E+02  0.00000000000E+00 0. -1.
          5    1    1    2  501    0 -0.23310541268E+01 -0.20557353618E+01 -0.84144036203E+00  0.56971820317E+01  0.47000000000E+01 0. -1.
         -5    1    1    2    0  503  0.23310541268E+01  0.20557353618E+01 -0.23973767934E+02  0.24627046314E+02  0.47000000000E+01 0. -1.
<mgrwt>
<rscale>  2 0.56347015E+01</rscale>
<asrwt>0</asrwt>
<pdfrwt beam="1">  1       21 0.42377076E-03 0.56347015E+01</pdfrwt>
<pdfrwt beam="2">  1       21 0.42414953E-02 0.56347015E+01</pdfrwt>
<totfact> 0.12428567E+09</totfact>
</mgrwt>
</event>
<event>
 4    1  0.3999109E+006  0.5690004E+01  0.7546771E-02  0.2457605E+00
         21   -1    0    0  501  502  0.00000000000E+00  0.00000000000E+00  0.72229125448E+01  0.72229125448E+01  0.00000000000E+00 0.  1.
         21   -1    0    0  502  503 -0.00000000000E+00 -0.00000000000E+00 -0.81938301810E+01  0.81938301810E+01  0.00000000000E+00 0.  1.
          5    1    1    2  501    0  0.27781940851E+01  0.16024296049E+01  0.47024042296E+01  0.73816494465E+01  0.47000000000E+01 0.  1.
         -5    1    1    2    0  503 -0.27781940851E+01 -0.16024296049E+01 -0.56733218658E+01  0.80350932793E+01  0.47000000000E+01 0.  1.
<mgrwt>
<rscale>  2 0.56900038E+01</rscale>
<asrwt>0</asrwt>
<pdfrwt beam="1">  1       21 0.11112173E-02 0.56900038E+01</pdfrwt>
<pdfrwt beam="2">  1       21 0.12605893E-02 0.56900038E+01</pdfrwt>
<totfact> 0.18707292E+09</totfact>
</mgrwt>
</event>
<event>
 4    1  0.3999109E+006  0.4855479E+01  0.7546771E-02  0.2593448E+00
         21   -1    0    0  501  502  0.00000000000E+00  0.00000000000E+00  0.11392549759E+01  0.11392549759E+01  0.00000000000E+00 0.  1.
         21   -1    0    0  502  503 -0.00000000000E+00 -0.00000000000E+00 -0.21958628347E+02  0.21958628347E+02  0.00000000000E+00 0.  1.
          5    1    1    2  501    0 -0.12173012995E+01 -0.62114483916E-01 -0.76380879450E+01  0.90507495887E+01  0.47000000000E+01 0.  1.
         -5    1    1    2    0  503  0.12173012995E+01  0.62114483916E-01 -0.13181285426E+02  0.14047133734E+02  0.47000000000E+01 0.  1.
<mgrwt>
<rscale>  2 0.48554794E+01</rscale>
<asrwt>0</asrwt>
<pdfrwt beam="1">  1       21 0.17527000E-03 0.48554794E+01</pdfrwt>
<pdfrwt beam="2">  1       21 0.33782504E-02 0.48554794E+01</pdfrwt>
<totfact> 0.49676001E+09</totfact>
</mgrwt>
</event>
<event>
 4    1  0.3999109E+006  0.4878695E+01  0.7546771E-02  0.2589134E+00
         21   -1    0    0  501  502  0.00000000000E+00  0.00000000000E+00  0.99640544078E+02  0.99640544078E+02  0.00000000000E+00 0.  1.
         21   -1    0    0  502  503 -0.00000000000E+00 -0.00000000000E+00 -0.24330109835E+01  0.24330109835E+01  0.00000000000E+00 0.  1.
          5    1    1    2  501    0 -0.12979545034E+01  0.16426372483E+00  0.97070410366E+02  0.97192933062E+02  0.47000000000E+01 0.  1.
         -5    1    1    2    0  503  0.12979545034E+01 -0.16426372483E+00  0.13712272852E+00  0.48806220000E+01  0.47000000000E+01 0.  1.
<mgrwt>
<rscale>  2 0.48786954E+01</rscale>
<asrwt>0</asrwt>
<pdfrwt beam="1">  1       21 0.15329311E-01 0.48786954E+01</pdfrwt>
<pdfrwt beam="2">  1       21 0.37430946E-03 0.48786954E+01</pdfrwt>
<totfact> 0.18898604E+08</totfact>
</mgrwt>
</event>
<event>
 4    1  0.3999109E+006  0.7336548E+01  0.7546771E-02  0.2268345E+00
         21   -1    0    0  503  502  0.00000000000E+00  0.00000000000E+00  0.32694944877E+02  0.32694944877E+02  0.00000000000E+00 0.  1.
         21   -1    0    0  501  503 -0.00000000000E+00 -0.00000000000E+00 -0.30447597595E+01  0.30447597595E+01  0.00000000000E+00 0.  1.
          5    1    1    2  501    0  0.54356344763E+01  0.14794619880E+01  0.27142869345E+01  0.78225496800E+01  0.47000000000E+01 0.  1.
         -5    1    1    2    0  502 -0.54356344763E+01 -0.14794619880E+01  0.26935898183E+02  0.27917154957E+02  0.47000000000E+01 0.  1.
<mgrwt>
<rscale>  2 0.73365475E+01</rscale>
<asrwt>0</asrwt>
<pdfrwt beam="1">  1       21 0.50299913E-02 0.73365475E+01</pdfrwt>
<pdfrwt beam="2">  1       21 0.46842460E-03 0.73365475E+01</pdfrwt>
<totfact> 0.10309652E+09</totfact>
</mgrwt>
</event>
<event>
 4    1  0.3999109E+006  0.6239398E+01  0.7546771E-02  0.2385269E+00
         21   -1    0    0  503  502  0.00000000000E+00  0.00000000000E+00  0.34011527321E+02  0.34011527321E+02  0.00000000000E+00 0.  1.
         21   -1    0    0  501  503 -0.00000000000E+00 -0.00000000000E+00 -0.11658661477E+01  0.11658661477E+01  0.00000000000E+00 0.  1.
          5    1    1    2  501    0 -0.25887287781E+01 -0.31841123074E+01  0.18797512575E+02  0.19805973010E+02  0.47000000000E+01 0.  1.
         -5    1    1    2    0  502  0.25887287781E+01  0.31841123074E+01  0.14048148599E+02  0.15371420459E+02  0.47000000000E+01 0.  1.
<mgrwt>
<rscale>  2 0.62393980E+01</rscale>
<asrwt>0</asrwt>
<pdfrwt beam="1">  1       21 0.52325419E-02 0.62393980E+01</pdfrwt>
<pdfrwt beam="2">  1       21 0.17936405E-03 0.62393980E+01</pdfrwt>
<totfact> 0.32289774E+09</totfact>
</mgrwt>
</event>
<event>
 4    1  0.3999109E+006  0.2610865E+02  0.7546771E-02  0.1645570E+00
         21   -1    0    0  501  502  0.00000000000E+00  0.00000000000E+00  0.49531563962E+02  0.49531563962E+02  0.00000000000E+00 0.  1.
         21   -1    0    0  502  503 -0.00000000000E+00 -0.00000000000E+00 -0.34068431279E+02  0.34068431279E+02  0.00000000000E+00 0. -1.
          5    1    1    2  501    0  0.21774009926E+02  0.13618515461E+02  0.40002776045E+02  0.47769064916E+02  0.47000000000E+01 0.  1.
         -5    1    1    2    0  503 -0.21774009926E+02 -0.13618515461E+02 -0.24539643362E+02  0.35830930325E+02  0.47000000000E+01 0. -1.
<mgrwt>
<rscale>  2 0.26108647E+02</rscale>
<asrwt>0</asrwt>
<pdfrwt beam="1">  1       21 0.76202406E-02 0.26108647E+02</pdfrwt>
<pdfrwt beam="2">  1       21 0.52412971E-02 0.26108647E+02</pdfrwt>
<totfact> 0.24841114E+07</totfact>
</mgrwt>
</event>
<event>
 4    1  0.3999109E+006  0.7354993E+01  0.7546771E-02  0.2266627E+00
         21   -1    0    0  501  502  0.00000000000E+00  0.00000000000E+00  0.10679003295E+03  0.10679003295E+03  0.00000000000E+00 0. -1.
         21   -1    0    0  502  503 -0.00000000000E+00 -0.00000000000E+00 -0.37836036388E+01  0.37836036388E+01  0.00000000000E+00 0. -1.
          5    1    1    2  501    0 -0.36034041338E+00 -0.56458897806E+01  0.10295609251E+03  0.10321847171E+03  0.47000000000E+01 0. -1.
         -5    1    1    2    0  503  0.36034041338E+00  0.56458897806E+01  0.50336800310E-01  0.73551648807E+01  0.47000000000E+01 0. -1.
<mgrwt>
<rscale>  2 0.73549926E+01</rscale>
<asrwt>0</asrwt>
<pdfrwt beam="1">  1       21 0.16429233E-01 0.73549926E+01</pdfrwt>
<pdfrwt beam="2">  1       21 0.58209295E-03 0.73549926E+01</pdfrwt>
<totfact> 0.12123078E+08</totfact>
</mgrwt>
</event>
<event>
 4    1  0.3999109E+006  0.8786576E+01  0.7546771E-02  0.2151427E+00
         21   -1    0    0  501  502  0.00000000000E+00  0.00000000000E+00  0.37322680886E+01  0.37322680886E+01  0.00000000000E+00 0. -1.
         21   -1    0    0  502  503 -0.00000000000E+00 -0.00000000000E+00 -0.36699622016E+02  0.36699622016E+02  0.00000000000E+00 0. -1.
          5    1    1    2  501    0 -0.74191556810E+01 -0.26465467665E+00 -0.31295800685E+01  0.93272817327E+01  0.47000000000E+01 0. -1.
         -5    1    1    2    0  503  0.74191556810E+01  0.26465467665E+00 -0.29837773859E+02  0.31104608372E+02  0.47000000000E+01 0. -1.
<mgrwt>
<rscale>  2 0.87865757E+01</rscale>
<asrwt>0</asrwt>
<pdfrwt beam="1">  1       21 0.57419509E-03 0.87865757E+01</pdfrwt>
<pdfrwt beam="2">  1       21 0.56460957E-02 0.87865757E+01</pdfrwt>
<totfact> 0.73057672E+08</totfact>
</mgrwt>
</event>
<event>
 4    1  0.3999109E+006  0.6176110E+01  0.7546771E-02  0.2393051E+00
         21   -1    0    0  501  502  0.00000000000E+00  0.00000000000E+00  0.40598832207E+01  0.40598832207E+01  0.00000000000E+00 0. -1.
         21   -1    0    0  502  503 -0.00000000000E+00 -0.00000000000E+00 -0.11174013726E+02  0.11174013726E+02  0.00000000000E+00 0. -1.
          5    1    1    2  501    0 -0.35281967404E+01  0.18989884654E+01 -0.51818105150E+00  0.61978093737E+01  0.47000000000E+01 0. -1.
         -5    1    1    2    0  503  0.35281967404E+01 -0.18989884654E+01 -0.65959494543E+01  0.90360875734E+01  0.47000000000E+01 0. -1.
<mgrwt>
<rscale>  2 0.61761096E+01</rscale>
<asrwt>0</asrwt>
<pdfrwt beam="1">  1       21 0.62459742E-03 0.61761096E+01</pdfrwt>
<pdfrwt beam="2">  1       21 0.17190790E-02 0.61761096E+01</pdfrwt>
<totfact> 0.29030722E+09</totfact>
</mgrwt>
</event>
<event>
 4    1  0.3999109E+006  0.9371792E+01  0.7546771E-02  0.2112608E+00
         21   -1    0    0  501  502  0.00000000000E+00  0.00000000000E+00  0.65303095526E+00  0.65303095526E+00  0.00000000000E+00 0.  1.
         21   -1    0    0  502  503 -0.00000000000E+00 -0.00000000000E+00 -0.38561219689E+03  0.38561219689E+03  0.00000000000E+00 0. -1.
          5    1    1    2  501    0  0.74428965383E+01  0.32161730835E+01 -0.36625912434E+02  0.37805924665E+02  0.47000000000E+01 0.  1.
         -5    1    1    2    0  503 -0.74428965383E+01 -0.32161730835E+01 -0.34833325350E+03  0.34845930318E+03  0.47000000000E+01 0. -1.
<mgrwt>
<rscale>  2 0.93717916E+01</rscale>
<asrwt>0</asrwt>
<pdfrwt beam="1">  1       21 0.10046616E-03 0.93717916E+01</pdfrwt>
<pdfrwt beam="2">  1       21 0.59325036E-01 0.93717916E+01</pdfrwt>
<totfact> 0.16951771E+08</totfact>
</mgrwt>
</event>
<event>
 4    1  0.3999109E+006  0.5388749E+01  0.7546771E-02  0.2502490E+00
         21   -1    0    0  501  502  0.00000000000E+00  0.00000000000E+00  0.16962808053E+01  0.16962808053E+01  0.00000000000E+00 0. -1.
         21   -1    0    0  502  503 -0.00000000000E+00 -0.00000000000E+00 -0.52184474677E+02  0.52184474677E+02  0.00000000000E+00 0. -1.
          5    1    1    2  501    0  0.26286652844E+01  0.19680895264E+00 -0.31603407846E+01  0.62471088366E+01  0.47000000000E+01 0. -1.
         -5    1    1    2    0  503 -0.26286652844E+01 -0.19680895264E+00 -0.47327853087E+02  0.47633646646E+02  0.47000000000E+01 0. -1.
<mgrwt>
<rscale>  2 0.53887489E+01</rscale>
<asrwt>0</asrwt>
<pdfrwt beam="1">  1       21 0.26096623E-03 0.53887489E+01</pdfrwt>
<pdfrwt beam="2">  1       21 0.80283822E-02 0.53887489E+01</pdfrwt>
<totfact> 0.90184357E+08</totfact>
</mgrwt>
</event>
<event>
 4    1  0.3999109E+006  0.6209580E+01  0.7546771E-02  0.2388919E+00
         21   -1    0    0  503  502  0.00000000000E+00  0.00000000000E+00  0.27830925012E+03  0.27830925012E+03  0.00000000000E+00 0.  1.
         21   -1    0    0  501  503 -0.00000000000E+00 -0.00000000000E+00 -0.16093023355E+00  0.16093023355E+00  0.00000000000E+00 0. -1.
          5    1    1    2  501    0 -0.33648430346E+01 -0.22686364803E+01  0.87147260399E+02  0.87368208607E+02  0.47000000000E+01 0. -1.
         -5    1    1    2    0  502  0.33648430346E+01  0.22686364803E+01  0.19100105948E+03  0.19110197174E+03  0.47000000000E+01 0.  1.
<mgrwt>
<rscale>  2 0.62095797E+01</rscale>
<asrwt>0</asrwt>
<pdfrwt beam="1">  1       21 0.42816422E-01 0.62095797E+01</pdfrwt>
<pdfrwt beam="2">  1       21 0.24758720E-04 0.62095797E+01</pdfrwt>
<totfact> 0.16054025E+09</totfact>
</mgrwt>
</event>
<event>
 4    1  0.3999109E+006  0.5844335E+01  0.7546771E-02  0.2436135E+00
         21   -1    0    0  503  502  0.00000000000E+00  0.00000000000E+00  0.58235615423E+01  0.58235615423E+01  0.00000000000E+00 0. -1.
         21   -1    0    0  501  503 -0.00000000000E+00 -0.00000000000E+00 -0.10201306890E+03  0.10201306890E+03  0.00000000000E+00 0.  1.
          5    1    1    2  501    0  0.28716162394E+01 -0.19545018466E+01 -0.10044012386E+03  0.10061001311E+03  0.47000000000E+01 0.  1.
         -5    1    1    2    0  502 -0.28716162394E+01  0.19545018466E+01  0.42506165067E+01  0.72266173264E+01  0.47000000000E+01 0. -1.
<mgrwt>
<rscale>  2 0.58443355E+01</rscale>
<asrwt>0</asrwt>
<pdfrwt beam="1">  1       21 0.89593260E-03 0.58443355E+01</pdfrwt>
<pdfrwt beam="2">  1       21 0.15694317E-01 0.58443355E+01</pdfrwt>
<totfact> 0.61988858E+07</totfact>
</mgrwt>
</event>
<event>
 4    1  0.3999109E+006  0.8235405E+01  0.7546771E-02  0.2191953E+00
         21   -1    0    0  501  502  0.00000000000E+00  0.00000000000E+00  0.27922558584E+02  0.27922558584E+02  0.00000000000E+00 0.  1.
         21   -1    0    0  502  503 -0.00000000000E+00 -0.00000000000E+00 -0.24561574245E+01  0.24561574245E+01  0.00000000000E+00 0.  1.
          5    1    1    2  501    0 -0.64855657868E+01 -0.19155491989E+01  0.11133906667E+02  0.13848673943E+02  0.47000000000E+01 0.  1.
         -5    1    1    2    0  503  0.64855657868E+01  0.19155491989E+01  0.14332494492E+02  0.16530042065E+02  0.47000000000E+01 0.  1.
<mgrwt>
<rscale>  2 0.82354048E+01</rscale>
<asrwt>0</asrwt>
<pdfrwt beam="1">  1       21 0.42957780E-02 0.82354048E+01</pdfrwt>
<pdfrwt beam="2">  1       21 0.37787039E-03 0.82354048E+01</pdfrwt>
<totfact> 0.19155936E+09</totfact>
</mgrwt>
</event>
<event>
 4    1  0.3999109E+006  0.6521138E+01  0.7546771E-02  0.2352160E+00
         21   -1    0    0  501  502  0.00000000000E+00  0.00000000000E+00  0.13561069724E+03  0.13561069724E+03  0.00000000000E+00 0.  1.
         21   -1    0    0  502  503 -0.00000000000E+00 -0.00000000000E+00 -0.34837581983E+00  0.34837581983E+00  0.00000000000E+00 0.  1.
          5    1    1    2  501    0 -0.44739918947E+01  0.64702222807E+00  0.89114289920E+02  0.89352570803E+02  0.47000000000E+01 0.  1.
         -5    1    1    2    0  503  0.44739918947E+01 -0.64702222807E+00  0.46148031504E+02  0.46606502260E+02  0.47000000000E+01 0.  1.
<mgrwt>
<rscale>  2 0.65211380E+01</rscale>
<asrwt>0</asrwt>
<pdfrwt beam="1">  1       21 0.20863142E-01 0.65211380E+01</pdfrwt>
<pdfrwt beam="2">  1       21 0.53596388E-04 0.65211380E+01</pdfrwt>
<totfact> 0.20002797E+09</totfact>
</mgrwt>
</event>
<event>
 4    1  0.3999109E+006  0.7132804E+01  0.7546771E-02  0.2287810E+00
         21   -1    0    0  503  502  0.00000000000E+00  0.00000000000E+00  0.16736683940E+02  0.16736683940E+02  0.00000000000E+00 0.  1.
         21   -1    0    0  501  503 -0.00000000000E+00 -0.00000000000E+00 -0.32499084931E+01  0.32499084931E+01  0.00000000000E+00 0. -1.
          5    1    1    2  501    0 -0.52679686346E+01  0.10175473849E+01  0.42027060020E+01  0.82788667072E+01  0.47000000000E+01 0. -1.
         -5    1    1    2    0  502  0.52679686346E+01 -0.10175473849E+01  0.92840694448E+01  0.11707725726E+02  0.47000000000E+01 0.  1.
<mgrwt>
<rscale>  2 0.71328042E+01</rscale>
<asrwt>0</asrwt>
<pdfrwt beam="1">  1       21 0.25748744E-02 0.71328042E+01</pdfrwt>
<pdfrwt beam="2">  1       21 0.49998593E-03 0.71328042E+01</pdfrwt>
<totfact> 0.24859347E+09</totfact>
</mgrwt>
</event>
<event>
 4    1  0.3999109E+006  0.5427190E+01  0.7546771E-02  0.2496528E+00
         21   -1    0    0  503  502  0.00000000000E+00  0.00000000000E+00  0.21457630962E+00  0.21457630962E+00  0.00000000000E+00 0. -1.
         21   -1    0    0  501  503 -0.00000000000E+00 -0.00000000000E+00 -0.16158089151E+03  0.16158089151E+03  0.00000000000E+00 0. -1.
          5    1    1    2  501    0 -0.25023476549E+01 -0.10500688966E+01 -0.11206386113E+03  0.11219520204E+03  0.47000000000E+01 0. -1.
         -5    1    1    2    0  502  0.25023476549E+01  0.10500688966E+01 -0.49302454074E+02  0.49600265788E+02  0.47000000000E+01 0. -1.
<mgrwt>
<rscale>  2 0.54271897E+01</rscale>
<asrwt>0</asrwt>
<pdfrwt beam="1">  1       21 0.33011781E-04 0.54271897E+01</pdfrwt>
<pdfrwt beam="2">  1       21 0.24858568E-01 0.54271897E+01</pdfrwt>
<totfact> 0.24711101E+09</totfact>
</mgrwt>
</event>
<event>
 4    1  0.3999109E+006  0.6798793E+01  0.7546771E-02  0.2321769E+00
         21   -1    0    0  503  502  0.00000000000E+00  0.00000000000E+00  0.33570911237E+03  0.33570911237E+03  0.00000000000E+00 0. -1.
         21   -1    0    0  501  503 -0.00000000000E+00 -0.00000000000E+00 -0.20083276429E+00  0.20083276429E+00  0.00000000000E+00 0. -1.
          5    1    1    2  501    0 -0.15729774246E+01 -0.46539579298E+01  0.73578304335E+02  0.73891748194E+02  0.47000000000E+01 0. -1.
         -5    1    1    2    0  502  0.15729774246E+01  0.46539579298E+01  0.26192997527E+03  0.26201819694E+03  0.47000000000E+01 0. -1.
<mgrwt>
<rscale>  2 0.67987927E+01</rscale>
<asrwt>0</asrwt>
<pdfrwt beam="1">  1       21 0.51647106E-01 0.67987927E+01</pdfrwt>
<pdfrwt beam="2">  1       21 0.30897617E-04 0.67987927E+01</pdfrwt>
<totfact> 0.90817676E+08</totfact>
</mgrwt>
</event>
<event>
 4    1  0.3999109E+006  0.5394253E+01  0.7546771E-02  0.2501632E+00
         21   -1    0    0  501  502  0.00000000000E+00  0.00000000000E+00  0.20850364981E+01  0.20850364981E+01  0.00000000000E+00 0.  1.
         21   -1    0    0  502  503 -0.00000000000E+00 -0.00000000000E+00 -0.19009458016E+02  0.19009458016E+02  0.00000000000E+00 0. -1.
          5    1    1    2  501    0 -0.17799497326E+01 -0.19595264314E+01 -0.30238856137E+01  0.61839994414E+01  0.47000000000E+01 0.  1.
         -5    1    1    2    0  503  0.17799497326E+01  0.19595264314E+01 -0.13900535904E+02  0.14910495072E+02  0.47000000000E+01 0. -1.
<mgrwt>
<rscale>  2 0.53942529E+01</rscale>
<asrwt>0</asrwt>
<pdfrwt beam="1">  1       21 0.32077486E-03 0.53942529E+01</pdfrwt>
<pdfrwt beam="2">  1       21 0.29245319E-02 0.53942529E+01</pdfrwt>
<totfact> 0.30065346E+09</totfact>
</mgrwt>
</event>
<event>
 4    1  0.3999109E+006  0.9926048E+01  0.7546771E-02  0.2079221E+00
         21   -1    0    0  503  502  0.00000000000E+00  0.00000000000E+00  0.17906165099E+01  0.17906165099E+01  0.00000000000E+00 0. -1.
         21   -1    0    0  501  503 -0.00000000000E+00 -0.00000000000E+00 -0.15472393786E+03  0.15472393786E+03  0.00000000000E+00 0. -1.
          5    1    1    2  501    0  0.53089137903E+01  0.69463562837E+01 -0.13928608778E+03  0.13963932355E+03  0.47000000000E+01 0. -1.
         -5    1    1    2    0  502 -0.53089137903E+01 -0.69463562837E+01 -0.13647233570E+02  0.16875230824E+02  0.47000000000E+01 0. -1.
<mgrwt>
<rscale>  2 0.99260481E+01</rscale>
<asrwt>0</asrwt>
<pdfrwt beam="1">  1       21 0.27547934E-03 0.99260481E+01</pdfrwt>
<pdfrwt beam="2">  1       21 0.23803693E-01 0.99260481E+01</pdfrwt>
<totfact> 0.22018702E+08</totfact>
</mgrwt>
</event>
<event>
 4    1  0.3999109E+006  0.4825747E+01  0.7546771E-02  0.2599027E+00
         21   -1    0    0  501  502  0.00000000000E+00  0.00000000000E+00  0.20872147047E+03  0.20872147047E+03  0.00000000000E+00 0. -1.
         21   -1    0    0  502  503 -0.00000000000E+00 -0.00000000000E+00 -0.11632842180E+00  0.11632842180E+00  0.00000000000E+00 0. -1.
          5    1    1    2  501    0  0.10879504934E+01  0.11913943535E+00  0.12541304226E+03  0.12550585245E+03  0.47000000000E+01 0. -1.
         -5    1    1    2    0  503 -0.10879504934E+01 -0.11913943535E+00  0.83192099782E+02  0.83331946434E+02  0.47000000000E+01 0. -1.
<mgrwt>
<rscale>  2 0.48257466E+01</rscale>
<asrwt>0</asrwt>
<pdfrwt beam="1">  1       21 0.32110696E-01 0.48257466E+01</pdfrwt>
<pdfrwt beam="2">  1       21 0.17896847E-04 0.48257466E+01</pdfrwt>
<totfact> 0.32734204E+09</totfact>
</mgrwt>
</event>
<event>
 4    1  0.3999109E+006  0.9270965E+01  0.7546771E-02  0.2119018E+00
         21   -1    0    0  503  502  0.00000000000E+00  0.00000000000E+00  0.67287219929E+02  0.67287219929E+02  0.00000000000E+00 0.  1.
         21   -1    0    0  501  503 -0.00000000000E+00 -0.00000000000E+00 -0.33138723576E+01  0.33138723576E+01  0.00000000000E+00 0. -1.
          5    1    1    2  501    0  0.16379968262E+01 -0.78216211023E+01  0.43137011265E+01  0.10225400123E+02  0.47000000000E+01 0. -1.
         -5    1    1    2    0  502 -0.16379968262E+01  0.78216211023E+01  0.59659646445E+02  0.60375692163E+02  0.47000000000E+01 0.  1.
<mgrwt>
<rscale>  2 0.92709649E+01</rscale>
<asrwt>0</asrwt>
<pdfrwt beam="1">  1       21 0.10351879E-01 0.92709649E+01</pdfrwt>
<pdfrwt beam="2">  1       21 0.50982657E-03 0.92709649E+01</pdfrwt>
<totfact> 0.34785281E+08</totfact>
</mgrwt>
</event>
<event>
 4    1  0.3999109E+006  0.5652925E+01  0.7546771E-02  0.2462910E+00
         21   -1    0    0  503  502  0.00000000000E+00  0.00000000000E+00  0.15778190328E+03  0.15778190328E+03  0.00000000000E+00 0. -1.
         21   -1    0    0  501  503 -0.00000000000E+00 -0.00000000000E+00 -0.23685924714E+00  0.23685924714E+00  0.00000000000E+00 0.  1.
          5    1    1    2  501    0 -0.21200091753E+01  0.23175688965E+01  0.48693355108E+02  0.49020387557E+02  0.47000000000E+01 0. -1.
         -5    1    1    2    0  502  0.21200091753E+01 -0.23175688965E+01  0.10885168892E+03  0.10899837497E+03  0.47000000000E+01 0. -1.
<mgrwt>
<rscale>  2 0.56529253E+01</rscale>
<asrwt>0</asrwt>
<pdfrwt beam="1">  1       21 0.24274055E-01 0.56529253E+01</pdfrwt>
<pdfrwt beam="2">  1       21 0.36440010E-04 0.56529253E+01</pdfrwt>
<totfact> 0.23326133E+09</totfact>
</mgrwt>
</event>
<event>
 4    1  0.3999109E+006  0.7872405E+01  0.7546771E-02  0.2221104E+00
         21   -1    0    0  501  502  0.00000000000E+00  0.00000000000E+00  0.39915160206E+01  0.39915160206E+01  0.00000000000E+00 0. -1.
         21   -1    0    0  502  503 -0.00000000000E+00 -0.00000000000E+00 -0.23469156698E+02  0.23469156698E+02  0.00000000000E+00 0. -1.
          5    1    1    2  501    0  0.62543216548E+01  0.87647925336E+00 -0.17512990201E+01  0.80648498746E+01  0.47000000000E+01 0. -1.
         -5    1    1    2    0  503 -0.62543216548E+01 -0.87647925336E+00 -0.17726341658E+02  0.19395822844E+02  0.47000000000E+01 0. -1.
<mgrwt>
<rscale>  2 0.78724047E+01</rscale>
<asrwt>0</asrwt>
<pdfrwt beam="1">  1       21 0.61407939E-03 0.78724047E+01</pdfrwt>
<pdfrwt beam="2">  1       21 0.36106395E-02 0.78724047E+01</pdfrwt>
<totfact> 0.12147039E+09</totfact>
</mgrwt>
</event>
<event>
 4    1  0.3999109E+006  0.8800751E+01  0.7546771E-02  0.2150438E+00
         21   -1    0    0  503  502  0.00000000000E+00  0.00000000000E+00  0.26767964047E+01  0.26767964047E+01  0.00000000000E+00 0. -1.
         21   -1    0    0  501  503 -0.00000000000E+00 -0.00000000000E+00 -0.51682843791E+02  0.51682843791E+02  0.00000000000E+00 0.  1.
          5    1    1    2  501    0 -0.36854481220E+01  0.64637978646E+01 -0.42534991144E+02  0.43435914660E+02  0.47000000000E+01 0.  1.
         -5    1    1    2    0  502  0.36854481220E+01 -0.64637978646E+01 -0.64710562421E+01  0.10923725536E+02  0.47000000000E+01 0. -1.
<mgrwt>
<rscale>  2 0.88007506E+01</rscale>
<asrwt>0</asrwt>
<pdfrwt beam="1">  1       21 0.41181484E-03 0.88007506E+01</pdfrwt>
<pdfrwt beam="2">  1       21 0.79512066E-02 0.88007506E+01</pdfrwt>
<totfact> 0.69112252E+08</totfact>
</mgrwt>
</event>
<event>
 4    1  0.3999109E+006  0.1244622E+02  0.7546771E-02  0.1957744E+00
         21   -1    0    0  503  502  0.00000000000E+00  0.00000000000E+00  0.11699724111E+01  0.11699724111E+01  0.00000000000E+00 0.  1.
         21   -1    0    0  501  503 -0.00000000000E+00 -0.00000000000E+00 -0.28806236745E+03  0.28806236745E+03  0.00000000000E+00 0. -1.
          5    1    1    2  501    0  0.10742846317E+02  0.41725014082E+01 -0.24975284903E+03  0.25006278034E+03  0.47000000000E+01 0. -1.
         -5    1    1    2    0  502 -0.10742846317E+02 -0.41725014082E+01 -0.37139546011E+02  0.39169559519E+02  0.47000000000E+01 0.  1.
<mgrwt>
<rscale>  2 0.12446225E+02</rscale>
<asrwt>0</asrwt>
<pdfrwt beam="1">  1       21 0.17999559E-03 0.12446225E+02</pdfrwt>
<pdfrwt beam="2">  1       21 0.44317329E-01 0.12446225E+02</pdfrwt>
<totfact> 0.14692202E+08</totfact>
</mgrwt>
</event>
<event>
 4    1  0.3999109E+006  0.5569170E+01  0.7546771E-02  0.2475114E+00
         21   -1    0    0  501  502  0.00000000000E+00  0.00000000000E+00  0.94443324786E-01  0.94443324786E-01  0.00000000000E+00 0. -1.
         21   -1    0    0  502  503 -0.00000000000E+00 -0.00000000000E+00 -0.33828826078E+03  0.33828826078E+03  0.00000000000E+00 0.  1.
          5    1    1    2  501    0 -0.12815567817E+01 -0.26987526362E+01 -0.14017770458E+03  0.14028829073E+03  0.47000000000E+01 0. -1.
         -5    1    1    2    0  503  0.12815567817E+01  0.26987526362E+01 -0.19801611288E+03  0.19809441338E+03  0.47000000000E+01 0.  1.
<mgrwt>
<rscale>  2 0.55691699E+01</rscale>
<asrwt>0</asrwt>
<pdfrwt beam="1">  1       21 0.14529413E-04 0.55691699E+01</pdfrwt>
<pdfrwt beam="2">  1       21 0.52045528E-01 0.55691699E+01</pdfrwt>
<totfact> 0.21197913E+09</totfact>
</mgrwt>
</event>
<event>
 4    1  0.3999109E+006  0.5565416E+01  0.7546771E-02  0.2475668E+00
         21   -1    0    0  503  502  0.00000000000E+00  0.00000000000E+00  0.27187267914E+01  0.27187267914E+01  0.00000000000E+00 0. -1.
         21   -1    0    0  501  503 -0.00000000000E+00 -0.00000000000E+00 -0.21400297330E+02  0.21400297330E+02  0.00000000000E+00 0. -1.
          5    1    1    2  501    0  0.29790773183E+01  0.94602613061E-01 -0.17587539406E+02  0.18447097161E+02  0.47000000000E+01 0. -1.
         -5    1    1    2    0  502 -0.29790773183E+01 -0.94602613061E-01 -0.10940311328E+01  0.56719269602E+01  0.47000000000E+01 0. -1.
<mgrwt>
<rscale>  2 0.55654156E+01</rscale>
<asrwt>0</asrwt>
<pdfrwt beam="1">  1       21 0.41826567E-03 0.55654156E+01</pdfrwt>
<pdfrwt beam="2">  1       21 0.32923534E-02 0.55654156E+01</pdfrwt>
<totfact> 0.18113306E+09</totfact>
</mgrwt>
</event>
<event>
 4    1  0.3999109E+006  0.1262698E+02  0.7546771E-02  0.1950499E+00
         21   -1    0    0  503  502  0.00000000000E+00  0.00000000000E+00  0.14312886661E+02  0.14312886661E+02  0.00000000000E+00 0. -1.
         21   -1    0    0  501  503 -0.00000000000E+00 -0.00000000000E+00 -0.11343149909E+02  0.11343149909E+02  0.00000000000E+00 0.  1.
          5    1    1    2  501    0 -0.74927040026E+01  0.90116580455E+01 -0.23332249217E+00  0.12629134309E+02  0.47000000000E+01 0.  1.
         -5    1    1    2    0  502  0.74927040026E+01 -0.90116580455E+01  0.32030592439E+01  0.13026902261E+02  0.47000000000E+01 0. -1.
<mgrwt>
<rscale>  2 0.12626979E+02</rscale>
<asrwt>0</asrwt>
<pdfrwt beam="1">  1       21 0.22019826E-02 0.12626979E+02</pdfrwt>
<pdfrwt beam="2">  1       21 0.17451000E-02 0.12626979E+02</pdfrwt>
<totfact> 0.73630790E+08</totfact>
</mgrwt>
</event>
<event>
 4    1  0.3999109E+006  0.1007717E+02  0.7546771E-02  0.2070622E+00
         21   -1    0    0  501  502  0.00000000000E+00  0.00000000000E+00  0.25016355065E+01  0.25016355065E+01  0.00000000000E+00 0.  1.
         21   -1    0    0  502  503 -0.00000000000E+00 -0.00000000000E+00 -0.59695191286E+02  0.59695191286E+02  0.00000000000E+00 0. -1.
          5    1    1    2  501    0 -0.82836354850E+01  0.32925269653E+01 -0.46188488025E+02  0.47275001605E+02  0.47000000000E+01 0. -1.
         -5    1    1    2    0  503  0.82836354850E+01 -0.32925269653E+01 -0.11005067755E+02  0.14921825188E+02  0.47000000000E+01 0.  1.
<mgrwt>
<rscale>  2 0.10077170E+02</rscale>
<asrwt>0</asrwt>
<pdfrwt beam="1">  1       21 0.38486698E-03 0.10077170E+02</pdfrwt>
<pdfrwt beam="2">  1       21 0.91838761E-02 0.10077170E+02</pdfrwt>
<totfact> 0.65587372E+08</totfact>
</mgrwt>
</event>
<event>
 4    1  0.3999109E+006  0.6511571E+01  0.7546771E-02  0.2353245E+00
         21   -1    0    0  503  502  0.00000000000E+00  0.00000000000E+00  0.51424721141E+03  0.51424721141E+03  0.00000000000E+00 0. -1.
         21   -1    0    0  501  503 -0.00000000000E+00 -0.00000000000E+00 -0.85055072007E-01  0.85055072007E-01  0.00000000000E+00 0. -1.
          5    1    1    2  501    0  0.12004775175E+01  0.43438938058E+01  0.21208949067E+03  0.21218942625E+03  0.47000000000E+01 0. -1.
         -5    1    1    2    0  502 -0.12004775175E+01 -0.43438938058E+01  0.30207266567E+03  0.30214284023E+03  0.47000000000E+01 0. -1.
<mgrwt>
<rscale>  2 0.65115712E+01</rscale>
<asrwt>0</asrwt>
<pdfrwt beam="1">  1       21 0.79112466E-01 0.65115712E+01</pdfrwt>
<pdfrwt beam="2">  1       21 0.13085807E-04 0.65115712E+01</pdfrwt>
<totfact> 0.12457444E+09</totfact>
</mgrwt>
</event>
<event>
 4    1  0.3999109E+006  0.4706071E+01  0.7546771E-02  0.2622096E+00
         21   -1    0    0  503  502  0.00000000000E+00  0.00000000000E+00  0.24851662686E+01  0.24851662686E+01  0.00000000000E+00 0. -1.
         21   -1    0    0  501  503 -0.00000000000E+00 -0.00000000000E+00 -0.12434468186E+02  0.12434468186E+02  0.00000000000E+00 0. -1.
          5    1    1    2  501    0  0.22254323494E+00 -0.87075666475E-01 -0.89452436284E+01  0.10107645187E+02  0.47000000000E+01 0. -1.
         -5    1    1    2    0  502 -0.22254323494E+00  0.87075666475E-01 -0.10040582893E+01  0.48119892676E+01  0.47000000000E+01 0. -1.
<mgrwt>
<rscale>  2 0.47060714E+01</rscale>
<asrwt>0</asrwt>
<pdfrwt beam="1">  1       21 0.38233327E-03 0.47060714E+01</pdfrwt>
<pdfrwt beam="2">  1       21 0.19129951E-02 0.47060714E+01</pdfrwt>
<totfact> 0.37666369E+09</totfact>
</mgrwt>
</event>
<event>
 4    1  0.3999109E+006  0.5247452E+01  0.7546771E-02  0.2525043E+00
         21   -1    0    0  503  502  0.00000000000E+00  0.00000000000E+00  0.63470218543E+01  0.63470218543E+01  0.00000000000E+00 0. -1.
         21   -1    0    0  501  503 -0.00000000000E+00 -0.00000000000E+00 -0.55230119718E+01  0.55230119718E+01  0.00000000000E+00 0. -1.
          5    1    1    2  501    0  0.51527830127E+00 -0.22760142001E+01 -0.23366919888E+01  0.57442041936E+01  0.47000000000E+01 0. -1.
         -5    1    1    2    0  502 -0.51527830127E+00  0.22760142001E+01  0.31607018714E+01  0.61258296325E+01  0.47000000000E+01 0. -1.
<mgrwt>
<rscale>  2 0.52474520E+01</rscale>
<asrwt>0</asrwt>
<pdfrwt beam="1">  1       21 0.97646490E-03 0.52474520E+01</pdfrwt>
<pdfrwt beam="2">  1       21 0.84969415E-03 0.52474520E+01</pdfrwt>
<totfact> 0.36149241E+09</totfact>
</mgrwt>
</event>
<event>
 4    1  0.3999109E+006  0.6623501E+01  0.7546771E-02  0.2340711E+00
         21   -1    0    0  503  502  0.00000000000E+00  0.00000000000E+00  0.10563545536E+00  0.10563545536E+00  0.00000000000E+00 0. -1.
         21   -1    0    0  501  503 -0.00000000000E+00 -0.00000000000E+00 -0.59103110071E+03  0.59103110071E+03  0.00000000000E+00 0. -1.
          5    1    1    2  501    0 -0.46628133179E+01 -0.19733761819E+00 -0.45662850909E+03  0.45667654426E+03  0.47000000000E+01 0. -1.
         -5    1    1    2    0  502  0.46628133179E+01  0.19733761819E+00 -0.13429695617E+03  0.13446019190E+03  0.47000000000E+01 0. -1.
<mgrwt>
<rscale>  2 0.66235014E+01</rscale>
<asrwt>0</asrwt>
<pdfrwt beam="1">  1       21 0.16251659E-04 0.66235014E+01</pdfrwt>
<pdfrwt beam="2">  1       21 0.90927582E-01 0.66235014E+01</pdfrwt>
<totfact> 0.71635410E+08</totfact>
</mgrwt>
</event>
<event>
 4    1  0.3999109E+006  0.1050443E+02  0.7546771E-02  0.2047367E+00
         21   -1    0    0  501  502  0.00000000000E+00  0.00000000000E+00  0.37739659285E+02  0.37739659285E+02  0.00000000000E+00 0. -1.
         21   -1    0    0  502  503 -0.00000000000E+00 -0.00000000000E+00 -0.44779104766E+01  0.44779104766E+01  0.00000000000E+00 0. -1.
          5    1    1    2  501    0 -0.54401154830E+01  0.76588684102E+01  0.29066476655E+02  0.30906361593E+02  0.47000000000E+01 0. -1.
         -5    1    1    2    0  503  0.54401154830E+01 -0.76588684102E+01  0.41952721535E+01  0.11311208169E+02  0.47000000000E+01 0. -1.
<mgrwt>
<rscale>  2 0.10504433E+02</rscale>
<asrwt>0</asrwt>
<pdfrwt beam="1">  1       21 0.58061012E-02 0.10504433E+02</pdfrwt>
<pdfrwt beam="2">  1       21 0.68890933E-03 0.10504433E+02</pdfrwt>
<totfact> 0.59722855E+08</totfact>
</mgrwt>
</event>
<event>
 4    1  0.3999109E+006  0.8276166E+01  0.7546771E-02  0.2188808E+00
         21   -1    0    0  501  502  0.00000000000E+00  0.00000000000E+00  0.60567258865E+01  0.60567258865E+01  0.00000000000E+00 0.  1.
         21   -1    0    0  502  503 -0.00000000000E+00 -0.00000000000E+00 -0.49066605335E+02  0.49066605335E+02  0.00000000000E+00 0. -1.
          5    1    1    2  501    0 -0.67943510653E+01 -0.49164768672E+00  0.26727741635E+01  0.86970480955E+01  0.47000000000E+01 0.  1.
         -5    1    1    2    0  503  0.67943510653E+01  0.49164768672E+00 -0.45682653612E+02  0.46426283126E+02  0.47000000000E+01 0. -1.
<mgrwt>
<rscale>  2 0.82761660E+01</rscale>
<asrwt>0</asrwt>
<pdfrwt beam="1">  1       21 0.93180396E-03 0.82761660E+01</pdfrwt>
<pdfrwt beam="2">  1       21 0.75487087E-02 0.82761660E+01</pdfrwt>
<totfact> 0.22609717E+08</totfact>
</mgrwt>
</event>
<event>
 4    1  0.3999109E+006  0.7723235E+01  0.7546771E-02  0.2233720E+00
         21   -1    0    0  501  502  0.00000000000E+00  0.00000000000E+00  0.10156314941E+01  0.10156314941E+01  0.00000000000E+00 0. -1.
         21   -1    0    0  502  503 -0.00000000000E+00 -0.00000000000E+00 -0.59516485270E+02  0.59516485270E+02  0.00000000000E+00 0. -1.
          5    1    1    2  501    0 -0.31792783595E+01 -0.52393271430E+01 -0.32728950296E+02  0.33627853742E+02  0.47000000000E+01 0. -1.
         -5    1    1    2    0  503  0.31792783595E+01  0.52393271430E+01 -0.25771903479E+02  0.26904263022E+02  0.47000000000E+01 0. -1.
<mgrwt>
<rscale>  2 0.77232351E+01</rscale>
<asrwt>0</asrwt>
<pdfrwt beam="1">  1       21 0.15625099E-03 0.77232351E+01</pdfrwt>
<pdfrwt beam="2">  1       21 0.91563830E-02 0.77232351E+01</pdfrwt>
<totfact> 0.19653224E+09</totfact>
</mgrwt>
</event>
<event>
 4    1  0.3999109E+006  0.4974395E+01  0.7546771E-02  0.2571716E+00
         21   -1    0    0  503  502  0.00000000000E+00  0.00000000000E+00  0.25687873026E+03  0.25687873026E+03  0.00000000000E+00 0. -1.
         21   -1    0    0  501  503 -0.00000000000E+00 -0.00000000000E+00 -0.10639953088E+00  0.10639953088E+00  0.00000000000E+00 0. -1.
          5    1    1    2  501    0  0.70737149620E+00 -0.14677282521E+01  0.16791891605E+03  0.16799258010E+03  0.47000000000E+01 0.  1.
         -5    1    1    2    0  502 -0.70737149620E+00  0.14677282521E+01  0.88853414671E+02  0.88992549685E+02  0.47000000000E+01 0.  1.
<mgrwt>
<rscale>  2 0.49743945E+01</rscale>
<asrwt>0</asrwt>
<pdfrwt beam="1">  1       21 0.39519308E-01 0.49743945E+01</pdfrwt>
<pdfrwt beam="2">  1       21 0.16369364E-04 0.49743945E+01</pdfrwt>
<totfact> 0.26674088E+09</totfact>
</mgrwt>
</event>
<event>
 4    1  0.3999109E+006  0.2219095E+02  0.7546771E-02  0.1704970E+00
         21   -1    0    0  501  502  0.00000000000E+00  0.00000000000E+00  0.50050664018E+03  0.50050664018E+03  0.00000000000E+00 0. -1.
         21   -1    0    0  502  503 -0.00000000000E+00 -0.00000000000E+00 -0.11256791426E+01  0.11256791426E+01  0.00000000000E+00 0.  1.
          5    1    1    2  501    0  0.68093669704E+01 -0.20590788862E+02  0.33871020730E+03  0.33943636015E+03  0.47000000000E+01 0. -1.
         -5    1    1    2    0  503 -0.68093669704E+01  0.20590788862E+02  0.16067075374E+03  0.16219595917E+03  0.47000000000E+01 0.  1.
<mgrwt>
<rscale>  2 0.22190946E+02</rscale>
<asrwt>0</asrwt>
<pdfrwt beam="1">  1       21 0.77000844E-01 0.22190946E+02</pdfrwt>
<pdfrwt beam="2">  1       21 0.17318181E-03 0.22190946E+02</pdfrwt>
<totfact> 0.62714566E+07</totfact>
</mgrwt>
</event>
<event>
 4    1  0.3999109E+006  0.5355789E+01  0.7546771E-02  0.2507660E+00
         21   -1    0    0  501  502  0.00000000000E+00  0.00000000000E+00  0.28081454826E+01  0.28081454826E+01  0.00000000000E+00 0.  1.
         21   -1    0    0  502  503 -0.00000000000E+00 -0.00000000000E+00 -0.10310038381E+02  0.10310038381E+02  0.00000000000E+00 0.  1.
          5    1    1    2  501    0  0.24492666392E+01  0.77173168686E+00 -0.31203440395E+01  0.61984694717E+01  0.47000000000E+01 0.  1.
         -5    1    1    2    0  503 -0.24492666392E+01 -0.77173168686E+00 -0.43815488593E+01  0.69197143924E+01  0.47000000000E+01 0.  1.
<mgrwt>
<rscale>  2 0.53557891E+01</rscale>
<asrwt>0</asrwt>
<pdfrwt beam="1">  1       21 0.43202240E-03 0.53557891E+01</pdfrwt>
<pdfrwt beam="2">  1       21 0.15861597E-02 0.53557891E+01</pdfrwt>
<totfact> 0.47568539E+09</totfact>
</mgrwt>
</event>
<event>
 4    1  0.3999109E+006  0.9038503E+01  0.7546771E-02  0.2134227E+00
         21   -1    0    0  501  502  0.00000000000E+00  0.00000000000E+00  0.19040112587E+01  0.19040112587E+01  0.00000000000E+00 0. -1.
         21   -1    0    0  502  503 -0.00000000000E+00 -0.00000000000E+00 -0.23026005510E+03  0.23026005510E+03  0.00000000000E+00 0. -1.
          5    1    1    2  501    0 -0.23160930775E+01  0.73647980451E+01 -0.94683917772E+01  0.13089880833E+02  0.47000000000E+01 0. -1.
         -5    1    1    2    0  503  0.23160930775E+01 -0.73647980451E+01 -0.21888765207E+03  0.21907418553E+03  0.47000000000E+01 0. -1.
<mgrwt>
<rscale>  2 0.90385031E+01</rscale>
<asrwt>0</asrwt>
<pdfrwt beam="1">  1       21 0.29292491E-03 0.90385031E+01</pdfrwt>
<pdfrwt beam="2">  1       21 0.35424612E-01 0.90385031E+01</pdfrwt>
<totfact> 0.97069964E+07</totfact>
</mgrwt>
</event>
<event>
 4    1  0.3999109E+006  0.1655702E+02  0.7546771E-02  0.1823967E+00
         21   -1    0    0  503  502  0.00000000000E+00  0.00000000000E+00  0.10380494899E+02  0.10380494899E+02  0.00000000000E+00 0.  1.
         21   -1    0    0  501  503 -0.00000000000E+00 -0.00000000000E+00 -0.56554486470E+02  0.56554486470E+02  0.00000000000E+00 0. -1.
          5    1    1    2  501    0 -0.70203198615E+01  0.14239379147E+02 -0.47521488202E+02  0.50323221781E+02  0.47000000000E+01 0. -1.
         -5    1    1    2    0  502  0.70203198615E+01 -0.14239379147E+02  0.13474966318E+01  0.16611759588E+02  0.47000000000E+01 0.  1.
<mgrwt>
<rscale>  2 0.16557017E+02</rscale>
<asrwt>0</asrwt>
<pdfrwt beam="1">  1       21 0.15969992E-02 0.16557017E+02</pdfrwt>
<pdfrwt beam="2">  1       21 0.87006900E-02 0.16557017E+02</pdfrwt>
<totfact> 0.11150191E+08</totfact>
</mgrwt>
</event>
<event>
 4    1  0.3999109E+006  0.5688680E+01  0.7546771E-02  0.2457794E+00
         21   -1    0    0  503  502  0.00000000000E+00  0.00000000000E+00  0.61329167854E+03  0.61329167854E+03  0.00000000000E+00 0.  1.
         21   -1    0    0  501  503 -0.00000000000E+00 -0.00000000000E+00 -0.28164803624E+00  0.28164803624E+00  0.00000000000E+00 0.  1.
          5    1    1    2  501    0  0.30592440355E+01  0.95504196056E+00  0.29945398610E+02  0.30480944492E+02  0.47000000000E+01 0.  1.
         -5    1    1    2    0  502 -0.30592440355E+01 -0.95504196056E+00  0.58306463190E+03  0.58309238209E+03  0.47000000000E+01 0.  1.
<mgrwt>
<rscale>  2 0.56886799E+01</rscale>
<asrwt>0</asrwt>
<pdfrwt beam="1">  1       21 0.94351497E-01 0.56886799E+01</pdfrwt>
<pdfrwt beam="2">  1       21 0.43330958E-04 0.56886799E+01</pdfrwt>
<totfact> 0.16302841E+08</totfact>
</mgrwt>
</event>
<event>
 4    1  0.3999109E+006  0.5647849E+01  0.7546771E-02  0.2463641E+00
         21   -1    0    0  501  502  0.00000000000E+00  0.00000000000E+00  0.80471796965E+01  0.80471796965E+01  0.00000000000E+00 0.  1.
         21   -1    0    0  502  503 -0.00000000000E+00 -0.00000000000E+00 -0.48284082144E+01  0.48284082144E+01  0.00000000000E+00 0.  1.
          5    1    1    2  501    0  0.28817754238E+01  0.12262015352E+01  0.43334674996E+01  0.71187878440E+01  0.47000000000E+01 0.  1.
         -5    1    1    2    0  503 -0.28817754238E+01 -0.12262015352E+01 -0.11146960175E+01  0.57568000669E+01  0.47000000000E+01 0.  1.
<mgrwt>
<rscale>  2 0.56478491E+01</rscale>
<asrwt>0</asrwt>
<pdfrwt beam="1">  1       21 0.12380276E-02 0.56478491E+01</pdfrwt>
<pdfrwt beam="2">  1       21 0.74283203E-03 0.56478491E+01</pdfrwt>
<totfact> 0.33541098E+09</totfact>
</mgrwt>
</event>
<event>
 4    1  0.3999109E+006  0.7609118E+01  0.7546771E-02  0.2243641E+00
         21   -1    0    0  501  502  0.00000000000E+00  0.00000000000E+00  0.58734520749E+02  0.58734520749E+02  0.00000000000E+00 0. -1.
         21   -1    0    0  502  503 -0.00000000000E+00 -0.00000000000E+00 -0.47803401728E+01  0.47803401728E+01  0.00000000000E+00 0. -1.
          5    1    1    2  501    0 -0.32088426468E+01 -0.50509413414E+01  0.55271282308E+02  0.55792592049E+02  0.47000000000E+01 0. -1.
         -5    1    1    2    0  503  0.32088426468E+01  0.50509413414E+01 -0.13171017322E+01  0.77222688725E+01  0.47000000000E+01 0. -1.
<mgrwt>
<rscale>  2 0.76091182E+01</rscale>
<asrwt>0</asrwt>
<pdfrwt beam="1">  1       21 0.90360796E-02 0.76091182E+01</pdfrwt>
<pdfrwt beam="2">  1       21 0.73543699E-03 0.76091182E+01</pdfrwt>
<totfact> 0.22847877E+08</totfact>
</mgrwt>
</event>
<event>
 4    1  0.3999109E+006  0.6519255E+01  0.7546771E-02  0.2352373E+00
         21   -1    0    0  501  502  0.00000000000E+00  0.00000000000E+00  0.10418514327E+02  0.10418514327E+02  0.00000000000E+00 0.  1.
         21   -1    0    0  502  503 -0.00000000000E+00 -0.00000000000E+00 -0.41734397210E+01  0.41734397210E+01  0.00000000000E+00 0.  1.
          5    1    1    2  501    0  0.18501770020E+01  0.41215932678E+01  0.42180698595E+01  0.77648438068E+01  0.47000000000E+01 0.  1.
         -5    1    1    2    0  503 -0.18501770020E+01 -0.41215932678E+01  0.20270047466E+01  0.68271102413E+01  0.47000000000E+01 0.  1.
<mgrwt>
<rscale>  2 0.65192550E+01</rscale>
<asrwt>0</asrwt>
<pdfrwt beam="1">  1       21 0.16028484E-02 0.65192550E+01</pdfrwt>
<pdfrwt beam="2">  1       21 0.64206765E-03 0.65192550E+01</pdfrwt>
<totfact> 0.32358361E+09</totfact>
</mgrwt>
</event>
<event>
 4    1  0.3999109E+006  0.5210934E+01  0.7546771E-02  0.2531042E+00
         21   -1    0    0  503  502  0.00000000000E+00  0.00000000000E+00  0.22458971647E+01  0.22458971647E+01  0.00000000000E+00 0. -1.
         21   -1    0    0  501  503 -0.00000000000E+00 -0.00000000000E+00 -0.12778145095E+02  0.12778145095E+02  0.00000000000E+00 0. -1.
          5    1    1    2  501    0 -0.22420312569E+00  0.22390986083E+01 -0.70088607108E+01  0.87337253268E+01  0.47000000000E+01 0. -1.
         -5    1    1    2    0  502  0.22420312569E+00 -0.22390986083E+01 -0.35233872197E+01  0.62903169332E+01  0.47000000000E+01 0. -1.
<mgrwt>
<rscale>  2 0.52109337E+01</rscale>
<asrwt>0</asrwt>
<pdfrwt beam="1">  1       21 0.34552264E-03 0.52109337E+01</pdfrwt>
<pdfrwt beam="2">  1       21 0.19658685E-02 0.52109337E+01</pdfrwt>
<totfact> 0.46326833E+09</totfact>
</mgrwt>
</event>
<event>
 4    1  0.3999109E+006  0.5709760E+01  0.7546771E-02  0.2454802E+00
         21   -1    0    0  503  502  0.00000000000E+00  0.00000000000E+00  0.15412810298E+01  0.15412810298E+01  0.00000000000E+00 0. -1.
         21   -1    0    0  501  503 -0.00000000000E+00 -0.00000000000E+00 -0.25524008359E+02  0.25524008359E+02  0.00000000000E+00 0.  1.
          5    1    1    2  501    0 -0.37692710285E+00 -0.32201379723E+01 -0.17592069073E+02  0.18495465846E+02  0.47000000000E+01 0.  1.
         -5    1    1    2    0  502  0.37692710285E+00  0.32201379723E+01 -0.63906582559E+01  0.85698235422E+01  0.47000000000E+01 0. -1.
<mgrwt>
<rscale>  2 0.57097603E+01</rscale>
<asrwt>0</asrwt>
<pdfrwt beam="1">  1       21 0.23712017E-03 0.57097603E+01</pdfrwt>
<pdfrwt beam="2">  1       21 0.39267703E-02 0.57097603E+01</pdfrwt>
<totfact> 0.31194188E+09</totfact>
</mgrwt>
</event>
<event>
 4    1  0.3999109E+006  0.4781977E+01  0.7546771E-02  0.2607348E+00
         21   -1    0    0  503  502  0.00000000000E+00  0.00000000000E+00  0.64526331344E+01  0.64526331344E+01  0.00000000000E+00 0.  1.
         21   -1    0    0  501  503 -0.00000000000E+00 -0.00000000000E+00 -0.37092375608E+01  0.37092375608E+01  0.00000000000E+00 0.  1.
          5    1    1    2  501    0 -0.84095498892E+00 -0.26476113585E+00  0.29888408018E+00  0.47913083230E+01  0.47000000000E+01 0.  1.
         -5    1    1    2    0  502  0.84095498892E+00  0.26476113585E+00  0.24445114935E+01  0.53705623722E+01  0.47000000000E+01 0.  1.
<mgrwt>
<rscale>  2 0.47819770E+01</rscale>
<asrwt>0</asrwt>
<pdfrwt beam="1">  1       21 0.99271279E-03 0.47819770E+01</pdfrwt>
<pdfrwt beam="2">  1       21 0.57065193E-03 0.47819770E+01</pdfrwt>
<totfact> 0.55544148E+09</totfact>
</mgrwt>
</event>
<event>
 4    1  0.3999109E+006  0.4721773E+01  0.7546771E-02  0.2619011E+00
         21   -1    0    0  501  502  0.00000000000E+00  0.00000000000E+00  0.59513017736E+00  0.59513017736E+00  0.00000000000E+00 0. -1.
         21   -1    0    0  502  503 -0.00000000000E+00 -0.00000000000E+00 -0.37971478695E+02  0.37971478695E+02  0.00000000000E+00 0. -1.
          5    1    1    2  501    0  0.36385111429E+00  0.26972556912E+00 -0.16455894837E+02  0.17119918644E+02  0.47000000000E+01 0. -1.
         -5    1    1    2    0  503 -0.36385111429E+00 -0.26972556912E+00 -0.20920453681E+02  0.21446690228E+02  0.47000000000E+01 0. -1.
<mgrwt>
<rscale>  2 0.47217729E+01</rscale>
<asrwt>0</asrwt>
<pdfrwt beam="1">  1       21 0.91558468E-04 0.47217729E+01</pdfrwt>
<pdfrwt beam="2">  1       21 0.58417673E-02 0.47217729E+01</pdfrwt>
<totfact> 0.51664506E+09</totfact>
</mgrwt>
</event>
<event>
 4    1  0.3999109E+006  0.5198327E+01  0.7546771E-02  0.2533129E+00
         21   -1    0    0  503  502  0.00000000000E+00  0.00000000000E+00  0.57781653922E+01  0.57781653922E+01  0.00000000000E+00 0.  1.
         21   -1    0    0  501  503 -0.00000000000E+00 -0.00000000000E+00 -0.47220137847E+01  0.47220137847E+01  0.00000000000E+00 0.  1.
          5    1    1    2  501    0  0.36061655545E+00 -0.21914747541E+01  0.10425155239E+01  0.53018340709E+01  0.47000000000E+01 0.  1.
         -5    1    1    2    0  502 -0.36061655545E+00  0.21914747541E+01  0.13636083557E-01  0.51983451060E+01  0.47000000000E+01 0.  1.
<mgrwt>
<rscale>  2 0.51983272E+01</rscale>
<asrwt>0</asrwt>
<pdfrwt beam="1">  1       21 0.88894852E-03 0.51983272E+01</pdfrwt>
<pdfrwt beam="2">  1       21 0.72646366E-03 0.51983272E+01</pdfrwt>
<totfact> 0.50757371E+09</totfact>
</mgrwt>
</event>
<event>
 4    1  0.3999109E+006  0.6087838E+01  0.7546771E-02  0.2404130E+00
         21   -1    0    0  503  502  0.00000000000E+00  0.00000000000E+00  0.42183971529E+02  0.42183971529E+02  0.00000000000E+00 0.  1.
         21   -1    0    0  501  503 -0.00000000000E+00 -0.00000000000E+00 -0.36021753003E+01  0.36021753003E+01  0.00000000000E+00 0. -1.
          5    1    1    2  501    0 -0.38671223930E+01  0.13089914600E+00 -0.61553227281E+00  0.61188765446E+01  0.47000000000E+01 0. -1.
         -5    1    1    2    0  502  0.38671223930E+01 -0.13089914600E+00  0.39197328501E+02  0.39667270285E+02  0.47000000000E+01 0.  1.
<mgrwt>
<rscale>  2 0.60878379E+01</rscale>
<asrwt>0</asrwt>
<pdfrwt beam="1">  1       21 0.64898414E-02 0.60878379E+01</pdfrwt>
<pdfrwt beam="2">  1       21 0.55418084E-03 0.60878379E+01</pdfrwt>
<totfact> 0.48520193E+08</totfact>
</mgrwt>
</event>
<event>
 4    1  0.3999109E+006  0.4941601E+01  0.7546771E-02  0.2577619E+00
         21   -1    0    0  501  502  0.00000000000E+00  0.00000000000E+00  0.14729026473E+01  0.14729026473E+01  0.00000000000E+00 0. -1.
         21   -1    0    0  502  503 -0.00000000000E+00 -0.00000000000E+00 -0.36512127904E+02  0.36512127904E+02  0.00000000000E+00 0. -1.
          5    1    1    2  501    0 -0.30660978197E+00 -0.14951280972E+01 -0.34866159730E+01  0.60478019584E+01  0.47000000000E+01 0. -1.
         -5    1    1    2    0  503  0.30660978197E+00  0.14951280972E+01 -0.31552609284E+02  0.31937228593E+02  0.47000000000E+01 0. -1.
<mgrwt>
<rscale>  2 0.49416007E+01</rscale>
<asrwt>0</asrwt>
<pdfrwt beam="1">  1       21 0.22660041E-03 0.49416007E+01</pdfrwt>
<pdfrwt beam="2">  1       21 0.56172503E-02 0.49416007E+01</pdfrwt>
<totfact> 0.17120766E+09</totfact>
</mgrwt>
</event>
<event>
 4    1  0.3999109E+006  0.5763512E+01  0.7546771E-02  0.2447258E+00
         21   -1    0    0  503  502  0.00000000000E+00  0.00000000000E+00  0.44599922699E+00  0.44599922699E+00  0.00000000000E+00 0. -1.
         21   -1    0    0  501  503 -0.00000000000E+00 -0.00000000000E+00 -0.11789257171E+03  0.11789257171E+03  0.00000000000E+00 0. -1.
          5    1    1    2  501    0 -0.22314194032E+01  0.24796862262E+01 -0.94628726506E+02  0.94804081961E+02  0.47000000000E+01 0. -1.
         -5    1    1    2    0  502  0.22314194032E+01 -0.24796862262E+01 -0.22817845981E+02  0.23534488980E+02  0.47000000000E+01 0. -1.
<mgrwt>
<rscale>  2 0.57635125E+01</rscale>
<asrwt>0</asrwt>
<pdfrwt beam="1">  1       21 0.68615252E-04 0.57635125E+01</pdfrwt>
<pdfrwt beam="2">  1       21 0.18137322E-01 0.57635125E+01</pdfrwt>
<totfact> 0.16325075E+09</totfact>
</mgrwt>
</event>
<event>
 4    1  0.3999109E+006  0.1093348E+02  0.7546771E-02  0.2025455E+00
         21   -1    0    0  501  502  0.00000000000E+00  0.00000000000E+00  0.35617303031E+02  0.35617303031E+02  0.00000000000E+00 0. -1.
         21   -1    0    0  502  503 -0.00000000000E+00 -0.00000000000E+00 -0.33568003612E+01  0.33568003612E+01  0.00000000000E+00 0. -1.
          5    1    1    2  501    0 -0.97376068795E+01 -0.16217330505E+01  0.15883498443E+02  0.19282803961E+02  0.47000000000E+01 0. -1.
         -5    1    1    2    0  503  0.97376068795E+01  0.16217330505E+01  0.16377004227E+02  0.19691299431E+02  0.47000000000E+01 0. -1.
<mgrwt>
<rscale>  2 0.10933481E+02</rscale>
<asrwt>0</asrwt>
<pdfrwt beam="1">  1       21 0.54795848E-02 0.10933481E+02</pdfrwt>
<pdfrwt beam="2">  1       21 0.51643085E-03 0.10933481E+02</pdfrwt>
<totfact> 0.10101082E+09</totfact>
</mgrwt>
</event>
<event>
 4    1  0.3999109E+006  0.8924924E+01  0.7546771E-02  0.2141886E+00
         21   -1    0    0  503  502  0.00000000000E+00  0.00000000000E+00  0.56898458694E+03  0.56898458694E+03  0.00000000000E+00 0. -1.
         21   -1    0    0  501  503 -0.00000000000E+00 -0.00000000000E+00 -0.52805373517E+00  0.52805373517E+00  0.00000000000E+00 0.  1.
          5    1    1    2  501    0  0.75567060524E+01 -0.67856844136E+00  0.40119279703E+02  0.41100010528E+02  0.47000000000E+01 0.  1.
         -5    1    1    2    0  502 -0.75567060524E+01  0.67856844136E+00  0.52833725350E+03  0.52841263015E+03  0.47000000000E+01 0. -1.
<mgrwt>
<rscale>  2 0.89249236E+01</rscale>
<asrwt>0</asrwt>
<pdfrwt beam="1">  1       21 0.87535600E-01 0.89249236E+01</pdfrwt>
<pdfrwt beam="2">  1       21 0.81239491E-04 0.89249236E+01</pdfrwt>
<totfact> 0.10330433E+08</totfact>
</mgrwt>
</event>
<event>
 4    1  0.3999109E+006  0.5971634E+01  0.7546771E-02  0.2419130E+00
         21   -1    0    0  501  502  0.00000000000E+00  0.00000000000E+00  0.70521484868E+00  0.70521484868E+00  0.00000000000E+00 0. -1.
         21   -1    0    0  502  503 -0.00000000000E+00 -0.00000000000E+00 -0.56705524248E+02  0.56705524248E+02  0.00000000000E+00 0. -1.
          5    1    1    2  501    0 -0.34522684030E+01  0.12854003517E+01 -0.18555373999E+02  0.19492622077E+02  0.47000000000E+01 0. -1.
         -5    1    1    2    0  503  0.34522684030E+01 -0.12854003517E+01 -0.37444935400E+02  0.37918117019E+02  0.47000000000E+01 0. -1.
<mgrwt>
<rscale>  2 0.59716339E+01</rscale>
<asrwt>0</asrwt>
<pdfrwt beam="1">  1       21 0.10849452E-03 0.59716339E+01</pdfrwt>
<pdfrwt beam="2">  1       21 0.87239324E-02 0.59716339E+01</pdfrwt>
<totfact> 0.28438208E+09</totfact>
</mgrwt>
</event>
<event>
 4    1  0.3999109E+006  0.4907738E+01  0.7546771E-02  0.2583786E+00
         21   -1    0    0  503  502  0.00000000000E+00  0.00000000000E+00  0.19589396132E+03  0.19589396132E+03  0.00000000000E+00 0.  1.
         21   -1    0    0  501  503 -0.00000000000E+00 -0.00000000000E+00 -0.15591736177E+00  0.15591736177E+00  0.00000000000E+00 0.  1.
          5    1    1    2  501    0 -0.10585593666E+01  0.93559579244E+00  0.52796997467E+02  0.53024605882E+02  0.47000000000E+01 0.  1.
         -5    1    1    2    0  502  0.10585593666E+01 -0.93559579244E+00  0.14294104650E+03  0.14302527280E+03  0.47000000000E+01 0.  1.
<mgrwt>
<rscale>  2 0.49077375E+01</rscale>
<asrwt>0</asrwt>
<pdfrwt beam="1">  1       21 0.30137336E-01 0.49077375E+01</pdfrwt>
<pdfrwt beam="2">  1       21 0.23987443E-04 0.49077375E+01</pdfrwt>
<totfact> 0.25088452E+09</totfact>
</mgrwt>
</event>
<event>
 4    1  0.3999109E+006  0.7680810E+01  0.7546771E-02  0.2237380E+00
         21   -1    0    0  503  502  0.00000000000E+00  0.00000000000E+00  0.91711476057E-01  0.91711476057E-01  0.00000000000E+00 0. -1.
         21   -1    0    0  501  503 -0.00000000000E+00 -0.00000000000E+00 -0.64375591388E+03  0.64375591388E+03  0.00000000000E+00 0.  1.
          5    1    1    2  501    0  0.52443860337E+01 -0.30661475025E+01 -0.33071577019E+03  0.33080495083E+03  0.47000000000E+01 0. -1.
         -5    1    1    2    0  502 -0.52443860337E+01  0.30661475025E+01 -0.31294843222E+03  0.31304267452E+03  0.47000000000E+01 0.  1.
<mgrwt>
<rscale>  2 0.76808102E+01</rscale>
<asrwt>0</asrwt>
<pdfrwt beam="1">  1       21 0.14109153E-04 0.76808102E+01</pdfrwt>
<pdfrwt beam="2">  1       21 0.99041511E-01 0.76808102E+01</pdfrwt>
<totfact> 0.79604401E+08</totfact>
</mgrwt>
</event>
<event>
 4    1  0.3999109E+006  0.5935825E+01  0.7546771E-02  0.2423852E+00
         21   -1    0    0  501  502  0.00000000000E+00  0.00000000000E+00  0.45829660242E+01  0.45829660242E+01  0.00000000000E+00 0.  1.
         21   -1    0    0  502  503 -0.00000000000E+00 -0.00000000000E+00 -0.80372766495E+01  0.80372766495E+01  0.00000000000E+00 0.  1.
          5    1    1    2  501    0  0.28075238080E+01 -0.22938683992E+01 -0.41179815094E+00  0.59500924263E+01  0.47000000000E+01 0.  1.
         -5    1    1    2    0  503 -0.28075238080E+01  0.22938683992E+01 -0.30425124744E+01  0.66701502473E+01  0.47000000000E+01 0.  1.
<mgrwt>
<rscale>  2 0.59358253E+01</rscale>
<asrwt>0</asrwt>
<pdfrwt beam="1">  1       21 0.70507170E-03 0.59358253E+01</pdfrwt>
<pdfrwt beam="2">  1       21 0.12365041E-02 0.59358253E+01</pdfrwt>
<totfact> 0.37827405E+09</totfact>
</mgrwt>
</event>
<event>
 4    1  0.3999109E+006  0.7790101E+01  0.7546771E-02  0.2228016E+00
         21   -1    0    0  501  502  0.00000000000E+00  0.00000000000E+00  0.73346865031E+02  0.73346865031E+02  0.00000000000E+00 0.  1.
         21   -1    0    0  502  503 -0.00000000000E+00 -0.00000000000E+00 -0.11457059880E+01  0.11457059880E+01  0.00000000000E+00 0. -1.
          5    1    1    2  501    0 -0.50814062995E+00 -0.61917252414E+01  0.55733413319E+02  0.56275207939E+02  0.47000000000E+01 0.  1.
         -5    1    1    2    0  503  0.50814062995E+00  0.61917252414E+01  0.16467745724E+02  0.18217363080E+02  0.47000000000E+01 0. -1.
<mgrwt>
<rscale>  2 0.77901007E+01</rscale>
<asrwt>0</asrwt>
<pdfrwt beam="1">  1       21 0.11284129E-01 0.77901007E+01</pdfrwt>
<pdfrwt beam="2">  1       21 0.17626252E-03 0.77901007E+01</pdfrwt>
<totfact> 0.12080213E+09</totfact>
</mgrwt>
</event>
<event>
 4    1  0.3999109E+006  0.5304606E+01  0.7546771E-02  0.2515797E+00
         21   -1    0    0  501  502  0.00000000000E+00  0.00000000000E+00  0.24535190696E+03  0.24535190696E+03  0.00000000000E+00 0.  1.
         21   -1    0    0  502  503 -0.00000000000E+00 -0.00000000000E+00 -0.16333627462E+00  0.16333627462E+00  0.00000000000E+00 0.  1.
          5    1    1    2  501    0 -0.20512564063E+01  0.13569052268E+01  0.18958925976E+03  0.18966345526E+03  0.47000000000E+01 0.  1.
         -5    1    1    2    0  503  0.20512564063E+01 -0.13569052268E+01  0.55599310929E+02  0.55851787979E+02  0.47000000000E+01 0.  1.
<mgrwt>
<rscale>  2 0.53046060E+01</rscale>
<asrwt>0</asrwt>
<pdfrwt beam="1">  1       21 0.37746152E-01 0.53046060E+01</pdfrwt>
<pdfrwt beam="2">  1       21 0.25128854E-04 0.53046060E+01</pdfrwt>
<totfact> 0.17302824E+09</totfact>
</mgrwt>
</event>
<event>
 4    1  0.3999109E+006  0.6273821E+01  0.7546771E-02  0.2381092E+00
         21   -1    0    0  501  502  0.00000000000E+00  0.00000000000E+00  0.29477309390E+01  0.29477309390E+01  0.00000000000E+00 0.  1.
         21   -1    0    0  502  503 -0.00000000000E+00 -0.00000000000E+00 -0.13655116492E+02  0.13655116492E+02  0.00000000000E+00 0. -1.
          5    1    1    2  501    0  0.27522014429E+01 -0.31138744418E+01 -0.41187500864E+01  0.75049936106E+01  0.47000000000E+01 0.  1.
         -5    1    1    2    0  503 -0.27522014429E+01  0.31138744418E+01 -0.65886354662E+01  0.90978538199E+01  0.47000000000E+01 0. -1.
<mgrwt>
<rscale>  2 0.62738208E+01</rscale>
<asrwt>0</asrwt>
<pdfrwt beam="1">  1       21 0.45349706E-03 0.62738208E+01</pdfrwt>
<pdfrwt beam="2">  1       21 0.21007872E-02 0.62738208E+01</pdfrwt>
<totfact> 0.34469225E+09</totfact>
</mgrwt>
</event>
<event>
 4    1  0.3999109E+006  0.1051351E+02  0.7546771E-02  0.2046889E+00
         21   -1    0    0  501  502  0.00000000000E+00  0.00000000000E+00  0.49544143459E+01  0.49544143459E+01  0.00000000000E+00 0.  1.
         21   -1    0    0  502  503 -0.00000000000E+00 -0.00000000000E+00 -0.22842203687E+02  0.22842203687E+02  0.00000000000E+00 0.  1.
          5    1    1    2  501    0  0.84189611920E+01 -0.41910626259E+01 -0.11064966361E+02  0.15263269442E+02  0.47000000000E+01 0.  1.
         -5    1    1    2    0  503 -0.84189611920E+01  0.41910626259E+01 -0.68228229801E+01  0.12533348591E+02  0.47000000000E+01 0.  1.
<mgrwt>
<rscale>  2 0.10513511E+02</rscale>
<asrwt>0</asrwt>
<pdfrwt beam="1">  1       21 0.76221759E-03 0.10513511E+02</pdfrwt>
<pdfrwt beam="2">  1       21 0.35141852E-02 0.10513511E+02</pdfrwt>
<totfact> 0.11124962E+09</totfact>
</mgrwt>
</event>
<event>
 4    1  0.3999109E+006  0.4796978E+01  0.7546771E-02  0.2604481E+00
         21   -1    0    0  501  502  0.00000000000E+00  0.00000000000E+00  0.19171342085E+02  0.19171342085E+02  0.00000000000E+00 0. -1.
         21   -1    0    0  502  503 -0.00000000000E+00 -0.00000000000E+00 -0.16503071311E+01  0.16503071311E+01  0.00000000000E+00 0. -1.
          5    1    1    2  501    0 -0.48742530700E+00  0.82668755284E+00  0.14197045812E+02  0.14985563237E+02  0.47000000000E+01 0. -1.
         -5    1    1    2    0  503  0.48742530700E+00 -0.82668755284E+00  0.33239891415E+01  0.58360859789E+01  0.47000000000E+01 0. -1.
<mgrwt>
<rscale>  2 0.47969778E+01</rscale>
<asrwt>0</asrwt>
<pdfrwt beam="1">  1       21 0.29494371E-02 0.47969778E+01</pdfrwt>
<pdfrwt beam="2">  1       21 0.25389342E-03 0.47969778E+01</pdfrwt>
<totfact> 0.36204344E+09</totfact>
</mgrwt>
</event>
<event>
 4    1  0.3999109E+006  0.5624572E+01  0.7546771E-02  0.2467007E+00
         21   -1    0    0  503  502  0.00000000000E+00  0.00000000000E+00  0.13419981750E+03  0.13419981750E+03  0.00000000000E+00 0.  1.
         21   -1    0    0  501  503 -0.00000000000E+00 -0.00000000000E+00 -0.27035784730E+00  0.27035784730E+00  0.00000000000E+00 0. -1.
          5    1    1    2  501    0  0.11102732577E+01  0.28832462196E+01  0.42904624498E+02  0.43271730018E+02  0.47000000000E+01 0. -1.
         -5    1    1    2    0  502 -0.11102732577E+01 -0.28832462196E+01  0.91024835156E+02  0.91198445330E+02  0.47000000000E+01 0.  1.
<mgrwt>
<rscale>  2 0.56245725E+01</rscale>
<asrwt>0</asrwt>
<pdfrwt beam="1">  1       21 0.20646073E-01 0.56245725E+01</pdfrwt>
<pdfrwt beam="2">  1       21 0.41593622E-04 0.56245725E+01</pdfrwt>
<totfact> 0.25331529E+09</totfact>
</mgrwt>
</event>
<event>
 4    1  0.3999109E+006  0.6498471E+01  0.7546771E-02  0.2354736E+00
         21   -1    0    0  503  502  0.00000000000E+00  0.00000000000E+00  0.92867749777E-01  0.92867749777E-01  0.00000000000E+00 0.  1.
         21   -1    0    0  501  503 -0.00000000000E+00 -0.00000000000E+00 -0.71451655563E+03  0.71451655563E+03  0.00000000000E+00 0.  1.
          5    1    1    2  501    0  0.51388621143E-02 -0.44877717580E+01 -0.57265743040E+03  0.57269430128E+03  0.47000000000E+01 0.  1.
         -5    1    1    2    0  502 -0.51388621143E-02  0.44877717580E+01 -0.14176625748E+03  0.14191512210E+03  0.47000000000E+01 0.  1.
<mgrwt>
<rscale>  2 0.64984707E+01</rscale>
<asrwt>0</asrwt>
<pdfrwt beam="1">  1       21 0.14287305E-04 0.64984707E+01</pdfrwt>
<pdfrwt beam="2">  1       21 0.10992594E+00 0.64984707E+01</pdfrwt>
<totfact> 0.57126569E+08</totfact>
</mgrwt>
</event>
<event>
 4    1  0.3999109E+006  0.5326844E+01  0.7546771E-02  0.2512245E+00
         21   -1    0    0  501  502  0.00000000000E+00  0.00000000000E+00  0.31723985086E+03  0.31723985086E+03  0.00000000000E+00 0.  1.
         21   -1    0    0  502  503 -0.00000000000E+00 -0.00000000000E+00 -0.19343342416E+00  0.19343342416E+00  0.00000000000E+00 0.  1.
          5    1    1    2  501    0  0.40331164865E+00 -0.24743905683E+01  0.27489583825E+03  0.27494744435E+03  0.47000000000E+01 0.  1.
         -5    1    1    2    0  503 -0.40331164865E+00  0.24743905683E+01  0.42150579185E+02  0.42485839931E+02  0.47000000000E+01 0.  1.
<mgrwt>
<rscale>  2 0.53268442E+01</rscale>
<asrwt>0</asrwt>
<pdfrwt beam="1">  1       21 0.48805715E-01 0.53268442E+01</pdfrwt>
<pdfrwt beam="2">  1       21 0.29759242E-04 0.53268442E+01</pdfrwt>
<totfact> 0.88567005E+08</totfact>
</mgrwt>
</event>
<event>
 4    1  0.3999109E+006  0.1849277E+02  0.7546771E-02  0.1777076E+00
         21   -1    0    0  503  502  0.00000000000E+00  0.00000000000E+00  0.11542907799E+01  0.11542907799E+01  0.00000000000E+00 0.  1.
         21   -1    0    0  501  503 -0.00000000000E+00 -0.00000000000E+00 -0.30360630445E+03  0.30360630445E+03  0.00000000000E+00 0.  1.
          5    1    1    2  501    0  0.16181006738E+02 -0.76202120877E+01 -0.12754012922E+03  0.12887384208E+03  0.47000000000E+01 0.  1.
         -5    1    1    2    0  502 -0.16181006738E+02  0.76202120877E+01 -0.17491188445E+03  0.17588675315E+03  0.47000000000E+01 0.  1.
<mgrwt>
<rscale>  2 0.18492772E+02</rscale>
<asrwt>0</asrwt>
<pdfrwt beam="1">  1       21 0.17758302E-03 0.18492772E+02</pdfrwt>
<pdfrwt beam="2">  1       21 0.46708710E-01 0.18492772E+02</pdfrwt>
<totfact> 0.15560589E+08</totfact>
</mgrwt>
</event>
<event>
 4    1  0.3999109E+006  0.4776180E+01  0.7546771E-02  0.2608460E+00
         21   -1    0    0  501  502  0.00000000000E+00  0.00000000000E+00  0.45176086268E+02  0.45176086268E+02  0.00000000000E+00 0.  1.
         21   -1    0    0  502  503 -0.00000000000E+00 -0.00000000000E+00 -0.14984042900E+01  0.14984042900E+01  0.00000000000E+00 0. -1.
          5    1    1    2  501    0 -0.46173662404E+00 -0.71323012751E+00  0.40841216825E+02  0.41119543890E+02  0.47000000000E+01 0.  1.
         -5    1    1    2    0  503  0.46173662404E+00  0.71323012751E+00  0.28364651528E+01  0.55549466683E+01  0.47000000000E+01 0. -1.
<mgrwt>
<rscale>  2 0.47761803E+01</rscale>
<asrwt>0</asrwt>
<pdfrwt beam="1">  1       21 0.69501661E-02 0.47761803E+01</pdfrwt>
<pdfrwt beam="2">  1       21 0.23052377E-03 0.47761803E+01</pdfrwt>
<totfact> 0.11827210E+09</totfact>
</mgrwt>
</event>
<event>
 4    1  0.3999109E+006  0.6566796E+01  0.7546771E-02  0.2347017E+00
         21   -1    0    0  501  502  0.00000000000E+00  0.00000000000E+00  0.17476661921E+00  0.17476661921E+00  0.00000000000E+00 0. -1.
         21   -1    0    0  502  503 -0.00000000000E+00 -0.00000000000E+00 -0.24809260525E+03  0.24809260525E+03  0.00000000000E+00 0.  1.
          5    1    1    2  501    0  0.45633178360E+01  0.45710236112E+00 -0.11481056281E+03  0.11499820931E+03  0.47000000000E+01 0. -1.
         -5    1    1    2    0  503 -0.45633178360E+01 -0.45710236112E+00 -0.13310727582E+03  0.13326916256E+03  0.47000000000E+01 0.  1.
<mgrwt>
<rscale>  2 0.65667962E+01</rscale>
<asrwt>0</asrwt>
<pdfrwt beam="1">  1       21 0.26887247E-04 0.65667962E+01</pdfrwt>
<pdfrwt beam="2">  1       21 0.38167986E-01 0.65667962E+01</pdfrwt>
<totfact> 0.18326797E+09</totfact>
</mgrwt>
</event>
<event>
 4    1  0.3999109E+006  0.6553345E+01  0.7546771E-02  0.2348526E+00
         21   -1    0    0  503  502  0.00000000000E+00  0.00000000000E+00  0.31837565138E+00  0.31837565138E+00  0.00000000000E+00 0.  1.
         21   -1    0    0  501  503 -0.00000000000E+00 -0.00000000000E+00 -0.27399119125E+03  0.27399119125E+03  0.00000000000E+00 0.  1.
          5    1    1    2  501    0 -0.71763169441E+00 -0.45101376540E+01 -0.23456123678E+03  0.23465276503E+03  0.47000000000E+01 0.  1.
         -5    1    1    2    0  502  0.71763169441E+00  0.45101376540E+01 -0.39111578821E+02  0.39656801873E+02  0.47000000000E+01 0.  1.
<mgrwt>
<rscale>  2 0.65533455E+01</rscale>
<asrwt>0</asrwt>
<pdfrwt beam="1">  1       21 0.48980912E-04 0.65533455E+01</pdfrwt>
<pdfrwt beam="2">  1       21 0.42152454E-01 0.65533455E+01</pdfrwt>
<totfact> 0.68770131E+08</totfact>
</mgrwt>
</event>
<event>
 4    1  0.3999109E+006  0.7103147E+01  0.7546771E-02  0.2290719E+00
         21   -1    0    0  501  502  0.00000000000E+00  0.00000000000E+00  0.60280582683E+03  0.60280582683E+03  0.00000000000E+00 0.  1.
         21   -1    0    0  502  503 -0.00000000000E+00 -0.00000000000E+00 -0.12456327555E+01  0.12456327555E+01  0.00000000000E+00 0. -1.
          5    1    1    2  501    0 -0.40613238845E+00  0.53103435935E+01  0.59248214480E+03  0.59252472235E+03  0.47000000000E+01 0.  1.
         -5    1    1    2    0  503  0.40613238845E+00 -0.53103435935E+01  0.90780492744E+01  0.11526737232E+02  0.47000000000E+01 0. -1.
<mgrwt>
<rscale>  2 0.71031467E+01</rscale>
<asrwt>0</asrwt>
<pdfrwt beam="1">  1       21 0.92739125E-01 0.71031467E+01</pdfrwt>
<pdfrwt beam="2">  1       21 0.19163629E-03 0.71031467E+01</pdfrwt>
<totfact> 0.25620510E+07</totfact>
</mgrwt>
</event>
<event>
 4    1  0.3999109E+006  0.6156497E+01  0.7546771E-02  0.2395490E+00
         21   -1    0    0  503  502  0.00000000000E+00  0.00000000000E+00  0.17864990407E+01  0.17864990407E+01  0.00000000000E+00 0.  1.
         21   -1    0    0  501  503 -0.00000000000E+00 -0.00000000000E+00 -0.42102905435E+02  0.42102905435E+02  0.00000000000E+00 0. -1.
          5    1    1    2  501    0  0.22757788981E+01 -0.32608713379E+01 -0.35614669030E+02  0.36142870688E+02  0.47000000000E+01 0. -1.
         -5    1    1    2    0  502 -0.22757788981E+01  0.32608713379E+01 -0.47017373643E+01  0.77465337873E+01  0.47000000000E+01 0.  1.
<mgrwt>
<rscale>  2 0.61564967E+01</rscale>
<asrwt>0</asrwt>
<pdfrwt beam="1">  1       21 0.27484596E-03 0.61564967E+01</pdfrwt>
<pdfrwt beam="2">  1       21 0.64773710E-02 0.61564967E+01</pdfrwt>
<totfact> 0.12949349E+09</totfact>
</mgrwt>
</event>
<event>
 4    1  0.3999109E+006  0.6667383E+01  0.7546771E-02  0.2335892E+00
         21   -1    0    0  501  502  0.00000000000E+00  0.00000000000E+00  0.53739552189E+00  0.53739552189E+00  0.00000000000E+00 0.  1.
         21   -1    0    0  502  503 -0.00000000000E+00 -0.00000000000E+00 -0.10021730962E+03  0.10021730962E+03  0.00000000000E+00 0.  1.
          5    1    1    2  501    0  0.13708994627E+01  0.45259944373E+01 -0.28790786782E+02  0.29552722286E+02  0.47000000000E+01 0.  1.
         -5    1    1    2    0  503 -0.13708994627E+01 -0.45259944373E+01 -0.70889127320E+02  0.71201982860E+02  0.47000000000E+01 0.  1.
<mgrwt>
<rscale>  2 0.66673826E+01</rscale>
<asrwt>0</asrwt>
<pdfrwt beam="1">  1       21 0.82676167E-04 0.66673826E+01</pdfrwt>
<pdfrwt beam="2">  1       21 0.15418060E-01 0.66673826E+01</pdfrwt>
<totfact> 0.18487262E+09</totfact>
</mgrwt>
</event>
<event>
 4    1  0.3999109E+006  0.6650788E+01  0.7546771E-02  0.2337709E+00
         21   -1    0    0  501  502  0.00000000000E+00  0.00000000000E+00  0.75007220179E+00  0.75007220179E+00  0.00000000000E+00 0. -1.
         21   -1    0    0  502  503 -0.00000000000E+00 -0.00000000000E+00 -0.13561140528E+03  0.13561140528E+03  0.00000000000E+00 0. -1.
          5    1    1    2  501    0  0.29221588954E+01  0.36883556706E+01 -0.16175139165E+02  0.17489085373E+02  0.47000000000E+01 0. -1.
         -5    1    1    2    0  503 -0.29221588954E+01 -0.36883556706E+01 -0.11868619392E+03  0.11887239211E+03  0.47000000000E+01 0. -1.
<mgrwt>
<rscale>  2 0.66507879E+01</rscale>
<asrwt>0</asrwt>
<pdfrwt beam="1">  1       21 0.11539579E-03 0.66507879E+01</pdfrwt>
<pdfrwt beam="2">  1       21 0.20863282E-01 0.66507879E+01</pdfrwt>
<totfact> 0.72194140E+08</totfact>
</mgrwt>
</event>
<event>
 4    1  0.3999109E+006  0.8177526E+01  0.7546771E-02  0.2196461E+00
         21   -1    0    0  503  502  0.00000000000E+00  0.00000000000E+00  0.16431471694E+04  0.16431471694E+04  0.00000000000E+00 0. -1.
         21   -1    0    0  501  503 -0.00000000000E+00 -0.00000000000E+00 -0.18396204524E+01  0.18396204524E+01  0.00000000000E+00 0.  1.
          5    1    1    2  501    0 -0.64756548500E+01  0.16875478267E+01  0.73091697397E+01  0.10967948107E+02  0.47000000000E+01 0.  1.
         -5    1    1    2    0  502  0.64756548500E+01 -0.16875478267E+01  0.16339983792E+04  0.16340188417E+04  0.47000000000E+01 0. -1.
<mgrwt>
<rscale>  2 0.81775255E+01</rscale>
<asrwt>0</asrwt>
<pdfrwt beam="1">  1       21 0.25279070E+00 0.81775255E+01</pdfrwt>
<pdfrwt beam="2">  1       21 0.28301985E-03 0.81775255E+01</pdfrwt>
<totfact> 0.16970214E+06</totfact>
</mgrwt>
</event>
<event>
 4    1  0.3999109E+006  0.7509731E+01  0.7546771E-02  0.2252480E+00
         21   -1    0    0  503  502  0.00000000000E+00  0.00000000000E+00  0.14056053761E+02  0.14056053761E+02  0.00000000000E+00 0. -1.
         21   -1    0    0  501  503 -0.00000000000E+00 -0.00000000000E+00 -0.20998081577E+02  0.20998081577E+02  0.00000000000E+00 0. -1.
          5    1    1    2  501    0  0.54498826295E+01  0.21458894737E+01 -0.19234895698E+02  0.20648904931E+02  0.47000000000E+01 0. -1.
         -5    1    1    2    0  502 -0.54498826295E+01 -0.21458894737E+01  0.12292867883E+02  0.14405230408E+02  0.47000000000E+01 0. -1.
<mgrwt>
<rscale>  2 0.75097312E+01</rscale>
<asrwt>0</asrwt>
<pdfrwt beam="1">  1       21 0.21624698E-02 0.75097312E+01</pdfrwt>
<pdfrwt beam="2">  1       21 0.32304741E-02 0.75097312E+01</pdfrwt>
<totfact> 0.22742396E+08</totfact>
</mgrwt>
</event>
<event>
 4    1  0.3999109E+006  0.4814202E+01  0.7546771E-02  0.2601208E+00
         21   -1    0    0  503  502  0.00000000000E+00  0.00000000000E+00  0.12193323205E+01  0.12193323205E+01  0.00000000000E+00 0. -1.
         21   -1    0    0  501  503 -0.00000000000E+00 -0.00000000000E+00 -0.83224507846E+02  0.83224507846E+02  0.00000000000E+00 0. -1.
          5    1    1    2  501    0  0.10306087267E+01 -0.15617161614E+00 -0.78090907583E+02  0.78239161492E+02  0.47000000000E+01 0. -1.
         -5    1    1    2    0  502 -0.10306087267E+01  0.15617161614E+00 -0.39142679427E+01  0.62046786741E+01  0.47000000000E+01 0. -1.
<mgrwt>
<rscale>  2 0.48142023E+01</rscale>
<asrwt>0</asrwt>
<pdfrwt beam="1">  1       21 0.18758964E-03 0.48142023E+01</pdfrwt>
<pdfrwt beam="2">  1       21 0.12803767E-01 0.48142023E+01</pdfrwt>
<totfact> 0.62727394E+08</totfact>
</mgrwt>
</event>
<event>
 4    1  0.3999109E+006  0.9259405E+01  0.7546771E-02  0.2119760E+00
         21   -1    0    0  501  502  0.00000000000E+00  0.00000000000E+00  0.70055699784E+01  0.70055699784E+01  0.00000000000E+00 0. -1.
         21   -1    0    0  502  503 -0.00000000000E+00 -0.00000000000E+00 -0.12259493707E+02  0.12259493707E+02  0.00000000000E+00 0. -1.
          5    1    1    2  501    0  0.72212657798E+01  0.33911493683E+01 -0.22268706500E+01  0.95234198895E+01  0.47000000000E+01 0. -1.
         -5    1    1    2    0  503 -0.72212657798E+01 -0.33911493683E+01 -0.30270530783E+01  0.97416437956E+01  0.47000000000E+01 0. -1.
<mgrwt>
<rscale>  2 0.92594046E+01</rscale>
<asrwt>0</asrwt>
<pdfrwt beam="1">  1       21 0.10777800E-02 0.92594046E+01</pdfrwt>
<pdfrwt beam="2">  1       21 0.18860759E-02 0.92594046E+01</pdfrwt>
<totfact> 0.15791702E+09</totfact>
</mgrwt>
</event>
<event>
 4    1  0.3999109E+006  0.6661937E+01  0.7546771E-02  0.2336488E+00
         21   -1    0    0  503  502  0.00000000000E+00  0.00000000000E+00  0.14227850426E+02  0.14227850426E+02  0.00000000000E+00 0. -1.
         21   -1    0    0  501  503 -0.00000000000E+00 -0.00000000000E+00 -0.31194011085E+01  0.31194011085E+01  0.00000000000E+00 0.  1.
          5    1    1    2  501    0 -0.30389052099E+01 -0.36133723564E+01  0.55137230484E+01  0.86476902417E+01  0.47000000000E+01 0. -1.
         -5    1    1    2    0  502  0.30389052099E+01  0.36133723564E+01  0.55947262688E+01  0.86995612926E+01  0.47000000000E+01 0. -1.
<mgrwt>
<rscale>  2 0.66619370E+01</rscale>
<asrwt>0</asrwt>
<pdfrwt beam="1">  1       21 0.21889000E-02 0.66619370E+01</pdfrwt>
<pdfrwt beam="2">  1       21 0.47990787E-03 0.66619370E+01</pdfrwt>
<totfact> 0.31591095E+09</totfact>
</mgrwt>
</event>
<event>
 4    1  0.3999109E+006  0.5564706E+01  0.7546771E-02  0.2475773E+00
         21   -1    0    0  503  502  0.00000000000E+00  0.00000000000E+00  0.34415980309E+00  0.34415980309E+00  0.00000000000E+00 0. -1.
         21   -1    0    0  501  503 -0.00000000000E+00 -0.00000000000E+00 -0.12391283604E+03  0.12391283604E+03  0.00000000000E+00 0. -1.
          5    1    1    2  501    0  0.16587090988E+01  0.24748007452E+01 -0.94298420430E+02  0.94462469003E+02  0.47000000000E+01 0. -1.
         -5    1    1    2    0  502 -0.16587090988E+01 -0.24748007452E+01 -0.29270255804E+02  0.29794526837E+02  0.47000000000E+01 0. -1.
<mgrwt>
<rscale>  2 0.55647062E+01</rscale>
<asrwt>0</asrwt>
<pdfrwt beam="1">  1       21 0.52947560E-04 0.55647062E+01</pdfrwt>
<pdfrwt beam="2">  1       21 0.19063550E-01 0.55647062E+01</pdfrwt>
<totfact> 0.20684769E+09</totfact>
</mgrwt>
</event>
<event>
 4    1  0.3999109E+006  0.6639936E+01  0.7546771E-02  0.2338900E+00
         21   -1    0    0  503  502  0.00000000000E+00  0.00000000000E+00  0.52928789726E+01  0.52928789726E+01  0.00000000000E+00 0.  1.
         21   -1    0    0  501  503 -0.00000000000E+00 -0.00000000000E+00 -0.12357560020E+02  0.12357560020E+02  0.00000000000E+00 0.  1.
          5    1    1    2  501    0 -0.37919010155E+01  0.27604779609E+01  0.15060245736E+01  0.68085873645E+01  0.47000000000E+01 0.  1.
         -5    1    1    2    0  502  0.37919010155E+01 -0.27604779609E+01 -0.85707056207E+01  0.10841851628E+02  0.47000000000E+01 0.  1.
<mgrwt>
<rscale>  2 0.66399361E+01</rscale>
<asrwt>0</asrwt>
<pdfrwt beam="1">  1       21 0.81428908E-03 0.66399361E+01</pdfrwt>
<pdfrwt beam="2">  1       21 0.19011631E-02 0.66399361E+01</pdfrwt>
<totfact> 0.18385043E+09</totfact>
</mgrwt>
</event>
<event>
 4    1  0.3999109E+006  0.7093785E+01  0.7546771E-02  0.2291641E+00
         21   -1    0    0  501  502  0.00000000000E+00  0.00000000000E+00  0.81583375022E-01  0.81583375022E-01  0.00000000000E+00 0. -1.
         21   -1    0    0  502  503 -0.00000000000E+00 -0.00000000000E+00 -0.14096949213E+04  0.14096949213E+04  0.00000000000E+00 0.  1.
          5    1    1    2  501    0  0.36706240415E+01  0.38416532416E+01 -0.17616469046E+03  0.17630745857E+03  0.47000000000E+01 0. -1.
         -5    1    1    2    0  503 -0.36706240415E+01 -0.38416532416E+01 -0.12334486475E+04  0.12334690461E+04  0.47000000000E+01 0.  1.
<mgrwt>
<rscale>  2 0.70937846E+01</rscale>
<asrwt>0</asrwt>
<pdfrwt beam="1">  1       21 0.12550382E-04 0.70937846E+01</pdfrwt>
<pdfrwt beam="2">  1       21 0.21689181E+00 0.70937846E+01</pdfrwt>
<totfact> 0.16143369E+08</totfact>
</mgrwt>
</event>
<event>
 4    1  0.3999109E+006  0.6175513E+01  0.7546771E-02  0.2393125E+00
         21   -1    0    0  501  502  0.00000000000E+00  0.00000000000E+00  0.40221987321E+01  0.40221987321E+01  0.00000000000E+00 0.  1.
         21   -1    0    0  502  503 -0.00000000000E+00 -0.00000000000E+00 -0.18283991990E+02  0.18283991990E+02  0.00000000000E+00 0.  1.
          5    1    1    2  501    0 -0.10669240757E+01  0.38611699022E+01  0.60765640033E+00  0.62053369206E+01  0.47000000000E+01 0.  1.
         -5    1    1    2    0  503  0.10669240757E+01 -0.38611699022E+01 -0.14869449658E+02  0.16100853801E+02  0.47000000000E+01 0.  1.
<mgrwt>
<rscale>  2 0.61755129E+01</rscale>
<asrwt>0</asrwt>
<pdfrwt beam="1">  1       21 0.61879981E-03 0.61755129E+01</pdfrwt>
<pdfrwt beam="2">  1       21 0.28129218E-02 0.61755129E+01</pdfrwt>
<totfact> 0.14450014E+09</totfact>
</mgrwt>
</event>
<event>
 4    1  0.3999109E+006  0.8773283E+01  0.7546771E-02  0.2152356E+00
         21   -1    0    0  503  502  0.00000000000E+00  0.00000000000E+00  0.38587929870E+01  0.38587929870E+01  0.00000000000E+00 0.  1.
         21   -1    0    0  501  503 -0.00000000000E+00 -0.00000000000E+00 -0.30966574273E+02  0.30966574273E+02  0.00000000000E+00 0. -1.
          5    1    1    2  501    0  0.65406810941E+01  0.34785021098E+01 -0.23941268149E+02  0.25498133396E+02  0.47000000000E+01 0. -1.
         -5    1    1    2    0  502 -0.65406810941E+01 -0.34785021098E+01 -0.31665131366E+01  0.93272338636E+01  0.47000000000E+01 0.  1.
<mgrwt>
<rscale>  2 0.87732825E+01</rscale>
<asrwt>0</asrwt>
<pdfrwt beam="1">  1       21 0.59366048E-03 0.87732825E+01</pdfrwt>
<pdfrwt beam="2">  1       21 0.47640882E-02 0.87732825E+01</pdfrwt>
<totfact> 0.90143430E+08</totfact>
</mgrwt>
</event>
<event>
 4    1  0.3999109E+006  0.7234021E+01  0.7546771E-02  0.2278028E+00
         21   -1    0    0  501  502  0.00000000000E+00  0.00000000000E+00  0.11628639854E+01  0.11628639854E+01  0.00000000000E+00 0.  1.
         21   -1    0    0  502  503 -0.00000000000E+00 -0.00000000000E+00 -0.52104096232E+02  0.52104096232E+02  0.00000000000E+00 0.  1.
          5    1    1    2  501    0  0.54872386071E+01 -0.36231669284E+00 -0.15637547936E+02  0.17229740752E+02  0.47000000000E+01 0.  1.
         -5    1    1    2    0  503 -0.54872386071E+01  0.36231669284E+00 -0.35303684310E+02  0.36037219465E+02  0.47000000000E+01 0.  1.
<mgrwt>
<rscale>  2 0.72340211E+01</rscale>
<asrwt>0</asrwt>
<pdfrwt beam="1">  1       21 0.17890216E-03 0.72340211E+01</pdfrwt>
<pdfrwt beam="2">  1       21 0.80160146E-02 0.72340211E+01</pdfrwt>
<totfact> 0.19115823E+09</totfact>
</mgrwt>
</event>
<event>
 4    1  0.3999109E+006  0.6826278E+01  0.7546771E-02  0.2318872E+00
         21   -1    0    0  503  502  0.00000000000E+00  0.00000000000E+00  0.14128734457E+02  0.14128734457E+02  0.00000000000E+00 0.  1.
         21   -1    0    0  501  503 -0.00000000000E+00 -0.00000000000E+00 -0.18364457954E+02  0.18364457954E+02  0.00000000000E+00 0. -1.
          5    1    1    2  501    0  0.11663160955E+01 -0.48112132404E+01 -0.16833441661E+02  0.18164878867E+02  0.47000000000E+01 0. -1.
         -5    1    1    2    0  502 -0.11663160955E+01  0.48112132404E+01  0.12597718164E+02  0.14328313544E+02  0.47000000000E+01 0.  1.
<mgrwt>
<rscale>  2 0.68262776E+01</rscale>
<asrwt>0</asrwt>
<pdfrwt beam="1">  1       21 0.21736515E-02 0.68262776E+01</pdfrwt>
<pdfrwt beam="2">  1       21 0.28253012E-02 0.68262776E+01</pdfrwt>
<totfact> 0.25866471E+08</totfact>
</mgrwt>
</event>
<event>
 4    1  0.3999109E+006  0.1366898E+02  0.7546771E-02  0.1911628E+00
         21   -1    0    0  501  502  0.00000000000E+00  0.00000000000E+00  0.41810127895E+03  0.41810127895E+03  0.00000000000E+00 0.  1.
         21   -1    0    0  502  503 -0.00000000000E+00 -0.00000000000E+00 -0.47092462643E+00  0.47092462643E+00  0.00000000000E+00 0. -1.
          5    1    1    2  501    0 -0.18090673577E+01  0.12707414615E+02  0.25610562855E+03  0.25647014268E+03  0.47000000000E+01 0. -1.
         -5    1    1    2    0  503  0.18090673577E+01 -0.12707414615E+02  0.16152472577E+03  0.16210206089E+03  0.47000000000E+01 0.  1.
<mgrwt>
<rscale>  2 0.13668984E+02</rscale>
<asrwt>0</asrwt>
<pdfrwt beam="1">  1       21 0.64322977E-01 0.13668984E+02</pdfrwt>
<pdfrwt beam="2">  1       21 0.72450277E-04 0.13668984E+02</pdfrwt>
<totfact> 0.26690809E+08</totfact>
</mgrwt>
</event>
<event>
 4    1  0.3999109E+006  0.5094997E+01  0.7546771E-02  0.2550572E+00
         21   -1    0    0  503  502  0.00000000000E+00  0.00000000000E+00  0.46571781809E+03  0.46571781809E+03  0.00000000000E+00 0.  1.
         21   -1    0    0  501  503 -0.00000000000E+00 -0.00000000000E+00 -0.17544632810E+00  0.17544632810E+00  0.00000000000E+00 0. -1.
          5    1    1    2  501    0  0.43127087372E+00  0.19191148520E+01  0.40354249230E+02  0.40674616498E+02  0.47000000000E+01 0. -1.
         -5    1    1    2    0  502 -0.43127087372E+00 -0.19191148520E+01  0.42518812254E+03  0.42521864792E+03  0.47000000000E+01 0.  1.
<mgrwt>
<rscale>  2 0.50949972E+01</rscale>
<asrwt>0</asrwt>
<pdfrwt beam="1">  1       21 0.71647905E-01 0.50949972E+01</pdfrwt>
<pdfrwt beam="2">  1       21 0.26992116E-04 0.50949972E+01</pdfrwt>
<totfact> 0.48215548E+08</totfact>
</mgrwt>
</event>
<event>
 4    1  0.3999109E+006  0.7280761E+01  0.7546771E-02  0.2273586E+00
         21   -1    0    0  503  502  0.00000000000E+00  0.00000000000E+00  0.10869443678E+02  0.10869443678E+02  0.00000000000E+00 0.  1.
         21   -1    0    0  501  503 -0.00000000000E+00 -0.00000000000E+00 -0.12884290961E+02  0.12884290961E+02  0.00000000000E+00 0.  1.
          5    1    1    2  501    0  0.16757486778E+01  0.53020140916E+01 -0.10370453714E+02  0.12671061411E+02  0.47000000000E+01 0.  1.
         -5    1    1    2    0  502 -0.16757486778E+01 -0.53020140916E+01  0.83556064308E+01  0.11082673228E+02  0.47000000000E+01 0.  1.
<mgrwt>
<rscale>  2 0.72807614E+01</rscale>
<asrwt>0</asrwt>
<pdfrwt beam="1">  1       21 0.16722221E-02 0.72807614E+01</pdfrwt>
<pdfrwt beam="2">  1       21 0.19821986E-02 0.72807614E+01</pdfrwt>
<totfact> 0.66246151E+08</totfact>
</mgrwt>
</event>
<event>
 4    1  0.3999109E+006  0.5344737E+01  0.7546771E-02  0.2509406E+00
         21   -1    0    0  501  502  0.00000000000E+00  0.00000000000E+00  0.11899290749E+02  0.11899290749E+02  0.00000000000E+00 0. -1.
         21   -1    0    0  502  503 -0.00000000000E+00 -0.00000000000E+00 -0.31873288712E+01  0.31873288712E+01  0.00000000000E+00 0. -1.
          5    1    1    2  501    0 -0.98429221988E+00  0.23467809878E+01  0.81034933316E+01  0.97073588764E+01  0.47000000000E+01 0. -1.
         -5    1    1    2    0  503  0.98429221988E+00 -0.23467809878E+01  0.60846854618E+00  0.53792607439E+01  0.47000000000E+01 0. -1.
<mgrwt>
<rscale>  2 0.53447369E+01</rscale>
<asrwt>0</asrwt>
<pdfrwt beam="1">  1       21 0.18306601E-02 0.53447369E+01</pdfrwt>
<pdfrwt beam="2">  1       21 0.49035829E-03 0.53447369E+01</pdfrwt>
<totfact> 0.32534476E+09</totfact>
</mgrwt>
</event>
<event>
 4    1  0.3999109E+006  0.5731228E+01  0.7546771E-02  0.2451775E+00
         21   -1    0    0  501  502  0.00000000000E+00  0.00000000000E+00  0.76710601149E+00  0.76710601149E+00  0.00000000000E+00 0.  1.
         21   -1    0    0  502  503 -0.00000000000E+00 -0.00000000000E+00 -0.57456895099E+02  0.57456895099E+02  0.00000000000E+00 0.  1.
          5    1    1    2  501    0  0.30823843223E+01  0.11206622069E+01 -0.13651059075E+02  0.14805350072E+02  0.47000000000E+01 0.  1.
         -5    1    1    2    0  503 -0.30823843223E+01 -0.11206622069E+01 -0.43038730013E+02  0.43418651038E+02  0.47000000000E+01 0.  1.
<mgrwt>
<rscale>  2 0.57312282E+01</rscale>
<asrwt>0</asrwt>
<pdfrwt beam="1">  1       21 0.11801629E-03 0.57312282E+01</pdfrwt>
<pdfrwt beam="2">  1       21 0.88395240E-02 0.57312282E+01</pdfrwt>
<totfact> 0.24023582E+09</totfact>
</mgrwt>
</event>
<event>
 4    1  0.3999109E+006  0.6433626E+01  0.7546771E-02  0.2362186E+00
         21   -1    0    0  503  502  0.00000000000E+00  0.00000000000E+00  0.82637024449E+03  0.82637024449E+03  0.00000000000E+00 0.  1.
         21   -1    0    0  501  503 -0.00000000000E+00 -0.00000000000E+00 -0.54797226647E-01  0.54797226647E-01  0.00000000000E+00 0.  1.
          5    1    1    2  501    0  0.43805684650E+01 -0.33490241060E+00  0.53428776191E+03  0.53432649575E+03  0.47000000000E+01 0.  1.
         -5    1    1    2    0  502 -0.43805684650E+01  0.33490241060E+00  0.29202768536E+03  0.29209854597E+03  0.47000000000E+01 0.  1.
<mgrwt>
<rscale>  2 0.64336257E+01</rscale>
<asrwt>0</asrwt>
<pdfrwt beam="1">  1       21 0.12712390E+00 0.64336257E+01</pdfrwt>
<pdfrwt beam="2">  1       21 0.84310043E-05 0.64336257E+01</pdfrwt>
<totfact> 0.84712130E+08</totfact>
</mgrwt>
</event>
<event>
 4    1  0.3999109E+006  0.5382583E+01  0.7546771E-02  0.2503453E+00
         21   -1    0    0  503  502  0.00000000000E+00  0.00000000000E+00  0.10770837196E+02  0.10770837196E+02  0.00000000000E+00 0.  1.
         21   -1    0    0  501  503 -0.00000000000E+00 -0.00000000000E+00 -0.55830352560E+01  0.55830352560E+01  0.00000000000E+00 0.  1.
          5    1    1    2  501    0  0.11165686919E+01 -0.23739151083E+01 -0.32923899185E+01  0.63096774847E+01  0.47000000000E+01 0.  1.
         -5    1    1    2    0  502 -0.11165686919E+01  0.23739151083E+01  0.84801918582E+01  0.10044194967E+02  0.47000000000E+01 0.  1.
<mgrwt>
<rscale>  2 0.53825829E+01</rscale>
<asrwt>0</asrwt>
<pdfrwt beam="1">  1       21 0.16570519E-02 0.53825829E+01</pdfrwt>
<pdfrwt beam="2">  1       21 0.85892850E-03 0.53825829E+01</pdfrwt>
<totfact> 0.17338011E+09</totfact>
</mgrwt>
</event>
<event>
 4    1  0.3999109E+006  0.6513532E+01  0.7546771E-02  0.2353023E+00
         21   -1    0    0  503  502  0.00000000000E+00  0.00000000000E+00  0.52253891124E+01  0.52253891124E+01  0.00000000000E+00 0.  1.
         21   -1    0    0  501  503 -0.00000000000E+00 -0.00000000000E+00 -0.13971070511E+02  0.13971070511E+02  0.00000000000E+00 0. -1.
          5    1    1    2  501    0 -0.50047880001E-01 -0.45092792606E+01 -0.10584716562E+02  0.12428287450E+02  0.47000000000E+01 0. -1.
         -5    1    1    2    0  502  0.50047880001E-01  0.45092792606E+01  0.18390351633E+01  0.67681721736E+01  0.47000000000E+01 0.  1.
<mgrwt>
<rscale>  2 0.65135324E+01</rscale>
<asrwt>0</asrwt>
<pdfrwt beam="1">  1       21 0.80390601E-03 0.65135324E+01</pdfrwt>
<pdfrwt beam="2">  1       21 0.21493955E-02 0.65135324E+01</pdfrwt>
<totfact> 0.15441673E+09</totfact>
</mgrwt>
</event>
<event>
 4    1  0.3999109E+006  0.1028872E+02  0.7546771E-02  0.2058919E+00
         21   -1    0    0  503  502  0.00000000000E+00  0.00000000000E+00  0.68490416199E+01  0.68490416199E+01  0.00000000000E+00 0. -1.
         21   -1    0    0  501  503 -0.00000000000E+00 -0.00000000000E+00 -0.19798649994E+02  0.19798649994E+02  0.00000000000E+00 0. -1.
          5    1    1    2  501    0 -0.36231994799E+01  0.84047715791E+01 -0.12714978542E+02  0.16356296619E+02  0.47000000000E+01 0. -1.
         -5    1    1    2    0  502  0.36231994799E+01 -0.84047715791E+01 -0.23462983135E+00  0.10291394994E+02  0.47000000000E+01 0. -1.
<mgrwt>
<rscale>  2 0.10288720E+02</rscale>
<asrwt>0</asrwt>
<pdfrwt beam="1">  1       21 0.10536987E-02 0.10288720E+02</pdfrwt>
<pdfrwt beam="2">  1       21 0.30459461E-02 0.10288720E+02</pdfrwt>
<totfact> 0.85251503E+08</totfact>
</mgrwt>
</event>
<event>
 4    1  0.3999109E+006  0.5305238E+01  0.7546771E-02  0.2515696E+00
         21   -1    0    0  501  502  0.00000000000E+00  0.00000000000E+00  0.15053032903E+02  0.15053032903E+02  0.00000000000E+00 0. -1.
         21   -1    0    0  502  503 -0.00000000000E+00 -0.00000000000E+00 -0.18837554078E+01  0.18837554078E+01  0.00000000000E+00 0. -1.
          5    1    1    2  501    0  0.23368210850E+01 -0.77124510597E+00  0.58546959868E+01  0.79008238111E+01  0.47000000000E+01 0. -1.
         -5    1    1    2    0  503 -0.23368210850E+01  0.77124510597E+00  0.73145815086E+01  0.90359644999E+01  0.47000000000E+01 0. -1.
<mgrwt>
<rscale>  2 0.53052381E+01</rscale>
<asrwt>0</asrwt>
<pdfrwt beam="1">  1       21 0.23158511E-02 0.53052381E+01</pdfrwt>
<pdfrwt beam="2">  1       21 0.28980853E-03 0.53052381E+01</pdfrwt>
<totfact> 0.47480361E+09</totfact>
</mgrwt>
</event>
<event>
 4    1  0.3999109E+006  0.5837663E+01  0.7546771E-02  0.2437043E+00
         21   -1    0    0  503  502  0.00000000000E+00  0.00000000000E+00  0.27080490979E+00  0.27080490979E+00  0.00000000000E+00 0.  1.
         21   -1    0    0  501  503 -0.00000000000E+00 -0.00000000000E+00 -0.22742254762E+03  0.22742254762E+03  0.00000000000E+00 0.  1.
          5    1    1    2  501    0  0.34593197629E+01  0.14634813273E+00 -0.18966303596E+03  0.18975285379E+03  0.47000000000E+01 0.  1.
         -5    1    1    2    0  502 -0.34593197629E+01 -0.14634813273E+00 -0.37488706749E+02  0.37940498741E+02  0.47000000000E+01 0.  1.
<mgrwt>
<rscale>  2 0.58376631E+01</rscale>
<asrwt>0</asrwt>
<pdfrwt beam="1">  1       21 0.41662160E-04 0.58376631E+01</pdfrwt>
<pdfrwt beam="2">  1       21 0.34988196E-01 0.58376631E+01</pdfrwt>
<totfact> 0.10861833E+09</totfact>
</mgrwt>
</event>
<event>
 4    1  0.3999109E+006  0.7876264E+01  0.7546771E-02  0.2220782E+00
         21   -1    0    0  501  502  0.00000000000E+00  0.00000000000E+00  0.30760295434E+02  0.30760295434E+02  0.00000000000E+00 0.  1.
         21   -1    0    0  502  503 -0.00000000000E+00 -0.00000000000E+00 -0.20816832790E+01  0.20816832790E+01  0.00000000000E+00 0.  1.
          5    1    1    2  501    0 -0.45490292267E+01 -0.43876942970E+01  0.11438905260E+02  0.13888271372E+02  0.47000000000E+01 0.  1.
         -5    1    1    2    0  503  0.45490292267E+01  0.43876942970E+01  0.17239706895E+02  0.18953707341E+02  0.47000000000E+01 0.  1.
<mgrwt>
<rscale>  2 0.78762636E+01</rscale>
<asrwt>0</asrwt>
<pdfrwt beam="1">  1       21 0.47323528E-02 0.78762636E+01</pdfrwt>
<pdfrwt beam="2">  1       21 0.32025899E-03 0.78762636E+01</pdfrwt>
<totfact> 0.20242944E+09</totfact>
</mgrwt>
</event>
<event>
 4    1  0.3999109E+006  0.5239632E+01  0.7546771E-02  0.2526322E+00
         21   -1    0    0  503  502  0.00000000000E+00  0.00000000000E+00  0.44039880002E+03  0.44039880002E+03  0.00000000000E+00 0. -1.
         21   -1    0    0  501  503 -0.00000000000E+00 -0.00000000000E+00 -0.90805432212E+00  0.90805432212E+00  0.00000000000E+00 0.  1.
          5    1    1    2  501    0  0.15274840131E+01  0.17408425923E+01  0.68005797186E+01  0.85849650466E+01  0.47000000000E+01 0.  1.
         -5    1    1    2    0  502 -0.15274840131E+01 -0.17408425923E+01  0.43269016598E+03  0.43272188930E+03  0.47000000000E+01 0. -1.
<mgrwt>
<rscale>  2 0.52396317E+01</rscale>
<asrwt>0</asrwt>
<pdfrwt beam="1">  1       21 0.67753491E-01 0.52396317E+01</pdfrwt>
<pdfrwt beam="2">  1       21 0.13970102E-03 0.52396317E+01</pdfrwt>
<totfact> 0.61451231E+07</totfact>
</mgrwt>
</event>
<event>
 4    1  0.3999109E+006  0.7423056E+01  0.7546771E-02  0.2260345E+00
         21   -1    0    0  501  502  0.00000000000E+00  0.00000000000E+00  0.42861831456E+01  0.42861831456E+01  0.00000000000E+00 0. -1.
         21   -1    0    0  502  503 -0.00000000000E+00 -0.00000000000E+00 -0.14244039859E+02  0.14244039859E+02  0.00000000000E+00 0. -1.
          5    1    1    2  501    0 -0.21482795446E+01 -0.53288514850E+01 -0.20863416206E+01  0.77106798992E+01  0.47000000000E+01 0. -1.
         -5    1    1    2    0  503  0.21482795446E+01  0.53288514850E+01 -0.78715150924E+01  0.10819543105E+02  0.47000000000E+01 0. -1.
<mgrwt>
<rscale>  2 0.74230562E+01</rscale>
<asrwt>0</asrwt>
<pdfrwt beam="1">  1       21 0.65941280E-03 0.74230562E+01</pdfrwt>
<pdfrwt beam="2">  1       21 0.21913907E-02 0.74230562E+01</pdfrwt>
<totfact> 0.21965968E+09</totfact>
</mgrwt>
</event>
<event>
 4    1  0.3999109E+006  0.6619599E+01  0.7546771E-02  0.2341142E+00
         21   -1    0    0  503  502  0.00000000000E+00  0.00000000000E+00  0.73123299957E+02  0.73123299957E+02  0.00000000000E+00 0.  1.
         21   -1    0    0  501  503 -0.00000000000E+00 -0.00000000000E+00 -0.69832790498E+00  0.69832790498E+00  0.00000000000E+00 0. -1.
          5    1    1    2  501    0  0.34078523789E+01 -0.31805079851E+01  0.22309317459E+02  0.23270684011E+02  0.47000000000E+01 0. -1.
         -5    1    1    2    0  502 -0.34078523789E+01  0.31805079851E+01  0.50115654594E+02  0.50550943851E+02  0.47000000000E+01 0.  1.
<mgrwt>
<rscale>  2 0.66195988E+01</rscale>
<asrwt>0</asrwt>
<pdfrwt beam="1">  1       21 0.11249732E-01 0.66195988E+01</pdfrwt>
<pdfrwt beam="2">  1       21 0.10743512E-03 0.66195988E+01</pdfrwt>
<totfact> 0.21204333E+09</totfact>
</mgrwt>
</event>
<event>
 4    1  0.3999109E+006  0.5011190E+01  0.7546771E-02  0.2565172E+00
         21   -1    0    0  501  502  0.00000000000E+00  0.00000000000E+00  0.42114008490E+01  0.42114008490E+01  0.00000000000E+00 0.  1.
         21   -1    0    0  502  503 -0.00000000000E+00 -0.00000000000E+00 -0.24840326618E+02  0.24840326618E+02  0.00000000000E+00 0.  1.
          5    1    1    2  501    0 -0.67742590040E+00  0.16009751660E+01  0.23484925458E+01  0.55342067697E+01  0.47000000000E+01 0.  1.
         -5    1    1    2    0  503  0.67742590040E+00 -0.16009751660E+01 -0.22977418315E+02  0.23517520697E+02  0.47000000000E+01 0.  1.
<mgrwt>
<rscale>  2 0.50111902E+01</rscale>
<asrwt>0</asrwt>
<pdfrwt beam="1">  1       21 0.64790780E-03 0.50111902E+01</pdfrwt>
<pdfrwt beam="2">  1       21 0.38215888E-02 0.50111902E+01</pdfrwt>
<totfact> 0.72490251E+08</totfact>
</mgrwt>
</event>
<event>
 4    1  0.3999109E+006  0.4852717E+01  0.7546771E-02  0.2593964E+00
         21   -1    0    0  503  502  0.00000000000E+00  0.00000000000E+00  0.85439730608E+00  0.85439730608E+00  0.00000000000E+00 0. -1.
         21   -1    0    0  501  503 -0.00000000000E+00 -0.00000000000E+00 -0.46757781209E+02  0.46757781209E+02  0.00000000000E+00 0. -1.
          5    1    1    2  501    0  0.11519384951E+01 -0.36318070446E+00 -0.38205015519E+02  0.38511973116E+02  0.47000000000E+01 0.  1.
         -5    1    1    2    0  502 -0.11519384951E+01  0.36318070446E+00 -0.76983683836E+01  0.91002053983E+01  0.47000000000E+01 0.  1.
<mgrwt>
<rscale>  2 0.48527170E+01</rscale>
<asrwt>0</asrwt>
<pdfrwt beam="1">  1       21 0.13144571E-03 0.48527170E+01</pdfrwt>
<pdfrwt beam="2">  1       21 0.71935064E-02 0.48527170E+01</pdfrwt>
<totfact> 0.24212986E+09</totfact>
</mgrwt>
</event>
<event>
 4    1  0.3999109E+006  0.5375033E+01  0.7546771E-02  0.2504635E+00
         21   -1    0    0  503  502  0.00000000000E+00  0.00000000000E+00  0.13743215282E+03  0.13743215282E+03  0.00000000000E+00 0.  1.
         21   -1    0    0  501  503 -0.00000000000E+00 -0.00000000000E+00 -0.44034780066E+00  0.44034780066E+00  0.00000000000E+00 0.  1.
          5    1    1    2  501    0 -0.16279838944E+01 -0.20373134359E+01  0.18660915401E+02  0.19419596834E+02  0.47000000000E+01 0.  1.
         -5    1    1    2    0  502  0.16279838944E+01  0.20373134359E+01  0.11833088962E+03  0.11845290379E+03  0.47000000000E+01 0.  1.
<mgrwt>
<rscale>  2 0.53750328E+01</rscale>
<asrwt>0</asrwt>
<pdfrwt beam="1">  1       21 0.21143374E-01 0.53750328E+01</pdfrwt>
<pdfrwt beam="2">  1       21 0.67745925E-04 0.53750328E+01</pdfrwt>
<totfact> 0.12250105E+09</totfact>
</mgrwt>
</event>
<event>
 4    1  0.3999109E+006  0.6319067E+01  0.7546771E-02  0.2375659E+00
         21   -1    0    0  501  502  0.00000000000E+00  0.00000000000E+00  0.45616249130E+03  0.45616249130E+03  0.00000000000E+00 0. -1.
         21   -1    0    0  502  503 -0.00000000000E+00 -0.00000000000E+00 -0.20297001676E+00  0.20297001676E+00  0.00000000000E+00 0. -1.
          5    1    1    2  501    0 -0.31803752193E+01 -0.27795350647E+01  0.40006114472E+03  0.40011104723E+03  0.47000000000E+01 0. -1.
         -5    1    1    2    0  503  0.31803752193E+01  0.27795350647E+01  0.55898376562E+02  0.56254414085E+02  0.47000000000E+01 0. -1.
<mgrwt>
<rscale>  2 0.63190665E+01</rscale>
<asrwt>0</asrwt>
<pdfrwt beam="1">  1       21 0.70178024E-01 0.63190665E+01</pdfrwt>
<pdfrwt beam="2">  1       21 0.31226522E-04 0.63190665E+01</pdfrwt>
<totfact> 0.48141286E+08</totfact>
</mgrwt>
</event>
<event>
 4    1  0.3999109E+006  0.1432218E+02  0.7546771E-02  0.1889485E+00
         21   -1    0    0  503  502  0.00000000000E+00  0.00000000000E+00  0.15006891355E+03  0.15006891355E+03  0.00000000000E+00 0. -1.
         21   -1    0    0  501  503 -0.00000000000E+00 -0.00000000000E+00 -0.13745517962E+01  0.13745517962E+01  0.00000000000E+00 0. -1.
          5    1    1    2  501    0 -0.40895295321E+01  0.12896148883E+02  0.68686985102E+02  0.70164284577E+02  0.47000000000E+01 0. -1.
         -5    1    1    2    0  502  0.40895295321E+01 -0.12896148883E+02  0.80007376656E+02  0.81279180773E+02  0.47000000000E+01 0. -1.
<mgrwt>
<rscale>  2 0.14322182E+02</rscale>
<asrwt>0</asrwt>
<pdfrwt beam="1">  1       21 0.23087512E-01 0.14322182E+02</pdfrwt>
<pdfrwt beam="2">  1       21 0.21146963E-03 0.14322182E+02</pdfrwt>
<totfact> 0.39690261E+08</totfact>
</mgrwt>
</event>
<event>
 4    1  0.3999109E+006  0.1037686E+02  0.7546771E-02  0.2054154E+00
         21   -1    0    0  503  502  0.00000000000E+00  0.00000000000E+00  0.29078412851E+02  0.29078412851E+02  0.00000000000E+00 0. -1.
         21   -1    0    0  501  503 -0.00000000000E+00 -0.00000000000E+00 -0.37958559612E+01  0.37958559612E+01  0.00000000000E+00 0.  1.
          5    1    1    2  501    0 -0.64345536808E+01  0.66472297561E+01  0.10071280339E+02  0.14460630421E+02  0.47000000000E+01 0.  1.
         -5    1    1    2    0  502  0.64345536808E+01 -0.66472297561E+01  0.15211276551E+02  0.18413638391E+02  0.47000000000E+01 0. -1.
<mgrwt>
<rscale>  2 0.10376856E+02</rscale>
<asrwt>0</asrwt>
<pdfrwt beam="1">  1       21 0.44736018E-02 0.10376856E+02</pdfrwt>
<pdfrwt beam="2">  1       21 0.58397786E-03 0.10376856E+02</pdfrwt>
<totfact> 0.11227841E+09</totfact>
</mgrwt>
</event>
<event>
 4    1  0.3999109E+006  0.4777245E+01  0.7546771E-02  0.2608255E+00
         21   -1    0    0  503  502  0.00000000000E+00  0.00000000000E+00  0.16230170261E+02  0.16230170261E+02  0.00000000000E+00 0. -1.
         21   -1    0    0  501  503 -0.00000000000E+00 -0.00000000000E+00 -0.26512369170E+01  0.26512369170E+01  0.00000000000E+00 0. -1.
          5    1    1    2  501    0 -0.81089434850E+00 -0.27298040477E+00  0.31983170919E+00  0.47879390418E+01  0.47000000000E+01 0. -1.
         -5    1    1    2    0  502  0.81089434850E+00  0.27298040477E+00  0.13259101635E+02  0.14093468137E+02  0.47000000000E+01 0. -1.
<mgrwt>
<rscale>  2 0.47772448E+01</rscale>
<asrwt>0</asrwt>
<pdfrwt beam="1">  1       21 0.24969492E-02 0.47772448E+01</pdfrwt>
<pdfrwt beam="2">  1       21 0.40788261E-03 0.47772448E+01</pdfrwt>
<totfact> 0.24032712E+09</totfact>
</mgrwt>
</event>
<event>
 4    1  0.3999109E+006  0.5453174E+01  0.7546771E-02  0.2492538E+00
         21   -1    0    0  501  502  0.00000000000E+00  0.00000000000E+00  0.14350353247E+00  0.14350353247E+00  0.00000000000E+00 0. -1.
         21   -1    0    0  502  503 -0.00000000000E+00 -0.00000000000E+00 -0.27161588770E+03  0.27161588770E+03  0.00000000000E+00 0.  1.
          5    1    1    2  501    0 -0.14062750474E+01  0.23810701076E+01 -0.69575667132E+02  0.69789043275E+02  0.47000000000E+01 0. -1.
         -5    1    1    2    0  503  0.14062750474E+01 -0.23810701076E+01 -0.20189671704E+03  0.20197034796E+03  0.47000000000E+01 0.  1.
<mgrwt>
<rscale>  2 0.54531738E+01</rscale>
<asrwt>0</asrwt>
<pdfrwt beam="1">  1       21 0.22077755E-04 0.54531738E+01</pdfrwt>
<pdfrwt beam="2">  1       21 0.41786514E-01 0.54531738E+01</pdfrwt>
<totfact> 0.17638720E+09</totfact>
</mgrwt>
</event>
<event>
 4    1  0.3999109E+006  0.7219577E+01  0.7546771E-02  0.2279410E+00
         21   -1    0    0  501  502  0.00000000000E+00  0.00000000000E+00  0.53213079884E+02  0.53213079884E+02  0.00000000000E+00 0.  1.
         21   -1    0    0  502  503 -0.00000000000E+00 -0.00000000000E+00 -0.40159214744E+01  0.40159214744E+01  0.00000000000E+00 0.  1.
          5    1    1    2  501    0  0.31565193650E+01 -0.44798081762E+01  0.49479960117E+02  0.50003887338E+02  0.47000000000E+01 0.  1.
         -5    1    1    2    0  503 -0.31565193650E+01  0.44798081762E+01 -0.28280170704E+00  0.72251140201E+01  0.47000000000E+01 0.  1.
<mgrwt>
<rscale>  2 0.72195773E+01</rscale>
<asrwt>0</asrwt>
<pdfrwt beam="1">  1       21 0.81866272E-02 0.72195773E+01</pdfrwt>
<pdfrwt beam="2">  1       21 0.61783411E-03 0.72195773E+01</pdfrwt>
<totfact> 0.32954934E+08</totfact>
</mgrwt>
</event>
<event>
 4    1  0.3999109E+006  0.6830389E+01  0.7546771E-02  0.2318440E+00
         21   -1    0    0  503  502  0.00000000000E+00  0.00000000000E+00  0.13340493757E+01  0.13340493757E+01  0.00000000000E+00 0.  1.
         21   -1    0    0  501  503 -0.00000000000E+00 -0.00000000000E+00 -0.37625531429E+02  0.37625531429E+02  0.00000000000E+00 0.  1.
          5    1    1    2  501    0 -0.25309541896E+01 -0.42612768331E+01 -0.23319011945E+02  0.24298776254E+02  0.47000000000E+01 0.  1.
         -5    1    1    2    0  502  0.25309541896E+01  0.42612768331E+01 -0.12972470108E+02  0.14660804551E+02  0.47000000000E+01 0.  1.
<mgrwt>
<rscale>  2 0.68303887E+01</rscale>
<asrwt>0</asrwt>
<pdfrwt beam="1">  1       21 0.20523837E-03 0.68303887E+01</pdfrwt>
<pdfrwt beam="2">  1       21 0.57885431E-02 0.68303887E+01</pdfrwt>
<totfact> 0.24867824E+09</totfact>
</mgrwt>
</event>
<event>
 4    1  0.3999109E+006  0.4759026E+01  0.7546771E-02  0.2611764E+00
         21   -1    0    0  501  502  0.00000000000E+00  0.00000000000E+00  0.80930693574E+00  0.80930693574E+00  0.00000000000E+00 0. -1.
         21   -1    0    0  502  503 -0.00000000000E+00 -0.00000000000E+00 -0.51999756857E+02  0.51999756857E+02  0.00000000000E+00 0. -1.
          5    1    1    2  501    0  0.19660801625E+00  0.72088424854E+00 -0.76512638853E+01  0.90105586872E+01  0.47000000000E+01 0. -1.
         -5    1    1    2    0  503 -0.19660801625E+00 -0.72088424854E+00 -0.43539186036E+02  0.43798505105E+02  0.47000000000E+01 0. -1.
<mgrwt>
<rscale>  2 0.47590260E+01</rscale>
<asrwt>0</asrwt>
<pdfrwt beam="1">  1       21 0.12450874E-03 0.47590260E+01</pdfrwt>
<pdfrwt beam="2">  1       21 0.79999640E-02 0.47590260E+01</pdfrwt>
<totfact> 0.21790886E+09</totfact>
</mgrwt>
</event>
<event>
 4    1  0.3999109E+006  0.6192329E+01  0.7546771E-02  0.2391044E+00
         21   -1    0    0  501  502  0.00000000000E+00  0.00000000000E+00  0.73592607176E+03  0.73592607176E+03  0.00000000000E+00 0. -1.
         21   -1    0    0  502  503 -0.00000000000E+00 -0.00000000000E+00 -0.57812166298E-01  0.57812166298E-01  0.00000000000E+00 0. -1.
          5    1    1    2  501    0  0.15087791707E+01 -0.37387856474E+01  0.48356254021E+03  0.48360218695E+03  0.47000000000E+01 0. -1.
         -5    1    1    2    0  503 -0.15087791707E+01  0.37387856474E+01  0.25230571939E+03  0.25238169698E+03  0.47000000000E+01 0. -1.
<mgrwt>
<rscale>  2 0.61923285E+01</rscale>
<asrwt>0</asrwt>
<pdfrwt beam="1">  1       21 0.11321189E+00 0.61923285E+01</pdfrwt>
<pdfrwt beam="2">  1       21 0.88947688E-05 0.61923285E+01</pdfrwt>
<totfact> 0.98132411E+08</totfact>
</mgrwt>
</event>
<event>
 4    1  0.3999109E+006  0.8409156E+01  0.7546771E-02  0.2178719E+00
         21   -1    0    0  503  502  0.00000000000E+00  0.00000000000E+00  0.30343034469E+02  0.30343034469E+02  0.00000000000E+00 0.  1.
         21   -1    0    0  501  503 -0.00000000000E+00 -0.00000000000E+00 -0.26141331993E+01  0.26141331993E+01  0.00000000000E+00 0.  1.
          5    1    1    2  501    0 -0.26927990228E+01  0.64321643764E+01  0.19292553912E+02  0.21045582472E+02  0.47000000000E+01 0.  1.
         -5    1    1    2    0  502  0.26927990228E+01 -0.64321643764E+01  0.84363473573E+01  0.11911585196E+02  0.47000000000E+01 0.  1.
<mgrwt>
<rscale>  2 0.84091560E+01</rscale>
<asrwt>0</asrwt>
<pdfrwt beam="1">  1       21 0.46681589E-02 0.84091560E+01</pdfrwt>
<pdfrwt beam="2">  1       21 0.40217436E-03 0.84091560E+01</pdfrwt>
<totfact> 0.15699887E+09</totfact>
</mgrwt>
</event>
<event>
 4    1  0.3999109E+006  0.6409153E+01  0.7546771E-02  0.2365031E+00
         21   -1    0    0  503  502  0.00000000000E+00  0.00000000000E+00  0.43287371881E+00  0.43287371881E+00  0.00000000000E+00 0. -1.
         21   -1    0    0  501  503 -0.00000000000E+00 -0.00000000000E+00 -0.99007580351E+02  0.99007580351E+02  0.00000000000E+00 0. -1.
          5    1    1    2  501    0 -0.15710884825E+01 -0.40643473631E+01 -0.59421665022E+02  0.59766307502E+02  0.47000000000E+01 0. -1.
         -5    1    1    2    0  502  0.15710884825E+01  0.40643473631E+01 -0.39153041610E+02  0.39674146567E+02  0.47000000000E+01 0. -1.
<mgrwt>
<rscale>  2 0.64091527E+01</rscale>
<asrwt>0</asrwt>
<pdfrwt beam="1">  1       21 0.66595941E-04 0.64091527E+01</pdfrwt>
<pdfrwt beam="2">  1       21 0.15231939E-01 0.64091527E+01</pdfrwt>
<totfact> 0.24453888E+09</totfact>
</mgrwt>
</event>
<event>
 4    1  0.3999109E+006  0.6553402E+01  0.7546771E-02  0.2348520E+00
         21   -1    0    0  501  502  0.00000000000E+00  0.00000000000E+00  0.13548945073E+03  0.13548945073E+03  0.00000000000E+00 0.  1.
         21   -1    0    0  502  503 -0.00000000000E+00 -0.00000000000E+00 -0.11296729345E+01  0.11296729345E+01  0.00000000000E+00 0. -1.
          5    1    1    2  501    0 -0.43572341414E+01  0.13680607558E+01  0.12511863639E+03  0.12529014428E+03  0.47000000000E+01 0.  1.
         -5    1    1    2    0  503  0.43572341414E+01 -0.13680607558E+01  0.92411414046E+01  0.11328979392E+02  0.47000000000E+01 0. -1.
<mgrwt>
<rscale>  2 0.65534021E+01</rscale>
<asrwt>0</asrwt>
<pdfrwt beam="1">  1       21 0.20844518E-01 0.65534021E+01</pdfrwt>
<pdfrwt beam="2">  1       21 0.17379594E-03 0.65534021E+01</pdfrwt>
<totfact> 0.41030142E+08</totfact>
</mgrwt>
</event>
<event>
 4    1  0.3999109E+006  0.4853498E+01  0.7546771E-02  0.2593818E+00
         21   -1    0    0  503  502  0.00000000000E+00  0.00000000000E+00  0.43730008006E+03  0.43730008006E+03  0.00000000000E+00 0. -1.
         21   -1    0    0  501  503 -0.00000000000E+00 -0.00000000000E+00 -0.25764983990E+00  0.25764983990E+00  0.00000000000E+00 0. -1.
          5    1    1    2  501    0  0.23929189992E+00 -0.11870882453E+01  0.23952385156E+02  0.24439173345E+02  0.47000000000E+01 0. -1.
         -5    1    1    2    0  502 -0.23929189992E+00  0.11870882453E+01  0.41309004507E+03  0.41311855656E+03  0.47000000000E+01 0. -1.
<mgrwt>
<rscale>  2 0.48534976E+01</rscale>
<asrwt>0</asrwt>
<pdfrwt beam="1">  1       21 0.67276341E-01 0.48534976E+01</pdfrwt>
<pdfrwt beam="2">  1       21 0.39638787E-04 0.48534976E+01</pdfrwt>
<totfact> 0.31388872E+08</totfact>
</mgrwt>
</event>
<event>
 4    1  0.3999109E+006  0.5336993E+01  0.7546771E-02  0.2510633E+00
         21   -1    0    0  503  502  0.00000000000E+00  0.00000000000E+00  0.23994093895E+01  0.23994093895E+01  0.00000000000E+00 0. -1.
         21   -1    0    0  501  503 -0.00000000000E+00 -0.00000000000E+00 -0.22928960382E+02  0.22928960382E+02  0.00000000000E+00 0. -1.
          5    1    1    2  501    0  0.21414382367E+01  0.13445195331E+01 -0.19059489948E+02  0.19792615986E+02  0.47000000000E+01 0. -1.
         -5    1    1    2    0  502 -0.21414382367E+01 -0.13445195331E+01 -0.14700610444E+01  0.55357537852E+01  0.47000000000E+01 0. -1.
<mgrwt>
<rscale>  2 0.53369926E+01</rscale>
<asrwt>0</asrwt>
<pdfrwt beam="1">  1       21 0.36913991E-03 0.53369926E+01</pdfrwt>
<pdfrwt beam="2">  1       21 0.35275323E-02 0.53369926E+01</pdfrwt>
<totfact> 0.18725518E+09</totfact>
</mgrwt>
</event>
<event>
 4    1  0.3999109E+006  0.5558399E+01  0.7546771E-02  0.2476706E+00
         21   -1    0    0  501  502  0.00000000000E+00  0.00000000000E+00  0.41562186420E+02  0.41562186420E+02  0.00000000000E+00 0. -1.
         21   -1    0    0  502  503 -0.00000000000E+00 -0.00000000000E+00 -0.10843011254E+01  0.10843011254E+01  0.00000000000E+00 0. -1.
          5    1    1    2  501    0  0.26988168700E+01 -0.12337705894E+01  0.32195769407E+02  0.32672057940E+02  0.47000000000E+01 0. -1.
         -5    1    1    2    0  503 -0.26988168700E+01  0.12337705894E+01  0.82821158876E+01  0.99744296048E+01  0.47000000000E+01 0. -1.
<mgrwt>
<rscale>  2 0.55583993E+01</rscale>
<asrwt>0</asrwt>
<pdfrwt beam="1">  1       21 0.63941813E-02 0.55583993E+01</pdfrwt>
<pdfrwt beam="2">  1       21 0.16681559E-03 0.55583993E+01</pdfrwt>
<totfact> 0.23883857E+09</totfact>
</mgrwt>
</event>
<event>
 4    1  0.3999109E+006  0.6454644E+01  0.7546771E-02  0.2359758E+00
         21   -1    0    0  501  502  0.00000000000E+00  0.00000000000E+00  0.16607936399E+02  0.16607936399E+02  0.00000000000E+00 0.  1.
         21   -1    0    0  502  503 -0.00000000000E+00 -0.00000000000E+00 -0.30373241771E+01  0.30373241771E+01  0.00000000000E+00 0. -1.
          5    1    1    2  501    0 -0.13592691489E+01 -0.42100854848E+01  0.10883595921E+02  0.12653659256E+02  0.47000000000E+01 0.  1.
         -5    1    1    2    0  503  0.13592691489E+01  0.42100854848E+01  0.26870163007E+01  0.69916013193E+01  0.47000000000E+01 0. -1.
<mgrwt>
<rscale>  2 0.64546443E+01</rscale>
<asrwt>0</asrwt>
<pdfrwt beam="1">  1       21 0.25550671E-02 0.64546443E+01</pdfrwt>
<pdfrwt beam="2">  1       21 0.46728065E-03 0.64546443E+01</pdfrwt>
<totfact> 0.25517030E+09</totfact>
</mgrwt>
</event>
<event>
 4    1  0.3999109E+006  0.5461777E+01  0.7546771E-02  0.2491224E+00
         21   -1    0    0  501  502  0.00000000000E+00  0.00000000000E+00  0.88838396661E+02  0.88838396661E+02  0.00000000000E+00 0. -1.
         21   -1    0    0  502  503 -0.00000000000E+00 -0.00000000000E+00 -0.11467398496E+02  0.11467398496E+02  0.00000000000E+00 0. -1.
          5    1    1    2  501    0  0.26411252817E+01 -0.87491156213E+00  0.88098649729E+02  0.88267791957E+02  0.47000000000E+01 0. -1.
         -5    1    1    2    0  503 -0.26411252817E+01  0.87491156213E+00 -0.10727651563E+02  0.12038003201E+02  0.47000000000E+01 0. -1.
<mgrwt>
<rscale>  2 0.54617775E+01</rscale>
<asrwt>0</asrwt>
<pdfrwt beam="1">  1       21 0.13667445E-01 0.54617775E+01</pdfrwt>
<pdfrwt beam="2">  1       21 0.17642152E-02 0.54617775E+01</pdfrwt>
<totfact> 0.28354253E+07</totfact>
</mgrwt>
</event>
<event>
 4    1  0.3999109E+006  0.8403608E+01  0.7546771E-02  0.2179135E+00
         21   -1    0    0  503  502  0.00000000000E+00  0.00000000000E+00  0.87164874725E+00  0.87164874725E+00  0.00000000000E+00 0. -1.
         21   -1    0    0  501  503 -0.00000000000E+00 -0.00000000000E+00 -0.12770423993E+03  0.12770423993E+03  0.00000000000E+00 0. -1.
          5    1    1    2  501    0 -0.66364199283E+01 -0.21186221860E+01 -0.10228623876E+03  0.10263086899E+03  0.47000000000E+01 0. -1.
         -5    1    1    2    0  502  0.66364199283E+01  0.21186221860E+01 -0.24546352417E+02  0.25945019684E+02  0.47000000000E+01 0. -1.
<mgrwt>
<rscale>  2 0.84036081E+01</rscale>
<asrwt>0</asrwt>
<pdfrwt beam="1">  1       21 0.13409973E-03 0.84036081E+01</pdfrwt>
<pdfrwt beam="2">  1       21 0.19646817E-01 0.84036081E+01</pdfrwt>
<totfact> 0.75542875E+08</totfact>
</mgrwt>
</event>
<event>
 4    1  0.3999109E+006  0.4900160E+01  0.7546771E-02  0.2585176E+00
         21   -1    0    0  501  502  0.00000000000E+00  0.00000000000E+00  0.34376192190E+01  0.34376192190E+01  0.00000000000E+00 0. -1.
         21   -1    0    0  502  503 -0.00000000000E+00 -0.00000000000E+00 -0.98474660583E+01  0.98474660583E+01  0.00000000000E+00 0. -1.
          5    1    1    2  501    0 -0.86569360365E+00  0.10826558089E+01  0.37642618438E+00  0.49145972051E+01  0.47000000000E+01 0. -1.
         -5    1    1    2    0  503  0.86569360365E+00 -0.10826558089E+01 -0.67862730237E+01  0.83704880723E+01  0.47000000000E+01 0. -1.
<mgrwt>
<rscale>  2 0.49001601E+01</rscale>
<asrwt>0</asrwt>
<pdfrwt beam="1">  1       21 0.52886449E-03 0.49001601E+01</pdfrwt>
<pdfrwt beam="2">  1       21 0.15149948E-02 0.49001601E+01</pdfrwt>
<totfact> 0.35057409E+09</totfact>
</mgrwt>
</event>
<event>
 4    1  0.3999109E+006  0.7733896E+01  0.7546771E-02  0.2232805E+00
         21   -1    0    0  503  502  0.00000000000E+00  0.00000000000E+00  0.70123550811E+00  0.70123550811E+00  0.00000000000E+00 0.  1.
         21   -1    0    0  501  503 -0.00000000000E+00 -0.00000000000E+00 -0.11091912853E+03  0.11091912853E+03  0.00000000000E+00 0. -1.
          5    1    1    2  501    0 -0.57587010660E+01  0.21355340876E+01 -0.81932698519E+02  0.82296902922E+02  0.47000000000E+01 0. -1.
         -5    1    1    2    0  502  0.57587010660E+01 -0.21355340876E+01 -0.28285194500E+02  0.29323461114E+02  0.47000000000E+01 0.  1.
<mgrwt>
<rscale>  2 0.77338958E+01</rscale>
<asrwt>0</asrwt>
<pdfrwt beam="1">  1       21 0.10788243E-03 0.77338958E+01</pdfrwt>
<pdfrwt beam="2">  1       21 0.17064475E-01 0.77338958E+01</pdfrwt>
<totfact> 0.12162896E+09</totfact>
</mgrwt>
</event>
<event>
 4    1  0.3999109E+006  0.5004793E+01  0.7546771E-02  0.2566304E+00
         21   -1    0    0  503  502  0.00000000000E+00  0.00000000000E+00  0.13203780544E+02  0.13203780544E+02  0.00000000000E+00 0.  1.
         21   -1    0    0  501  503 -0.00000000000E+00 -0.00000000000E+00 -0.28885937292E+01  0.28885937292E+01  0.00000000000E+00 0. -1.
          5    1    1    2  501    0 -0.16429944032E+01 -0.50845568514E+00  0.44340018464E+00  0.50243966321E+01  0.47000000000E+01 0. -1.
         -5    1    1    2    0  502  0.16429944032E+01  0.50845568514E+00  0.98717866303E+01  0.11067977641E+02  0.47000000000E+01 0.  1.
<mgrwt>
<rscale>  2 0.50047935E+01</rscale>
<asrwt>0</asrwt>
<pdfrwt beam="1">  1       21 0.20313508E-02 0.50047935E+01</pdfrwt>
<pdfrwt beam="2">  1       21 0.44439904E-03 0.50047935E+01</pdfrwt>
<totfact> 0.30066323E+09</totfact>
</mgrwt>
</event>
<event>
 4    1  0.3999109E+006  0.5312881E+01  0.7546771E-02  0.2514472E+00
         21   -1    0    0  501  502  0.00000000000E+00  0.00000000000E+00  0.12888967109E+02  0.12888967109E+02  0.00000000000E+00 0.  1.
         21   -1    0    0  502  503 -0.00000000000E+00 -0.00000000000E+00 -0.60653050396E+02  0.60653050396E+02  0.00000000000E+00 0. -1.
          5    1    1    2  501    0 -0.15660600207E+01 -0.19194162714E+01  0.12219021790E+02  0.13324083320E+02  0.47000000000E+01 0.  1.
         -5    1    1    2    0  503  0.15660600207E+01  0.19194162714E+01 -0.59983105078E+02  0.60217934185E+02  0.47000000000E+01 0. -1.
<mgrwt>
<rscale>  2 0.53128808E+01</rscale>
<asrwt>0</asrwt>
<pdfrwt beam="1">  1       21 0.19829180E-02 0.53128808E+01</pdfrwt>
<pdfrwt beam="2">  1       21 0.93312385E-02 0.53128808E+01</pdfrwt>
<totfact> 0.42338858E+07</totfact>
</mgrwt>
</event>
<event>
 4    1  0.3999109E+006  0.5396281E+01  0.7546771E-02  0.2501316E+00
         21   -1    0    0  501  502  0.00000000000E+00  0.00000000000E+00  0.23485172415E+03  0.23485172415E+03  0.00000000000E+00 0.  1.
         21   -1    0    0  502  503 -0.00000000000E+00 -0.00000000000E+00 -0.16706011142E+00  0.16706011142E+00  0.00000000000E+00 0. -1.
          5    1    1    2  501    0  0.93884444211E+00 -0.24796001701E+01  0.17700624453E+03  0.17708848198E+03  0.47000000000E+01 0.  1.
         -5    1    1    2    0  503 -0.93884444211E+00  0.24796001701E+01  0.57678419503E+02  0.57930302280E+02  0.47000000000E+01 0. -1.
<mgrwt>
<rscale>  2 0.53962807E+01</rscale>
<asrwt>0</asrwt>
<pdfrwt beam="1">  1       21 0.36130771E-01 0.53962807E+01</pdfrwt>
<pdfrwt beam="2">  1       21 0.25701743E-04 0.53962807E+01</pdfrwt>
<totfact> 0.18362116E+09</totfact>
</mgrwt>
</event>
<event>
 4    1  0.3999109E+006  0.5050286E+01  0.7546771E-02  0.2558310E+00
         21   -1    0    0  503  502  0.00000000000E+00  0.00000000000E+00  0.73158631413E+02  0.73158631413E+02  0.00000000000E+00 0.  1.
         21   -1    0    0  501  503 -0.00000000000E+00 -0.00000000000E+00 -0.90761198291E+00  0.90761198291E+00  0.00000000000E+00 0.  1.
          5    1    1    2  501    0 -0.81806514491E+00 -0.16571541407E+01  0.70626327755E+01  0.86825210710E+01  0.47000000000E+01 0.  1.
         -5    1    1    2    0  502  0.81806514491E+00  0.16571541407E+01  0.65188386654E+02  0.65383722324E+02  0.47000000000E+01 0.  1.
<mgrwt>
<rscale>  2 0.50502862E+01</rscale>
<asrwt>0</asrwt>
<pdfrwt beam="1">  1       21 0.11255169E-01 0.50502862E+01</pdfrwt>
<pdfrwt beam="2">  1       21 0.13963267E-03 0.50502862E+01</pdfrwt>
<totfact> 0.11847910E+09</totfact>
</mgrwt>
</event>
<event>
 4    1  0.3999109E+006  0.1003206E+02  0.7546771E-02  0.2073168E+00
         21   -1    0    0  501  502  0.00000000000E+00  0.00000000000E+00  0.10473594652E+02  0.10473594652E+02  0.00000000000E+00 0.  1.
         21   -1    0    0  502  503 -0.00000000000E+00 -0.00000000000E+00 -0.12290325401E+02  0.12290325401E+02  0.00000000000E+00 0.  1.
          5    1    1    2  501    0 -0.84748158915E+01 -0.25941804201E+01  0.44078000399E+01  0.10957690342E+02  0.47000000000E+01 0.  1.
         -5    1    1    2    0  503  0.84748158915E+01  0.25941804201E+01 -0.62245307891E+01  0.11806229711E+02  0.47000000000E+01 0.  1.
<mgrwt>
<rscale>  2 0.10032062E+02</rscale>
<asrwt>0</asrwt>
<pdfrwt beam="1">  1       21 0.16113223E-02 0.10032062E+02</pdfrwt>
<pdfrwt beam="2">  1       21 0.18908193E-02 0.10032062E+02</pdfrwt>
<totfact> 0.91861647E+08</totfact>
</mgrwt>
</event>
<event>
 4    1  0.3999109E+006  0.7632535E+01  0.7546771E-02  0.2241586E+00
         21   -1    0    0  503  502  0.00000000000E+00  0.00000000000E+00  0.81039743823E+02  0.81039743823E+02  0.00000000000E+00 0. -1.
         21   -1    0    0  501  503 -0.00000000000E+00 -0.00000000000E+00 -0.73646117721E+00  0.73646117721E+00  0.00000000000E+00 0.  1.
          5    1    1    2  501    0  0.92999401559E+00  0.59414390684E+01  0.33829113099E+02  0.34679453285E+02  0.47000000000E+01 0. -1.
         -5    1    1    2    0  502 -0.92999401559E+00 -0.59414390684E+01  0.46474169547E+02  0.47096751716E+02  0.47000000000E+01 0.  1.
<mgrwt>
<rscale>  2 0.76325348E+01</rscale>
<asrwt>0</asrwt>
<pdfrwt beam="1">  1       21 0.12467646E-01 0.76325348E+01</pdfrwt>
<pdfrwt beam="2">  1       21 0.11330178E-03 0.76325348E+01</pdfrwt>
<totfact> 0.18643715E+09</totfact>
</mgrwt>
</event>
<event>
 4    1  0.3999109E+006  0.5348943E+01  0.7546771E-02  0.2508741E+00
         21   -1    0    0  501  502  0.00000000000E+00  0.00000000000E+00  0.85037471811E-01  0.85037471811E-01  0.00000000000E+00 0.  1.
         21   -1    0    0  502  503 -0.00000000000E+00 -0.00000000000E+00 -0.33945428865E+03  0.33945428865E+03  0.00000000000E+00 0. -1.
          5    1    1    2  501    0  0.25522774749E+01  0.84078688880E-01 -0.15372371113E+03  0.15381674341E+03  0.47000000000E+01 0. -1.
         -5    1    1    2    0  503 -0.25522774749E+01 -0.84078688880E-01 -0.18564554004E+03  0.18572258271E+03  0.47000000000E+01 0. -1.
<mgrwt>
<rscale>  2 0.53489428E+01</rscale>
<asrwt>0</asrwt>
<pdfrwt beam="1">  1       21 0.13082922E-04 0.53489428E+01</pdfrwt>
<pdfrwt beam="2">  1       21 0.52222802E-01 0.53489428E+01</pdfrwt>
<totfact> 0.23429127E+09</totfact>
</mgrwt>
</event>
<event>
 4    1  0.3999109E+006  0.6564606E+01  0.7546771E-02  0.2347262E+00
         21   -1    0    0  503  502  0.00000000000E+00  0.00000000000E+00  0.73424348875E+00  0.73424348875E+00  0.00000000000E+00 0.  1.
         21   -1    0    0  501  503 -0.00000000000E+00 -0.00000000000E+00 -0.79630423128E+02  0.79630423128E+02  0.00000000000E+00 0.  1.
          5    1    1    2  501    0  0.29995074335E+01 -0.34651133182E+01 -0.60052962627E+02  0.60410697525E+02  0.47000000000E+01 0.  1.
         -5    1    1    2    0  502 -0.29995074335E+01  0.34651133182E+01 -0.18843217012E+02  0.19953969092E+02  0.47000000000E+01 0.  1.
<mgrwt>
<rscale>  2 0.65646062E+01</rscale>
<asrwt>0</asrwt>
<pdfrwt beam="1">  1       21 0.11296059E-03 0.65646062E+01</pdfrwt>
<pdfrwt beam="2">  1       21 0.12250828E-01 0.65646062E+01</pdfrwt>
<totfact> 0.17233482E+09</totfact>
</mgrwt>
</event>
<event>
 4    1  0.3999109E+006  0.8244313E+01  0.7546771E-02  0.2191264E+00
         21   -1    0    0  501  502  0.00000000000E+00  0.00000000000E+00  0.17292437508E+02  0.17292437508E+02  0.00000000000E+00 0. -1.
         21   -1    0    0  502  503 -0.00000000000E+00 -0.00000000000E+00 -0.73252424248E+01  0.73252424248E+01  0.00000000000E+00 0.  1.
          5    1    1    2  501    0 -0.40148298029E+01  0.54552571692E+01  0.13362877753E+02  0.15701439137E+02  0.47000000000E+01 0. -1.
         -5    1    1    2    0  503  0.40148298029E+01 -0.54552571692E+01 -0.33956826702E+01  0.89162407956E+01  0.47000000000E+01 0.  1.
<mgrwt>
<rscale>  2 0.82443125E+01</rscale>
<asrwt>0</asrwt>
<pdfrwt beam="1">  1       21 0.26603750E-02 0.82443125E+01</pdfrwt>
<pdfrwt beam="2">  1       21 0.11269604E-02 0.82443125E+01</pdfrwt>
<totfact> 0.82734285E+08</totfact>
</mgrwt>
</event>
<event>
 4    1  0.3999109E+006  0.5814480E+01  0.7546771E-02  0.2440213E+00
         21   -1    0    0  503  502  0.00000000000E+00  0.00000000000E+00  0.12853977161E+03  0.12853977161E+03  0.00000000000E+00 0.  1.
         21   -1    0    0  501  503 -0.00000000000E+00 -0.00000000000E+00 -0.36318399122E+00  0.36318399122E+00  0.00000000000E+00 0.  1.
          5    1    1    2  501    0  0.33583857121E+01  0.66288754507E+00  0.30240423360E+02  0.30794340056E+02  0.47000000000E+01 0.  1.
         -5    1    1    2    0  502 -0.33583857121E+01 -0.66288754507E+00  0.97936164260E+02  0.98108615546E+02  0.47000000000E+01 0.  1.
<mgrwt>
<rscale>  2 0.58144797E+01</rscale>
<asrwt>0</asrwt>
<pdfrwt beam="1">  1       21 0.19775313E-01 0.58144797E+01</pdfrwt>
<pdfrwt beam="2">  1       21 0.55874563E-04 0.58144797E+01</pdfrwt>
<totfact> 0.18834763E+09</totfact>
</mgrwt>
</event>
<event>
 4    1  0.3999109E+006  0.5425948E+01  0.7546771E-02  0.2496719E+00
         21   -1    0    0  501  502  0.00000000000E+00  0.00000000000E+00  0.51212157428E+02  0.51212157428E+02  0.00000000000E+00 0. -1.
         21   -1    0    0  502  503 -0.00000000000E+00 -0.00000000000E+00 -0.15931558191E+01  0.15931558191E+01  0.00000000000E+00 0.  1.
          5    1    1    2  501    0 -0.12815292755E+01 -0.23892657299E+01  0.45917688813E+02  0.46237160963E+02  0.47000000000E+01 0. -1.
         -5    1    1    2    0  503  0.12815292755E+01  0.23892657299E+01  0.37013127961E+01  0.65681522841E+01  0.47000000000E+01 0.  1.
<mgrwt>
<rscale>  2 0.54259477E+01</rscale>
<asrwt>0</asrwt>
<pdfrwt beam="1">  1       21 0.78787922E-02 0.54259477E+01</pdfrwt>
<pdfrwt beam="2">  1       21 0.24510093E-03 0.54259477E+01</pdfrwt>
<totfact> 0.10164418E+09</totfact>
</mgrwt>
</event>
<event>
 4    1  0.3999109E+006  0.5335176E+01  0.7546771E-02  0.2510921E+00
         21   -1    0    0  501  502  0.00000000000E+00  0.00000000000E+00  0.80231952953E+02  0.80231952953E+02  0.00000000000E+00 0.  1.
         21   -1    0    0  502  503 -0.00000000000E+00 -0.00000000000E+00 -0.91852486644E+00  0.91852486644E+00  0.00000000000E+00 0.  1.
          5    1    1    2  501    0 -0.33984497863E+00  0.25017220858E+01  0.71444459864E+02  0.71643387366E+02  0.47000000000E+01 0.  1.
         -5    1    1    2    0  503  0.33984497863E+00 -0.25017220858E+01  0.78689682227E+01  0.95070904537E+01  0.47000000000E+01 0.  1.
<mgrwt>
<rscale>  2 0.53351765E+01</rscale>
<asrwt>0</asrwt>
<pdfrwt beam="1">  1       21 0.12343372E-01 0.53351765E+01</pdfrwt>
<pdfrwt beam="2">  1       21 0.14131158E-03 0.53351765E+01</pdfrwt>
<totfact> 0.10636590E+09</totfact>
</mgrwt>
</event>
<event>
 4    1  0.3999109E+006  0.5607467E+01  0.7546771E-02  0.2469496E+00
         21   -1    0    0  503  502  0.00000000000E+00  0.00000000000E+00  0.64816138669E+02  0.64816138669E+02  0.00000000000E+00 0.  1.
         21   -1    0    0  501  503 -0.00000000000E+00 -0.00000000000E+00 -0.56433914792E+00  0.56433914792E+00  0.00000000000E+00 0.  1.
          5    1    1    2  501    0 -0.30108795044E+01 -0.53692207780E+00  0.19878048735E+02  0.20653825365E+02  0.47000000000E+01 0.  1.
         -5    1    1    2    0  502  0.30108795044E+01  0.53692207780E+00  0.44373750786E+02  0.44726652452E+02  0.47000000000E+01 0.  1.
<mgrwt>
<rscale>  2 0.56074665E+01</rscale>
<asrwt>0</asrwt>
<pdfrwt beam="1">  1       21 0.99717078E-02 0.56074665E+01</pdfrwt>
<pdfrwt beam="2">  1       21 0.86821459E-04 0.56074665E+01</pdfrwt>
<totfact> 0.29592959E+09</totfact>
</mgrwt>
</event>
<event>
 4    1  0.3999109E+006  0.6685148E+01  0.7546771E-02  0.2333956E+00
         21   -1    0    0  501  502  0.00000000000E+00  0.00000000000E+00  0.11750411767E+01  0.11750411767E+01  0.00000000000E+00 0.  1.
         21   -1    0    0  502  503 -0.00000000000E+00 -0.00000000000E+00 -0.67975485365E+02  0.67975485365E+02  0.00000000000E+00 0. -1.
          5    1    1    2  501    0 -0.69308956178E-01  0.47535673986E+01 -0.10453116336E+02  0.12408015469E+02  0.47000000000E+01 0.  1.
         -5    1    1    2    0  503  0.69308956178E-01 -0.47535673986E+01 -0.56347327852E+02  0.56742511073E+02  0.47000000000E+01 0. -1.
<mgrwt>
<rscale>  2 0.66851482E+01</rscale>
<asrwt>0</asrwt>
<pdfrwt beam="1">  1       21 0.18077551E-03 0.66851482E+01</pdfrwt>
<pdfrwt beam="2">  1       21 0.10457770E-01 0.66851482E+01</pdfrwt>
<totfact> 0.11796284E+09</totfact>
</mgrwt>
</event>
<event>
 4    1  0.3999109E+006  0.5315612E+01  0.7546771E-02  0.2514036E+00
         21   -1    0    0  501  502  0.00000000000E+00  0.00000000000E+00  0.64345180610E+02  0.64345180610E+02  0.00000000000E+00 0. -1.
         21   -1    0    0  502  503 -0.00000000000E+00 -0.00000000000E+00 -0.54892543400E+00  0.54892543400E+00  0.00000000000E+00 0.  1.
          5    1    1    2  501    0 -0.19453132586E+01 -0.15432068255E+01  0.46409747358E+02  0.46713171385E+02  0.47000000000E+01 0. -1.
         -5    1    1    2    0  503  0.19453132586E+01  0.15432068255E+01  0.17386507817E+02  0.18180934659E+02  0.47000000000E+01 0.  1.
<mgrwt>
<rscale>  2 0.53156120E+01</rscale>
<asrwt>0</asrwt>
<pdfrwt beam="1">  1       21 0.98992526E-02 0.53156120E+01</pdfrwt>
<pdfrwt beam="2">  1       21 0.84450118E-04 0.53156120E+01</pdfrwt>
<totfact> 0.29559068E+09</totfact>
</mgrwt>
</event>
<event>
 4    1  0.3999109E+006  0.5035768E+01  0.7546771E-02  0.2560847E+00
         21   -1    0    0  501  502  0.00000000000E+00  0.00000000000E+00  0.39490181424E+02  0.39490181424E+02  0.00000000000E+00 0.  1.
         21   -1    0    0  502  503 -0.00000000000E+00 -0.00000000000E+00 -0.69489978820E+00  0.69489978820E+00  0.00000000000E+00 0.  1.
          5    1    1    2  501    0 -0.17902152846E+01 -0.25316051365E+00  0.24933035276E+02  0.25436493647E+02  0.47000000000E+01 0.  1.
         -5    1    1    2    0  503  0.17902152846E+01  0.25316051365E+00  0.13862246360E+02  0.14748587565E+02  0.47000000000E+01 0.  1.
<mgrwt>
<rscale>  2 0.50357682E+01</rscale>
<asrwt>0</asrwt>
<pdfrwt beam="1">  1       21 0.60754108E-02 0.50357682E+01</pdfrwt>
<pdfrwt beam="2">  1       21 0.10690769E-03 0.50357682E+01</pdfrwt>
<totfact> 0.42498729E+09</totfact>
</mgrwt>
</event>
<event>
 4    1  0.3999109E+006  0.6786789E+01  0.7546771E-02  0.2323041E+00
         21   -1    0    0  503  502  0.00000000000E+00  0.00000000000E+00  0.15334588335E+03  0.15334588335E+03  0.00000000000E+00 0. -1.
         21   -1    0    0  501  503 -0.00000000000E+00 -0.00000000000E+00 -0.47356634828E+00  0.47356634828E+00  0.00000000000E+00 0.  1.
          5    1    1    2  501    0  0.29997391937E+01  0.38693761154E+01  0.29924676745E+02  0.30684634348E+02  0.47000000000E+01 0.  1.
         -5    1    1    2    0  502 -0.29997391937E+01 -0.38693761154E+01  0.12294764026E+03  0.12313481535E+03  0.47000000000E+01 0. -1.
<mgrwt>
<rscale>  2 0.67867891E+01</rscale>
<asrwt>0</asrwt>
<pdfrwt beam="1">  1       21 0.23591635E-01 0.67867891E+01</pdfrwt>
<pdfrwt beam="2">  1       21 0.72856484E-04 0.67867891E+01</pdfrwt>
<totfact> 0.11135057E+09</totfact>
</mgrwt>
</event>
<event>
 4    1  0.3999109E+006  0.5442935E+01  0.7546771E-02  0.2494106E+00
         21   -1    0    0  501  502  0.00000000000E+00  0.00000000000E+00  0.19056739254E+03  0.19056739254E+03  0.00000000000E+00 0. -1.
         21   -1    0    0  502  503 -0.00000000000E+00 -0.00000000000E+00 -0.20502976127E+00  0.20502976127E+00  0.00000000000E+00 0.  1.
          5    1    1    2  501    0  0.20357679316E+01  0.18415180941E+01  0.14208272071E+03  0.14218693704E+03  0.47000000000E+01 0. -1.
         -5    1    1    2    0  503 -0.20357679316E+01 -0.18415180941E+01  0.48279642074E+02  0.48585485268E+02  0.47000000000E+01 0.  1.
<mgrwt>
<rscale>  2 0.54429349E+01</rscale>
<asrwt>0</asrwt>
<pdfrwt beam="1">  1       21 0.29317919E-01 0.54429349E+01</pdfrwt>
<pdfrwt beam="2">  1       21 0.31543192E-04 0.54429349E+01</pdfrwt>
<totfact> 0.20042000E+09</totfact>
</mgrwt>
</event>
<event>
 4    1  0.3999109E+006  0.4841803E+01  0.7546771E-02  0.2596007E+00
         21   -1    0    0  501  502  0.00000000000E+00  0.00000000000E+00  0.64969415812E+02  0.64969415812E+02  0.00000000000E+00 0. -1.
         21   -1    0    0  502  503 -0.00000000000E+00 -0.00000000000E+00 -0.72293352657E+00  0.72293352657E+00  0.00000000000E+00 0. -1.
          5    1    1    2  501    0  0.78539647081E+00  0.85802739703E+00  0.55369371035E+02  0.55580664870E+02  0.47000000000E+01 0. -1.
         -5    1    1    2    0  503 -0.78539647081E+00 -0.85802739703E+00  0.88771112504E+01  0.10111684468E+02  0.47000000000E+01 0. -1.
<mgrwt>
<rscale>  2 0.48418032E+01</rscale>
<asrwt>0</asrwt>
<pdfrwt beam="1">  1       21 0.99952901E-02 0.48418032E+01</pdfrwt>
<pdfrwt beam="2">  1       21 0.11122059E-03 0.48418032E+01</pdfrwt>
<totfact> 0.18450223E+09</totfact>
</mgrwt>
</event>
<event>
 4    1  0.3999109E+006  0.5544589E+01  0.7546771E-02  0.2478755E+00
         21   -1    0    0  503  502  0.00000000000E+00  0.00000000000E+00  0.32938978095E+02  0.32938978095E+02  0.00000000000E+00 0. -1.
         21   -1    0    0  501  503 -0.00000000000E+00 -0.00000000000E+00 -0.34788113941E+01  0.34788113941E+01  0.00000000000E+00 0. -1.
          5    1    1    2  501    0 -0.12622281761E+01  0.26569234726E+01 -0.84585913784E+00  0.56087378249E+01  0.47000000000E+01 0. -1.
         -5    1    1    2    0  502  0.12622281761E+01 -0.26569234726E+01  0.30306025839E+02  0.30809051664E+02  0.47000000000E+01 0. -1.
<mgrwt>
<rscale>  2 0.55445886E+01</rscale>
<asrwt>0</asrwt>
<pdfrwt beam="1">  1       21 0.50675349E-02 0.55445886E+01</pdfrwt>
<pdfrwt beam="2">  1       21 0.53520177E-03 0.55445886E+01</pdfrwt>
<totfact> 0.68375572E+08</totfact>
</mgrwt>
</event>
<event>
 4    1  0.3999109E+006  0.6055644E+01  0.7546771E-02  0.2408237E+00
         21   -1    0    0  503  502  0.00000000000E+00  0.00000000000E+00  0.22695159741E+01  0.22695159741E+01  0.00000000000E+00 0. -1.
         21   -1    0    0  501  503 -0.00000000000E+00 -0.00000000000E+00 -0.16187466033E+02  0.16187466033E+02  0.00000000000E+00 0.  1.
          5    1    1    2  501    0  0.16735510097E+01  0.34322087499E+01 -0.65652146210E+01  0.89315660947E+01  0.47000000000E+01 0.  1.
         -5    1    1    2    0  502 -0.16735510097E+01 -0.34322087499E+01 -0.73527354378E+01  0.95254159123E+01  0.47000000000E+01 0. -1.
<mgrwt>
<rscale>  2 0.60556445E+01</rscale>
<asrwt>0</asrwt>
<pdfrwt beam="1">  1       21 0.34915632E-03 0.60556445E+01</pdfrwt>
<pdfrwt beam="2">  1       21 0.24903793E-02 0.60556445E+01</pdfrwt>
<totfact> 0.37525108E+09</totfact>
</mgrwt>
</event>
<event>
 4    1  0.3999109E+006  0.5192537E+01  0.7546771E-02  0.2534091E+00
         21   -1    0    0  503  502  0.00000000000E+00  0.00000000000E+00  0.11268530793E+01  0.11268530793E+01  0.00000000000E+00 0. -1.
         21   -1    0    0  501  503 -0.00000000000E+00 -0.00000000000E+00 -0.98111741182E+02  0.98111741182E+02  0.00000000000E+00 0. -1.
          5    1    1    2  501    0  0.93190535753E-02  0.22073398678E+01 -0.91639069179E+02  0.91786063409E+02  0.47000000000E+01 0. -1.
         -5    1    1    2    0  502 -0.93190535753E-02 -0.22073398678E+01 -0.53458189236E+01  0.74525308520E+01  0.47000000000E+01 0. -1.
<mgrwt>
<rscale>  2 0.51925366E+01</rscale>
<asrwt>0</asrwt>
<pdfrwt beam="1">  1       21 0.17336199E-03 0.51925366E+01</pdfrwt>
<pdfrwt beam="2">  1       21 0.15094116E-01 0.51925366E+01</pdfrwt>
<totfact> 0.57793479E+08</totfact>
</mgrwt>
</event>
<event>
 4    1  0.3999109E+006  0.8512755E+01  0.7546771E-02  0.2171036E+00
         21   -1    0    0  501  502  0.00000000000E+00  0.00000000000E+00  0.61937756380E+03  0.61937756380E+03  0.00000000000E+00 0. -1.
         21   -1    0    0  502  503 -0.00000000000E+00 -0.00000000000E+00 -0.14120498702E+00  0.14120498702E+00  0.00000000000E+00 0. -1.
          5    1    1    2  501    0  0.56410827488E+01  0.43075721457E+01  0.43786733865E+03  0.43795008077E+03  0.47000000000E+01 0. -1.
         -5    1    1    2    0  503 -0.56410827488E+01 -0.43075721457E+01  0.18136902017E+03  0.18156868802E+03  0.47000000000E+01 0. -1.
<mgrwt>
<rscale>  2 0.85127547E+01</rscale>
<asrwt>0</asrwt>
<pdfrwt beam="1">  1       21 0.95286681E-01 0.85127547E+01</pdfrwt>
<pdfrwt beam="2">  1       21 0.21724340E-04 0.85127547E+01</pdfrwt>
<totfact> 0.50977934E+08</totfact>
</mgrwt>
</event>
<event>
 4    1  0.3999109E+006  0.4729077E+01  0.7546771E-02  0.2617583E+00
         21   -1    0    0  501  502  0.00000000000E+00  0.00000000000E+00  0.30937189860E-01  0.30937189860E-01  0.00000000000E+00 0.  1.
         21   -1    0    0  502  503 -0.00000000000E+00 -0.00000000000E+00 -0.13990581025E+04  0.13990581025E+04  0.00000000000E+00 0.  1.
          5    1    1    2  501    0 -0.10432613418E+00 -0.51311345212E+00 -0.21319038357E+03  0.21324282828E+03  0.47000000000E+01 0.  1.
         -5    1    1    2    0  503  0.10432613418E+00  0.51311345212E+00 -0.11858367818E+04  0.11858462114E+04  0.47000000000E+01 0.  1.
<mgrwt>
<rscale>  2 0.47290770E+01</rscale>
<asrwt>0</asrwt>
<pdfrwt beam="1">  1       21 0.47599907E-05 0.47290770E+01</pdfrwt>
<pdfrwt beam="2">  1       21 0.21522058E+00 0.47290770E+01</pdfrwt>
<totfact> 0.47986501E+08</totfact>
</mgrwt>
</event>
<event>
 4    1  0.3999109E+006  0.5301208E+01  0.7546771E-02  0.2516342E+00
         21   -1    0    0  503  502  0.00000000000E+00  0.00000000000E+00  0.38777649010E+01  0.38777649010E+01  0.00000000000E+00 0. -1.
         21   -1    0    0  501  503 -0.00000000000E+00 -0.00000000000E+00 -0.20960613628E+02  0.20960613628E+02  0.00000000000E+00 0. -1.
          5    1    1    2  501    0 -0.12772364156E+01  0.20931958433E+01 -0.18586763257E+02  0.19327973770E+02  0.47000000000E+01 0. -1.
         -5    1    1    2    0  502  0.12772364156E+01 -0.20931958433E+01  0.15039145293E+01  0.55104047593E+01  0.47000000000E+01 0. -1.
<mgrwt>
<rscale>  2 0.53012076E+01</rscale>
<asrwt>0</asrwt>
<pdfrwt beam="1">  1       21 0.59657921E-03 0.53012076E+01</pdfrwt>
<pdfrwt beam="2">  1       21 0.32247098E-02 0.53012076E+01</pdfrwt>
<totfact> 0.10941196E+09</totfact>
</mgrwt>
</event>
<event>
 4    1  0.3999109E+006  0.6746012E+01  0.7546771E-02  0.2327387E+00
         21   -1    0    0  503  502  0.00000000000E+00  0.00000000000E+00  0.79253136734E+02  0.79253136734E+02  0.00000000000E+00 0. -1.
         21   -1    0    0  501  503 -0.00000000000E+00 -0.00000000000E+00 -0.85995073587E+00  0.85995073587E+00  0.00000000000E+00 0. -1.
          5    1    1    2  501    0 -0.32279554060E+01 -0.36054108410E+01  0.16107032150E+02  0.17462679293E+02  0.47000000000E+01 0. -1.
         -5    1    1    2    0  502  0.32279554060E+01  0.36054108410E+01  0.62286153848E+02  0.62650408176E+02  0.47000000000E+01 0. -1.
<mgrwt>
<rscale>  2 0.67460124E+01</rscale>
<asrwt>0</asrwt>
<pdfrwt beam="1">  1       21 0.12192785E-01 0.67460124E+01</pdfrwt>
<pdfrwt beam="2">  1       21 0.13230018E-03 0.67460124E+01</pdfrwt>
<totfact> 0.14302445E+09</totfact>
</mgrwt>
</event>
<event>
 4    1  0.3999109E+006  0.7349910E+01  0.7546771E-02  0.2267100E+00
         21   -1    0    0  503  502  0.00000000000E+00  0.00000000000E+00  0.33131680070E+03  0.33131680070E+03  0.00000000000E+00 0. -1.
         21   -1    0    0  501  503 -0.00000000000E+00 -0.00000000000E+00 -0.26778146555E+00  0.26778146555E+00  0.00000000000E+00 0.  1.
          5    1    1    2  501    0  0.56408752000E+01  0.33421733104E+00  0.61840244257E+02  0.62275492643E+02  0.47000000000E+01 0.  1.
         -5    1    1    2    0  502 -0.56408752000E+01 -0.33421733104E+00  0.26920877498E+03  0.26930908952E+03  0.47000000000E+01 0. -1.
<mgrwt>
<rscale>  2 0.73499098E+01</rscale>
<asrwt>0</asrwt>
<pdfrwt beam="1">  1       21 0.50971487E-01 0.73499098E+01</pdfrwt>
<pdfrwt beam="2">  1       21 0.41197414E-04 0.73499098E+01</pdfrwt>
<totfact> 0.66412630E+08</totfact>
</mgrwt>
</event>
<event>
 4    1  0.3999109E+006  0.9387197E+01  0.7546771E-02  0.2111638E+00
         21   -1    0    0  503  502  0.00000000000E+00  0.00000000000E+00  0.42750820202E+03  0.42750820202E+03  0.00000000000E+00 0.  1.
         21   -1    0    0  501  503 -0.00000000000E+00 -0.00000000000E+00 -0.24654582318E+00  0.24654582318E+00  0.00000000000E+00 0. -1.
          5    1    1    2  501    0 -0.32463730073E+01  0.74491964692E+01  0.12702902808E+03  0.12737540360E+03  0.47000000000E+01 0. -1.
         -5    1    1    2    0  502  0.32463730073E+01 -0.74491964692E+01  0.30023262811E+03  0.30037934425E+03  0.47000000000E+01 0.  1.
<mgrwt>
<rscale>  2 0.93871969E+01</rscale>
<asrwt>0</asrwt>
<pdfrwt beam="1">  1       21 0.65769899E-01 0.93871969E+01</pdfrwt>
<pdfrwt beam="2">  1       21 0.37930469E-04 0.93871969E+01</pdfrwt>
<totfact> 0.52712176E+08</totfact>
</mgrwt>
</event>
<event>
 4    1  0.3999109E+006  0.5710563E+01  0.7546771E-02  0.2454689E+00
         21   -1    0    0  503  502  0.00000000000E+00  0.00000000000E+00  0.18608299081E+02  0.18608299081E+02  0.00000000000E+00 0.  1.
         21   -1    0    0  501  503 -0.00000000000E+00 -0.00000000000E+00 -0.17634355332E+01  0.17634355332E+01  0.00000000000E+00 0.  1.
          5    1    1    2  501    0  0.12910311785E+01 -0.29755279799E+01  0.92255657541E+01  0.10849958145E+02  0.47000000000E+01 0.  1.
         -5    1    1    2    0  502 -0.12910311785E+01  0.29755279799E+01  0.76192977934E+01  0.95217764691E+01  0.47000000000E+01 0.  1.
<mgrwt>
<rscale>  2 0.57105629E+01</rscale>
<asrwt>0</asrwt>
<pdfrwt beam="1">  1       21 0.28628151E-02 0.57105629E+01</pdfrwt>
<pdfrwt beam="2">  1       21 0.27129779E-03 0.57105629E+01</pdfrwt>
<totfact> 0.41114375E+09</totfact>
</mgrwt>
</event>
<event>
 4    1  0.3999109E+006  0.6141159E+01  0.7546771E-02  0.2397406E+00
         21   -1    0    0  501  502  0.00000000000E+00  0.00000000000E+00  0.25609170850E+02  0.25609170850E+02  0.00000000000E+00 0.  1.
         21   -1    0    0  502  503 -0.00000000000E+00 -0.00000000000E+00 -0.17684464011E+01  0.17684464011E+01  0.00000000000E+00 0.  1.
          5    1    1    2  501    0 -0.37074620082E+01  0.13706062090E+01  0.63221148669E+01  0.88137944333E+01  0.47000000000E+01 0.  1.
         -5    1    1    2    0  503  0.37074620082E+01 -0.13706062090E+01  0.17518609582E+02  0.18563822818E+02  0.47000000000E+01 0.  1.
<mgrwt>
<rscale>  2 0.61411592E+01</rscale>
<asrwt>0</asrwt>
<pdfrwt beam="1">  1       21 0.39398722E-02 0.61411592E+01</pdfrwt>
<pdfrwt beam="2">  1       21 0.27206870E-03 0.61411592E+01</pdfrwt>
<totfact> 0.27430067E+09</totfact>
</mgrwt>
</event>
<event>
 4    1  0.3999109E+006  0.6137269E+01  0.7546771E-02  0.2397893E+00
         21   -1    0    0  501  502  0.00000000000E+00  0.00000000000E+00  0.13449406944E+02  0.13449406944E+02  0.00000000000E+00 0. -1.
         21   -1    0    0  502  503 -0.00000000000E+00 -0.00000000000E+00 -0.31545856976E+01  0.31545856976E+01  0.00000000000E+00 0.  1.
          5    1    1    2  501    0 -0.26590202336E+01  0.29164498451E+01  0.79285309039E+01  0.10026348817E+02  0.47000000000E+01 0.  1.
         -5    1    1    2    0  503  0.26590202336E+01 -0.29164498451E+01  0.23662903427E+01  0.65776438249E+01  0.47000000000E+01 0. -1.
<mgrwt>
<rscale>  2 0.61372688E+01</rscale>
<asrwt>0</asrwt>
<pdfrwt beam="1">  1       21 0.20691395E-02 0.61372688E+01</pdfrwt>
<pdfrwt beam="2">  1       21 0.48532088E-03 0.61372688E+01</pdfrwt>
<totfact> 0.31449499E+09</totfact>
</mgrwt>
</event>
<event>
 4    1  0.3999109E+006  0.5716040E+01  0.7546771E-02  0.2453914E+00
         21   -1    0    0  503  502  0.00000000000E+00  0.00000000000E+00  0.87096879206E+00  0.87096879206E+00  0.00000000000E+00 0. -1.
         21   -1    0    0  501  503 -0.00000000000E+00 -0.00000000000E+00 -0.53731314177E+02  0.53731314177E+02  0.00000000000E+00 0. -1.
          5    1    1    2  501    0  0.28574911155E+01 -0.15549480382E+01 -0.41429188271E+02  0.41821654195E+02  0.47000000000E+01 0. -1.
         -5    1    1    2    0  502 -0.28574911155E+01  0.15549480382E+01 -0.11431157114E+02  0.12780628773E+02  0.47000000000E+01 0. -1.
<mgrwt>
<rscale>  2 0.57160405E+01</rscale>
<asrwt>0</asrwt>
<pdfrwt beam="1">  1       21 0.13399518E-03 0.57160405E+01</pdfrwt>
<pdfrwt beam="2">  1       21 0.82663574E-02 0.57160405E+01</pdfrwt>
<totfact> 0.22366560E+09</totfact>
</mgrwt>
</event>
<event>
 4    1  0.3999109E+006  0.4986794E+01  0.7546771E-02  0.2569502E+00
         21   -1    0    0  503  502  0.00000000000E+00  0.00000000000E+00  0.55791890938E+00  0.55791890938E+00  0.00000000000E+00 0. -1.
         21   -1    0    0  501  503 -0.00000000000E+00 -0.00000000000E+00 -0.55177606856E+02  0.55177606856E+02  0.00000000000E+00 0. -1.
          5    1    1    2  501    0  0.69234727154E+00  0.15161699867E+01 -0.39526942787E+02  0.39840272618E+02  0.47000000000E+01 0.  1.
         -5    1    1    2    0  502 -0.69234727154E+00 -0.15161699867E+01 -0.15092745160E+02  0.15895253148E+02  0.47000000000E+01 0.  1.
<mgrwt>
<rscale>  2 0.49867942E+01</rscale>
<asrwt>0</asrwt>
<pdfrwt beam="1">  1       21 0.85833640E-04 0.49867942E+01</pdfrwt>
<pdfrwt beam="2">  1       21 0.84888664E-02 0.49867942E+01</pdfrwt>
<totfact> 0.34261503E+09</totfact>
</mgrwt>
</event>
<event>
 4    1  0.3999109E+006  0.4889703E+01  0.7546771E-02  0.2587100E+00
         21   -1    0    0  503  502  0.00000000000E+00  0.00000000000E+00  0.89928332866E+01  0.89928332866E+01  0.00000000000E+00 0. -1.
         21   -1    0    0  501  503 -0.00000000000E+00 -0.00000000000E+00 -0.57309562128E+01  0.57309562128E+01  0.00000000000E+00 0. -1.
          5    1    1    2  501    0 -0.88016210244E-01 -0.13459003880E+01 -0.37592651489E+01  0.61677604661E+01  0.47000000000E+01 0. -1.
         -5    1    1    2    0  502  0.88016210244E-01  0.13459003880E+01  0.70211422227E+01  0.85560290333E+01  0.47000000000E+01 0. -1.
<mgrwt>
<rscale>  2 0.48897029E+01</rscale>
<asrwt>0</asrwt>
<pdfrwt beam="1">  1       21 0.13835128E-02 0.48897029E+01</pdfrwt>
<pdfrwt beam="2">  1       21 0.88168557E-03 0.48897029E+01</pdfrwt>
<totfact> 0.19619279E+09</totfact>
</mgrwt>
</event>
<event>
 4    1  0.3999109E+006  0.5810003E+01  0.7546771E-02  0.2440828E+00
         21   -1    0    0  503  502  0.00000000000E+00  0.00000000000E+00  0.17892779266E+02  0.17892779266E+02  0.00000000000E+00 0.  1.
         21   -1    0    0  501  503 -0.00000000000E+00 -0.00000000000E+00 -0.20635575907E+01  0.20635575907E+01  0.00000000000E+00 0.  1.
          5    1    1    2  501    0  0.74995518853E+00  0.33322220804E+01  0.10836765723E+02  0.12296000492E+02  0.47000000000E+01 0.  1.
         -5    1    1    2    0  502 -0.74995518853E+00 -0.33322220804E+01  0.49924559528E+01  0.76603363646E+01  0.47000000000E+01 0.  1.
<mgrwt>
<rscale>  2 0.58100032E+01</rscale>
<asrwt>0</asrwt>
<pdfrwt beam="1">  1       21 0.27527352E-02 0.58100032E+01</pdfrwt>
<pdfrwt beam="2">  1       21 0.31747041E-03 0.58100032E+01</pdfrwt>
<totfact> 0.35647878E+09</totfact>
</mgrwt>
</event>
<event>
 4    1  0.3999109E+006  0.5657549E+01  0.7546771E-02  0.2462246E+00
         21   -1    0    0  501  502  0.00000000000E+00  0.00000000000E+00  0.10705393740E+03  0.10705393740E+03  0.00000000000E+00 0.  1.
         21   -1    0    0  502  503 -0.00000000000E+00 -0.00000000000E+00 -0.30660282140E+00  0.30660282140E+00  0.00000000000E+00 0.  1.
          5    1    1    2  501    0 -0.29089559102E+01  0.12065814951E+01  0.61833289142E+02  0.62091573579E+02  0.47000000000E+01 0.  1.
         -5    1    1    2    0  503  0.29089559102E+01 -0.12065814951E+01  0.44914045433E+02  0.45268966638E+02  0.47000000000E+01 0.  1.
<mgrwt>
<rscale>  2 0.56575492E+01</rscale>
<asrwt>0</asrwt>
<pdfrwt beam="1">  1       21 0.16469807E-01 0.56575492E+01</pdfrwt>
<pdfrwt beam="2">  1       21 0.47169750E-04 0.56575492E+01</pdfrwt>
<totfact> 0.30882938E+09</totfact>
</mgrwt>
</event>
<event>
 4    1  0.3999109E+006  0.6070568E+01  0.7546771E-02  0.2406329E+00
         21   -1    0    0  501  502  0.00000000000E+00  0.00000000000E+00  0.18645455536E+03  0.18645455536E+03  0.00000000000E+00 0.  1.
         21   -1    0    0  502  503 -0.00000000000E+00 -0.00000000000E+00 -0.20399407113E+01  0.20399407113E+01  0.00000000000E+00 0.  1.
          5    1    1    2  501    0 -0.38132296197E+01  0.47018311506E+00  0.18177256659E+03  0.18187390620E+03  0.47000000000E+01 0.  1.
         -5    1    1    2    0  503  0.38132296197E+01 -0.47018311506E+00  0.26420480606E+01  0.66205898717E+01  0.47000000000E+01 0.  1.
<mgrwt>
<rscale>  2 0.60705677E+01</rscale>
<asrwt>0</asrwt>
<pdfrwt beam="1">  1       21 0.28685303E-01 0.60705677E+01</pdfrwt>
<pdfrwt beam="2">  1       21 0.31383718E-03 0.60705677E+01</pdfrwt>
<totfact> 0.10244807E+08</totfact>
</mgrwt>
</event>
<event>
 4    1  0.3999109E+006  0.9844347E+01  0.7546771E-02  0.2083956E+00
         21   -1    0    0  501  502  0.00000000000E+00  0.00000000000E+00  0.36156410610E+02  0.36156410610E+02  0.00000000000E+00 0. -1.
         21   -1    0    0  502  503 -0.00000000000E+00 -0.00000000000E+00 -0.15890242253E+02  0.15890242253E+02  0.00000000000E+00 0. -1.
          5    1    1    2  501    0  0.12064472708E+01  0.85653747330E+01  0.33860339044E+02  0.35262355558E+02  0.47000000000E+01 0. -1.
         -5    1    1    2    0  503 -0.12064472708E+01 -0.85653747330E+01 -0.13594170688E+02  0.16784297305E+02  0.47000000000E+01 0. -1.
<mgrwt>
<rscale>  2 0.98443466E+01</rscale>
<asrwt>0</asrwt>
<pdfrwt beam="1">  1       21 0.55625247E-02 0.98443466E+01</pdfrwt>
<pdfrwt beam="2">  1       21 0.24446527E-02 0.98443466E+01</pdfrwt>
<totfact> 0.96829956E+07</totfact>
</mgrwt>
</event>
<event>
 4    1  0.3999109E+006  0.5576436E+01  0.7546771E-02  0.2474043E+00
         21   -1    0    0  503  502  0.00000000000E+00  0.00000000000E+00  0.10861202243E+03  0.10861202243E+03  0.00000000000E+00 0.  1.
         21   -1    0    0  501  503 -0.00000000000E+00 -0.00000000000E+00 -0.30450476216E+00  0.30450476216E+00  0.00000000000E+00 0. -1.
          5    1    1    2  501    0  0.71306912542E+00  0.29151625815E+01  0.40841634223E+02  0.41220574068E+02  0.47000000000E+01 0. -1.
         -5    1    1    2    0  502 -0.71306912542E+00 -0.29151625815E+01  0.67465883441E+02  0.67695953121E+02  0.47000000000E+01 0.  1.
<mgrwt>
<rscale>  2 0.55764362E+01</rscale>
<asrwt>0</asrwt>
<pdfrwt beam="1">  1       21 0.16709511E-01 0.55764362E+01</pdfrwt>
<pdfrwt beam="2">  1       21 0.46846973E-04 0.55764362E+01</pdfrwt>
<totfact> 0.30079309E+09</totfact>
</mgrwt>
</event>
<event>
 4    1  0.3999109E+006  0.1419070E+02  0.7546771E-02  0.1893818E+00
         21   -1    0    0  501  502  0.00000000000E+00  0.00000000000E+00  0.53144263923E+03  0.53144263923E+03  0.00000000000E+00 0.  1.
         21   -1    0    0  502  503 -0.00000000000E+00 -0.00000000000E+00 -0.90184628694E+00  0.90184628694E+00  0.00000000000E+00 0. -1.
          5    1    1    2  501    0 -0.10371164596E+02 -0.84690566267E+01  0.46795249306E+03  0.46816761073E+03  0.47000000000E+01 0.  1.
         -5    1    1    2    0  503  0.10371164596E+02  0.84690566267E+01  0.62588299884E+02  0.64176874788E+02  0.47000000000E+01 0. -1.
<mgrwt>
<rscale>  2 0.14190700E+02</rscale>
<asrwt>0</asrwt>
<pdfrwt beam="1">  1       21 0.81760156E-01 0.14190700E+02</pdfrwt>
<pdfrwt beam="2">  1       21 0.13874601E-03 0.14190700E+02</pdfrwt>
<totfact> 0.67218252E+07</totfact>
</mgrwt>
</event>
<event>
 4    1  0.3999109E+006  0.4745272E+01  0.7546771E-02  0.2614428E+00
         21   -1    0    0  503  502  0.00000000000E+00  0.00000000000E+00  0.68201050163E+02  0.68201050163E+02  0.00000000000E+00 0. -1.
         21   -1    0    0  501  503 -0.00000000000E+00 -0.00000000000E+00 -0.47976779692E+00  0.47976779692E+00  0.00000000000E+00 0. -1.
          5    1    1    2  501    0  0.56500709114E+00 -0.32920158741E+00  0.14684570389E+02  0.15432245922E+02  0.47000000000E+01 0. -1.
         -5    1    1    2    0  502 -0.56500709114E+00  0.32920158741E+00  0.53036711978E+02  0.53248572038E+02  0.47000000000E+01 0. -1.
<mgrwt>
<rscale>  2 0.47452720E+01</rscale>
<asrwt>0</asrwt>
<pdfrwt beam="1">  1       21 0.10492462E-01 0.47452720E+01</pdfrwt>
<pdfrwt beam="2">  1       21 0.73810484E-04 0.47452720E+01</pdfrwt>
<totfact> 0.28920050E+09</totfact>
</mgrwt>
</event>
<event>
 4    1  0.3999109E+006  0.5885374E+01  0.7546771E-02  0.2430585E+00
         21   -1    0    0  501  502  0.00000000000E+00  0.00000000000E+00  0.40772433032E+01  0.40772433032E+01  0.00000000000E+00 0.  1.
         21   -1    0    0  502  503 -0.00000000000E+00 -0.00000000000E+00 -0.22063706512E+02  0.22063706512E+02  0.00000000000E+00 0.  1.
          5    1    1    2  501    0 -0.40214795119E+00  0.35193621347E+01  0.12565747610E+01  0.60180240062E+01  0.47000000000E+01 0.  1.
         -5    1    1    2    0  503  0.40214795119E+00 -0.35193621347E+01 -0.19243037970E+02  0.20122925809E+02  0.47000000000E+01 0.  1.
<mgrwt>
<rscale>  2 0.58853745E+01</rscale>
<asrwt>0</asrwt>
<pdfrwt beam="1">  1       21 0.62726822E-03 0.58853745E+01</pdfrwt>
<pdfrwt beam="2">  1       21 0.33944163E-02 0.58853745E+01</pdfrwt>
<totfact> 0.10363941E+09</totfact>
</mgrwt>
</event>
<event>
 4    1  0.3999109E+006  0.7336906E+01  0.7546771E-02  0.2268312E+00
         21   -1    0    0  503  502  0.00000000000E+00  0.00000000000E+00  0.74131095882E+00  0.74131095882E+00  0.00000000000E+00 0. -1.
         21   -1    0    0  501  503 -0.00000000000E+00 -0.00000000000E+00 -0.74333799901E+02  0.74333799901E+02  0.00000000000E+00 0.  1.
          5    1    1    2  501    0  0.56068512515E+01  0.55081919644E+00 -0.42504516437E+02  0.43133097504E+02  0.47000000000E+01 0.  1.
         -5    1    1    2    0  502 -0.56068512515E+01 -0.55081919644E+00 -0.31087972505E+02  0.31942013356E+02  0.47000000000E+01 0. -1.
<mgrwt>
<rscale>  2 0.73369055E+01</rscale>
<asrwt>0</asrwt>
<pdfrwt beam="1">  1       21 0.11404786E-03 0.73369055E+01</pdfrwt>
<pdfrwt beam="2">  1       21 0.11435967E-01 0.73369055E+01</pdfrwt>
<totfact> 0.20583209E+09</totfact>
</mgrwt>
</event>
<event>
 4    1  0.3999109E+006  0.6172063E+01  0.7546771E-02  0.2393553E+00
         21   -1    0    0  501  502  0.00000000000E+00  0.00000000000E+00  0.28889938751E+02  0.28889938751E+02  0.00000000000E+00 0.  1.
         21   -1    0    0  502  503 -0.00000000000E+00 -0.00000000000E+00 -0.17275170345E+01  0.17275170345E+01  0.00000000000E+00 0. -1.
          5    1    1    2  501    0 -0.36451334384E+01  0.16484422050E+01  0.21029284300E+02  0.21916321718E+02  0.47000000000E+01 0. -1.
         -5    1    1    2    0  503  0.36451334384E+01 -0.16484422050E+01  0.61331374163E+01  0.87011340671E+01  0.47000000000E+01 0.  1.
<mgrwt>
<rscale>  2 0.61720628E+01</rscale>
<asrwt>0</asrwt>
<pdfrwt beam="1">  1       21 0.44446056E-02 0.61720628E+01</pdfrwt>
<pdfrwt beam="2">  1       21 0.26577187E-03 0.61720628E+01</pdfrwt>
<totfact> 0.23815723E+09</totfact>
</mgrwt>
</event>
<event>
 4    1  0.3999109E+006  0.5724556E+01  0.7546771E-02  0.2452714E+00
         21   -1    0    0  503  502  0.00000000000E+00  0.00000000000E+00  0.50152497909E+01  0.50152497909E+01  0.00000000000E+00 0. -1.
         21   -1    0    0  501  503 -0.00000000000E+00 -0.00000000000E+00 -0.10674834150E+02  0.10674834150E+02  0.00000000000E+00 0.  1.
          5    1    1    2  501    0 -0.29460878166E+01 -0.14146039585E+01 -0.77157448544E+01  0.96074583757E+01  0.47000000000E+01 0.  1.
         -5    1    1    2    0  502  0.29460878166E+01  0.14146039585E+01  0.20561604954E+01  0.60826255651E+01  0.47000000000E+01 0. -1.
<mgrwt>
<rscale>  2 0.57245557E+01</rscale>
<asrwt>0</asrwt>
<pdfrwt beam="1">  1       21 0.77157690E-03 0.57245557E+01</pdfrwt>
<pdfrwt beam="2">  1       21 0.16422822E-02 0.57245557E+01</pdfrwt>
<totfact> 0.21566822E+09</totfact>
</mgrwt>
</event>
<event>
 4    1  0.3999109E+006  0.6080967E+01  0.7546771E-02  0.2405003E+00
         21   -1    0    0  501  502  0.00000000000E+00  0.00000000000E+00  0.15954750485E+02  0.15954750485E+02  0.00000000000E+00 0. -1.
         21   -1    0    0  502  503 -0.00000000000E+00 -0.00000000000E+00 -0.55079746980E+01  0.55079746980E+01  0.00000000000E+00 0.  1.
          5    1    1    2  501    0  0.38544271553E+01  0.17763998183E+00  0.13390596067E+02  0.14706672896E+02  0.47000000000E+01 0. -1.
         -5    1    1    2    0  503 -0.38544271553E+01 -0.17763998183E+00 -0.29438202799E+01  0.67560522866E+01  0.47000000000E+01 0.  1.
<mgrwt>
<rscale>  2 0.60809674E+01</rscale>
<asrwt>0</asrwt>
<pdfrwt beam="1">  1       21 0.24545770E-02 0.60809674E+01</pdfrwt>
<pdfrwt beam="2">  1       21 0.84738073E-03 0.60809674E+01</pdfrwt>
<totfact> 0.11185991E+09</totfact>
</mgrwt>
</event>
<event>
 4    1  0.3999109E+006  0.7027666E+01  0.7546771E-02  0.2298214E+00
         21   -1    0    0  503  502  0.00000000000E+00  0.00000000000E+00  0.17230834562E+02  0.17230834562E+02  0.00000000000E+00 0.  1.
         21   -1    0    0  501  503 -0.00000000000E+00 -0.00000000000E+00 -0.58829532951E+01  0.58829532951E+01  0.00000000000E+00 0.  1.
          5    1    1    2  501    0 -0.41964434760E+01  0.31125463138E+01 -0.26018382504E+01  0.74938404496E+01  0.47000000000E+01 0.  1.
         -5    1    1    2    0  502  0.41964434760E+01 -0.31125463138E+01  0.13949719517E+02  0.15619947407E+02  0.47000000000E+01 0.  1.
<mgrwt>
<rscale>  2 0.70276655E+01</rscale>
<asrwt>0</asrwt>
<pdfrwt beam="1">  1       21 0.26508976E-02 0.70276655E+01</pdfrwt>
<pdfrwt beam="2">  1       21 0.90506975E-03 0.70276655E+01</pdfrwt>
<totfact> 0.10192334E+09</totfact>
</mgrwt>
</event>
<event>
 4    1  0.3999109E+006  0.5726087E+01  0.7546771E-02  0.2452498E+00
         21   -1    0    0  501  502  0.00000000000E+00  0.00000000000E+00  0.85483985522E+03  0.85483985522E+03  0.00000000000E+00 0.  1.
         21   -1    0    0  502  503 -0.00000000000E+00 -0.00000000000E+00 -0.81275305910E-01  0.81275305910E-01  0.00000000000E+00 0.  1.
          5    1    1    2  501    0 -0.13683116370E+01  0.29708248824E+01  0.73800975214E+03  0.73803196565E+03  0.47000000000E+01 0.  1.
         -5    1    1    2    0  503  0.13683116370E+01 -0.29708248824E+01  0.11674882778E+03  0.11688916487E+03  0.47000000000E+01 0.  1.
<mgrwt>
<rscale>  2 0.57260874E+01</rscale>
<asrwt>0</asrwt>
<pdfrwt beam="1">  1       21 0.13150662E+00 0.57260874E+01</pdfrwt>
<pdfrwt beam="2">  1       21 0.12504578E-04 0.57260874E+01</pdfrwt>
<totfact> 0.43294368E+08</totfact>
</mgrwt>
</event>
<event>
 4    1  0.3999109E+006  0.6597957E+01  0.7546771E-02  0.2343541E+00
         21   -1    0    0  503  502  0.00000000000E+00  0.00000000000E+00  0.18784224768E+03  0.18784224768E+03  0.00000000000E+00 0. -1.
         21   -1    0    0  501  503 -0.00000000000E+00 -0.00000000000E+00 -0.23230153335E+00  0.23230153335E+00  0.00000000000E+00 0.  1.
          5    1    1    2  501    0 -0.44568273740E+01  0.12568739139E+01  0.98373705579E+02  0.98594720911E+02  0.47000000000E+01 0. -1.
         -5    1    1    2    0  502  0.44568273740E+01 -0.12568739139E+01  0.89236240566E+02  0.89479828301E+02  0.47000000000E+01 0. -1.
<mgrwt>
<rscale>  2 0.65979574E+01</rscale>
<asrwt>0</asrwt>
<pdfrwt beam="1">  1       21 0.28898686E-01 0.65979574E+01</pdfrwt>
<pdfrwt beam="2">  1       21 0.35738848E-04 0.65979574E+01</pdfrwt>
<totfact> 0.20245208E+09</totfact>
</mgrwt>
</event>
<event>
 4    1  0.3999109E+006  0.1295185E+02  0.7546771E-02  0.1937869E+00
         21   -1    0    0  501  502  0.00000000000E+00  0.00000000000E+00  0.26951978799E+02  0.26951978799E+02  0.00000000000E+00 0.  1.
         21   -1    0    0  502  503 -0.00000000000E+00 -0.00000000000E+00 -0.84168395992E+01  0.84168395992E+01  0.00000000000E+00 0. -1.
          5    1    1    2  501    0 -0.11538981197E+02  0.35372796285E+01  0.18293970520E+02  0.22414722653E+02  0.47000000000E+01 0.  1.
         -5    1    1    2    0  503  0.11538981197E+02 -0.35372796285E+01  0.24116867958E+00  0.12954095745E+02  0.47000000000E+01 0. -1.
<mgrwt>
<rscale>  2 0.12951851E+02</rscale>
<asrwt>0</asrwt>
<pdfrwt beam="1">  1       21 0.41464582E-02 0.12951851E+02</pdfrwt>
<pdfrwt beam="2">  1       21 0.12948984E-02 0.12951851E+02</pdfrwt>
<totfact> 0.44375415E+08</totfact>
</mgrwt>
</event>
<event>
 4    1  0.3999109E+006  0.4736152E+01  0.7546771E-02  0.2616202E+00
         21   -1    0    0  501  502  0.00000000000E+00  0.00000000000E+00  0.18460765566E+00  0.18460765566E+00  0.00000000000E+00 0. -1.
         21   -1    0    0  502  503 -0.00000000000E+00 -0.00000000000E+00 -0.12967708676E+03  0.12967708676E+03  0.00000000000E+00 0. -1.
          5    1    1    2  501    0 -0.53638163962E+00  0.23115287700E+00 -0.81044103702E+02  0.81182374207E+02  0.47000000000E+01 0. -1.
         -5    1    1    2    0  503  0.53638163962E+00 -0.23115287700E+00 -0.48448375399E+02  0.48679320206E+02  0.47000000000E+01 0. -1.
<mgrwt>
<rscale>  2 0.47361521E+01</rscale>
<asrwt>0</asrwt>
<pdfrwt beam="1">  1       21 0.28401246E-04 0.47361521E+01</pdfrwt>
<pdfrwt beam="2">  1       21 0.19950273E-01 0.47361521E+01</pdfrwt>
<totfact> 0.37789396E+09</totfact>
</mgrwt>
</event>
<event>
 4    1  0.3999109E+006  0.5745772E+01  0.7546771E-02  0.2449735E+00
         21   -1    0    0  501  502  0.00000000000E+00  0.00000000000E+00  0.46266113428E+01  0.46266113428E+01  0.00000000000E+00 0.  1.
         21   -1    0    0  502  503 -0.00000000000E+00 -0.00000000000E+00 -0.21860805498E+02  0.21860805498E+02  0.00000000000E+00 0.  1.
          5    1    1    2  501    0 -0.17113281062E+01 -0.28275873583E+01  0.22523243552E+01  0.61714551896E+01  0.47000000000E+01 0.  1.
         -5    1    1    2    0  503  0.17113281062E+01  0.28275873583E+01 -0.19486518511E+02  0.20315961652E+02  0.47000000000E+01 0.  1.
<mgrwt>
<rscale>  2 0.57457719E+01</rscale>
<asrwt>0</asrwt>
<pdfrwt beam="1">  1       21 0.71178635E-03 0.57457719E+01</pdfrwt>
<pdfrwt beam="2">  1       21 0.33632009E-02 0.57457719E+01</pdfrwt>
<totfact> 0.86331561E+08</totfact>
</mgrwt>
</event>
<event>
 4    1  0.3999109E+006  0.4881760E+01  0.7546771E-02  0.2588567E+00
         21   -1    0    0  503  502  0.00000000000E+00  0.00000000000E+00  0.24817402351E+03  0.24817402351E+03  0.00000000000E+00 0.  1.
         21   -1    0    0  501  503 -0.00000000000E+00 -0.00000000000E+00 -0.13649113597E+00  0.13649113597E+00  0.00000000000E+00 0.  1.
          5    1    1    2  501    0 -0.54482609368E+00 -0.12019768487E+01  0.19161837792E+03  0.19168055285E+03  0.47000000000E+01 0.  1.
         -5    1    1    2    0  502  0.54482609368E+00  0.12019768487E+01  0.56419154456E+02  0.56629961799E+02  0.47000000000E+01 0.  1.
<mgrwt>
<rscale>  2 0.48817603E+01</rscale>
<asrwt>0</asrwt>
<pdfrwt beam="1">  1       21 0.38180258E-01 0.48817603E+01</pdfrwt>
<pdfrwt beam="2">  1       21 0.20998835E-04 0.48817603E+01</pdfrwt>
<totfact> 0.20006654E+09</totfact>
</mgrwt>
</event>
<event>
 4    1  0.3999109E+006  0.4749417E+01  0.7546771E-02  0.2613624E+00
         21   -1    0    0  503  502  0.00000000000E+00  0.00000000000E+00  0.18212537418E+00  0.18212537418E+00  0.00000000000E+00 0.  1.
         21   -1    0    0  501  503 -0.00000000000E+00 -0.00000000000E+00 -0.57486753615E+03  0.57486753615E+03  0.00000000000E+00 0.  1.
          5    1    1    2  501    0 -0.67266320629E-01 -0.68002684239E+00 -0.54201766097E+03  0.54203846890E+03  0.47000000000E+01 0.  1.
         -5    1    1    2    0  502  0.67266320629E-01  0.68002684239E+00 -0.32667749803E+02  0.33011192624E+02  0.47000000000E+01 0.  1.
<mgrwt>
<rscale>  2 0.47494169E+01</rscale>
<asrwt>0</asrwt>
<pdfrwt beam="1">  1       21 0.28019761E-04 0.47494169E+01</pdfrwt>
<pdfrwt beam="2">  1       21 0.88439666E-01 0.47494169E+01</pdfrwt>
<totfact> 0.29029350E+08</totfact>
</mgrwt>
</event>
<event>
 4    1  0.3999109E+006  0.6816696E+01  0.7546771E-02  0.2319880E+00
         21   -1    0    0  501  502  0.00000000000E+00  0.00000000000E+00  0.77783882119E+00  0.77783882119E+00  0.00000000000E+00 0. -1.
         21   -1    0    0  502  503 -0.00000000000E+00 -0.00000000000E+00 -0.11460337020E+03  0.11460337020E+03  0.00000000000E+00 0. -1.
          5    1    1    2  501    0  0.34328310985E+01 -0.35486641444E+01 -0.16996360257E+02  0.18312389482E+02  0.47000000000E+01 0. -1.
         -5    1    1    2    0  503 -0.34328310985E+01  0.35486641444E+01 -0.96829171126E+02  0.97068819543E+02  0.47000000000E+01 0. -1.
<mgrwt>
<rscale>  2 0.68166962E+01</rscale>
<asrwt>0</asrwt>
<pdfrwt beam="1">  1       21 0.11966748E-03 0.68166962E+01</pdfrwt>
<pdfrwt beam="2">  1       21 0.17631292E-01 0.68166962E+01</pdfrwt>
<totfact> 0.91881671E+08</totfact>
</mgrwt>
</event>
<event>
 4    1  0.3999109E+006  0.6557264E+01  0.7546771E-02  0.2348086E+00
         21   -1    0    0  503  502  0.00000000000E+00  0.00000000000E+00  0.59688185425E+00  0.59688185425E+00  0.00000000000E+00 0. -1.
         21   -1    0    0  501  503 -0.00000000000E+00 -0.00000000000E+00 -0.17446981120E+03  0.17446981120E+03  0.00000000000E+00 0. -1.
          5    1    1    2  501    0 -0.38900731783E+01  0.24031311989E+01 -0.15400710745E+03  0.15414664075E+03  0.47000000000E+01 0. -1.
         -5    1    1    2    0  502  0.38900731783E+01 -0.24031311989E+01 -0.19865821898E+02  0.20920052308E+02  0.47000000000E+01 0. -1.
<mgrwt>
<rscale>  2 0.65572638E+01</rscale>
<asrwt>0</asrwt>
<pdfrwt beam="1">  1       21 0.91827891E-04 0.65572638E+01</pdfrwt>
<pdfrwt beam="2">  1       21 0.26841535E-01 0.65572638E+01</pdfrwt>
<totfact> 0.64186085E+08</totfact>
</mgrwt>
</event>
<event>
 4    1  0.3999109E+006  0.5853262E+01  0.7546771E-02  0.2434922E+00
         21   -1    0    0  501  502  0.00000000000E+00  0.00000000000E+00  0.39258791347E+03  0.39258791347E+03  0.00000000000E+00 0.  1.
         21   -1    0    0  502  503 -0.00000000000E+00 -0.00000000000E+00 -0.88605142369E-01  0.88605142369E-01  0.00000000000E+00 0. -1.
          5    1    1    2  501    0  0.34815858835E+01 -0.22188982124E+00  0.22036173273E+03  0.22043945637E+03  0.47000000000E+01 0. -1.
         -5    1    1    2    0  503 -0.34815858835E+01  0.22188982124E+00  0.17213757560E+03  0.17223706224E+03  0.47000000000E+01 0. -1.
<mgrwt>
<rscale>  2 0.58532619E+01</rscale>
<asrwt>0</asrwt>
<pdfrwt beam="1">  1       21 0.60396748E-01 0.58532619E+01</pdfrwt>
<pdfrwt beam="2">  1       21 0.13631875E-04 0.58532619E+01</pdfrwt>
<totfact> 0.18276273E+09</totfact>
</mgrwt>
</event>
<event>
 4    1  0.3999109E+006  0.7650469E+01  0.7546771E-02  0.2240018E+00
         21   -1    0    0  501  502  0.00000000000E+00  0.00000000000E+00  0.31074518256E+02  0.31074518256E+02  0.00000000000E+00 0. -1.
         21   -1    0    0  502  503 -0.00000000000E+00 -0.00000000000E+00 -0.50698042502E+01  0.50698042502E+01  0.00000000000E+00 0.  1.
          5    1    1    2  501    0  0.41579786386E+01  0.43761731293E+01  0.27329391780E+02  0.28380016432E+02  0.47000000000E+01 0. -1.
         -5    1    1    2    0  503 -0.41579786386E+01 -0.43761731293E+01 -0.13246777738E+01  0.77643060746E+01  0.47000000000E+01 0.  1.
<mgrwt>
<rscale>  2 0.76504691E+01</rscale>
<asrwt>0</asrwt>
<pdfrwt beam="1">  1       21 0.47806950E-02 0.76504691E+01</pdfrwt>
<pdfrwt beam="2">  1       21 0.77996990E-03 0.76504691E+01</pdfrwt>
<totfact> 0.55731203E+08</totfact>
</mgrwt>
</event>
<event>
 4    1  0.3999109E+006  0.6905509E+01  0.7546771E-02  0.2310627E+00
         21   -1    0    0  503  502  0.00000000000E+00  0.00000000000E+00  0.11618735720E+04  0.11618735720E+04  0.00000000000E+00 0. -1.
         21   -1    0    0  501  503 -0.00000000000E+00 -0.00000000000E+00 -0.65800910733E-01  0.65800910733E-01  0.00000000000E+00 0.  1.
          5    1    1    2  501    0 -0.68609626200E+00 -0.50125163570E+01  0.22453480425E+03  0.22464096770E+03  0.47000000000E+01 0.  1.
         -5    1    1    2    0  502  0.68609626200E+00  0.50125163570E+01  0.93727296679E+03  0.93729840516E+03  0.47000000000E+01 0. -1.
<mgrwt>
<rscale>  2 0.69055085E+01</rscale>
<asrwt>0</asrwt>
<pdfrwt beam="1">  1       21 0.17873335E+00 0.69055085E+01</pdfrwt>
<pdfrwt beam="2">  1       21 0.10124148E-04 0.69055085E+01</pdfrwt>
<totfact> 0.33004704E+08</totfact>
</mgrwt>
</event>
<event>
 4    1  0.3999109E+006  0.5220386E+01  0.7546771E-02  0.2529482E+00
         21   -1    0    0  501  502  0.00000000000E+00  0.00000000000E+00  0.77615931185E-01  0.77615931185E-01  0.00000000000E+00 0. -1.
         21   -1    0    0  502  503 -0.00000000000E+00 -0.00000000000E+00 -0.35814930819E+03  0.35814930819E+03  0.00000000000E+00 0. -1.
          5    1    1    2  501    0  0.21995010064E+00  0.22614263891E+01 -0.20413064175E+03  0.20419738325E+03  0.47000000000E+01 0. -1.
         -5    1    1    2    0  503 -0.21995010064E+00 -0.22614263891E+01 -0.15394105051E+03  0.15402954087E+03  0.47000000000E+01 0. -1.
<mgrwt>
<rscale>  2 0.52203857E+01</rscale>
<asrwt>0</asrwt>
<pdfrwt beam="1">  1       21 0.11940507E-04 0.52203857E+01</pdfrwt>
<pdfrwt beam="2">  1       21 0.55101765E-01 0.52203857E+01</pdfrwt>
<totfact> 0.23526499E+09</totfact>
</mgrwt>
</event>
<event>
 4    1  0.3999109E+006  0.1109593E+02  0.7546771E-02  0.2017505E+00
         21   -1    0    0  501  502  0.00000000000E+00  0.00000000000E+00  0.28266051469E+02  0.28266051469E+02  0.00000000000E+00 0.  1.
         21   -1    0    0  502  503 -0.00000000000E+00 -0.00000000000E+00 -0.45046274772E+01  0.45046274772E+01  0.00000000000E+00 0. -1.
          5    1    1    2  501    0 -0.53107800919E+01 -0.85337669941E+01  0.89018153489E+01  0.14225395629E+02  0.47000000000E+01 0. -1.
         -5    1    1    2    0  503  0.53107800919E+01  0.85337669941E+01  0.14859608643E+02  0.18545283317E+02  0.47000000000E+01 0.  1.
<mgrwt>
<rscale>  2 0.11095926E+02</rscale>
<asrwt>0</asrwt>
<pdfrwt beam="1">  1       21 0.43486232E-02 0.11095926E+02</pdfrwt>
<pdfrwt beam="2">  1       21 0.69301963E-03 0.11095926E+02</pdfrwt>
<totfact> 0.95150977E+08</totfact>
</mgrwt>
</event>
<event>
 4    1  0.3999109E+006  0.6952884E+01  0.7546771E-02  0.2305770E+00
         21   -1    0    0  503  502  0.00000000000E+00  0.00000000000E+00  0.10434317241E+04  0.10434317241E+04  0.00000000000E+00 0. -1.
         21   -1    0    0  501  503 -0.00000000000E+00 -0.00000000000E+00 -0.46332058968E-01  0.46332058968E-01  0.00000000000E+00 0.  1.
          5    1    1    2  501    0  0.37217617429E+01 -0.35215181045E+01  0.51856267464E+03  0.51860928466E+03  0.47000000000E+01 0. -1.
         -5    1    1    2    0  502 -0.37217617429E+01  0.35215181045E+01  0.52482271737E+03  0.52486877148E+03  0.47000000000E+01 0. -1.
<mgrwt>
<rscale>  2 0.69528843E+01</rscale>
<asrwt>0</asrwt>
<pdfrwt beam="1">  1       21 0.16050914E+00 0.69528843E+01</pdfrwt>
<pdfrwt beam="2">  1       21 0.71288447E-05 0.69528843E+01</pdfrwt>
<totfact> 0.67239614E+08</totfact>
</mgrwt>
</event>
<event>
 4    1  0.3999109E+006  0.5244983E+01  0.7546771E-02  0.2525447E+00
         21   -1    0    0  503  502  0.00000000000E+00  0.00000000000E+00  0.40540245385E+02  0.40540245385E+02  0.00000000000E+00 0. -1.
         21   -1    0    0  501  503 -0.00000000000E+00 -0.00000000000E+00 -0.15518718876E+01  0.15518718876E+01  0.00000000000E+00 0. -1.
          5    1    1    2  501    0  0.12220446256E+01 -0.19815274502E+01  0.37063624779E+01  0.64223801601E+01  0.47000000000E+01 0. -1.
         -5    1    1    2    0  502 -0.12220446256E+01  0.19815274502E+01  0.35282011019E+02  0.35669737112E+02  0.47000000000E+01 0. -1.
<mgrwt>
<rscale>  2 0.52449828E+01</rscale>
<asrwt>0</asrwt>
<pdfrwt beam="1">  1       21 0.62369600E-02 0.52449828E+01</pdfrwt>
<pdfrwt beam="2">  1       21 0.23874955E-03 0.52449828E+01</pdfrwt>
<totfact> 0.14473723E+09</totfact>
</mgrwt>
</event>
<event>
 4    1  0.3999109E+006  0.5688297E+01  0.7546771E-02  0.2457848E+00
         21   -1    0    0  501  502  0.00000000000E+00  0.00000000000E+00  0.26893458702E+00  0.26893458702E+00  0.00000000000E+00 0.  1.
         21   -1    0    0  502  503 -0.00000000000E+00 -0.00000000000E+00 -0.24931464144E+03  0.24931464144E+03  0.00000000000E+00 0.  1.
          5    1    1    2  501    0  0.11800389409E+01 -0.29789642209E+01 -0.34757803831E+02  0.35220188059E+02  0.47000000000E+01 0.  1.
         -5    1    1    2    0  503 -0.11800389409E+01  0.29789642209E+01 -0.21428790302E+03  0.21436338797E+03  0.47000000000E+01 0.  1.
<mgrwt>
<rscale>  2 0.56882967E+01</rscale>
<asrwt>0</asrwt>
<pdfrwt beam="1">  1       21 0.41374709E-04 0.56882967E+01</pdfrwt>
<pdfrwt beam="2">  1       21 0.38355953E-01 0.56882967E+01</pdfrwt>
<totfact> 0.91758107E+08</totfact>
</mgrwt>
</event>
<event>
 4    1  0.3999109E+006  0.5003477E+01  0.7546771E-02  0.2566537E+00
         21   -1    0    0  501  502  0.00000000000E+00  0.00000000000E+00  0.58545836168E+03  0.58545836168E+03  0.00000000000E+00 0. -1.
         21   -1    0    0  502  503 -0.00000000000E+00 -0.00000000000E+00 -0.16996527704E+00  0.16996527704E+00  0.00000000000E+00 0. -1.
          5    1    1    2  501    0 -0.74879707646E+00 -0.15440484884E+01  0.54596032555E+03  0.54598325236E+03  0.47000000000E+01 0. -1.
         -5    1    1    2    0  503  0.74879707646E+00  0.15440484884E+01  0.39328070848E+02  0.39645074593E+02  0.47000000000E+01 0. -1.
<mgrwt>
<rscale>  2 0.50034771E+01</rscale>
<asrwt>0</asrwt>
<pdfrwt beam="1">  1       21 0.90068902E-01 0.50034771E+01</pdfrwt>
<pdfrwt beam="2">  1       21 0.26148973E-04 0.50034771E+01</pdfrwt>
<totfact> 0.31956809E+08</totfact>
</mgrwt>
</event>
<event>
 4    1  0.3999109E+006  0.5036699E+01  0.7546771E-02  0.2560684E+00
         21   -1    0    0  501  502  0.00000000000E+00  0.00000000000E+00  0.11426161604E+02  0.11426161604E+02  0.00000000000E+00 0.  1.
         21   -1    0    0  502  503 -0.00000000000E+00 -0.00000000000E+00 -0.13035772964E+02  0.13035772964E+02  0.00000000000E+00 0. -1.
          5    1    1    2  501    0  0.14424966928E+01 -0.10943217228E+01  0.10336016029E+02  0.11497893899E+02  0.47000000000E+01 0.  1.
         -5    1    1    2    0  503 -0.14424966928E+01  0.10943217228E+01 -0.11945627390E+02  0.12964040670E+02  0.47000000000E+01 0. -1.
<mgrwt>
<rscale>  2 0.50366990E+01</rscale>
<asrwt>0</asrwt>
<pdfrwt beam="1">  1       21 0.17578710E-02 0.50366990E+01</pdfrwt>
<pdfrwt beam="2">  1       21 0.20055035E-02 0.50366990E+01</pdfrwt>
<totfact> 0.45464798E+08</totfact>
</mgrwt>
</event>
<event>
 4    1  0.3999109E+006  0.4992575E+01  0.7546771E-02  0.2568473E+00
         21   -1    0    0  501  502  0.00000000000E+00  0.00000000000E+00  0.95718869381E+02  0.95718869381E+02  0.00000000000E+00 0.  1.
         21   -1    0    0  502  503 -0.00000000000E+00 -0.00000000000E+00 -0.46155939992E+00  0.46155939992E+00  0.00000000000E+00 0.  1.
          5    1    1    2  501    0 -0.52478551403E+00  0.16001268317E+01  0.15881400347E+02  0.16647662980E+02  0.47000000000E+01 0.  1.
         -5    1    1    2    0  503  0.52478551403E+00 -0.16001268317E+01  0.79375909634E+02  0.79532765801E+02  0.47000000000E+01 0.  1.
<mgrwt>
<rscale>  2 0.49925751E+01</rscale>
<asrwt>0</asrwt>
<pdfrwt beam="1">  1       21 0.14725964E-01 0.49925751E+01</pdfrwt>
<pdfrwt beam="2">  1       21 0.71009214E-04 0.49925751E+01</pdfrwt>
<totfact> 0.19054234E+09</totfact>
</mgrwt>
</event>
<event>
 4    1  0.3999109E+006  0.5083427E+01  0.7546771E-02  0.2552563E+00
         21   -1    0    0  501  502  0.00000000000E+00  0.00000000000E+00  0.37662626512E+02  0.37662626512E+02  0.00000000000E+00 0. -1.
         21   -1    0    0  502  503 -0.00000000000E+00 -0.00000000000E+00 -0.63125215129E+01  0.63125215129E+01  0.00000000000E+00 0. -1.
          5    1    1    2  501    0  0.13227643006E+01  0.14147519483E+01  0.36433319253E+02  0.36786247162E+02  0.47000000000E+01 0. -1.
         -5    1    1    2    0  503 -0.13227643006E+01 -0.14147519483E+01 -0.50832142538E+01  0.71889008631E+01  0.47000000000E+01 0. -1.
<mgrwt>
<rscale>  2 0.50834268E+01</rscale>
<asrwt>0</asrwt>
<pdfrwt beam="1">  1       21 0.57942501E-02 0.50834268E+01</pdfrwt>
<pdfrwt beam="2">  1       21 0.97115718E-03 0.50834268E+01</pdfrwt>
<totfact> 0.22797301E+08</totfact>
</mgrwt>
</event>
<event>
 4    1  0.3999109E+006  0.6892284E+01  0.7546771E-02  0.2311992E+00
         21   -1    0    0  501  502  0.00000000000E+00  0.00000000000E+00  0.14221530900E+01  0.14221530900E+01  0.00000000000E+00 0.  1.
         21   -1    0    0  502  503 -0.00000000000E+00 -0.00000000000E+00 -0.36327052065E+02  0.36327052065E+02  0.00000000000E+00 0. -1.
          5    1    1    2  501    0 -0.25854969521E+01  0.43276765268E+01 -0.12097114129E+02  0.13922778058E+02  0.47000000000E+01 0. -1.
         -5    1    1    2    0  503  0.25854969521E+01 -0.43276765268E+01 -0.22807784846E+02  0.23826427097E+02  0.47000000000E+01 0. -1.
<mgrwt>
<rscale>  2 0.68922840E+01</rscale>
<asrwt>0</asrwt>
<pdfrwt beam="1">  1       21 0.21879278E-03 0.68922840E+01</pdfrwt>
<pdfrwt beam="2">  1       21 0.55887773E-02 0.68922840E+01</pdfrwt>
<totfact> 0.24182039E+09</totfact>
</mgrwt>
</event>
<event>
 4    1  0.3999109E+006  0.5495259E+01  0.7546771E-02  0.2486144E+00
         21   -1    0    0  501  502  0.00000000000E+00  0.00000000000E+00  0.62692791949E+01  0.62692791949E+01  0.00000000000E+00 0.  1.
         21   -1    0    0  502  503 -0.00000000000E+00 -0.00000000000E+00 -0.24607728184E+02  0.24607728184E+02  0.00000000000E+00 0.  1.
          5    1    1    2  501    0 -0.50074127739E+00  0.28030579704E+01  0.46760798338E+01  0.72155109607E+01  0.47000000000E+01 0.  1.
         -5    1    1    2    0  503  0.50074127739E+00 -0.28030579704E+01 -0.23014528822E+02  0.23661496418E+02  0.47000000000E+01 0.  1.
<mgrwt>
<rscale>  2 0.54952594E+01</rscale>
<asrwt>0</asrwt>
<pdfrwt beam="1">  1       21 0.96450449E-03 0.54952594E+01</pdfrwt>
<pdfrwt beam="2">  1       21 0.37858043E-02 0.54952594E+01</pdfrwt>
<totfact> 0.45812433E+08</totfact>
</mgrwt>
</event>
<event>
 4    1  0.3999109E+006  0.7280853E+01  0.7546771E-02  0.2273578E+00
         21   -1    0    0  503  502  0.00000000000E+00  0.00000000000E+00  0.69621611329E+02  0.69621611329E+02  0.00000000000E+00 0. -1.
         21   -1    0    0  501  503 -0.00000000000E+00 -0.00000000000E+00 -0.82045894218E+00  0.82045894218E+00  0.00000000000E+00 0. -1.
          5    1    1    2  501    0  0.33222716646E+01 -0.44590728911E+01  0.24951972030E+02  0.25992532163E+02  0.47000000000E+01 0. -1.
         -5    1    1    2    0  502 -0.33222716646E+01  0.44590728911E+01  0.43849180357E+02  0.44449538108E+02  0.47000000000E+01 0. -1.
<mgrwt>
<rscale>  2 0.72808530E+01</rscale>
<asrwt>0</asrwt>
<pdfrwt beam="1">  1       21 0.10711012E-01 0.72808530E+01</pdfrwt>
<pdfrwt beam="2">  1       21 0.12622451E-03 0.72808530E+01</pdfrwt>
<totfact> 0.19752153E+09</totfact>
</mgrwt>
</event>
<event>
 4    1  0.3999109E+006  0.5199276E+01  0.7546771E-02  0.2532972E+00
         21   -1    0    0  503  502  0.00000000000E+00  0.00000000000E+00  0.79342510539E+00  0.79342510539E+00  0.00000000000E+00 0.  1.
         21   -1    0    0  501  503 -0.00000000000E+00 -0.00000000000E+00 -0.43392689293E+02  0.43392689293E+02  0.00000000000E+00 0.  1.
          5    1    1    2  501    0 -0.47025222688E+00  0.21728639878E+01 -0.31539727346E+02  0.31965401235E+02  0.47000000000E+01 0.  1.
         -5    1    1    2    0  502  0.47025222688E+00 -0.21728639878E+01 -0.11059536841E+02  0.12220713163E+02  0.47000000000E+01 0.  1.
<mgrwt>
<rscale>  2 0.51992764E+01</rscale>
<asrwt>0</asrwt>
<pdfrwt beam="1">  1       21 0.12206538E-03 0.51992764E+01</pdfrwt>
<pdfrwt beam="2">  1       21 0.66757994E-02 0.51992764E+01</pdfrwt>
<totfact> 0.31985888E+09</totfact>
</mgrwt>
</event>
<event>
 4    1  0.3999109E+006  0.8473119E+01  0.7546771E-02  0.2173958E+00
         21   -1    0    0  503  502  0.00000000000E+00  0.00000000000E+00  0.35215001957E+00  0.35215001957E+00  0.00000000000E+00 0. -1.
         21   -1    0    0  501  503 -0.00000000000E+00 -0.00000000000E+00 -0.20418841504E+03  0.20418841504E+03  0.00000000000E+00 0.  1.
          5    1    1    2  501    0 -0.66650864618E+01  0.22979035475E+01 -0.97896023176E+02  0.98262022633E+02  0.47000000000E+01 0.  1.
         -5    1    1    2    0  502  0.66650864618E+01 -0.22979035475E+01 -0.10594024185E+03  0.10627854243E+03  0.47000000000E+01 0.  1.
<mgrwt>
<rscale>  2 0.84731186E+01</rscale>
<asrwt>0</asrwt>
<pdfrwt beam="1">  1       21 0.54176832E-04 0.84731186E+01</pdfrwt>
<pdfrwt beam="2">  1       21 0.31413657E-01 0.84731186E+01</pdfrwt>
<totfact> 0.11840575E+09</totfact>
</mgrwt>
</event>
<event>
 4    1  0.3999109E+006  0.7187934E+01  0.7546771E-02  0.2282454E+00
         21   -1    0    0  503  502  0.00000000000E+00  0.00000000000E+00  0.33483535372E+03  0.33483535372E+03  0.00000000000E+00 0.  1.
         21   -1    0    0  501  503 -0.00000000000E+00 -0.00000000000E+00 -0.22611965122E+00  0.22611965122E+00  0.00000000000E+00 0.  1.
          5    1    1    2  501    0  0.23388462090E+01 -0.49098053448E+01  0.72890856438E+02  0.73244408267E+02  0.47000000000E+01 0.  1.
         -5    1    1    2    0  502 -0.23388462090E+01  0.49098053448E+01  0.26171837763E+03  0.26181706510E+03  0.47000000000E+01 0.  1.
<mgrwt>
<rscale>  2 0.71879336E+01</rscale>
<asrwt>0</asrwt>
<pdfrwt beam="1">  1       21 0.51512734E-01 0.71879336E+01</pdfrwt>
<pdfrwt beam="2">  1       21 0.34787907E-04 0.71879336E+01</pdfrwt>
<totfact> 0.80673693E+08</totfact>
</mgrwt>
</event>
<event>
 4    1  0.3999109E+006  0.5524276E+01  0.7546771E-02  0.2481784E+00
         21   -1    0    0  501  502  0.00000000000E+00  0.00000000000E+00  0.22811957669E+02  0.22811957669E+02  0.00000000000E+00 0.  1.
         21   -1    0    0  502  503 -0.00000000000E+00 -0.00000000000E+00 -0.14199988709E+01  0.14199988709E+01  0.00000000000E+00 0. -1.
          5    1    1    2  501    0 -0.29029499235E+01 -0.22496033761E-01  0.13611204102E+02  0.14689537142E+02  0.47000000000E+01 0.  1.
         -5    1    1    2    0  503  0.29029499235E+01  0.22496033761E-01  0.77807546960E+01  0.95424193981E+01  0.47000000000E+01 0. -1.
<mgrwt>
<rscale>  2 0.55242759E+01</rscale>
<asrwt>0</asrwt>
<pdfrwt beam="1">  1       21 0.35095317E-02 0.55242759E+01</pdfrwt>
<pdfrwt beam="2">  1       21 0.21846138E-03 0.55242759E+01</pdfrwt>
<totfact> 0.39846025E+09</totfact>
</mgrwt>
</event>
<event>
 4    1  0.3999109E+006  0.5122085E+01  0.7546771E-02  0.2545941E+00
         21   -1    0    0  501  502  0.00000000000E+00  0.00000000000E+00  0.31360987347E+02  0.31360987347E+02  0.00000000000E+00 0.  1.
         21   -1    0    0  502  503 -0.00000000000E+00 -0.00000000000E+00 -0.83657315979E+00  0.83657315979E+00  0.00000000000E+00 0. -1.
          5    1    1    2  501    0 -0.12465808412E+01  0.16099035953E+01  0.15270462569E+02  0.16106606733E+02  0.47000000000E+01 0. -1.
         -5    1    1    2    0  503  0.12465808412E+01 -0.16099035953E+01  0.15253951618E+02  0.16090953774E+02  0.47000000000E+01 0.  1.
<mgrwt>
<rscale>  2 0.51220849E+01</rscale>
<asrwt>0</asrwt>
<pdfrwt beam="1">  1       21 0.48247664E-02 0.51220849E+01</pdfrwt>
<pdfrwt beam="2">  1       21 0.12870359E-03 0.51220849E+01</pdfrwt>
<totfact> 0.47371322E+09</totfact>
</mgrwt>
</event>
<event>
 4    1  0.3999109E+006  0.5196921E+01  0.7546771E-02  0.2533363E+00
         21   -1    0    0  501  502  0.00000000000E+00  0.00000000000E+00  0.96767559470E+01  0.96767559470E+01  0.00000000000E+00 0.  1.
         21   -1    0    0  502  503 -0.00000000000E+00 -0.00000000000E+00 -0.28692933587E+01  0.28692933587E+01  0.00000000000E+00 0.  1.
          5    1    1    2  501    0 -0.18844413818E+01 -0.11691310448E+01  0.44398412966E+01  0.68352159776E+01  0.47000000000E+01 0.  1.
         -5    1    1    2    0  503  0.18844413818E+01  0.11691310448E+01  0.23676212917E+01  0.57108333282E+01  0.47000000000E+01 0.  1.
<mgrwt>
<rscale>  2 0.51969209E+01</rscale>
<asrwt>0</asrwt>
<pdfrwt beam="1">  1       21 0.14887317E-02 0.51969209E+01</pdfrwt>
<pdfrwt beam="2">  1       21 0.44142975E-03 0.51969209E+01</pdfrwt>
<totfact> 0.48971889E+09</totfact>
</mgrwt>
</event>
<event>
 4    1  0.3999109E+006  0.9755714E+01  0.7546771E-02  0.2089163E+00
         21   -1    0    0  501  502  0.00000000000E+00  0.00000000000E+00  0.34548328805E+03  0.34548328805E+03  0.00000000000E+00 0.  1.
         21   -1    0    0  502  503 -0.00000000000E+00 -0.00000000000E+00 -0.28809948185E+00  0.28809948185E+00  0.00000000000E+00 0. -1.
          5    1    1    2  501    0  0.81647214971E+01  0.25340239267E+01  0.20878002277E+03  0.20900782727E+03  0.47000000000E+01 0.  1.
         -5    1    1    2    0  503 -0.81647214971E+01 -0.25340239267E+01  0.13641516580E+03  0.13676356026E+03  0.47000000000E+01 0. -1.
<mgrwt>
<rscale>  2 0.97557139E+01</rscale>
<asrwt>0</asrwt>
<pdfrwt beam="1">  1       21 0.53150944E-01 0.97557139E+01</pdfrwt>
<pdfrwt beam="2">  1       21 0.44323273E-04 0.97557139E+01</pdfrwt>
<totfact> 0.65267287E+08</totfact>
</mgrwt>
</event>
<event>
 4    1  0.3999109E+006  0.9039454E+01  0.7546771E-02  0.2134163E+00
         21   -1    0    0  501  502  0.00000000000E+00  0.00000000000E+00  0.22125448681E+02  0.22125448681E+02  0.00000000000E+00 0. -1.
         21   -1    0    0  502  503 -0.00000000000E+00 -0.00000000000E+00 -0.42239631406E+01  0.42239631406E+01  0.00000000000E+00 0.  1.
          5    1    1    2  501    0 -0.58297286349E+01  0.50631993526E+01  0.13621291632E+02  0.16347822771E+02  0.47000000000E+01 0. -1.
         -5    1    1    2    0  503  0.58297286349E+01 -0.50631993526E+01  0.42801939090E+01  0.10001589051E+02  0.47000000000E+01 0.  1.
<mgrwt>
<rscale>  2 0.90394537E+01</rscale>
<asrwt>0</asrwt>
<pdfrwt beam="1">  1       21 0.34039151E-02 0.90394537E+01</pdfrwt>
<pdfrwt beam="2">  1       21 0.64984050E-03 0.90394537E+01</pdfrwt>
<totfact> 0.13402475E+09</totfact>
</mgrwt>
</event>
<event>
 4    1  0.3999109E+006  0.5289161E+01  0.7546771E-02  0.2518279E+00
         21   -1    0    0  501  502  0.00000000000E+00  0.00000000000E+00  0.29221385470E+02  0.29221385470E+02  0.00000000000E+00 0. -1.
         21   -1    0    0  502  503 -0.00000000000E+00 -0.00000000000E+00 -0.10022574798E+01  0.10022574798E+01  0.00000000000E+00 0. -1.
          5    1    1    2  501    0 -0.17063409459E+01  0.17244199553E+01  0.17308200966E+02  0.18098316062E+02  0.47000000000E+01 0.  1.
         -5    1    1    2    0  503  0.17063409459E+01 -0.17244199553E+01  0.10910927024E+02  0.12125326888E+02  0.47000000000E+01 0.  1.
<mgrwt>
<rscale>  2 0.52891610E+01</rscale>
<asrwt>0</asrwt>
<pdfrwt beam="1">  1       21 0.44955971E-02 0.52891610E+01</pdfrwt>
<pdfrwt beam="2">  1       21 0.15419348E-03 0.52891610E+01</pdfrwt>
<totfact> 0.42602413E+09</totfact>
</mgrwt>
</event>
<event>
 4    1  0.3999109E+006  0.6726320E+01  0.7546771E-02  0.2329502E+00
         21   -1    0    0  503  502  0.00000000000E+00  0.00000000000E+00  0.77432243760E+00  0.77432243760E+00  0.00000000000E+00 0. -1.
         21   -1    0    0  501  503 -0.00000000000E+00 -0.00000000000E+00 -0.83163779576E+02  0.83163779576E+02  0.00000000000E+00 0.  1.
          5    1    1    2  501    0 -0.41005591749E+01  0.25176961113E+01 -0.64082866728E+02  0.64434906590E+02  0.47000000000E+01 0.  1.
         -5    1    1    2    0  502  0.41005591749E+01 -0.25176961113E+01 -0.18306590410E+02  0.19503195423E+02  0.47000000000E+01 0. -1.
<mgrwt>
<rscale>  2 0.67263199E+01</rscale>
<asrwt>0</asrwt>
<pdfrwt beam="1">  1       21 0.11912659E-03 0.67263199E+01</pdfrwt>
<pdfrwt beam="2">  1       21 0.12794421E-01 0.67263199E+01</pdfrwt>
<totfact> 0.15256742E+09</totfact>
</mgrwt>
</event>
<event>
 4    1  0.3999109E+006  0.5372573E+01  0.7546771E-02  0.2505020E+00
         21   -1    0    0  503  502  0.00000000000E+00  0.00000000000E+00  0.25820544946E+01  0.25820544946E+01  0.00000000000E+00 0.  1.
         21   -1    0    0  501  503 -0.00000000000E+00 -0.00000000000E+00 -0.15660377228E+02  0.15660377228E+02  0.00000000000E+00 0.  1.
          5    1    1    2  501    0 -0.11420878026E+01  0.23388405498E+01 -0.11418511920E+02  0.12619308782E+02  0.47000000000E+01 0.  1.
         -5    1    1    2    0  502  0.11420878026E+01 -0.23388405498E+01 -0.16598108129E+01  0.56231229402E+01  0.47000000000E+01 0.  1.
<mgrwt>
<rscale>  2 0.53725729E+01</rscale>
<asrwt>0</asrwt>
<pdfrwt beam="1">  1       21 0.39723915E-03 0.53725729E+01</pdfrwt>
<pdfrwt beam="2">  1       21 0.24092888E-02 0.53725729E+01</pdfrwt>
<totfact> 0.29523312E+09</totfact>
</mgrwt>
</event>
<event>
 4    1  0.3999109E+006  0.1574160E+02  0.7546771E-02  0.1846247E+00
         21   -1    0    0  503  502  0.00000000000E+00  0.00000000000E+00  0.76111304859E+00  0.76111304859E+00  0.00000000000E+00 0. -1.
         21   -1    0    0  501  503 -0.00000000000E+00 -0.00000000000E+00 -0.52587493646E+03  0.52587493646E+03  0.00000000000E+00 0.  1.
          5    1    1    2  501    0 -0.31292566278E+01  0.14694066134E+02 -0.42506761577E+03  0.42535899638E+03  0.47000000000E+01 0. -1.
         -5    1    1    2    0  502  0.31292566278E+01 -0.14694066134E+02 -0.10004620764E+03  0.10127705312E+03  0.47000000000E+01 0.  1.
<mgrwt>
<rscale>  2 0.15741595E+02</rscale>
<asrwt>0</asrwt>
<pdfrwt beam="1">  1       21 0.11709442E-03 0.15741595E+02</pdfrwt>
<pdfrwt beam="2">  1       21 0.80903766E-01 0.15741595E+02</pdfrwt>
<totfact> 0.90070395E+07</totfact>
</mgrwt>
</event>
<event>
 4    1  0.3999109E+006  0.4794548E+01  0.7546771E-02  0.2604944E+00
         21   -1    0    0  501  502  0.00000000000E+00  0.00000000000E+00  0.13846107850E+01  0.13846107850E+01  0.00000000000E+00 0. -1.
         21   -1    0    0  502  503 -0.00000000000E+00 -0.00000000000E+00 -0.16793984027E+03  0.16793984027E+03  0.00000000000E+00 0. -1.
          5    1    1    2  501    0  0.54408880536E+00  0.77566467251E+00 -0.29090551304E+01  0.56080558186E+01  0.47000000000E+01 0. -1.
         -5    1    1    2    0  503 -0.54408880536E+00 -0.77566467251E+00 -0.16364617436E+03  0.16371639524E+03  0.47000000000E+01 0. -1.
<mgrwt>
<rscale>  2 0.47945478E+01</rscale>
<asrwt>0</asrwt>
<pdfrwt beam="1">  1       21 0.21301697E-03 0.47945478E+01</pdfrwt>
<pdfrwt beam="2">  1       21 0.25836907E-01 0.47945478E+01</pdfrwt>
<totfact> 0.17449556E+08</totfact>
</mgrwt>
</event>
<event>
 4    1  0.3999109E+006  0.8657399E+01  0.7546771E-02  0.2160554E+00
         21   -1    0    0  501  502  0.00000000000E+00  0.00000000000E+00  0.11716242582E+04  0.11716242582E+04  0.00000000000E+00 0.  1.
         21   -1    0    0  502  503 -0.00000000000E+00 -0.00000000000E+00 -0.88619764215E-01  0.88619764215E-01  0.00000000000E+00 0.  1.
          5    1    1    2  501    0 -0.46153788046E+01  0.56177257765E+01  0.89473977277E+03  0.89478165579E+03  0.47000000000E+01 0.  1.
         -5    1    1    2    0  503  0.46153788046E+01 -0.56177257765E+01  0.27679586563E+03  0.27693122214E+03  0.47000000000E+01 0.  1.
<mgrwt>
<rscale>  2 0.86573994E+01</rscale>
<asrwt>0</asrwt>
<pdfrwt beam="1">  1       21 0.18023748E+00 0.86573994E+01</pdfrwt>
<pdfrwt beam="2">  1       21 0.13634748E-04 0.86573994E+01</pdfrwt>
<totfact> 0.24205308E+08</totfact>
</mgrwt>
</event>
<event>
 4    1  0.3999109E+006  0.5048402E+01  0.7546771E-02  0.2558638E+00
         21   -1    0    0  503  502  0.00000000000E+00  0.00000000000E+00  0.62579042753E+00  0.62579042753E+00  0.00000000000E+00 0.  1.
         21   -1    0    0  501  503 -0.00000000000E+00 -0.00000000000E+00 -0.15432851987E+03  0.15432851987E+03  0.00000000000E+00 0.  1.
          5    1    1    2  501    0 -0.12236402521E+01  0.13780675252E+01 -0.14332405496E+03  0.14341293908E+03  0.47000000000E+01 0.  1.
         -5    1    1    2    0  502  0.12236402521E+01 -0.13780675252E+01 -0.10378674490E+02  0.11541371224E+02  0.47000000000E+01 0.  1.
<mgrwt>
<rscale>  2 0.50484023E+01</rscale>
<asrwt>0</asrwt>
<pdfrwt beam="1">  1       21 0.96275489E-04 0.50484023E+01</pdfrwt>
<pdfrwt beam="2">  1       21 0.23742840E-01 0.50484023E+01</pdfrwt>
<totfact> 0.60317784E+08</totfact>
</mgrwt>
</event>
<event>
 4    1  0.3999109E+006  0.5002027E+01  0.7546771E-02  0.2566794E+00
         21   -1    0    0  501  502  0.00000000000E+00  0.00000000000E+00  0.27268978465E+00  0.27268978465E+00  0.00000000000E+00 0. -1.
         21   -1    0    0  502  503 -0.00000000000E+00 -0.00000000000E+00 -0.18085281404E+03  0.18085281404E+03  0.00000000000E+00 0.  1.
          5    1    1    2  501    0  0.16976536578E+01 -0.21964484021E+00 -0.26724207429E+02  0.27188297749E+02  0.47000000000E+01 0. -1.
         -5    1    1    2    0  503 -0.16976536578E+01  0.21964484021E+00 -0.15385591683E+03  0.15393720607E+03  0.47000000000E+01 0.  1.
<mgrwt>
<rscale>  2 0.50020268E+01</rscale>
<asrwt>0</asrwt>
<pdfrwt beam="1">  1       21 0.41952302E-04 0.50020268E+01</pdfrwt>
<pdfrwt beam="2">  1       21 0.27823491E-01 0.50020268E+01</pdfrwt>
<totfact> 0.13896530E+09</totfact>
</mgrwt>
</event>
<event>
 4    1  0.3999109E+006  0.4760004E+01  0.7546771E-02  0.2611575E+00
         21   -1    0    0  503  502  0.00000000000E+00  0.00000000000E+00  0.25856393851E+02  0.25856393851E+02  0.00000000000E+00 0. -1.
         21   -1    0    0  501  503 -0.00000000000E+00 -0.00000000000E+00 -0.76982851225E+01  0.76982851225E+01  0.00000000000E+00 0. -1.
          5    1    1    2  501    0  0.53469598275E+00  0.53078841978E+00 -0.67145726198E+01  0.82306209734E+01  0.47000000000E+01 0. -1.
         -5    1    1    2    0  502 -0.53469598275E+00 -0.53078841978E+00  0.24872681348E+02  0.25324058000E+02  0.47000000000E+01 0. -1.
<mgrwt>
<rscale>  2 0.47600038E+01</rscale>
<asrwt>0</asrwt>
<pdfrwt beam="1">  1       21 0.39779067E-02 0.47600038E+01</pdfrwt>
<pdfrwt beam="2">  1       21 0.11843516E-02 0.47600038E+01</pdfrwt>
<totfact> 0.28266154E+08</totfact>
</mgrwt>
</event>
<event>
 4    1  0.3999109E+006  0.4992970E+01  0.7546771E-02  0.2568402E+00
         21   -1    0    0  501  502  0.00000000000E+00  0.00000000000E+00  0.12055962678E+03  0.12055962678E+03  0.00000000000E+00 0.  1.
         21   -1    0    0  502  503 -0.00000000000E+00 -0.00000000000E+00 -0.58189555965E+00  0.58189555965E+00  0.00000000000E+00 0.  1.
          5    1    1    2  501    0  0.16673166292E+01 -0.24454823439E+00  0.10862073786E+03  0.10873543324E+03  0.47000000000E+01 0.  1.
         -5    1    1    2    0  503 -0.16673166292E+01  0.24454823439E+00  0.11356993367E+02  0.12406089106E+02  0.47000000000E+01 0.  1.
<mgrwt>
<rscale>  2 0.49929699E+01</rscale>
<asrwt>0</asrwt>
<pdfrwt beam="1">  1       21 0.18547615E-01 0.49929699E+01</pdfrwt>
<pdfrwt beam="2">  1       21 0.89522490E-04 0.49929699E+01</pdfrwt>
<totfact> 0.97651749E+08</totfact>
</mgrwt>
</event>
<event>
 4    1  0.3999109E+006  0.6062677E+01  0.7546771E-02  0.2407337E+00
         21   -1    0    0  503  502  0.00000000000E+00  0.00000000000E+00  0.11784345876E+02  0.11784345876E+02  0.00000000000E+00 0. -1.
         21   -1    0    0  501  503 -0.00000000000E+00 -0.00000000000E+00 -0.47808363486E+01  0.47808363486E+01  0.00000000000E+00 0.  1.
          5    1    1    2  501    0  0.36825787626E+01  0.10510302951E+01 -0.13814047557E+01  0.62180648214E+01  0.47000000000E+01 0.  1.
         -5    1    1    2    0  502 -0.36825787626E+01 -0.10510302951E+01  0.83849142834E+01  0.10347117404E+02  0.47000000000E+01 0. -1.
<mgrwt>
<rscale>  2 0.60626769E+01</rscale>
<asrwt>0</asrwt>
<pdfrwt beam="1">  1       21 0.18129763E-02 0.60626769E+01</pdfrwt>
<pdfrwt beam="2">  1       21 0.73551329E-03 0.60626769E+01</pdfrwt>
<totfact> 0.21055500E+09</totfact>
</mgrwt>
</event>
<event>
 4    1  0.3999109E+006  0.2148683E+02  0.7546771E-02  0.1717281E+00
         21   -1    0    0  501  502  0.00000000000E+00  0.00000000000E+00  0.26825218171E+02  0.26825218171E+02  0.00000000000E+00 0. -1.
         21   -1    0    0  502  503 -0.00000000000E+00 -0.00000000000E+00 -0.20021728754E+02  0.20021728754E+02  0.00000000000E+00 0.  1.
          5    1    1    2  501    0 -0.20741967665E+02 -0.30601903930E+01  0.12178296567E+02  0.24698074725E+02  0.47000000000E+01 0. -1.
         -5    1    1    2    0  503  0.20741967665E+02  0.30601903930E+01 -0.53748071499E+01  0.22148872200E+02  0.47000000000E+01 0.  1.
<mgrwt>
<rscale>  2 0.21486833E+02</rscale>
<asrwt>0</asrwt>
<pdfrwt beam="1">  1       21 0.41269567E-02 0.21486833E+02</pdfrwt>
<pdfrwt beam="2">  1       21 0.30802659E-02 0.21486833E+02</pdfrwt>
<totfact> 0.14602625E+08</totfact>
</mgrwt>
</event>
<event>
 4    1  0.3999109E+006  0.7409706E+01  0.7546771E-02  0.2261570E+00
         21   -1    0    0  503  502  0.00000000000E+00  0.00000000000E+00  0.54167599302E+01  0.54167599302E+01  0.00000000000E+00 0.  1.
         21   -1    0    0  501  503 -0.00000000000E+00 -0.00000000000E+00 -0.13549385131E+02  0.13549385131E+02  0.00000000000E+00 0. -1.
          5    1    1    2  501    0  0.39010911084E+01  0.41946677343E+01 -0.88261064367E+01  0.11524057622E+02  0.47000000000E+01 0. -1.
         -5    1    1    2    0  502 -0.39010911084E+01 -0.41946677343E+01  0.69348123558E+00  0.74420874398E+01  0.47000000000E+01 0.  1.
<mgrwt>
<rscale>  2 0.74097064E+01</rscale>
<asrwt>0</asrwt>
<pdfrwt beam="1">  1       21 0.83334769E-03 0.74097064E+01</pdfrwt>
<pdfrwt beam="2">  1       21 0.20845208E-02 0.74097064E+01</pdfrwt>
<totfact> 0.16927787E+09</totfact>
</mgrwt>
</event>
<event>
 4    1  0.3999109E+006  0.5554293E+01  0.7546771E-02  0.2477314E+00
         21   -1    0    0  501  502  0.00000000000E+00  0.00000000000E+00  0.12032635158E+01  0.12032635158E+01  0.00000000000E+00 0. -1.
         21   -1    0    0  502  503 -0.00000000000E+00 -0.00000000000E+00 -0.83222419081E+02  0.83222419081E+02  0.00000000000E+00 0. -1.
          5    1    1    2  501    0 -0.27276512193E+01  0.11489512925E+01 -0.58960801873E+01  0.81002427014E+01  0.47000000000E+01 0. -1.
         -5    1    1    2    0  503  0.27276512193E+01 -0.11489512925E+01 -0.76123075377E+02  0.76325439895E+02  0.47000000000E+01 0. -1.
<mgrwt>
<rscale>  2 0.55542930E+01</rscale>
<asrwt>0</asrwt>
<pdfrwt beam="1">  1       21 0.18511742E-03 0.55542930E+01</pdfrwt>
<pdfrwt beam="2">  1       21 0.12803452E-01 0.55542930E+01</pdfrwt>
<totfact> 0.72277340E+08</totfact>
</mgrwt>
</event>
<event>
 4    1  0.3999109E+006  0.8113680E+01  0.7546771E-02  0.2201494E+00
         21   -1    0    0  503  502  0.00000000000E+00  0.00000000000E+00  0.42960632587E+03  0.42960632587E+03  0.00000000000E+00 0.  1.
         21   -1    0    0  501  503 -0.00000000000E+00 -0.00000000000E+00 -0.24037785008E+00  0.24037785008E+00  0.00000000000E+00 0. -1.
          5    1    1    2  501    0 -0.65719059858E+01 -0.74286612758E+00  0.85279469616E+02  0.85664576905E+02  0.47000000000E+01 0.  1.
         -5    1    1    2    0  502  0.65719059858E+01  0.74286612758E+00  0.34408647840E+03  0.34418212682E+03  0.47000000000E+01 0.  1.
<mgrwt>
<rscale>  2 0.81136797E+01</rscale>
<asrwt>0</asrwt>
<pdfrwt beam="1">  1       21 0.66092666E-01 0.81136797E+01</pdfrwt>
<pdfrwt beam="2">  1       21 0.36981552E-04 0.81136797E+01</pdfrwt>
<totfact> 0.50011436E+08</totfact>
</mgrwt>
</event>
<event>
 4    1  0.3999109E+006  0.5757323E+01  0.7546771E-02  0.2448120E+00
         21   -1    0    0  501  502  0.00000000000E+00  0.00000000000E+00  0.31892570272E+01  0.31892570272E+01  0.00000000000E+00 0.  1.
         21   -1    0    0  502  503 -0.00000000000E+00 -0.00000000000E+00 -0.42358038135E+02  0.42358038135E+02  0.00000000000E+00 0. -1.
          5    1    1    2  501    0 -0.85188020826E+00 -0.32141981612E+01  0.19899163064E+00  0.57607610068E+01  0.47000000000E+01 0.  1.
         -5    1    1    2    0  503  0.85188020826E+00  0.32141981612E+01 -0.39367772738E+02  0.39786534155E+02  0.47000000000E+01 0. -1.
<mgrwt>
<rscale>  2 0.57573231E+01</rscale>
<asrwt>0</asrwt>
<pdfrwt beam="1">  1       21 0.49065493E-03 0.57573231E+01</pdfrwt>
<pdfrwt beam="2">  1       21 0.65166212E-02 0.57573231E+01</pdfrwt>
<totfact> 0.54709958E+08</totfact>
</mgrwt>
</event>
<event>
 4    1  0.3999109E+006  0.1550757E+02  0.7546771E-02  0.1852963E+00
         21   -1    0    0  501  502  0.00000000000E+00  0.00000000000E+00  0.61796370194E+01  0.61796370194E+01  0.00000000000E+00 0.  1.
         21   -1    0    0  502  503 -0.00000000000E+00 -0.00000000000E+00 -0.81941607796E+02  0.81941607796E+02  0.00000000000E+00 0. -1.
          5    1    1    2  501    0  0.49239076413E+01  0.13933770800E+02 -0.59535921334E+01  0.16611143683E+02  0.47000000000E+01 0.  1.
         -5    1    1    2    0  503 -0.49239076413E+01 -0.13933770800E+02 -0.69808378643E+02  0.71510101133E+02  0.47000000000E+01 0. -1.
<mgrwt>
<rscale>  2 0.15507573E+02</rscale>
<asrwt>0</asrwt>
<pdfrwt beam="1">  1       21 0.95071351E-03 0.15507573E+02</pdfrwt>
<pdfrwt beam="2">  1       21 0.12606400E-01 0.15507573E+02</pdfrwt>
<totfact> 0.12879380E+08</totfact>
</mgrwt>
</event>
<event>
 4    1  0.3999109E+006  0.5462860E+01  0.7546771E-02  0.2491059E+00
         21   -1    0    0  501  502  0.00000000000E+00  0.00000000000E+00  0.66937155173E+01  0.66937155173E+01  0.00000000000E+00 0.  1.
         21   -1    0    0  502  503 -0.00000000000E+00 -0.00000000000E+00 -0.47148489305E+01  0.47148489305E+01  0.00000000000E+00 0.  1.
          5    1    1    2  501    0  0.20614471913E+01  0.18717024577E+01  0.23199536499E+01  0.59350669373E+01  0.47000000000E+01 0.  1.
         -5    1    1    2    0  503 -0.20614471913E+01 -0.18717024577E+01 -0.34108706307E+00  0.54734975105E+01  0.47000000000E+01 0.  1.
<mgrwt>
<rscale>  2 0.54628596E+01</rscale>
<asrwt>0</asrwt>
<pdfrwt beam="1">  1       21 0.10298024E-02 0.54628596E+01</pdfrwt>
<pdfrwt beam="2">  1       21 0.72536137E-03 0.54628596E+01</pdfrwt>
<totfact> 0.43549555E+09</totfact>
</mgrwt>
</event>
<event>
 4    1  0.3999109E+006  0.9040744E+01  0.7546771E-02  0.2134077E+00
         21   -1    0    0  501  502  0.00000000000E+00  0.00000000000E+00  0.13137539403E+03  0.13137539403E+03  0.00000000000E+00 0. -1.
         21   -1    0    0  502  503 -0.00000000000E+00 -0.00000000000E+00 -0.21118145423E+01  0.21118145423E+01  0.00000000000E+00 0.  1.
          5    1    1    2  501    0 -0.15014890899E+01  0.75756569948E+01  0.12068831549E+03  0.12102646216E+03  0.47000000000E+01 0. -1.
         -5    1    1    2    0  503  0.15014890899E+01 -0.75756569948E+01  0.85752639969E+01  0.12460746406E+02  0.47000000000E+01 0.  1.
<mgrwt>
<rscale>  2 0.90407438E+01</rscale>
<asrwt>0</asrwt>
<pdfrwt beam="1">  1       21 0.20211593E-01 0.90407438E+01</pdfrwt>
<pdfrwt beam="2">  1       21 0.32489465E-03 0.90407438E+01</pdfrwt>
<totfact> 0.21939158E+08</totfact>
</mgrwt>
</event>
<event>
 4    1  0.3999109E+006  0.7260186E+01  0.7546771E-02  0.2275536E+00
         21   -1    0    0  501  502  0.00000000000E+00  0.00000000000E+00  0.38189360935E+00  0.38189360935E+00  0.00000000000E+00 0. -1.
         21   -1    0    0  502  503 -0.00000000000E+00 -0.00000000000E+00 -0.14475316930E+03  0.14475316930E+03  0.00000000000E+00 0.  1.
          5    1    1    2  501    0  0.52778819834E+01 -0.16626056760E+01 -0.87832414895E+02  0.88131965836E+02  0.47000000000E+01 0.  1.
         -5    1    1    2    0  503 -0.52778819834E+01  0.16626056760E+01 -0.56538860800E+02  0.57003097077E+02  0.47000000000E+01 0. -1.
<mgrwt>
<rscale>  2 0.72601857E+01</rscale>
<asrwt>0</asrwt>
<pdfrwt beam="1">  1       21 0.58752876E-04 0.72601857E+01</pdfrwt>
<pdfrwt beam="2">  1       21 0.22269713E-01 0.72601857E+01</pdfrwt>
<totfact> 0.17172801E+09</totfact>
</mgrwt>
</event>
<event>
 4    1  0.3999109E+006  0.7362496E+01  0.7546771E-02  0.2265930E+00
         21   -1    0    0  503  502  0.00000000000E+00  0.00000000000E+00  0.10234637687E+03  0.10234637687E+03  0.00000000000E+00 0. -1.
         21   -1    0    0  501  503 -0.00000000000E+00 -0.00000000000E+00 -0.11799930995E+01  0.11799930995E+01  0.00000000000E+00 0. -1.
          5    1    1    2  501    0  0.45940787679E+01  0.33182506747E+01  0.12154364817E+02  0.14210381113E+02  0.47000000000E+01 0. -1.
         -5    1    1    2    0  502 -0.45940787679E+01 -0.33182506747E+01  0.89012018950E+02  0.89315988853E+02  0.47000000000E+01 0. -1.
<mgrwt>
<rscale>  2 0.73624960E+01</rscale>
<asrwt>0</asrwt>
<pdfrwt beam="1">  1       21 0.15745589E-01 0.73624960E+01</pdfrwt>
<pdfrwt beam="2">  1       21 0.18153748E-03 0.73624960E+01</pdfrwt>
<totfact> 0.65750022E+08</totfact>
</mgrwt>
</event>
<event>
 4    1  0.3999109E+006  0.9423200E+01  0.7546771E-02  0.2109381E+00
         21   -1    0    0  501  502  0.00000000000E+00  0.00000000000E+00  0.20580017974E+02  0.20580017974E+02  0.00000000000E+00 0.  1.
         21   -1    0    0  502  503 -0.00000000000E+00 -0.00000000000E+00 -0.51721094200E+01  0.51721094200E+01  0.00000000000E+00 0.  1.
          5    1    1    2  501    0  0.53098692663E+01  0.62058026440E+01  0.12946499995E+02  0.16012762416E+02  0.47000000000E+01 0.  1.
         -5    1    1    2    0  503 -0.53098692663E+01 -0.62058026440E+01  0.24614085596E+01  0.97393649782E+01  0.47000000000E+01 0.  1.
<mgrwt>
<rscale>  2 0.94232000E+01</rscale>
<asrwt>0</asrwt>
<pdfrwt beam="1">  1       21 0.31661566E-02 0.94232000E+01</pdfrwt>
<pdfrwt beam="2">  1       21 0.79570915E-03 0.94232000E+01</pdfrwt>
<totfact> 0.11471928E+09</totfact>
</mgrwt>
</event>
<event>
 4    1  0.3999109E+006  0.6046331E+01  0.7546771E-02  0.2409432E+00
         21   -1    0    0  503  502  0.00000000000E+00  0.00000000000E+00  0.46743034543E+01  0.46743034543E+01  0.00000000000E+00 0.  1.
         21   -1    0    0  501  503 -0.00000000000E+00 -0.00000000000E+00 -0.30321128254E+02  0.30321128254E+02  0.00000000000E+00 0.  1.
          5    1    1    2  501    0  0.34232367834E+01 -0.16581825786E+01 -0.27896435615E+02  0.28544162968E+02  0.47000000000E+01 0.  1.
         -5    1    1    2    0  502 -0.34232367834E+01  0.16581825786E+01  0.22496108151E+01  0.64512687402E+01  0.47000000000E+01 0.  1.
<mgrwt>
<rscale>  2 0.60463311E+01</rscale>
<asrwt>0</asrwt>
<pdfrwt beam="1">  1       21 0.71912358E-03 0.60463311E+01</pdfrwt>
<pdfrwt beam="2">  1       21 0.46647892E-02 0.60463311E+01</pdfrwt>
<totfact> 0.54850801E+08</totfact>
</mgrwt>
</event>
<event>
 4    1  0.3999109E+006  0.5495167E+01  0.7546771E-02  0.2486158E+00
         21   -1    0    0  503  502  0.00000000000E+00  0.00000000000E+00  0.34293399766E+02  0.34293399766E+02  0.00000000000E+00 0. -1.
         21   -1    0    0  501  503 -0.00000000000E+00 -0.00000000000E+00 -0.55132351857E+01  0.55132351857E+01  0.00000000000E+00 0. -1.
          5    1    1    2  501    0 -0.13799327776E+01  0.24905108962E+01 -0.38547077799E+01  0.67123491464E+01  0.47000000000E+01 0. -1.
         -5    1    1    2    0  502  0.13799327776E+01 -0.24905108962E+01  0.32634872360E+02  0.33094285805E+02  0.47000000000E+01 0. -1.
<mgrwt>
<rscale>  2 0.54951669E+01</rscale>
<asrwt>0</asrwt>
<pdfrwt beam="1">  1       21 0.52759075E-02 0.54951669E+01</pdfrwt>
<pdfrwt beam="2">  1       21 0.84819005E-03 0.54951669E+01</pdfrwt>
<totfact> 0.33712514E+08</totfact>
</mgrwt>
</event>
<event>
 4    1  0.3999109E+006  0.5908151E+01  0.7546771E-02  0.2427533E+00
         21   -1    0    0  501  502  0.00000000000E+00  0.00000000000E+00  0.25554418470E+02  0.25554418470E+02  0.00000000000E+00 0.  1.
         21   -1    0    0  502  503 -0.00000000000E+00 -0.00000000000E+00 -0.16303641852E+01  0.16303641852E+01  0.00000000000E+00 0. -1.
          5    1    1    2  501    0 -0.31081666585E+01 -0.17763867222E+01  0.17435837735E+02  0.18409635719E+02  0.47000000000E+01 0.  1.
         -5    1    1    2    0  503  0.31081666585E+01  0.17763867222E+01  0.64882165492E+01  0.87751469363E+01  0.47000000000E+01 0. -1.
<mgrwt>
<rscale>  2 0.59081511E+01</rscale>
<asrwt>0</asrwt>
<pdfrwt beam="1">  1       21 0.39314487E-02 0.59081511E+01</pdfrwt>
<pdfrwt beam="2">  1       21 0.25082528E-03 0.59081511E+01</pdfrwt>
<totfact> 0.29736008E+09</totfact>
</mgrwt>
</event>
<event>
 4    1  0.3999109E+006  0.6728638E+01  0.7546771E-02  0.2329252E+00
         21   -1    0    0  501  502  0.00000000000E+00  0.00000000000E+00  0.37183823305E+03  0.37183823305E+03  0.00000000000E+00 0. -1.
         21   -1    0    0  502  503 -0.00000000000E+00 -0.00000000000E+00 -0.35257382759E+00  0.35257382759E+00  0.00000000000E+00 0.  1.
          5    1    1    2  501    0  0.32491443630E+01 -0.35535386434E+01  0.33631428704E+03  0.33638159022E+03  0.47000000000E+01 0. -1.
         -5    1    1    2    0  503 -0.32491443630E+01  0.35535386434E+01  0.35171372182E+02  0.35809216651E+02  0.47000000000E+01 0.  1.
<mgrwt>
<rscale>  2 0.67286385E+01</rscale>
<asrwt>0</asrwt>
<pdfrwt beam="1">  1       21 0.57205569E-01 0.67286385E+01</pdfrwt>
<pdfrwt beam="2">  1       21 0.54242425E-04 0.67286385E+01</pdfrwt>
<totfact> 0.35092923E+08</totfact>
</mgrwt>
</event>
<event>
 4    1  0.3999109E+006  0.1191446E+02  0.7546771E-02  0.1980030E+00
         21   -1    0    0  501  502  0.00000000000E+00  0.00000000000E+00  0.25352818717E+00  0.25352818717E+00  0.00000000000E+00 0. -1.
         21   -1    0    0  502  503 -0.00000000000E+00 -0.00000000000E+00 -0.12745857416E+04  0.12745857416E+04  0.00000000000E+00 0.  1.
          5    1    1    2  501    0 -0.15195889026E+01  0.10842283353E+02 -0.15986341665E+03  0.16030678788E+03  0.47000000000E+01 0. -1.
         -5    1    1    2    0  503  0.15195889026E+01 -0.10842283353E+02 -0.11144687967E+04  0.11145324819E+04  0.47000000000E+01 0.  1.
<mgrwt>
<rscale>  2 0.11914456E+02</rscale>
<asrwt>0</asrwt>
<pdfrwt beam="1">  1       21 0.39003451E-04 0.11914456E+02</pdfrwt>
<pdfrwt beam="2">  1       21 0.19609457E+00 0.11914456E+02</pdfrwt>
<totfact> 0.53277345E+07</totfact>
</mgrwt>
</event>
<event>
 4    1  0.3999109E+006  0.4758974E+01  0.7546771E-02  0.2611774E+00
         21   -1    0    0  501  502  0.00000000000E+00  0.00000000000E+00  0.45493117910E+00  0.45493117910E+00  0.00000000000E+00 0.  1.
         21   -1    0    0  502  503 -0.00000000000E+00 -0.00000000000E+00 -0.96921748128E+02  0.96921748128E+02  0.00000000000E+00 0.  1.
          5    1    1    2  501    0 -0.60857133750E+00 -0.43298415921E+00 -0.14278433586E+02  0.15050631217E+02  0.47000000000E+01 0.  1.
         -5    1    1    2    0  503  0.60857133750E+00  0.43298415921E+00 -0.82188383363E+02  0.82326048091E+02  0.47000000000E+01 0.  1.
<mgrwt>
<rscale>  2 0.47589741E+01</rscale>
<asrwt>0</asrwt>
<pdfrwt beam="1">  1       21 0.69989424E-04 0.47589741E+01</pdfrwt>
<pdfrwt beam="2">  1       21 0.14911036E-01 0.47589741E+01</pdfrwt>
<totfact> 0.18187364E+09</totfact>
</mgrwt>
</event>
<event>
 4    1  0.3999109E+006  0.5924722E+01  0.7546771E-02  0.2425325E+00
         21   -1    0    0  501  502  0.00000000000E+00  0.00000000000E+00  0.26137444991E+03  0.26137444991E+03  0.00000000000E+00 0. -1.
         21   -1    0    0  502  503 -0.00000000000E+00 -0.00000000000E+00 -0.17620379546E+00  0.17620379546E+00  0.00000000000E+00 0. -1.
          5    1    1    2  501    0  0.25068263609E+01  0.25938678405E+01  0.19437405693E+03  0.19446433178E+03  0.47000000000E+01 0. -1.
         -5    1    1    2    0  503 -0.25068263609E+01 -0.25938678405E+01  0.66824189189E+02  0.67086321926E+02  0.47000000000E+01 0. -1.
<mgrwt>
<rscale>  2 0.59247218E+01</rscale>
<asrwt>0</asrwt>
<pdfrwt beam="1">  1       21 0.40211143E-01 0.59247218E+01</pdfrwt>
<pdfrwt beam="2">  1       21 0.27108485E-04 0.59247218E+01</pdfrwt>
<totfact> 0.15328699E+09</totfact>
</mgrwt>
</event>
<event>
 4    1  0.3999109E+006  0.5525647E+01  0.7546771E-02  0.2481579E+00
         21   -1    0    0  503  502  0.00000000000E+00  0.00000000000E+00  0.33848993313E+01  0.33848993313E+01  0.00000000000E+00 0.  1.
         21   -1    0    0  501  503 -0.00000000000E+00 -0.00000000000E+00 -0.44464594049E+02  0.44464594049E+02  0.00000000000E+00 0. -1.
          5    1    1    2  501    0  0.19318730452E+01 -0.21704019137E+01 -0.41900445086E+02  0.42263223686E+02  0.47000000000E+01 0. -1.
         -5    1    1    2    0  502 -0.19318730452E+01  0.21704019137E+01  0.82075036833E+00  0.55862696942E+01  0.47000000000E+01 0.  1.
<mgrwt>
<rscale>  2 0.55256473E+01</rscale>
<asrwt>0</asrwt>
<pdfrwt beam="1">  1       21 0.52075376E-03 0.55256473E+01</pdfrwt>
<pdfrwt beam="2">  1       21 0.68407065E-02 0.55256473E+01</pdfrwt>
<totfact> 0.45370170E+08</totfact>
</mgrwt>
</event>
<event>
 4    1  0.3999109E+006  0.8843809E+01  0.7546771E-02  0.2147451E+00
         21   -1    0    0  503  502  0.00000000000E+00  0.00000000000E+00  0.65354082591E+01  0.65354082591E+01  0.00000000000E+00 0.  1.
         21   -1    0    0  501  503 -0.00000000000E+00 -0.00000000000E+00 -0.12027264592E+02  0.12027264592E+02  0.00000000000E+00 0. -1.
          5    1    1    2  501    0  0.72133502164E+01  0.20225089922E+01 -0.33997961024E+01  0.94747864095E+01  0.47000000000E+01 0. -1.
         -5    1    1    2    0  502 -0.72133502164E+01 -0.20225089922E+01 -0.20920602307E+01  0.90878864417E+01  0.47000000000E+01 0.  1.
<mgrwt>
<rscale>  2 0.88438094E+01</rscale>
<asrwt>0</asrwt>
<pdfrwt beam="1">  1       21 0.10054474E-02 0.88438094E+01</pdfrwt>
<pdfrwt beam="2">  1       21 0.18503484E-02 0.88438094E+01</pdfrwt>
<totfact> 0.17424073E+09</totfact>
</mgrwt>
</event>
<event>
 4    1  0.3999109E+006  0.7781324E+01  0.7546771E-02  0.2228761E+00
         21   -1    0    0  503  502  0.00000000000E+00  0.00000000000E+00  0.11504923689E+03  0.11504923689E+03  0.00000000000E+00 0.  1.
         21   -1    0    0  501  503 -0.00000000000E+00 -0.00000000000E+00 -0.72460883708E+00  0.72460883708E+00  0.00000000000E+00 0.  1.
          5    1    1    2  501    0  0.35668685899E+00 -0.61912666549E+01  0.26878326591E+02  0.27982020096E+02  0.47000000000E+01 0.  1.
         -5    1    1    2    0  502 -0.35668685899E+00  0.61912666549E+01  0.87446301457E+02  0.87791825627E+02  0.47000000000E+01 0.  1.
<mgrwt>
<rscale>  2 0.77813243E+01</rscale>
<asrwt>0</asrwt>
<pdfrwt beam="1">  1       21 0.17699868E-01 0.77813243E+01</pdfrwt>
<pdfrwt beam="2">  1       21 0.11147837E-03 0.77813243E+01</pdfrwt>
<totfact> 0.11004216E+09</totfact>
</mgrwt>
</event>
<event>
 4    1  0.3999109E+006  0.5522090E+01  0.7546771E-02  0.2482111E+00
         21   -1    0    0  503  502  0.00000000000E+00  0.00000000000E+00  0.18814037971E+02  0.18814037971E+02  0.00000000000E+00 0.  1.
         21   -1    0    0  501  503 -0.00000000000E+00 -0.00000000000E+00 -0.18003327287E+01  0.18003327287E+01  0.00000000000E+00 0. -1.
          5    1    1    2  501    0 -0.28469096069E+01  0.54642673902E+00  0.52518162656E+01  0.76206988248E+01  0.47000000000E+01 0. -1.
         -5    1    1    2    0  502  0.28469096069E+01 -0.54642673902E+00  0.11761888976E+02  0.12993671874E+02  0.47000000000E+01 0.  1.
<mgrwt>
<rscale>  2 0.55220899E+01</rscale>
<asrwt>0</asrwt>
<pdfrwt beam="1">  1       21 0.28944672E-02 0.55220899E+01</pdfrwt>
<pdfrwt beam="2">  1       21 0.27697428E-03 0.55220899E+01</pdfrwt>
<totfact> 0.38126996E+09</totfact>
</mgrwt>
</event>
<event>
 4    1  0.3999109E+006  0.8238070E+01  0.7546771E-02  0.2191747E+00
         21   -1    0    0  501  502  0.00000000000E+00  0.00000000000E+00  0.70965206882E+03  0.70965206882E+03  0.00000000000E+00 0.  1.
         21   -1    0    0  502  503 -0.00000000000E+00 -0.00000000000E+00 -0.31503780579E+00  0.31503780579E+00  0.00000000000E+00 0. -1.
          5    1    1    2  501    0  0.26951090736E+01 -0.62058183926E+01  0.65091313237E+03  0.65096526151E+03  0.47000000000E+01 0.  1.
         -5    1    1    2    0  503 -0.26951090736E+01  0.62058183926E+01  0.58423898643E+02  0.59001845119E+02  0.47000000000E+01 0. -1.
<mgrwt>
<rscale>  2 0.82380698E+01</rscale>
<asrwt>0</asrwt>
<pdfrwt beam="1">  1       21 0.10917596E+00 0.82380698E+01</pdfrwt>
<pdfrwt beam="2">  1       21 0.48467923E-04 0.82380698E+01</pdfrwt>
<totfact> 0.12753796E+08</totfact>
</mgrwt>
</event>
<event>
 4    1  0.3999109E+006  0.6396745E+01  0.7546771E-02  0.2366480E+00
         21   -1    0    0  501  502  0.00000000000E+00  0.00000000000E+00  0.65593730255E+02  0.65593730255E+02  0.00000000000E+00 0.  1.
         21   -1    0    0  502  503 -0.00000000000E+00 -0.00000000000E+00 -0.14066393425E+01  0.14066393425E+01  0.00000000000E+00 0.  1.
          5    1    1    2  501    0  0.21706663978E+01  0.37571996592E+01  0.57084798390E+02  0.57442079951E+02  0.47000000000E+01 0.  1.
         -5    1    1    2    0  503 -0.21706663978E+01 -0.37571996592E+01  0.71022925230E+01  0.95582896468E+01  0.47000000000E+01 0.  1.
<mgrwt>
<rscale>  2 0.63967446E+01</rscale>
<asrwt>0</asrwt>
<pdfrwt beam="1">  1       21 0.10091341E-01 0.63967446E+01</pdfrwt>
<pdfrwt beam="2">  1       21 0.21640610E-03 0.63967446E+01</pdfrwt>
<totfact> 0.94306924E+08</totfact>
</mgrwt>
</event>
<event>
 4    1  0.3999109E+006  0.1364117E+02  0.7546771E-02  0.1912606E+00
         21   -1    0    0  503  502  0.00000000000E+00  0.00000000000E+00  0.36968517686E+03  0.36968517686E+03  0.00000000000E+00 0. -1.
         21   -1    0    0  501  503 -0.00000000000E+00 -0.00000000000E+00 -0.78106436395E+00  0.78106436395E+00  0.00000000000E+00 0.  1.
          5    1    1    2  501    0  0.12709167280E+02 -0.15712090817E+01  0.74000169238E+02  0.75246971223E+02  0.47000000000E+01 0.  1.
         -5    1    1    2    0  502 -0.12709167280E+02  0.15712090817E+01  0.29490394326E+03  0.29521927000E+03  0.47000000000E+01 0. -1.
<mgrwt>
<rscale>  2 0.13641174E+02</rscale>
<asrwt>0</asrwt>
<pdfrwt beam="1">  1       21 0.56874503E-01 0.13641174E+02</pdfrwt>
<pdfrwt beam="2">  1       21 0.12016404E-03 0.13641174E+02</pdfrwt>
<totfact> 0.16735492E+08</totfact>
</mgrwt>
</event>
<event>
 4    1  0.3999109E+006  0.5595517E+01  0.7546771E-02  0.2471242E+00
         21   -1    0    0  501  502  0.00000000000E+00  0.00000000000E+00  0.99154520031E+02  0.99154520031E+02  0.00000000000E+00 0. -1.
         21   -1    0    0  502  503 -0.00000000000E+00 -0.00000000000E+00 -0.11901294613E+01  0.11901294613E+01  0.00000000000E+00 0.  1.
          5    1    1    2  501    0 -0.29709930065E+01 -0.62690306757E+00  0.91986573149E+02  0.92156602838E+02  0.47000000000E+01 0. -1.
         -5    1    1    2    0  503  0.29709930065E+01  0.62690306757E+00  0.59778174207E+01  0.81880466545E+01  0.47000000000E+01 0.  1.
<mgrwt>
<rscale>  2 0.55955167E+01</rscale>
<asrwt>0</asrwt>
<pdfrwt beam="1">  1       21 0.15254535E-01 0.55955167E+01</pdfrwt>
<pdfrwt beam="2">  1       21 0.18309692E-03 0.55955167E+01</pdfrwt>
<totfact> 0.56141516E+08</totfact>
</mgrwt>
</event>
<event>
 4    1  0.3999109E+006  0.5531990E+01  0.7546771E-02  0.2480631E+00
         21   -1    0    0  503  502  0.00000000000E+00  0.00000000000E+00  0.50391671965E+00  0.50391671965E+00  0.00000000000E+00 0.  1.
         21   -1    0    0  501  503 -0.00000000000E+00 -0.00000000000E+00 -0.71920337965E+02  0.71920337965E+02  0.00000000000E+00 0. -1.
          5    1    1    2  501    0  0.69369903996E+00 -0.28340238922E+01 -0.49992148594E+02  0.50297294468E+02  0.47000000000E+01 0. -1.
         -5    1    1    2    0  502 -0.69369903996E+00  0.28340238922E+01 -0.21424272651E+02  0.22126960216E+02  0.47000000000E+01 0.  1.
<mgrwt>
<rscale>  2 0.55319897E+01</rscale>
<asrwt>0</asrwt>
<pdfrwt beam="1">  1       21 0.77525676E-04 0.55319897E+01</pdfrwt>
<pdfrwt beam="2">  1       21 0.11064664E-01 0.55319897E+01</pdfrwt>
<totfact> 0.29002989E+09</totfact>
</mgrwt>
</event>
<event>
 4    1  0.3999109E+006  0.5221438E+01  0.7546771E-02  0.2529309E+00
         21   -1    0    0  501  502  0.00000000000E+00  0.00000000000E+00  0.98471001845E+03  0.98471001845E+03  0.00000000000E+00 0. -1.
         21   -1    0    0  502  503 -0.00000000000E+00 -0.00000000000E+00 -0.83288816680E-01  0.83288816680E-01  0.00000000000E+00 0. -1.
          5    1    1    2  501    0 -0.22368516676E+01 -0.41219664637E+00  0.89462931249E+03  0.89464454963E+03  0.47000000000E+01 0. -1.
         -5    1    1    2    0  503  0.22368516676E+01  0.41219664637E+00  0.89997417138E+02  0.90148757634E+02  0.47000000000E+01 0. -1.
<mgrwt>
<rscale>  2 0.52214377E+01</rscale>
<asrwt>0</asrwt>
<pdfrwt beam="1">  1       21 0.15148453E+00 0.52214377E+01</pdfrwt>
<pdfrwt beam="2">  1       21 0.12814453E-04 0.52214377E+01</pdfrwt>
<totfact> 0.29205511E+08</totfact>
</mgrwt>
</event>
<event>
 4    1  0.3999109E+006  0.6867541E+01  0.7546771E-02  0.2314558E+00
         21   -1    0    0  501  502  0.00000000000E+00  0.00000000000E+00  0.25093583171E+01  0.25093583171E+01  0.00000000000E+00 0.  1.
         21   -1    0    0  502  503 -0.00000000000E+00 -0.00000000000E+00 -0.20653244709E+02  0.20653244709E+02  0.00000000000E+00 0.  1.
          5    1    1    2  501    0 -0.49765730161E+01  0.55393390934E+00 -0.55979645348E+01  0.88600411225E+01  0.47000000000E+01 0.  1.
         -5    1    1    2    0  503  0.49765730161E+01 -0.55393390934E+00 -0.12545921858E+02  0.14302561904E+02  0.47000000000E+01 0.  1.
<mgrwt>
<rscale>  2 0.68675412E+01</rscale>
<asrwt>0</asrwt>
<pdfrwt beam="1">  1       21 0.38605512E-03 0.68675412E+01</pdfrwt>
<pdfrwt beam="2">  1       21 0.31774223E-02 0.68675412E+01</pdfrwt>
<totfact> 0.25447295E+09</totfact>
</mgrwt>
</event>
<event>
 4    1  0.3999109E+006  0.5224286E+01  0.7546771E-02  0.2528840E+00
         21   -1    0    0  501  502  0.00000000000E+00  0.00000000000E+00  0.38809904237E+00  0.38809904237E+00  0.00000000000E+00 0. -1.
         21   -1    0    0  502  503 -0.00000000000E+00 -0.00000000000E+00 -0.12055095095E+03  0.12055095095E+03  0.00000000000E+00 0. -1.
          5    1    1    2  501    0 -0.90660247573E+00  0.20931405419E+01 -0.21050019181E+02  0.21688625427E+02  0.47000000000E+01 0. -1.
         -5    1    1    2    0  503  0.90660247573E+00 -0.20931405419E+01 -0.99112832727E+02  0.99250424566E+02  0.47000000000E+01 0. -1.
<mgrwt>
<rscale>  2 0.52242861E+01</rscale>
<asrwt>0</asrwt>
<pdfrwt beam="1">  1       21 0.59707513E-04 0.52242861E+01</pdfrwt>
<pdfrwt beam="2">  1       21 0.18546310E-01 0.52242861E+01</pdfrwt>
<totfact> 0.17420024E+09</totfact>
</mgrwt>
</event>
<event>
 4    1  0.3999109E+006  0.6156338E+01  0.7546771E-02  0.2395510E+00
         21   -1    0    0  501  502  0.00000000000E+00  0.00000000000E+00  0.65689723109E+01  0.65689723109E+01  0.00000000000E+00 0. -1.
         21   -1    0    0  502  503 -0.00000000000E+00 -0.00000000000E+00 -0.65582658218E+01  0.65582658218E+01  0.00000000000E+00 0. -1.
          5    1    1    2  501    0  0.38469737176E+01  0.10056322847E+01  0.22814391308E+01  0.65654754271E+01  0.47000000000E+01 0. -1.
         -5    1    1    2    0  503 -0.38469737176E+01 -0.10056322847E+01 -0.22707326417E+01  0.65617627057E+01  0.47000000000E+01 0. -1.
<mgrwt>
<rscale>  2 0.61563384E+01</rscale>
<asrwt>0</asrwt>
<pdfrwt beam="1">  1       21 0.10106111E-02 0.61563384E+01</pdfrwt>
<pdfrwt beam="2">  1       21 0.10089640E-02 0.61563384E+01</pdfrwt>
<totfact> 0.31414439E+09</totfact>
</mgrwt>
</event>
<event>
 4    1  0.3999109E+006  0.5554240E+01  0.7546771E-02  0.2477322E+00
         21   -1    0    0  501  502  0.00000000000E+00  0.00000000000E+00  0.17660126729E+02  0.17660126729E+02  0.00000000000E+00 0. -1.
         21   -1    0    0  502  503 -0.00000000000E+00 -0.00000000000E+00 -0.18890726016E+01  0.18890726016E+01  0.00000000000E+00 0. -1.
          5    1    1    2  501    0 -0.28268047015E+01 -0.87678980888E+00  0.10567532077E+02  0.11938271206E+02  0.47000000000E+01 0. -1.
         -5    1    1    2    0  503  0.28268047015E+01  0.87678980888E+00  0.52035220506E+01  0.76109281248E+01  0.47000000000E+01 0. -1.
<mgrwt>
<rscale>  2 0.55542403E+01</rscale>
<asrwt>0</asrwt>
<pdfrwt beam="1">  1       21 0.27169425E-02 0.55542403E+01</pdfrwt>
<pdfrwt beam="2">  1       21 0.29062657E-03 0.55542403E+01</pdfrwt>
<totfact> 0.39330724E+09</totfact>
</mgrwt>
</event>
<event>
 4    1  0.3999109E+006  0.7702754E+01  0.7546771E-02  0.2235483E+00
         21   -1    0    0  503  502  0.00000000000E+00  0.00000000000E+00  0.20617483355E+03  0.20617483355E+03  0.00000000000E+00 0.  1.
         21   -1    0    0  501  503 -0.00000000000E+00 -0.00000000000E+00 -0.61210414401E+00  0.61210414401E+00  0.00000000000E+00 0. -1.
          5    1    1    2  501    0 -0.53918224763E+01 -0.28584376524E+01  0.27520021656E+02  0.28577683730E+02  0.47000000000E+01 0. -1.
         -5    1    1    2    0  502  0.53918224763E+01  0.28584376524E+01  0.17804270775E+03  0.17820925396E+03  0.47000000000E+01 0.  1.
<mgrwt>
<rscale>  2 0.77027538E+01</rscale>
<asrwt>0</asrwt>
<pdfrwt beam="1">  1       21 0.31719150E-01 0.77027538E+01</pdfrwt>
<pdfrwt beam="2">  1       21 0.94170033E-04 0.77027538E+01</pdfrwt>
<totfact> 0.51828472E+08</totfact>
</mgrwt>
</event>
<event>
 4    1  0.3999109E+006  0.9063080E+01  0.7546771E-02  0.2132590E+00
         21   -1    0    0  501  502  0.00000000000E+00  0.00000000000E+00  0.38719338143E-01  0.38719338143E-01  0.00000000000E+00 0.  1.
         21   -1    0    0  502  503 -0.00000000000E+00 -0.00000000000E+00 -0.22065732751E+04  0.22065732751E+04  0.00000000000E+00 0. -1.
          5    1    1    2  501    0  0.52101931470E+01 -0.57361403369E+01 -0.13200248814E+04  0.13200559939E+04  0.47000000000E+01 0. -1.
         -5    1    1    2    0  503 -0.52101931470E+01  0.57361403369E+01 -0.88650967435E+03  0.88655600056E+03  0.47000000000E+01 0.  1.
<mgrwt>
<rscale>  2 0.90630800E+01</rscale>
<asrwt>0</asrwt>
<pdfrwt beam="1">  1       21 0.59578262E-05 0.90630800E+01</pdfrwt>
<pdfrwt beam="2">  1       21 0.33941555E+00 0.90630800E+01</pdfrwt>
<totfact> 0.14373726E+08</totfact>
</mgrwt>
</event>
<event>
 4    1  0.3999109E+006  0.4903927E+01  0.7546771E-02  0.2584484E+00
         21   -1    0    0  501  502  0.00000000000E+00  0.00000000000E+00  0.10079758342E+02  0.10079758342E+02  0.00000000000E+00 0. -1.
         21   -1    0    0  502  503 -0.00000000000E+00 -0.00000000000E+00 -0.24137255239E+01  0.24137255239E+01  0.00000000000E+00 0. -1.
          5    1    1    2  501    0  0.13411033921E+01  0.39992627540E+00  0.45046722121E+01  0.66588716066E+01  0.47000000000E+01 0. -1.
         -5    1    1    2    0  503 -0.13411033921E+01 -0.39992627540E+00  0.31613606058E+01  0.58346122591E+01  0.47000000000E+01 0. -1.
<mgrwt>
<rscale>  2 0.49039269E+01</rscale>
<asrwt>0</asrwt>
<pdfrwt beam="1">  1       21 0.15507320E-02 0.49039269E+01</pdfrwt>
<pdfrwt beam="2">  1       21 0.37134239E-03 0.49039269E+01</pdfrwt>
<totfact> 0.55077677E+09</totfact>
</mgrwt>
</event>
<event>
 4    1  0.3999109E+006  0.7331506E+01  0.7546771E-02  0.2268816E+00
         21   -1    0    0  501  502  0.00000000000E+00  0.00000000000E+00  0.54560497841E+01  0.54560497841E+01  0.00000000000E+00 0. -1.
         21   -1    0    0  502  503 -0.00000000000E+00 -0.00000000000E+00 -0.98842761249E+01  0.98842761249E+01  0.00000000000E+00 0. -1.
          5    1    1    2  501    0 -0.49844707862E+01  0.26107525038E+01 -0.26549271786E+01  0.77974108509E+01  0.47000000000E+01 0. -1.
         -5    1    1    2    0  503  0.49844707862E+01 -0.26107525038E+01 -0.17732991623E+01  0.75429150581E+01  0.47000000000E+01 0. -1.
<mgrwt>
<rscale>  2 0.73315058E+01</rscale>
<asrwt>0</asrwt>
<pdfrwt beam="1">  1       21 0.83939228E-03 0.73315058E+01</pdfrwt>
<pdfrwt beam="2">  1       21 0.15206579E-02 0.73315058E+01</pdfrwt>
<totfact> 0.26258185E+09</totfact>
</mgrwt>
</event>
<event>
 4    1  0.3999109E+006  0.5223162E+01  0.7546771E-02  0.2529025E+00
         21   -1    0    0  503  502  0.00000000000E+00  0.00000000000E+00  0.16600481681E+02  0.16600481681E+02  0.00000000000E+00 0.  1.
         21   -1    0    0  501  503 -0.00000000000E+00 -0.00000000000E+00 -0.40133876478E+01  0.40133876478E+01  0.00000000000E+00 0.  1.
          5    1    1    2  501    0  0.19931490400E+01 -0.11039852193E+01  0.14213925475E+02  0.15143219733E+02  0.47000000000E+01 0.  1.
         -5    1    1    2    0  502 -0.19931490400E+01  0.11039852193E+01 -0.16268314421E+01  0.54706495959E+01  0.47000000000E+01 0.  1.
<mgrwt>
<rscale>  2 0.52231625E+01</rscale>
<asrwt>0</asrwt>
<pdfrwt beam="1">  1       21 0.25539202E-02 0.52231625E+01</pdfrwt>
<pdfrwt beam="2">  1       21 0.61744426E-03 0.52231625E+01</pdfrwt>
<totfact> 0.14389873E+09</totfact>
</mgrwt>
</event>
<event>
 4    1  0.3999109E+006  0.5017178E+01  0.7546771E-02  0.2564115E+00
         21   -1    0    0  503  502  0.00000000000E+00  0.00000000000E+00  0.40120847309E+02  0.40120847309E+02  0.00000000000E+00 0. -1.
         21   -1    0    0  501  503 -0.00000000000E+00 -0.00000000000E+00 -0.92934398836E+00  0.92934398836E+00  0.00000000000E+00 0. -1.
          5    1    1    2  501    0  0.56096834224E+00 -0.16635466409E+01  0.78965670044E+01  0.93556316389E+01  0.47000000000E+01 0. -1.
         -5    1    1    2    0  502 -0.56096834224E+00  0.16635466409E+01  0.31294936317E+02  0.31694559659E+02  0.47000000000E+01 0. -1.
<mgrwt>
<rscale>  2 0.50171778E+01</rscale>
<asrwt>0</asrwt>
<pdfrwt beam="1">  1       21 0.61724367E-02 0.50171778E+01</pdfrwt>
<pdfrwt beam="2">  1       21 0.14297603E-03 0.50171778E+01</pdfrwt>
<totfact> 0.28068557E+09</totfact>
</mgrwt>
</event>
<event>
 4    1  0.3999109E+006  0.4796744E+01  0.7546771E-02  0.2604525E+00
         21   -1    0    0  501  502  0.00000000000E+00  0.00000000000E+00  0.18947442293E+01  0.18947442293E+01  0.00000000000E+00 0.  1.
         21   -1    0    0  502  503 -0.00000000000E+00 -0.00000000000E+00 -0.18982604681E+02  0.18982604681E+02  0.00000000000E+00 0.  1.
          5    1    1    2  501    0  0.64755916268E+00  0.70669989715E+00 -0.22782499111E+01  0.53102900364E+01  0.47000000000E+01 0.  1.
         -5    1    1    2    0  503 -0.64755916268E+00 -0.70669989715E+00 -0.14809610540E+02  0.15567058873E+02  0.47000000000E+01 0.  1.
<mgrwt>
<rscale>  2 0.47967445E+01</rscale>
<asrwt>0</asrwt>
<pdfrwt beam="1">  1       21 0.29149910E-03 0.47967445E+01</pdfrwt>
<pdfrwt beam="2">  1       21 0.29204009E-02 0.47967445E+01</pdfrwt>
<totfact> 0.30466855E+09</totfact>
</mgrwt>
</event>
<event>
 4    1  0.3999109E+006  0.6292517E+01  0.7546771E-02  0.2378839E+00
         21   -1    0    0  503  502  0.00000000000E+00  0.00000000000E+00  0.24463438091E+00  0.24463438091E+00  0.00000000000E+00 0.  1.
         21   -1    0    0  501  503 -0.00000000000E+00 -0.00000000000E+00 -0.20272619133E+03  0.20272619133E+03  0.00000000000E+00 0.  1.
          5    1    1    2  501    0 -0.40128565212E+01  0.11843770358E+01 -0.14680743479E+03  0.14694222904E+03  0.47000000000E+01 0.  1.
         -5    1    1    2    0  502  0.40128565212E+01 -0.11843770358E+01 -0.55674122162E+02  0.56028596671E+02  0.47000000000E+01 0.  1.
<mgrwt>
<rscale>  2 0.62925167E+01</rscale>
<asrwt>0</asrwt>
<pdfrwt beam="1">  1       21 0.37636206E-04 0.62925167E+01</pdfrwt>
<pdfrwt beam="2">  1       21 0.31188523E-01 0.62925167E+01</pdfrwt>
<totfact> 0.16023402E+09</totfact>
</mgrwt>
</event>
<event>
 4    1  0.3999109E+006  0.5465345E+01  0.7546771E-02  0.2490680E+00
         21   -1    0    0  501  502  0.00000000000E+00  0.00000000000E+00  0.53843454869E+02  0.53843454869E+02  0.00000000000E+00 0. -1.
         21   -1    0    0  502  503 -0.00000000000E+00 -0.00000000000E+00 -0.16313533171E+01  0.16313533171E+01  0.00000000000E+00 0. -1.
          5    1    1    2  501    0 -0.25411413179E+01  0.11500414045E+01  0.48639018243E+02  0.48945113035E+02  0.47000000000E+01 0. -1.
         -5    1    1    2    0  503  0.25411413179E+01 -0.11500414045E+01  0.35730833095E+01  0.65296951511E+01  0.47000000000E+01 0. -1.
<mgrwt>
<rscale>  2 0.54653449E+01</rscale>
<asrwt>0</asrwt>
<pdfrwt beam="1">  1       21 0.82836071E-02 0.54653449E+01</pdfrwt>
<pdfrwt beam="2">  1       21 0.25097747E-03 0.54653449E+01</pdfrwt>
<totfact> 0.91830173E+08</totfact>
</mgrwt>
</event>
<event>
 4    1  0.3999109E+006  0.5406283E+01  0.7546771E-02  0.2499761E+00
         21   -1    0    0  503  502  0.00000000000E+00  0.00000000000E+00  0.58384463452E+03  0.58384463452E+03  0.00000000000E+00 0.  1.
         21   -1    0    0  501  503 -0.00000000000E+00 -0.00000000000E+00 -0.71240627714E-01  0.71240627714E-01  0.00000000000E+00 0.  1.
          5    1    1    2  501    0 -0.21233770934E+01 -0.16214694024E+01  0.13269707438E+03  0.13280715885E+03  0.47000000000E+01 0.  1.
         -5    1    1    2    0  502  0.21233770934E+01  0.16214694024E+01  0.45107631952E+03  0.45110871630E+03  0.47000000000E+01 0.  1.
<mgrwt>
<rscale>  2 0.54062828E+01</rscale>
<asrwt>0</asrwt>
<pdfrwt beam="1">  1       21 0.89818420E-01 0.54062828E+01</pdfrwt>
<pdfrwt beam="2">  1       21 0.10960564E-04 0.54062828E+01</pdfrwt>
<totfact> 0.10781593E+09</totfact>
</mgrwt>
</event>
<event>
 4    1  0.3999109E+006  0.4828633E+01  0.7546771E-02  0.2598482E+00
         21   -1    0    0  503  502  0.00000000000E+00  0.00000000000E+00  0.11032600539E+02  0.11032600539E+02  0.00000000000E+00 0. -1.
         21   -1    0    0  501  503 -0.00000000000E+00 -0.00000000000E+00 -0.23478693161E+01  0.23478693161E+01  0.00000000000E+00 0.  1.
          5    1    1    2  501    0 -0.32995296146E-01 -0.11066193259E+01  0.22279126633E+01  0.53178275506E+01  0.47000000000E+01 0.  1.
         -5    1    1    2    0  502  0.32995296146E-01  0.11066193259E+01  0.64568185600E+01  0.80626423050E+01  0.47000000000E+01 0. -1.
<mgrwt>
<rscale>  2 0.48286328E+01</rscale>
<asrwt>0</asrwt>
<pdfrwt beam="1">  1       21 0.16973231E-02 0.48286328E+01</pdfrwt>
<pdfrwt beam="2">  1       21 0.36121067E-03 0.48286328E+01</pdfrwt>
<totfact> 0.49525674E+09</totfact>
</mgrwt>
</event>
<event>
 4    1  0.3999109E+006  0.6365030E+01  0.7546771E-02  0.2370205E+00
         21   -1    0    0  501  502  0.00000000000E+00  0.00000000000E+00  0.21187342625E+03  0.21187342625E+03  0.00000000000E+00 0. -1.
         21   -1    0    0  502  503 -0.00000000000E+00 -0.00000000000E+00 -0.19243013452E+00  0.19243013452E+00  0.00000000000E+00 0. -1.
          5    1    1    2  501    0 -0.10641568901E+01 -0.41582658024E+01  0.97418314482E+02  0.97626029320E+02  0.47000000000E+01 0. -1.
         -5    1    1    2    0  503  0.10641568901E+01  0.41582658024E+01  0.11426268163E+03  0.11443982706E+03  0.47000000000E+01 0. -1.
<mgrwt>
<rscale>  2 0.63650298E+01</rscale>
<asrwt>0</asrwt>
<pdfrwt beam="1">  1       21 0.32595725E-01 0.63650298E+01</pdfrwt>
<pdfrwt beam="2">  1       21 0.29604805E-04 0.63650298E+01</pdfrwt>
<totfact> 0.20673037E+09</totfact>
</mgrwt>
</event>
<event>
 4    1  0.3999109E+006  0.8486959E+01  0.7546771E-02  0.2172935E+00
         21   -1    0    0  503  502  0.00000000000E+00  0.00000000000E+00  0.50437488936E+02  0.50437488936E+02  0.00000000000E+00 0. -1.
         21   -1    0    0  501  503 -0.00000000000E+00 -0.00000000000E+00 -0.14970939241E+01  0.14970939241E+01  0.00000000000E+00 0.  1.
          5    1    1    2  501    0  0.18601502073E+01 -0.68175000502E+01  0.18894625617E+02  0.20713168347E+02  0.47000000000E+01 0. -1.
         -5    1    1    2    0  502 -0.18601502073E+01  0.68175000502E+01  0.30045769394E+02  0.31221414513E+02  0.47000000000E+01 0.  1.
<mgrwt>
<rscale>  2 0.84869586E+01</rscale>
<asrwt>0</asrwt>
<pdfrwt beam="1">  1       21 0.77596124E-02 0.84869586E+01</pdfrwt>
<pdfrwt beam="2">  1       21 0.23032218E-03 0.84869586E+01</pdfrwt>
<totfact> 0.15842201E+09</totfact>
</mgrwt>
</event>
<event>
 4    1  0.3999109E+006  0.4728122E+01  0.7546771E-02  0.2617769E+00
         21   -1    0    0  501  502  0.00000000000E+00  0.00000000000E+00  0.23044291404E+00  0.23044291404E+00  0.00000000000E+00 0. -1.
         21   -1    0    0  502  503 -0.00000000000E+00 -0.00000000000E+00 -0.97039960368E+02  0.97039960368E+02  0.00000000000E+00 0. -1.
          5    1    1    2  501    0 -0.47322266578E+00  0.20296850095E+00 -0.49267412109E+02  0.49493767606E+02  0.47000000000E+01 0.  1.
         -5    1    1    2    0  503  0.47322266578E+00 -0.20296850095E+00 -0.47542105345E+02  0.47776635676E+02  0.47000000000E+01 0.  1.
<mgrwt>
<rscale>  2 0.47281218E+01</rscale>
<asrwt>0</asrwt>
<pdfrwt beam="1">  1       21 0.35452768E-04 0.47281218E+01</pdfrwt>
<pdfrwt beam="2">  1       21 0.14929219E-01 0.47281218E+01</pdfrwt>
<totfact> 0.44289370E+09</totfact>
</mgrwt>
</event>
<event>
 4    1  0.3999109E+006  0.7721596E+01  0.7546771E-02  0.2233861E+00
         21   -1    0    0  503  502  0.00000000000E+00  0.00000000000E+00  0.40760437081E+03  0.40760437081E+03  0.00000000000E+00 0. -1.
         21   -1    0    0  501  503 -0.00000000000E+00 -0.00000000000E+00 -0.14807022604E+00  0.14807022604E+00  0.00000000000E+00 0.  1.
          5    1    1    2  501    0 -0.52631841066E+01  0.31355928836E+01  0.18129044667E+03  0.18145481284E+03  0.47000000000E+01 0.  1.
         -5    1    1    2    0  502  0.52631841066E+01 -0.31355928836E+01  0.22616585391E+03  0.22629762819E+03  0.47000000000E+01 0. -1.
<mgrwt>
<rscale>  2 0.77215963E+01</rscale>
<asrwt>0</asrwt>
<pdfrwt beam="1">  1       21 0.62707467E-01 0.77215963E+01</pdfrwt>
<pdfrwt beam="2">  1       21 0.22780361E-04 0.77215963E+01</pdfrwt>
<totfact> 0.10333761E+09</totfact>
</mgrwt>
</event>
<event>
 4    1  0.3999109E+006  0.5687336E+01  0.7546771E-02  0.2457985E+00
         21   -1    0    0  503  502  0.00000000000E+00  0.00000000000E+00  0.43100320096E+03  0.43100320096E+03  0.00000000000E+00 0. -1.
         21   -1    0    0  501  503 -0.00000000000E+00 -0.00000000000E+00 -0.75638883646E-01  0.75638883646E-01  0.00000000000E+00 0. -1.
          5    1    1    2  501    0 -0.29368350732E+01  0.12770255672E+01  0.19640833621E+03  0.19649066219E+03  0.47000000000E+01 0. -1.
         -5    1    1    2    0  502  0.29368350732E+01 -0.12770255672E+01  0.23451922586E+03  0.23458817765E+03  0.47000000000E+01 0. -1.
<mgrwt>
<rscale>  2 0.56873363E+01</rscale>
<asrwt>0</asrwt>
<pdfrwt beam="1">  1       21 0.66306218E-01 0.56873363E+01</pdfrwt>
<pdfrwt beam="2">  1       21 0.11637096E-04 0.56873363E+01</pdfrwt>
<totfact> 0.18543554E+09</totfact>
</mgrwt>
</event>
<event>
 4    1  0.3999109E+006  0.7949714E+01  0.7546771E-02  0.2214716E+00
         21   -1    0    0  503  502  0.00000000000E+00  0.00000000000E+00  0.34279237746E+02  0.34279237746E+02  0.00000000000E+00 0. -1.
         21   -1    0    0  501  503 -0.00000000000E+00 -0.00000000000E+00 -0.21509430259E+01  0.21509430259E+01  0.00000000000E+00 0.  1.
          5    1    1    2  501    0 -0.43390478809E+01 -0.47202343175E+01  0.22949293867E+02  0.24287199047E+02  0.47000000000E+01 0. -1.
         -5    1    1    2    0  502  0.43390478809E+01  0.47202343175E+01  0.91790008527E+01  0.12142981725E+02  0.47000000000E+01 0.  1.
<mgrwt>
<rscale>  2 0.79497137E+01</rscale>
<asrwt>0</asrwt>
<pdfrwt beam="1">  1       21 0.52737285E-02 0.79497137E+01</pdfrwt>
<pdfrwt beam="2">  1       21 0.33091434E-03 0.79497137E+01</pdfrwt>
<totfact> 0.16527362E+09</totfact>
</mgrwt>
</event>
<event>
 4    1  0.3999109E+006  0.5858388E+01  0.7546771E-02  0.2434227E+00
         21   -1    0    0  503  502  0.00000000000E+00  0.00000000000E+00  0.32277744203E+01  0.32277744203E+01  0.00000000000E+00 0.  1.
         21   -1    0    0  501  503 -0.00000000000E+00 -0.00000000000E+00 -0.16486899481E+02  0.16486899481E+02  0.00000000000E+00 0.  1.
          5    1    1    2  501    0 -0.26626946406E+01 -0.22673248047E+01 -0.12503310069E+02  0.13807732153E+02  0.47000000000E+01 0.  1.
         -5    1    1    2    0  502  0.26626946406E+01  0.22673248047E+01 -0.75581499152E+00  0.59069417485E+01  0.47000000000E+01 0.  1.
<mgrwt>
<rscale>  2 0.58583875E+01</rscale>
<asrwt>0</asrwt>
<pdfrwt beam="1">  1       21 0.49658067E-03 0.58583875E+01</pdfrwt>
<pdfrwt beam="2">  1       21 0.25364461E-02 0.58583875E+01</pdfrwt>
<totfact> 0.21804552E+09</totfact>
</mgrwt>
</event>
<event>
 4    1  0.3999109E+006  0.5714096E+01  0.7546771E-02  0.2454189E+00
         21   -1    0    0  501  502  0.00000000000E+00  0.00000000000E+00  0.57521884051E+00  0.57521884051E+00  0.00000000000E+00 0. -1.
         21   -1    0    0  502  503 -0.00000000000E+00 -0.00000000000E+00 -0.63888305751E+02  0.63888305751E+02  0.00000000000E+00 0. -1.
          5    1    1    2  501    0  0.15192658752E+01  0.28727548314E+01 -0.20892169349E+02  0.21659492820E+02  0.47000000000E+01 0. -1.
         -5    1    1    2    0  503 -0.15192658752E+01 -0.28727548314E+01 -0.42420917561E+02  0.42804031771E+02  0.47000000000E+01 0. -1.
<mgrwt>
<rscale>  2 0.57140957E+01</rscale>
<asrwt>0</asrwt>
<pdfrwt beam="1">  1       21 0.88495260E-04 0.57140957E+01</pdfrwt>
<pdfrwt beam="2">  1       21 0.98289641E-02 0.57140957E+01</pdfrwt>
<totfact> 0.29986776E+09</totfact>
</mgrwt>
</event>
<event>
 4    1  0.3999109E+006  0.4806914E+01  0.7546771E-02  0.2602591E+00
         21   -1    0    0  501  502  0.00000000000E+00  0.00000000000E+00  0.75993888646E+01  0.75993888646E+01  0.00000000000E+00 0.  1.
         21   -1    0    0  502  503 -0.00000000000E+00 -0.00000000000E+00 -0.33589757486E+01  0.33589757486E+01  0.00000000000E+00 0.  1.
          5    1    1    2  501    0  0.22778791994E+00  0.98210958965E+00  0.38071751772E+01  0.61319661946E+01  0.47000000000E+01 0.  1.
         -5    1    1    2    0  503 -0.22778791994E+00 -0.98210958965E+00  0.43323793884E+00  0.48263984185E+01  0.47000000000E+01 0.  1.
<mgrwt>
<rscale>  2 0.48069145E+01</rscale>
<asrwt>0</asrwt>
<pdfrwt beam="1">  1       21 0.11691367E-02 0.48069145E+01</pdfrwt>
<pdfrwt beam="2">  1       21 0.51676550E-03 0.48069145E+01</pdfrwt>
<totfact> 0.50965357E+09</totfact>
</mgrwt>
</event>
<event>
 4    1  0.3999109E+006  0.1004966E+02  0.7546771E-02  0.2072173E+00
         21   -1    0    0  503  502  0.00000000000E+00  0.00000000000E+00  0.91895820509E+02  0.91895820509E+02  0.00000000000E+00 0.  1.
         21   -1    0    0  501  503 -0.00000000000E+00 -0.00000000000E+00 -0.13426639577E+01  0.13426639577E+01  0.00000000000E+00 0.  1.
          5    1    1    2  501    0  0.61329720842E+01 -0.64259052870E+01  0.65135553730E+02  0.65906266508E+02  0.47000000000E+01 0.  1.
         -5    1    1    2    0  502 -0.61329720842E+01  0.64259052870E+01  0.25417602822E+02  0.27332217959E+02  0.47000000000E+01 0.  1.
<mgrwt>
<rscale>  2 0.10049657E+02</rscale>
<asrwt>0</asrwt>
<pdfrwt beam="1">  1       21 0.14137814E-01 0.10049657E+02</pdfrwt>
<pdfrwt beam="2">  1       21 0.20656376E-03 0.10049657E+02</pdfrwt>
<totfact> 0.78843254E+08</totfact>
</mgrwt>
</event>
<event>
 4    1  0.3999109E+006  0.6863238E+01  0.7546771E-02  0.2315006E+00
         21   -1    0    0  501  502  0.00000000000E+00  0.00000000000E+00  0.32027286169E+02  0.32027286169E+02  0.00000000000E+00 0. -1.
         21   -1    0    0  502  503 -0.00000000000E+00 -0.00000000000E+00 -0.31535130226E+01  0.31535130226E+01  0.00000000000E+00 0.  1.
          5    1    1    2  501    0 -0.48563605831E+01 -0.11957425058E+01  0.27286505410E+02  0.28136407300E+02  0.47000000000E+01 0. -1.
         -5    1    1    2    0  503  0.48563605831E+01  0.11957425058E+01  0.15872677362E+01  0.70443918914E+01  0.47000000000E+01 0.  1.
<mgrwt>
<rscale>  2 0.68632382E+01</rscale>
<asrwt>0</asrwt>
<pdfrwt beam="1">  1       21 0.49272746E-02 0.68632382E+01</pdfrwt>
<pdfrwt beam="2">  1       21 0.48515587E-03 0.68632382E+01</pdfrwt>
<totfact> 0.96505502E+08</totfact>
</mgrwt>
</event>
<event>
 4    1  0.3999109E+006  0.5232366E+01  0.7546771E-02  0.2527513E+00
         21   -1    0    0  501  502  0.00000000000E+00  0.00000000000E+00  0.22474381649E+01  0.22474381649E+01  0.00000000000E+00 0.  1.
         21   -1    0    0  502  503 -0.00000000000E+00 -0.00000000000E+00 -0.19707530852E+02  0.19707530852E+02  0.00000000000E+00 0.  1.
          5    1    1    2  501    0  0.85197743168E+00 -0.21358342150E+01 -0.19463954205E+01  0.55826614147E+01  0.47000000000E+01 0.  1.
         -5    1    1    2    0  503 -0.85197743168E+00  0.21358342150E+01 -0.15513697266E+02  0.16372307602E+02  0.47000000000E+01 0.  1.
<mgrwt>
<rscale>  2 0.52323659E+01</rscale>
<asrwt>0</asrwt>
<pdfrwt beam="1">  1       21 0.34575971E-03 0.52323659E+01</pdfrwt>
<pdfrwt beam="2">  1       21 0.30319279E-02 0.52323659E+01</pdfrwt>
<totfact> 0.25003896E+09</totfact>
</mgrwt>
</event>
<event>
 4    1  0.3999109E+006  0.4918354E+01  0.7546771E-02  0.2581845E+00
         21   -1    0    0  501  502  0.00000000000E+00  0.00000000000E+00  0.73957264449E+01  0.73957264449E+01  0.00000000000E+00 0.  1.
         21   -1    0    0  502  503 -0.00000000000E+00 -0.00000000000E+00 -0.96178937103E+01  0.96178937103E+01  0.00000000000E+00 0.  1.
          5    1    1    2  501    0  0.13458641205E+01 -0.53744986317E+00  0.57994725202E+01  0.76042148904E+01  0.47000000000E+01 0.  1.
         -5    1    1    2    0  503 -0.13458641205E+01  0.53744986317E+00 -0.80216397857E+01  0.94094052648E+01  0.47000000000E+01 0.  1.
<mgrwt>
<rscale>  2 0.49183536E+01</rscale>
<asrwt>0</asrwt>
<pdfrwt beam="1">  1       21 0.11378041E-02 0.49183536E+01</pdfrwt>
<pdfrwt beam="2">  1       21 0.14796760E-02 0.49183536E+01</pdfrwt>
<totfact> 0.12588776E+09</totfact>
</mgrwt>
</event>
<event>
 4    1  0.3999109E+006  0.8228849E+01  0.7546771E-02  0.2192461E+00
         21   -1    0    0  501  502  0.00000000000E+00  0.00000000000E+00  0.13578790744E+03  0.13578790744E+03  0.00000000000E+00 0. -1.
         21   -1    0    0  502  503 -0.00000000000E+00 -0.00000000000E+00 -0.10900867110E+01  0.10900867110E+01  0.00000000000E+00 0.  1.
          5    1    1    2  501    0  0.44421610122E+01 -0.50883352589E+01  0.11775909670E+03  0.11804625706E+03  0.47000000000E+01 0. -1.
         -5    1    1    2    0  503 -0.44421610122E+01  0.50883352589E+01  0.16938724032E+02  0.18831737095E+02  0.47000000000E+01 0.  1.
<mgrwt>
<rscale>  2 0.82288487E+01</rscale>
<asrwt>0</asrwt>
<pdfrwt beam="1">  1       21 0.20890434E-01 0.82288487E+01</pdfrwt>
<pdfrwt beam="2">  1       21 0.16770576E-03 0.82288487E+01</pdfrwt>
<totfact> 0.49535002E+08</totfact>
</mgrwt>
</event>
<event>
 4    1  0.3999109E+006  0.8384451E+01  0.7546771E-02  0.2180574E+00
         21   -1    0    0  501  502  0.00000000000E+00  0.00000000000E+00  0.33416344593E+02  0.33416344593E+02  0.00000000000E+00 0. -1.
         21   -1    0    0  502  503 -0.00000000000E+00 -0.00000000000E+00 -0.34807560473E+01  0.34807560473E+01  0.00000000000E+00 0.  1.
          5    1    1    2  501    0  0.66955115291E+01 -0.18382438318E+01  0.26571489171E+02  0.27862933295E+02  0.47000000000E+01 0. -1.
         -5    1    1    2    0  503 -0.66955115291E+01  0.18382438318E+01  0.33640993745E+01  0.90341673453E+01  0.47000000000E+01 0.  1.
<mgrwt>
<rscale>  2 0.83844508E+01</rscale>
<asrwt>0</asrwt>
<pdfrwt beam="1">  1       21 0.51409759E-02 0.83844508E+01</pdfrwt>
<pdfrwt beam="2">  1       21 0.53550095E-03 0.83844508E+01</pdfrwt>
<totfact> 0.90361524E+08</totfact>
</mgrwt>
</event>
<event>
 4    1  0.3999109E+006  0.1219843E+02  0.7546771E-02  0.1967943E+00
         21   -1    0    0  501  502  0.00000000000E+00  0.00000000000E+00  0.10488456884E+00  0.10488456884E+00  0.00000000000E+00 0. -1.
         21   -1    0    0  502  503 -0.00000000000E+00 -0.00000000000E+00 -0.14347595983E+04  0.14347595983E+04  0.00000000000E+00 0. -1.
          5    1    1    2  501    0  0.36838229576E+01 -0.10636785937E+02 -0.64147013165E+03  0.64158610612E+03  0.47000000000E+01 0. -1.
         -5    1    1    2    0  503 -0.36838229576E+01  0.10636785937E+02 -0.79318458213E+03  0.79327837679E+03  0.47000000000E+01 0. -1.
<mgrwt>
<rscale>  2 0.12198433E+02</rscale>
<asrwt>0</asrwt>
<pdfrwt beam="1">  1       21 0.16134225E-04 0.12198433E+02</pdfrwt>
<pdfrwt beam="2">  1       21 0.22075773E+00 0.12198433E+02</pdfrwt>
<totfact> 0.13434909E+08</totfact>
</mgrwt>
</event>
<event>
 4    1  0.3999109E+006  0.4972835E+01  0.7546771E-02  0.2571995E+00
         21   -1    0    0  503  502  0.00000000000E+00  0.00000000000E+00  0.10000331429E+03  0.10000331429E+03  0.00000000000E+00 0. -1.
         21   -1    0    0  501  503 -0.00000000000E+00 -0.00000000000E+00 -0.65162913573E+00  0.65162913573E+00  0.00000000000E+00 0. -1.
          5    1    1    2  501    0  0.12462588845E+01  0.10420778345E+01  0.10031457365E+02  0.11196393361E+02  0.47000000000E+01 0. -1.
         -5    1    1    2    0  502 -0.12462588845E+01 -0.10420778345E+01  0.89320227793E+02  0.89458550069E+02  0.47000000000E+01 0. -1.
<mgrwt>
<rscale>  2 0.49728349E+01</rscale>
<asrwt>0</asrwt>
<pdfrwt beam="1">  1       21 0.15385113E-01 0.49728349E+01</pdfrwt>
<pdfrwt beam="2">  1       21 0.10025072E-03 0.49728349E+01</pdfrwt>
<totfact> 0.11223307E+09</totfact>
</mgrwt>
</event>
<event>
 4    1  0.3999109E+006  0.6348649E+01  0.7546771E-02  0.2372141E+00
         21   -1    0    0  503  502  0.00000000000E+00  0.00000000000E+00  0.10569702669E+01  0.10569702669E+01  0.00000000000E+00 0. -1.
         21   -1    0    0  501  503 -0.00000000000E+00 -0.00000000000E+00 -0.58879914657E+03  0.58879914657E+03  0.00000000000E+00 0. -1.
          5    1    1    2  501    0  0.31005552299E+01  0.29329007964E+01 -0.57908895747E+03  0.57912375708E+03  0.47000000000E+01 0. -1.
         -5    1    1    2    0  502 -0.31005552299E+01 -0.29329007964E+01 -0.86532188380E+01  0.10732359763E+02  0.47000000000E+01 0. -1.
<mgrwt>
<rscale>  2 0.63486494E+01</rscale>
<asrwt>0</asrwt>
<pdfrwt beam="1">  1       21 0.16261037E-03 0.63486494E+01</pdfrwt>
<pdfrwt beam="2">  1       21 0.90584727E-01 0.63486494E+01</pdfrwt>
<totfact> 0.31872564E+07</totfact>
</mgrwt>
</event>
<event>
 4    1  0.3999109E+006  0.5741709E+01  0.7546771E-02  0.2450304E+00
         21   -1    0    0  503  502  0.00000000000E+00  0.00000000000E+00  0.49577178284E+03  0.49577178284E+03  0.00000000000E+00 0.  1.
         21   -1    0    0  501  503 -0.00000000000E+00 -0.00000000000E+00 -0.68751278520E-01  0.68751278520E-01  0.00000000000E+00 0. -1.
          5    1    1    2  501    0 -0.26981776673E+01 -0.18965903007E+01  0.20295646164E+03  0.20303766285E+03  0.47000000000E+01 0. -1.
         -5    1    1    2    0  502  0.26981776673E+01  0.18965903007E+01  0.29274656993E+03  0.29280287126E+03  0.47000000000E+01 0. -1.
<mgrwt>
<rscale>  2 0.57417086E+01</rscale>
<asrwt>0</asrwt>
<pdfrwt beam="1">  1       21 0.76269719E-01 0.57417086E+01</pdfrwt>
<pdfrwt beam="2">  1       21 0.10577517E-04 0.57417086E+01</pdfrwt>
<totfact> 0.16255689E+09</totfact>
</mgrwt>
</event>
<event>
 4    1  0.3999109E+006  0.7546500E+01  0.7546771E-02  0.2249188E+00
         21   -1    0    0  503  502  0.00000000000E+00  0.00000000000E+00  0.59770647026E-01  0.59770647026E-01  0.00000000000E+00 0. -1.
         21   -1    0    0  501  503 -0.00000000000E+00 -0.00000000000E+00 -0.10029599166E+04  0.10029599166E+04  0.00000000000E+00 0. -1.
          5    1    1    2  501    0 -0.55985546997E+01 -0.18750581356E+01 -0.61360094597E+03  0.61364735032E+03  0.47000000000E+01 0. -1.
         -5    1    1    2    0  502  0.55985546997E+01  0.18750581356E+01 -0.38929920001E+03  0.38937233695E+03  0.47000000000E+01 0. -1.
<mgrwt>
<rscale>  2 0.75464997E+01</rscale>
<asrwt>0</asrwt>
<pdfrwt beam="1">  1       21 0.91956073E-05 0.75464997E+01</pdfrwt>
<pdfrwt beam="2">  1       21 0.15429946E+00 0.75464997E+01</pdfrwt>
<totfact> 0.54474703E+08</totfact>
</mgrwt>
</event>
<event>
 4    1  0.3999109E+006  0.6034110E+01  0.7546771E-02  0.2411005E+00
         21   -1    0    0  501  502  0.00000000000E+00  0.00000000000E+00  0.80273748749E+03  0.80273748749E+03  0.00000000000E+00 0.  1.
         21   -1    0    0  502  503 -0.00000000000E+00 -0.00000000000E+00 -0.12407271278E+00  0.12407271278E+00  0.00000000000E+00 0.  1.
          5    1    1    2  501    0 -0.78132903354E+00  0.37027022548E+01  0.72104951939E+03  0.72107476720E+03  0.47000000000E+01 0.  1.
         -5    1    1    2    0  503  0.78132903354E+00 -0.37027022548E+01  0.81563895382E+02  0.81786792998E+02  0.47000000000E+01 0.  1.
<mgrwt>
<rscale>  2 0.60341096E+01</rscale>
<asrwt>0</asrwt>
<pdfrwt beam="1">  1       21 0.12349392E+00 0.60341096E+01</pdfrwt>
<pdfrwt beam="2">  1       21 0.19088753E-04 0.60341096E+01</pdfrwt>
<totfact> 0.29101993E+08</totfact>
</mgrwt>
</event>
<event>
 4    1  0.3999109E+006  0.5178957E+01  0.7546771E-02  0.2536354E+00
         21   -1    0    0  501  502  0.00000000000E+00  0.00000000000E+00  0.96040148344E-01  0.96040148344E-01  0.00000000000E+00 0.  1.
         21   -1    0    0  502  503 -0.00000000000E+00 -0.00000000000E+00 -0.34056196761E+03  0.34056196761E+03  0.00000000000E+00 0.  1.
          5    1    1    2  501    0  0.36051476505E+00 -0.21451395597E+01 -0.97976740607E+02  0.98113522486E+02  0.47000000000E+01 0.  1.
         -5    1    1    2    0  503 -0.36051476505E+00  0.21451395597E+01 -0.24248918685E+03  0.24254448527E+03  0.47000000000E+01 0.  1.
<mgrwt>
<rscale>  2 0.51789569E+01</rscale>
<asrwt>0</asrwt>
<pdfrwt beam="1">  1       21 0.14775353E-04 0.51789569E+01</pdfrwt>
<pdfrwt beam="2">  1       21 0.52394340E-01 0.51789569E+01</pdfrwt>
<totfact> 0.19296950E+09</totfact>
</mgrwt>
</event>
<event>
 4    1  0.3999109E+006  0.8139276E+01  0.7546771E-02  0.2199469E+00
         21   -1    0    0  501  502  0.00000000000E+00  0.00000000000E+00  0.37325439261E+00  0.37325439261E+00  0.00000000000E+00 0. -1.
         21   -1    0    0  502  503 -0.00000000000E+00 -0.00000000000E+00 -0.33713136068E+03  0.33713136068E+03  0.00000000000E+00 0.  1.
          5    1    1    2  501    0 -0.58936117851E+01  0.30697144817E+01 -0.52253734667E+02  0.52883840570E+02  0.47000000000E+01 0. -1.
         -5    1    1    2    0  503  0.58936117851E+01 -0.30697144817E+01 -0.28450437162E+03  0.28462077450E+03  0.47000000000E+01 0.  1.
<mgrwt>
<rscale>  2 0.81392756E+01</rscale>
<asrwt>0</asrwt>
<pdfrwt beam="1">  1       21 0.57423541E-04 0.81392756E+01</pdfrwt>
<pdfrwt beam="2">  1       21 0.51866554E-01 0.81392756E+01</pdfrwt>
<totfact> 0.43580032E+08</totfact>
</mgrwt>
</event>
<event>
 4    1  0.3999109E+006  0.5400751E+01  0.7546771E-02  0.2500621E+00
         21   -1    0    0  501  502  0.00000000000E+00  0.00000000000E+00  0.16664260656E+01  0.16664260656E+01  0.00000000000E+00 0. -1.
         21   -1    0    0  502  503 -0.00000000000E+00 -0.00000000000E+00 -0.27786527761E+02  0.27786527761E+02  0.00000000000E+00 0. -1.
          5    1    1    2  501    0  0.24238524726E+01 -0.10968360309E+01 -0.41013612872E+01  0.67815392424E+01  0.47000000000E+01 0. -1.
         -5    1    1    2    0  503 -0.24238524726E+01  0.10968360309E+01 -0.22018740408E+02  0.22671414584E+02  0.47000000000E+01 0. -1.
<mgrwt>
<rscale>  2 0.54007509E+01</rscale>
<asrwt>0</asrwt>
<pdfrwt beam="1">  1       21 0.25637325E-03 0.54007509E+01</pdfrwt>
<pdfrwt beam="2">  1       21 0.42748503E-02 0.54007509E+01</pdfrwt>
<totfact> 0.23548063E+09</totfact>
</mgrwt>
</event>
<event>
 4    1  0.3999109E+006  0.5266877E+01  0.7546771E-02  0.2521882E+00
         21   -1    0    0  503  502  0.00000000000E+00  0.00000000000E+00  0.24059200839E+00  0.24059200839E+00  0.00000000000E+00 0. -1.
         21   -1    0    0  501  503 -0.00000000000E+00 -0.00000000000E+00 -0.20739647672E+03  0.20739647672E+03  0.00000000000E+00 0. -1.
          5    1    1    2  501    0 -0.21486162999E+01 -0.10165821388E+01 -0.17276077408E+03  0.17284103983E+03  0.47000000000E+01 0. -1.
         -5    1    1    2    0  502  0.21486162999E+01  0.10165821388E+01 -0.34395110639E+02  0.34796028899E+02  0.47000000000E+01 0. -1.
<mgrwt>
<rscale>  2 0.52668768E+01</rscale>
<asrwt>0</asrwt>
<pdfrwt beam="1">  1       21 0.37014267E-04 0.52668768E+01</pdfrwt>
<pdfrwt beam="2">  1       21 0.31907053E-01 0.52668768E+01</pdfrwt>
<totfact> 0.13675622E+09</totfact>
</mgrwt>
</event>
<event>
 4    1  0.3999109E+006  0.5379395E+01  0.7546771E-02  0.2503952E+00
         21   -1    0    0  501  502  0.00000000000E+00  0.00000000000E+00  0.10272250193E+01  0.10272250193E+01  0.00000000000E+00 0.  1.
         21   -1    0    0  502  503 -0.00000000000E+00 -0.00000000000E+00 -0.30799151815E+02  0.30799151815E+02  0.00000000000E+00 0. -1.
          5    1    1    2  501    0  0.23299325170E+01 -0.11913469507E+01 -0.10237406911E+02  0.11564704638E+02  0.47000000000E+01 0.  1.
         -5    1    1    2    0  503 -0.23299325170E+01  0.11913469507E+01 -0.19534519884E+02  0.20261672197E+02  0.47000000000E+01 0. -1.
<mgrwt>
<rscale>  2 0.53793952E+01</rscale>
<asrwt>0</asrwt>
<pdfrwt beam="1">  1       21 0.15803460E-03 0.53793952E+01</pdfrwt>
<pdfrwt beam="2">  1       21 0.47383316E-02 0.53793952E+01</pdfrwt>
<totfact> 0.38808285E+09</totfact>
</mgrwt>
</event>
<event>
 4    1  0.3999109E+006  0.5793640E+01  0.7546771E-02  0.2443081E+00
         21   -1    0    0  503  502  0.00000000000E+00  0.00000000000E+00  0.40813412756E+02  0.40813412756E+02  0.00000000000E+00 0. -1.
         21   -1    0    0  501  503 -0.00000000000E+00 -0.00000000000E+00 -0.97767984545E+00  0.97767984545E+00  0.00000000000E+00 0.  1.
          5    1    1    2  501    0 -0.25244943521E+01  0.22590256789E+01  0.11591265041E+02  0.12958537495E+02  0.47000000000E+01 0.  1.
         -5    1    1    2    0  502  0.25244943521E+01 -0.22590256789E+01  0.28244467870E+02  0.28832555107E+02  0.47000000000E+01 0. -1.
<mgrwt>
<rscale>  2 0.57936404E+01</rscale>
<asrwt>0</asrwt>
<pdfrwt beam="1">  1       21 0.62789852E-02 0.57936404E+01</pdfrwt>
<pdfrwt beam="2">  1       21 0.15041232E-03 0.57936404E+01</pdfrwt>
<totfact> 0.29279516E+09</totfact>
</mgrwt>
</event>
<event>
 4    1  0.3999109E+006  0.6132366E+01  0.7546771E-02  0.2398508E+00
         21   -1    0    0  503  502  0.00000000000E+00  0.00000000000E+00  0.13987048553E+01  0.13987048553E+01  0.00000000000E+00 0. -1.
         21   -1    0    0  501  503 -0.00000000000E+00 -0.00000000000E+00 -0.34965799771E+02  0.34965799771E+02  0.00000000000E+00 0.  1.
          5    1    1    2  501    0 -0.90609577853E+00  0.38333933328E+01 -0.25523715934E+02  0.26250066459E+02  0.47000000000E+01 0.  1.
         -5    1    1    2    0  502  0.90609577853E+00 -0.38333933328E+01 -0.80433789820E+01  0.10114438168E+02  0.47000000000E+01 0. -1.
<mgrwt>
<rscale>  2 0.61323661E+01</rscale>
<asrwt>0</asrwt>
<pdfrwt beam="1">  1       21 0.21518536E-03 0.61323661E+01</pdfrwt>
<pdfrwt beam="2">  1       21 0.53793538E-02 0.61323661E+01</pdfrwt>
<totfact> 0.23822600E+09</totfact>
</mgrwt>
</event>
<event>
 4    1  0.3999109E+006  0.5347593E+01  0.7546771E-02  0.2508954E+00
         21   -1    0    0  501  502  0.00000000000E+00  0.00000000000E+00  0.37104913829E+02  0.37104913829E+02  0.00000000000E+00 0. -1.
         21   -1    0    0  502  503 -0.00000000000E+00 -0.00000000000E+00 -0.20227084434E+01  0.20227084434E+01  0.00000000000E+00 0. -1.
          5    1    1    2  501    0 -0.25380170075E+01 -0.25539304467E+00  0.32932939574E+02  0.33364281274E+02  0.47000000000E+01 0. -1.
         -5    1    1    2    0  503  0.25380170075E+01  0.25539304467E+00  0.21492658118E+01  0.57633409987E+01  0.47000000000E+01 0. -1.
<mgrwt>
<rscale>  2 0.53475935E+01</rscale>
<asrwt>0</asrwt>
<pdfrwt beam="1">  1       21 0.57084478E-02 0.53475935E+01</pdfrwt>
<pdfrwt beam="2">  1       21 0.31118594E-03 0.53475935E+01</pdfrwt>
<totfact> 0.11715026E+09</totfact>
</mgrwt>
</event>
<event>
 4    1  0.3999109E+006  0.4955646E+01  0.7546771E-02  0.2575083E+00
         21   -1    0    0  503  502  0.00000000000E+00  0.00000000000E+00  0.30098404044E+01  0.30098404044E+01  0.00000000000E+00 0.  1.
         21   -1    0    0  501  503 -0.00000000000E+00 -0.00000000000E+00 -0.27354573799E+02  0.27354573799E+02  0.00000000000E+00 0.  1.
          5    1    1    2  501    0  0.14664239153E+00 -0.15642644087E+01 -0.24890290026E+02  0.25378829065E+02  0.47000000000E+01 0.  1.
         -5    1    1    2    0  502 -0.14664239153E+00  0.15642644087E+01  0.54555663176E+00  0.49855851382E+01  0.47000000000E+01 0.  1.
<mgrwt>
<rscale>  2 0.49556460E+01</rscale>
<asrwt>0</asrwt>
<pdfrwt beam="1">  1       21 0.46305238E-03 0.49556460E+01</pdfrwt>
<pdfrwt beam="2">  1       21 0.42083958E-02 0.49556460E+01</pdfrwt>
<totfact> 0.99036070E+08</totfact>
</mgrwt>
</event>
<event>
 4    1  0.3999109E+006  0.4858882E+01  0.7546771E-02  0.2592814E+00
         21   -1    0    0  503  502  0.00000000000E+00  0.00000000000E+00  0.20669183439E+02  0.20669183439E+02  0.00000000000E+00 0.  1.
         21   -1    0    0  501  503 -0.00000000000E+00 -0.00000000000E+00 -0.40522748749E+01  0.40522748749E+01  0.00000000000E+00 0.  1.
          5    1    1    2  501    0 -0.96516054988E+00  0.76628640002E+00 -0.21663356342E+01  0.53199379521E+01  0.47000000000E+01 0.  1.
         -5    1    1    2    0  502  0.96516054988E+00 -0.76628640002E+00  0.18783244199E+02  0.19401520362E+02  0.47000000000E+01 0.  1.
<mgrwt>
<rscale>  2 0.48588815E+01</rscale>
<asrwt>0</asrwt>
<pdfrwt beam="1">  1       21 0.31798743E-02 0.48588815E+01</pdfrwt>
<pdfrwt beam="2">  1       21 0.62342692E-03 0.48588815E+01</pdfrwt>
<totfact> 0.96768829E+08</totfact>
</mgrwt>
</event>
<event>
 4    1  0.3999109E+006  0.7094108E+01  0.7546771E-02  0.2291610E+00
         21   -1    0    0  501  502  0.00000000000E+00  0.00000000000E+00  0.44490096024E+02  0.44490096024E+02  0.00000000000E+00 0. -1.
         21   -1    0    0  502  503 -0.00000000000E+00 -0.00000000000E+00 -0.11402459167E+01  0.11402459167E+01  0.00000000000E+00 0. -1.
          5    1    1    2  501    0  0.26419220435E+01  0.46104896475E+01  0.23709145401E+02  0.24747726007E+02  0.47000000000E+01 0. -1.
         -5    1    1    2    0  503 -0.26419220435E+01 -0.46104896475E+01  0.19640704707E+02  0.20882615934E+02  0.47000000000E+01 0. -1.
<mgrwt>
<rscale>  2 0.70941079E+01</rscale>
<asrwt>0</asrwt>
<pdfrwt beam="1">  1       21 0.68446288E-02 0.70941079E+01</pdfrwt>
<pdfrwt beam="2">  1       21 0.17542248E-03 0.70941079E+01</pdfrwt>
<totfact> 0.24638987E+09</totfact>
</mgrwt>
</event>
<event>
 4    1  0.3999109E+006  0.5519821E+01  0.7546771E-02  0.2482451E+00
         21   -1    0    0  503  502  0.00000000000E+00  0.00000000000E+00  0.46738985636E+00  0.46738985636E+00  0.00000000000E+00 0. -1.
         21   -1    0    0  501  503 -0.00000000000E+00 -0.00000000000E+00 -0.15882542548E+03  0.15882542548E+03  0.00000000000E+00 0. -1.
          5    1    1    2  501    0 -0.14716106667E+01  0.24925451809E+01 -0.14033372225E+03  0.14044223730E+03  0.47000000000E+01 0. -1.
         -5    1    1    2    0  502  0.14716106667E+01 -0.24925451809E+01 -0.18024313378E+02  0.18850578033E+02  0.47000000000E+01 0. -1.
<mgrwt>
<rscale>  2 0.55198206E+01</rscale>
<asrwt>0</asrwt>
<pdfrwt beam="1">  1       21 0.71906062E-04 0.55198206E+01</pdfrwt>
<pdfrwt beam="2">  1       21 0.24434705E-01 0.55198206E+01</pdfrwt>
<totfact> 0.91482833E+08</totfact>
</mgrwt>
</event>
<event>
 4    1  0.3999109E+006  0.1073037E+02  0.7546771E-02  0.2035658E+00
         21   -1    0    0  501  502  0.00000000000E+00  0.00000000000E+00  0.16922241600E+03  0.16922241600E+03  0.00000000000E+00 0. -1.
         21   -1    0    0  502  503 -0.00000000000E+00 -0.00000000000E+00 -0.15797936561E+01  0.15797936561E+01  0.00000000000E+00 0.  1.
          5    1    1    2  501    0  0.42590869579E+01 -0.86551208250E+01  0.14825831727E+03  0.14864612197E+03  0.47000000000E+01 0. -1.
         -5    1    1    2    0  503 -0.42590869579E+01  0.86551208250E+01  0.19384305080E+02  0.22156087688E+02  0.47000000000E+01 0.  1.
<mgrwt>
<rscale>  2 0.10730375E+02</rscale>
<asrwt>0</asrwt>
<pdfrwt beam="1">  1       21 0.26034204E-01 0.10730375E+02</pdfrwt>
<pdfrwt beam="2">  1       21 0.24304531E-03 0.10730375E+02</pdfrwt>
<totfact> 0.23370380E+08</totfact>
</mgrwt>
</event>
<event>
 4    1  0.3999109E+006  0.7913445E+01  0.7546771E-02  0.2217700E+00
         21   -1    0    0  503  502  0.00000000000E+00  0.00000000000E+00  0.30642924614E+03  0.30642924614E+03  0.00000000000E+00 0. -1.
         21   -1    0    0  501  503 -0.00000000000E+00 -0.00000000000E+00 -0.26190156341E+00  0.26190156341E+00  0.00000000000E+00 0.  1.
          5    1    1    2  501    0  0.56550168391E+01 -0.29246196574E+01  0.81207659324E+02  0.81592319176E+02  0.47000000000E+01 0.  1.
         -5    1    1    2    0  502 -0.56550168391E+01  0.29246196574E+01  0.22495968525E+03  0.22509882853E+03  0.47000000000E+01 0.  1.
<mgrwt>
<rscale>  2 0.79134452E+01</rscale>
<asrwt>0</asrwt>
<pdfrwt beam="1">  1       21 0.47142674E-01 0.79134452E+01</pdfrwt>
<pdfrwt beam="2">  1       21 0.40292793E-04 0.79134452E+01</pdfrwt>
<totfact> 0.82561970E+08</totfact>
</mgrwt>
</event>
<event>
 4    1  0.3999109E+006  0.9429937E+01  0.7546771E-02  0.2108960E+00
         21   -1    0    0  503  502  0.00000000000E+00  0.00000000000E+00  0.55973655449E+02  0.55973655449E+02  0.00000000000E+00 0.  1.
         21   -1    0    0  501  503 -0.00000000000E+00 -0.00000000000E+00 -0.77615276306E+01  0.77615276306E+01  0.00000000000E+00 0. -1.
          5    1    1    2  501    0  0.17634713966E+01  0.79827232942E+01 -0.43135874672E+01  0.10369702956E+02  0.47000000000E+01 0. -1.
         -5    1    1    2    0  502 -0.17634713966E+01 -0.79827232942E+01  0.52525715286E+02  0.53365480124E+02  0.47000000000E+01 0.  1.
<mgrwt>
<rscale>  2 0.94299365E+01</rscale>
<asrwt>0</asrwt>
<pdfrwt beam="1">  1       21 0.86113314E-02 0.94299365E+01</pdfrwt>
<pdfrwt beam="2">  1       21 0.11940812E-02 0.94299365E+01</pdfrwt>
<totfact> 0.13803160E+08</totfact>
</mgrwt>
</event>
<event>
 4    1  0.3999109E+006  0.7122613E+01  0.7546771E-02  0.2288807E+00
         21   -1    0    0  503  502  0.00000000000E+00  0.00000000000E+00  0.64434654127E+01  0.64434654127E+01  0.00000000000E+00 0. -1.
         21   -1    0    0  501  503 -0.00000000000E+00 -0.00000000000E+00 -0.78781862642E+01  0.78781862642E+01  0.00000000000E+00 0.  1.
          5    1    1    2  501    0 -0.52394412656E+01 -0.10908100385E+01 -0.53980542869E+00  0.71430386543E+01  0.47000000000E+01 0. -1.
         -5    1    1    2    0  502  0.52394412656E+01  0.10908100385E+01 -0.89491542276E+00  0.71786130227E+01  0.47000000000E+01 0.  1.
<mgrwt>
<rscale>  2 0.71226127E+01</rscale>
<asrwt>0</asrwt>
<pdfrwt beam="1">  1       21 0.99130237E-03 0.71226127E+01</pdfrwt>
<pdfrwt beam="2">  1       21 0.12120287E-02 0.71226127E+01</pdfrwt>
<totfact> 0.28072912E+09</totfact>
</mgrwt>
</event>
<event>
 4    1  0.3999109E+006  0.4788002E+01  0.7546771E-02  0.2606194E+00
         21   -1    0    0  503  502  0.00000000000E+00  0.00000000000E+00  0.23572120893E+01  0.23572120893E+01  0.00000000000E+00 0.  1.
         21   -1    0    0  501  503 -0.00000000000E+00 -0.00000000000E+00 -0.14572446471E+02  0.14572446471E+02  0.00000000000E+00 0.  1.
          5    1    1    2  501    0 -0.63167760333E+00  0.66026606368E+00 -0.10989506739E+02  0.11987252656E+02  0.47000000000E+01 0.  1.
         -5    1    1    2    0  502  0.63167760333E+00 -0.66026606368E+00 -0.12257276425E+01  0.49424059043E+01  0.47000000000E+01 0.  1.
<mgrwt>
<rscale>  2 0.47880025E+01</rscale>
<asrwt>0</asrwt>
<pdfrwt beam="1">  1       21 0.36264801E-03 0.47880025E+01</pdfrwt>
<pdfrwt beam="2">  1       21 0.22419149E-02 0.47880025E+01</pdfrwt>
<totfact> 0.32943373E+09</totfact>
</mgrwt>
</event>
<event>
 4    1  0.3999109E+006  0.7426413E+01  0.7546771E-02  0.2260038E+00
         21   -1    0    0  503  502  0.00000000000E+00  0.00000000000E+00  0.23188240527E+03  0.23188240527E+03  0.00000000000E+00 0.  1.
         21   -1    0    0  501  503 -0.00000000000E+00 -0.00000000000E+00 -0.42514208581E+00  0.42514208581E+00  0.00000000000E+00 0.  1.
          5    1    1    2  501    0  0.45605081843E+01  0.35019112410E+01  0.38632240023E+02  0.39339567695E+02  0.47000000000E+01 0.  1.
         -5    1    1    2    0  502 -0.45605081843E+01 -0.35019112410E+01  0.19282502316E+03  0.19296797966E+03  0.47000000000E+01 0.  1.
<mgrwt>
<rscale>  2 0.74264135E+01</rscale>
<asrwt>0</asrwt>
<pdfrwt beam="1">  1       21 0.35674115E-01 0.74264135E+01</pdfrwt>
<pdfrwt beam="2">  1       21 0.65406660E-04 0.74264135E+01</pdfrwt>
<totfact> 0.67757496E+08</totfact>
</mgrwt>
</event>
<event>
 4    1  0.3999109E+006  0.6879396E+01  0.7546771E-02  0.2313327E+00
         21   -1    0    0  503  502  0.00000000000E+00  0.00000000000E+00  0.42825710493E+01  0.42825710493E+01  0.00000000000E+00 0. -1.
         21   -1    0    0  501  503 -0.00000000000E+00 -0.00000000000E+00 -0.12746594544E+02  0.12746594544E+02  0.00000000000E+00 0.  1.
          5    1    1    2  501    0  0.30813992077E+00  0.50140936484E+01 -0.73376112852E+01  0.10058162093E+02  0.47000000000E+01 0.  1.
         -5    1    1    2    0  502 -0.30813992077E+00 -0.50140936484E+01 -0.11264122091E+01  0.69710034995E+01  0.47000000000E+01 0. -1.
<mgrwt>
<rscale>  2 0.68793957E+01</rscale>
<asrwt>0</asrwt>
<pdfrwt beam="1">  1       21 0.65885709E-03 0.68793957E+01</pdfrwt>
<pdfrwt beam="2">  1       21 0.19610145E-02 0.68793957E+01</pdfrwt>
<totfact> 0.24372026E+09</totfact>
</mgrwt>
</event>
<event>
 4    1  0.3999109E+006  0.5692352E+01  0.7546771E-02  0.2457271E+00
         21   -1    0    0  501  502  0.00000000000E+00  0.00000000000E+00  0.12489159674E+02  0.12489159674E+02  0.00000000000E+00 0.  1.
         21   -1    0    0  502  503 -0.00000000000E+00 -0.00000000000E+00 -0.62086917163E+01  0.62086917163E+01  0.00000000000E+00 0.  1.
          5    1    1    2  501    0 -0.10745031965E+01  0.30262699008E+01  0.10273172731E+02  0.11744826291E+02  0.47000000000E+01 0.  1.
         -5    1    1    2    0  503  0.10745031965E+01 -0.30262699008E+01 -0.39927047733E+01  0.69530250998E+01  0.47000000000E+01 0.  1.
<mgrwt>
<rscale>  2 0.56923516E+01</rscale>
<asrwt>0</asrwt>
<pdfrwt beam="1">  1       21 0.19214092E-02 0.56923516E+01</pdfrwt>
<pdfrwt beam="2">  1       21 0.95518334E-03 0.56923516E+01</pdfrwt>
<totfact> 0.12717975E+09</totfact>
</mgrwt>
</event>
<event>
 4    1  0.3999109E+006  0.1047255E+02  0.7546771E-02  0.2049051E+00
         21   -1    0    0  503  502  0.00000000000E+00  0.00000000000E+00  0.92341848359E+01  0.92341848359E+01  0.00000000000E+00 0. -1.
         21   -1    0    0  501  503 -0.00000000000E+00 -0.00000000000E+00 -0.20392195998E+02  0.20392195998E+02  0.00000000000E+00 0.  1.
          5    1    1    2  501    0  0.56725982484E+01 -0.74435142370E+01 -0.15151261767E+02  0.18418333481E+02  0.47000000000E+01 0.  1.
         -5    1    1    2    0  502 -0.56725982484E+01  0.74435142370E+01  0.39932506045E+01  0.11208047353E+02  0.47000000000E+01 0. -1.
<mgrwt>
<rscale>  2 0.10472549E+02</rscale>
<asrwt>0</asrwt>
<pdfrwt beam="1">  1       21 0.14206438E-02 0.10472549E+02</pdfrwt>
<pdfrwt beam="2">  1       21 0.31372609E-02 0.10472549E+02</pdfrwt>
<totfact> 0.53208892E+08</totfact>
</mgrwt>
</event>
<event>
 4    1  0.3999109E+006  0.6731395E+01  0.7546771E-02  0.2328956E+00
         21   -1    0    0  501  502  0.00000000000E+00  0.00000000000E+00  0.47336642585E+02  0.47336642585E+02  0.00000000000E+00 0.  1.
         21   -1    0    0  502  503 -0.00000000000E+00 -0.00000000000E+00 -0.59189711153E+01  0.59189711153E+01  0.00000000000E+00 0. -1.
          5    1    1    2  501    0 -0.24059397045E+01 -0.41753001456E+01  0.45088610378E+02  0.45588314983E+02  0.47000000000E+01 0.  1.
         -5    1    1    2    0  503  0.24059397045E+01  0.41753001456E+01 -0.36709389077E+01  0.76672987180E+01  0.47000000000E+01 0. -1.
<mgrwt>
<rscale>  2 0.67313949E+01</rscale>
<asrwt>0</asrwt>
<pdfrwt beam="1">  1       21 0.72825602E-02 0.67313949E+01</pdfrwt>
<pdfrwt beam="2">  1       21 0.91061097E-03 0.67313949E+01</pdfrwt>
<totfact> 0.21772519E+08</totfact>
</mgrwt>
</event>
<event>
 4    1  0.3999109E+006  0.5249671E+01  0.7546771E-02  0.2524681E+00
         21   -1    0    0  501  502  0.00000000000E+00  0.00000000000E+00  0.27316909422E+00  0.27316909422E+00  0.00000000000E+00 0. -1.
         21   -1    0    0  502  503 -0.00000000000E+00 -0.00000000000E+00 -0.81431668189E+03  0.81431668189E+03  0.00000000000E+00 0. -1.
          5    1    1    2  501    0  0.22710013761E+01  0.55821171132E+00 -0.25790849880E+02  0.26319707162E+02  0.47000000000E+01 0. -1.
         -5    1    1    2    0  503 -0.22710013761E+01 -0.55821171132E+00 -0.78825266292E+03  0.78827014383E+03  0.47000000000E+01 0. -1.
<mgrwt>
<rscale>  2 0.52496712E+01</rscale>
<asrwt>0</asrwt>
<pdfrwt beam="1">  1       21 0.42026233E-04 0.52496712E+01</pdfrwt>
<pdfrwt beam="2">  1       21 0.12527884E+00 0.52496712E+01</pdfrwt>
<totfact> 0.90443706E+07</totfact>
</mgrwt>
</event>
<event>
 4    1  0.3999109E+006  0.5494152E+01  0.7546771E-02  0.2486311E+00
         21   -1    0    0  503  502  0.00000000000E+00  0.00000000000E+00  0.18505413694E+01  0.18505413694E+01  0.00000000000E+00 0. -1.
         21   -1    0    0  501  503 -0.00000000000E+00 -0.00000000000E+00 -0.27094862701E+02  0.27094862701E+02  0.00000000000E+00 0.  1.
          5    1    1    2  501    0  0.26364561430E+01  0.10699573930E+01 -0.21752284636E+02  0.22435409439E+02  0.47000000000E+01 0.  1.
         -5    1    1    2    0  502 -0.26364561430E+01 -0.10699573930E+01 -0.34920366957E+01  0.65099946314E+01  0.47000000000E+01 0. -1.
<mgrwt>
<rscale>  2 0.54941523E+01</rscale>
<asrwt>0</asrwt>
<pdfrwt beam="1">  1       21 0.28469868E-03 0.54941523E+01</pdfrwt>
<pdfrwt beam="2">  1       21 0.41684404E-02 0.54941523E+01</pdfrwt>
<totfact> 0.21518211E+09</totfact>
</mgrwt>
</event>
<event>
 4    1  0.3999109E+006  0.6281733E+01  0.7546771E-02  0.2380137E+00
         21   -1    0    0  501  502  0.00000000000E+00  0.00000000000E+00  0.15610016551E+00  0.15610016551E+00  0.00000000000E+00 0. -1.
         21   -1    0    0  502  503 -0.00000000000E+00 -0.00000000000E+00 -0.29102188470E+03  0.29102188470E+03  0.00000000000E+00 0.  1.
          5    1    1    2  501    0 -0.11696106965E+01 -0.40002725597E+01 -0.19820358557E+03  0.19830310512E+03  0.47000000000E+01 0.  1.
         -5    1    1    2    0  503  0.11696106965E+01  0.40002725597E+01 -0.92662198974E+02  0.92874879749E+02  0.47000000000E+01 0. -1.
<mgrwt>
<rscale>  2 0.62817330E+01</rscale>
<asrwt>0</asrwt>
<pdfrwt beam="1">  1       21 0.24015460E-04 0.62817330E+01</pdfrwt>
<pdfrwt beam="2">  1       21 0.44772505E-01 0.62817330E+01</pdfrwt>
<totfact> 0.15580179E+09</totfact>
</mgrwt>
</event>
<event>
 4    1  0.3999109E+006  0.4793789E+01  0.7546771E-02  0.2605089E+00
         21   -1    0    0  501  502  0.00000000000E+00  0.00000000000E+00  0.12042425446E+03  0.12042425446E+03  0.00000000000E+00 0.  1.
         21   -1    0    0  502  503 -0.00000000000E+00 -0.00000000000E+00 -0.21853043751E+00  0.21853043751E+00  0.00000000000E+00 0.  1.
          5    1    1    2  501    0 -0.25619698418E+00 -0.90817395320E+00  0.81579586999E+02  0.81720312235E+02  0.47000000000E+01 0.  1.
         -5    1    1    2    0  503  0.25619698418E+00  0.90817395320E+00  0.38626137027E+02  0.38922472666E+02  0.47000000000E+01 0.  1.
<mgrwt>
<rscale>  2 0.47937894E+01</rscale>
<asrwt>0</asrwt>
<pdfrwt beam="1">  1       21 0.18526755E-01 0.47937894E+01</pdfrwt>
<pdfrwt beam="2">  1       21 0.33620164E-04 0.47937894E+01</pdfrwt>
<totfact> 0.34403307E+09</totfact>
</mgrwt>
</event>
<event>
 4    1  0.3999109E+006  0.6528888E+01  0.7546771E-02  0.2351283E+00
         21   -1    0    0  503  502  0.00000000000E+00  0.00000000000E+00  0.15506765671E+03  0.15506765671E+03  0.00000000000E+00 0.  1.
         21   -1    0    0  501  503 -0.00000000000E+00 -0.00000000000E+00 -0.70003364858E+00  0.70003364858E+00  0.00000000000E+00 0.  1.
          5    1    1    2  501    0 -0.45228040071E+01 -0.28394508365E+00  0.16488335002E+02  0.17733910230E+02  0.47000000000E+01 0.  1.
         -5    1    1    2    0  502  0.45228040071E+01  0.28394508365E+00  0.13787928805E+03  0.13803378012E+03  0.47000000000E+01 0.  1.
<mgrwt>
<rscale>  2 0.65288882E+01</rscale>
<asrwt>0</asrwt>
<pdfrwt beam="1">  1       21 0.23856535E-01 0.65288882E+01</pdfrwt>
<pdfrwt beam="2">  1       21 0.10769761E-03 0.65288882E+01</pdfrwt>
<totfact> 0.62777703E+08</totfact>
</mgrwt>
</event>
<event>
 4    1  0.3999109E+006  0.7391734E+01  0.7546771E-02  0.2263224E+00
         21   -1    0    0  501  502  0.00000000000E+00  0.00000000000E+00  0.14445430430E+01  0.14445430430E+01  0.00000000000E+00 0. -1.
         21   -1    0    0  502  503 -0.00000000000E+00 -0.00000000000E+00 -0.93093185098E+02  0.93093185098E+02  0.00000000000E+00 0.  1.
          5    1    1    2  501    0 -0.52551621782E+01 -0.22205874510E+01 -0.94026773648E+01  0.11960270890E+02  0.47000000000E+01 0. -1.
         -5    1    1    2    0  503  0.52551621782E+01  0.22205874510E+01 -0.82245964691E+02  0.82577457251E+02  0.47000000000E+01 0.  1.
<mgrwt>
<rscale>  2 0.73917344E+01</rscale>
<asrwt>0</asrwt>
<pdfrwt beam="1">  1       21 0.22223738E-03 0.73917344E+01</pdfrwt>
<pdfrwt beam="2">  1       21 0.14322029E-01 0.73917344E+01</pdfrwt>
<totfact> 0.58071489E+08</totfact>
</mgrwt>
</event>
<event>
 4    1  0.3999109E+006  0.4781342E+01  0.7546771E-02  0.2607469E+00
         21   -1    0    0  501  502  0.00000000000E+00  0.00000000000E+00  0.16416290019E+01  0.16416290019E+01  0.00000000000E+00 0. -1.
         21   -1    0    0  502  503 -0.00000000000E+00 -0.00000000000E+00 -0.16993055300E+02  0.16993055300E+02  0.00000000000E+00 0. -1.
          5    1    1    2  501    0  0.14443250329E+00 -0.86624140603E+00 -0.37173009407E+01  0.60563653461E+01  0.47000000000E+01 0. -1.
         -5    1    1    2    0  503 -0.14443250329E+00  0.86624140603E+00 -0.11634125358E+02  0.12578318956E+02  0.47000000000E+01 0. -1.
<mgrwt>
<rscale>  2 0.47813424E+01</rscale>
<asrwt>0</asrwt>
<pdfrwt beam="1">  1       21 0.25255831E-03 0.47813424E+01</pdfrwt>
<pdfrwt beam="2">  1       21 0.26143161E-02 0.47813424E+01</pdfrwt>
<totfact> 0.43158689E+09</totfact>
</mgrwt>
</event>
<event>
 4    1  0.3999109E+006  0.6819607E+01  0.7546771E-02  0.2319573E+00
         21   -1    0    0  501  502  0.00000000000E+00  0.00000000000E+00  0.17810482099E+01  0.17810482099E+01  0.00000000000E+00 0. -1.
         21   -1    0    0  502  503 -0.00000000000E+00 -0.00000000000E+00 -0.38077091596E+02  0.38077091596E+02  0.00000000000E+00 0.  1.
          5    1    1    2  501    0 -0.34047332923E+01  0.35811777839E+01 -0.69765605798E+01  0.97559951125E+01  0.47000000000E+01 0. -1.
         -5    1    1    2    0  503  0.34047332923E+01 -0.35811777839E+01 -0.29319482806E+02  0.30102144693E+02  0.47000000000E+01 0.  1.
<mgrwt>
<rscale>  2 0.68196073E+01</rscale>
<asrwt>0</asrwt>
<pdfrwt beam="1">  1       21 0.27400747E-03 0.68196073E+01</pdfrwt>
<pdfrwt beam="2">  1       21 0.58580130E-02 0.68196073E+01</pdfrwt>
<totfact> 0.16389826E+09</totfact>
</mgrwt>
</event>
<event>
 4    1  0.3999109E+006  0.6548576E+01  0.7546771E-02  0.2349062E+00
         21   -1    0    0  503  502  0.00000000000E+00  0.00000000000E+00  0.18087121102E+02  0.18087121102E+02  0.00000000000E+00 0.  1.
         21   -1    0    0  501  503 -0.00000000000E+00 -0.00000000000E+00 -0.53086754799E+01  0.53086754799E+01  0.00000000000E+00 0. -1.
          5    1    1    2  501    0 -0.53277332341E+00  0.45287972427E+01 -0.23127870707E+01  0.69449863869E+01  0.47000000000E+01 0. -1.
         -5    1    1    2    0  502  0.53277332341E+00 -0.45287972427E+01  0.15091232693E+02  0.16450810195E+02  0.47000000000E+01 0.  1.
<mgrwt>
<rscale>  2 0.65485763E+01</rscale>
<asrwt>0</asrwt>
<pdfrwt beam="1">  1       21 0.27826340E-02 0.65485763E+01</pdfrwt>
<pdfrwt beam="2">  1       21 0.81671931E-03 0.65485763E+01</pdfrwt>
<totfact> 0.10422037E+09</totfact>
</mgrwt>
</event>
<event>
 4    1  0.3999109E+006  0.5020614E+01  0.7546771E-02  0.2563510E+00
         21   -1    0    0  503  502  0.00000000000E+00  0.00000000000E+00  0.73645541842E+01  0.73645541842E+01  0.00000000000E+00 0. -1.
         21   -1    0    0  501  503 -0.00000000000E+00 -0.00000000000E+00 -0.42971618559E+01  0.42971618559E+01  0.00000000000E+00 0. -1.
          5    1    1    2  501    0 -0.12315173936E+01  0.12648813659E+01 -0.10966651319E+01  0.51389915715E+01  0.47000000000E+01 0. -1.
         -5    1    1    2    0  502  0.12315173936E+01 -0.12648813659E+01  0.41640574603E+01  0.65227244686E+01  0.47000000000E+01 0. -1.
<mgrwt>
<rscale>  2 0.50206135E+01</rscale>
<asrwt>0</asrwt>
<pdfrwt beam="1">  1       21 0.11330083E-02 0.50206135E+01</pdfrwt>
<pdfrwt beam="2">  1       21 0.66110183E-03 0.50206135E+01</pdfrwt>
<totfact> 0.39744608E+09</totfact>
</mgrwt>
</event>
<event>
 4    1  0.3999109E+006  0.7618695E+01  0.7546771E-02  0.2242799E+00
         21   -1    0    0  501  502  0.00000000000E+00  0.00000000000E+00  0.43429549478E+02  0.43429549478E+02  0.00000000000E+00 0.  1.
         21   -1    0    0  502  503 -0.00000000000E+00 -0.00000000000E+00 -0.15980893643E+01  0.15980893643E+01  0.00000000000E+00 0. -1.
          5    1    1    2  501    0  0.58482939988E+01 -0.13236225859E+01  0.30024106637E+02  0.30975659780E+02  0.47000000000E+01 0.  1.
         -5    1    1    2    0  503 -0.58482939988E+01  0.13236225859E+01  0.11807353477E+02  0.14051979062E+02  0.47000000000E+01 0. -1.
<mgrwt>
<rscale>  2 0.76186954E+01</rscale>
<asrwt>0</asrwt>
<pdfrwt beam="1">  1       21 0.66814683E-02 0.76186954E+01</pdfrwt>
<pdfrwt beam="2">  1       21 0.24585994E-03 0.76186954E+01</pdfrwt>
<totfact> 0.16922930E+09</totfact>
</mgrwt>
</event>
<event>
 4    1  0.3999109E+006  0.8942417E+01  0.7546771E-02  0.2140696E+00
         21   -1    0    0  503  502  0.00000000000E+00  0.00000000000E+00  0.28784265829E+01  0.28784265829E+01  0.00000000000E+00 0. -1.
         21   -1    0    0  501  503 -0.00000000000E+00 -0.00000000000E+00 -0.44703958224E+02  0.44703958224E+02  0.00000000000E+00 0.  1.
          5    1    1    2  501    0 -0.70363671076E+01  0.28924652351E+01 -0.35550565393E+02  0.36658007542E+02  0.47000000000E+01 0.  1.
         -5    1    1    2    0  502  0.70363671076E+01 -0.28924652351E+01 -0.62749662484E+01  0.10924377265E+02  0.47000000000E+01 0. -1.
<mgrwt>
<rscale>  2 0.89424167E+01</rscale>
<asrwt>0</asrwt>
<pdfrwt beam="1">  1       21 0.44283487E-03 0.89424167E+01</pdfrwt>
<pdfrwt beam="2">  1       21 0.68775318E-02 0.89424167E+01</pdfrwt>
<totfact> 0.78847583E+08</totfact>
</mgrwt>
</event>
<event>
 4    1  0.3999109E+006  0.5268255E+01  0.7546771E-02  0.2521658E+00
         21   -1    0    0  503  502  0.00000000000E+00  0.00000000000E+00  0.21718646026E+02  0.21718646026E+02  0.00000000000E+00 0. -1.
         21   -1    0    0  501  503 -0.00000000000E+00 -0.00000000000E+00 -0.13304199593E+01  0.13304199593E+01  0.00000000000E+00 0. -1.
          5    1    1    2  501    0 -0.17136700606E+01 -0.16516188676E+01  0.79045999312E+01  0.94993268200E+01  0.47000000000E+01 0. -1.
         -5    1    1    2    0  502  0.17136700606E+01  0.16516188676E+01  0.12483626136E+02  0.13549739166E+02  0.47000000000E+01 0. -1.
<mgrwt>
<rscale>  2 0.52682549E+01</rscale>
<asrwt>0</asrwt>
<pdfrwt beam="1">  1       21 0.33413299E-02 0.52682549E+01</pdfrwt>
<pdfrwt beam="2">  1       21 0.20468001E-03 0.52682549E+01</pdfrwt>
<totfact> 0.44605689E+09</totfact>
</mgrwt>
</event>
<event>
 4    1  0.3999109E+006  0.6202935E+01  0.7546771E-02  0.2389737E+00
         21   -1    0    0  503  502  0.00000000000E+00  0.00000000000E+00  0.71378523761E+02  0.71378523761E+02  0.00000000000E+00 0. -1.
         21   -1    0    0  501  503 -0.00000000000E+00 -0.00000000000E+00 -0.22615327716E+02  0.22615327716E+02  0.00000000000E+00 0. -1.
          5    1    1    2  501    0 -0.39897808620E+01  0.68414225036E+00 -0.22051852514E+02  0.22907653770E+02  0.47000000000E+01 0. -1.
         -5    1    1    2    0  502  0.39897808620E+01 -0.68414225036E+00  0.70815048559E+02  0.71086197707E+02  0.47000000000E+01 0. -1.
<mgrwt>
<rscale>  2 0.62029349E+01</rscale>
<asrwt>0</asrwt>
<pdfrwt beam="1">  1       21 0.10981311E-01 0.62029349E+01</pdfrwt>
<pdfrwt beam="2">  1       21 0.34792812E-02 0.62029349E+01</pdfrwt>
<totfact> 0.16046809E+07</totfact>
</mgrwt>
</event>
<event>
 4    1  0.3999109E+006  0.5324442E+01  0.7546771E-02  0.2512628E+00
         21   -1    0    0  501  502  0.00000000000E+00  0.00000000000E+00  0.99996727376E+02  0.99996727376E+02  0.00000000000E+00 0.  1.
         21   -1    0    0  502  503 -0.00000000000E+00 -0.00000000000E+00 -0.10760644096E+01  0.10760644096E+01  0.00000000000E+00 0.  1.
          5    1    1    2  501    0  0.92683945646E+00  0.23239311632E+01  0.92831460718E+02  0.92984029738E+02  0.47000000000E+01 0.  1.
         -5    1    1    2    0  503 -0.92683945646E+00 -0.23239311632E+01  0.60892022491E+01  0.80887620474E+01  0.47000000000E+01 0.  1.
<mgrwt>
<rscale>  2 0.53244425E+01</rscale>
<asrwt>0</asrwt>
<pdfrwt beam="1">  1       21 0.15384105E-01 0.53244425E+01</pdfrwt>
<pdfrwt beam="2">  1       21 0.16554845E-03 0.53244425E+01</pdfrwt>
<totfact> 0.60975150E+08</totfact>
</mgrwt>
</event>
<event>
 4    1  0.3999109E+006  0.6618842E+01  0.7546771E-02  0.2341226E+00
         21   -1    0    0  503  502  0.00000000000E+00  0.00000000000E+00  0.11319711976E+02  0.11319711976E+02  0.00000000000E+00 0.  1.
         21   -1    0    0  501  503 -0.00000000000E+00 -0.00000000000E+00 -0.17709223445E+02  0.17709223445E+02  0.00000000000E+00 0. -1.
          5    1    1    2  501    0 -0.35618394235E+00 -0.46467412244E+01 -0.16025585420E+02  0.17338640635E+02  0.47000000000E+01 0. -1.
         -5    1    1    2    0  502  0.35618394235E+00  0.46467412244E+01  0.96360739506E+01  0.11690294786E+02  0.47000000000E+01 0.  1.
<mgrwt>
<rscale>  2 0.66188421E+01</rscale>
<asrwt>0</asrwt>
<pdfrwt beam="1">  1       21 0.17414942E-02 0.66188421E+01</pdfrwt>
<pdfrwt beam="2">  1       21 0.27244959E-02 0.66188421E+01</pdfrwt>
<totfact> 0.36810663E+08</totfact>
</mgrwt>
</event>
<event>
 4    1  0.3999109E+006  0.8147451E+01  0.7546771E-02  0.2198824E+00
         21   -1    0    0  501  502  0.00000000000E+00  0.00000000000E+00  0.87804571189E+01  0.87804571189E+01  0.00000000000E+00 0.  1.
         21   -1    0    0  502  503 -0.00000000000E+00 -0.00000000000E+00 -0.12645110729E+02  0.12645110729E+02  0.00000000000E+00 0. -1.
          5    1    1    2  501    0  0.54407973970E+01 -0.38325808686E+01  0.48610835076E+01  0.94874172090E+01  0.47000000000E+01 0.  1.
         -5    1    1    2    0  503 -0.54407973970E+01  0.38325808686E+01 -0.87257371175E+01  0.11938150639E+02  0.47000000000E+01 0.  1.
<mgrwt>
<rscale>  2 0.81474507E+01</rscale>
<asrwt>0</asrwt>
<pdfrwt beam="1">  1       21 0.13508396E-02 0.81474507E+01</pdfrwt>
<pdfrwt beam="2">  1       21 0.19454016E-02 0.81474507E+01</pdfrwt>
<totfact> 0.10011139E+09</totfact>
</mgrwt>
</event>
<event>
 4    1  0.3999109E+006  0.4982046E+01  0.7546771E-02  0.2570349E+00
         21   -1    0    0  501  502  0.00000000000E+00  0.00000000000E+00  0.90801301243E+02  0.90801301243E+02  0.00000000000E+00 0.  1.
         21   -1    0    0  502  503 -0.00000000000E+00 -0.00000000000E+00 -0.30235052679E+00  0.30235052679E+00  0.00000000000E+00 0.  1.
          5    1    1    2  501    0 -0.15309198484E+01 -0.62214873839E+00  0.59356416008E+02  0.59565131628E+02  0.47000000000E+01 0.  1.
         -5    1    1    2    0  503  0.15309198484E+01  0.62214873839E+00  0.31142534708E+02  0.31538520141E+02  0.47000000000E+01 0.  1.
<mgrwt>
<rscale>  2 0.49820462E+01</rscale>
<asrwt>0</asrwt>
<pdfrwt beam="1">  1       21 0.13969409E-01 0.49820462E+01</pdfrwt>
<pdfrwt beam="2">  1       21 0.46515538E-04 0.49820462E+01</pdfrwt>
<totfact> 0.36135752E+09</totfact>
</mgrwt>
</event>
<event>
 4    1  0.3999109E+006  0.5516856E+01  0.7546771E-02  0.2482895E+00
         21   -1    0    0  503  502  0.00000000000E+00  0.00000000000E+00  0.62356884751E+01  0.62356884751E+01  0.00000000000E+00 0. -1.
         21   -1    0    0  501  503 -0.00000000000E+00 -0.00000000000E+00 -0.48818303821E+01  0.48818303821E+01  0.00000000000E+00 0. -1.
          5    1    1    2  501    0 -0.14640082763E+01  0.24904574505E+01  0.59970638383E+00  0.55493554844E+01  0.47000000000E+01 0. -1.
         -5    1    1    2    0  502  0.14640082763E+01 -0.24904574505E+01  0.75415170914E+00  0.55681633728E+01  0.47000000000E+01 0. -1.
<mgrwt>
<rscale>  2 0.55168559E+01</rscale>
<asrwt>0</asrwt>
<pdfrwt beam="1">  1       21 0.95933669E-03 0.55168559E+01</pdfrwt>
<pdfrwt beam="2">  1       21 0.75105083E-03 0.55168559E+01</pdfrwt>
<totfact> 0.46259751E+09</totfact>
</mgrwt>
</event>
<event>
 4    1  0.3999109E+006  0.6282272E+01  0.7546771E-02  0.2380072E+00
         21   -1    0    0  503  502  0.00000000000E+00  0.00000000000E+00  0.19466694464E+01  0.19466694464E+01  0.00000000000E+00 0.  1.
         21   -1    0    0  501  503 -0.00000000000E+00 -0.00000000000E+00 -0.20968689716E+02  0.20968689716E+02  0.00000000000E+00 0. -1.
          5    1    1    2  501    0 -0.37264745514E+01  0.18682435241E+01 -0.11596361054E+02  0.13188727616E+02  0.47000000000E+01 0. -1.
         -5    1    1    2    0  502  0.37264745514E+01 -0.18682435241E+01 -0.74256592163E+01  0.97266315467E+01  0.47000000000E+01 0.  1.
<mgrwt>
<rscale>  2 0.62822724E+01</rscale>
<asrwt>0</asrwt>
<pdfrwt beam="1">  1       21 0.29948760E-03 0.62822724E+01</pdfrwt>
<pdfrwt beam="2">  1       21 0.32259523E-02 0.62822724E+01</pdfrwt>
<totfact> 0.32865434E+09</totfact>
</mgrwt>
</event>
<event>
 4    1  0.3999109E+006  0.4721673E+01  0.7546771E-02  0.2619031E+00
         21   -1    0    0  503  502  0.00000000000E+00  0.00000000000E+00  0.17020299090E+04  0.17020299090E+04  0.00000000000E+00 0. -1.
         21   -1    0    0  501  503 -0.00000000000E+00 -0.00000000000E+00 -0.18168539783E-01  0.18168539783E-01  0.00000000000E+00 0. -1.
          5    1    1    2  501    0 -0.20543431702E+00 -0.40248395816E+00  0.40145015060E+03  0.40147791672E+03  0.47000000000E+01 0. -1.
         -5    1    1    2    0  502  0.20543431702E+00  0.40248395816E+00  0.13005615899E+04  0.13005701608E+04  0.47000000000E+01 0. -1.
<mgrwt>
<rscale>  2 0.47216731E+01</rscale>
<asrwt>0</asrwt>
<pdfrwt beam="1">  1       21 0.26172311E+00 0.47216731E+01</pdfrwt>
<pdfrwt beam="2">  1       21 0.27965232E-05 0.47216731E+01</pdfrwt>
<totfact> 0.64450852E+08</totfact>
</mgrwt>
</event>
<event>
 4    1  0.3999109E+006  0.6981418E+01  0.7546771E-02  0.2302871E+00
         21   -1    0    0  501  502  0.00000000000E+00  0.00000000000E+00  0.14744633479E+03  0.14744633479E+03  0.00000000000E+00 0. -1.
         21   -1    0    0  502  503 -0.00000000000E+00 -0.00000000000E+00 -0.32985270416E+01  0.32985270416E+01  0.00000000000E+00 0.  1.
          5    1    1    2  501    0 -0.30486534281E+01 -0.41660421717E+01  0.14356992428E+03  0.14373956781E+03  0.47000000000E+01 0. -1.
         -5    1    1    2    0  503  0.30486534281E+01  0.41660421717E+01  0.57788346911E+00  0.70052940270E+01  0.47000000000E+01 0.  1.
<mgrwt>
<rscale>  2 0.69814178E+01</rscale>
<asrwt>0</asrwt>
<pdfrwt beam="1">  1       21 0.22684046E-01 0.69814178E+01</pdfrwt>
<pdfrwt beam="2">  1       21 0.50746581E-03 0.69814178E+01</pdfrwt>
<totfact> 0.84345824E+07</totfact>
</mgrwt>
</event>
<event>
 4    1  0.3999109E+006  0.1201491E+02  0.7546771E-02  0.1975704E+00
         21   -1    0    0  501  502  0.00000000000E+00  0.00000000000E+00  0.81975860867E+02  0.81975860867E+02  0.00000000000E+00 0.  1.
         21   -1    0    0  502  503 -0.00000000000E+00 -0.00000000000E+00 -0.29334287588E+01  0.29334287588E+01  0.00000000000E+00 0. -1.
          5    1    1    2  501    0 -0.10264190532E+02 -0.41127142765E+01  0.66361306834E+02  0.67440203668E+02  0.47000000000E+01 0.  1.
         -5    1    1    2    0  503  0.10264190532E+02  0.41127142765E+01  0.12681125274E+02  0.17469085958E+02  0.47000000000E+01 0. -1.
<mgrwt>
<rscale>  2 0.12014908E+02</rscale>
<asrwt>0</asrwt>
<pdfrwt beam="1">  1       21 0.12611669E-01 0.12014908E+02</pdfrwt>
<pdfrwt beam="2">  1       21 0.45129679E-03 0.12014908E+02</pdfrwt>
<totfact> 0.34324312E+08</totfact>
</mgrwt>
</event>
<event>
 4    1  0.3999109E+006  0.5278806E+01  0.7546771E-02  0.2519950E+00
         21   -1    0    0  501  502  0.00000000000E+00  0.00000000000E+00  0.40348800518E+01  0.40348800518E+01  0.00000000000E+00 0. -1.
         21   -1    0    0  502  503 -0.00000000000E+00 -0.00000000000E+00 -0.70727642239E+01  0.70727642239E+01  0.00000000000E+00 0.  1.
          5    1    1    2  501    0 -0.49670809405E+00  0.23513987321E+01 -0.66671783917E+00  0.53207431441E+01  0.47000000000E+01 0. -1.
         -5    1    1    2    0  503  0.49670809405E+00 -0.23513987321E+01 -0.23711663330E+01  0.57869011316E+01  0.47000000000E+01 0.  1.
<mgrwt>
<rscale>  2 0.52788062E+01</rscale>
<asrwt>0</asrwt>
<pdfrwt beam="1">  1       21 0.62075079E-03 0.52788062E+01</pdfrwt>
<pdfrwt beam="2">  1       21 0.10881176E-02 0.52788062E+01</pdfrwt>
<totfact> 0.48342706E+09</totfact>
</mgrwt>
</event>
<event>
 4    1  0.3999109E+006  0.6328706E+01  0.7546771E-02  0.2374509E+00
         21   -1    0    0  501  502  0.00000000000E+00  0.00000000000E+00  0.10277566459E+03  0.10277566459E+03  0.00000000000E+00 0. -1.
         21   -1    0    0  502  503 -0.00000000000E+00 -0.00000000000E+00 -0.43792842421E+01  0.43792842421E+01  0.00000000000E+00 0. -1.
          5    1    1    2  501    0 -0.42246172541E+01 -0.33930426850E+00  0.10033622616E+03  0.10053561955E+03  0.47000000000E+01 0. -1.
         -5    1    1    2    0  503  0.42246172541E+01  0.33930426850E+00 -0.19398458142E+01  0.66193292797E+01  0.47000000000E+01 0. -1.
<mgrwt>
<rscale>  2 0.63287059E+01</rscale>
<asrwt>0</asrwt>
<pdfrwt beam="1">  1       21 0.15811639E-01 0.63287059E+01</pdfrwt>
<pdfrwt beam="2">  1       21 0.67373611E-03 0.63287059E+01</pdfrwt>
<totfact> 0.96070492E+07</totfact>
</mgrwt>
</event>
<event>
 4    1  0.3999109E+006  0.4936384E+01  0.7546771E-02  0.2578564E+00
         21   -1    0    0  501  502  0.00000000000E+00  0.00000000000E+00  0.85725217040E+00  0.85725217040E+00  0.00000000000E+00 0.  1.
         21   -1    0    0  502  503 -0.00000000000E+00 -0.00000000000E+00 -0.36715106312E+02  0.36715106312E+02  0.00000000000E+00 0.  1.
          5    1    1    2  501    0 -0.14248410573E+01  0.49770904521E+00 -0.90024305412E+01  0.10267017190E+02  0.47000000000E+01 0.  1.
         -5    1    1    2    0  503  0.14248410573E+01 -0.49770904521E+00 -0.26855423600E+02  0.27305341292E+02  0.47000000000E+01 0.  1.
<mgrwt>
<rscale>  2 0.49363839E+01</rscale>
<asrwt>0</asrwt>
<pdfrwt beam="1">  1       21 0.13188496E-03 0.49363839E+01</pdfrwt>
<pdfrwt beam="2">  1       21 0.56484776E-02 0.49363839E+01</pdfrwt>
<totfact> 0.35040563E+09</totfact>
</mgrwt>
</event>
<event>
 4    1  0.3999109E+006  0.5347050E+01  0.7546771E-02  0.2509040E+00
         21   -1    0    0  501  502  0.00000000000E+00  0.00000000000E+00  0.14224890023E-01  0.14224890023E-01  0.00000000000E+00 0. -1.
         21   -1    0    0  502  503 -0.00000000000E+00 -0.00000000000E+00 -0.21386537985E+04  0.21386537985E+04  0.00000000000E+00 0. -1.
          5    1    1    2  501    0 -0.24784192317E+01 -0.59864788287E+00 -0.13316712396E+04  0.13316819745E+04  0.47000000000E+01 0. -1.
         -5    1    1    2    0  503  0.24784192317E+01  0.59864788287E+00 -0.80696833406E+03  0.80698604890E+03  0.47000000000E+01 0. -1.
<mgrwt>
<rscale>  2 0.53470498E+01</rscale>
<asrwt>0</asrwt>
<pdfrwt beam="1">  1       21 0.21860174E-05 0.53470498E+01</pdfrwt>
<pdfrwt beam="2">  1       21 0.32938899E+00 0.53470498E+01</pdfrwt>
<totfact> 0.53659853E+08</totfact>
</mgrwt>
</event>
<event>
 4    1  0.3999109E+006  0.7329987E+01  0.7546771E-02  0.2268958E+00
         21   -1    0    0  501  502  0.00000000000E+00  0.00000000000E+00  0.17768354514E+03  0.17768354514E+03  0.00000000000E+00 0.  1.
         21   -1    0    0  502  503 -0.00000000000E+00 -0.00000000000E+00 -0.31192037280E+00  0.31192037280E+00  0.00000000000E+00 0. -1.
          5    1    1    2  501    0  0.27688385482E+01  0.48961455165E+01  0.10424699847E+03  0.10450437980E+03  0.47000000000E+01 0.  1.
         -5    1    1    2    0  503 -0.27688385482E+01 -0.48961455165E+01  0.73124626295E+02  0.73491085709E+02  0.47000000000E+01 0. -1.
<mgrwt>
<rscale>  2 0.73299869E+01</rscale>
<asrwt>0</asrwt>
<pdfrwt beam="1">  1       21 0.27335849E-01 0.73299869E+01</pdfrwt>
<pdfrwt beam="2">  1       21 0.47987892E-04 0.73299869E+01</pdfrwt>
<totfact> 0.16126112E+09</totfact>
</mgrwt>
</event>
<event>
 4    1  0.3999109E+006  0.5742424E+01  0.7546771E-02  0.2450203E+00
         21   -1    0    0  501  502  0.00000000000E+00  0.00000000000E+00  0.55266810032E+02  0.55266810032E+02  0.00000000000E+00 0. -1.
         21   -1    0    0  502  503 -0.00000000000E+00 -0.00000000000E+00 -0.16263618357E+01  0.16263618357E+01  0.00000000000E+00 0. -1.
          5    1    1    2  501    0  0.12385142091E+01  0.30580256644E+01  0.49455068996E+02  0.49787340638E+02  0.47000000000E+01 0. -1.
         -5    1    1    2    0  503 -0.12385142091E+01 -0.30580256644E+01  0.41853791997E+01  0.71058312290E+01  0.47000000000E+01 0. -1.
<mgrwt>
<rscale>  2 0.57424244E+01</rscale>
<asrwt>0</asrwt>
<pdfrwt beam="1">  1       21 0.85025847E-02 0.57424244E+01</pdfrwt>
<pdfrwt beam="2">  1       21 0.25020956E-03 0.57424244E+01</pdfrwt>
<totfact> 0.92325439E+08</totfact>
</mgrwt>
</event>
<event>
 4    1  0.3999109E+006  0.5846221E+01  0.7546771E-02  0.2435878E+00
         21   -1    0    0  503  502  0.00000000000E+00  0.00000000000E+00  0.29290263740E+01  0.29290263740E+01  0.00000000000E+00 0.  1.
         21   -1    0    0  501  503 -0.00000000000E+00 -0.00000000000E+00 -0.14876341192E+02  0.14876341192E+02  0.00000000000E+00 0.  1.
          5    1    1    2  501    0 -0.80084456609E-01  0.34759013001E+01 -0.10107530551E+02  0.11676492505E+02  0.47000000000E+01 0.  1.
         -5    1    1    2    0  502  0.80084456609E-01 -0.34759013001E+01 -0.18397842669E+01  0.61288750613E+01  0.47000000000E+01 0.  1.
<mgrwt>
<rscale>  2 0.58462213E+01</rscale>
<asrwt>0</asrwt>
<pdfrwt beam="1">  1       21 0.45061945E-03 0.58462213E+01</pdfrwt>
<pdfrwt beam="2">  1       21 0.22886678E-02 0.58462213E+01</pdfrwt>
<totfact> 0.28876229E+09</totfact>
</mgrwt>
</event>
<event>
 4    1  0.3999109E+006  0.5471024E+01  0.7546771E-02  0.2489816E+00
         21   -1    0    0  501  502  0.00000000000E+00  0.00000000000E+00  0.21194145027E+02  0.21194145027E+02  0.00000000000E+00 0.  1.
         21   -1    0    0  502  503 -0.00000000000E+00 -0.00000000000E+00 -0.26713097692E+01  0.26713097692E+01  0.00000000000E+00 0.  1.
          5    1    1    2  501    0 -0.27158451035E+01 -0.68285163929E+00  0.17453518989E+02  0.18290911024E+02  0.47000000000E+01 0.  1.
         -5    1    1    2    0  503  0.27158451035E+01  0.68285163929E+00  0.10693162689E+01  0.55745437724E+01  0.47000000000E+01 0.  1.
<mgrwt>
<rscale>  2 0.54710238E+01</rscale>
<asrwt>0</asrwt>
<pdfrwt beam="1">  1       21 0.32606376E-02 0.54710238E+01</pdfrwt>
<pdfrwt beam="2">  1       21 0.41097075E-03 0.54710238E+01</pdfrwt>
<totfact> 0.18535429E+09</totfact>
</mgrwt>
</event>
